FOO
138240
    1MOL0     O    1   2.962   3.345   7.058  1.0834  0.1266  0.2064
    1MOL0     C    2   2.968   3.454   7.105 -0.5312  0.9757  1.2629
    1MOL0     O    3   2.933   3.482   7.234 -0.1425  0.5108  0.0115
    1MOL0     C    4   2.825   3.408   7.292 -0.8911 -0.4940 -0.0707
    1MOL0     C    5   2.700   3.466   7.320  0.3089 -0.2881  0.1474
    1MOL0     C    6   2.600   3.397   7.392 -0.5811  0.7624  0.2105
    1MOL0     C    7   2.630   3.270   7.440  1.4277 -0.1444 -0.2938
    1MOL0     O    8   2.545   3.202   7.526  0.3025 -0.2164  0.4930
    1MOL0     C    9   2.450   3.277   7.611  0.3585 -1.3164  0.0197
    1MOL0     C   10   2.297   3.258   7.565 -0.3182  0.0746 -1.0642
    1MOL0     C   11   2.195   3.353   7.628  0.3840 -0.2198 -0.4886
    1MOL0     C   12   2.246   3.483   7.692 -0.8895 -0.2816 -0.3126
    1MOL0     C   13   2.143   3.582   7.749  0.6251  0.8593  0.8240
    1MOL0     C   14   2.058   3.642   7.629 -0.6351  0.9428 -0.2695
    1MOL0     C   15   1.966   3.761   7.671  0.0447  0.1690  0.6262
    1MOL0     C   16   1.867   3.784   7.558 -0.5470 -1.1743 -0.2019
    1MOL0     N   17   1.893   3.917   7.502 -0.3759  0.3429 -0.1795
    1MOL0     C   18   1.994   3.942   7.419  0.7160 -0.2929  0.5847
    1MOL0     C   19   1.977   4.072   7.376 -1.0392  0.3763 -0.3497
    1MOL0     C   20   2.072   4.151   7.289  0.7039  0.2829 -0.3516
    1MOL0     C   21   2.199   4.192   7.367  0.1127 -0.5115 -0.1064
    1MOL0     C   22   2.309   4.268   7.278  0.1186  0.1367 -0.8407
    1MOL0     C   23   2.408   4.164   7.230 -0.2896 -0.9719 -0.5093
    1MOL0     O   24   2.516   4.162   7.324  0.2574  0.7923 -0.2108
    1MOL0     C   25   2.630   4.216   7.285 -0.4558  0.1610  0.0786
    1MOL0     C   26   2.636   4.322   7.202 -0.2159 -0.1783  0.4628
    1MOL0     C   27   2.764   4.384   7.184  0.1074 -0.0558  0.5299
    1MOL0     C   28   2.874   4.346   7.253  0.3391  0.2665  0.3609
    1MOL0     C   29   3.006   4.413   7.237  0.1688 -0.8810 -0.4761
    1MOL0     O   30   3.010   4.516   7.154  0.0878  0.3742  0.3739
    1MOL0     C   31   3.134   4.555   7.107 -0.3328  0.5752 -0.9414
    1MOL0     C   32   3.192   4.501   6.985 -0.5287 -0.1986 -0.3842
    1MOL0     C   33   3.314   4.558   6.930  0.7430  0.0198 -0.2379
    1MOL0     C   34   3.370   4.660   7.003  0.0383 -0.3823  0.3318
    1MOL0     O   35   3.500   4.703   6.978 -0.6837  0.2611  0.0870
    1MOL0     C   36   3.525   4.826   6.912  0.5195 -0.2607  0.5054
    1MOL0     C   37   3.664   4.847   6.866  0.4574  0.7918 -1.4967
    1MOL0     C   38   3.726   4.728   6.791 -0.4268  0.0115  0.3832
    1MOL0     C   39   3.670   4.705   6.647 -0.7299  0.1565 -0.2916
    1MOL0     C   40   3.724   4.571   6.581 -0.2728  0.1257 -0.1965
    1MOL0     C   41   3.681   4.551   6.436 -0.4756  0.4558  0.0206
    1MOL0     C   42   3.746   4.658   6.347  0.2180 -0.1029 -0.3001
    1MOL0     C   43   3.709   4.660   6.201  0.0140  0.1900  0.4054
    1MOL0    Cl   44   3.778   4.509   6.129  0.2808  0.2816  0.7143
    1MOL0     C   45   3.316   4.708   7.125  0.5075 -0.2413  0.1133
    1MOL0     C   46   3.200   4.652   7.170 -0.4319 -0.7487 -0.0326
    1MOL0     O   47   3.102   4.368   7.296  0.5284 -0.2097  0.2968
    1MOL0     C   48   2.877   4.229   7.328  0.7533  0.0916 -0.5132
    1MOL0     C   49   2.755   4.161   7.341 -0.0842  0.2040 -0.0236
    1MOL0     N   50   1.874   4.112   7.454  0.0080 -0.3366  0.6919
    1MOL0     N   51   1.823   4.026   7.533 -0.3307  0.0028 -0.1090
    1MOL0     C   52   2.760   3.217   7.424  1.1526 -0.5348  0.9130
    1MOL0     C   53   2.859   3.286   7.354 -0.5475  0.0807 -0.3667
    1MOL0     C   54   3.038   3.564   7.034  0.1587  0.7637  0.6914
    1MOL0     C   55   3.041   3.691   7.096  0.2169 -0.1820  0.1128
    1MOL0     C   56   3.110   3.791   7.031 -0.1981 -0.3438 -0.1050
    1MOL0     C   57   3.180   3.781   6.911  0.4418 -0.6309 -1.1286
    1MOL0     O   58   3.253   3.878   6.852 -0.2666 -0.4096 -0.0945
    1MOL0     C   59   3.337   3.965   6.941  1.0467  0.1863  0.6131
    1MOL0     C   60   3.395   4.072   6.862  0.4834  0.4436  0.1810
    1MOL0     C   61   3.282   4.170   6.807  0.0468  0.4211 -0.8832
    1MOL0     C   62   3.346   4.285   6.727  0.6639 -0.0629 -0.5548
    1MOL0     C   63   3.335   4.256   6.585  1.2041 -0.3056  0.0048
    1MOL0     C   64   3.300   4.259   6.473  0.2365  0.3522  0.1971
    1MOL0     C   65   3.170   3.661   6.848 -0.9046  1.2278 -0.4008
    1MOL0     C   66   3.101   3.553   6.908 -0.7404  0.3653  0.4416
    1MOL0     C   67   3.095   3.438   6.820 -0.4134 -0.1476 -0.3891
    1MOL0     H   68   2.672   3.566   7.286 -3.2669 -1.3097 -0.3172
    1MOL0     H   69   2.503   3.442   7.415 -1.6925 -2.6204  3.1159
    1MOL0     H   70   2.450   3.232   7.710  1.1302 -0.4526  0.4370
    1MOL0     H   71   2.472   3.384   7.616  1.3605 -1.4958 -0.3077
    1MOL0     H   72   2.273   3.152   7.577  3.6809 -0.9155 -0.3972
    1MOL0     H   73   2.295   3.283   7.458  3.2029  3.7080 -0.5313
    1MOL0     H   74   2.143   3.300   7.708 -1.7639  1.9143 -0.3822
    1MOL0     H   75   2.119   3.373   7.552  1.1577 -0.5612 -1.3898
    1MOL0     H   76   2.328   3.474   7.765 -1.3732  0.2699  0.3160
    1MOL0     H   77   2.285   3.539   7.606 -1.6281  1.0973  0.2115
    1MOL0     H   78   2.080   3.542   7.829 -1.1291 -1.2909 -1.4713
    1MOL0     H   79   2.194   3.669   7.791  0.6984  1.2641 -0.0792
    1MOL0     H   80   2.123   3.686   7.554 -0.3976  1.3273  0.1533
    1MOL0     H   81   2.002   3.558   7.587  3.2595 -4.0955  3.3354
    1MOL0     H   82   2.036   3.845   7.671 -0.6453  0.7895 -1.2491
    1MOL0     H   83   1.924   3.738   7.769  1.5959  1.8848  1.7687
    1MOL0     H   84   1.853   3.709   7.480 -1.4511 -0.3714 -0.8283
    1MOL0     H   85   1.767   3.781   7.604  0.5232  1.4093  2.6777
    1MOL0     H   86   2.080   3.881   7.391  1.2453  0.9096 -0.5439
    1MOL0     H   87   2.107   4.081   7.213  2.1896 -0.3363  0.8493
    1MOL0     H   88   2.018   4.237   7.248 -1.2548  0.8560  3.0152
    1MOL0     H   89   2.188   4.261   7.452  3.6985  1.7676 -1.2706
    1MOL0     H   90   2.245   4.099   7.401  5.0758  0.6009 -2.8029
    1MOL0     H   91   2.363   4.345   7.333  1.9742 -2.7047  1.6525
    1MOL0     H   92   2.259   4.314   7.192  0.0141 -1.3470 -1.6186
    1MOL0     H   93   2.436   4.177   7.125  0.6490 -1.7785 -0.3787
    1MOL0     H   94   2.362   4.064   7.230 -2.3552 -0.0934  0.7754
    1MOL0     H   95   2.549   4.375   7.163 -1.2592 -2.5884 -0.7363
    1MOL0     H   96   2.771   4.470   7.119  0.3960 -1.0802 -0.8214
    1MOL0     H   97   3.145   4.417   6.935  0.4371 -0.2535 -1.2293
    1MOL0     H   98   3.354   4.531   6.832  0.3767  0.3143 -0.4719
    1MOL0     H   99   3.457   4.820   6.826  1.0550 -0.5193  0.0988
    1MOL0     H  100   3.478   4.908   6.967  1.4600  2.2090 -2.1286
    1MOL0     H  101   3.665   4.937   6.804 -1.0577  1.6591 -0.3406
    1MOL0     H  102   3.730   4.867   6.951 -2.0543  3.4007  0.0077
    1MOL0     H  103   3.832   4.756   6.799 -1.0900  3.1513 -0.2464
    1MOL0     H  104   3.715   4.634   6.845  1.7258 -0.7030 -0.3289
    1MOL0     H  105   3.695   4.794   6.589 -0.8086 -0.3176 -1.0568
    1MOL0     H  106   3.562   4.704   6.636 -0.6987  2.4922 -1.4913
    1MOL0     H  107   3.685   4.481   6.630 -0.5066 -1.7674 -3.5492
    1MOL0     H  108   3.833   4.564   6.595 -0.3509  0.8679  0.8600
    1MOL0     H  109   3.706   4.449   6.406 -0.3028  0.4308  0.2446
    1MOL0     H  110   3.573   4.560   6.421 -0.8414  0.0707  2.0848
    1MOL0     H  111   3.853   4.639   6.359  0.6909  1.7946 -1.0788
    1MOL0     H  112   3.713   4.753   6.391 -1.7779 -1.9667  2.4884
    1MOL0     H  113   3.600   4.663   6.193 -0.1718  1.8479  2.6040
    1MOL0     H  114   3.758   4.748   6.159  0.4156 -0.8941 -1.5406
    1MOL0     H  115   3.362   4.791   7.177 -0.5366  0.8181 -0.6160
    1MOL0     H  116   3.164   4.687   7.266  0.0210 -0.4675  0.0386
    1MOL0     H  117   2.969   4.197   7.376  2.0844 -1.0725 -3.5394
    1MOL0     H  118   2.754   4.083   7.417 -0.5409  1.2065  1.0456
    1MOL0     H  119   2.809   3.128   7.461  2.8071  0.9273  2.4310
    1MOL0     H  120   2.952   3.232   7.341 -0.6678 -0.5650  1.2020
    1MOL0     H  121   3.012   3.706   7.199 -1.1453 -1.1660 -0.0977
    1MOL0     H  122   3.105   3.890   7.075 -0.0676 -0.6185  0.5396
    1MOL0     H  123   3.415   3.904   6.985  1.4532  0.9517  0.9786
    1MOL0     H  124   3.293   4.009   7.031 -2.5831  0.0271 -0.9184
    1MOL0     H  125   3.445   4.034   6.773  1.8151  0.9995  0.6718
    1MOL0     H  126   3.463   4.125   6.929  3.3732 -1.6589 -0.8904
    1MOL0     H  127   3.240   4.218   6.895 -2.4294 -1.9623 -0.6282
    1MOL0     H  128   3.206   4.113   6.753 -1.0609 -2.6534  3.3564
    1MOL0     H  129   3.284   4.374   6.738 -1.1810 -1.3396 -0.0315
    1MOL0     H  130   3.450   4.304   6.755  0.3668 -1.9941  2.3519
    1MOL0     H  131   3.259   4.282   6.377  0.4702  1.7896  0.4250
    1MOL0     H  132   3.204   3.651   6.745 -1.4486  1.3688 -0.6004
    1MOL0     H  133   3.006   3.375   6.828 -0.0724 -0.5565  0.2592
    1MOL0     H  134   3.098   3.471   6.715  0.3039 -1.2716 -0.7417
    1MOL0     H  135   3.174   3.365   6.841 -2.5010 -1.4754  3.9375
    2MOL0     O  136   3.724   7.399   9.221  0.1378 -0.5661  0.3499
    2MOL0     C  137   3.705   7.279   9.238 -0.0721  0.6374  0.3049
    2MOL0     O  138   3.625   7.198   9.154 -0.1223  0.8284  0.5068
    2MOL0     C  139   3.566   7.257   9.048  0.8588 -0.5549  0.0370
    2MOL0     C  140   3.637   7.342   8.962 -0.3105 -0.2135 -0.4498
    2MOL0     C  141   3.573   7.385   8.844  0.4031 -0.2258 -0.5378
    2MOL0     C  142   3.442   7.351   8.820 -0.2262 -1.0875 -0.4338
    2MOL0     O  143   3.384   7.388   8.705  0.1409 -0.2315  0.4549
    2MOL0     C  144   3.430   7.349   8.578  0.3494 -0.6173  0.8487
    2MOL0     C  145   3.463   7.487   8.510  0.4770 -0.0905  0.6975
    2MOL0     C  146   3.336   7.580   8.507 -0.6609 -0.0847  0.5314
    2MOL0     C  147   3.198   7.515   8.477  0.1044 -0.3620 -0.1836
    2MOL0     C  148   3.081   7.610   8.474 -0.2258  0.1976 -0.5104
    2MOL0     C  149   3.050   7.666   8.615  0.4625 -0.5409 -0.1274
    2MOL0     C  150   2.909   7.606   8.667 -0.3089 -0.5211 -0.0950
    2MOL0     C  151   2.879   7.661   8.804  0.1992  1.3889 -0.3005
    2MOL0     N  152   2.950   7.586   8.915 -0.0407 -0.1984  0.7229
    2MOL0     C  153   3.057   7.643   8.969 -0.6022 -0.0804 -0.1825
    2MOL0     C  154   3.091   7.562   9.075  0.0699  0.0772 -0.0004
    2MOL0     C  155   3.195   7.588   9.179  0.7185  0.7698  0.3805
    2MOL0     C  156   3.332   7.531   9.143 -0.0600  0.1185 -1.1484
    2MOL0     C  157   3.458   7.606   9.197  0.2673  0.7531 -0.3323
    2MOL0     C  158   3.484   7.743   9.128  0.0961 -0.2291 -0.8603
    2MOL0     O  159   3.511   7.855   9.220 -0.1619  0.5097  0.2883
    2MOL0     C  160   3.634   7.852   9.300  0.6891 -0.0444 -0.8090
    2MOL0     C  161   3.645   7.944   9.402 -1.0089  0.4382 -0.1388
    2MOL0     C  162   3.760   7.955   9.477  0.8011 -0.1535  0.7599
    2MOL0     C  163   3.859   7.857   9.455  0.5391 -0.2082 -0.7106
    2MOL0     C  164   3.980   7.868   9.541 -0.6553 -0.1497 -0.6507
    2MOL0     O  165   4.075   7.771   9.518 -0.1974  0.6902  0.1623
    2MOL0     C  166   4.139   7.706   9.622  0.2947  0.3846  0.5956
    2MOL0     C  167   4.274   7.676   9.604  0.4068 -0.3592  0.0875
    2MOL0     C  168   4.361   7.623   9.704  0.5516 -0.0647 -0.1774
    2MOL0     C  169   4.291   7.601   9.827 -0.9753 -0.0142  0.3402
    2MOL0     O  170   4.364   7.569   9.945 -0.6345 -0.7369  0.2952
    2MOL0     C  171   4.446   7.678   9.973 -0.0444  0.0054 -0.1252
    2MOL0     C  172   4.475   7.635  10.111  0.0093  0.8987 -0.3355
    2MOL0     C  173   4.570   7.727  10.183  0.9894  0.0990 -0.1041
    2MOL0     C  174   4.588   7.664  10.322 -0.1732 -0.2066 -0.0384
    2MOL0     C  175   4.694   7.743  10.403  0.4367 -0.0509  0.1969
    2MOL0     C  176   4.842   7.752  10.349  0.4368  0.7515  1.0933
    2MOL0     C  177   4.948   7.844  10.411 -0.0463 -0.9556 -1.1803
    2MOL0     C  178   4.996   7.793  10.549 -0.6888 -0.7648  0.8195
    2MOL0    Cl  179   4.870   7.848  10.669 -0.0696  0.3591 -0.1183
    2MOL0     C  180   4.162   7.629   9.853  0.4607 -0.3775  0.3322
    2MOL0     C  181   4.080   7.670   9.744 -0.6599 -0.5431 -0.5482
    2MOL0     O  182   4.007   7.968   9.606  0.7952 -0.8558 -0.9339
    2MOL0     C  183   3.855   7.769   9.339  0.9134 -0.1295 -0.2857
    2MOL0     C  184   3.745   7.779   9.257  0.0336  0.5571  0.5914
    2MOL0     N  185   3.016   7.444   9.065  0.9996 -0.1062  0.1731
    2MOL0     N  186   2.934   7.464   8.968 -1.1194 -0.1633 -0.1871
    2MOL0     C  187   3.362   7.282   8.919  0.3278 -0.9968  0.0545
    2MOL0     C  188   3.431   7.224   9.023  0.4991  0.5089 -0.4433
    2MOL0     C  189   3.752   7.224   9.365  0.3835  0.2613  0.5283
    2MOL0     C  190   3.716   7.091   9.392  0.4448 -0.3692  0.5403
    2MOL0     C  191   3.766   7.029   9.503 -0.4693 -0.3329  0.7813
    2MOL0     C  192   3.855   7.087   9.590 -0.0922  0.3408  0.2688
    2MOL0     O  193   3.904   7.011   9.689  0.2701 -0.3256 -0.6215
    2MOL0     C  194   3.980   7.073   9.789  0.4185  0.3935 -0.4434
    2MOL0     C  195   3.965   7.001   9.929  0.0542  0.2076  0.1585
    2MOL0     C  196   3.990   6.850   9.916  0.3181  0.2832 -0.2405
    2MOL0     C  197   4.043   6.795  10.050  0.1166 -0.1162  0.3972
    2MOL0     C  198   3.954   6.817  10.166 -1.5444  0.4725 -0.1719
    2MOL0     C  199   3.882   6.833  10.265  0.2020  1.3247  0.4805
    2MOL0     C  200   3.888   7.220   9.569 -0.0678 -0.2153 -0.2263
    2MOL0     C  201   3.842   7.292   9.455 -0.1628  0.5605 -0.4587
    2MOL0     C  202   3.902   7.426   9.430 -0.4127 -0.3187 -0.1967
    2MOL0     H  203   3.745   7.353   8.969 -0.3663  0.1507 -0.1024
    2MOL0     H  204   3.621   7.445   8.767 -0.9692  0.0880 -1.1698
    2MOL0     H  205   3.521   7.288   8.572  0.5798 -0.1324 -3.1473
    2MOL0     H  206   3.357   7.297   8.516 -0.3637 -0.3330  1.4371
    2MOL0     H  207   3.502   7.456   8.413 -0.2007 -0.7181  0.6134
    2MOL0     H  208   3.546   7.530   8.566 -0.8068  0.1896  2.4873
    2MOL0     H  209   3.364   7.656   8.434 -2.7622 -0.9299 -1.2641
    2MOL0     H  210   3.320   7.644   8.595  2.5141 -0.6026  1.6068
    2MOL0     H  211   3.205   7.453   8.387  1.9448  1.1225 -1.1321
    2MOL0     H  212   3.177   7.436   8.549 -0.8577 -2.7377 -2.8784
    2MOL0     H  213   3.100   7.695   8.407  1.1260  2.0160  2.0043
    2MOL0     H  214   2.995   7.552   8.439 -0.2932  0.1462 -0.2611
    2MOL0     H  215   3.126   7.636   8.687  1.4234 -0.0874 -0.9225
    2MOL0     H  216   3.044   7.775   8.607 -0.2104 -0.5157  0.5715
    2MOL0     H  217   2.909   7.497   8.667 -1.7229 -0.5916  2.2790
    2MOL0     H  218   2.830   7.641   8.600  0.0558 -0.1897 -0.3586
    2MOL0     H  219   2.900   7.768   8.803 -3.5805  2.3088 -1.7409
    2MOL0     H  220   2.776   7.652   8.840  1.0159  2.4285  2.5111
    2MOL0     H  221   3.091   7.740   8.936  0.2179  0.0030  0.8481
    2MOL0     H  222   3.193   7.694   9.205 -0.1242  1.3581 -1.8727
    2MOL0     H  223   3.156   7.532   9.266  0.1431 -1.8113 -1.4146
    2MOL0     H  224   3.333   7.428   9.181 -0.4934  1.2064  2.1100
    2MOL0     H  225   3.338   7.537   9.034 -1.2082  0.9045 -1.1867
    2MOL0     H  226   3.543   7.539   9.187  1.3001  1.8661  0.6614
    2MOL0     H  227   3.440   7.622   9.304 -0.1767  1.8178 -0.5470
    2MOL0     H  228   3.392   7.762   9.072  0.5797 -1.3467 -2.0876
    2MOL0     H  229   3.563   7.718   9.055  0.3879 -0.8491 -0.3417
    2MOL0     H  230   3.555   7.999   9.425 -0.0089  1.6438  1.0670
    2MOL0     H  231   3.762   8.026   9.559  1.2545 -0.6509  1.1851
    2MOL0     H  232   4.309   7.704   9.505  0.3516  3.8646  1.0771
    2MOL0     H  233   4.464   7.590   9.697 -0.3134 -3.5175  1.2675
    2MOL0     H  234   4.532   7.690   9.907 -0.5939 -1.4881 -1.1747
    2MOL0     H  235   4.397   7.776   9.977  1.3768  0.8004 -1.3663
    2MOL0     H  236   4.381   7.628  10.166  0.6074 -0.9424  0.5547
    2MOL0     H  237   4.520   7.535  10.119 -0.2185  0.8692  0.7419
    2MOL0     H  238   4.665   7.740  10.131  0.8692  2.0822  0.0935
    2MOL0     H  239   4.528   7.828  10.186  1.3963  0.2973 -0.8807
    2MOL0     H  240   4.623   7.561  10.319  3.4120  0.8458  0.5863
    2MOL0     H  241   4.502   7.673  10.390 -0.4162 -0.9325 -0.2442
    2MOL0     H  242   4.689   7.682  10.494 -2.9179 -0.9358 -0.4379
    2MOL0     H  243   4.668   7.847  10.420  1.0031  0.3203 -1.1281
    2MOL0     H  244   4.887   7.653  10.347 -0.8697  0.1259 -0.8876
    2MOL0     H  245   4.834   7.781  10.243 -2.2062  0.4976  1.1460
    2MOL0     H  246   4.916   7.948  10.410  2.1768 -0.0318  2.7279
    2MOL0     H  247   5.033   7.838  10.342  1.6687 -2.5939  0.9160
    2MOL0     H  248   5.015   7.685  10.555  3.3249 -0.2454  0.1456
    2MOL0     H  249   5.084   7.849  10.581 -0.6951 -1.7323  2.6791
    2MOL0     H  250   4.120   7.616   9.952 -3.3241 -0.9943 -1.1406
    2MOL0     H  251   3.975   7.684   9.767 -0.1585 -0.5954  2.0385
    2MOL0     H  252   3.938   7.700   9.324  1.9657  1.2182 -0.8757
    2MOL0     H  253   3.734   7.705   9.178 -2.5591  0.2141  1.1689
    2MOL0     H  254   3.263   7.248   8.892 -0.3902  0.5419  0.6584
    2MOL0     H  255   3.378   7.148   9.079  3.0464 -1.4414 -0.5160
    2MOL0     H  256   3.655   7.036   9.322  0.2638  0.8246 -0.2755
    2MOL0     H  257   3.745   6.924   9.521 -0.7997 -0.2075  1.1453
    2MOL0     H  258   3.951   7.178   9.799 -0.6553  0.3291 -2.3367
    2MOL0     H  259   4.085   7.071   9.757  1.0998 -0.7298  1.6664
    2MOL0     H  260   3.869   7.026   9.977  0.7568 -1.2461  2.4956
    2MOL0     H  261   4.043   7.043   9.994  1.2688  1.3099 -1.9039
    2MOL0     H  262   4.051   6.823   9.829  0.0966 -0.5523 -0.1371
    2MOL0     H  263   3.891   6.807   9.899  0.9568 -0.6396 -1.8861
    2MOL0     H  264   4.058   6.687  10.040 -0.5350 -0.2970  1.3049
    2MOL0     H  265   4.134   6.850  10.076  0.8118 -0.2779 -1.5278
    2MOL0     H  266   3.829   6.845  10.357 -1.9931 -0.0247 -0.5240
    2MOL0     H  267   3.968   7.268   9.625  1.5071 -0.5684 -2.0473
    2MOL0     H  268   3.942   7.431   9.328 -3.6821  1.2080 -1.5483
    2MOL0     H  269   3.829   7.507   9.443  0.7192  1.0374 -1.9284
    2MOL0     H  270   3.987   7.439   9.498  0.0019 -0.1983 -0.7331
    3MOL0     O  271   5.218   4.128   3.453 -0.3568 -0.7742  0.2532
    3MOL0     C  272   5.276   4.204   3.530 -0.0020  0.0124  1.1517
    3MOL0     O  273   5.319   4.334   3.503 -0.4095  0.1626 -0.1723
    3MOL0     C  274   5.317   4.379   3.374 -0.2835 -0.3223  0.2518
    3MOL0     C  275   5.293   4.317   3.254  1.5502 -0.1037 -0.0830
    3MOL0     C  276   5.304   4.384   3.135  0.3364 -0.2407  0.5441
    3MOL0     C  277   5.349   4.514   3.127  0.3179 -0.7779 -0.9634
    3MOL0     O  278   5.367   4.581   3.019 -0.7138 -0.6578  0.7394
    3MOL0     C  279   5.256   4.631   2.952 -0.4412  0.1881  0.1460
    3MOL0     C  280   5.305   4.679   2.813  0.6132 -0.5791 -0.4421
    3MOL0     C  281   5.195   4.753   2.739 -0.5983 -0.3483 -0.2820
    3MOL0     C  282   5.247   4.826   2.626 -0.2481 -0.5806 -0.0634
    3MOL0     C  283   5.151   4.910   2.547  0.3910  0.2456  0.5047
    3MOL0     C  284   5.045   4.830   2.478  1.0134 -0.3184 -0.6937
    3MOL0     C  285   4.934   4.901   2.401  0.8426 -0.0613  0.1616
    3MOL0     C  286   4.917   5.049   2.447 -0.6376  0.3355  0.9523
    3MOL0     N  287   4.811   5.120   2.367  0.0124 -0.5778  0.3191
    3MOL0     C  288   4.815   5.125   2.224  0.4511  0.8000  0.0024
    3MOL0     C  289   4.687   5.168   2.195  0.2115  0.0239 -0.1755
    3MOL0     C  290   4.638   5.192   2.054  0.1745  0.9036 -0.0865
    3MOL0     C  291   4.520   5.302   2.033  0.0486  0.7486 -0.5592
    3MOL0     C  292   4.574   5.438   2.062 -0.2280 -0.3540 -0.1956
    3MOL0     C  293   4.478   5.542   2.117  1.2389  0.3765  0.2506
    3MOL0     O  294   4.558   5.656   2.124  0.5141  0.2726 -0.2425
    3MOL0     C  295   4.546   5.743   2.225  0.1298  0.3235  0.2310
    3MOL0     C  296   4.653   5.834   2.224 -0.0720  0.4581 -0.0979
    3MOL0     C  297   4.675   5.926   2.330  0.1669 -0.4978 -1.2583
    3MOL0     C  298   4.581   5.927   2.444 -0.0583 -0.3868  0.7626
    3MOL0     C  299   4.627   5.993   2.569  0.0982 -0.2482  0.1008
    3MOL0     O  300   4.752   6.049   2.572 -0.0193  0.2378  0.2351
    3MOL0     C  301   4.804   6.066   2.696  0.3995 -0.2585 -0.4022
    3MOL0     C  302   4.910   5.988   2.750  0.2840  0.2362  0.1537
    3MOL0     C  303   4.962   6.006   2.884  0.8208 -0.2956  0.6299
    3MOL0     C  304   4.926   6.118   2.950  0.0231  0.7917 -0.0931
    3MOL0     O  305   4.980   6.153   3.067  0.1894  0.5891  0.1120
    3MOL0     C  306   5.122   6.128   3.087  0.4918  0.3669 -0.6938
    3MOL0     C  307   5.196   6.239   3.169  0.6647  1.0758  0.4187
    3MOL0     C  308   5.121   6.271   3.296 -0.1456  0.4784 -0.7590
    3MOL0     C  309   5.204   6.362   3.393 -0.0654  0.1623 -0.1546
    3MOL0     C  310   5.112   6.464   3.464  0.1987 -0.1493 -0.5264
    3MOL0     C  311   5.100   6.423   3.611  0.2866 -0.1460 -1.1346
    3MOL0     C  312   5.001   6.507   3.701  0.5734 -0.4558  0.4118
    3MOL0     C  313   5.069   6.541   3.828  0.2449  0.6218 -0.6451
    3MOL0    Cl  314   5.113   6.400   3.925  0.3237 -0.3511 -0.3319
    3MOL0     C  315   4.827   6.207   2.895 -0.4624 -0.6084  0.1139
    3MOL0     C  316   4.770   6.175   2.777 -0.2207 -1.2873 -0.6607
    3MOL0     O  317   4.543   5.991   2.661 -0.8934  0.2762 -0.3108
    3MOL0     C  318   4.472   5.844   2.431 -0.0545 -0.2533  0.6402
    3MOL0     C  319   4.451   5.759   2.321  0.2625  0.2348 -0.4561
    3MOL0     N  320   4.617   5.197   2.311 -0.1678  0.3583 -0.1792
    3MOL0     N  321   4.692   5.164   2.417 -0.1590 -0.6422  0.4061
    3MOL0     C  322   5.382   4.577   3.250 -0.5386  0.5543 -0.3481
    3MOL0     C  323   5.367   4.510   3.369  1.4718  0.0947 -0.5651
    3MOL0     C  324   5.300   4.158   3.673  0.6273 -0.2068  0.3956
    3MOL0     C  325   5.420   4.202   3.739  0.7026  0.3867  0.3174
    3MOL0     C  326   5.452   4.153   3.867 -0.9673 -0.1618 -0.7363
    3MOL0     C  327   5.364   4.073   3.944  0.2376  1.0909 -0.1953
    3MOL0     O  328   5.398   4.039   4.075 -0.0985  0.5734  0.5899
    3MOL0     C  329   5.307   3.983   4.166 -0.2584  0.3390 -0.5267
    3MOL0     C  330   5.200   4.079   4.219 -0.4130 -0.2544 -0.2946
    3MOL0     C  331   5.234   4.211   4.286  0.1150  0.8765 -0.4846
    3MOL0     C  332   5.316   4.188   4.411 -0.1026  0.9428 -0.5976
    3MOL0     C  333   5.367   4.310   4.467 -0.4592  0.3570 -0.7666
    3MOL0     C  334   5.432   4.411   4.488  0.5851 -0.9377 -0.1861
    3MOL0     C  335   5.240   4.042   3.875 -0.4573  0.2652 -0.1419
    3MOL0     C  336   5.201   4.088   3.747 -0.6149 -0.1929  1.7659
    3MOL0     C  337   5.064   4.071   3.703 -0.2262 -0.0588 -0.0045
    3MOL0     H  338   5.263   4.213   3.249  3.1754 -0.5713 -0.8657
    3MOL0     H  339   5.276   4.356   3.034 -3.8561  2.6660  0.6342
    3MOL0     H  340   5.177   4.558   2.933 -0.4809  0.5761 -1.3240
    3MOL0     H  341   5.219   4.713   3.015 -0.4877  0.2133  0.0863
    3MOL0     H  342   5.322   4.587   2.756 -1.0301 -1.2427  0.0779
    3MOL0     H  343   5.395   4.740   2.824 -0.5381  1.8075 -2.9735
    3MOL0     H  344   5.148   4.814   2.817 -0.1596 -2.3601  1.6630
    3MOL0     H  345   5.132   4.673   2.700  1.1624 -1.9090 -0.0524
    3MOL0     H  346   5.340   4.875   2.656  0.7035 -3.3429  1.9670
    3MOL0     H  347   5.276   4.752   2.551 -3.9922 -2.9580  0.5975
    3MOL0     H  348   5.109   4.977   2.622  4.3353 -0.1057  3.3890
    3MOL0     H  349   5.202   4.973   2.474 -1.5996  1.2014 -0.1262
    3MOL0     H  350   5.105   4.775   2.405  2.0958 -0.7627  0.4900
    3MOL0     H  351   5.004   4.758   2.549 -0.2565 -0.1052 -1.1889
    3MOL0     H  352   4.836   4.860   2.428 -1.9807  4.2665 -2.2384
    3MOL0     H  353   4.949   4.898   2.293 -0.7414  1.3915 -0.1461
    3MOL0     H  354   4.896   5.050   2.554 -0.5038 -2.2210  1.0686
    3MOL0     H  355   5.006   5.105   2.416  0.7728 -2.8564 -1.2887
    3MOL0     H  356   4.899   5.093   2.165 -0.8303 -1.2625 -0.8209
    3MOL0     H  357   4.727   5.212   1.994  0.0738 -0.3319 -0.6760
    3MOL0     H  358   4.587   5.099   2.027  3.2028 -0.8663 -0.1694
    3MOL0     H  359   4.490   5.299   1.928  0.1378  0.2200 -0.5700
    3MOL0     H  360   4.434   5.273   2.094 -2.1306  1.9198 -2.8869
    3MOL0     H  361   4.606   5.479   1.966 -0.4169  0.4130  0.0652
    3MOL0     H  362   4.661   5.431   2.128  0.7207  0.4043 -1.3282
    3MOL0     H  363   4.436   5.509   2.213  0.0988  1.4860  0.1692
    3MOL0     H  364   4.393   5.551   2.049  3.4821 -0.1640 -2.8300
    3MOL0     H  365   4.725   5.826   2.144 -2.1012 -2.7691 -1.7797
    3MOL0     H  366   4.752   6.003   2.329  1.3761 -1.6221  0.4717
    3MOL0     H  367   4.945   5.904   2.690  0.1457  0.9214 -0.9257
    3MOL0     H  368   5.023   5.935   2.940  0.4826  0.2311  1.6936
    3MOL0     H  369   5.117   6.027   3.128 -3.2805 -0.5209 -2.8540
    3MOL0     H  370   5.186   6.110   3.000  1.9638  1.6324  0.0658
    3MOL0     H  371   5.296   6.206   3.199  1.2715  2.4748 -0.0344
    3MOL0     H  372   5.198   6.316   3.092  4.0826  0.6327 -0.0941
    3MOL0     H  373   5.023   6.311   3.268  0.7579  4.7424  1.4181
    3MOL0     H  374   5.116   6.170   3.339 -4.5277 -0.4376 -2.8109
    3MOL0     H  375   5.273   6.414   3.325  0.2936 -0.9304 -0.6503
    3MOL0     H  376   5.255   6.299   3.467 -1.9078 -0.6917  0.4420
    3MOL0     H  377   5.007   6.480   3.435 -0.2004  4.8973  2.4514
    3MOL0     H  378   5.171   6.556   3.463  0.2875 -0.1946  0.2568
    3MOL0     H  379   5.057   6.322   3.602  0.5448 -0.2059 -1.7666
    3MOL0     H  380   5.196   6.405   3.660  0.9231  1.6433 -1.6562
    3MOL0     H  381   4.915   6.446   3.727  1.7418 -1.7677  1.3954
    3MOL0     H  382   4.956   6.594   3.652 -1.9439 -3.1956 -2.5027
    3MOL0     H  383   5.157   6.601   3.806  1.9162 -1.4377  0.0607
    3MOL0     H  384   5.004   6.609   3.885  0.5038  0.5188 -0.2236
    3MOL0     H  385   4.811   6.297   2.954 -1.3318 -1.1929  0.7927
    3MOL0     H  386   4.709   6.250   2.727  1.5991 -0.2158 -1.3937
    3MOL0     H  387   4.395   5.839   2.508 -0.8567  0.1839 -0.1275
    3MOL0     H  388   4.359   5.702   2.328 -2.5729  4.0900 -2.8298
    3MOL0     H  389   5.423   4.677   3.255 -0.7545  0.9028 -3.5628
    3MOL0     H  390   5.391   4.558   3.464 -1.1035  0.7227 -0.1496
    3MOL0     H  391   5.486   4.268   3.684  0.7002  0.6382  0.6154
    3MOL0     H  392   5.550   4.189   3.896  0.9759 -2.7944 -3.4316
    3MOL0     H  393   5.371   3.945   4.246  0.9429  0.9453 -1.1571
    3MOL0     H  394   5.255   3.904   4.112  1.4396  2.4020 -5.9265
    3MOL0     H  395   5.152   4.025   4.301 -2.1832  0.2184 -0.9716
    3MOL0     H  396   5.119   4.099   4.148 -0.0024  4.3892  0.2142
    3MOL0     H  397   5.140   4.264   4.300 -0.7500 -0.5302 -0.7209
    3MOL0     H  398   5.299   4.262   4.215  1.3549  2.7100  1.8107
    3MOL0     H  399   5.250   4.140   4.484  1.9353  0.5895  1.1016
    3MOL0     H  400   5.398   4.118   4.393 -0.6509 -0.6372  2.3202
    3MOL0     H  401   5.482   4.500   4.521  0.2409 -0.6869 -0.3330
    3MOL0     H  402   5.171   3.991   3.941  2.0505 -1.3863  1.3675
    3MOL0     H  403   5.025   4.164   3.661 -0.3113 -0.5205 -0.9645
    3MOL0     H  404   5.071   3.991   3.629 -0.4745  0.5815 -0.7349
    3MOL0     H  405   5.000   4.046   3.788  0.2252 -0.7881  0.1299
    4MOL0     O  406   8.194  11.164   9.796 -0.2729 -0.5053 -0.2045
    4MOL0     C  407   8.196  11.278   9.825  0.4488  0.2875 -0.4160
    4MOL0     O  408   8.297  11.369   9.780  0.3209 -0.5811 -0.0958
    4MOL0     C  409   8.383  11.321   9.678  0.0968  0.2814  0.1439
    4MOL0     C  410   8.348  11.339   9.540 -0.5609 -0.2096 -1.2522
    4MOL0     C  411   8.428  11.266   9.454  0.2479  0.0923 -0.7759
    4MOL0     C  412   8.541  11.192   9.493  0.5432 -0.1425  0.0544
    4MOL0     O  413   8.599  11.117   9.393  0.9662 -0.5317  0.3978
    4MOL0     C  414   8.630  10.974   9.402 -0.3253 -0.4049 -0.7183
    4MOL0     C  415   8.498  10.900   9.394 -1.2874  0.3430  0.2908
    4MOL0     C  416   8.433  10.941   9.260 -0.1251 -0.7177 -0.1431
    4MOL0     C  417   8.322  10.839   9.209 -0.7588  0.0650 -0.2003
    4MOL0     C  418   8.284  10.873   9.061  0.5530 -0.8477  0.4713
    4MOL0     C  419   8.187  10.997   9.058  0.1296 -0.1885 -0.3950
    4MOL0     C  420   8.138  11.028   8.916  0.3376 -0.5872  0.2557
    4MOL0     C  421   8.060  10.911   8.858  0.4017 -0.5976 -0.0111
    4MOL0     N  422   7.949  10.851   8.938  0.8099 -0.3078  0.5734
    4MOL0     C  423   7.834  10.904   8.998  0.3278 -0.1330  0.1617
    4MOL0     C  424   7.794  10.818   9.087 -0.3549  0.0699  0.2719
    4MOL0     C  425   7.669  10.836   9.185 -0.6984  0.0063  0.9517
    4MOL0     C  426   7.537  10.861   9.108 -0.6108 -0.4175 -0.5281
    4MOL0     C  427   7.419  10.891   9.194  0.3622  0.0517  0.0538
    4MOL0     C  428   7.285  10.895   9.117 -0.6791 -0.0467  1.1402
    4MOL0     O  429   7.232  10.763   9.136  0.2998 -0.2651 -0.1625
    4MOL0     C  430   7.110  10.739   9.081 -0.3132 -0.2956  0.1224
    4MOL0     C  431   7.060  10.615   9.099 -0.3559  0.1204  0.4568
    4MOL0     C  432   6.931  10.580   9.052  0.6750  0.6560 -0.2834
    4MOL0     C  433   6.853  10.662   8.972 -0.2840 -0.7340  0.8160
    4MOL0     C  434   6.721  10.627   8.909  0.0724  0.0402  0.6297
    4MOL0     O  435   6.684  10.491   8.911  0.5053  0.5356 -0.6628
    4MOL0     C  436   6.540  10.476   8.912 -0.8802 -1.0110 -0.0849
    4MOL0     C  437   6.481  10.405   8.809  0.3812  0.0015 -0.0385
    4MOL0     C  438   6.345  10.385   8.805  0.5317  0.3355  0.2686
    4MOL0     C  439   6.266  10.435   8.903  0.7476  0.1692 -1.1987
    4MOL0     O  440   6.132  10.404   8.897  0.0658  0.2931  0.0385
    4MOL0     C  441   6.029  10.398   9.000 -1.5841  0.2698  0.7266
    4MOL0     C  442   5.904  10.373   8.927  0.3826  0.5065 -0.1231
    4MOL0     C  443   5.773  10.370   9.011 -0.2105 -0.4730  0.5178
    4MOL0     C  444   5.666  10.324   8.923  0.1200  0.1351 -0.7696
    4MOL0     C  445   5.527  10.362   8.981  0.5339 -0.7517 -0.0462
    4MOL0     C  446   5.414  10.291   8.899 -0.6925  0.5813  0.8889
    4MOL0     C  447   5.295  10.335   8.957  0.9536 -0.5164 -0.3048
    4MOL0     C  448   5.169  10.257   8.927  0.4456  0.1878 -0.0951
    4MOL0    Cl  449   5.037  10.337   9.016  0.3414  0.4471 -0.2192
    4MOL0     C  450   6.330  10.516   9.011  1.1070  0.3773  0.3235
    4MOL0     C  451   6.462  10.536   9.013  0.2959 -0.4169  0.9209
    4MOL0     O  452   6.660  10.720   8.863  0.9619 -0.3538  0.0390
    4MOL0     C  453   6.916  10.780   8.931  0.4260 -0.7123 -0.3887
    4MOL0     C  454   7.040  10.820   8.984  1.0074 -0.4016  0.1906
    4MOL0     N  455   7.878  10.706   9.088  1.1299  0.4314  0.0496
    4MOL0     N  456   7.963  10.726   8.988 -0.2992 -0.0712 -0.0121
    4MOL0     C  457   8.576  11.173   9.633 -0.3585  0.6129  0.1402
    4MOL0     C  458   8.492  11.240   9.719 -0.0650  0.4235 -1.1313
    4MOL0     C  459   8.081  11.328   9.922 -0.4002  0.5906  0.3806
    4MOL0     C  460   8.109  11.457   9.979  0.1994 -1.0023  0.7542
    4MOL0     C  461   8.014  11.525  10.054  0.4277 -0.0373 -0.3724
    4MOL0     C  462   7.890  11.469  10.092 -0.0513  0.0932  0.7174
    4MOL0     O  463   7.792  11.547  10.152  0.4326 -0.0527 -0.7505
    4MOL0     C  464   7.682  11.486  10.212  0.1346 -0.3170 -0.2761
    4MOL0     C  465   7.608  11.585  10.298  0.4729 -0.2029 -0.4487
    4MOL0     C  466   7.561  11.702  10.213  0.0359 -0.4843  0.8037
    4MOL0     C  467   7.490  11.809  10.308 -0.1983 -0.0808  0.3565
    4MOL0     C  468   7.471  11.935  10.231  0.4845 -0.0036  0.4838
    4MOL0     C  469   7.460  12.048  10.190  1.1746  0.1002 -0.4801
    4MOL0     C  470   7.871  11.340  10.043 -0.5846 -0.0813 -0.4724
    4MOL0     C  471   7.957  11.269   9.954 -0.1055 -0.1090 -0.1329
    4MOL0     C  472   7.906  11.139   9.894 -0.0994  0.2055  0.3146
    4MOL0     H  473   8.255  11.384   9.505 -2.2827 -2.0456  0.6948
    4MOL0     H  474   8.411  11.264   9.346 -1.4124  0.8429 -0.5586
    4MOL0     H  475   8.693  10.952   9.315 -0.0658  0.6441 -0.8107
    4MOL0     H  476   8.689  10.958   9.493  3.1091  1.7714 -2.3329
    4MOL0     H  477   8.439  10.922   9.484 -2.0116 -1.9321  0.4226
    4MOL0     H  478   8.527  10.795   9.395  0.9426  0.8779  3.0614
    4MOL0     H  479   8.505  10.940   9.178 -2.6799 -1.1280 -2.4995
    4MOL0     H  480   8.389  11.041   9.269  0.3160 -0.5991  0.8481
    4MOL0     H  481   8.363  10.739   9.227  1.0844  0.9551  0.8254
    4MOL0     H  482   8.233  10.840   9.273 -1.3426  2.8429 -0.9332
    4MOL0     H  483   8.376  10.888   9.004  0.0842 -0.8936 -0.3123
    4MOL0     H  484   8.234  10.780   9.031 -0.1350 -0.3146 -0.0573
    4MOL0     H  485   8.108  10.985   9.133  1.1728  3.2285  1.5146
    4MOL0     H  486   8.252  11.080   9.089 -0.7739  0.9166 -1.3514
    4MOL0     H  487   8.226  11.052   8.856 -0.0128  1.0836  0.3633
    4MOL0     H  488   8.073  11.116   8.908 -0.0052 -0.9199 -0.7741
    4MOL0     H  489   8.021  10.940   8.760  3.1958 -2.1925 -1.7496
    4MOL0     H  490   8.134  10.834   8.834  0.4616 -0.4356 -0.3487
    4MOL0     H  491   7.798  11.004   8.978 -2.4061 -1.1986 -0.5870
    4MOL0     H  492   7.654  10.753   9.254 -1.3731  0.6996  1.6647
    4MOL0     H  493   7.691  10.929   9.239  3.5415  0.6817 -1.5430
    4MOL0     H  494   7.552  10.956   9.057 -3.2949  1.0752  1.2202
    4MOL0     H  495   7.517  10.782   9.036  1.0749 -0.6766 -0.7629
    4MOL0     H  496   7.438  10.983   9.250 -0.1395  0.8650 -1.0743
    4MOL0     H  497   7.408  10.812   9.269 -3.6574 -0.5360 -0.9262
    4MOL0     H  498   7.305  10.909   9.010 -0.4571 -2.5231  0.8051
    4MOL0     H  499   7.215  10.973   9.149  0.3374  0.4017  2.3395
    4MOL0     H  500   7.111  10.537   9.154 -3.7935 -2.3333  0.4677
    4MOL0     H  501   6.904  10.488   9.103  0.8065  2.3304  3.0786
    4MOL0     H  502   6.535  10.362   8.725  2.3076  0.7628  0.7618
    4MOL0     H  503   6.304  10.309   8.739  1.6445  0.2498 -0.3508
    4MOL0     H  504   6.051  10.308   9.059 -1.7387 -0.8139 -0.8056
    4MOL0     H  505   6.028  10.495   9.050  1.4040  1.9473 -2.0722
    4MOL0     H  506   5.884  10.452   8.854 -3.5094  1.5813  1.7793
    4MOL0     H  507   5.906  10.274   8.883  2.0355  0.8347 -0.8404
    4MOL0     H  508   5.775  10.304   9.099  1.0478  1.1554  1.7866
    4MOL0     H  509   5.758  10.471   9.050  0.0325  0.5668 -1.9286
    4MOL0     H  510   5.663  10.215   8.915 -2.6748 -0.2192  2.6498
    4MOL0     H  511   5.684  10.362   8.822 -0.0484  0.8305 -0.5454
    4MOL0     H  512   5.520  10.471   8.981  1.8124 -0.6342 -1.7915
    4MOL0     H  513   5.515  10.343   9.088  2.2080  3.0728  0.9670
    4MOL0     H  514   5.432  10.300   8.791  0.6727  0.9458  1.1239
    4MOL0     H  515   5.418  10.183   8.916 -0.5287  0.0826 -1.8579
    4MOL0     H  516   5.288  10.440   8.927 -0.2438  0.3674  2.7747
    4MOL0     H  517   5.299  10.334   9.066 -2.3776 -1.3322 -0.0954
    4MOL0     H  518   5.161  10.258   8.818  1.0264  0.0536 -0.1415
    4MOL0     H  519   5.169  10.155   8.965 -2.8408 -0.7196 -2.1294
    4MOL0     H  520   6.269  10.550   9.094 -1.7167  0.4106 -1.6451
    4MOL0     H  521   6.503  10.606   9.085  0.9894 -1.1784  1.2922
    4MOL0     H  522   6.851  10.851   8.880 -1.9424 -1.9391  0.7940
    4MOL0     H  523   7.082  10.910   8.941 -1.3560  0.7319  0.0984
    4MOL0     H  524   8.662  11.113   9.660 -1.5318 -1.2469 -0.0370
    4MOL0     H  525   8.532  11.214   9.817 -1.1125  0.5503 -0.6520
    4MOL0     H  526   8.201  11.507   9.950  0.6493 -2.0961  0.2507
    4MOL0     H  527   8.033  11.626  10.087  2.0443 -0.4425 -0.0036
    4MOL0     H  528   7.713  11.409  10.283  0.3621 -0.4892 -0.5595
    4MOL0     H  529   7.621  11.434  10.138 -0.7820  0.9507 -0.4504
    4MOL0     H  530   7.674  11.623  10.376 -0.5242 -0.8978  0.7799
    4MOL0     H  531   7.516  11.542  10.339 -1.2712  0.9912 -2.7908
    4MOL0     H  532   7.487  11.668  10.141  0.5149 -0.6481  0.3852
    4MOL0     H  533   7.638  11.746  10.150 -0.3681 -1.5266 -0.4485
    4MOL0     H  534   7.397  11.772  10.353 -0.4881  2.3676  1.9954
    4MOL0     H  535   7.554  11.826  10.395  0.0222 -0.5618  0.2880
    4MOL0     H  536   7.449  12.150  10.160  2.0890  0.4078  0.1975
    4MOL0     H  537   7.778  11.295  10.077 -0.1917 -0.0411  0.7096
    4MOL0     H  538   7.843  11.161   9.808  0.2187  0.3832  0.1243
    4MOL0     H  539   7.983  11.066   9.867 -0.9871 -0.7516  0.3304
    4MOL0     H  540   7.853  11.087   9.974  1.7740 -0.0133  1.4667
    5MOL0     O  541   0.249   9.850   6.819  0.3133  0.2808 -0.5743
    5MOL0     C  542   0.303   9.911   6.913  0.7439 -1.2459  0.6419
    5MOL0     O  543   0.434   9.963   6.916 -0.4523 -0.2043  0.6073
    5MOL0     C  544   0.468  10.062   6.819  1.0756 -0.5896 -0.9670
    5MOL0     C  545   0.597  10.092   6.801 -0.5954  0.3214 -0.0183
    5MOL0     C  546   0.642  10.196   6.720 -1.4873  0.5513  0.3228
    5MOL0     C  547   0.553  10.257   6.629  0.2460 -0.7039 -0.5034
    5MOL0     O  548   0.586  10.353   6.541  0.2004 -0.5424 -0.2063
    5MOL0     C  549   0.720  10.370   6.506 -0.2442  0.5548 -0.0596
    5MOL0     C  550   0.737  10.485   6.406  0.0582  0.4296  0.2353
    5MOL0     C  551   0.665  10.458   6.269  0.0753  0.1128 -0.3968
    5MOL0     C  552   0.640  10.590   6.196  0.3392 -0.3366  0.1434
    5MOL0     C  553   0.761  10.638   6.112  0.3549 -0.4131 -0.2040
    5MOL0     C  554   0.752  10.782   6.068  0.9662  0.6018  0.1645
    5MOL0     C  555   0.817  10.858   6.185 -0.5390 -0.5878  0.5941
    5MOL0     C  556   0.825  11.008   6.173  0.1241  0.8406 -0.1049
    5MOL0     N  557   0.893  11.064   6.061  0.0222 -0.3485 -0.1998
    5MOL0     C  558   1.032  11.055   6.037  0.0389 -0.4933 -0.2330
    5MOL0     C  559   1.056  11.083   5.907 -0.7848  0.4324 -0.2146
    5MOL0     C  560   1.178  11.068   5.825 -0.0270  0.0751 -0.5360
    5MOL0     C  561   1.219  10.927   5.819 -0.8211  0.0093 -0.3061
    5MOL0     C  562   1.111  10.836   5.758 -0.8559 -0.1608 -0.4690
    5MOL0     C  563   1.168  10.703   5.704 -0.1091  0.5892  0.1637
    5MOL0     O  564   1.221  10.713   5.572  0.1844  0.4779  0.1942
    5MOL0     C  565   1.307  10.618   5.524 -0.5999  0.3983 -1.0706
    5MOL0     C  566   1.367  10.629   5.403  0.3417 -0.7262  1.2444
    5MOL0     C  567   1.471  10.558   5.350 -0.1900  1.0360 -0.0015
    5MOL0     C  568   1.506  10.439   5.418  0.7627 -1.6925  0.2172
    5MOL0     C  569   1.609  10.350   5.360  0.5895 -0.4297 -0.2107
    5MOL0     O  570   1.682  10.396   5.256 -0.2691  0.2071  0.0088
    5MOL0     C  571   1.772  10.307   5.199 -0.9012 -0.5136 -0.4202
    5MOL0     C  572   1.912  10.302   5.230  0.2163  0.5887 -0.1804
    5MOL0     C  573   2.003  10.213   5.165 -0.2937  1.0856  0.3767
    5MOL0     C  574   1.947  10.133   5.062 -0.7711 -0.4630  1.0750
    5MOL0     O  575   2.022  10.045   4.980  0.7008 -0.8952 -0.5804
    5MOL0     C  576   2.165  10.048   5.003 -0.4108 -0.6512  1.3093
    5MOL0     C  577   2.236   9.982   4.886 -0.7027  0.2446  0.4555
    5MOL0     C  578   2.191   9.831   4.879 -0.1983 -0.4852  0.4369
    5MOL0     C  579   2.302   9.743   4.811  0.0356 -0.4438 -0.8319
    5MOL0     C  580   2.288   9.740   4.661  0.3702  0.4845 -0.0959
    5MOL0     C  581   2.393   9.659   4.598  0.5382  0.2232 -0.5003
    5MOL0     C  582   2.363   9.630   4.450 -0.1622  0.6880 -0.4871
    5MOL0     C  583   2.466   9.538   4.377  0.0932 -0.5240  0.1113
    5MOL0    Cl  584   2.388   9.463   4.223 -0.3010 -0.4439 -0.0039
    5MOL0     C  585   1.805  10.120   5.049 -0.0558 -0.5731 -0.8235
    5MOL0     C  586   1.718  10.203   5.119 -0.0443 -0.8327  0.3062
    5MOL0     O  587   1.623  10.243   5.425  0.0393 -0.1666 -0.1876
    5MOL0     C  588   1.448  10.418   5.545 -0.3059  0.7635 -0.1217
    5MOL0     C  589   1.355  10.509   5.600 -0.1375 -0.4111 -0.0675
    5MOL0     N  590   0.933  11.121   5.852 -0.4305  0.7418  0.9314
    5MOL0     N  591   0.840  11.107   5.939  0.5103  0.1404 -0.0600
    5MOL0     C  592   0.415  10.224   6.643 -0.2583 -0.8211 -0.5040
    5MOL0     C  593   0.376  10.135   6.742  0.7418 -0.4947 -0.0543
    5MOL0     C  594   0.219   9.923   7.039 -0.7975 -0.0626 -0.2320
    5MOL0     C  595   0.282   9.963   7.165 -0.1052 -0.9912 -0.0670
    5MOL0     C  596   0.205   9.974   7.281  0.0870  1.3694  0.7103
    5MOL0     C  597   0.074   9.934   7.288 -0.3818 -0.3483  0.0832
    5MOL0     O  598   0.020   9.932   7.414  0.2366 -0.8201  0.3455
    5MOL0     C  599  -0.120   9.909   7.425  0.4734  0.0382  0.0742
    5MOL0     C  600  -0.188   9.951   7.556 -0.1700  0.0339 -0.9142
    5MOL0     C  601  -0.154  10.098   7.605 -0.5445 -0.6177  0.0824
    5MOL0     C  602  -0.272  10.144   7.686 -1.1680  0.0768 -0.1112
    5MOL0     C  603  -0.392  10.180   7.612  0.4215  1.8368 -0.0132
    5MOL0     C  604  -0.504  10.211   7.567 -1.2125 -0.1716  0.9815
    5MOL0     C  605   0.010   9.902   7.171  0.1996  0.7705 -0.0594
    5MOL0     C  606   0.080   9.906   7.048  0.3064  0.3384  0.6347
    5MOL0     C  607  -0.017   9.870   6.927  1.0826 -0.2361  0.5076
    5MOL0     H  608   0.670  10.037   6.860  4.0580  2.9482 -2.6984
    5MOL0     H  609   0.749  10.212   6.719 -1.6362  1.6230  0.2250
    5MOL0     H  610   0.785  10.392   6.591 -0.0746 -0.5785  0.1275
    5MOL0     H  611   0.749  10.275   6.459 -0.0715 -1.2224  3.3287
    5MOL0     H  612   0.845  10.500   6.395  0.3248 -0.3858  1.4816
    5MOL0     H  613   0.688  10.576   6.440 -4.0114 -1.2450 -0.4696
    5MOL0     H  614   0.566  10.415   6.288  1.6147 -2.9222  1.5735
    5MOL0     H  615   0.719  10.386   6.206  1.7639  1.6516 -0.7745
    5MOL0     H  616   0.560  10.583   6.122  0.6210  0.1794 -0.2176
    5MOL0     H  617   0.607  10.671   6.262 -2.6158 -1.8713  0.7292
    5MOL0     H  618   0.850  10.608   6.167 -0.6451 -0.9958  1.1497
    5MOL0     H  619   0.746  10.574   6.024 -2.5806 -1.7323  1.1174
    5MOL0     H  620   0.800  10.800   5.972  1.1115 -0.0615  0.1067
    5MOL0     H  621   0.645  10.805   6.063  0.2207 -2.4080  0.4000
    5MOL0     H  622   0.920  10.823   6.198  1.1802  2.1808 -3.4203
    5MOL0     H  623   0.754  10.832   6.270 -1.1368  2.5265  1.2238
    5MOL0     H  624   0.721  11.040   6.180 -0.6635 -1.7550  1.0462
    5MOL0     H  625   0.872  11.044   6.265 -2.1176  2.3603  0.5285
    5MOL0     H  626   1.096  11.005   6.108  0.1582 -1.3158 -0.9023
    5MOL0     H  627   1.161  11.110   5.725  3.4529  1.9437 -0.5045
    5MOL0     H  628   1.261  11.123   5.870 -1.5271  0.7679  1.5366
    5MOL0     H  629   1.306  10.904   5.756 -1.2166  0.6180 -1.0840
    5MOL0     H  630   1.245  10.904   5.923 -1.6695  2.1051  0.4238
    5MOL0     H  631   1.062  10.876   5.668  1.2844  0.8262 -1.2666
    5MOL0     H  632   1.033  10.801   5.826 -2.5480  1.3537 -1.5169
    5MOL0     H  633   1.091  10.625   5.704 -1.0664  1.5121  0.9857
    5MOL0     H  634   1.248  10.684   5.776 -0.1303  0.8598  0.2581
    5MOL0     H  635   1.334  10.709   5.339  0.5876 -3.3151 -2.4397
    5MOL0     H  636   1.514  10.599   5.259  0.5268  2.5303  0.9889
    5MOL0     H  637   1.950  10.372   5.304  0.2425  2.3307 -1.7851
    5MOL0     H  638   2.106  10.235   5.191 -0.1403  3.3523 -1.7525
    5MOL0     H  639   2.209  10.147   5.018 -3.1356  0.7541  0.7386
    5MOL0     H  640   2.190   9.996   5.096  0.5302 -0.6829  1.0492
    5MOL0     H  641   2.207  10.041   4.798 -0.9673 -0.8878 -0.2361
    5MOL0     H  642   2.343   9.993   4.905  0.1457 -0.4106 -3.2281
    5MOL0     H  643   2.165   9.798   4.980  2.1961  1.9897  2.0104
    5MOL0     H  644   2.099   9.820   4.821  2.0381 -2.0505 -3.1296
    5MOL0     H  645   2.305   9.641   4.849  2.2864 -2.0307 -4.7176
    5MOL0     H  646   2.391   9.796   4.845 -1.0263 -0.4667  2.3684
    5MOL0     H  647   2.302   9.838   4.614 -1.6344 -0.2531 -2.4626
    5MOL0     H  648   2.188   9.711   4.627 -1.3705  3.0411  2.2967
    5MOL0     H  649   2.487   9.715   4.606  1.3611 -1.2372  0.4586
    5MOL0     H  650   2.402   9.569   4.659  1.0379  1.2951  1.0823
    5MOL0     H  651   2.359   9.723   4.393 -1.7466  0.9348 -0.0401
    5MOL0     H  652   2.260   9.594   4.463  0.5055 -0.8011  1.1459
    5MOL0     H  653   2.534   9.619   4.349  0.3315 -1.2144 -1.4058
    5MOL0     H  654   2.518   9.463   4.437  0.7915 -1.7564 -1.9268
    5MOL0     H  655   1.766  10.033   4.997 -0.6480 -0.2648 -0.9084
    5MOL0     H  656   1.612  10.182   5.114 -0.1991  0.1705 -1.4266
    5MOL0     H  657   1.470  10.325   5.596 -4.0873 -1.0280 -1.4577
    5MOL0     H  658   1.310  10.492   5.698 -2.1906 -0.0959 -0.9005
    5MOL0     H  659   0.335  10.257   6.579 -2.3273 -3.5897  0.4225
    5MOL0     H  660   0.270  10.116   6.758  0.9983 -2.2130 -0.1462
    5MOL0     H  661   0.388   9.980   7.182  0.0860 -2.2975  0.1219
    5MOL0     H  662   0.259  10.002   7.371  1.0210  0.4392  0.4587
    5MOL0     H  663  -0.146   9.807   7.395 -1.2111 -0.2091  2.1027
    5MOL0     H  664  -0.166   9.983   7.359  3.4260  2.1867  0.2625
    5MOL0     H  665  -0.162   9.871   7.627 -4.9177 -1.9336 -0.9918
    5MOL0     H  666  -0.297   9.944   7.548 -0.2760  0.9138 -0.3835
    5MOL0     H  667  -0.143  10.160   7.516  2.8006 -0.8489  0.2174
    5MOL0     H  668  -0.060  10.107   7.661 -1.2936  1.1299  1.1374
    5MOL0     H  669  -0.297  10.072   7.764  1.3670 -2.0697 -1.1277
    5MOL0     H  670  -0.239  10.235   7.738 -0.9959 -0.7310  1.2455
    5MOL0     H  671  -0.599  10.217   7.519 -1.4496  1.4424  1.5745
    5MOL0     H  672  -0.097   9.884   7.169  0.4603 -0.9655 -0.0764
    5MOL0     H  673  -0.013   9.764   6.900 -1.4032 -1.8489  5.3445
    5MOL0     H  674  -0.124   9.880   6.950  1.1398  3.2490 -0.1948
    5MOL0     H  675   0.017   9.922   6.837 -0.0414 -0.6828 -0.2053
    6MOL0     O  676   7.552   8.816   9.292 -0.4822  0.5622 -0.3724
    6MOL0     C  677   7.504   8.705   9.293 -0.7142  0.7815  0.2480
    6MOL0     O  678   7.580   8.592   9.300 -0.4921 -0.3169 -0.5338
    6MOL0     C  679   7.714   8.600   9.289 -0.7483 -0.3639 -0.6359
    6MOL0     C  680   7.773   8.578   9.165  0.8965 -0.3268 -1.1033
    6MOL0     C  681   7.908   8.583   9.156  0.2001  0.2438 -0.9008
    6MOL0     C  682   7.991   8.609   9.261  0.3267 -0.0841  1.0842
    6MOL0     O  683   8.127   8.619   9.231  0.4079 -0.2175  0.3494
    6MOL0     C  684   8.196   8.726   9.284  0.2389 -0.2129 -0.4337
    6MOL0     C  685   8.349   8.687   9.302  0.6830 -0.0244 -0.5613
    6MOL0     C  686   8.372   8.580   9.405  0.5611 -0.3975  0.3690
    6MOL0     C  687   8.516   8.529   9.367  0.1286  0.3055  0.1720
    6MOL0     C  688   8.554   8.424   9.472  0.7575 -0.2529  0.3581
    6MOL0     C  689   8.702   8.371   9.474  1.3286  0.0853 -0.7236
    6MOL0     C  690   8.783   8.483   9.523 -0.2886  0.1387  0.1677
    6MOL0     C  691   8.917   8.424   9.586 -0.2971  0.5752 -0.3218
    6MOL0     N  692   9.000   8.344   9.497  0.4740 -0.0971  0.4413
    6MOL0     C  693   9.042   8.387   9.366  0.9130  0.4313  0.3757
    6MOL0     C  694   9.116   8.285   9.319  0.1313  0.5089 -0.3399
    6MOL0     C  695   9.166   8.265   9.175  0.1693  0.6793 -0.8855
    6MOL0     C  696   9.249   8.133   9.163 -0.2921 -0.8417 -1.1389
    6MOL0     C  697   9.376   8.116   9.252 -0.8436 -0.0292  0.0962
    6MOL0     C  698   9.466   7.996   9.200  1.4123 -0.1535  0.6548
    6MOL0     O  699   9.511   8.017   9.057  0.8371  0.4471  0.1098
    6MOL0     C  700   9.604   8.117   9.021 -0.7206  0.5745 -0.3947
    6MOL0     C  701   9.684   8.200   9.104  0.3336  0.6495 -0.2960
    6MOL0     C  702   9.783   8.286   9.063 -0.5505  0.0695  0.9747
    6MOL0     C  703   9.798   8.311   8.926 -0.0274  0.0806 -0.3365
    6MOL0     C  704   9.889   8.419   8.875 -0.0493  0.0536  1.3330
    6MOL0     O  705   9.946   8.510   8.960 -0.2221 -0.4374 -0.7928
    6MOL0     C  706  10.026   8.608   8.925  0.1524 -0.1085  0.9339
    6MOL0     C  707  10.058   8.649   8.790 -0.1672 -1.1441  0.9400
    6MOL0     C  708  10.132   8.755   8.753 -0.1323  0.5913 -0.2593
    6MOL0     C  709  10.183   8.838   8.853 -0.7488  0.7813  1.3287
    6MOL0     O  710  10.261   8.946   8.825  0.2305  0.2056  0.1695
    6MOL0     C  711  10.229   9.077   8.882 -0.4762 -0.1319 -1.2520
    6MOL0     C  712  10.271   9.195   8.791 -1.3198 -0.7255  0.5096
    6MOL0     C  713  10.185   9.311   8.808 -0.9821 -0.7127  0.7952
    6MOL0     C  714  10.251   9.436   8.756  0.1093 -0.7569  1.0088
    6MOL0     C  715  10.181   9.568   8.767 -0.1167 -0.9621 -0.0676
    6MOL0     C  716  10.186   9.621   8.906 -0.3903  0.7437  0.2805
    6MOL0     C  717  10.100   9.748   8.918 -0.3230  0.2521  0.1046
    6MOL0     C  718  10.136   9.855   8.823 -0.1149  0.9637  0.3772
    6MOL0    Cl  719  10.307   9.910   8.858 -0.1667  0.2214  0.3316
    6MOL0     C  720  10.167   8.793   8.981  0.3739  0.4100 -0.2092
    6MOL0     C  721  10.079   8.688   9.021 -0.3950  0.9431  1.1325
    6MOL0     O  722   9.915   8.409   8.757  0.2077 -0.3541 -0.0413
    6MOL0     C  723   9.726   8.229   8.842  0.0264  0.0912  0.8934
    6MOL0     C  724   9.628   8.137   8.888  0.5420 -0.6304  0.4828
    6MOL0     N  725   9.140   8.198   9.425  0.0959 -0.2640 -0.5955
    6MOL0     N  726   9.075   8.235   9.531  0.0194  0.4278 -0.1326
    6MOL0     C  727   7.940   8.626   9.387  0.5195  0.2097  0.1243
    6MOL0     C  728   7.799   8.619   9.408 -0.0021  0.1283  1.0905
    6MOL0     C  729   7.359   8.693   9.318 -0.0018 -0.8184 -1.3029
    6MOL0     C  730   7.295   8.573   9.366 -0.0000 -0.3439 -0.0364
    6MOL0     C  731   7.163   8.569   9.412 -0.4283  0.2740 -0.4057
    6MOL0     C  732   7.083   8.677   9.403  0.5231 -0.7807 -0.6166
    6MOL0     O  733   6.955   8.672   9.457 -0.2014 -0.3210  0.5084
    6MOL0     C  734   6.845   8.697   9.378  0.1237 -0.6400 -0.2009
    6MOL0     C  735   6.788   8.580   9.308  0.4371 -0.6728  0.2342
    6MOL0     C  736   6.692   8.490   9.397  1.0424  0.4709 -0.4785
    6MOL0     C  737   6.587   8.416   9.320  0.0072 -0.4365  0.3064
    6MOL0     C  738   6.495   8.353   9.417 -0.4884  0.2546 -0.6044
    6MOL0     C  739   6.419   8.297   9.490  0.5562  0.7440  0.5994
    6MOL0     C  740   7.137   8.793   9.334 -0.2568 -0.1583 -0.1214
    6MOL0     C  741   7.270   8.800   9.291  0.4869 -1.0101  0.3739
    6MOL0     C  742   7.305   8.923   9.216  0.8818  0.6510  0.5723
    6MOL0     H  743   7.713   8.558   9.076 -1.0367 -2.4516  0.5704
    6MOL0     H  744   7.951   8.575   9.057 -0.7244 -0.2927 -1.2825
    6MOL0     H  745   8.185   8.812   9.217  0.8130 -1.4613 -2.2338
    6MOL0     H  746   8.162   8.747   9.385 -2.2209  2.4644 -1.6926
    6MOL0     H  747   8.402   8.781   9.322  1.5877 -0.1291 -2.3079
    6MOL0     H  748   8.384   8.663   9.201  0.2671  0.6473 -0.8773
    6MOL0     H  749   8.298   8.501   9.395 -2.4055  2.1660  0.6751
    6MOL0     H  750   8.375   8.611   9.510 -0.2159  1.4984 -0.1249
    6MOL0     H  751   8.508   8.482   9.269  0.7563 -0.8163  0.6400
    6MOL0     H  752   8.574   8.621   9.360 -0.1227  0.3347 -2.9353
    6MOL0     H  753   8.527   8.471   9.567  0.4810  2.4623 -0.9670
    6MOL0     H  754   8.496   8.334   9.452  3.2268 -1.9636  0.4386
    6MOL0     H  755   8.699   8.290   9.547  1.2049  2.0723  1.5947
    6MOL0     H  756   8.746   8.329   9.383 -0.4284  0.0044 -1.5803
    6MOL0     H  757   8.732   8.550   9.593  0.5124  0.1281  0.7788
    6MOL0     H  758   8.804   8.544   9.434  2.4238 -1.6351 -0.5383
    6MOL0     H  759   8.983   8.504   9.622  1.6044 -0.3458 -1.5830
    6MOL0     H  760   8.898   8.365   9.675 -1.3166 -3.1967 -2.8131
    6MOL0     H  761   9.001   8.469   9.307 -0.1943  0.6910  1.4471
    6MOL0     H  762   9.074   8.252   9.117  0.5072 -0.8774 -1.1394
    6MOL0     H  763   9.236   8.345   9.153  4.3582 -1.8666  1.8963
    6MOL0     H  764   9.173   8.057   9.186 -1.7402  1.4169  2.2922
    6MOL0     H  765   9.277   8.103   9.061 -1.8362 -5.0450 -0.5606
    6MOL0     H  766   9.353   8.107   9.359  0.3105  2.9173  0.6960
    6MOL0     H  767   9.436   8.207   9.240 -1.7026  0.5922  0.3871
    6MOL0     H  768   9.401   7.907   9.203  0.2523  0.5533 -1.2440
    6MOL0     H  769   9.556   7.986   9.260  1.7861 -0.8573  0.0013
    6MOL0     H  770   9.677   8.176   9.210 -0.4256 -0.7794 -0.6469
    6MOL0     H  771   9.833   8.350   9.135  0.6193 -1.0606  1.1968
    6MOL0     H  772  10.010   8.597   8.707  2.4069 -0.4250 -1.1554
    6MOL0     H  773  10.163   8.773   8.651  1.9230  0.4222  0.2854
    6MOL0     H  774  10.122   9.079   8.908 -0.1461 -0.4363  0.2180
    6MOL0     H  775  10.296   9.086   8.967 -0.8283  2.8182 -1.1955
    6MOL0     H  776  10.379   9.210   8.803 -1.6576  3.9529 -0.2392
    6MOL0     H  777  10.249   9.159   8.690  0.7791 -2.0704  0.4786
    6MOL0     H  778  10.084   9.301   8.765 -0.5197 -0.4659 -0.3717
    6MOL0     H  779  10.180   9.324   8.917 -0.8089  1.8898  0.5359
    6MOL0     H  780  10.270   9.414   8.650 -0.8279 -0.0052  0.6700
    6MOL0     H  781  10.350   9.450   8.800  0.4490  0.9796 -0.2227
    6MOL0     H  782  10.079   9.568   8.726  1.0234 -0.8008 -3.2286
    6MOL0     H  783  10.235   9.637   8.702 -0.9340 -0.1659  0.0760
    6MOL0     H  784  10.149   9.542   8.972 -3.0693  2.3519  0.8400
    6MOL0     H  785  10.291   9.628   8.936 -0.6165 -0.7054  1.5734
    6MOL0     H  786  10.115   9.786   9.020 -1.6371  0.6701  0.1640
    6MOL0     H  787   9.992   9.736   8.905  0.0723 -1.8751 -1.9418
    6MOL0     H  788  10.123   9.828   8.718  0.2892 -0.0924  0.5838
    6MOL0     H  789  10.059   9.930   8.842 -1.9801 -0.6423 -0.4099
    6MOL0     H  790  10.231   8.834   9.059  0.1017  1.5219 -0.5527
    6MOL0     H  791  10.068   8.664   9.126  0.6335 -1.3319  0.7804
    6MOL0     H  792   9.740   8.243   8.735  0.7636  0.4824  1.0347
    6MOL0     H  793   9.569   8.082   8.816  0.0351  0.0803  0.3538
    6MOL0     H  794   8.005   8.634   9.473  0.4910  1.4548  0.0533
    6MOL0     H  795   7.749   8.622   9.504 -2.8387 -2.0996 -0.1779
    6MOL0     H  796   7.366   8.491   9.372 -1.4678 -1.8050 -1.3809
    6MOL0     H  797   7.121   8.485   9.465 -2.4027 -0.3662 -2.7973
    6MOL0     H  798   6.874   8.763   9.296 -0.4144  0.3783  0.4233
    6MOL0     H  799   6.773   8.750   9.441  0.9871  0.0738  0.1964
    6MOL0     H  800   6.870   8.525   9.261  0.5596  0.8715 -1.4380
    6MOL0     H  801   6.721   8.620   9.232  0.4959  2.0945  1.5033
    6MOL0     H  802   6.642   8.552   9.471 -1.6806 -0.9715 -0.9816
    6MOL0     H  803   6.749   8.415   9.451 -0.1117 -0.6607 -0.7828
    6MOL0     H  804   6.533   8.482   9.252  1.1046 -0.0824 -0.2514
    6MOL0     H  805   6.641   8.342   9.259 -0.6581  0.8806 -2.0227
    6MOL0     H  806   6.355   8.249   9.562  0.3568 -0.2291 -0.2096
    6MOL0     H  807   7.064   8.870   9.315 -0.1238  0.3514  1.3006
    6MOL0     H  808   7.369   8.907   9.129 -0.9190 -2.9352 -0.2543
    6MOL0     H  809   7.216   8.985   9.202  3.2543  4.0173 -1.1630
    6MOL0     H  810   7.366   8.995   9.273  1.4577  0.6654 -0.0474
    7MOL0     O  811   0.208   7.381   3.792 -0.1008  0.5282  0.8981
    7MOL0     C  812   0.257   7.332   3.886  0.5226  0.8103 -0.1728
    7MOL0     O  813   0.228   7.214   3.935 -0.3071  0.5916  0.0908
    7MOL0     C  814   0.103   7.156   3.918 -0.6454  0.1736 -0.3970
    7MOL0     C  815   0.108   7.016   3.906  0.8202  0.7815 -0.1028
    7MOL0     C  816  -0.007   6.949   3.881  0.2915 -0.8909  0.1051
    7MOL0     C  817  -0.129   7.015   3.888  0.2264 -0.9627 -0.6469
    7MOL0     O  818  -0.247   6.952   3.867  0.1129  0.4568 -1.0563
    7MOL0     C  819  -0.260   6.807   3.875 -0.6715  0.3122 -0.5069
    7MOL0     C  820  -0.411   6.764   3.880 -0.0470  0.0736  0.1556
    7MOL0     C  821  -0.479   6.787   3.745  0.4123 -0.7274 -0.1277
    7MOL0     C  822  -0.620   6.727   3.751 -0.7808 -0.0949 -0.9315
    7MOL0     C  823  -0.708   6.799   3.854  0.0995 -0.6356 -0.9580
    7MOL0     C  824  -0.849   6.765   3.830  0.6220  0.2398 -0.4011
    7MOL0     C  825  -0.944   6.839   3.935 -0.4630  0.1679  0.6975
    7MOL0     C  826  -0.911   6.848   4.083 -0.1236 -0.5988  1.0142
    7MOL0     N  827  -0.864   6.722   4.153  0.5231 -0.0190 -0.4861
    7MOL0     C  828  -0.742   6.704   4.203  0.2943 -0.2665 -1.2103
    7MOL0     C  829  -0.743   6.576   4.258  0.1067 -0.6380  0.2142
    7MOL0     C  830  -0.609   6.519   4.312  0.2473  0.2795  0.0199
    7MOL0     C  831  -0.624   6.496   4.461 -1.1963  0.4627  0.1848
    7MOL0     C  832  -0.507   6.418   4.526  0.6170  0.1173  0.4658
    7MOL0     C  833  -0.438   6.303   4.454 -0.2701 -0.1094  0.3814
    7MOL0     O  834  -0.523   6.191   4.449 -0.0969  0.0193  0.6730
    7MOL0     C  835  -0.455   6.074   4.453 -0.0477  0.5031  0.6049
    7MOL0     C  836  -0.371   6.029   4.560  0.9410 -0.6805  0.1787
    7MOL0     C  837  -0.318   5.899   4.561  0.6824 -0.0078 -0.2934
    7MOL0     C  838  -0.329   5.815   4.453 -1.3662 -0.0625 -0.1694
    7MOL0     C  839  -0.274   5.669   4.458 -0.3742  0.3532  0.4305
    7MOL0     O  840  -0.161   5.643   4.523 -0.1851  0.3973  0.2294
    7MOL0     C  841  -0.092   5.527   4.487 -1.0120 -0.1902 -0.3536
    7MOL0     C  842  -0.030   5.441   4.582 -0.3243  0.5957  0.0781
    7MOL0     C  843   0.053   5.337   4.540  0.6108 -0.2272 -0.8054
    7MOL0     C  844   0.071   5.308   4.400 -0.7637  0.5663 -0.7918
    7MOL0     O  845   0.137   5.197   4.358  0.4664  0.0376 -0.4967
    7MOL0     C  846   0.247   5.225   4.265  0.0072  0.0367  0.3916
    7MOL0     C  847   0.275   5.096   4.177 -0.0766  0.5287 -0.0144
    7MOL0     C  848   0.413   5.097   4.115  0.9263  0.9003 -0.6697
    7MOL0     C  849   0.416   4.977   4.012 -1.0261  0.0708 -0.5865
    7MOL0     C  850   0.552   4.944   3.951  0.7606 -0.5115  0.4852
    7MOL0     C  851   0.620   5.059   3.887  0.8766  0.2764 -0.4608
    7MOL0     C  852   0.726   5.008   3.795 -0.1691  0.7436  0.1287
    7MOL0     C  853   0.729   5.105   3.670  0.3163 -0.8879 -0.1166
    7MOL0    Cl  854   0.895   5.127   3.609  0.3724 -0.2389  0.3996
    7MOL0     C  855   0.015   5.401   4.312 -0.6381 -0.1712 -0.4080
    7MOL0     C  856  -0.062   5.508   4.350 -0.8271 -0.2159 -0.1504
    7MOL0     O  857  -0.331   5.582   4.396  0.5363 -0.1940 -0.0346
    7MOL0     C  858  -0.411   5.857   4.350  0.6316  0.2395 -0.8206
    7MOL0     C  859  -0.480   5.979   4.350  0.0831  0.5989 -0.5423
    7MOL0     N  860  -0.863   6.522   4.240 -0.0740 -1.3570 -1.0056
    7MOL0     N  861  -0.936   6.608   4.171 -0.5044 -0.5508  0.4423
    7MOL0     C  862  -0.134   7.151   3.908 -0.5686 -0.0467  0.5115
    7MOL0     C  863  -0.018   7.227   3.917 -0.6651 -0.4349  0.0794
    7MOL0     C  864   0.381   7.389   3.940  0.5780  0.0484 -0.2553
    7MOL0     C  865   0.498   7.314   3.922  0.1019  0.2284 -0.4248
    7MOL0     C  866   0.622   7.347   3.971  0.7378 -0.7054 -0.7220
    7MOL0     C  867   0.638   7.466   4.039  0.9524  0.2976  0.4079
    7MOL0     O  868   0.754   7.486   4.092 -0.3242  0.1707  0.4843
    7MOL0     C  869   0.791   7.606   4.169 -0.4372 -0.0876  0.5068
    7MOL0     C  870   0.930   7.614   4.214 -0.2748  0.9640  0.2966
    7MOL0     C  871   1.024   7.578   4.099 -0.0649 -0.3381 -0.2637
    7MOL0     C  872   1.136   7.669   4.070 -0.1859 -0.0058 -1.0286
    7MOL0     C  873   1.231   7.659   4.183 -0.7247 -0.0604  0.0214
    7MOL0     C  874   1.308   7.648   4.280  0.4476 -0.6395 -0.1340
    7MOL0     C  875   0.526   7.550   4.052  0.8336  0.1514  0.3180
    7MOL0     C  876   0.401   7.514   4.002 -0.1873  0.1216  0.3687
    7MOL0     C  877   0.287   7.606   4.024 -0.6276 -0.8649  0.2313
    7MOL0     H  878   0.200   6.958   3.910 -0.1959 -1.0834 -2.0216
    7MOL0     H  879   0.002   6.845   3.853 -1.7250 -1.0581 -0.0348
    7MOL0     H  880  -0.214   6.758   3.789  1.4021 -0.8248  1.1481
    7MOL0     H  881  -0.200   6.766   3.957  0.2760 -2.1330 -2.3121
    7MOL0     H  882  -0.449   6.830   3.959 -1.1634  0.6909 -0.8761
    7MOL0     H  883  -0.422   6.660   3.911  1.5101 -0.6807 -1.6761
    7MOL0     H  884  -0.427   6.724   3.673  1.5101 -1.5041  1.2866
    7MOL0     H  885  -0.478   6.891   3.709  1.2401 -1.5360 -2.6173
    7MOL0     H  886  -0.670   6.729   3.653  0.6249 -0.0887 -1.6728
    7MOL0     H  887  -0.601   6.623   3.781 -0.1136  0.7139  1.6681
    7MOL0     H  888  -0.681   6.788   3.959  0.1540  1.4834 -0.6939
    7MOL0     H  889  -0.686   6.904   3.831  1.5123 -1.0624 -1.6765
    7MOL0     H  890  -0.891   6.774   3.730 -0.7165  2.5542  0.2876
    7MOL0     H  891  -0.858   6.664   3.870 -2.1953  0.7464  0.4738
    7MOL0     H  892  -1.038   6.785   3.924  1.5895 -3.4350 -0.8552
    7MOL0     H  893  -0.953   6.944   3.905  1.9596 -0.2356 -1.8458
    7MOL0     H  894  -0.837   6.927   4.103 -3.0789  2.8184 -0.4721
    7MOL0     H  895  -1.006   6.869   4.132 -0.6877  1.2171 -0.7396
    7MOL0     H  896  -0.652   6.765   4.198 -0.2436  0.6794  0.0899
    7MOL0     H  897  -0.589   6.427   4.258 -1.3138 -1.5095  2.2840
    7MOL0     H  898  -0.522   6.585   4.303 -0.0160  0.9802  2.0387
    7MOL0     H  899  -0.647   6.594   4.504 -0.3194  0.8871 -0.2976
    7MOL0     H  900  -0.715   6.438   4.478  1.1323 -2.8144  2.7377
    7MOL0     H  901  -0.539   6.380   4.623 -1.6144 -0.7685 -0.5637
    7MOL0     H  902  -0.429   6.493   4.543  1.1065 -0.2378 -0.1267
    7MOL0     H  903  -0.341   6.280   4.499  0.1087  1.0683  0.1921
    7MOL0     H  904  -0.406   6.336   4.355  1.1051  0.0520  0.8550
    7MOL0     H  905  -0.352   6.084   4.652  2.0179 -0.4976 -0.1403
    7MOL0     H  906  -0.283   5.865   4.658  1.3934 -1.8971 -1.1678
    7MOL0     H  907  -0.059   5.471   4.683 -2.4662 -0.2232 -0.2341
    7MOL0     H  908   0.091   5.267   4.614  0.0309  1.8370  1.5837
    7MOL0     H  909   0.232   5.305   4.192  2.1188 -0.7716 -1.0279
    7MOL0     H  910   0.338   5.246   4.322  0.9617  3.1154 -2.0063
    7MOL0     H  911   0.256   5.009   4.241 -0.1827  0.5606 -0.0027
    7MOL0     H  912   0.205   5.082   4.094  1.9043 -0.9801 -1.5649
    7MOL0     H  913   0.413   5.193   4.062  0.3516  1.0027 -0.4928
    7MOL0     H  914   0.492   5.088   4.190 -0.3799  1.6944  0.8582
    7MOL0     H  915   0.341   4.991   3.934 -0.3849 -1.6423 -1.5584
    7MOL0     H  916   0.379   4.891   4.068  0.1871  0.3550  0.7174
    7MOL0     H  917   0.533   4.863   3.879 -1.8862  0.8570 -0.5285
    7MOL0     H  918   0.607   4.895   4.031 -1.6053  1.7659  3.7705
    7MOL0     H  919   0.545   5.118   3.834 -0.1425 -1.2497 -0.7845
    7MOL0     H  920   0.666   5.130   3.956  1.5675  1.2193 -1.8484
    7MOL0     H  921   0.707   4.908   3.755 -1.1065  0.3680  1.4492
    7MOL0     H  922   0.818   4.996   3.853 -0.4394 -3.1251  0.0172
    7MOL0     H  923   0.660   5.074   3.591 -0.0938 -1.5808  0.4980
    7MOL0     H  924   0.697   5.203   3.704  1.3026  0.3002 -2.4049
    7MOL0     H  925   0.036   5.391   4.206 -1.3150 -0.7409 -0.4981
    7MOL0     H  926  -0.092   5.587   4.281  1.3422  1.0333  0.2439
    7MOL0     H  927  -0.437   5.786   4.273  2.1802 -1.9467  0.5631
    7MOL0     H  928  -0.540   5.998   4.262  0.7649  1.4439 -0.8408
    7MOL0     H  929  -0.229   7.198   3.931 -1.6977 -3.1582  2.8205
    7MOL0     H  930  -0.030   7.333   3.938 -1.7825 -0.4608 -0.3750
    7MOL0     H  931   0.501   7.221   3.866 -0.9771  0.1610 -0.3923
    7MOL0     H  932   0.711   7.288   3.954  4.3278  3.0789  2.6347
    7MOL0     H  933   0.725   7.611   4.257 -0.5995  2.1882  0.3184
    7MOL0     H  934   0.778   7.695   4.107  0.7067 -1.4442 -1.8040
    7MOL0     H  935   0.935   7.535   4.290  0.8197  2.5595  1.9538
    7MOL0     H  936   0.972   7.707   4.254  1.4737  1.4058 -2.2987
    7MOL0     H  937   0.977   7.576   4.000 -0.3278  3.2884 -0.3704
    7MOL0     H  938   1.054   7.474   4.115 -0.4035 -0.4870 -0.5916
    7MOL0     H  939   1.184   7.640   3.976 -1.5089  0.2295 -1.7900
    7MOL0     H  940   1.100   7.771   4.058 -1.6033 -0.4842 -1.0106
    7MOL0     H  941   1.369   7.637   4.367  1.5299  1.1913 -0.5913
    7MOL0     H  942   0.536   7.648   4.098 -0.3000  0.8461 -0.8483
    7MOL0     H  943   0.303   7.668   4.113  1.9793 -1.1156  0.0014
    7MOL0     H  944   0.272   7.667   3.934  1.2450 -0.2758  0.2694
    7MOL0     H  945   0.188   7.561   4.032 -1.9944  1.6540 -1.0090
    8MOL0     O  946   1.085   8.083   0.157 -0.1785 -0.0619  0.5425
    8MOL0     C  947   1.086   8.055   0.040 -0.0689 -0.0921  0.3804
    8MOL0     O  948   1.141   7.938  -0.015  0.1916  0.0310 -0.5736
    8MOL0     C  949   1.190   7.845   0.063 -0.3229 -0.6348 -0.4234
    8MOL0     C  950   1.310   7.867   0.126 -0.8136 -0.0506 -0.5238
    8MOL0     C  951   1.358   7.786   0.226 -0.5783 -0.3026 -0.2312
    8MOL0     C  952   1.284   7.679   0.266 -0.4975  1.0482 -0.1567
    8MOL0     O  953   1.328   7.610   0.379  0.6909  0.0426  0.2775
    8MOL0     C  954   1.352   7.468   0.373 -0.0035 -0.6164 -0.1709
    8MOL0     C  955   1.499   7.445   0.407  0.8267  0.2941  0.3317
    8MOL0     C  956   1.532   7.460   0.556  0.5192  0.3384 -0.0154
    8MOL0     C  957   1.662   7.399   0.600  0.0388  0.8684  0.9868
    8MOL0     C  958   1.684   7.404   0.755 -0.5114 -0.7129 -0.1720
    8MOL0     C  959   1.601   7.293   0.832  0.0759  0.4018 -0.4893
    8MOL0     C  960   1.645   7.282   0.982 -0.5784 -0.3009  0.6223
    8MOL0     C  961   1.794   7.228   0.995 -0.3825  0.6207 -0.1863
    8MOL0     N  962   1.810   7.086   0.952  0.4706  0.2152 -0.1514
    8MOL0     C  963   1.837   6.982   1.030 -0.4622 -0.3664 -0.6314
    8MOL0     C  964   1.906   6.903   0.947  0.1997  0.1979 -0.9351
    8MOL0     C  965   1.964   6.773   0.995  0.1335  1.0377 -0.1994
    8MOL0     C  966   2.077   6.809   1.083 -1.3703 -0.4925 -0.4244
    8MOL0     C  967   2.138   6.684   1.152  0.2889 -0.2551 -0.2875
    8MOL0     C  968   2.039   6.583   1.214  0.3283 -0.3329 -0.3810
    8MOL0     O  969   2.105   6.504   1.309  0.1614 -0.7013  0.0564
    8MOL0     C  970   2.047   6.388   1.339 -0.0892 -0.8507  0.3689
    8MOL0     C  971   1.913   6.351   1.302 -0.5547  1.1665  0.4900
    8MOL0     C  972   1.867   6.229   1.336 -1.0400 -0.2219 -0.1239
    8MOL0     C  973   1.946   6.133   1.406  0.5550 -0.4901 -0.1710
    8MOL0     C  974   1.884   6.005   1.433  1.5999 -0.0021 -0.4502
    8MOL0     O  975   1.751   6.006   1.393  0.0560 -0.0075 -0.5127
    8MOL0     C  976   1.684   5.895   1.349  0.0828  1.1922 -0.4732
    8MOL0     C  977   1.743   5.783   1.287  0.9478  1.2557  0.0405
    8MOL0     C  978   1.676   5.664   1.265 -0.3719  0.2087 -0.5269
    8MOL0     C  979   1.538   5.661   1.291  0.5028 -0.2024  0.0399
    8MOL0     O  980   1.469   5.541   1.281 -0.5791  0.1005 -0.2825
    8MOL0     C  981   1.469   5.466   1.411  0.1964  1.0956 -0.1806
    8MOL0     C  982   1.423   5.317   1.380 -0.1998  0.1082 -0.2233
    8MOL0     C  983   1.452   5.228   1.497  0.0423  0.0940 -0.0564
    8MOL0     C  984   1.369   5.254   1.621 -0.0208  0.5309 -0.0422
    8MOL0     C  985   1.409   5.166   1.739  0.6752  0.1020 -0.4863
    8MOL0     C  986   1.282   5.128   1.823 -0.6205 -0.1460 -0.3749
    8MOL0     C  987   1.216   5.001   1.784 -0.2251 -0.2656  0.3215
    8MOL0     C  988   1.098   4.987   1.884 -0.4503  0.1623  0.4858
    8MOL0    Cl  989   1.137   4.903   2.047 -0.0164  0.1397  0.2416
    8MOL0     C  990   1.481   5.778   1.353  0.6235  0.6634 -0.1911
    8MOL0     C  991   1.548   5.895   1.377 -1.1605  0.2741  0.9312
    8MOL0     O  992   1.950   5.909   1.476  0.0111 -0.1288  0.0852
    8MOL0     C  993   2.068   6.174   1.458 -0.3293  0.5085 -0.5984
    8MOL0     C  994   2.119   6.293   1.416  0.0559 -0.1349 -0.1685
    8MOL0     N  995   1.905   6.944   0.818  0.2009 -0.4592  0.4237
    8MOL0     N  996   1.843   7.058   0.822 -0.5169  0.4015 -0.1050
    8MOL0     C  997   1.156   7.658   0.211  0.1650  0.9275 -0.7857
    8MOL0     C  998   1.110   7.738   0.098 -0.0783  0.0061 -0.8572
    8MOL0     C  999   1.006   8.141  -0.050  0.4515  0.2238  0.1358
    8MOL0     C 1000   0.879   8.189  -0.007 -0.7779  1.2407  0.1771
    8MOL0     C 1001   0.805   8.268  -0.095 -0.1689 -0.4080 -0.7495
    8MOL0     C 1002   0.842   8.290  -0.225  0.5887 -0.2398  0.2342
    8MOL0     O 1003   0.762   8.359  -0.318  1.0965 -0.0334 -0.6344
    8MOL0     C 1004   0.661   8.453  -0.266 -1.1972 -0.2619 -0.4645
    8MOL0     C 1005   0.627   8.550  -0.384 -0.3755 -0.8432 -0.3285
    8MOL0     C 1006   0.500   8.629  -0.366 -0.2041  0.4184 -0.0099
    8MOL0     C 1007   0.497   8.736  -0.470 -0.2923  0.6034  0.1143
    8MOL0     C 1008   0.378   8.820  -0.473 -1.5981 -0.2018  0.2110
    8MOL0     C 1009   0.275   8.888  -0.466  0.1989 -0.8941 -0.8665
    8MOL0     C 1010   0.971   8.259  -0.263 -0.5163  0.1812 -0.5697
    8MOL0     C 1011   1.046   8.178  -0.184 -0.0475  0.9896  0.2309
    8MOL0     C 1012   1.187   8.139  -0.223 -0.4582 -0.3464 -0.7047
    8MOL0     H 1013   1.360   7.956   0.090 -2.7869  2.0062  1.4684
    8MOL0     H 1014   1.446   7.817   0.282  0.1594 -2.0388 -0.3441
    8MOL0     H 1015   1.297   7.417   0.452 -0.4675 -2.6713 -1.7648
    8MOL0     H 1016   1.305   7.417   0.289 -0.9707 -1.2328  0.7309
    8MOL0     H 1017   1.566   7.506   0.345 -1.1118 -0.2516 -2.5202
    8MOL0     H 1018   1.520   7.343   0.372  1.9136  0.5211  0.2893
    8MOL0     H 1019   1.449   7.424   0.619 -0.9975 -1.2196 -2.7009
    8MOL0     H 1020   1.525   7.567   0.579 -2.0172  0.2144  0.0839
    8MOL0     H 1021   1.671   7.292   0.580  2.7240  1.5568 -2.5668
    8MOL0     H 1022   1.746   7.451   0.553 -1.0305  1.3043 -0.5479
    8MOL0     H 1023   1.791   7.381   0.760 -0.2596  0.6157  1.1728
    8MOL0     H 1024   1.675   7.507   0.791  1.7806 -1.7223  3.9394
    8MOL0     H 1025   1.494   7.307   0.817 -0.4318 -3.4607 -1.6101
    8MOL0     H 1026   1.593   7.192   0.790 -2.0489 -0.9914  2.8809
    8MOL0     H 1027   1.581   7.211   1.033 -0.8352  0.4279  1.3333
    8MOL0     H 1028   1.635   7.375   1.039 -0.4842 -0.6203  1.1658
    8MOL0     H 1029   1.872   7.291   0.950  1.5823  1.5830  4.0710
    8MOL0     H 1030   1.808   7.232   1.103 -0.3219 -0.4671 -0.1408
    8MOL0     H 1031   1.818   6.978   1.137  0.2053  2.1826 -0.3678
    8MOL0     H 1032   1.887   6.711   1.042 -0.3845  0.8383 -1.2722
    8MOL0     H 1033   1.993   6.714   0.908 -1.0759 -1.5644  1.0427
    8MOL0     H 1034   2.156   6.867   1.033 -2.6306  2.2262  0.5087
    8MOL0     H 1035   2.036   6.884   1.151  0.0145  1.1010 -1.2642
    8MOL0     H 1036   2.194   6.711   1.242  0.7813 -2.5602  0.1434
    8MOL0     H 1037   2.213   6.643   1.085 -0.8575  0.7458 -2.2787
    8MOL0     H 1038   1.997   6.529   1.128 -0.3095  1.4061 -1.2356
    8MOL0     H 1039   1.971   6.647   1.271  1.4858  2.1373 -1.5831
    8MOL0     H 1040   1.853   6.430   1.259  1.0769  1.4566 -1.4215
    8MOL0     H 1041   1.759   6.226   1.318 -0.8586  0.9094 -1.5652
    8MOL0     H 1042   1.852   5.779   1.283  0.8823 -0.2420 -0.8471
    8MOL0     H 1043   1.715   5.573   1.221  0.4040  0.6058 -0.6692
    8MOL0     H 1044   1.567   5.472   1.459 -1.3970  0.5090  3.5388
    8MOL0     H 1045   1.395   5.511   1.478  0.6639  1.5147  0.0626
    8MOL0     H 1046   1.317   5.321   1.353  0.4299  2.8680 -2.7888
    8MOL0     H 1047   1.476   5.274   1.294  1.5084  2.0636 -0.2314
    8MOL0     H 1048   1.444   5.123   1.469  0.7790 -0.0114  0.0962
    8MOL0     H 1049   1.557   5.223   1.525  0.4345 -2.1705 -1.6567
    8MOL0     H 1050   1.269   5.220   1.592  2.0900 -2.8846 -4.5530
    8MOL0     H 1051   1.364   5.361   1.647 -0.2875  0.1192  1.7354
    8MOL0     H 1052   1.481   5.208   1.810 -2.1228  1.2724  1.9007
    8MOL0     H 1053   1.460   5.076   1.706 -1.1557 -2.1066  2.2848
    8MOL0     H 1054   1.310   5.116   1.928  1.0315  0.4281 -0.7151
    8MOL0     H 1055   1.207   5.208   1.821 -1.4482 -0.9105 -2.3246
    8MOL0     H 1056   1.287   4.921   1.803  2.6347  1.9033 -0.5040
    8MOL0     H 1057   1.194   4.991   1.678  0.7295  0.4263  0.0467
    8MOL0     H 1058   1.048   5.079   1.916 -1.2823 -0.5608  1.3207
    8MOL0     H 1059   1.025   4.915   1.846 -3.1798  0.7361  4.1215
    8MOL0     H 1060   1.382   5.765   1.397  1.2710 -2.3574  0.6685
    8MOL0     H 1061   1.503   5.986   1.417 -1.0382  1.3208 -1.1607
    8MOL0     H 1062   2.127   6.106   1.519 -1.3964  0.5035  0.4664
    8MOL0     H 1063   2.216   6.317   1.457  0.0069  0.2588 -0.2777
    8MOL0     H 1064   1.096   7.573   0.243 -0.2146  0.1477 -3.3920
    8MOL0     H 1065   1.013   7.718   0.054 -0.3985 -0.6446  0.0954
    8MOL0     H 1066   0.825   8.161   0.084 -0.1282  0.2934  0.2798
    8MOL0     H 1067   0.704   8.286  -0.061  0.4334 -1.4602  1.7901
    8MOL0     H 1068   0.704   8.505  -0.180  1.8820 -1.8802 -0.8838
    8MOL0     H 1069   0.577   8.393  -0.232 -1.2776 -0.3573 -0.8294
    8MOL0     H 1070   0.637   8.506  -0.484  2.0886  1.3000 -1.1321
    8MOL0     H 1071   0.716   8.613  -0.372 -0.1932 -0.6319 -2.3697
    8MOL0     H 1072   0.498   8.671  -0.265  1.0729  3.3772 -1.0841
    8MOL0     H 1073   0.417   8.560  -0.382 -0.1382  0.2654  0.3118
    8MOL0     H 1074   0.584   8.795  -0.441  0.2264 -0.5884  1.0491
    8MOL0     H 1075   0.517   8.674  -0.558  3.0130 -3.0123  3.0611
    8MOL0     H 1076   0.187   8.948  -0.455  1.8087  1.2332  1.7802
    8MOL0     H 1077   0.998   8.292  -0.363 -0.0378  0.2811 -0.4096
    8MOL0     H 1078   1.194   8.033  -0.247  0.6870 -0.3299 -0.5136
    8MOL0     H 1079   1.220   8.196  -0.311 -1.8495 -2.0902 -2.4604
    8MOL0     H 1080   1.255   8.161  -0.140 -1.3088 -0.7557  0.1168
    9MOL0     O 1081  10.952   8.011   0.691  0.0891  0.7641  0.6536
    9MOL0     C 1082  10.998   7.982   0.798 -0.5106 -0.5024  0.2235
    9MOL0     O 1083  11.027   7.851   0.832 -0.3412 -0.3455 -0.4437
    9MOL0     C 1084  11.058   7.761   0.733  0.5245 -0.1386  0.7691
    9MOL0     C 1085  10.949   7.718   0.665 -0.3419 -0.5017  0.3334
    9MOL0     C 1086  10.971   7.638   0.551 -0.3734  0.7336  0.3908
    9MOL0     C 1087  11.096   7.608   0.514 -0.6191 -0.0755  0.5963
    9MOL0     O 1088  11.101   7.560   0.388  0.0131 -0.1393 -0.3661
    9MOL0     C 1089  11.214   7.582   0.300 -0.5852 -0.4742  0.1487
    9MOL0     C 1090  11.206   7.468   0.199 -0.4520  0.4522  0.8005
    9MOL0     C 1091  11.327   7.454   0.115 -0.4068 -1.2006  0.9919
    9MOL0     C 1092  11.456   7.406   0.181 -0.1497  0.6022  0.4963
    9MOL0     C 1093  11.580   7.399   0.088  0.3561 -0.0228  0.0751
    9MOL0     C 1094  11.578   7.295  -0.026 -0.6860  0.3353  0.2953
    9MOL0     C 1095  11.683   7.334  -0.134  0.9274  0.0050  0.9956
    9MOL0     C 1096  11.696   7.225  -0.250 -0.1725 -0.7794  0.2869
    9MOL0     N 1097  11.781   7.274  -0.361  0.0229 -0.5598 -0.5675
    9MOL0     C 1098  11.767   7.220  -0.480 -0.2959 -0.7028  0.7900
    9MOL0     C 1099  11.857   7.294  -0.561  1.0246  0.4874  0.5598
    9MOL0     C 1100  11.890   7.287  -0.708  0.2956  0.6144 -1.3007
    9MOL0     C 1101  11.834   7.403  -0.780 -0.1697  0.1020  0.4132
    9MOL0     C 1102  11.802   7.384  -0.931  0.5015  0.0167  0.2452
    9MOL0     C 1103  11.913   7.331  -1.024  0.8609 -0.9974 -0.7952
    9MOL0     O 1104  11.938   7.197  -1.002 -0.0525 -0.1114 -0.0211
    9MOL0     C 1105  12.011   7.135  -1.102  0.0471 -0.3045  0.3919
    9MOL0     C 1106  12.075   7.194  -1.219 -0.0985  0.3590  0.2655
    9MOL0     C 1107  12.165   7.131  -1.302  0.1570  0.3710  0.2929
    9MOL0     C 1108  12.183   6.988  -1.279 -0.2096 -0.2663  0.2342
    9MOL0     C 1109  12.269   6.909  -1.371  0.8847 -0.3061  0.8035
    9MOL0     O 1110  12.268   6.779  -1.354 -0.2005  0.2955 -0.2928
    9MOL0     C 1111  12.355   6.703  -1.430  0.0762  0.2470 -0.4454
    9MOL0     C 1112  12.498   6.722  -1.417  1.0431  0.0412 -0.2579
    9MOL0     C 1113  12.593   6.635  -1.465  0.3389  0.4340  0.0295
    9MOL0     C 1114  12.529   6.513  -1.528 -0.5563  0.0393 -0.0785
    9MOL0     O 1115  12.592   6.430  -1.616  0.2024 -0.5710 -0.7598
    9MOL0     C 1116  12.712   6.370  -1.572 -0.7357  0.2845  0.1988
    9MOL0     C 1117  12.674   6.244  -1.485 -0.6500 -0.3431 -0.2969
    9MOL0     C 1118  12.583   6.153  -1.556  0.2942  0.0286 -0.1454
    9MOL0     C 1119  12.518   6.043  -1.467  0.0136 -0.6225 -0.1847
    9MOL0     C 1120  12.413   5.938  -1.532  0.0715  0.5784 -0.9488
    9MOL0     C 1121  12.473   5.844  -1.638  0.0426 -0.0622 -0.2940
    9MOL0     C 1122  12.378   5.722  -1.661  0.3876 -0.2321 -0.2826
    9MOL0     C 1123  12.457   5.596  -1.707 -0.4430 -0.2924 -0.4664
    9MOL0    Cl 1124  12.524   5.517  -1.561 -0.2357 -0.1525  0.0181
    9MOL0     C 1125  12.387   6.495  -1.530 -0.5417  0.4757  0.2236
    9MOL0     C 1126  12.303   6.592  -1.481  0.9510  1.2490  1.2313
    9MOL0     O 1127  12.339   6.966  -1.455 -0.1877 -0.9451 -0.1942
    9MOL0     C 1128  12.117   6.926  -1.173  0.4127 -0.6016 -0.0138
    9MOL0     C 1129  12.034   7.003  -1.088 -0.1537  0.7778  0.1277
    9MOL0     N 1130  11.922   7.385  -0.486 -0.3668 -0.1875  0.3307
    9MOL0     N 1131  11.875   7.372  -0.361  0.0338 -0.2472 -0.0579
    9MOL0     C 1132  11.207   7.663   0.580  0.1233  0.1644 -0.1458
    9MOL0     C 1133  11.190   7.741   0.690 -0.3117 -0.3879 -0.1754
    9MOL0     C 1134  11.029   8.096   0.897 -0.8573 -0.7058  0.3866
    9MOL0     C 1135  11.027   8.225   0.845  0.3007  0.5428  0.3373
    9MOL0     C 1136  11.078   8.336   0.918  0.6020  0.3768 -0.5729
    9MOL0     C 1137  11.117   8.319   1.048 -0.7084 -0.5474 -0.5433
    9MOL0     O 1138  11.155   8.425   1.124 -0.4695 -0.2778  0.2780
    9MOL0     C 1139  11.076   8.546   1.136 -0.7891  0.5320 -0.2172
    9MOL0     C 1140  11.072   8.562   1.288 -0.2118 -0.7387 -0.8924
    9MOL0     C 1141  11.183   8.633   1.356  0.1467  0.0473 -0.4304
    9MOL0     C 1142  11.140   8.640   1.501  0.5145  0.5731 -0.2950
    9MOL0     C 1143  11.257   8.696   1.579  0.0651 -0.9595  0.1431
    9MOL0     C 1144  11.344   8.739   1.647 -1.1547  0.8514 -0.2888
    9MOL0     C 1145  11.113   8.192   1.103 -1.6830 -0.1283  0.7437
    9MOL0     C 1146  11.077   8.075   1.037  0.3221  0.5416  0.2610
    9MOL0     C 1147  11.078   7.938   1.102  0.0111 -0.8820 -0.1729
    9MOL0     H 1148  10.849   7.749   0.697 -1.6572 -5.5728  2.1519
    9MOL0     H 1149  10.898   7.593   0.484 -0.0624 -0.8230  1.0514
    9MOL0     H 1150  11.210   7.679   0.248  2.5748 -0.4750 -0.3004
    9MOL0     H 1151  11.311   7.588   0.350  0.0807  2.7243 -1.2252
    9MOL0     H 1152  11.110   7.482   0.148 -0.2847 -0.2710  0.2682
    9MOL0     H 1153  11.192   7.379   0.262  0.1923 -0.1800  0.0634
    9MOL0     H 1154  11.345   7.551   0.068 -0.5181 -0.2800  2.7705
    9MOL0     H 1155  11.300   7.384   0.036 -1.5331 -1.2087  1.3620
    9MOL0     H 1156  11.484   7.474   0.262  0.0799  0.2406  0.7243
    9MOL0     H 1157  11.436   7.302   0.210  1.1639  0.6764  1.8101
    9MOL0     H 1158  11.573   7.499   0.043 -0.2047 -0.2278 -0.3128
    9MOL0     H 1159  11.679   7.393   0.133  2.0760 -1.1276 -3.5450
    9MOL0     H 1160  11.583   7.190   0.004 -3.1480 -0.4094 -1.6479
    9MOL0     H 1161  11.485   7.319  -0.077 -0.5975  0.1663  0.0562
    9MOL0     H 1162  11.782   7.350  -0.092  2.1312 -1.2005 -1.2038
    9MOL0     H 1163  11.654   7.428  -0.181 -0.3509 -0.8576 -0.0093
    9MOL0     H 1164  11.737   7.133  -0.206 -0.6868 -0.3016  1.8609
    9MOL0     H 1165  11.596   7.195  -0.285 -0.9612  0.2649  1.5366
    9MOL0     H 1166  11.718   7.136  -0.527  0.7524 -0.6023 -0.5456
    9MOL0     H 1167  11.999   7.302  -0.714  0.3334 -0.1977 -3.9499
    9MOL0     H 1168  11.869   7.194  -0.761  1.2040 -0.0423 -0.5505
    9MOL0     H 1169  11.742   7.439  -0.734 -2.0533  0.6440 -3.3949
    9MOL0     H 1170  11.913   7.478  -0.771  0.5110 -0.7957  3.0224
    9MOL0     H 1171  11.777   7.484  -0.966  1.9651  0.0039 -0.9674
    9MOL0     H 1172  11.714   7.321  -0.945  1.0306 -0.3670 -1.7478
    9MOL0     H 1173  12.005   7.389  -1.013 -0.9083  1.8878  0.1115
    9MOL0     H 1174  11.876   7.341  -1.127  2.4521  3.8536 -1.1478
    9MOL0     H 1175  12.041   7.293  -1.247  0.6687  0.8872  1.1588
    9MOL0     H 1176  12.216   7.180  -1.384  2.1706  1.3699  2.0251
    9MOL0     H 1177  12.519   6.822  -1.381 -1.9429  1.1524 -1.2602
    9MOL0     H 1178  12.701   6.650  -1.466  0.6967 -1.7434  1.1510
    9MOL0     H 1179  12.769   6.334  -1.658  0.1709  2.1049 -0.0038
    9MOL0     H 1180  12.782   6.434  -1.518  0.9745 -0.0377 -1.5378
    9MOL0     H 1181  12.762   6.190  -1.450  0.4280  0.5891 -1.4661
    9MOL0     H 1182  12.626   6.274  -1.391 -1.8141 -3.2765  0.1483
    9MOL0     H 1183  12.510   6.211  -1.612  1.6104  0.5174 -1.4133
    9MOL0     H 1184  12.645   6.109  -1.635 -0.4594  1.5248 -1.6399
    9MOL0     H 1185  12.463   6.085  -1.382 -1.8563  0.0808 -1.6776
    9MOL0     H 1186  12.598   5.983  -1.423  2.4486  0.1508 -3.1931
    9MOL0     H 1187  12.319   5.979  -1.569 -1.4596 -3.1578 -1.6552
    9MOL0     H 1188  12.373   5.886  -1.444 -1.1961  2.6893 -0.1870
    9MOL0     H 1189  12.497   5.901  -1.728  0.3845 -0.2490 -0.3217
    9MOL0     H 1190  12.565   5.802  -1.597  1.2040  0.1320 -2.5648
    9MOL0     H 1191  12.306   5.753  -1.737  1.8690  0.0794 -1.5967
    9MOL0     H 1192  12.331   5.693  -1.566 -0.7508  0.4104 -0.6308
    9MOL0     H 1193  12.381   5.526  -1.743 -0.7158  0.4852 -1.4328
    9MOL0     H 1194  12.527   5.610  -1.790  4.1325  0.4278  3.0734
    9MOL0     H 1195  12.351   6.404  -1.578 -0.8205  1.2637 -1.1046
    9MOL0     H 1196  12.197   6.569  -1.479  1.4210 -1.1664  2.2157
    9MOL0     H 1197  12.123   6.822  -1.145  1.2366 -0.6660 -0.3973
    9MOL0     H 1198  11.996   6.935  -1.012  0.4338  0.0995 -0.1714
    9MOL0     H 1199  11.308   7.663   0.540 -0.1824  0.8399 -0.9663
    9MOL0     H 1200  11.282   7.784   0.727  0.4215 -0.3353 -1.9547
    9MOL0     H 1201  10.998   8.242   0.742  0.3541 -0.5799  0.1215
    9MOL0     H 1202  11.089   8.434   0.872 -0.4055  0.5559 -0.4664
    9MOL0     H 1203  10.974   8.531   1.100 -1.1481  0.4143  0.8122
    9MOL0     H 1204  11.121   8.631   1.086  3.1346 -3.0548 -3.5261
    9MOL0     H 1205  11.041   8.469   1.337 -2.1913  1.1997  1.8187
    9MOL0     H 1206  10.987   8.630   1.302 -0.8854 -1.8071  0.4399
    9MOL0     H 1207  11.196   8.732   1.311  1.5297 -0.1478 -0.4899
    9MOL0     H 1208  11.272   8.570   1.356  0.7572  0.8870 -1.1538
    9MOL0     H 1209  11.055   8.708   1.511 -0.6297 -0.2199 -3.4610
    9MOL0     H 1210  11.113   8.543   1.544  0.5460  0.1260 -1.2632
    9MOL0     H 1211  11.427   8.770   1.707 -1.1316  3.7128 -1.6605
    9MOL0     H 1212  11.137   8.189   1.209 -1.1318  2.3910  0.7512
    9MOL0     H 1213  10.974   7.904   1.103  0.5532 -2.6484  0.8039
    9MOL0     H 1214  11.138   7.866   1.045  0.5192  0.2909 -1.1662
    9MOL0     H 1215  11.122   7.950   1.201  1.3623  0.1390 -0.8618
   10MOL0     O 1216   6.709   9.761   5.569 -0.1010 -0.3109 -0.0223
   10MOL0     C 1217   6.608   9.691   5.566  0.0283 -0.6877  0.2159
   10MOL0     O 1218   6.481   9.742   5.575 -0.1730 -0.3695 -0.8040
   10MOL0     C 1219   6.463   9.875   5.550 -0.1050  0.4339 -0.5906
   10MOL0     C 1220   6.512   9.972   5.636 -0.5449  0.3233  0.1196
   10MOL0     C 1221   6.486  10.112   5.604 -0.5785  0.7014  0.3373
   10MOL0     C 1222   6.423  10.146   5.485  0.0886 -0.2128 -0.2491
   10MOL0     O 1223   6.410  10.282   5.463 -0.0075  0.6084  0.2601
   10MOL0     C 1224   6.268  10.313   5.435 -0.3081  0.4435 -0.3467
   10MOL0     C 1225   6.252  10.446   5.363  0.5941  0.0629 -0.5608
   10MOL0     C 1226   6.327  10.440   5.227 -0.1003  0.5163 -0.2015
   10MOL0     C 1227   6.291  10.556   5.137 -0.5189  0.1344 -0.7783
   10MOL0     C 1228   6.380  10.554   5.011 -0.1733 -0.2313  0.5611
   10MOL0     C 1229   6.520  10.625   5.042  0.1254  0.6889 -0.1255
   10MOL0     C 1230   6.625  10.614   4.926 -0.3850 -0.0335  0.4039
   10MOL0     C 1231   6.760  10.602   4.996  0.5388  0.2941 -0.1283
   10MOL0     N 1232   6.800  10.468   5.051 -0.0831 -0.2774  0.3564
   10MOL0     C 1233   6.725  10.372   5.102 -0.3728  0.6632  0.0034
   10MOL0     C 1234   6.818  10.276   5.130 -0.5671  0.1907 -0.2535
   10MOL0     C 1235   6.796  10.165   5.223 -0.4826 -0.0620 -0.0520
   10MOL0     C 1236   6.862  10.166   5.369  0.3945  0.6766  0.5943
   10MOL0     C 1237   6.862  10.037   5.444 -0.9561 -0.4073 -0.1828
   10MOL0     C 1238   6.919  10.052   5.589 -0.4302 -0.1246  0.1205
   10MOL0     O 1239   7.060  10.078   5.597  0.0468 -0.5557  0.2566
   10MOL0     C 1240   7.152   9.973   5.597  0.1830  0.9803 -0.1544
   10MOL0     C 1241   7.260   9.989   5.677 -0.1664 -0.1892 -0.1410
   10MOL0     C 1242   7.365   9.893   5.687  0.0299  0.2343 -0.3295
   10MOL0     C 1243   7.333   9.760   5.631 -1.3766 -0.0637 -0.6680
   10MOL0     C 1244   7.405   9.643   5.682  0.8903 -0.8203 -0.7153
   10MOL0     O 1245   7.493   9.672   5.784 -0.3017  0.1872 -0.0668
   10MOL0     C 1246   7.563   9.576   5.837 -0.1695 -0.6722  0.9198
   10MOL0     C 1247   7.680   9.542   5.771 -0.5246  0.4327  1.0847
   10MOL0     C 1248   7.754   9.437   5.811  0.4502 -0.8826 -0.1798
   10MOL0     C 1249   7.726   9.379   5.929  0.1836 -0.1175 -2.2215
   10MOL0     O 1250   7.790   9.262   5.962 -0.4385 -0.5519 -0.4293
   10MOL0     C 1251   7.924   9.275   5.997  0.0226 -0.1263 -1.3085
   10MOL0     C 1252   7.950   9.155   6.090 -0.4608 -0.0258  0.7902
   10MOL0     C 1253   8.095   9.161   6.139 -0.7971  0.0860 -0.2373
   10MOL0     C 1254   8.125   9.081   6.272 -0.6047  0.6470 -0.9801
   10MOL0     C 1255   8.279   9.107   6.301  0.2817  0.0471  0.0139
   10MOL0     C 1256   8.316   9.045   6.434 -0.4303 -0.1502 -0.0213
   10MOL0     C 1257   8.349   8.897   6.440 -0.2337  0.6475  0.4541
   10MOL0     C 1258   8.441   8.845   6.553  0.2207 -0.5441  0.5253
   10MOL0    Cl 1259   8.350   8.816   6.703 -0.0244  0.0073 -0.3229
   10MOL0     C 1260   7.619   9.417   6.007  0.6439 -0.3858  0.1661
   10MOL0     C 1261   7.539   9.517   5.961  0.2481  0.7276 -0.4985
   10MOL0     O 1262   7.382   9.527   5.641  0.0031  0.3268 -0.1586
   10MOL0     C 1263   7.212   9.746   5.560 -0.3061 -0.8697 -0.8032
   10MOL0     C 1264   7.126   9.858   5.531  0.3339  0.5786 -0.6047
   10MOL0     N 1265   6.944  10.314   5.093 -0.6481 -0.6449  0.8615
   10MOL0     N 1266   6.933  10.433   5.041  0.2415  0.2508 -0.5933
   10MOL0     C 1267   6.382  10.049   5.396  0.9905  0.3166 -0.6928
   10MOL0     C 1268   6.400   9.919   5.432  0.6337 -0.2593  0.1645
   10MOL0     C 1269   6.618   9.546   5.586 -0.7526  0.7244 -0.5597
   10MOL0     C 1270   6.518   9.470   5.649  0.4545  0.1190 -0.5303
   10MOL0     C 1271   6.517   9.329   5.644  0.4754 -0.5347  0.2396
   10MOL0     C 1272   6.636   9.265   5.618 -0.9370  0.1150 -0.1856
   10MOL0     O 1273   6.652   9.131   5.631 -0.3748 -1.0928  0.7642
   10MOL0     C 1274   6.556   9.037   5.569  0.8633  0.0992 -0.3976
   10MOL0     C 1275   6.458   8.985   5.668 -0.1892  0.5024 -0.0415
   10MOL0     C 1276   6.389   8.855   5.626  0.5192  0.1539  0.7033
   10MOL0     C 1277   6.280   8.872   5.511  0.6118  0.4311 -0.4871
   10MOL0     C 1278   6.184   8.761   5.512 -0.2115  0.8296 -0.4482
   10MOL0     C 1279   6.113   8.670   5.497 -0.3968  0.1997  0.4314
   10MOL0     C 1280   6.737   9.335   5.570 -0.4356  0.5090  1.1331
   10MOL0     C 1281   6.726   9.471   5.537 -0.1822 -1.1247  0.0844
   10MOL0     C 1282   6.839   9.532   5.452  0.9574 -0.0845  0.5686
   10MOL0     H 1283   6.562   9.956   5.731 -1.1754  0.3881  0.4612
   10MOL0     H 1284   6.521  10.194   5.666 -0.7353  0.3291  0.9251
   10MOL0     H 1285   6.227  10.232   5.374 -3.0255  0.6446  1.0715
   10MOL0     H 1286   6.208  10.317   5.526 -2.1077 -0.5635 -1.4419
   10MOL0     H 1287   6.295  10.522   5.428 -1.0440  0.6797 -0.1574
   10MOL0     H 1288   6.148  10.475   5.348  1.1262  2.8320  0.5204
   10MOL0     H 1289   6.322  10.341   5.180 -4.5493 -0.3459  1.5876
   10MOL0     H 1290   6.433  10.454   5.250 -0.2842  2.5146 -0.3604
   10MOL0     H 1291   6.189  10.542   5.098 -1.6376  2.8842  0.8316
   10MOL0     H 1292   6.298  10.646   5.199 -2.6397  0.1394 -0.4621
   10MOL0     H 1293   6.397  10.457   4.965  2.2763  0.9898 -1.3397
   10MOL0     H 1294   6.327  10.611   4.933  0.9430 -0.6544 -0.5384
   10MOL0     H 1295   6.507  10.732   5.063  2.6257  2.4785 -5.7249
   10MOL0     H 1296   6.568  10.575   5.125  1.4896 -2.2340 -2.4862
   10MOL0     H 1297   6.637  10.703   4.864  1.3079  0.8098  1.8488
   10MOL0     H 1298   6.594  10.532   4.860 -1.1772  0.2571  0.4010
   10MOL0     H 1299   6.843  10.628   4.930  2.8838 -2.8144  1.3070
   10MOL0     H 1300   6.775  10.686   5.065  0.8520 -2.2198  3.1304
   10MOL0     H 1301   6.621  10.363   5.130  0.2992  1.0021  3.0451
   10MOL0     H 1302   6.689  10.149   5.235 -0.4355 -0.9651 -0.7486
   10MOL0     H 1303   6.823  10.075   5.167 -1.1761 -1.0956  1.2017
   10MOL0     H 1304   6.968  10.195   5.361  0.4639  0.3715  0.4197
   10MOL0     H 1305   6.795  10.228   5.431 -0.5386 -2.1667  2.6165
   10MOL0     H 1306   6.906   9.958   5.383 -1.1384 -0.3132 -0.4330
   10MOL0     H 1307   6.757  10.016   5.467 -1.5185  0.6314 -1.7022
   10MOL0     H 1308   6.890   9.968   5.652  1.4293 -0.6846  0.2721
   10MOL0     H 1309   6.868  10.136   5.637 -0.3822  1.2201 -2.0424
   10MOL0     H 1310   7.263  10.087   5.724  0.0188 -0.3539  0.1917
   10MOL0     H 1311   7.455   9.920   5.741  0.6018  2.6162 -2.2864
   10MOL0     H 1312   7.710   9.565   5.669 -2.0790 -1.2597  0.1851
   10MOL0     H 1313   7.835   9.400   5.749  1.5136 -1.7274  1.6063
   10MOL0     H 1314   7.986   9.256   5.909  0.8445 -0.0951 -0.7558
   10MOL0     H 1315   7.946   9.371   6.046  0.6103 -0.3101 -1.2101
   10MOL0     H 1316   7.884   9.156   6.177 -0.0718  2.2766  1.1229
   10MOL0     H 1317   7.926   9.056   6.051  0.5829 -0.2075  0.5900
   10MOL0     H 1318   8.161   9.113   6.067 -1.9964 -0.3673 -1.0745
   10MOL0     H 1319   8.136   9.262   6.142  3.7490 -1.5601  0.6901
   10MOL0     H 1320   8.112   8.976   6.244 -1.0343  0.7799 -1.2984
   10MOL0     H 1321   8.054   9.104   6.353  0.3786 -1.5529  0.6160
   10MOL0     H 1322   8.300   9.214   6.297 -1.7914  0.4582 -2.1925
   10MOL0     H 1323   8.331   9.051   6.223  1.7898 -1.9533  2.3217
   10MOL0     H 1324   8.414   9.088   6.458 -0.5433 -0.1865  0.5056
   10MOL0     H 1325   8.249   9.069   6.516 -0.7013 -1.0759  0.0341
   10MOL0     H 1326   8.397   8.877   6.343 -0.8408 -0.0556  0.2917
   10MOL0     H 1327   8.252   8.848   6.443  0.2982 -0.4069  0.8755
   10MOL0     H 1328   8.492   8.759   6.507  0.0680 -0.9461  1.0957
   10MOL0     H 1329   8.528   8.908   6.577 -0.2754  0.8963 -1.2536
   10MOL0     H 1330   7.596   9.366   6.100 -0.7291  3.7041  2.3378
   10MOL0     H 1331   7.466   9.555   6.031 -0.2440  1.7029 -1.4952
   10MOL0     H 1332   7.186   9.648   5.523 -0.5280 -0.6851 -1.1401
   10MOL0     H 1333   7.037   9.845   5.471 -0.4450 -2.5171  0.9973
   10MOL0     H 1334   6.342  10.083   5.301 -0.4077 -0.9010 -0.5769
   10MOL0     H 1335   6.373   9.842   5.360  0.6528  0.5396 -0.7113
   10MOL0     H 1336   6.431   9.523   5.687  2.3368  1.9229  1.5221
   10MOL0     H 1337   6.430   9.275   5.680 -3.0421  3.2847 -1.5896
   10MOL0     H 1338   6.609   8.945   5.540  1.9661  0.6251 -0.1026
   10MOL0     H 1339   6.517   9.086   5.480  0.8142  2.3460  0.7878
   10MOL0     H 1340   6.390   9.065   5.700  1.9561  1.6051  2.1855
   10MOL0     H 1341   6.508   8.966   5.764  1.7025  0.9252 -0.9009
   10MOL0     H 1342   6.333   8.810   5.708 -0.1358 -2.0662 -0.8724
   10MOL0     H 1343   6.470   8.790   5.591  3.5426  2.6383  2.5132
   10MOL0     H 1344   6.230   8.966   5.536  1.7229  0.0749  3.9660
   10MOL0     H 1345   6.310   8.864   5.406 -1.6219 -0.2728 -1.1284
   10MOL0     H 1346   6.043   8.599   5.457 -1.6271  1.3960  0.4209
   10MOL0     H 1347   6.830   9.282   5.556 -1.3020 -0.2636 -2.9571
   10MOL0     H 1348   6.889   9.451   5.399  1.9527 -0.0474  1.4111
   10MOL0     H 1349   6.803   9.611   5.386  0.1202  1.3230  2.6017
   10MOL0     H 1350   6.907   9.573   5.527  0.6649 -0.3043  0.9598
   11MOL0     O 1351   3.269  10.094   3.611 -0.3750  0.1545  0.2360
   11MOL0     C 1352   3.358  10.065   3.523  0.1929  0.6163 -0.2539
   11MOL0     O 1353   3.492  10.091   3.529 -0.0202  0.5864  0.2463
   11MOL0     C 1354   3.532  10.142   3.652 -0.0131 -0.5270  0.4742
   11MOL0     C 1355   3.605  10.065   3.739 -0.6894  0.9507  0.0901
   11MOL0     C 1356   3.662  10.111   3.859 -0.4245  0.4213 -0.1108
   11MOL0     C 1357   3.645  10.251   3.890 -0.4599  0.9367  0.3451
   11MOL0     O 1358   3.704  10.300   4.003  0.0533  0.3952  0.4018
   11MOL0     C 1359   3.627  10.361   4.107 -0.2292 -0.6734  0.1863
   11MOL0     C 1360   3.515  10.279   4.169 -0.0755 -0.2120  0.3921
   11MOL0     C 1361   3.392  10.275   4.091 -0.0602 -0.7758 -0.1920
   11MOL0     C 1362   3.311  10.402   4.105  0.4508 -0.4304  0.1468
   11MOL0     C 1363   3.177  10.412   4.040  0.5419  0.0583  0.0360
   11MOL0     C 1364   3.176  10.410   3.889  0.0790 -0.8800 -0.1631
   11MOL0     C 1365   3.042  10.329   3.852  0.4688  0.3568  0.5888
   11MOL0     C 1366   3.020  10.334   3.700 -1.3494 -1.8457  0.1739
   11MOL0     N 1367   2.893  10.393   3.666  0.3426 -0.0383 -0.1821
   11MOL0     C 1368   2.784  10.315   3.687  0.3712  1.4660  0.9686
   11MOL0     C 1369   2.679  10.401   3.679 -0.2849  0.2615 -0.9099
   11MOL0     C 1370   2.536  10.363   3.709 -0.8304 -0.8260  0.6486
   11MOL0     C 1371   2.459  10.465   3.782 -0.1106 -0.5595  1.5760
   11MOL0     C 1372   2.325  10.407   3.829 -0.0108 -0.0343 -0.1235
   11MOL0     C 1373   2.257  10.485   3.943  0.0969  0.0153  0.4971
   11MOL0     O 1374   2.352  10.525   4.040  1.0024  0.8200  0.2148
   11MOL0     C 1375   2.295  10.602   4.146  1.5987 -0.1251 -0.1315
   11MOL0     C 1376   2.158  10.610   4.183  0.6087 -0.5266 -0.3396
   11MOL0     C 1377   2.119  10.675   4.302 -0.2356 -1.4564 -1.1189
   11MOL0     C 1378   2.214  10.752   4.383 -0.1549  0.3686 -0.0029
   11MOL0     C 1379   2.169  10.830   4.502  0.1497  0.1036  0.3318
   11MOL0     O 1380   2.264  10.917   4.553  0.6517  0.6042  0.1857
   11MOL0     C 1381   2.225  11.001   4.662  0.2124  0.6363  0.1882
   11MOL0     C 1382   2.169  10.935   4.766 -0.3682  0.3751  0.1651
   11MOL0     C 1383   2.100  10.995   4.873  0.2969 -0.0867  0.0879
   11MOL0     C 1384   2.115  11.139   4.873 -1.0074 -0.5899 -0.3843
   11MOL0     O 1385   2.079  11.231   4.967 -0.1569  0.4080 -0.0713
   11MOL0     C 1386   2.007  11.195   5.078 -0.0715 -0.3919 -0.8249
   11MOL0     C 1387   2.032  11.290   5.198 -0.0861  0.0992 -0.1273
   11MOL0     C 1388   2.170  11.257   5.268  0.2162 -1.0125  0.5287
   11MOL0     C 1389   2.278  11.374   5.258 -0.3177 -0.0757 -0.0475
   11MOL0     C 1390   2.407  11.334   5.326 -0.2124  0.6048 -1.0529
   11MOL0     C 1391   2.516  11.446   5.347  0.3478  0.4111 -0.7294
   11MOL0     C 1392   2.654  11.382   5.369 -0.3096  1.2002 -0.4748
   11MOL0     C 1393   2.725  11.495   5.449 -0.4525 -0.2056  0.3844
   11MOL0    Cl 1394   2.857  11.406   5.535  0.1214  0.2106  0.0746
   11MOL0     C 1395   2.171  11.204   4.758 -0.3387  0.4675 -0.2146
   11MOL0     C 1396   2.224  11.133   4.650  0.2369  0.8999 -1.6406
   11MOL0     O 1397   2.054  10.814   4.542 -0.6665 -0.0753  0.1605
   11MOL0     C 1398   2.352  10.741   4.344 -0.2280 -0.2206 -0.3315
   11MOL0     C 1399   2.394  10.666   4.231  0.6371  0.4487 -0.8598
   11MOL0     N 1400   2.732  10.529   3.665 -0.6301  0.6880  0.6745
   11MOL0     N 1401   2.861  10.524   3.651  0.9546 -0.3075 -1.0084
   11MOL0     C 1402   3.577  10.332   3.800  0.9340 -0.4793 -1.4243
   11MOL0     C 1403   3.523  10.281   3.689  0.2938  0.6798 -0.3354
   11MOL0     C 1404   3.317   9.984   3.401  0.9835 -1.1728 -0.3398
   11MOL0     C 1405   3.406   9.895   3.357 -0.2935  0.0811 -0.0336
   11MOL0     C 1406   3.369   9.798   3.267  0.7206  0.2173 -0.5516
   11MOL0     C 1407   3.241   9.799   3.205 -0.0219  0.3175 -1.2569
   11MOL0     O 1408   3.181   9.712   3.117  0.0021 -0.3472 -0.5118
   11MOL0     C 1409   3.268   9.621   3.047  0.5238  0.1024 -0.6686
   11MOL0     C 1410   3.200   9.582   2.919  0.2678 -0.0544  0.6112
   11MOL0     C 1411   3.209   9.670   2.798  1.1729  0.3111  0.2227
   11MOL0     C 1412   3.136   9.619   2.666  0.0994 -0.5339  0.7866
   11MOL0     C 1413   3.154   9.483   2.633  0.4443  0.2425  0.8100
   11MOL0     C 1414   3.170   9.368   2.578 -0.2502 -0.1436 -1.1943
   11MOL0     C 1415   3.150   9.894   3.249 -0.3034  1.5343 -1.4936
   11MOL0     C 1416   3.188   9.988   3.346  0.1559 -0.1020 -0.1542
   11MOL0     C 1417   3.080  10.077   3.396  0.3896 -0.0046 -0.5942
   11MOL0     H 1418   3.619   9.960   3.715 -2.2277  0.6970  0.2591
   11MOL0     H 1419   3.722  10.038   3.912  0.1683 -0.4750 -1.9356
   11MOL0     H 1420   3.690  10.402   4.186  0.7855 -0.4436 -0.7189
   11MOL0     H 1421   3.575  10.445   4.060 -0.0925 -1.2107 -0.9771
   11MOL0     H 1422   3.498  10.310   4.273 -1.2313 -1.3831  0.5772
   11MOL0     H 1423   3.556  10.178   4.178  2.6453  0.8680  1.1440
   11MOL0     H 1424   3.329  10.191   4.124  2.0138 -1.1884  3.1842
   11MOL0     H 1425   3.405  10.254   3.984  0.4958  4.2128 -1.3659
   11MOL0     H 1426   3.306  10.425   4.212 -1.8440  3.8672 -0.6164
   11MOL0     H 1427   3.366  10.494   4.085 -2.2549  1.7002  1.7294
   11MOL0     H 1428   3.112  10.335   4.084  0.2104 -1.5067 -2.9607
   11MOL0     H 1429   3.132  10.507   4.071 -0.1162  0.3394 -1.6910
   11MOL0     H 1430   3.173  10.511   3.848 -0.3931 -1.0226 -0.4948
   11MOL0     H 1431   3.263  10.355   3.852  1.4275  0.9610  0.1193
   11MOL0     H 1432   2.961  10.392   3.889 -3.9096 -3.2557 -1.8339
   11MOL0     H 1433   3.043  10.230   3.898 -2.2032  0.8171  1.8392
   11MOL0     H 1434   3.091  10.398   3.646 -2.5293 -2.1246 -1.7770
   11MOL0     H 1435   3.046  10.235   3.662  1.1209 -0.6023 -1.6754
   11MOL0     H 1436   2.768  10.211   3.714 -0.9505  1.5041  0.3970
   11MOL0     H 1437   2.496  10.336   3.611 -2.2211  3.6662 -0.2288
   11MOL0     H 1438   2.543  10.272   3.768  0.2193 -1.7919 -0.8805
   11MOL0     H 1439   2.510  10.510   3.868 -1.5214  0.2669  2.0286
   11MOL0     H 1440   2.422  10.550   3.723 -3.7111 -1.6965  1.9372
   11MOL0     H 1441   2.343  10.308   3.873 -3.8359  0.0173  2.0495
   11MOL0     H 1442   2.264  10.388   3.741 -0.0855  0.5146 -0.1910
   11MOL0     H 1443   2.176  10.423   3.984  0.5105 -0.0542  1.2180
   11MOL0     H 1444   2.220  10.578   3.900 -0.5450 -0.3400  0.2509
   11MOL0     H 1445   2.073  10.559   4.138  1.4587 -0.5113 -2.0691
   11MOL0     H 1446   2.014  10.686   4.328 -0.4141 -1.3672 -1.8582
   11MOL0     H 1447   2.169  10.827   4.762  0.0888  0.3815 -0.0320
   11MOL0     H 1448   2.043  10.933   4.941 -0.1180 -0.7420 -0.8434
   11MOL0     H 1449   1.900  11.204   5.054 -0.1847  0.2695 -0.0849
   11MOL0     H 1450   2.023  11.090   5.106 -0.7132 -0.9886 -2.4986
   11MOL0     H 1451   2.042  11.396   5.173  4.0406  0.3854  1.8471
   11MOL0     H 1452   1.956  11.279   5.276 -0.2386  1.2429 -0.1087
   11MOL0     H 1453   2.160  11.230   5.373  0.9011  2.5177  1.6322
   11MOL0     H 1454   2.208  11.167   5.218  2.3934  1.5103 -2.8702
   11MOL0     H 1455   2.250  11.466   5.310 -0.9331 -0.9065  1.1281
   11MOL0     H 1456   2.293  11.393   5.152 -2.4652 -4.8811 -1.5129
   11MOL0     H 1457   2.445  11.246   5.273 -0.0420  0.2726 -0.3957
   11MOL0     H 1458   2.375  11.299   5.425 -5.6647  4.7482 -0.8709
   11MOL0     H 1459   2.518  11.508   5.257 -0.3365 -1.3873 -2.0404
   11MOL0     H 1460   2.489  11.496   5.440  2.8340 -1.5276  1.1652
   11MOL0     H 1461   2.698  11.351   5.273 -2.4992  3.8384 -2.5242
   11MOL0     H 1462   2.639  11.290   5.426  1.6489  1.1841  0.0996
   11MOL0     H 1463   2.781  11.567   5.389  0.1932 -0.6270  0.4731
   11MOL0     H 1464   2.653  11.553   5.508 -1.3453  0.1722 -1.0234
   11MOL0     H 1465   2.174  11.313   4.760 -1.3707  0.4950  1.3423
   11MOL0     H 1466   2.278  11.188   4.573 -0.1192  1.9029 -1.1942
   11MOL0     H 1467   2.425  10.783   4.412  0.1648 -1.1294 -0.1745
   11MOL0     H 1468   2.501  10.657   4.211  1.4324 -1.2918  3.1878
   11MOL0     H 1469   3.543  10.426   3.842 -0.0950 -0.7754 -1.5635
   11MOL0     H 1470   3.469  10.348   3.623 -1.4107  0.6602  0.9601
   11MOL0     H 1471   3.513   9.902   3.374  0.4707  3.5552 -4.4114
   11MOL0     H 1472   3.432   9.713   3.242 -1.6950 -2.0801  0.7479
   11MOL0     H 1473   3.302   9.539   3.111 -1.1148 -1.4441 -1.6814
   11MOL0     H 1474   3.357   9.677   3.018  0.8836  1.4148  2.5640
   11MOL0     H 1475   3.098   9.544   2.933 -0.3563  0.0218 -2.9054
   11MOL0     H 1476   3.256   9.495   2.885 -0.0680  0.1104 -0.3725
   11MOL0     H 1477   3.312   9.690   2.765  1.9290 -1.8279  1.1252
   11MOL0     H 1478   3.168   9.767   2.829  2.4941  0.6520  0.9927
   11MOL0     H 1479   3.028   9.635   2.673  0.3453  1.7283  0.0913
   11MOL0     H 1480   3.161   9.687   2.584 -0.4443 -0.9836  0.2443
   11MOL0     H 1481   3.192   9.272   2.535  1.9378 -0.0022 -0.5043
   11MOL0     H 1482   3.046   9.890   3.217 -1.0589  2.2146  0.6561
   11MOL0     H 1483   3.112  10.178   3.425 -3.4613  0.4020  3.1742
   11MOL0     H 1484   3.007  10.102   3.318 -3.0824 -0.0943  2.3789
   11MOL0     H 1485   3.018  10.029   3.472 -1.9729  3.8354  0.1946
   12MOL0     O 1486   6.532  11.039   6.656 -0.5203  0.3261  0.1718
   12MOL0     C 1487   6.528  10.919   6.619 -0.0922 -1.0164 -0.6798
   12MOL0     O 1488   6.637  10.842   6.588 -0.5120 -0.2234 -0.0182
   12MOL0     C 1489   6.758  10.879   6.543 -0.4448 -0.2921  0.1822
   12MOL0     C 1490   6.824  11.001   6.590 -0.5111  0.2545  0.5552
   12MOL0     C 1491   6.955  11.047   6.541  0.4071 -0.1317  0.0287
   12MOL0     C 1492   7.029  10.952   6.459 -0.0877 -0.4166 -1.0251
   12MOL0     O 1493   7.153  10.966   6.410  0.1397  0.1493  0.8802
   12MOL0     C 1494   7.183  11.084   6.339 -0.3904  0.2952 -0.2595
   12MOL0     C 1495   7.328  11.091   6.276 -0.6132 -0.7560  1.0783
   12MOL0     C 1496   7.345  10.967   6.195  0.8041  0.6209  0.2147
   12MOL0     C 1497   7.486  10.968   6.127  0.0328  0.2197  0.3972
   12MOL0     C 1498   7.508  10.854   6.029 -0.4604 -0.4635 -0.2616
   12MOL0     C 1499   7.644  10.875   5.973 -1.6112 -0.0385  0.6475
   12MOL0     C 1500   7.699  10.740   5.924 -0.7000 -0.1994 -1.0502
   12MOL0     C 1501   7.752  10.650   6.028  0.8404  0.5168 -1.9520
   12MOL0     N 1502   7.877  10.704   6.076  0.8146 -0.2177 -0.2304
   12MOL0     C 1503   7.997  10.691   6.007  1.2050  0.1708  0.0215
   12MOL0     C 1504   8.084  10.738   6.096 -0.2745 -0.4683  0.8360
   12MOL0     C 1505   8.239  10.739   6.071  0.3516 -0.4956 -0.1605
   12MOL0     C 1506   8.270  10.827   5.950 -0.0131 -0.0924  0.1205
   12MOL0     C 1507   8.304  10.969   5.987  0.6306  0.3667 -0.2548
   12MOL0     C 1508   8.450  10.987   6.036  0.3220  0.3645  0.4046
   12MOL0     O 1509   8.528  10.973   5.919  0.3655  0.0435 -1.1354
   12MOL0     C 1510   8.664  10.986   5.942 -0.2830  0.5215  0.1286
   12MOL0     C 1511   8.735  11.002   6.060 -0.9229  0.4257 -0.2589
   12MOL0     C 1512   8.881  11.003   6.070 -0.3436 -0.6075  0.9110
   12MOL0     C 1513   8.954  11.013   5.948  1.2973  0.2192  0.4295
   12MOL0     C 1514   9.098  11.029   5.939 -0.0924  0.1971  0.1570
   12MOL0     O 1515   9.158  11.074   6.060  0.1201  0.7787 -0.0562
   12MOL0     C 1516   9.291  11.074   6.084  0.5713 -0.5944  0.1680
   12MOL0     C 1517   9.324  11.099   6.221 -0.4398  0.5236 -0.2571
   12MOL0     C 1518   9.460  11.104   6.260  0.0676  0.6244  0.3233
   12MOL0     C 1519   9.557  11.078   6.160 -1.4439 -0.0147 -0.4727
   12MOL0     O 1520   9.689  11.081   6.199 -0.9557 -0.3037 -0.0462
   12MOL0     C 1521   9.783  10.981   6.157 -0.2686 -0.3022 -0.3143
   12MOL0     C 1522   9.793  10.867   6.266  0.0564  0.2031  0.4705
   12MOL0     C 1523   9.863  10.737   6.223 -0.2154 -0.4280 -0.2143
   12MOL0     C 1524   9.801  10.682   6.085 -1.2520 -0.5083  0.4029
   12MOL0     C 1525   9.783  10.530   6.095  0.0519 -0.1693 -0.1620
   12MOL0     C 1526   9.906  10.443   6.045 -0.3799  0.4081  0.3719
   12MOL0     C 1527   9.888  10.302   6.103 -0.1252 -0.4282 -1.0173
   12MOL0     C 1528   9.991  10.193   6.047  0.3530 -0.4387  0.6618
   12MOL0    Cl 1529   9.972  10.035   6.117 -0.0607 -0.4036 -0.6201
   12MOL0     C 1530   9.530  11.077   6.021  0.1807  0.6650  0.2170
   12MOL0     C 1531   9.390  11.073   5.983 -0.6645  0.4840  0.4095
   12MOL0     O 1532   9.164  11.001   5.837  0.0565  0.1674 -1.2107
   12MOL0     C 1533   8.881  11.009   5.832 -0.1808  0.9340  0.6489
   12MOL0     C 1534   8.738  10.989   5.829 -0.5393 -0.2471  0.2098
   12MOL0     N 1535   8.025  10.776   6.209  0.1299 -0.1208 -0.7525
   12MOL0     N 1536   7.898  10.755   6.194 -0.7422 -0.2399 -0.0746
   12MOL0     C 1537   6.969  10.823   6.437  0.0374 -0.2357 -0.6045
   12MOL0     C 1538   6.841  10.783   6.477  0.4941 -0.1633 -1.4197
   12MOL0     C 1539   6.395  10.853   6.633 -0.1457 -0.9502 -1.2646
   12MOL0     C 1540   6.395  10.717   6.671 -0.3741 -0.2985 -0.1365
   12MOL0     C 1541   6.270  10.654   6.693 -0.0596 -0.1710  0.6025
   12MOL0     C 1542   6.150  10.720   6.681  0.6467 -0.0769 -0.0543
   12MOL0     O 1543   6.022  10.662   6.681 -1.0820 -0.4919 -0.1014
   12MOL0     C 1544   5.983  10.557   6.768 -0.3093  0.2839  0.0196
   12MOL0     C 1545   6.031  10.566   6.916 -0.4601  0.0820 -0.4570
   12MOL0     C 1546   5.931  10.513   7.012 -0.4231  0.4534 -0.6558
   12MOL0     C 1547   5.829  10.619   7.058  0.1239  0.6810 -1.4300
   12MOL0     C 1548   5.697  10.583   7.002  0.1225 -0.8568 -0.1344
   12MOL0     C 1549   5.594  10.564   6.946  0.2306  0.2582 -0.4008
   12MOL0     C 1550   6.147  10.855   6.645  0.2999 -0.5898 -0.2632
   12MOL0     C 1551   6.267  10.925   6.617 -0.1264  0.1033 -0.4426
   12MOL0     C 1552   6.258  11.061   6.569 -1.4141 -0.3801  0.5712
   12MOL0     H 1553   6.773  11.070   6.657 -0.4192  0.3431  0.5344
   12MOL0     H 1554   6.994  11.143   6.574 -1.8198  0.5922  0.7469
   12MOL0     H 1555   7.120  11.088   6.250  0.7690  0.2731 -1.0967
   12MOL0     H 1556   7.167  11.178   6.394 -0.2663  0.4576 -0.4998
   12MOL0     H 1557   7.410  11.085   6.349  1.1508  0.2511 -0.6994
   12MOL0     H 1558   7.343  11.180   6.214 -2.7884 -0.1132  1.3955
   12MOL0     H 1559   7.267  10.958   6.118  0.5279  1.7491  0.3400
   12MOL0     H 1560   7.336  10.880   6.261  1.1387 -1.1820 -2.0121
   12MOL0     H 1561   7.495  11.065   6.079 -0.3052 -0.0580 -0.2425
   12MOL0     H 1562   7.563  10.966   6.205  2.2068 -1.2021 -1.6836
   12MOL0     H 1563   7.491  10.763   6.088 -6.5083  1.5171  1.8404
   12MOL0     H 1564   7.433  10.852   5.949 -4.1835 -3.0093  2.9257
   12MOL0     H 1565   7.634  10.934   5.881  1.2277  1.5066  1.2188
   12MOL0     H 1566   7.717  10.920   6.041  0.5720 -0.5939 -1.1991
   12MOL0     H 1567   7.770  10.756   5.843  0.7371  2.7302  0.6221
   12MOL0     H 1568   7.607  10.703   5.877 -1.6785  1.6880 -0.7169
   12MOL0     H 1569   7.687  10.629   6.114  2.0029 -0.7459 -1.3313
   12MOL0     H 1570   7.774  10.555   5.977  1.7049  0.8135 -2.1399
   12MOL0     H 1571   8.025  10.637   5.917  1.8492  1.7719 -0.7775
   12MOL0     H 1572   8.287  10.766   6.165  3.2497 -1.2145 -1.3479
   12MOL0     H 1573   8.263  10.634   6.053 -1.4215 -1.5496  2.7739
   12MOL0     H 1574   8.356  10.781   5.901  1.5085 -0.2163  2.6806
   12MOL0     H 1575   8.192  10.839   5.875  1.1582  0.0052 -1.1159
   12MOL0     H 1576   8.237  11.017   6.060  3.2972 -0.1098  2.7209
   12MOL0     H 1577   8.301  11.015   5.888  1.4004  2.7881  0.7696
   12MOL0     H 1578   8.469  10.905   6.107 -1.6731 -0.1452  0.4215
   12MOL0     H 1579   8.471  11.079   6.091  2.5508 -0.8401  1.7061
   12MOL0     H 1580   8.683  11.004   6.155 -2.2031 -2.6470 -0.7701
   12MOL0     H 1581   8.943  11.020   6.158  0.7992  1.9405 -0.2906
   12MOL0     H 1582   9.251  11.107   6.301 -0.2772 -1.5700  0.1763
   12MOL0     H 1583   9.470  11.126   6.366  1.0403  2.1727 -0.0378
   12MOL0     H 1584   9.760  10.955   6.053  0.6473 -0.9397 -0.3774
   12MOL0     H 1585   9.886  11.014   6.141 -0.7290  0.4491 -1.9315
   12MOL0     H 1586   9.847  10.902   6.355  2.4401  0.4503 -0.9803
   12MOL0     H 1587   9.689  10.840   6.287 -0.4538  2.9823  2.0651
   12MOL0     H 1588   9.969  10.758   6.208 -0.0248 -1.7360 -0.8387
   12MOL0     H 1589   9.853  10.663   6.303 -2.3850 -0.5461 -0.5320
   12MOL0     H 1590   9.855  10.720   5.997 -0.7847 -2.1950 -0.0654
   12MOL0     H 1591   9.705  10.733   6.082  1.2135  5.0203  1.8637
   12MOL0     H 1592   9.696  10.502   6.035 -0.0711 -1.2403  0.4738
   12MOL0     H 1593   9.759  10.500   6.198 -0.4620  0.9515  0.0536
   12MOL0     H 1594   9.894  10.439   5.936 -4.2323  0.5685  0.6258
   12MOL0     H 1595   9.998  10.487   6.081  3.1257 -3.7386 -2.4280
   12MOL0     H 1596   9.786  10.267   6.082 -0.2191 -0.5374 -0.3911
   12MOL0     H 1597   9.911  10.315   6.209 -0.6747  1.4416 -1.0998
   12MOL0     H 1598   9.978  10.189   5.938  2.8705  0.8342  0.2392
   12MOL0     H 1599  10.092  10.226   6.071  0.1947 -0.3038  1.1449
   12MOL0     H 1600   9.614  11.070   5.953  1.2391 -2.7843  1.6546
   12MOL0     H 1601   9.379  11.067   5.875  2.1218  0.2253  0.0519
   12MOL0     H 1602   8.932  11.022   5.737 -2.1811  1.0224 -0.4674
   12MOL0     H 1603   8.673  10.972   5.743 -1.6395 -1.7678  1.2814
   12MOL0     H 1604   7.021  10.747   6.379  0.7246  1.1108 -1.8415
   12MOL0     H 1605   6.797  10.687   6.452  1.7654 -1.1782  0.0268
   12MOL0     H 1606   6.488  10.661   6.666 -0.4264 -0.7876  2.8387
   12MOL0     H 1607   6.265  10.550   6.726 -1.2537 -0.5425 -0.6637
   12MOL0     H 1608   5.984  10.459   6.720  1.8099  0.2564  0.0467
   12MOL0     H 1609   5.878  10.576   6.794 -0.3535 -3.3799  3.4605
   12MOL0     H 1610   6.058  10.668   6.942  0.1659  0.7425 -3.2751
   12MOL0     H 1611   6.119  10.502   6.920 -0.9923 -0.6028  1.8238
   12MOL0     H 1612   5.972  10.483   7.109  1.2059  3.6242 -0.2299
   12MOL0     H 1613   5.879  10.426   6.971 -0.1188  0.5470 -1.2421
   12MOL0     H 1614   5.822  10.615   7.167  0.3605  1.3825 -1.3841
   12MOL0     H 1615   5.871  10.719   7.044  2.5520  0.4184  2.4460
   12MOL0     H 1616   5.499  10.549   6.899 -0.9575  2.7748  0.9818
   12MOL0     H 1617   6.049  10.897   6.626  0.6047 -0.2682 -1.1280
   12MOL0     H 1618   6.320  11.132   6.623 -0.8109 -0.0323 -0.5395
   12MOL0     H 1619   6.293  11.047   6.466  0.2138  1.4301  0.8178
   12MOL0     H 1620   6.159  11.106   6.564 -1.2717 -0.0821 -3.5086
   13MOL0     O 1621   7.294   0.142   5.108  0.0718  0.2633  0.5305
   13MOL0     C 1622   7.324   0.087   4.996 -0.2549 -0.2512 -0.2571
   13MOL0     O 1623   7.461   0.068   4.945  0.3585  0.1741 -0.5333
   13MOL0     C 1624   7.577   0.073   5.025 -0.3415  0.5827 -0.3619
   13MOL0     C 1625   7.577   0.061   5.165  0.5690  0.2399 -0.2665
   13MOL0     C 1626   7.688   0.058   5.246  0.0976  0.1219  0.9522
   13MOL0     C 1627   7.811   0.085   5.186  0.1702  0.6392  0.3585
   13MOL0     O 1628   7.918   0.076   5.274 -0.8647 -0.1928 -0.4557
   13MOL0     C 1629   8.022   0.169   5.257 -0.6084  0.0200  0.2016
   13MOL0     C 1630   8.067   0.207   5.394  0.3105 -0.1806  0.4754
   13MOL0     C 1631   8.182   0.314   5.410 -0.1061 -0.1319  0.2386
   13MOL0     C 1632   8.324   0.244   5.407 -0.0262  0.3928 -1.2095
   13MOL0     C 1633   8.396   0.235   5.551  0.7744 -0.6581  0.0885
   13MOL0     C 1634   8.544   0.201   5.554 -0.8237  0.5213  0.5775
   13MOL0     C 1635   8.579   0.071   5.484  0.1370  1.0723 -0.2400
   13MOL0     C 1636   8.719   0.026   5.502  0.1621 -0.4109 -0.1613
   13MOL0     N 1637   8.759  -0.096   5.422  0.8574  0.0983  0.5862
   13MOL0     C 1638   8.671  -0.195   5.380  0.3051 -0.2681  0.2582
   13MOL0     C 1639   8.745  -0.243   5.279  0.2682 -0.1262 -0.6032
   13MOL0     C 1640   8.687  -0.339   5.175 -0.4143  0.4728 -1.1109
   13MOL0     C 1641   8.715  -0.314   5.030 -0.2544 -0.3760 -0.3549
   13MOL0     C 1642   8.706  -0.434   4.929  0.0107 -1.1642 -0.1338
   13MOL0     C 1643   8.573  -0.513   4.950  0.0367 -0.3687  0.7262
   13MOL0     O 1644   8.471  -0.447   4.883  0.5782 -0.5140 -0.1359
   13MOL0     C 1645   8.367  -0.520   4.823 -1.4291 -0.2560 -0.7490
   13MOL0     C 1646   8.281  -0.449   4.740  0.6652  0.3748  0.3489
   13MOL0     C 1647   8.171  -0.516   4.674 -0.4512 -0.0173  0.1708
   13MOL0     C 1648   8.154  -0.648   4.694 -0.5824  0.2430  0.1625
   13MOL0     C 1649   8.042  -0.725   4.646  1.0891 -0.3623 -0.4220
   13MOL0     O 1650   8.060  -0.861   4.622 -0.3906  0.5815 -0.0602
   13MOL0     C 1651   7.965  -0.947   4.568 -1.0908 -0.2505  0.2359
   13MOL0     C 1652   7.987  -1.081   4.599 -0.8378  0.7398 -0.3003
   13MOL0     C 1653   7.898  -1.173   4.542 -0.3057 -0.7302  0.0867
   13MOL0     C 1654   7.786  -1.135   4.466  0.7974 -0.1974 -0.5490
   13MOL0     O 1655   7.695  -1.221   4.427  0.8087  0.5386  0.2882
   13MOL0     C 1656   7.586  -1.252   4.514  0.6960  0.8660  0.0329
   13MOL0     C 1657   7.607  -1.395   4.545 -0.0187  0.5663 -0.9170
   13MOL0     C 1658   7.611  -1.497   4.427 -0.3152 -0.3591  0.2857
   13MOL0     C 1659   7.515  -1.612   4.470  0.0773 -1.2357 -0.3457
   13MOL0     C 1660   7.484  -1.707   4.356  0.5479  1.7687  0.5936
   13MOL0     C 1661   7.358  -1.807   4.375  0.4323 -0.4935  0.9667
   13MOL0     C 1662   7.221  -1.753   4.391  0.8285 -0.4970  0.6304
   13MOL0     C 1663   7.131  -1.763   4.260  0.3588 -0.6354  0.1584
   13MOL0    Cl 1664   7.024  -1.907   4.239  0.8931 -0.1992 -0.1319
   13MOL0     C 1665   7.768  -1.001   4.440 -0.2802 -0.6107 -0.0917
   13MOL0     C 1666   7.860  -0.903   4.489 -0.5446  0.3598 -0.1934
   13MOL0     O 1667   7.928  -0.672   4.635 -0.7467 -0.3296  0.0264
   13MOL0     C 1668   8.244  -0.726   4.781  0.4221 -0.8509  0.6996
   13MOL0     C 1669   8.347  -0.655   4.851 -0.1938 -0.4268 -0.1920
   13MOL0     N 1670   8.861  -0.173   5.252  0.0023  0.6051 -0.5632
   13MOL0     N 1671   8.862  -0.076   5.330 -0.4657  0.5373  0.4612
   13MOL0     C 1672   7.825   0.106   5.049  0.2312 -0.0402 -0.0915
   13MOL0     C 1673   7.706   0.087   4.969 -0.7370 -0.0804 -0.2336
   13MOL0     C 1674   7.214   0.072   4.892  0.4349  0.7980 -0.2680
   13MOL0     C 1675   7.254   0.115   4.763 -0.3093 -0.1519  0.8384
   13MOL0     C 1676   7.186   0.083   4.646  0.6394 -0.7094 -0.9418
   13MOL0     C 1677   7.059   0.031   4.661  0.9264 -0.3812 -0.0487
   13MOL0     O 1678   6.984   0.002   4.547 -0.2764 -0.5607  0.2286
   13MOL0     C 1679   6.945  -0.132   4.553  0.1798  0.5506  0.1335
   13MOL0     C 1680   6.863  -0.160   4.431  0.2265 -0.0890  0.4558
   13MOL0     C 1681   6.809  -0.305   4.421  0.9624  0.0576  0.7806
   13MOL0     C 1682   6.706  -0.326   4.317  0.3954  0.2453 -0.6378
   13MOL0     C 1683   6.762  -0.279   4.188 -0.0179  0.5673  0.3788
   13MOL0     C 1684   6.808  -0.231   4.091 -0.3002  0.3133  0.2784
   13MOL0     C 1685   7.004   0.001   4.788  0.0957 -0.0056 -0.2429
   13MOL0     C 1686   7.083   0.010   4.909 -0.1247  0.6381  1.2358
   13MOL0     C 1687   7.021  -0.011   5.044  0.2207 -0.5426 -0.6144
   13MOL0     H 1688   7.486   0.040   5.220  2.3005 -1.8790  1.9973
   13MOL0     H 1689   7.690   0.046   5.354  0.1701  1.6699  1.1465
   13MOL0     H 1690   8.110   0.132   5.204  0.4527  0.6722  1.4427
   13MOL0     H 1691   7.981   0.253   5.201 -1.1567 -0.2009  0.2662
   13MOL0     H 1692   8.096   0.126   5.461 -1.4323  2.2269  4.5137
   13MOL0     H 1693   7.983   0.254   5.446  0.4593 -0.0064  0.5591
   13MOL0     H 1694   8.175   0.372   5.502 -2.5187 -0.9052  0.6212
   13MOL0     H 1695   8.171   0.379   5.323 -0.1101 -0.0559  0.2956
   13MOL0     H 1696   8.304   0.140   5.380 -0.6857  1.0317 -3.4194
   13MOL0     H 1697   8.388   0.284   5.328 -0.1741  1.2421 -0.9024
   13MOL0     H 1698   8.391   0.333   5.601 -0.1881 -0.1966 -0.8679
   13MOL0     H 1699   8.338   0.163   5.610 -2.8469  1.5863 -0.3924
   13MOL0     H 1700   8.595   0.290   5.515 -1.2975  0.7400  0.4592
   13MOL0     H 1701   8.567   0.185   5.660 -0.0207 -1.6753  0.1456
   13MOL0     H 1702   8.563   0.083   5.376 -0.7047  3.4720  0.0900
   13MOL0     H 1703   8.510  -0.008   5.516  0.6377  0.4682 -0.6262
   13MOL0     H 1704   8.786   0.107   5.468 -0.1796 -0.0081  0.1155
   13MOL0     H 1705   8.749   0.004   5.605 -2.4115  0.4676  0.8544
   13MOL0     H 1706   8.570  -0.212   5.416 -0.5135  0.8780 -1.3960
   13MOL0     H 1707   8.724  -0.438   5.204 -5.7206 -1.0985  1.6295
   13MOL0     H 1708   8.578  -0.343   5.172 -0.4667  1.9269 -3.8429
   13MOL0     H 1709   8.637  -0.240   5.006 -2.1438 -2.2061 -0.1186
   13MOL0     H 1710   8.812  -0.266   5.015 -0.1408 -0.8445 -1.2139
   13MOL0     H 1711   8.794  -0.496   4.947  0.3835 -0.4396  0.6029
   13MOL0     H 1712   8.727  -0.416   4.823 -1.2614 -5.6617 -1.3527
   13MOL0     H 1713   8.550  -0.524   5.056  2.9977  0.3866  1.5305
   13MOL0     H 1714   8.587  -0.616   4.917  2.5752 -1.3384  4.2617
   13MOL0     H 1715   8.306  -0.347   4.714  0.2388  0.5537  0.6306
   13MOL0     H 1716   8.099  -0.455   4.621 -0.0106  1.4400  1.1698
   13MOL0     H 1717   8.076  -1.113   4.651  0.3005 -0.8714 -3.0419
   13MOL0     H 1718   7.916  -1.279   4.559 -3.2451 -1.1763  1.0775
   13MOL0     H 1719   7.589  -1.185   4.600  4.3190 -2.7758  3.1355
   13MOL0     H 1720   7.491  -1.236   4.462  2.8838  0.9970 -4.4352
   13MOL0     H 1721   7.690  -1.402   4.616 -1.6034  1.3206  1.1160
   13MOL0     H 1722   7.517  -1.418   4.603  1.1692 -1.5822  0.1743
   13MOL0     H 1723   7.574  -1.447   4.337  2.2814  2.4981  0.6369
   13MOL0     H 1724   7.711  -1.538   4.410  0.6468  1.6328  0.7761
   13MOL0     H 1725   7.421  -1.563   4.495  1.2517  0.7036  0.5440
   13MOL0     H 1726   7.557  -1.664   4.556 -0.2040  0.5827  0.9545
   13MOL0     H 1727   7.563  -1.777   4.329 -2.9026 -2.1119 -0.6160
   13MOL0     H 1728   7.470  -1.648   4.265 -2.0679 -1.0861 -1.0461
   13MOL0     H 1729   7.360  -1.889   4.302 -1.3035  0.7527 -0.5736
   13MOL0     H 1730   7.376  -1.857   4.471 -1.0329 -1.4538  0.7625
   13MOL0     H 1731   7.215  -1.651   4.429  1.9015 -0.4605  0.7154
   13MOL0     H 1732   7.169  -1.821   4.459 -0.8085 -0.2296 -0.2956
   13MOL0     H 1733   7.058  -1.681   4.263  0.2731 -0.7330  2.0240
   13MOL0     H 1734   7.201  -1.743   4.178 -0.3098 -1.9653 -0.7767
   13MOL0     H 1735   7.681  -0.963   4.389 -1.6749 -1.4076  1.5693
   13MOL0     H 1736   7.846  -0.799   4.463  2.4317  0.2660 -2.8008
   13MOL0     H 1737   8.236  -0.834   4.791  2.7097 -1.0970  0.3841
   13MOL0     H 1738   8.405  -0.721   4.915  0.1116  0.0849  0.0667
   13MOL0     H 1739   7.920   0.132   5.004  1.9564 -2.8105  1.6409
   13MOL0     H 1740   7.701   0.099   4.861  0.8618 -0.0283 -0.3280
   13MOL0     H 1741   7.351   0.159   4.742 -1.7380  2.5032 -0.7597
   13MOL0     H 1742   7.221   0.110   4.547  1.2904  1.1051 -0.2589
   13MOL0     H 1743   6.904  -0.178   4.644 -2.0614 -2.9291 -2.4055
   13MOL0     H 1744   7.040  -0.187   4.549 -0.3022 -0.2851 -0.1793
   13MOL0     H 1745   6.921  -0.142   4.340 -1.6724 -3.7612 -1.7226
   13MOL0     H 1746   6.781  -0.087   4.434 -2.8177 -3.2109  0.2554
   13MOL0     H 1747   6.750  -0.319   4.513 -1.8748 -1.9860 -1.1708
   13MOL0     H 1748   6.890  -0.377   4.405  1.7529  1.3469 -1.4744
   13MOL0     H 1749   6.677  -0.431   4.316 -0.0151  0.0780  4.4873
   13MOL0     H 1750   6.614  -0.270   4.339 -0.0855 -0.2709 -1.2908
   13MOL0     H 1751   6.845  -0.191   3.999  1.4987  0.9211  1.2194
   13MOL0     H 1752   6.900  -0.024   4.806  0.3090  0.2027  1.4710
   13MOL0     H 1753   6.931  -0.073   5.034 -1.1100  1.2937 -0.4948
   13MOL0     H 1754   7.091  -0.060   5.112  0.1106 -0.1365 -0.2040
   13MOL0     H 1755   7.001   0.089   5.083  2.8108 -0.1322 -0.1163
   14MOL0     O 1756   5.444   6.050   9.637  0.0931 -0.3713  0.6729
   14MOL0     C 1757   5.374   5.964   9.590  0.0334  0.2361 -0.6198
   14MOL0     O 1758   5.404   5.880   9.491 -0.4751  0.1530 -0.7572
   14MOL0     C 1759   5.530   5.899   9.440  0.9242 -0.6489 -0.0869
   14MOL0     C 1760   5.662   5.869   9.502  0.5003  0.1722  0.4686
   14MOL0     C 1761   5.786   5.879   9.439 -0.2865 -0.5438  0.2528
   14MOL0     C 1762   5.799   5.941   9.314  0.3163 -0.4349 -0.2464
   14MOL0     O 1763   5.912   5.973   9.242  0.4537 -0.2099  0.2481
   14MOL0     C 1764   5.989   6.084   9.289 -0.2912 -0.3000 -0.8997
   14MOL0     C 1765   6.091   6.156   9.206 -0.0892  0.7107 -0.5900
   14MOL0     C 1766   6.058   6.170   9.060 -0.2787 -0.1768 -0.0680
   14MOL0     C 1767   6.112   6.051   8.980  0.9077 -0.0550 -0.3602
   14MOL0     C 1768   6.075   6.068   8.836  0.0193 -0.1417 -0.3425
   14MOL0     C 1769   5.967   5.982   8.793 -0.7130  0.1693  1.5217
   14MOL0     C 1770   5.959   5.963   8.641  1.2058 -0.2412  0.2141
   14MOL0     C 1771   5.828   5.878   8.615 -0.0556  1.5704 -0.8609
   14MOL0     N 1772   5.816   5.846   8.469  0.5547 -0.5487  0.4360
   14MOL0     C 1773   5.813   5.936   8.366 -0.7078 -0.3650 -0.1519
   14MOL0     C 1774   5.784   5.861   8.255  0.8500  0.4080 -0.3213
   14MOL0     C 1775   5.742   5.912   8.124  0.0746 -0.1504 -0.1045
   14MOL0     C 1776   5.604   5.851   8.087  0.4624 -0.2148 -0.1968
   14MOL0     C 1777   5.533   5.930   7.980 -0.1168 -0.3917 -0.5736
   14MOL0     C 1778   5.385   5.885   7.961 -0.1982  1.5162 -0.4327
   14MOL0     O 1779   5.314   5.994   7.909  0.2736 -0.2749 -1.1650
   14MOL0     C 1780   5.177   5.975   7.890 -0.4406  0.0862 -1.0071
   14MOL0     C 1781   5.111   5.859   7.845 -0.7498 -0.5803  0.4272
   14MOL0     C 1782   4.985   5.867   7.800 -0.4636  0.7403 -0.2651
   14MOL0     C 1783   4.906   5.980   7.790  0.6111  0.8215 -0.9782
   14MOL0     C 1784   4.768   5.968   7.741 -0.2372 -0.6080 -0.3348
   14MOL0     O 1785   4.709   5.851   7.715  0.4025  0.2422  0.8407
   14MOL0     C 1786   4.587   5.854   7.659  0.0363 -0.0505  0.4818
   14MOL0     C 1787   4.559   5.782   7.546 -0.0711  0.5468 -0.3657
   14MOL0     C 1788   4.428   5.747   7.510  0.1768 -0.4204 -1.0077
   14MOL0     C 1789   4.321   5.815   7.579 -0.4958  0.0379 -0.3382
   14MOL0     O 1790   4.196   5.784   7.535  0.4757 -0.2981 -0.0802
   14MOL0     C 1791   4.076   5.873   7.551  0.8077  0.1504 -0.5400
   14MOL0     C 1792   3.967   5.774   7.578 -0.1829 -0.3247  0.1313
   14MOL0     C 1793   3.845   5.831   7.648  1.0155  0.2835 -0.1138
   14MOL0     C 1794   3.748   5.718   7.660  0.8318  0.5431 -0.5972
   14MOL0     C 1795   3.603   5.760   7.699 -0.0295  0.9043  0.0333
   14MOL0     C 1796   3.505   5.638   7.716  1.5624 -0.2375  0.2215
   14MOL0     C 1797   3.353   5.673   7.714 -0.7216  0.8135  0.2488
   14MOL0     C 1798   3.270   5.550   7.690 -0.1903 -0.3225 -0.2004
   14MOL0    Cl 1799   3.290   5.426   7.819 -0.1161  0.3232  0.4353
   14MOL0     C 1800   4.347   5.909   7.684  0.5960  0.4588  0.1229
   14MOL0     C 1801   4.480   5.924   7.721  0.1485 -0.3078 -0.3666
   14MOL0     O 1802   4.715   6.069   7.708 -0.3738 -0.4410 -0.1038
   14MOL0     C 1803   4.972   6.092   7.834  0.5402 -0.5921  0.4564
   14MOL0     C 1804   5.100   6.090   7.883  0.1690 -1.0283 -0.1694
   14MOL0     N 1805   5.758   5.732   8.304  0.5292  0.4288 -0.2813
   14MOL0     N 1806   5.780   5.728   8.434 -0.1391  0.5867  0.2479
   14MOL0     C 1807   5.673   5.972   9.249 -0.4872  0.3402 -0.0605
   14MOL0     C 1808   5.545   5.946   9.304  0.6027 -0.4534  0.7241
   14MOL0     C 1809   5.244   5.943   9.661  0.1524  0.2815 -0.5420
   14MOL0     C 1810   5.142   6.029   9.623 -0.3658  0.4049 -0.1251
   14MOL0     C 1811   5.013   6.018   9.688  0.6942 -0.6292 -0.4055
   14MOL0     C 1812   4.983   5.909   9.759 -0.4321  0.1508 -0.3280
   14MOL0     O 1813   4.848   5.884   9.797  0.0420  0.1676  0.0400
   14MOL0     C 1814   4.816   5.772   9.878  0.2317 -0.0690  0.5481
   14MOL0     C 1815   4.672   5.795   9.926 -0.4728 -0.3053 -0.9328
   14MOL0     C 1816   4.619   5.676  10.008 -0.3707  1.2647  0.5352
   14MOL0     C 1817   4.505   5.695  10.106  0.1228 -0.5321  0.5079
   14MOL0     C 1818   4.408   5.793  10.047 -0.1900 -1.7961 -0.1978
   14MOL0     C 1819   4.333   5.883  10.002  0.4592 -0.8036  0.1594
   14MOL0     C 1820   5.081   5.815   9.795  0.0471 -1.1466 -0.1036
   14MOL0     C 1821   5.216   5.837   9.761  0.0157 -0.0905 -1.6983
   14MOL0     C 1822   5.325   5.748   9.806  0.1428  0.5741 -0.6461
   14MOL0     H 1823   5.680   5.823   9.599  0.4460  1.6896  1.2234
   14MOL0     H 1824   5.877   5.847   9.490 -1.5832 -1.1103  2.3595
   14MOL0     H 1825   5.927   6.165   9.329  3.1109  1.9047  0.3611
   14MOL0     H 1826   6.045   6.045   9.375  0.2895  2.2628 -0.0305
   14MOL0     H 1827   6.176   6.088   9.217 -2.1256 -1.5824  2.1736
   14MOL0     H 1828   6.108   6.252   9.256 -2.1705  1.7494 -1.7643
   14MOL0     H 1829   6.100   6.261   9.016 -0.3357  1.2046  2.5812
   14MOL0     H 1830   5.951   6.192   9.063 -0.1361  0.5660  3.4546
   14MOL0     H 1831   6.221   6.060   8.987  0.7928  1.9352 -0.3498
   14MOL0     H 1832   6.078   5.952   9.009 -2.8657  1.8041  2.3688
   14MOL0     H 1833   6.067   6.173   8.808  0.7037  0.3190  1.0748
   14MOL0     H 1834   6.166   6.035   8.784 -1.4875 -1.2369 -2.4048
   14MOL0     H 1835   5.977   5.882   8.837  1.8960 -1.3631 -2.0026
   14MOL0     H 1836   5.878   6.035   8.829  0.0433  1.4823  1.5094
   14MOL0     H 1837   6.041   5.914   8.589  1.9906  1.2447  0.0104
   14MOL0     H 1838   5.940   6.054   8.584  1.6778 -0.7311 -0.7558
   14MOL0     H 1839   5.832   5.778   8.660  3.1813  1.4271 -1.2397
   14MOL0     H 1840   5.740   5.935   8.644  2.6757  5.3923  0.6693
   14MOL0     H 1841   5.823   6.044   8.369  1.6151 -0.5540  0.0279
   14MOL0     H 1842   5.742   6.020   8.136  2.3411 -0.1933  0.5693
   14MOL0     H 1843   5.822   5.882   8.056 -0.7359 -2.4432 -0.1370
   14MOL0     H 1844   5.618   5.748   8.051 -1.5848 -0.8452  0.6548
   14MOL0     H 1845   5.532   5.852   8.169 -0.9133 -2.8023 -1.2271
   14MOL0     H 1846   5.592   5.917   7.888  0.6222  0.5574 -0.2555
   14MOL0     H 1847   5.535   6.031   8.022 -0.3281 -0.7594  0.3360
   14MOL0     H 1848   5.344   5.860   8.059  1.3389 -1.8635 -0.5142
   14MOL0     H 1849   5.382   5.793   7.901  0.4218  2.5025 -2.0375
   14MOL0     H 1850   5.171   5.769   7.830  1.9281  0.8719  1.7223
   14MOL0     H 1851   4.952   5.776   7.752  3.0607  0.6022 -2.7774
   14MOL0     H 1852   4.647   5.751   7.491  0.3384  0.8525  0.1041
   14MOL0     H 1853   4.415   5.672   7.432 -0.6529 -1.2048 -0.1386
   14MOL0     H 1854   4.077   5.940   7.637  0.8465 -1.3656  0.6959
   14MOL0     H 1855   4.068   5.931   7.459 -0.0963  1.2958  0.2302
   14MOL0     H 1856   3.943   5.731   7.481 -0.0893 -0.2626  0.0805
   14MOL0     H 1857   4.019   5.694   7.632 -3.5511 -2.0999  1.0359
   14MOL0     H 1858   3.860   5.865   7.751 -1.5267  0.5404  0.2336
   14MOL0     H 1859   3.800   5.916   7.597 -0.2008  0.0792  0.5721
   14MOL0     H 1860   3.800   5.655   7.733 -1.1743 -0.3934  0.1037
   14MOL0     H 1861   3.734   5.660   7.568  1.4646 -2.0773  0.8520
   14MOL0     H 1862   3.566   5.826   7.620 -1.1631  3.1977  2.3229
   14MOL0     H 1863   3.621   5.808   7.796  0.2171  1.0586 -0.0892
   14MOL0     H 1864   3.505   5.570   7.630 -1.4638  1.1406 -0.9986
   14MOL0     H 1865   3.527   5.583   7.809  0.0780 -1.6819 -0.2416
   14MOL0     H 1866   3.334   5.743   7.632  0.0701 -0.2115 -0.8524
   14MOL0     H 1867   3.322   5.728   7.803  0.3409  4.2909 -1.3558
   14MOL0     H 1868   3.168   5.589   7.676  0.6326  1.9540 -0.2124
   14MOL0     H 1869   3.298   5.510   7.591 -1.4701 -1.4712 -0.1441
   14MOL0     H 1870   4.271   5.954   7.747  0.6864  0.7296  0.0384
   14MOL0     H 1871   4.491   5.977   7.816 -3.8678 -0.0042  0.0724
   14MOL0     H 1872   4.904   6.177   7.836  2.3212  1.0648 -2.4066
   14MOL0     H 1873   5.159   6.178   7.902  3.2444 -2.9692  0.0101
   14MOL0     H 1874   5.675   6.013   9.149  2.4299  2.2087  0.6614
   14MOL0     H 1875   5.458   5.966   9.244  2.1787  1.3782 -1.1086
   14MOL0     H 1876   5.155   6.117   9.561 -4.6708 -1.2127 -3.8780
   14MOL0     H 1877   4.932   6.088   9.670  2.7898  2.2748  0.5978
   14MOL0     H 1878   4.884   5.770   9.964  1.5248 -0.4956 -0.4564
   14MOL0     H 1879   4.814   5.675   9.828 -0.6602 -0.9178  2.1366
   14MOL0     H 1880   4.618   5.810   9.831  2.3852  0.6177 -2.5317
   14MOL0     H 1881   4.665   5.887   9.985 -0.5803 -2.4363  2.6810
   14MOL0     H 1882   4.700   5.631  10.067 -0.9286 -0.4286  0.0665
   14MOL0     H 1883   4.598   5.588   9.947  2.4625  0.8014  0.0643
   14MOL0     H 1884   4.445   5.605  10.122 -1.1434  0.2186  0.0892
   14MOL0     H 1885   4.548   5.733  10.199 -3.0533  4.0430  0.4553
   14MOL0     H 1886   4.275   5.968   9.973  1.2640  0.3125  1.6554
   14MOL0     H 1887   5.066   5.733   9.865  1.3827  0.7210  2.5413
   14MOL0     H 1888   5.409   5.793   9.858  1.9286 -2.4836 -0.6430
   14MOL0     H 1889   5.292   5.690   9.893  1.0786 -1.6565 -1.6764
   14MOL0     H 1890   5.358   5.675   9.731  1.6934  0.5012  0.0764
   15MOL0     O 1891   5.931   1.009   7.694 -0.2798  0.5370 -0.6123
   15MOL0     C 1892   5.831   0.953   7.654  0.5974 -0.1506  0.1153
   15MOL0     O 1893   5.824   0.878   7.543  0.3491 -1.1141  0.2025
   15MOL0     C 1894   5.938   0.813   7.509 -0.1135  0.0872  0.0379
   15MOL0     C 1895   6.048   0.874   7.443 -0.2673 -0.5075 -0.3608
   15MOL0     C 1896   6.171   0.794   7.422  0.5600 -0.5197 -0.4692
   15MOL0     C 1897   6.175   0.661   7.453 -0.2787 -0.9322  0.6032
   15MOL0     O 1898   6.298   0.586   7.445  0.6740 -0.3011 -0.5143
   15MOL0     C 1899   6.416   0.643   7.399 -0.6217 -0.2205  0.4265
   15MOL0     C 1900   6.481   0.721   7.517  0.5045  0.7819  1.0999
   15MOL0     C 1901   6.468   0.649   7.655 -0.5491 -0.7605 -1.1034
   15MOL0     C 1902   6.560   0.523   7.654 -0.1624 -0.1611  0.0608
   15MOL0     C 1903   6.488   0.407   7.720  0.7663  0.3214 -0.2267
   15MOL0     C 1904   6.477   0.412   7.875 -0.9529  0.3243  0.7235
   15MOL0     C 1905   6.603   0.467   7.942  0.0329  0.2525  0.2962
   15MOL0     C 1906   6.616   0.415   8.087  0.3516 -0.2963  0.4717
   15MOL0     N 1907   6.713   0.506   8.155  0.2981  0.0456 -0.1066
   15MOL0     C 1908   6.693   0.554   8.280 -0.7795  0.5511  0.6482
   15MOL0     C 1909   6.799   0.633   8.304 -0.1356  0.5530  0.4880
   15MOL0     C 1910   6.830   0.701   8.433 -0.5588  0.1702  0.8072
   15MOL0     C 1911   6.918   0.609   8.510  0.9484 -0.0373 -0.0113
   15MOL0     C 1912   6.974   0.687   8.634  0.4589  1.2948 -0.6265
   15MOL0     C 1913   7.024   0.607   8.761 -0.0670  0.4905  1.0428
   15MOL0     O 1914   6.912   0.541   8.828  0.0677 -0.2324 -0.3449
   15MOL0     C 1915   6.918   0.499   8.953  0.0800 -0.0556 -1.1421
   15MOL0     C 1916   7.034   0.437   9.007 -0.0210  0.6186  0.2563
   15MOL0     C 1917   7.030   0.373   9.130 -0.7929 -0.1688  0.1276
   15MOL0     C 1918   6.915   0.375   9.198 -1.0309 -0.1728  0.1901
   15MOL0     C 1919   6.901   0.293   9.324  0.1426 -0.0466 -0.9335
   15MOL0     O 1920   7.010   0.214   9.358  1.0220  0.1061 -0.5095
   15MOL0     C 1921   6.993   0.113   9.449  0.3767  0.9950 -0.4596
   15MOL0     C 1922   7.107   0.060   9.513  0.5301 -0.4167 -0.0145
   15MOL0     C 1923   7.106  -0.050   9.593 -0.5656 -0.3841  0.0368
   15MOL0     C 1924   6.980  -0.118   9.611 -1.1477 -0.8318  0.0361
   15MOL0     O 1925   6.997  -0.236   9.679 -0.1664 -0.2995 -0.3344
   15MOL0     C 1926   6.879  -0.303   9.736 -0.7506 -0.7044  0.4797
   15MOL0     C 1927   6.839  -0.239   9.863  1.0404 -1.2537 -0.1427
   15MOL0     C 1928   6.966  -0.231   9.958  0.5946  0.2308 -0.4967
   15MOL0     C 1929   7.017  -0.357  10.040 -0.7594 -1.1257 -0.2937
   15MOL0     C 1930   6.936  -0.398  10.157  0.6034 -0.9415 -0.0366
   15MOL0     C 1931   6.911  -0.288  10.257  0.0877  0.3638  0.1548
   15MOL0     C 1932   6.813  -0.334  10.367  0.5026 -0.2123 -0.5763
   15MOL0     C 1933   6.864  -0.372  10.494 -0.6508  0.1168  0.3171
   15MOL0    Cl 1934   6.922  -0.215  10.558 -0.3009 -0.3940  0.2064
   15MOL0     C 1935   6.866  -0.075   9.552  0.8699 -0.2644  0.4033
   15MOL0     C 1936   6.877   0.032   9.470 -0.3746 -0.7414  0.3648
   15MOL0     O 1937   6.795   0.299   9.383 -0.1192  0.0109  0.2696
   15MOL0     C 1938   6.801   0.435   9.147  0.0721  0.4947  0.0435
   15MOL0     C 1939   6.800   0.484   9.021  0.0885 -0.4645  0.8556
   15MOL0     N 1940   6.885   0.619   8.196  0.5701  0.5610  0.0542
   15MOL0     N 1941   6.835   0.546   8.103  0.2299 -0.0127 -0.0884
   15MOL0     C 1942   6.061   0.598   7.498  0.7389  0.1226  0.0050
   15MOL0     C 1943   5.948   0.671   7.536  0.2355 -0.1237  1.3336
   15MOL0     C 1944   5.695   1.003   7.704  0.2309  0.0065  0.0142
   15MOL0     C 1945   5.590   1.014   7.608  0.2323 -0.3908  0.3519
   15MOL0     C 1946   5.452   1.043   7.639  0.1586 -0.7650  0.1341
   15MOL0     C 1947   5.417   1.080   7.769  0.4666 -0.7922  0.1584
   15MOL0     O 1948   5.289   1.104   7.808 -0.3277  0.5827  0.9972
   15MOL0     C 1949   5.261   1.170   7.928 -0.1233  0.3562  0.7479
   15MOL0     C 1950   5.107   1.190   7.950  0.1690 -0.7179 -0.4050
   15MOL0     C 1951   5.049   1.290   7.850  0.1877  0.3738  0.4511
   15MOL0     C 1952   4.892   1.276   7.821 -1.3722  0.7577 -0.4816
   15MOL0     C 1953   4.818   1.321   7.940  0.0356  0.0497 -0.3762
   15MOL0     C 1954   4.760   1.341   8.045 -0.4675 -0.3903 -0.2267
   15MOL0     C 1955   5.527   1.076   7.870  0.5540  0.6072  1.0263
   15MOL0     C 1956   5.652   1.033   7.834 -0.0456 -0.1334  0.4799
   15MOL0     C 1957   5.753   1.040   7.949  0.4326  0.6092  0.7270
   15MOL0     H 1958   6.044   0.975   7.402 -1.7442 -1.3009 -2.3263
   15MOL0     H 1959   6.259   0.847   7.389  0.8941 -2.1825 -2.4143
   15MOL0     H 1960   6.467   0.559   7.351 -3.1537 -0.4672 -2.1047
   15MOL0     H 1961   6.403   0.703   7.309  0.8498 -0.2846  0.1543
   15MOL0     H 1962   6.414   0.806   7.534 -0.0265  0.0726  2.7469
   15MOL0     H 1963   6.581   0.750   7.482  0.0704 -2.0494 -3.2701
   15MOL0     H 1964   6.367   0.619   7.681 -0.9863 -0.4914 -2.3835
   15MOL0     H 1965   6.502   0.717   7.734  0.8886 -0.0386 -2.2888
   15MOL0     H 1966   6.580   0.495   7.550 -3.6666  1.5491 -1.2234
   15MOL0     H 1967   6.655   0.549   7.702 -0.5026 -1.8986  1.8058
   15MOL0     H 1968   6.389   0.388   7.678  0.8324  3.7233 -2.2370
   15MOL0     H 1969   6.547   0.314   7.718 -1.1127 -0.9792  1.0700
   15MOL0     H 1970   6.386   0.470   7.893 -1.2438 -0.2718  1.2118
   15MOL0     H 1971   6.473   0.308   7.908  2.6090 -1.0368 -2.4550
   15MOL0     H 1972   6.587   0.575   7.938 -3.3265 -0.0554  2.0459
   15MOL0     H 1973   6.692   0.426   7.893  0.7977  0.5503  1.3938
   15MOL0     H 1974   6.520   0.422   8.139 -0.8870  1.2546 -1.8190
   15MOL0     H 1975   6.657   0.314   8.091 -3.4772 -2.0690 -0.6060
   15MOL0     H 1976   6.601   0.551   8.338 -0.3224  1.6538  1.4743
   15MOL0     H 1977   6.878   0.798   8.418  0.4248 -0.2900  0.9107
   15MOL0     H 1978   6.735   0.712   8.485 -2.2316  1.3469 -2.2736
   15MOL0     H 1979   6.858   0.518   8.520 -2.3525  1.9923  0.4556
   15MOL0     H 1980   7.001   0.591   8.441  0.8248 -2.0460  0.3165
   15MOL0     H 1981   6.888   0.743   8.673 -0.6600  0.1310 -1.3144
   15MOL0     H 1982   7.050   0.756   8.597  0.0114  1.5556 -1.0792
   15MOL0     H 1983   7.069   0.685   8.823 -2.7472  5.4189 -2.4621
   15MOL0     H 1984   7.087   0.524   8.729 -1.8965 -0.4185 -0.4371
   15MOL0     H 1985   7.126   0.432   8.949 -0.7247  0.8904 -0.9036
   15MOL0     H 1986   7.117   0.314   9.156 -1.0738  0.2204  2.1041
   15MOL0     H 1987   7.209   0.096   9.504  0.4706 -0.1531  0.3424
   15MOL0     H 1988   7.199  -0.077   9.643 -1.8805 -0.6039  2.5629
   15MOL0     H 1989   6.800  -0.302   9.661  1.1620 -2.1760 -1.7021
   15MOL0     H 1990   6.901  -0.410   9.742 -0.5787 -0.7476 -0.6988
   15MOL0     H 1991   6.792  -0.141   9.851  0.0507 -1.8561 -1.3454
   15MOL0     H 1992   6.758  -0.292   9.913 -3.0811  2.1107 -2.6039
   15MOL0     H 1993   7.054  -0.187   9.909  2.2446 -1.0417  1.1720
   15MOL0     H 1994   6.937  -0.156  10.032  1.2305  0.2264 -0.2310
   15MOL0     H 1995   7.117  -0.337  10.079 -0.2297 -2.6882 -0.7513
   15MOL0     H 1996   7.022  -0.444   9.973  1.3375 -1.4691  0.2304
   15MOL0     H 1997   6.978  -0.488  10.202 -0.3467 -0.6173  1.5659
   15MOL0     H 1998   6.837  -0.435  10.127  0.2110  1.2438 -1.6944
   15MOL0     H 1999   6.998  -0.246  10.308 -0.9737  0.9017  1.5985
   15MOL0     H 2000   6.860  -0.202  10.213 -0.0435 -1.0636 -2.7078
   15MOL0     H 2001   6.771  -0.432  10.341  1.2203 -0.9019  0.7544
   15MOL0     H 2002   6.743  -0.252  10.385 -2.6317 -2.2604 -2.4278
   15MOL0     H 2003   6.780  -0.412  10.552 -1.4082  1.3416  0.1102
   15MOL0     H 2004   6.958  -0.428  10.489 -0.8874 -0.1698 -1.5109
   15MOL0     H 2005   6.768  -0.119   9.566  0.4022  0.0739 -1.5959
   15MOL0     H 2006   6.784   0.061   9.422  0.4126  1.0389 -0.1690
   15MOL0     H 2007   6.713   0.439   9.211  0.1431 -1.4712  0.3236
   15MOL0     H 2008   6.715   0.528   8.968 -0.4842 -1.7851  0.6405
   15MOL0     H 2009   6.056   0.495   7.532 -0.3566 -0.0879 -0.7501
   15MOL0     H 2010   5.860   0.619   7.573  0.3144 -1.2709  0.0014
   15MOL0     H 2011   5.612   0.988   7.505 -0.5452 -0.2035  0.1325
   15MOL0     H 2012   5.371   1.059   7.568 -1.2506  1.1509  2.0499
   15MOL0     H 2013   5.312   1.267   7.923  0.0539  0.2739  0.9325
   15MOL0     H 2014   5.298   1.115   8.015 -2.0245 -4.6252 -1.2663
   15MOL0     H 2015   5.107   1.241   8.047 -1.2068 -1.9316  0.2665
   15MOL0     H 2016   5.056   1.094   7.954  1.4320 -1.6546 -3.6968
   15MOL0     H 2017   5.092   1.285   7.750 -4.5376 -0.2472 -1.8496
   15MOL0     H 2018   5.071   1.389   7.890  4.0876 -0.6763  1.2730
   15MOL0     H 2019   4.856   1.350   7.749 -2.8547  2.3365  1.7576
   15MOL0     H 2020   4.863   1.174   7.791 -3.2548  1.4961 -1.3533
   15MOL0     H 2021   4.721   1.358   8.144 -1.6696  0.1061 -0.7673
   15MOL0     H 2022   5.507   1.100   7.975  2.2600  2.2543  1.0269
   15MOL0     H 2023   5.851   1.060   7.904 -0.6508  1.6625 -1.3450
   15MOL0     H 2024   5.735   1.126   8.014 -0.1540  1.9905 -1.1589
   15MOL0     H 2025   5.739   0.954   8.015  0.1211  0.1797  0.1175
   16MOL0     O 2026   1.263   3.622   3.846 -0.1216  0.2515  0.2740
   16MOL0     C 2027   1.250   3.587   3.730 -0.0811 -0.4408  0.5295
   16MOL0     O 2028   1.211   3.459   3.698 -0.1327 -0.4069 -0.2337
   16MOL0     C 2029   1.183   3.376   3.803  0.2014 -0.0360 -0.8120
   16MOL0     C 2030   1.045   3.337   3.829 -0.9689 -1.5347  0.7714
   16MOL0     C 2031   1.025   3.271   3.949  0.2537 -0.4494 -0.4857
   16MOL0     C 2032   1.130   3.214   4.024  1.2101  0.5261 -0.5307
   16MOL0     O 2033   1.115   3.133   4.140 -0.2120  0.7534 -0.3772
   16MOL0     C 2034   0.984   3.064   4.152 -0.0597 -0.7393  0.0190
   16MOL0     C 2035   1.025   2.944   4.233  0.3190  0.5327 -0.0985
   16MOL0     C 2036   0.920   2.893   4.325  0.5845  0.1988 -0.5584
   16MOL0     C 2037   0.866   2.994   4.430  0.2310  1.0565 -0.0673
   16MOL0     C 2038   0.976   3.017   4.537  0.2925  0.1559  0.0102
   16MOL0     C 2039   0.942   3.147   4.620  0.7189 -0.2027 -0.9481
   16MOL0     C 2040   1.056   3.159   4.735 -0.2113  0.0456  0.7505
   16MOL0     C 2041   1.024   3.283   4.812  0.6121  0.6737  0.6915
   16MOL0     N 2042   0.916   3.263   4.918 -0.4082 -0.0180  0.6442
   16MOL0     C 2043   0.812   3.343   4.932 -1.5234 -0.1819 -1.0001
   16MOL0     C 2044   0.753   3.288   5.039  0.1628 -0.3389  0.0657
   16MOL0     C 2045   0.615   3.340   5.091 -0.3177 -0.1324 -0.7803
   16MOL0     C 2046   0.606   3.492   5.107  0.5391 -0.5938  0.0413
   16MOL0     C 2047   0.475   3.534   5.185  0.1602  1.0031  0.2013
   16MOL0     C 2048   0.476   3.670   5.235  0.7615  0.1680 -0.2025
   16MOL0     O 2049   0.541   3.678   5.364  1.1447 -0.5885  0.1191
   16MOL0     C 2050   0.483   3.643   5.482  0.1906 -0.2748  0.2499
   16MOL0     C 2051   0.569   3.643   5.600 -0.3403 -0.5076 -0.3144
   16MOL0     C 2052   0.522   3.611   5.722 -0.6092 -0.9095 -0.0615
   16MOL0     C 2053   0.388   3.581   5.734  0.5011 -0.0659  0.1768
   16MOL0     C 2054   0.343   3.539   5.867  0.2920 -0.2721  0.4236
   16MOL0     O 2055   0.209   3.514   5.874  0.2895 -0.0450 -0.0101
   16MOL0     C 2056   0.152   3.454   5.985  0.1920  0.9335  0.8734
   16MOL0     C 2057   0.197   3.349   6.061 -0.3448 -0.2753 -0.4081
   16MOL0     C 2058   0.106   3.273   6.142 -0.4553  0.3743 -0.4167
   16MOL0     C 2059  -0.025   3.307   6.151 -0.2488  0.6391 -0.0925
   16MOL0     O 2060  -0.103   3.215   6.220 -0.2407 -0.1201 -0.1719
   16MOL0     C 2061  -0.172   3.273   6.332  0.9956 -0.1095 -0.1184
   16MOL0     C 2062  -0.069   3.292   6.443  0.2124  0.1865  0.3050
   16MOL0     C 2063  -0.008   3.163   6.500  0.4010 -0.1854  0.5915
   16MOL0     C 2064   0.128   3.201   6.557  0.2112  0.0366  0.1928
   16MOL0     C 2065   0.201   3.067   6.570  0.5255 -0.3125  0.6031
   16MOL0     C 2066   0.131   2.967   6.659  0.3998 -0.8897  0.4670
   16MOL0     C 2067   0.220   2.864   6.724  0.3499 -0.2605  0.1008
   16MOL0     C 2068   0.145   2.755   6.795  0.8385 -0.1045 -0.5918
   16MOL0    Cl 2069   0.034   2.680   6.692 -0.2976  0.1038 -0.1853
   16MOL0     C 2070  -0.070   3.416   6.079  0.7090 -1.1138  1.4052
   16MOL0     C 2071   0.018   3.491   5.990  0.7126  0.3772 -0.7636
   16MOL0     O 2072   0.430   3.538   5.962  1.0503  0.2176 -0.5239
   16MOL0     C 2073   0.297   3.603   5.622  0.7897 -0.3683  0.0023
   16MOL0     C 2074   0.346   3.640   5.489 -0.8158 -0.6300 -0.7257
   16MOL0     N 2075   0.814   3.175   5.094 -0.7803  0.3451  1.2038
   16MOL0     N 2076   0.914   3.173   5.014  0.4046 -0.1562 -0.9465
   16MOL0     C 2077   1.254   3.229   3.980 -0.1641 -0.6127 -1.3117
   16MOL0     C 2078   1.284   3.319   3.883 -0.8458 -1.0736 -0.2694
   16MOL0     C 2079   1.294   3.678   3.617  0.5392  0.6222  0.6308
   16MOL0     C 2080   1.241   3.649   3.485 -1.0722  0.3945 -0.4332
   16MOL0     C 2081   1.281   3.733   3.382 -0.2394 -0.5535  0.3050
   16MOL0     C 2082   1.391   3.818   3.395  0.6953  1.0904 -0.6806
   16MOL0     O 2083   1.450   3.874   3.284  0.7354 -0.1480  0.1584
   16MOL0     C 2084   1.579   3.947   3.291 -0.5378 -0.0583 -0.3813
   16MOL0     C 2085   1.628   3.965   3.145  0.5926 -0.0228  0.0031
   16MOL0     C 2086   1.778   3.984   3.133 -1.2017  0.7110 -0.8046
   16MOL0     C 2087   1.816   3.992   2.978 -0.7782 -1.2575 -0.9868
   16MOL0     C 2088   1.853   3.858   2.922 -0.3471 -0.0071  0.0511
   16MOL0     C 2089   1.864   3.750   2.872 -0.8045  0.5091 -0.9510
   16MOL0     C 2090   1.434   3.841   3.522 -0.2898  0.5914 -0.2438
   16MOL0     C 2091   1.382   3.786   3.635 -1.1174 -0.2109 -0.2693
   16MOL0     C 2092   1.447   3.831   3.764  0.1699  0.8476 -0.5981
   16MOL0     H 2093   0.970   3.375   3.760 -1.3322 -1.4577  1.1997
   16MOL0     H 2094   0.926   3.248   3.985  0.2480  3.3806  2.6810
   16MOL0     H 2095   0.918   3.131   4.208 -0.5904 -1.2465  0.0129
   16MOL0     H 2096   0.930   3.053   4.058 -0.9113  1.3155  0.2026
   16MOL0     H 2097   1.114   2.952   4.296  1.8052 -0.2231 -1.9875
   16MOL0     H 2098   1.040   2.860   4.164  3.4686 -0.9975  2.1853
   16MOL0     H 2099   0.960   2.807   4.380 -0.0979 -1.5115 -2.6346
   16MOL0     H 2100   0.840   2.859   4.259  0.5200  2.9539 -2.0426
   16MOL0     H 2101   0.835   3.088   4.383 -0.5533  1.1807  0.6701
   16MOL0     H 2102   0.770   2.956   4.467  0.7579 -1.6364 -1.2449
   16MOL0     H 2103   0.987   2.932   4.604  2.1291  0.0137 -0.3970
   16MOL0     H 2104   1.076   3.036   4.495  0.0476  1.5706 -0.0013
   16MOL0     H 2105   0.944   3.236   4.557 -0.1639  1.4662  1.2368
   16MOL0     H 2106   0.841   3.135   4.662  1.1037  1.5846  0.6155
   16MOL0     H 2107   1.145   3.186   4.676 -1.9182  1.9143 -1.1210
   16MOL0     H 2108   1.059   3.067   4.793 -0.4383  0.0292  0.7365
   16MOL0     H 2109   1.113   3.307   4.870 -0.6884  2.9941  1.8591
   16MOL0     H 2110   1.002   3.367   4.745 -2.9575  0.4558  1.3928
   16MOL0     H 2111   0.783   3.435   4.883  1.6300  2.4510  1.5903
   16MOL0     H 2112   0.529   3.303   5.034 -2.9209  2.2096  1.3096
   16MOL0     H 2113   0.608   3.301   5.193  0.0702  1.5999 -0.0574
   16MOL0     H 2114   0.691   3.532   5.163 -0.9979  1.2682  1.1724
   16MOL0     H 2115   0.607   3.543   5.010  1.4901  1.2935  0.9885
   16MOL0     H 2116   0.452   3.469   5.270 -1.1559 -1.6534 -2.0438
   16MOL0     H 2117   0.391   3.527   5.115 -1.6053  1.3408  2.1789
   16MOL0     H 2118   0.374   3.709   5.243  0.3288 -1.0910  0.7439
   16MOL0     H 2119   0.541   3.731   5.171  2.7729  0.1318  1.7008
   16MOL0     H 2120   0.675   3.665   5.597 -0.1474  1.6589  6.0956
   16MOL0     H 2121   0.592   3.609   5.805 -0.0535  2.4409 -0.3226
   16MOL0     H 2122   0.304   3.330   6.062 -0.0501  0.9340 -2.3724
   16MOL0     H 2123   0.131   3.183   6.198 -1.8424  0.8002  0.9542
   16MOL0     H 2124  -0.218   3.371   6.318  0.8117 -0.5534 -3.8633
   16MOL0     H 2125  -0.253   3.203   6.356  0.5867  0.3257 -0.2163
   16MOL0     H 2126   0.010   3.365   6.422  0.8724 -0.8097 -0.7554
   16MOL0     H 2127  -0.123   3.335   6.528  0.7559 -1.3098  1.4351
   16MOL0     H 2128  -0.071   3.120   6.578  0.9804 -0.9146  0.6640
   16MOL0     H 2129   0.019   3.092   6.422  1.4460 -0.7910  1.4750
   16MOL0     H 2130   0.107   3.249   6.652  0.5712  0.1131  0.2340
   16MOL0     H 2131   0.189   3.266   6.494  0.6800 -1.3309 -0.8390
   16MOL0     H 2132   0.304   3.075   6.604  0.7337  0.0705 -0.0971
   16MOL0     H 2133   0.208   3.026   6.469  3.7432  0.2307  0.5156
   16MOL0     H 2134   0.090   3.037   6.733  5.6304  2.2689  0.8201
   16MOL0     H 2135   0.045   2.916   6.614 -0.4208  1.9381 -1.4490
   16MOL0     H 2136   0.290   2.914   6.791 -1.2851  1.4509  0.6306
   16MOL0     H 2137   0.279   2.817   6.645  3.0760  0.4024  1.6225
   16MOL0     H 2138   0.222   2.690   6.837  2.4227  1.5036 -0.8889
   16MOL0     H 2139   0.080   2.790   6.875 -2.6242 -0.6515 -2.9472
   16MOL0     H 2140  -0.176   3.443   6.074  1.3068  1.3604  0.8187
   16MOL0     H 2141  -0.022   3.573   5.931 -2.4214 -0.3136  0.1975
   16MOL0     H 2142   0.192   3.579   5.633  1.2457 -1.9412  1.2577
   16MOL0     H 2143   0.281   3.663   5.405  0.1161  1.1458 -1.0328
   16MOL0     H 2144   1.339   3.190   4.035  1.3621  1.3968 -2.1395
   16MOL0     H 2145   1.391   3.332   3.867 -1.2934  0.8404 -2.1561
   16MOL0     H 2146   1.176   3.563   3.478 -0.6729  0.1711 -1.5190
   16MOL0     H 2147   1.253   3.702   3.281  0.6945  1.6472 -0.6982
   16MOL0     H 2148   1.652   3.887   3.346  1.7560  0.5097 -2.5965
   16MOL0     H 2149   1.572   4.046   3.336 -1.4056 -0.5768  0.6889
   16MOL0     H 2150   1.570   4.043   3.095 -2.0941 -2.4051 -0.8861
   16MOL0     H 2151   1.593   3.874   3.096  2.4998  0.2162 -1.9117
   16MOL0     H 2152   1.827   3.899   3.183  0.7333  3.7197  2.9421
   16MOL0     H 2153   1.794   4.071   3.196 -2.1357  0.3146  0.0048
   16MOL0     H 2154   1.726   4.031   2.929  1.2489  1.9640 -2.4491
   16MOL0     H 2155   1.895   4.064   2.959 -2.2024  0.6915  0.0601
   16MOL0     H 2156   1.860   3.646   2.843 -0.5719  0.4172 -0.6510
   16MOL0     H 2157   1.518   3.907   3.539 -0.0809  0.2043  0.2561
   16MOL0     H 2158   1.502   3.747   3.808  2.6219  3.0959  0.9121
   16MOL0     H 2159   1.516   3.910   3.736  0.5586  0.0127 -2.1054
   16MOL0     H 2160   1.366   3.871   3.825 -1.9125 -1.7435 -1.4345
   17MOL0     O 2161   7.166  10.761  10.857 -0.0444  0.2077 -0.2989
   17MOL0     C 2162   7.106  10.790  10.752 -0.3730  0.4338 -0.4623
   17MOL0     O 2163   7.146  10.896  10.671  0.6336  0.8442  0.0897
   17MOL0     C 2164   7.272  10.951  10.677  0.6822 -0.3652  0.3742
   17MOL0     C 2165   7.302  11.052  10.768 -0.5396 -0.8589 -0.3912
   17MOL0     C 2166   7.433  11.112  10.769  0.3246 -1.2100 -0.5819
   17MOL0     C 2167   7.529  11.072  10.680  0.1610  0.2821  0.0373
   17MOL0     O 2168   7.651  11.133  10.664  0.1581 -0.0623  0.2472
   17MOL0     C 2169   7.668  11.256  10.717 -0.3778 -0.5228  0.2607
   17MOL0     C 2170   7.810  11.311  10.681  0.4469 -0.8073  0.4811
   17MOL0     C 2171   7.823  11.335  10.533  0.2535  0.5679  0.4090
   17MOL0     C 2172   7.964  11.402  10.506 -0.9883  1.1499  0.3454
   17MOL0     C 2173   8.092  11.322  10.454 -0.4289  0.3650 -0.5469
   17MOL0     C 2174   8.051  11.212  10.361 -0.5699 -0.2703  0.2666
   17MOL0     C 2175   8.163  11.155  10.274  0.4065  0.2258  0.6306
   17MOL0     C 2176   8.297  11.122  10.345  0.2113 -0.3830 -0.7284
   17MOL0     N 2177   8.274  11.050  10.480 -0.4797  0.3486  0.3334
   17MOL0     C 2178   8.219  10.926  10.494 -0.8183 -0.5529  0.9493
   17MOL0     C 2179   8.227  10.894  10.623  0.3314  0.0894 -1.5233
   17MOL0     C 2180   8.182  10.775  10.700  1.2170  0.0556  0.2604
   17MOL0     C 2181   8.271  10.749  10.829  0.0121  0.3654  0.1428
   17MOL0     C 2182   8.267  10.603  10.871  1.2381 -0.6431 -0.7237
   17MOL0     C 2183   8.324  10.588  11.012 -0.0006  0.2200 -0.1721
   17MOL0     O 2184   8.253  10.675  11.112  0.6878 -0.5505  0.4278
   17MOL0     C 2185   8.140  10.632  11.178 -0.2241  0.0867 -0.7651
   17MOL0     C 2186   8.084  10.508  11.141  0.6988 -0.7476 -0.0055
   17MOL0     C 2187   7.991  10.453  11.218 -0.5834  0.8221  0.2165
   17MOL0     C 2188   7.939  10.524  11.334 -0.4791 -0.3948  0.4571
   17MOL0     C 2189   7.847  10.452  11.421 -0.2480 -0.5534  0.0514
   17MOL0     O 2190   7.842  10.310  11.400 -0.2007 -0.2249 -0.1627
   17MOL0     C 2191   7.765  10.219  11.463 -0.5175 -0.8239  0.0432
   17MOL0     C 2192   7.683  10.243  11.577 -0.1214 -0.4064  0.7050
   17MOL0     C 2193   7.619  10.139  11.637  1.1353 -0.4371 -0.9756
   17MOL0     C 2194   7.627  10.011  11.586 -0.0566  0.1994  0.1228
   17MOL0     O 2195   7.577   9.893  11.646  0.3462  0.1582  0.8968
   17MOL0     C 2196   7.494   9.892  11.765  0.0504  0.3435  0.5982
   17MOL0     C 2197   7.346   9.892  11.721  0.4158  0.5743 -0.2282
   17MOL0     C 2198   7.254   9.869  11.845 -0.2865 -0.3743  0.4763
   17MOL0     C 2199   7.113   9.836  11.787  0.4709  0.3995 -0.4414
   17MOL0     C 2200   7.010   9.830  11.892  0.0324 -0.6167  1.0957
   17MOL0     C 2201   6.873   9.799  11.829 -0.2684  0.0180 -0.5253
   17MOL0     C 2202   6.756   9.782  11.935 -0.6119  1.0546  0.6365
   17MOL0     C 2203   6.649   9.688  11.873  0.6128  0.4105 -0.2105
   17MOL0    Cl 2204   6.503   9.785  11.803  0.1412  0.0042 -0.0442
   17MOL0     C 2205   7.716   9.981  11.477 -0.6064 -0.3757  0.2539
   17MOL0     C 2206   7.782  10.091  11.413 -0.2991  0.4498 -0.4384
   17MOL0     O 2207   7.777  10.520  11.495  0.6571  0.1463  0.1274
   17MOL0     C 2208   7.986  10.650  11.359  0.9309 -0.6738 -0.0579
   17MOL0     C 2209   8.083  10.713  11.280  0.3073  0.6391 -0.7223
   17MOL0     N 2210   8.281  11.003  10.684 -1.4524  0.2302 -0.4205
   17MOL0     N 2211   8.311  11.093  10.598 -0.2994  0.5514  0.9559
   17MOL0     C 2212   7.502  10.965  10.594 -0.4460  0.8001  0.3123
   17MOL0     C 2213   7.380  10.903  10.590  0.6638 -0.3871 -0.8852
   17MOL0     C 2214   6.983  10.715  10.724  0.6255  0.2565 -0.0412
   17MOL0     C 2215   6.910  10.752  10.605 -0.6940 -0.3841 -1.3414
   17MOL0     C 2216   6.786  10.689  10.579 -0.8167 -0.2928 -0.3302
   17MOL0     C 2217   6.739  10.583  10.661  1.1366 -0.4196 -0.7096
   17MOL0     O 2218   6.625  10.519  10.622  0.0574 -0.1332  0.6660
   17MOL0     C 2219   6.605  10.386  10.673  0.4920  0.2918 -0.4950
   17MOL0     C 2220   6.709  10.283  10.628 -0.0883 -0.1828 -0.2190
   17MOL0     C 2221   6.768  10.304  10.482  0.8077 -0.0132  0.2735
   17MOL0     C 2222   6.786  10.166  10.412 -0.9862 -0.1474  0.6730
   17MOL0     C 2223   6.893  10.084  10.476 -0.1373 -0.9760 -0.3134
   17MOL0     C 2224   6.976  10.011  10.524 -0.2114 -0.3773  0.4919
   17MOL0     C 2225   6.814  10.551  10.774 -0.0709 -0.5168  0.3298
   17MOL0     C 2226   6.923  10.620  10.817  0.1655 -0.1039 -0.4976
   17MOL0     C 2227   6.965  10.616  10.958  0.2640 -0.2260 -0.5181
   17MOL0     H 2228   7.214  11.092  10.818 -0.1595  1.4580 -1.4291
   17MOL0     H 2229   7.466  11.176  10.850  0.8052 -4.0075  1.6215
   17MOL0     H 2230   7.592  11.322  10.675  1.8399  2.0335 -0.0249
   17MOL0     H 2231   7.657  11.253  10.826 -2.3561  0.1131  0.1180
   17MOL0     H 2232   7.892  11.260  10.732  1.3660  0.1583  0.0068
   17MOL0     H 2233   7.809  11.412  10.723 -2.3573  0.1826 -1.6204
   17MOL0     H 2234   7.742  11.403  10.507 -3.0173 -2.9666  0.5837
   17MOL0     H 2235   7.809  11.244  10.474 -2.4352 -0.4275  2.4256
   17MOL0     H 2236   7.961  11.469  10.419 -0.3120  1.9560  0.9144
   17MOL0     H 2237   7.991  11.466  10.591  3.5056  3.9017 -2.6572
   17MOL0     H 2238   8.152  11.398  10.405 -1.2226  2.0822  1.0447
   17MOL0     H 2239   8.148  11.287  10.541 -1.9572 -0.9427 -0.0329
   17MOL0     H 2240   8.005  11.131  10.418 -2.0448  0.2664 -0.1417
   17MOL0     H 2241   7.981  11.257  10.291  1.7365 -0.1284 -2.0885
   17MOL0     H 2242   8.182  11.240  10.208 -3.8071  1.8633  1.2172
   17MOL0     H 2243   8.120  11.076  10.212 -1.3949  1.2462  0.5081
   17MOL0     H 2244   8.348  11.057  10.273  0.9053 -1.8491  0.9940
   17MOL0     H 2245   8.354  11.215  10.355 -4.1168  2.2986  4.2728
   17MOL0     H 2246   8.186  10.867  10.408  0.0263  1.6910 -1.0320
   17MOL0     H 2247   8.075  10.777  10.724  0.3845 -1.6578 -2.8397
   17MOL0     H 2248   8.186  10.683  10.642 -0.4542 -1.0381  1.7599
   17MOL0     H 2249   8.376  10.773  10.811  0.5184 -0.3983  1.8464
   17MOL0     H 2250   8.233  10.809  10.913  0.4915 -1.8236  2.0322
   17MOL0     H 2251   8.309  10.540  10.793  1.1541 -5.3332  2.6228
   17MOL0     H 2252   8.163  10.571  10.873  0.6832  0.9359 -1.9975
   17MOL0     H 2253   8.429  10.617  11.009  0.9221 -1.4999  4.8582
   17MOL0     H 2254   8.319  10.489  11.058 -2.3156  1.0135  1.5219
   17MOL0     H 2255   8.100  10.439  11.059 -3.5639 -1.6948 -0.2792
   17MOL0     H 2256   7.952  10.355  11.193 -1.8167  2.0708 -3.3724
   17MOL0     H 2257   7.697  10.343  11.616  1.5731  0.6817 -2.3865
   17MOL0     H 2258   7.569  10.156  11.732 -0.0047  0.0116 -1.6380
   17MOL0     H 2259   7.513   9.799  11.818 -1.5764 -0.7982 -0.7214
   17MOL0     H 2260   7.517   9.969  11.840 -2.3849  0.4361  1.3152
   17MOL0     H 2261   7.335   9.989  11.673  3.0824  1.5920  1.0062
   17MOL0     H 2262   7.327   9.823  11.638  1.5900 -0.2611  0.1663
   17MOL0     H 2263   7.299   9.792  11.908 -1.8037 -0.4387  1.5275
   17MOL0     H 2264   7.257   9.962  11.903 -1.2421  0.5011 -0.8203
   17MOL0     H 2265   7.119   9.741  11.734  1.5631  1.4683 -2.3613
   17MOL0     H 2266   7.089   9.913  11.712  0.6114 -0.9926 -1.9658
   17MOL0     H 2267   7.008   9.929  11.940  1.7418 -0.0548  0.0804
   17MOL0     H 2268   7.038   9.748  11.959  2.5049 -0.3416  0.5023
   17MOL0     H 2269   6.845   9.884  11.766 -0.3775 -0.2263 -0.8065
   17MOL0     H 2270   6.900   9.708  11.774 -0.1697 -0.5101  0.3852
   17MOL0     H 2271   6.710   9.878  11.961 -3.6182 -0.6182  1.8636
   17MOL0     H 2272   6.787   9.744  12.033  0.6754  0.1998 -0.0749
   17MOL0     H 2273   6.698   9.623  11.801  2.8787 -0.5611  2.0556
   17MOL0     H 2274   6.605   9.623  11.950  0.0855  0.3696 -0.5403
   17MOL0     H 2275   7.731   9.878  11.446 -1.0454 -0.8287  1.4719
   17MOL0     H 2276   7.839  10.067  11.324  1.0515 -3.9082  1.3323
   17MOL0     H 2277   7.963  10.701  11.452 -0.8113 -0.8189 -0.3750
   17MOL0     H 2278   8.119  10.811  11.308  0.0197  0.5423  0.0162
   17MOL0     H 2279   7.579  10.926  10.528 -0.0914 -0.7624  1.5752
   17MOL0     H 2280   7.356  10.822  10.522 -0.2652  0.1818 -1.2650
   17MOL0     H 2281   6.934  10.835  10.539  1.4914 -0.1894 -0.4091
   17MOL0     H 2282   6.730  10.709  10.489 -1.9459  0.5678  0.5310
   17MOL0     H 2283   6.504  10.360  10.641 -0.3439  0.8166  1.5463
   17MOL0     H 2284   6.601  10.393  10.782 -0.0576 -2.2028 -0.2881
   17MOL0     H 2285   6.672  10.180  10.627  2.1764 -1.1551 -4.3178
   17MOL0     H 2286   6.795  10.277  10.695 -1.5867 -3.6306  1.6506
   17MOL0     H 2287   6.863  10.344  10.517  1.0959  0.0453 -0.5572
   17MOL0     H 2288   6.715  10.380  10.423 -1.7093 -0.6590  1.5501
   17MOL0     H 2289   6.695  10.106  10.425 -1.1709 -0.1249 -0.4274
   17MOL0     H 2290   6.816  10.166  10.307  3.3258 -1.3382  1.6858
   17MOL0     H 2291   7.048   9.946  10.569 -0.6281  0.7326  2.9374
   17MOL0     H 2292   6.782  10.468  10.837 -1.7542 -0.1154  0.0569
   17MOL0     H 2293   6.974  10.712  11.010  0.3422  0.5765 -1.9628
   17MOL0     H 2294   6.906  10.547  11.019  0.3075 -1.9563 -2.3446
   17MOL0     H 2295   7.063  10.571  10.977  1.3347  2.4603  0.9206
   18MOL0     O 2296   3.853   5.429   5.584  0.6216 -0.5536  0.1625
   18MOL0     C 2297   3.857   5.547   5.608 -0.0764  0.2192  0.6258
   18MOL0     O 2298   3.770   5.614   5.688  0.1306 -0.1946  0.0585
   18MOL0     C 2299   3.653   5.558   5.710 -0.1763 -0.8590 -0.6533
   18MOL0     C 2300   3.614   5.507   5.837  0.6121 -0.1232 -0.1118
   18MOL0     C 2301   3.487   5.450   5.859  0.0297 -0.4847 -0.1020
   18MOL0     C 2302   3.384   5.457   5.764  0.2261  0.0162  0.3806
   18MOL0     O 2303   3.273   5.396   5.798 -0.1751 -1.3058 -0.3680
   18MOL0     C 2304   3.173   5.379   5.708  0.3233  0.2183  0.0009
   18MOL0     C 2305   3.061   5.319   5.783  0.0664  0.9391 -0.9984
   18MOL0     C 2306   2.941   5.257   5.699  0.6013  0.3328  0.3755
   18MOL0     C 2307   2.901   5.340   5.569  0.2826  0.4119 -0.1293
   18MOL0     C 2308   2.765   5.311   5.505  0.2064  0.1312 -0.1970
   18MOL0     C 2309   2.750   5.159   5.454 -0.3484 -1.5537 -0.5730
   18MOL0     C 2310   2.608   5.115   5.458 -1.1090  0.4311 -0.8772
   18MOL0     C 2311   2.596   4.968   5.406  0.1784 -1.0691 -0.3567
   18MOL0     N 2312   2.656   4.942   5.269 -0.5597  0.5599 -0.1372
   18MOL0     C 2313   2.649   5.017   5.154  0.0625  0.2387 -0.0355
   18MOL0     C 2314   2.724   4.949   5.057 -0.2271 -0.3244 -1.2987
   18MOL0     C 2315   2.768   4.997   4.923 -0.0532 -0.0417 -0.5378
   18MOL0     C 2316   2.917   5.053   4.941  0.2133  0.6312 -1.0538
   18MOL0     C 2317   2.963   5.110   4.810  0.1832 -0.1894  0.0778
   18MOL0     C 2318   3.094   5.194   4.831 -0.4484  0.7386  0.8530
   18MOL0     O 2319   3.189   5.113   4.891 -0.1554  0.2370 -0.6119
   18MOL0     C 2320   3.319   5.163   4.904 -0.3063  0.7727  0.6150
   18MOL0     C 2321   3.365   5.289   4.859 -0.6232  0.3057 -0.0389
   18MOL0     C 2322   3.488   5.337   4.887 -0.1694 -0.6610  0.2038
   18MOL0     C 2323   3.563   5.270   4.976  0.0112 -1.0189 -0.6511
   18MOL0     C 2324   3.710   5.315   5.001 -0.4855  0.8022 -0.5203
   18MOL0     O 2325   3.782   5.232   5.092  0.1272 -0.4997 -0.9972
   18MOL0     C 2326   3.916   5.246   5.137  0.6925  0.4052 -0.4913
   18MOL0     C 2327   4.021   5.293   5.069 -0.2881 -0.2301 -0.2258
   18MOL0     C 2328   4.154   5.310   5.118  0.8995  0.0506 -0.0301
   18MOL0     C 2329   4.186   5.274   5.247  0.9765  0.2842  0.1865
   18MOL0     O 2330   4.308   5.277   5.302 -0.2171 -1.3515  0.8769
   18MOL0     C 2331   4.427   5.237   5.226  0.6205 -1.0583  0.1911
   18MOL0     C 2332   4.550   5.308   5.292 -0.3226  0.8229 -0.2114
   18MOL0     C 2333   4.548   5.463   5.288 -0.3606  0.4239 -0.7247
   18MOL0     C 2334   4.612   5.521   5.160  0.1244  1.3248  0.0854
   18MOL0     C 2335   4.607   5.674   5.139  0.5642 -0.0281  0.8528
   18MOL0     C 2336   4.459   5.729   5.130 -0.0001 -0.4417 -0.1231
   18MOL0     C 2337   4.379   5.701   4.997 -0.1888 -0.6272 -0.2200
   18MOL0     C 2338   4.234   5.752   5.000  0.0889  0.0255 -0.0289
   18MOL0    Cl 2339   4.121   5.627   5.075 -0.6530 -0.3477 -0.1384
   18MOL0     C 2340   4.079   5.213   5.326 -0.5130 -0.4418 -0.3844
   18MOL0     C 2341   3.944   5.207   5.269 -0.6017 -0.4025 -1.5250
   18MOL0     O 2342   3.751   5.407   4.937 -0.1942 -0.4653  0.0811
   18MOL0     C 2343   3.527   5.147   5.025  0.9708  0.0473 -0.7519
   18MOL0     C 2344   3.404   5.093   4.989 -0.7959  0.8665  0.0515
   18MOL0     N 2345   2.776   4.832   5.112  0.0364 -0.0705  0.2490
   18MOL0     N 2346   2.737   4.836   5.236 -0.2932 -0.5188  0.5303
   18MOL0     C 2347   3.420   5.518   5.647  0.0628 -0.3150 -0.1271
   18MOL0     C 2348   3.550   5.565   5.617 -0.1893  1.2666  0.2600
   18MOL0     C 2349   3.985   5.619   5.580  0.2973  1.1550 -1.3488
   18MOL0     C 2350   4.050   5.592   5.460  0.3623 -0.0543 -0.0293
   18MOL0     C 2351   4.183   5.633   5.429 -0.0118 -0.1114  0.5848
   18MOL0     C 2352   4.251   5.711   5.524 -0.8806 -0.3055  0.3612
   18MOL0     O 2353   4.380   5.759   5.484  0.2427  0.1984 -0.2008
   18MOL0     C 2354   4.395   5.897   5.500  0.4407 -0.7904 -0.3401
   18MOL0     C 2355   4.539   5.935   5.522 -0.3414 -0.3398  0.6463
   18MOL0     C 2356   4.545   6.081   5.570  0.1252 -0.2167  0.4349
   18MOL0     C 2357   4.537   6.089   5.716 -0.4207 -0.1741  0.2817
   18MOL0     C 2358   4.528   6.224   5.753  1.1550 -0.5755  0.2174
   18MOL0     C 2359   4.503   6.345   5.777  0.5783 -0.6952 -0.3980
   18MOL0     C 2360   4.178   5.752   5.639 -0.0221 -0.4086  0.1346
   18MOL0     C 2361   4.049   5.716   5.663  0.6857 -0.1187  1.3301
   18MOL0     C 2362   3.995   5.783   5.783  0.6808 -0.3836 -0.6070
   18MOL0     H 2363   3.680   5.501   5.923  1.1031 -1.8750 -0.5640
   18MOL0     H 2364   3.473   5.419   5.962 -3.3629  0.2156 -0.2317
   18MOL0     H 2365   3.137   5.465   5.650 -4.2010 -2.0348 -0.9920
   18MOL0     H 2366   3.219   5.303   5.644  3.6896  1.8422  0.2462
   18MOL0     H 2367   3.015   5.394   5.848  1.3223  0.5098  0.4292
   18MOL0     H 2368   3.097   5.239   5.848 -2.4612 -0.0417 -0.6917
   18MOL0     H 2369   2.857   5.229   5.762  2.8905  0.8379  3.9533
   18MOL0     H 2370   2.987   5.167   5.658 -0.1585  0.1907 -0.1960
   18MOL0     H 2371   2.907   5.447   5.589 -0.5906  0.6486 -1.0507
   18MOL0     H 2372   2.977   5.305   5.499  0.7492  0.4575  0.3429
   18MOL0     H 2373   2.688   5.326   5.582  0.3567  0.8496 -0.1775
   18MOL0     H 2374   2.746   5.382   5.424  0.5003  0.3948 -0.0394
   18MOL0     H 2375   2.798   5.129   5.361  1.0169 -0.7256 -0.1648
   18MOL0     H 2376   2.796   5.099   5.534 -1.0510 -1.5293 -0.1377
   18MOL0     H 2377   2.552   5.182   5.392 -1.0694  1.4197  0.0590
   18MOL0     H 2378   2.575   5.119   5.563 -0.2973 -0.6777 -0.5724
   18MOL0     H 2379   2.625   4.896   5.484 -2.1237 -0.7077  0.9381
   18MOL0     H 2380   2.489   4.946   5.393 -0.2846  0.7743  0.0522
   18MOL0     H 2381   2.604   5.114   5.136 -2.1924 -0.9036 -0.9180
   18MOL0     H 2382   2.768   4.914   4.853  1.7558  1.3538 -2.3250
   18MOL0     H 2383   2.702   5.074   4.882 -2.0907 -2.1459 -1.4371
   18MOL0     H 2384   2.917   5.124   5.024  1.8610  0.3726 -0.8028
   18MOL0     H 2385   2.985   4.974   4.975  0.6130  1.7753  0.9702
   18MOL0     H 2386   2.889   5.180   4.770  0.2335  0.1459  0.5550
   18MOL0     H 2387   2.971   5.029   4.737  0.5540 -0.5256  0.4848
   18MOL0     H 2388   3.067   5.270   4.906  2.2201  1.2456  1.3963
   18MOL0     H 2389   3.125   5.243   4.738 -0.5080  0.4038  0.6554
   18MOL0     H 2390   3.308   5.364   4.804  0.3086  1.4442  0.5024
   18MOL0     H 2391   3.531   5.423   4.836 -0.1400 -0.2884  0.8409
   18MOL0     H 2392   4.000   5.313   4.964  4.0944  2.5236 -0.8294
   18MOL0     H 2393   4.217   5.354   5.041 -0.1786 -0.2640 -1.1183
   18MOL0     H 2394   4.439   5.128   5.232 -0.9321 -1.2444  0.1733
   18MOL0     H 2395   4.410   5.268   5.122  0.8795 -1.0419  0.1508
   18MOL0     H 2396   4.569   5.276   5.395 -0.4148  0.2019 -0.3816
   18MOL0     H 2397   4.632   5.265   5.234  1.7164 -0.5714  3.3669
   18MOL0     H 2398   4.452   5.512   5.302  0.9940  3.2252 -0.5219
   18MOL0     H 2399   4.616   5.497   5.367  0.2266  1.2949 -1.5867
   18MOL0     H 2400   4.573   5.460   5.078  0.0764  0.4737  0.7226
   18MOL0     H 2401   4.717   5.491   5.162 -0.1769  0.1581 -0.3246
   18MOL0     H 2402   4.652   5.694   5.042 -0.4924 -2.0813 -0.1251
   18MOL0     H 2403   4.662   5.732   5.213 -0.8574  2.6486 -0.0343
   18MOL0     H 2404   4.404   5.703   5.221  1.6917  0.2425  1.1368
   18MOL0     H 2405   4.468   5.838   5.119  0.8481 -0.4639  0.2818
   18MOL0     H 2406   4.373   5.594   4.973 -0.8579 -1.0470  1.6684
   18MOL0     H 2407   4.431   5.753   4.916 -1.0548  0.5947 -0.0237
   18MOL0     H 2408   4.233   5.847   5.055 -0.0239 -2.3849  4.5620
   18MOL0     H 2409   4.201   5.776   4.898  0.1761 -0.9160 -0.2836
   18MOL0     H 2410   4.094   5.184   5.429 -0.9160 -0.0171 -0.2049
   18MOL0     H 2411   3.868   5.168   5.336 -1.7625 -0.1072 -2.6336
   18MOL0     H 2412   3.586   5.090   5.096  1.9702 -2.3096 -3.2884
   18MOL0     H 2413   3.369   4.997   5.027 -2.8363  1.0205 -1.3193
   18MOL0     H 2414   3.344   5.535   5.572  0.2735 -1.2093 -0.5618
   18MOL0     H 2415   3.560   5.616   5.521  2.5529 -1.1348 -0.8703
   18MOL0     H 2416   3.996   5.533   5.386  0.0086  0.3933 -0.1319
   18MOL0     H 2417   4.220   5.602   5.332  0.9797 -2.5188  1.6533
   18MOL0     H 2418   4.324   5.943   5.570 -2.1937 -2.6118 -1.6602
   18MOL0     H 2419   4.368   5.936   5.402 -1.8174  4.1482  1.8532
   18MOL0     H 2420   4.590   5.920   5.426  0.1762  2.8132  0.3141
   18MOL0     H 2421   4.591   5.882   5.603 -0.6495  2.7994  3.0746
   18MOL0     H 2422   4.469   6.137   5.514  3.4525  2.0607 -2.2164
   18MOL0     H 2423   4.641   6.123   5.538  0.5461 -2.0197 -0.8448
   18MOL0     H 2424   4.443   6.039   5.739 -0.9181  1.1216  1.1470
   18MOL0     H 2425   4.626   6.045   5.763 -0.6034 -2.3854 -1.2859
   18MOL0     H 2426   4.488   6.448   5.803 -1.0317 -0.2082 -2.8768
   18MOL0     H 2427   4.215   5.817   5.717  0.7611 -1.2377  0.4699
   18MOL0     H 2428   3.885   5.789   5.782  0.6233 -1.3406 -0.5249
   18MOL0     H 2429   4.033   5.739   5.875  1.3370  1.6460  0.1560
   18MOL0     H 2430   4.024   5.889   5.789  2.9503 -1.0362  1.0260
   19MOL0     O 2431   9.017   8.440   5.107 -0.0326 -0.3020  0.2291
   19MOL0     C 2432   9.136   8.456   5.123 -0.0340  0.3828 -0.1870
   19MOL0     O 2433   9.219   8.505   5.036  0.7148  0.3208  0.7220
   19MOL0     C 2434   9.182   8.487   4.904  0.3465 -0.0505  0.1549
   19MOL0     C 2435   9.157   8.365   4.848  0.4115  0.1751  0.8660
   19MOL0     C 2436   9.114   8.351   4.717 -0.3847 -0.0740  0.0980
   19MOL0     C 2437   9.095   8.462   4.634 -0.8291  0.2878 -0.1040
   19MOL0     O 2438   9.045   8.432   4.516 -0.0299 -0.3326  0.4197
   19MOL0     C 2439   9.055   8.518   4.395 -0.0727  0.2662  0.2944
   19MOL0     C 2440   8.927   8.510   4.312 -0.1881  0.3818  0.1544
   19MOL0     C 2441   8.794   8.525   4.386 -0.3035  0.2803  0.2749
   19MOL0     C 2442   8.780   8.650   4.467  0.7847  0.2657  0.7136
   19MOL0     C 2443   8.654   8.652   4.552 -0.2239 -0.2822 -0.4419
   19MOL0     C 2444   8.641   8.544   4.662  0.2169 -0.4783  0.0650
   19MOL0     C 2445   8.742   8.571   4.772  0.1843  0.1071  0.0634
   19MOL0     C 2446   8.771   8.440   4.841 -0.1910  0.4011 -0.4520
   19MOL0     N 2447   8.665   8.400   4.941 -0.1740 -0.6471 -0.0683
   19MOL0     C 2448   8.687   8.427   5.076 -0.4298  0.7756 -0.7949
   19MOL0     C 2449   8.578   8.379   5.134  0.4413 -1.2045 -1.0155
   19MOL0     C 2450   8.544   8.410   5.283  0.0009 -0.7143 -0.3771
   19MOL0     C 2451   8.430   8.327   5.321 -0.8401 -0.4474 -0.1857
   19MOL0     C 2452   8.404   8.317   5.476  0.4837  0.7459  0.2593
   19MOL0     C 2453   8.341   8.444   5.535 -0.0744  0.1297 -0.4966
   19MOL0     O 2454   8.328   8.438   5.675 -0.3387  0.2325 -0.0219
   19MOL0     C 2455   8.441   8.424   5.744  0.0960  0.4675  0.3419
   19MOL0     C 2456   8.419   8.382   5.881 -1.0184 -0.1380  1.0756
   19MOL0     C 2457   8.534   8.350   5.969  1.4935 -0.6515  0.5310
   19MOL0     C 2458   8.658   8.358   5.915 -0.1335 -0.3338  1.6733
   19MOL0     C 2459   8.776   8.296   5.982  0.4720 -0.0506 -1.0171
   19MOL0     O 2460   8.753   8.262   6.115  0.6987 -0.1777 -0.1182
   19MOL0     C 2461   8.860   8.240   6.196 -0.6422 -0.5210 -0.1431
   19MOL0     C 2462   8.905   8.347   6.267  0.5473 -0.5256 -0.0137
   19MOL0     C 2463   9.012   8.351   6.361  0.1577  0.2048  0.2480
   19MOL0     C 2464   9.083   8.226   6.372 -0.5376 -0.5707  0.3547
   19MOL0     O 2465   9.181   8.209   6.464  0.4385  0.6591 -0.3524
   19MOL0     C 2466   9.129   8.188   6.595 -1.1055 -0.4042  0.1947
   19MOL0     C 2467   9.156   8.046   6.629 -0.4854 -0.3978 -0.0166
   19MOL0     C 2468   9.026   7.970   6.632  0.5660 -0.5507  0.3303
   19MOL0     C 2469   9.036   7.861   6.742 -0.0111  0.7819  0.1497
   19MOL0     C 2470   8.899   7.791   6.773 -0.5809 -0.4046  0.6758
   19MOL0     C 2471   8.905   7.704   6.907  0.2559  0.3404 -0.7385
   19MOL0     C 2472   8.983   7.567   6.896  0.4244 -0.3325  0.2739
   19MOL0     C 2473   8.970   7.493   6.763 -0.0341  0.1119  0.2881
   19MOL0    Cl 2474   8.803   7.456   6.706  0.6229  0.3036  0.2891
   19MOL0     C 2475   9.038   8.111   6.309  0.1069  0.0887 -0.2917
   19MOL0     C 2476   8.921   8.119   6.216  0.4700 -0.1498 -0.5698
   19MOL0     O 2477   8.879   8.272   5.919 -0.0231  0.4669 -0.3921
   19MOL0     C 2478   8.679   8.415   5.786 -0.6970 -0.5161 -1.1929
   19MOL0     C 2479   8.570   8.450   5.703 -0.6538 -0.5911  0.7173
   19MOL0     N 2480   8.492   8.324   5.042 -1.1004  0.4279 -0.6269
   19MOL0     N 2481   8.552   8.329   4.924  0.8443  0.5524 -0.5780
   19MOL0     C 2482   9.115   8.591   4.687  0.2083 -0.7416  0.3044
   19MOL0     C 2483   9.147   8.602   4.827 -0.6518 -0.4708 -0.5158
   19MOL0     C 2484   9.189   8.436   5.260 -0.3289  0.0770 -0.1253
   19MOL0     C 2485   9.326   8.464   5.277 -0.1944 -0.2876  0.0445
   19MOL0     C 2486   9.391   8.450   5.392  0.2587  0.0986 -0.3660
   19MOL0     C 2487   9.336   8.397   5.499  0.7265  0.8203  0.2998
   19MOL0     O 2488   9.420   8.388   5.608  0.5282 -0.5416 -0.2645
   19MOL0     C 2489   9.384   8.293   5.702  0.1249  0.6660  0.0861
   19MOL0     C 2490   9.492   8.279   5.815 -0.0406  0.5136  0.0814
   19MOL0     C 2491   9.640   8.264   5.762  0.2899 -0.2475  0.6534
   19MOL0     C 2492   9.736   8.199   5.857 -0.2132 -0.0362  0.3719
   19MOL0     C 2493   9.740   8.258   5.995 -0.3725 -0.1853  0.5017
   19MOL0     C 2494   9.775   8.276   6.111  0.6262 -0.3919  0.7405
   19MOL0     C 2495   9.196   8.363   5.492 -0.1015  0.1091 -0.2563
   19MOL0     C 2496   9.121   8.391   5.372  0.8042 -0.7104 -0.3710
   19MOL0     C 2497   8.972   8.361   5.385  0.5934 -0.6171 -0.6242
   19MOL0     H 2498   9.181   8.267   4.887 -0.6293 -0.1149  0.8051
   19MOL0     H 2499   9.089   8.255   4.671 -0.3868  0.2983 -0.6969
   19MOL0     H 2500   9.067   8.623   4.424 -2.1346  1.7843 -3.5638
   19MOL0     H 2501   9.139   8.508   4.326 -1.0051 -0.3217 -0.7801
   19MOL0     H 2502   8.932   8.412   4.262  0.2724 -0.7096  2.2069
   19MOL0     H 2503   8.938   8.579   4.228 -4.5442  0.0449 -0.9292
   19MOL0     H 2504   8.778   8.437   4.448 -0.4215 -0.2873 -0.5353
   19MOL0     H 2505   8.718   8.512   4.308  2.1738  1.0443 -2.4568
   19MOL0     H 2506   8.858   8.645   4.544  1.1791 -1.2487  0.2574
   19MOL0     H 2507   8.792   8.739   4.405  0.2420 -0.2167 -0.1012
   19MOL0     H 2508   8.660   8.746   4.608 -0.0819 -1.4079  1.5079
   19MOL0     H 2509   8.556   8.653   4.502 -2.5404 -0.8859  3.6909
   19MOL0     H 2510   8.541   8.544   4.704  0.7457 -0.1533  1.3766
   19MOL0     H 2511   8.659   8.442   4.625 -1.3582 -1.8559  2.7660
   19MOL0     H 2512   8.701   8.642   4.844  1.5845 -1.7048  2.8245
   19MOL0     H 2513   8.835   8.618   4.738  0.4893 -0.3870  0.2080
   19MOL0     H 2514   8.785   8.362   4.765  2.3010  2.4609 -2.3022
   19MOL0     H 2515   8.861   8.458   4.901 -1.8044  2.4598  1.4881
   19MOL0     H 2516   8.767   8.478   5.129 -0.3434  0.2553 -0.4174
   19MOL0     H 2517   8.625   8.384   5.352  1.4659 -0.3428 -1.9020
   19MOL0     H 2518   8.523   8.517   5.293 -4.6192 -1.1544 -2.6340
   19MOL0     H 2519   8.349   8.373   5.265  0.6295  1.2206 -1.0479
   19MOL0     H 2520   8.455   8.223   5.296 -1.3437 -0.2928 -1.3941
   19MOL0     H 2521   8.501   8.294   5.521 -0.1701 -1.7012  0.5507
   19MOL0     H 2522   8.349   8.227   5.506 -0.5400  0.9944 -0.7640
   19MOL0     H 2523   8.237   8.462   5.504 -0.5888 -0.1515  1.0081
   19MOL0     H 2524   8.404   8.528   5.505  1.1052  1.0580  3.8636
   19MOL0     H 2525   8.317   8.361   5.911 -1.1834 -1.1821 -0.1411
   19MOL0     H 2526   8.514   8.313   6.069 -0.2009 -1.9668 -0.2503
   19MOL0     H 2527   8.842   8.435   6.255 -3.0241 -2.7910  0.6882
   19MOL0     H 2528   9.031   8.438   6.424 -0.2690  2.6948 -2.8310
   19MOL0     H 2529   9.197   8.254   6.649 -2.0591  1.0599 -0.3042
   19MOL0     H 2530   9.029   8.223   6.624 -0.6619 -1.1451  2.8396
   19MOL0     H 2531   9.225   8.005   6.554 -2.5339 -2.5957 -0.8075
   19MOL0     H 2532   9.207   8.052   6.725  0.1840  0.5149 -0.4092
   19MOL0     H 2533   8.948   8.037   6.668  2.5997  2.0808  0.0842
   19MOL0     H 2534   9.000   7.931   6.533  1.7913  0.5078 -0.4371
   19MOL0     H 2535   9.069   7.898   6.840  1.2674 -0.4762  0.2275
   19MOL0     H 2536   9.116   7.792   6.714 -0.9319 -2.4419  4.3552
   19MOL0     H 2537   8.863   7.733   6.688 -2.6397 -0.9003  1.8030
   19MOL0     H 2538   8.818   7.861   6.793 -0.0904 -0.1368  1.8531
   19MOL0     H 2539   8.954   7.761   6.987 -1.8609 -2.8869  3.2037
   19MOL0     H 2540   8.802   7.681   6.937  0.7426 -0.0076  0.7620
   19MOL0     H 2541   8.948   7.508   6.981  0.2185  2.2447  2.1343
   19MOL0     H 2542   9.089   7.588   6.915  0.2218  1.2525 -0.1849
   19MOL0     H 2543   9.024   7.535   6.677 -3.8754 -0.5707 -2.7546
   19MOL0     H 2544   9.020   7.397   6.777  0.4202  0.6009  2.3250
   19MOL0     H 2545   9.089   8.020   6.341  1.6360  2.4354  5.0059
   19MOL0     H 2546   8.881   8.032   6.164  4.0327  0.1038 -4.3288
   19MOL0     H 2547   8.785   8.425   5.762 -0.3688 -1.5516 -0.2792
   19MOL0     H 2548   8.595   8.481   5.602  1.6235  0.3669  1.5016
   19MOL0     H 2549   9.116   8.683   4.630  0.2323 -0.2567  1.0685
   19MOL0     H 2550   9.155   8.701   4.871 -2.3243  0.4330 -2.1265
   19MOL0     H 2551   9.374   8.510   5.191 -1.2077  1.7786  0.5171
   19MOL0     H 2552   9.493   8.485   5.394  0.3582 -0.2268  0.6346
   19MOL0     H 2553   9.372   8.203   5.642  0.0122  1.4281 -1.0756
   19MOL0     H 2554   9.290   8.317   5.755  0.9205  1.0863  1.3710
   19MOL0     H 2555   9.467   8.195   5.880  2.6466 -0.2243  0.2479
   19MOL0     H 2556   9.497   8.373   5.871  1.0189  0.7744 -0.4228
   19MOL0     H 2557   9.681   8.363   5.742  0.3269 -0.9545 -3.6631
   19MOL0     H 2558   9.631   8.205   5.670 -0.4144  2.0219 -0.8230
   19MOL0     H 2559   9.701   8.098   5.880 -0.9916  0.1698  0.1150
   19MOL0     H 2560   9.836   8.197   5.812 -1.0063  1.1404 -1.5383
   19MOL0     H 2561   9.803   8.266   6.214 -2.8201  0.8260  1.9328
   19MOL0     H 2562   9.152   8.322   5.582  0.9088  2.2221  1.2712
   19MOL0     H 2563   8.924   8.459   5.394  0.2477 -0.8221 -0.2236
   19MOL0     H 2564   8.934   8.311   5.295  0.7190  0.3536 -1.2360
   19MOL0     H 2565   8.944   8.298   5.469  0.8217 -0.9374 -0.7865
   20MOL0     O 2566   5.036   3.391   4.564  0.2035 -0.1131  0.3505
   20MOL0     C 2567   5.076   3.330   4.664 -0.2345 -0.5852 -0.3394
   20MOL0     O 2568   5.208   3.307   4.697  0.2238 -0.1970 -0.1240
   20MOL0     C 2569   5.301   3.349   4.606 -0.6935  0.1169  0.4846
   20MOL0     C 2570   5.349   3.252   4.520  0.6691 -0.2615 -0.0924
   20MOL0     C 2571   5.456   3.272   4.432  0.5066  0.2332 -1.0779
   20MOL0     C 2572   5.513   3.397   4.429 -0.3548 -0.5115 -1.1316
   20MOL0     O 2573   5.630   3.413   4.353 -0.1924  0.2547  1.0207
   20MOL0     C 2574   5.648   3.541   4.280  1.0100  0.4546  0.4689
   20MOL0     C 2575   5.574   3.536   4.141  0.3624  1.1220  0.2340
   20MOL0     C 2576   5.627   3.639   4.040  0.6596  0.4416 -0.6138
   20MOL0     C 2577   5.724   3.566   3.941 -0.4811 -0.2701  0.3158
   20MOL0     C 2578   5.815   3.665   3.865 -0.2143  0.0381 -1.1742
   20MOL0     C 2579   5.960   3.692   3.924  0.2263 -0.0503  0.5790
   20MOL0     C 2580   6.024   3.816   3.858  0.1292 -0.1345 -0.0376
   20MOL0     C 2581   6.169   3.829   3.915 -0.3136 -0.4091  1.3406
   20MOL0     N 2582   6.229   3.957   3.857  0.3474  0.2897  0.1125
   20MOL0     C 2583   6.237   3.969   3.729  0.4345 -0.7388  0.2822
   20MOL0     C 2584   6.309   4.079   3.719 -0.9670 -0.4424  0.9074
   20MOL0     C 2585   6.360   4.155   3.595  0.1331  0.9718 -0.1028
   20MOL0     C 2586   6.249   4.167   3.496  0.2877 -0.8885  0.0596
   20MOL0     C 2587   6.304   4.240   3.363  0.5154  0.1879 -0.2569
   20MOL0     C 2588   6.427   4.174   3.301  0.2610 -0.0075  0.5306
   20MOL0     O 2589   6.548   4.234   3.342  0.5539 -0.0128 -0.3873
   20MOL0     C 2590   6.584   4.352   3.271 -0.5602  1.2153 -0.5061
   20MOL0     C 2591   6.708   4.409   3.313 -0.3522  0.5932 -0.1892
   20MOL0     C 2592   6.772   4.519   3.248 -0.0976  0.8275  0.0593
   20MOL0     C 2593   6.712   4.567   3.131 -0.0777  0.4466 -0.8547
   20MOL0     C 2594   6.786   4.660   3.046  1.2608 -0.1770  0.5631
   20MOL0     O 2595   6.748   4.661   2.917  0.0386 -0.3275 -0.6620
   20MOL0     C 2596   6.823   4.736   2.836  0.4931 -0.5169 -0.5427
   20MOL0     C 2597   6.968   4.744   2.831  0.0363  0.7849  1.0261
   20MOL0     C 2598   7.044   4.827   2.748  0.0520 -0.3379  0.3541
   20MOL0     C 2599   6.961   4.909   2.660  0.4003  0.0162  0.6801
   20MOL0     O 2600   7.038   4.987   2.578  0.5318  0.0865  0.4394
   20MOL0     C 2601   7.049   5.122   2.625 -0.2440  0.3644  0.1100
   20MOL0     C 2602   7.179   5.184   2.582 -0.1351  0.4662  0.1144
   20MOL0     C 2603   7.182   5.175   2.430  0.3722  0.1003 -0.3334
   20MOL0     C 2604   7.313   5.227   2.360  0.5467 -0.4303  0.4598
   20MOL0     C 2605   7.301   5.187   2.215  0.0239 -0.4534  0.2886
   20MOL0     C 2606   7.444   5.206   2.151 -0.6284 -0.4414  0.1991
   20MOL0     C 2607   7.442   5.147   2.011 -0.0101 -0.3036  0.8368
   20MOL0     C 2608   7.320   5.190   1.913 -0.1881 -0.1262  0.3593
   20MOL0    Cl 2609   7.334   5.364   1.858 -0.3860  0.0196 -0.1324
   20MOL0     C 2610   6.825   4.921   2.676  0.1314  1.0833  0.8698
   20MOL0     C 2611   6.759   4.839   2.761  0.1268  0.8977  0.2142
   20MOL0     O 2612   6.883   4.713   3.091 -0.2068 -0.2290 -0.1013
   20MOL0     C 2613   6.579   4.520   3.088 -0.2451 -0.2590 -0.1437
   20MOL0     C 2614   6.516   4.413   3.162  0.5170 -0.1020 -0.2679
   20MOL0     N 2615   6.339   4.138   3.841  0.4707  0.2462 -0.1430
   20MOL0     N 2616   6.277   4.062   3.924 -0.0219  0.0344  0.3349
   20MOL0     C 2617   5.458   3.504   4.505 -0.8506  0.1944 -0.7131
   20MOL0     C 2618   5.353   3.480   4.584  0.1965  0.7186 -0.3029
   20MOL0     C 2619   4.978   3.271   4.754  0.1509 -0.0587 -0.7837
   20MOL0     C 2620   5.008   3.159   4.825 -0.6284 -0.0097 -0.7181
   20MOL0     C 2621   4.917   3.084   4.902  0.3804 -0.4388 -0.3623
   20MOL0     C 2622   4.793   3.135   4.930 -0.1271  0.8931  0.3559
   20MOL0     O 2623   4.710   3.065   5.002  1.2118  0.7069  0.0962
   20MOL0     C 2624   4.591   3.023   4.934  0.0442  1.0505 -0.5148
   20MOL0     C 2625   4.600   2.867   4.933  0.0523 -0.6302 -0.1936
   20MOL0     C 2626   4.590   2.811   5.075  0.0495  0.7235 -0.2608
   20MOL0     C 2627   4.569   2.666   5.062  0.3032 -0.4251  0.1463
   20MOL0     C 2628   4.569   2.602   5.192  0.7788  0.2758 -0.3134
   20MOL0     C 2629   4.588   2.537   5.288  0.0237 -0.4895  0.0075
   20MOL0     C 2630   4.766   3.267   4.878 -0.6137 -0.9448 -0.5999
   20MOL0     C 2631   4.855   3.332   4.790 -0.2180  0.2622  0.5118
   20MOL0     C 2632   4.812   3.478   4.754 -0.9024 -0.4339  0.7718
   20MOL0     H 2633   5.313   3.151   4.537  0.9369 -0.3938 -0.3056
   20MOL0     H 2634   5.490   3.191   4.368  1.2004 -1.3080  1.1174
   20MOL0     H 2635   5.608   3.627   4.334 -3.7971 -2.9272  3.0448
   20MOL0     H 2636   5.756   3.549   4.262  0.9804  1.1033  0.5796
   20MOL0     H 2637   5.465   3.535   4.146  0.0133 -2.6491 -2.8479
   20MOL0     H 2638   5.596   3.440   4.092  3.0987  1.1262  1.3133
   20MOL0     H 2639   5.679   3.711   4.104  0.1363 -1.3225  1.9238
   20MOL0     H 2640   5.547   3.684   3.979  0.8616 -2.8674 -3.6375
   20MOL0     H 2641   5.792   3.489   3.980 -0.3195 -0.5038 -0.4118
   20MOL0     H 2642   5.666   3.520   3.860 -0.0130 -2.6501  1.2349
   20MOL0     H 2643   5.832   3.614   3.770  1.2660 -3.7100  0.8919
   20MOL0     H 2644   5.766   3.759   3.838  1.4240  1.2157 -0.2352
   20MOL0     H 2645   5.946   3.714   4.030  1.7075  3.1274  0.2299
   20MOL0     H 2646   6.026   3.605   3.917 -0.2680 -0.4595  0.8946
   20MOL0     H 2647   5.958   3.898   3.890 -1.9165 -1.4056 -0.7729
   20MOL0     H 2648   6.025   3.791   3.752  1.0229 -0.5181  0.0627
   20MOL0     H 2649   6.172   3.851   4.022 -1.6321 -0.9664  1.5013
   20MOL0     H 2650   6.228   3.738   3.903 -0.1896 -0.2630  0.8131
   20MOL0     H 2651   6.210   3.900   3.650 -0.0855 -0.9639  0.6492
   20MOL0     H 2652   6.406   4.249   3.627 -1.0783  1.1164  1.3600
   20MOL0     H 2653   6.437   4.091   3.550 -1.0739 -1.9860  1.6903
   20MOL0     H 2654   6.219   4.068   3.459 -0.8004 -0.2194 -0.9272
   20MOL0     H 2655   6.162   4.216   3.540  0.8235 -1.0970  1.3777
   20MOL0     H 2656   6.330   4.345   3.380  0.5391 -0.2673  3.4108
   20MOL0     H 2657   6.217   4.238   3.296 -0.0632  0.8748  0.4429
   20MOL0     H 2658   6.410   4.178   3.193  0.6915  0.2015  0.4706
   20MOL0     H 2659   6.433   4.067   3.321 -0.1076 -0.4606 -1.6145
   20MOL0     H 2660   6.765   4.361   3.392  0.5475 -0.3523 -1.3769
   20MOL0     H 2661   6.869   4.551   3.282 -0.4693  2.4437 -0.3145
   20MOL0     H 2662   7.015   4.673   2.898 -2.5843 -1.0750  1.0450
   20MOL0     H 2663   7.152   4.836   2.747  0.0976 -0.6539 -1.1590
   20MOL0     H 2664   6.964   5.183   2.593 -1.1163 -1.4412 -1.2241
   20MOL0     H 2665   7.048   5.127   2.734  0.0958  1.9178  0.0657
   20MOL0     H 2666   7.185   5.290   2.611 -1.5156  0.5064  0.3273
   20MOL0     H 2667   7.265   5.129   2.621  2.0378  2.4179 -1.6842
   20MOL0     H 2668   7.179   5.069   2.403 -1.4184  0.4468 -1.6764
   20MOL0     H 2669   7.099   5.230   2.384 -0.1493 -0.5534 -0.1771
   20MOL0     H 2670   7.405   5.190   2.404  0.6114  0.0358  0.7221
   20MOL0     H 2671   7.309   5.337   2.358 -0.0064 -0.4134  1.6435
   20MOL0     H 2672   7.235   5.252   2.158  0.2912  0.6190  1.1770
   20MOL0     H 2673   7.261   5.085   2.209  0.8857 -0.7802 -0.1566
   20MOL0     H 2674   7.480   5.309   2.154 -0.0147 -0.3607 -3.9625
   20MOL0     H 2675   7.515   5.144   2.206 -2.3237 -0.6698  2.2511
   20MOL0     H 2676   7.437   5.038   2.017 -2.8655 -0.2648  0.7617
   20MOL0     H 2677   7.537   5.182   1.969 -0.1124  0.1475  0.9673
   20MOL0     H 2678   7.319   5.120   1.829 -0.3308 -0.1998  0.4234
   20MOL0     H 2679   7.221   5.172   1.954 -1.3237  2.4413 -1.0238
   20MOL0     H 2680   6.762   4.991   2.622 -1.0488  1.9214  3.1935
   20MOL0     H 2681   6.652   4.851   2.777 -0.0965  3.6686 -2.3194
   20MOL0     H 2682   6.547   4.565   2.995 -1.5428  2.2855  1.3877
   20MOL0     H 2683   6.416   4.381   3.136  0.0202 -1.4010  2.7862
   20MOL0     H 2684   5.487   3.609   4.512 -5.2083  1.5509  1.0469
   20MOL0     H 2685   5.313   3.550   4.657  1.7070  3.4486 -1.8989
   20MOL0     H 2686   5.092   3.099   4.792  0.0693 -1.4405  3.0643
   20MOL0     H 2687   4.922   2.981   4.937 -1.5347 -0.9021 -1.3478
   20MOL0     H 2688   4.590   3.054   4.829 -1.6471 -0.1205 -0.9026
   20MOL0     H 2689   4.493   3.047   4.976 -0.7337 -0.8459 -1.1148
   20MOL0     H 2690   4.693   2.834   4.884 -0.3025 -3.5320  0.8902
   20MOL0     H 2691   4.516   2.828   4.875 -1.1321 -1.6102  2.0879
   20MOL0     H 2692   4.495   2.845   5.118 -1.3459 -1.1940 -1.6555
   20MOL0     H 2693   4.680   2.834   5.132  0.7253 -1.0894 -0.5568
   20MOL0     H 2694   4.475   2.646   5.010 -0.1725  0.9820  0.4295
   20MOL0     H 2695   4.642   2.610   5.004  1.8557 -1.0317  2.5416
   20MOL0     H 2696   4.574   2.474   5.372 -0.7802 -0.8653 -0.4002
   20MOL0     H 2697   4.674   3.323   4.889  0.4018  0.8111 -0.4479
   20MOL0     H 2698   4.756   3.462   4.662 -1.7873  2.5698  0.6713
   20MOL0     H 2699   4.746   3.533   4.823 -0.4947  2.4155 -0.9596
   20MOL0     H 2700   4.900   3.540   4.735 -0.6067 -1.2285 -0.5320
   21MOL0     O 2701   1.539  10.721   1.595 -0.0216  0.4255 -0.2619
   21MOL0     C 2702   1.527  10.616   1.658  0.5261  0.4857  0.0525
   21MOL0     O 2703   1.467  10.498   1.610  0.4650 -0.7060 -0.0808
   21MOL0     C 2704   1.424  10.498   1.482  0.0624 -0.5925  0.7700
   21MOL0     C 2705   1.509  10.534   1.369 -0.0314  0.6051  0.5708
   21MOL0     C 2706   1.453  10.528   1.233 -0.0932  0.3486 -0.1355
   21MOL0     C 2707   1.311  10.484   1.215 -0.2895  0.0450 -0.1206
   21MOL0     O 2708   1.255  10.468   1.086  0.5778  0.7262  0.6576
   21MOL0     C 2709   1.336  10.501   0.964  0.3447  0.9570 -0.4222
   21MOL0     C 2710   1.322  10.653   0.922  0.8150  0.1089 -0.6893
   21MOL0     C 2711   1.411  10.700   0.809  0.7981 -1.0839  0.2236
   21MOL0     C 2712   1.430  10.615   0.686 -0.4935  0.5089 -1.4961
   21MOL0     C 2713   1.543  10.685   0.601  0.1082  0.2699  0.3418
   21MOL0     C 2714   1.481  10.706   0.466  0.0362  0.4141 -0.1644
   21MOL0     C 2715   1.579  10.770   0.369  0.2310 -0.6278 -0.6259
   21MOL0     C 2716   1.524  10.775   0.224 -0.1671  0.1395  0.4497
   21MOL0     N 2717   1.545  10.650   0.161  0.1454 -0.2062  0.0175
   21MOL0     C 2718   1.664  10.619   0.112 -0.5726  0.2514 -0.1819
   21MOL0     C 2719   1.645  10.491   0.080 -0.0654  0.4725  1.2769
   21MOL0     C 2720   1.751  10.396   0.034 -0.7872  0.3684  1.4471
   21MOL0     C 2721   1.815  10.340   0.161 -0.4906 -0.4582  0.7285
   21MOL0     C 2722   1.895  10.218   0.151 -0.3742 -0.0584  0.1071
   21MOL0     C 2723   2.038  10.225   0.102  0.1508  0.5290 -0.3694
   21MOL0     O 2724   2.059  10.273  -0.029  0.3066 -0.2346 -0.6603
   21MOL0     C 2725   2.091  10.403  -0.050  0.8015  0.2127  0.6818
   21MOL0     C 2726   2.082  10.442  -0.191  0.1144  0.5568  0.1207
   21MOL0     C 2727   2.110  10.576  -0.232 -0.4330  0.5061  0.4911
   21MOL0     C 2728   2.154  10.664  -0.135 -0.8116 -0.3718 -0.9447
   21MOL0     C 2729   2.200  10.807  -0.175  0.7374 -0.0257 -0.2800
   21MOL0     O 2730   2.272  10.877  -0.085 -0.2555 -0.1258 -1.0556
   21MOL0     C 2731   2.309  11.000  -0.123  0.1059  0.0278  0.3266
   21MOL0     C 2732   2.237  11.101  -0.048  0.2835  1.2370  0.2760
   21MOL0     C 2733   2.245  11.236  -0.083 -0.3283 -0.6527 -0.3562
   21MOL0     C 2734   2.349  11.277  -0.168  0.4951  0.9006  0.2925
   21MOL0     O 2735   2.363  11.411  -0.182  0.3166  0.1760  0.5196
   21MOL0     C 2736   2.450  11.472  -0.280  0.9949 -0.3441 -0.9839
   21MOL0     C 2737   2.453  11.624  -0.246  2.1323 -0.0463  0.1476
   21MOL0     C 2738   2.480  11.655  -0.106 -0.0712 -0.3196 -0.2709
   21MOL0     C 2739   2.453  11.811  -0.094  0.1282  0.0476 -0.5230
   21MOL0     C 2740   2.506  11.864   0.045  0.6147  0.1888  0.4080
   21MOL0     C 2741   2.447  11.789   0.165  0.0798  0.1968 -0.7181
   21MOL0     C 2742   2.446  11.888   0.297 -0.1492 -0.0734 -0.2071
   21MOL0     C 2743   2.368  11.838   0.417 -0.1455  0.0507  0.1249
   21MOL0    Cl 2744   2.426  11.686   0.485  0.1873 -0.3667  0.0368
   21MOL0     C 2745   2.433  11.182  -0.230 -0.0161  0.4233 -0.0935
   21MOL0     C 2746   2.415  11.047  -0.210  0.8335  0.8465  0.9685
   21MOL0     O 2747   2.172  10.845  -0.289 -0.0854  0.2685  0.0803
   21MOL0     C 2748   2.152  10.632   0.002  0.3484 -0.9924  0.1875
   21MOL0     C 2749   2.122  10.505   0.040  1.4739  0.3859 -0.9378
   21MOL0     N 2750   1.510  10.445   0.102  0.3532  0.1833  0.3098
   21MOL0     N 2751   1.460  10.544   0.157  0.9666 -0.7367  0.2338
   21MOL0     C 2752   1.238  10.445   1.324  0.2779  0.3823 -0.4697
   21MOL0     C 2753   1.300  10.453   1.451  0.5511 -0.2882 -0.8877
   21MOL0     C 2754   1.564  10.601   1.807  1.5437 -1.3109 -0.0870
   21MOL0     C 2755   1.542  10.482   1.878  0.5037 -0.2447 -0.1945
   21MOL0     C 2756   1.585  10.468   2.013 -0.2857  0.2198  0.6414
   21MOL0     C 2757   1.635  10.571   2.081  0.0319 -0.4968 -0.4249
   21MOL0     O 2758   1.678  10.543   2.210  0.6145 -0.3793 -0.8106
   21MOL0     C 2759   1.752  10.643   2.288  0.5967 -0.5438  0.9077
   21MOL0     C 2760   1.765  10.589   2.430 -0.4906 -0.1933 -0.3156
   21MOL0     C 2761   1.881  10.654   2.499  0.2705 -0.5750  0.5182
   21MOL0     C 2762   1.844  10.792   2.561  0.0474  0.0239  0.4002
   21MOL0     C 2763   1.945  10.843   2.653 -0.0976 -0.1837  0.1919
   21MOL0     C 2764   2.016  10.886   2.741  1.3304  0.1368  0.0192
   21MOL0     C 2765   1.649  10.699   2.022 -0.0557 -0.4463  1.1714
   21MOL0     C 2766   1.618  10.717   1.885  0.2674  0.1933 -0.2705
   21MOL0     C 2767   1.645  10.847   1.811  0.4927 -0.0611 -0.2360
   21MOL0     H 2768   1.610  10.574   1.378  1.3716 -1.9356 -2.0932
   21MOL0     H 2769   1.501  10.566   1.144  0.2235  0.2329 -0.0150
   21MOL0     H 2770   1.439  10.472   0.986  0.4549  2.9240  2.1895
   21MOL0     H 2771   1.304  10.438   0.881  1.6452  1.5839 -1.4488
   21MOL0     H 2772   1.343  10.714   1.010 -3.3504  1.0557 -0.1285
   21MOL0     H 2773   1.214  10.669   0.912  0.2597 -1.1478  2.2179
   21MOL0     H 2774   1.505  10.699   0.865 -0.2912  2.1063  2.4135
   21MOL0     H 2775   1.384  10.805   0.793 -0.2114 -0.5505  4.1799
   21MOL0     H 2776   1.461  10.513   0.712 -1.9226  0.6102  0.9771
   21MOL0     H 2777   1.331  10.610   0.638 -0.6218 -0.2650 -1.1722
   21MOL0     H 2778   1.573  10.779   0.648  1.2955 -0.4162  1.0224
   21MOL0     H 2779   1.627  10.614   0.599 -2.0540 -2.4439 -1.0972
   21MOL0     H 2780   1.447  10.608   0.431  0.8594  0.4160 -1.0057
   21MOL0     H 2781   1.405  10.782   0.483 -0.4830  0.1491 -1.1670
   21MOL0     H 2782   1.670  10.710   0.370 -0.6635 -2.0695  1.4622
   21MOL0     H 2783   1.613  10.863   0.413 -2.4284  1.5679 -2.8321
   21MOL0     H 2784   1.419  10.804   0.238 -0.5930 -1.4639  0.6863
   21MOL0     H 2785   1.583  10.853   0.176  1.9180 -1.8706 -0.4155
   21MOL0     H 2786   1.755  10.677   0.102  0.0130  0.1139  3.0074
   21MOL0     H 2787   1.714  10.313  -0.027 -2.4194  0.4410  2.2800
   21MOL0     H 2788   1.832  10.443  -0.022 -1.1046 -0.7462  0.0013
   21MOL0     H 2789   1.885  10.417   0.196  0.8590  0.0540 -2.7204
   21MOL0     H 2790   1.732  10.329   0.231 -1.2061  3.7295  0.8296
   21MOL0     H 2791   1.846  10.147   0.084 -1.4844 -0.0216  0.8502
   21MOL0     H 2792   1.912  10.172   0.249  1.5734  3.0021  1.3718
   21MOL0     H 2793   2.079  10.124   0.107  0.2928  0.5471 -1.0231
   21MOL0     H 2794   2.092  10.286   0.175  1.3987 -2.2370  1.1695
   21MOL0     H 2795   2.053  10.372  -0.269 -0.4570  0.6513  0.2456
   21MOL0     H 2796   2.114  10.615  -0.333  1.0406 -1.0133 -0.0763
   21MOL0     H 2797   2.158  11.065   0.017 -1.1633  2.5020 -0.7194
   21MOL0     H 2798   2.191  11.310  -0.025  0.2858  0.5293 -1.2501
   21MOL0     H 2799   2.550  11.432  -0.263  0.4472 -1.0218  0.8131
   21MOL0     H 2800   2.409  11.456  -0.380 -1.4726 -2.7675  0.2711
   21MOL0     H 2801   2.520  11.680  -0.311  2.3999 -1.8142 -1.1702
   21MOL0     H 2802   2.356  11.665  -0.274  2.8402  2.5502  1.2162
   21MOL0     H 2803   2.415  11.588  -0.049  1.2318 -2.6362 -1.3839
   21MOL0     H 2804   2.583  11.635  -0.074 -0.1521  0.3808  0.4529
   21MOL0     H 2805   2.349  11.843  -0.102 -0.2450 -1.1765 -0.7815
   21MOL0     H 2806   2.512  11.862  -0.170 -1.0277  0.2309 -1.3178
   21MOL0     H 2807   2.487  11.971   0.056  2.1123  0.9136 -2.8062
   21MOL0     H 2808   2.615  11.864   0.044  0.6249 -0.3541  1.1061
   21MOL0     H 2809   2.343  11.756   0.151 -0.1858 -0.9066  2.9163
   21MOL0     H 2810   2.511  11.705   0.192  2.0046  2.0981  0.9901
   21MOL0     H 2811   2.394  11.978   0.262 -1.1096  0.6887  2.8759
   21MOL0     H 2812   2.549  11.915   0.323 -0.7581  2.6283 -0.2908
   21MOL0     H 2813   2.363  11.918   0.491 -1.4590  0.7338 -0.6612
   21MOL0     H 2814   2.266  11.824   0.380 -0.6562 -0.1008  1.5277
   21MOL0     H 2815   2.509  11.212  -0.300  0.2540  3.0896  1.2112
   21MOL0     H 2816   2.479  10.980  -0.265 -0.0771  0.1934  0.6890
   21MOL0     H 2817   2.180  10.700   0.082  0.6072  1.2724 -1.7479
   21MOL0     H 2818   2.115  10.488   0.148  1.0923  0.5498 -0.9373
   21MOL0     H 2819   1.138  10.414   1.295 -1.3824  4.5286  0.0626
   21MOL0     H 2820   1.244  10.431   1.542  1.0914  2.8758  0.3521
   21MOL0     H 2821   1.513  10.390   1.827 -4.9260  0.5515  0.7980
   21MOL0     H 2822   1.584  10.378   2.073  2.9996  0.5202  1.3903
   21MOL0     H 2823   1.702  10.741   2.285  1.5815 -0.0375  0.7351
   21MOL0     H 2824   1.851  10.657   2.243  1.4685 -2.2468  2.2135
   21MOL0     H 2825   1.787  10.482   2.431 -4.2385 -1.1038 -1.8219
   21MOL0     H 2826   1.678  10.595   2.495 -0.8026 -0.3844 -0.7156
   21MOL0     H 2827   1.969  10.664   2.436  1.1295  0.3495  1.7941
   21MOL0     H 2828   1.921  10.601   2.586 -0.3627  1.0631  1.8716
   21MOL0     H 2829   1.836  10.856   2.473  1.7488  1.2337  1.0704
   21MOL0     H 2830   1.745  10.801   2.605  1.0701  0.0137  2.8542
   21MOL0     H 2831   2.083  10.916   2.819  1.1062  0.5119  0.0738
   21MOL0     H 2832   1.693  10.779   2.081 -0.3355 -1.7947  3.3129
   21MOL0     H 2833   1.546  10.890   1.796 -0.6108 -3.4020 -4.6906
   21MOL0     H 2834   1.706  10.910   1.877  0.7894 -1.7454  1.1661
   21MOL0     H 2835   1.702  10.847   1.718  1.3383  1.1576  0.2565
   22MOL0     O 2836   0.863   9.392   4.497  0.2402  0.1668 -0.1456
   22MOL0     C 2837   0.747   9.413   4.524 -0.7991 -0.3867  0.4318
   22MOL0     O 2838   0.646   9.334   4.487 -0.7578 -0.0220 -0.6235
   22MOL0     C 2839   0.659   9.229   4.398 -0.0470 -0.2892  1.0906
   22MOL0     C 2840   0.731   9.228   4.272 -0.3149  0.6125 -0.0114
   22MOL0     C 2841   0.715   9.116   4.189  0.4289  1.0236 -0.5566
   22MOL0     C 2842   0.621   9.014   4.219 -0.0907 -0.2808 -0.5277
   22MOL0     O 2843   0.621   8.906   4.128  0.9625 -0.0400  0.3938
   22MOL0     C 2844   0.553   8.780   4.164 -0.4339  0.7231  0.3147
   22MOL0     C 2845   0.629   8.649   4.119 -0.3559 -0.2998 -0.0332
   22MOL0     C 2846   0.789   8.655   4.131 -0.0766  0.8332 -0.6852
   22MOL0     C 2847   0.833   8.642   4.274  0.4243  0.2075 -0.1066
   22MOL0     C 2848   0.992   8.642   4.278 -0.2645  0.3107 -0.2937
   22MOL0     C 2849   1.024   8.589   4.418  0.3671 -0.2620  0.1107
   22MOL0     C 2850   1.173   8.569   4.443 -0.9309 -0.0305  0.3974
   22MOL0     C 2851   1.196   8.473   4.559 -0.3207  0.3058  0.3531
   22MOL0     N 2852   1.345   8.465   4.565 -0.1915 -0.6346  1.2381
   22MOL0     C 2853   1.425   8.394   4.476  0.0269  0.2842 -0.1326
   22MOL0     C 2854   1.547   8.424   4.514 -0.1706  0.5948  0.1066
   22MOL0     C 2855   1.679   8.372   4.454  0.3408  0.9491  0.3459
   22MOL0     C 2856   1.678   8.281   4.327 -0.4256  0.6758 -0.3738
   22MOL0     C 2857   1.826   8.275   4.284  0.2521  0.7526  0.7284
   22MOL0     C 2858   1.850   8.189   4.153 -0.3282 -0.6652 -0.0628
   22MOL0     O 2859   1.994   8.174   4.133  0.3917 -0.2732 -0.3454
   22MOL0     C 2860   2.040   8.078   4.050 -1.5227 -0.2311  1.1899
   22MOL0     C 2861   2.184   8.062   4.019  0.3271  0.6746 -0.9699
   22MOL0     C 2862   2.226   7.970   3.918 -0.3044 -0.8025 -0.4354
   22MOL0     C 2863   2.141   7.911   3.830  0.9674  0.5104  0.5204
   22MOL0     C 2864   2.187   7.846   3.705 -0.6391 -0.4116 -0.0956
   22MOL0     O 2865   2.107   7.760   3.632 -0.6659 -0.8339  0.3434
   22MOL0     C 2866   2.158   7.725   3.514  0.3081 -0.5039 -0.0637
   22MOL0     C 2867   2.263   7.639   3.490 -0.2083  0.4731 -0.5324
   22MOL0     C 2868   2.300   7.607   3.356 -0.7116  0.4972  1.1423
   22MOL0     C 2869   2.227   7.664   3.254 -0.4482 -0.9411  0.3158
   22MOL0     O 2870   2.250   7.636   3.121  0.1212  0.1193 -0.4456
   22MOL0     C 2871   2.385   7.621   3.078 -0.4440  0.0173 -1.2637
   22MOL0     C 2872   2.400   7.675   2.943 -0.0611  0.5867 -0.1641
   22MOL0     C 2873   2.393   7.831   2.930  0.1264  0.7712  0.4406
   22MOL0     C 2874   2.404   7.875   2.783 -1.5920 -0.2332 -0.8351
   22MOL0     C 2875   2.376   8.023   2.770  0.1906  0.1861 -0.2986
   22MOL0     C 2876   2.354   8.065   2.626  0.5687 -0.6488  0.4306
   22MOL0     C 2877   2.229   8.152   2.612 -0.5506 -0.2439  1.0338
   22MOL0     C 2878   2.188   8.180   2.469 -0.3065 -0.0668  0.3053
   22MOL0    Cl 2879   2.279   8.315   2.398 -0.3856 -0.3393  0.1278
   22MOL0     C 2880   2.116   7.744   3.277 -0.6924  0.0259 -0.2727
   22MOL0     C 2881   2.066   7.763   3.407 -0.4713 -0.3187 -1.0679
   22MOL0     O 2882   2.307   7.866   3.686 -0.1354 -0.8811  0.0118
   22MOL0     C 2883   2.000   7.925   3.856 -0.0508  0.1405  0.4106
   22MOL0     C 2884   1.956   7.999   3.965  0.1692  0.2943 -0.0636
   22MOL0     N 2885   1.542   8.510   4.622 -0.8437  0.0234 -0.3648
   22MOL0     N 2886   1.417   8.538   4.641  0.9804 -0.8075 -0.9213
   22MOL0     C 2887   0.555   9.024   4.345 -0.6596 -0.6651  0.2802
   22MOL0     C 2888   0.572   9.127   4.439 -0.4615  0.8907 -0.4091
   22MOL0     C 2889   0.725   9.542   4.591  0.6371  0.1564  1.1836
   22MOL0     C 2890   0.598   9.602   4.585  0.0251 -0.0831 -0.4005
   22MOL0     C 2891   0.571   9.713   4.666  0.7107 -0.0904 -0.1863
   22MOL0     C 2892   0.665   9.767   4.757 -0.0066 -0.4698 -1.3030
   22MOL0     O 2893   0.657   9.878   4.842  0.0842  0.6280 -0.2101
   22MOL0     C 2894   0.534   9.946   4.869  0.2867 -0.0655 -0.4322
   22MOL0     C 2895   0.522  10.074   4.781 -0.7404  0.6010 -0.2707
   22MOL0     C 2896   0.387  10.141   4.795  0.1023 -0.5337  0.1539
   22MOL0     C 2897   0.253  10.068   4.824 -0.4390 -0.1671 -0.1337
   22MOL0     C 2898   0.203   9.973   4.721  0.4527  0.5617 -0.3504
   22MOL0     C 2899   0.157   9.907   4.632  0.6107 -0.3222 -0.1164
   22MOL0     C 2900   0.795   9.718   4.749 -0.2537  0.6265  0.6518
   22MOL0     C 2901   0.829   9.610   4.662  0.1191  0.8727 -0.6962
   22MOL0     C 2902   0.967   9.543   4.681 -0.2943 -0.4144  0.6569
   22MOL0     H 2903   0.781   9.316   4.234  0.3019  0.2787  0.0166
   22MOL0     H 2904   0.771   9.110   4.096 -0.9526 -2.1290 -1.3109
   22MOL0     H 2905   0.540   8.775   4.272  0.2445  2.4841  0.5077
   22MOL0     H 2906   0.454   8.777   4.118 -1.4270  0.4027  2.3571
   22MOL0     H 2907   0.608   8.616   4.017 -1.1447 -1.5922  0.5259
   22MOL0     H 2908   0.592   8.569   4.183  3.6731 -2.3497  0.0407
   22MOL0     H 2909   0.826   8.750   4.093  2.9551  0.2570  0.5993
   22MOL0     H 2910   0.833   8.580   4.065 -0.9062  1.4657 -2.0129
   22MOL0     H 2911   0.796   8.734   4.321  2.4347  3.3984 -4.1190
   22MOL0     H 2912   0.783   8.552   4.311 -0.5346 -1.8192 -5.4335
   22MOL0     H 2913   1.027   8.572   4.202 -3.0228 -1.9449  0.3552
   22MOL0     H 2914   1.027   8.743   4.255 -0.3429  0.7797  1.5166
   22MOL0     H 2915   0.982   8.658   4.492 -0.0008  0.2291 -0.5485
   22MOL0     H 2916   0.964   8.497   4.428 -0.7418  0.4762  0.4316
   22MOL0     H 2917   1.217   8.667   4.463  0.0172 -0.0678 -1.3574
   22MOL0     H 2918   1.223   8.524   4.357  1.6098 -0.8829  2.2116
   22MOL0     H 2919   1.150   8.520   4.647 -1.9471  0.6196 -0.6075
   22MOL0     H 2920   1.149   8.378   4.533 -1.1186  0.7825  0.0078
   22MOL0     H 2921   1.395   8.345   4.385  2.8324 -0.5608 -0.7173
   22MOL0     H 2922   1.741   8.457   4.426 -0.7116  1.9335  0.9344
   22MOL0     H 2923   1.713   8.306   4.534  0.0959 -3.3276 -2.6912
   22MOL0     H 2924   1.654   8.176   4.348 -1.3002  0.5455 -1.8708
   22MOL0     H 2925   1.609   8.311   4.248 -3.9315 -1.9636  1.3869
   22MOL0     H 2926   1.897   8.237   4.357  4.6521  0.0244 -3.4201
   22MOL0     H 2927   1.862   8.374   4.252  4.0354  0.4569  3.4444
   22MOL0     H 2928   1.816   8.242   4.063 -2.7301 -3.3227 -0.8947
   22MOL0     H 2929   1.795   8.095   4.155  0.9805 -1.4939 -1.2462
   22MOL0     H 2930   2.258   8.101   4.088  1.7557 -4.2472  0.7496
   22MOL0     H 2931   2.333   7.968   3.898  0.4038 -0.2050  2.6592
   22MOL0     H 2932   2.325   7.615   3.576  0.4148  3.2354 -0.1104
   22MOL0     H 2933   2.386   7.547   3.329 -0.4053  1.7303 -0.7681
   22MOL0     H 2934   2.444   7.688   3.140 -6.0025  2.4346  2.1759
   22MOL0     H 2935   2.410   7.515   3.087  1.5095  0.6626  3.2218
   22MOL0     H 2936   2.492   7.628   2.907 -0.3733  0.6246 -1.0255
   22MOL0     H 2937   2.331   7.626   2.873  1.7604 -2.0645 -0.2763
   22MOL0     H 2938   2.296   7.863   2.969 -0.8655  2.0578 -2.7363
   22MOL0     H 2939   2.484   7.864   2.982  2.0592 -0.7617 -1.7366
   22MOL0     H 2940   2.325   7.819   2.731  0.6707 -1.5150 -3.0906
   22MOL0     H 2941   2.497   7.837   2.742 -0.2978  3.1054 -1.3101
   22MOL0     H 2942   2.454   8.084   2.816  0.7184 -0.3645 -0.4446
   22MOL0     H 2943   2.283   8.035   2.826  0.4325 -5.1665  1.8832
   22MOL0     H 2944   2.436   8.126   2.586 -0.7807  2.7425  2.4248
   22MOL0     H 2945   2.347   7.976   2.563  1.7412  0.7991 -1.8657
   22MOL0     H 2946   2.251   8.248   2.658  3.3647 -0.4256 -0.1065
   22MOL0     H 2947   2.150   8.096   2.662  1.1201 -0.6780  3.3663
   22MOL0     H 2948   2.188   8.091   2.405 -2.2464  0.0635  0.0440
   22MOL0     H 2949   2.082   8.209   2.472 -0.8831 -2.0140  3.3132
   22MOL0     H 2950   2.062   7.779   3.190  0.4525 -1.7398 -1.7859
   22MOL0     H 2951   1.967   7.797   3.434 -1.1235 -1.7708 -1.4988
   22MOL0     H 2952   1.920   7.878   3.799  0.1109 -0.3233  0.5590
   22MOL0     H 2953   1.849   8.010   3.982  0.2211 -0.7791  1.1222
   22MOL0     H 2954   0.487   8.946   4.378 -1.5912 -0.3537 -0.8495
   22MOL0     H 2955   0.522   9.134   4.534  0.1754 -0.9983  0.1104
   22MOL0     H 2956   0.518   9.565   4.523  2.6223 -2.0139 -2.8474
   22MOL0     H 2957   0.468   9.747   4.667  1.5221  2.5600 -0.6417
   22MOL0     H 2958   0.542   9.974   4.974  2.4261  0.9354 -0.8259
   22MOL0     H 2959   0.446   9.881   4.873 -0.9593  1.4651 -1.6221
   22MOL0     H 2960   0.538  10.037   4.679  0.3807 -0.9159  0.4169
   22MOL0     H 2961   0.605  10.142   4.802 -0.9535  0.8644 -0.2800
   22MOL0     H 2962   0.369  10.191   4.700 -2.5237  1.4312  1.5568
   22MOL0     H 2963   0.395  10.224   4.866 -2.5238  0.8273 -1.0131
   22MOL0     H 2964   0.247  10.015   4.920 -3.2440  0.9119  0.3932
   22MOL0     H 2965   0.177  10.147   4.823  1.8396  2.2461 -3.6675
   22MOL0     H 2966   0.131   9.849   4.546  3.1647 -1.4353 -0.2357
   22MOL0     H 2967   0.875   9.762   4.807  1.4686  0.0531 -1.1752
   22MOL0     H 2968   1.037   9.546   4.597 -1.0408  0.1317  0.0410
   22MOL0     H 2969   1.012   9.576   4.775 -0.4870  1.1746  0.2097
   22MOL0     H 2970   0.950   9.438   4.706  1.8330 -1.8856 -3.2406
   23MOL0     O 2971   4.628  10.418   5.258 -0.2923 -0.4124 -0.7538
   23MOL0     C 2972   4.673  10.341   5.346  0.2532 -0.1743  0.1956
   23MOL0     O 2973   4.752  10.384   5.446  0.0487  0.6060 -1.0585
   23MOL0     C 2974   4.842  10.489   5.421  0.0953  0.7949 -0.1949
   23MOL0     C 2975   4.822  10.607   5.497  0.5845 -0.6706 -0.1639
   23MOL0     C 2976   4.903  10.711   5.462 -0.5903 -0.5579  0.1408
   23MOL0     C 2977   5.000  10.713   5.360 -0.7107 -0.0422 -0.1059
   23MOL0     O 2978   5.073  10.827   5.342 -0.5644 -0.2386  0.1957
   23MOL0     C 2979   5.149  10.866   5.217  0.2291 -0.0536 -0.9779
   23MOL0     C 2980   5.287  10.804   5.196 -0.2325 -0.0825 -0.5223
   23MOL0     C 2981   5.388  10.854   5.291  0.7091  0.5655 -0.3810
   23MOL0     C 2982   5.435  10.999   5.270  0.3187  0.0790  0.7382
   23MOL0     C 2983   5.562  11.044   5.340  0.0540 -0.8476  1.1707
   23MOL0     C 2984   5.536  11.056   5.492  0.6739 -0.3599  0.1032
   23MOL0     C 2985   5.443  11.179   5.542 -0.2126  0.5987 -0.7056
   23MOL0     C 2986   5.421  11.180   5.697 -0.1721 -0.2573 -0.3273
   23MOL0     N 2987   5.351  11.059   5.754  0.7982 -0.7296  0.1003
   23MOL0     C 2988   5.221  11.037   5.719 -0.3598 -0.2168 -0.5240
   23MOL0     C 2989   5.189  10.928   5.790  0.3922 -0.2753  0.5196
   23MOL0     C 2990   5.056  10.864   5.790 -0.0253  0.0411 -0.4829
   23MOL0     C 2991   4.943  10.963   5.766 -0.2578 -0.7663 -0.4472
   23MOL0     C 2992   4.806  10.911   5.806 -1.2145  0.0478 -0.2615
   23MOL0     C 2993   4.693  10.977   5.727  0.8148  0.2740  0.0611
   23MOL0     O 2994   4.681  10.921   5.595  0.2919 -0.4368 -0.7030
   23MOL0     C 2995   4.600  10.985   5.503  0.0352 -0.2481  0.1498
   23MOL0     C 2996   4.542  11.107   5.525  0.0696  0.0200  0.0008
   23MOL0     C 2997   4.452  11.161   5.434 -0.6737 -0.3573  0.2094
   23MOL0     C 2998   4.433  11.090   5.308  1.2557  0.9744 -0.1850
   23MOL0     C 2999   4.338  11.126   5.198  0.0675 -0.2856  0.3084
   23MOL0     O 3000   4.371  11.108   5.067  0.2982 -0.6257  0.6737
   23MOL0     C 3001   4.275  11.133   4.964  0.2785  0.7970 -0.4682
   23MOL0     C 3002   4.133  11.115   4.979 -0.0355  0.8025 -1.3083
   23MOL0     C 3003   4.042  11.165   4.881  0.3318  0.1780  0.0144
   23MOL0     C 3004   4.096  11.218   4.762  0.0450 -0.5348 -0.1846
   23MOL0     O 3005   4.010  11.242   4.662  0.2490 -1.1847  0.4431
   23MOL0     C 3006   4.047  11.364   4.586  0.3906 -0.1275 -0.5207
   23MOL0     C 3007   3.919  11.415   4.527  0.0223 -0.4133 -0.3800
   23MOL0     C 3008   3.853  11.322   4.432  0.3383 -0.4964 -0.5338
   23MOL0     C 3009   3.747  11.397   4.343  0.3292 -0.6613 -0.5957
   23MOL0     C 3010   3.673  11.295   4.246  0.0990  0.4886  0.3762
   23MOL0     C 3011   3.536  11.336   4.214  0.0557 -0.5065 -0.0799
   23MOL0     C 3012   3.548  11.439   4.103  0.2510 -0.4933 -0.5359
   23MOL0     C 3013   3.409  11.502   4.070 -0.5496  0.1685 -1.0245
   23MOL0    Cl 3014   3.281  11.389   4.024 -0.0627 -0.2819  0.6550
   23MOL0     C 3015   4.233  11.225   4.744 -0.4571 -0.1848 -0.2826
   23MOL0     C 3016   4.320  11.182   4.843  0.3636  0.4998 -0.0222
   23MOL0     O 3017   4.243  11.193   5.237 -0.6385 -0.3862  0.5776
   23MOL0     C 3018   4.490  10.966   5.288 -0.5030 -0.4900 -0.5116
   23MOL0     C 3019   4.556  10.909   5.392 -0.4791  0.0458  0.4492
   23MOL0     N 3020   5.295  10.894   5.873  0.1207 -0.1824 -0.7130
   23MOL0     N 3021   5.392  10.977   5.850 -0.0443  0.1002 -0.6450
   23MOL0     C 3022   5.030  10.593   5.295 -0.9989 -0.5673  0.1858
   23MOL0     C 3023   4.950  10.483   5.326 -0.8545 -0.3647  0.1520
   23MOL0     C 3024   4.617  10.211   5.358  0.5122 -0.3036 -0.4347
   23MOL0     C 3025   4.621  10.156   5.490  0.0493 -0.0751  0.0741
   23MOL0     C 3026   4.575  10.028   5.517 -0.4309 -0.5151 -0.6840
   23MOL0     C 3027   4.526   9.949   5.410  0.0842 -0.0537  0.3138
   23MOL0     O 3028   4.486   9.823   5.409  0.0213  0.7927 -0.6335
   23MOL0     C 3029   4.500   9.744   5.529  0.7868 -0.2034  0.0826
   23MOL0     C 3030   4.358   9.727   5.591 -0.0522  0.2520 -0.4997
   23MOL0     C 3031   4.274   9.630   5.501  0.1385 -0.7943 -0.4041
   23MOL0     C 3032   4.220   9.509   5.568 -0.5654 -0.4612  0.0370
   23MOL0     C 3033   4.119   9.561   5.665  0.3641 -1.0656  1.1014
   23MOL0     C 3034   4.055   9.607   5.752 -0.5978  0.1709 -1.1336
   23MOL0     C 3035   4.512  10.006   5.287 -0.2177  0.2877 -0.1938
   23MOL0     C 3036   4.549  10.135   5.259  0.3732  0.6403  0.4046
   23MOL0     C 3037   4.561  10.177   5.111  0.3563 -0.6213  0.1936
   23MOL0     H 3038   4.749  10.613   5.577  1.4832 -1.4496  0.7373
   23MOL0     H 3039   4.889  10.793   5.531  0.7048  0.7374 -1.0705
   23MOL0     H 3040   5.091  10.822   5.135 -1.0583  3.4478 -2.1378
   23MOL0     H 3041   5.145  10.974   5.202 -0.1885  0.2262  0.9138
   23MOL0     H 3042   5.315  10.823   5.092 -1.7734  2.7601 -0.5086
   23MOL0     H 3043   5.288  10.696   5.217 -0.2427  0.3225  1.7517
   23MOL0     H 3044   5.482  10.798   5.291 -0.6175 -1.8237 -1.1826
   23MOL0     H 3045   5.345  10.852   5.391  3.2978  1.5479  0.8168
   23MOL0     H 3046   5.454  11.005   5.162 -1.6655  3.0867  0.4266
   23MOL0     H 3047   5.356  11.070   5.298  0.1296 -0.0878  0.6241
   23MOL0     H 3048   5.647  10.978   5.320  1.0765  0.7052  0.1344
   23MOL0     H 3049   5.597  11.135   5.289 -0.0634 -1.6199 -0.3537
   23MOL0     H 3050   5.483  10.966   5.525 -0.7150  0.4514  0.1484
   23MOL0     H 3051   5.632  11.047   5.544  1.1757 -2.2044 -1.0223
   23MOL0     H 3052   5.344  11.161   5.498  0.4573 -1.6244 -1.4359
   23MOL0     H 3053   5.495  11.272   5.518  1.8548  0.5126  2.7330
   23MOL0     H 3054   5.526  11.181   5.728  0.3885 -0.2387 -2.1432
   23MOL0     H 3055   5.355  11.266   5.709  0.4317  0.5493 -2.4192
   23MOL0     H 3056   5.169  11.084   5.636  0.8572 -3.0931 -3.1671
   23MOL0     H 3057   5.050  10.793   5.706  2.7019  0.3102 -0.9879
   23MOL0     H 3058   5.048  10.810   5.885 -0.5664 -3.9962 -2.5615
   23MOL0     H 3059   4.961  11.055   5.822 -1.2222  0.3272 -1.8435
   23MOL0     H 3060   4.946  10.991   5.660 -0.7120 -0.3214 -0.3474
   23MOL0     H 3061   4.791  10.929   5.913 -0.7956  1.5526 -0.4278
   23MOL0     H 3062   4.795  10.803   5.792 -1.6242 -0.2062  1.6928
   23MOL0     H 3063   4.727  11.081   5.716  1.2045 -0.0821 -3.3453
   23MOL0     H 3064   4.595  10.966   5.774  1.1301 -1.5149  0.3821
   23MOL0     H 3065   4.562  11.150   5.623 -0.6243 -2.0805  1.1374
   23MOL0     H 3066   4.409  11.260   5.441  3.6344  1.6217  2.2238
   23MOL0     H 3067   4.093  11.063   5.066 -0.4617  1.6775 -0.9753
   23MOL0     H 3068   3.935  11.151   4.894  0.7866 -2.7311  1.3829
   23MOL0     H 3069   4.098  11.442   4.644  3.9582 -0.6474 -2.6798
   23MOL0     H 3070   4.112  11.328   4.506  2.1327  1.0048  0.3091
   23MOL0     H 3071   3.850  11.433   4.609  0.0833  0.0015 -0.4142
   23MOL0     H 3072   3.944  11.510   4.477  0.6554 -0.3622  0.0249
   23MOL0     H 3073   3.925  11.262   4.376 -2.5033 -1.9148 -2.9215
   23MOL0     H 3074   3.804  11.248   4.496  0.1110 -0.6088 -0.8373
   23MOL0     H 3075   3.805  11.470   4.285  0.1909 -0.0342  0.0426
   23MOL0     H 3076   3.666  11.459   4.384  0.4044 -0.1777 -1.1481
   23MOL0     H 3077   3.676  11.197   4.294  0.7110 -0.4299 -1.4226
   23MOL0     H 3078   3.729  11.287   4.152 -0.9841 -0.1266 -0.2322
   23MOL0     H 3079   3.480  11.245   4.188  2.1730 -2.9857  3.1976
   23MOL0     H 3080   3.490  11.382   4.302 -1.5110 -1.2758 -0.4634
   23MOL0     H 3081   3.583  11.393   4.010 -0.5056  0.9684 -1.5872
   23MOL0     H 3082   3.609  11.520   4.143  0.0119  0.1210 -1.3655
   23MOL0     H 3083   3.365  11.545   4.161  2.0324  0.6022  0.1008
   23MOL0     H 3084   3.430  11.582   3.998 -0.1364  0.7559 -0.2778
   23MOL0     H 3085   4.277  11.267   4.653  0.4659 -1.5998 -0.5158
   23MOL0     H 3086   4.427  11.177   4.827  0.1924 -3.3417 -0.9746
   23MOL0     H 3087   4.474  10.903   5.201  1.2655 -0.0852 -1.1856
   23MOL0     H 3088   4.593  10.807   5.392  2.1962  0.9462 -0.2916
   23MOL0     H 3089   5.105  10.596   5.217 -1.0555 -1.6017  0.0754
   23MOL0     H 3090   4.954  10.387   5.276 -1.3523 -0.2323 -0.1470
   23MOL0     H 3091   4.679  10.196   5.572 -0.3708 -2.4851  1.6525
   23MOL0     H 3092   4.599   9.985   5.614 -0.8891 -1.0502 -0.7980
   23MOL0     H 3093   4.566   9.792   5.602 -0.5623  3.3692 -0.8044
   23MOL0     H 3094   4.545   9.647   5.508  0.1655 -0.4641 -0.0810
   23MOL0     H 3095   4.292   9.813   5.594 -1.0710 -0.3018 -3.3180
   23MOL0     H 3096   4.382   9.687   5.690  0.0459  0.0125 -0.6196
   23MOL0     H 3097   4.329   9.595   5.413 -0.5000 -0.5348 -0.9108
   23MOL0     H 3098   4.201   9.704   5.468  0.9081  0.4795  0.6679
   23MOL0     H 3099   4.186   9.426   5.505 -1.1291 -1.9550  2.2048
   23MOL0     H 3100   4.297   9.465   5.633 -1.1481 -2.2573 -0.4220
   23MOL0     H 3101   3.996   9.653   5.829  2.4868  3.1981 -0.3044
   23MOL0     H 3102   4.467   9.937   5.216  1.8554 -2.0705  0.6452
   23MOL0     H 3103   4.485  10.238   5.061  2.3894  1.6948 -0.2514
   23MOL0     H 3104   4.654  10.229   5.088  2.0784 -3.4843  0.2522
   23MOL0     H 3105   4.561  10.082   5.057 -1.7762 -0.3933 -0.3062
   24MOL0     O 3106   1.841   4.322   1.552  0.6192  0.4415 -0.0638
   24MOL0     C 3107   1.814   4.377   1.446  0.9252  1.3264  0.8253
   24MOL0     O 3108   1.761   4.506   1.426 -0.0099  0.0749  0.3747
   24MOL0     C 3109   1.729   4.567   1.545 -0.2236  0.2098  0.6972
   24MOL0     C 3110   1.791   4.692   1.585  0.5981  0.1538 -0.0583
   24MOL0     C 3111   1.735   4.769   1.689 -0.0199 -0.0532  0.3577
   24MOL0     C 3112   1.631   4.724   1.767 -0.9991  0.4703 -0.1339
   24MOL0     O 3113   1.601   4.792   1.883  0.0867 -0.8283 -0.2525
   24MOL0     C 3114   1.497   4.738   1.959  0.2651 -0.2397 -0.6019
   24MOL0     C 3115   1.499   4.793   2.107  0.6732 -0.1224  0.5326
   24MOL0     C 3116   1.496   4.946   2.118  1.3020  0.1835 -0.7951
   24MOL0     C 3117   1.499   4.987   2.269  0.0038 -0.0136 -0.0725
   24MOL0     C 3118   1.491   5.143   2.305  0.1842  0.5176  0.7613
   24MOL0     C 3119   1.371   5.210   2.242  0.6452  0.1575 -0.2192
   24MOL0     C 3120   1.363   5.359   2.257 -0.1006  0.1080 -0.8058
   24MOL0     C 3121   1.460   5.439   2.162 -0.8121 -0.0090 -0.5009
   24MOL0     N 3122   1.400   5.478   2.043  0.3115 -0.6712 -0.0919
   24MOL0     C 3123   1.412   5.600   1.985  0.6468  0.1823 -0.2633
   24MOL0     C 3124   1.323   5.603   1.890  1.1416 -0.3936  0.1405
   24MOL0     C 3125   1.294   5.742   1.825  0.1617  0.8936  0.5700
   24MOL0     C 3126   1.139   5.759   1.793 -0.0492 -0.0554  0.6290
   24MOL0     C 3127   1.108   5.872   1.706 -0.5927 -0.1542  0.6236
   24MOL0     C 3128   1.185   5.857   1.567 -0.4071 -0.2685  0.4411
   24MOL0     O 3129   1.129   5.749   1.487 -0.7481 -0.3073  0.4910
   24MOL0     C 3130   1.027   5.786   1.405 -0.1716  0.2116  0.1512
   24MOL0     C 3131   1.001   5.695   1.308  0.3879 -0.3696  0.0330
   24MOL0     C 3132   0.890   5.702   1.215 -0.8345 -0.1028  0.2373
   24MOL0     C 3133   0.812   5.813   1.205 -0.2195 -0.4615  0.0172
   24MOL0     C 3134   0.714   5.823   1.089 -0.9265  0.7564 -0.2677
   24MOL0     O 3135   0.637   5.936   1.098  0.4847  0.2052 -0.3183
   24MOL0     C 3136   0.571   5.981   0.982  1.1735  0.7974  0.0569
   24MOL0     C 3137   0.435   6.008   0.995  0.8078  0.7022 -0.3557
   24MOL0     C 3138   0.351   6.039   0.889  0.3844 -0.1140  0.2469
   24MOL0     C 3139   0.418   6.065   0.765 -0.3934  0.7781 -0.9215
   24MOL0     O 3140   0.341   6.081   0.663 -0.0547  0.0997 -0.3381
   24MOL0     C 3141   0.254   6.197   0.660  1.1191 -0.0385 -0.5248
   24MOL0     C 3142   0.109   6.152   0.624 -0.1209  0.1144 -0.1669
   24MOL0     C 3143   0.007   6.257   0.656  0.9509 -0.2931  0.5944
   24MOL0     C 3144  -0.120   6.262   0.572 -0.3193 -0.1446 -0.1458
   24MOL0     C 3145  -0.237   6.320   0.643 -1.1493  0.1202  0.4317
   24MOL0     C 3146  -0.372   6.325   0.561 -0.4145  0.5862 -0.1971
   24MOL0     C 3147  -0.488   6.364   0.653  0.0887 -1.1965 -0.5062
   24MOL0     C 3148  -0.467   6.483   0.738  0.1871 -0.1351 -1.5273
   24MOL0    Cl 3149  -0.577   6.475   0.879 -0.4292  0.4741 -0.5326
   24MOL0     C 3150   0.558   6.046   0.749  0.2160 -0.6791 -0.1581
   24MOL0     C 3151   0.628   6.008   0.862  0.1615  0.0472 -0.3299
   24MOL0     O 3152   0.726   5.750   0.993 -0.3234  0.4270  0.4938
   24MOL0     C 3153   0.845   5.911   1.302 -1.1476 -0.7100 -0.0342
   24MOL0     C 3154   0.948   5.904   1.400  0.0234  0.2069  0.4071
   24MOL0     N 3155   1.252   5.478   1.885 -0.7928  0.4117  0.3054
   24MOL0     N 3156   1.308   5.413   1.973 -0.4814  0.2443 -0.9818
   24MOL0     C 3157   1.563   4.610   1.722 -0.7117 -0.3004  0.4267
   24MOL0     C 3158   1.613   4.533   1.612  0.1734  0.3220  0.1385
   24MOL0     C 3159   1.819   4.301   1.314 -0.2143 -0.8722 -0.1547
   24MOL0     C 3160   1.767   4.171   1.317 -0.1610 -0.4974  0.4517
   24MOL0     C 3161   1.771   4.102   1.192 -0.0487 -0.0889  0.1214
   24MOL0     C 3162   1.833   4.153   1.073 -0.6206  0.2780  0.8813
   24MOL0     O 3163   1.827   4.071   0.955  0.2014 -0.5450 -0.7290
   24MOL0     C 3164   1.884   3.943   0.973  0.1644  0.9271  0.4418
   24MOL0     C 3165   1.771   3.837   0.955 -0.1592  0.4209  1.0738
   24MOL0     C 3166   1.699   3.854   0.826 -0.1881 -0.1581  0.1089
   24MOL0     C 3167   1.596   3.743   0.802  0.9899  0.5626  0.2115
   24MOL0     C 3168   1.503   3.789   0.696  0.3985 -0.2936 -0.5146
   24MOL0     C 3169   1.414   3.839   0.636  1.0787  0.4250  0.5997
   24MOL0     C 3170   1.902   4.277   1.080  0.9151  0.7481 -0.5413
   24MOL0     C 3171   1.885   4.357   1.199 -0.2344 -0.4571  0.3647
   24MOL0     C 3172   1.968   4.472   1.190 -0.4207 -0.7279 -0.3894
   24MOL0     H 3173   1.888   4.723   1.548  1.0604 -2.7889 -1.5725
   24MOL0     H 3174   1.792   4.856   1.719 -2.6449  0.7215  3.6202
   24MOL0     H 3175   1.395   4.747   1.920  0.0759  1.6883  0.2096
   24MOL0     H 3176   1.522   4.632   1.970  0.9892 -0.0615 -0.5015
   24MOL0     H 3177   1.594   4.755   2.146  1.6887  1.8846  0.1169
   24MOL0     H 3178   1.426   4.740   2.170  1.1035 -4.3912 -2.1366
   24MOL0     H 3179   1.403   4.983   2.075  0.7635 -1.7533 -1.4102
   24MOL0     H 3180   1.589   4.982   2.074  1.6148 -0.6806 -0.8635
   24MOL0     H 3181   1.427   4.937   2.334  1.9710 -1.3569  1.1879
   24MOL0     H 3182   1.591   4.948   2.313  0.1888  0.5032  0.0095
   24MOL0     H 3183   1.496   5.166   2.412  2.2445 -0.0586  0.8297
   24MOL0     H 3184   1.576   5.195   2.259  2.0978 -2.8276  0.2258
   24MOL0     H 3185   1.370   5.187   2.136 -2.7909 -2.9088  0.3086
   24MOL0     H 3186   1.279   5.172   2.287 -1.3293 -0.2683 -4.2373
   24MOL0     H 3187   1.387   5.390   2.359 -4.4655  1.8166 -0.0839
   24MOL0     H 3188   1.257   5.382   2.243 -0.6816 -1.5723  0.4668
   24MOL0     H 3189   1.498   5.529   2.210  1.9397 -1.6188  0.5886
   24MOL0     H 3190   1.555   5.388   2.142 -0.1776  1.1283 -0.4371
   24MOL0     H 3191   1.476   5.682   2.016  2.6220 -0.7058 -1.7392
   24MOL0     H 3192   1.313   5.823   1.895 -3.2760  1.4232  1.0493
   24MOL0     H 3193   1.350   5.737   1.730 -2.3119 -3.1555 -0.9407
   24MOL0     H 3194   1.118   5.660   1.751  0.8036 -1.4626  3.3091
   24MOL0     H 3195   1.081   5.754   1.885 -2.1375 -0.9829 -0.6581
   24MOL0     H 3196   1.122   5.961   1.769 -1.6634 -0.5702  1.4937
   24MOL0     H 3197   1.001   5.877   1.682 -0.7803  0.8975  1.5850
   24MOL0     H 3198   1.291   5.829   1.577 -1.1774 -2.8694  2.4437
   24MOL0     H 3199   1.181   5.959   1.527 -0.9050 -0.5496 -0.2328
   24MOL0     H 3200   1.070   5.611   1.305 -0.0334 -0.7188  0.1065
   24MOL0     H 3201   0.887   5.634   1.131  1.2342 -1.1579  0.9636
   24MOL0     H 3202   0.396   6.007   1.096 -1.0986  1.1566 -1.0471
   24MOL0     H 3203   0.243   6.047   0.902  0.0839 -3.0925  0.1910
   24MOL0     H 3204   0.257   6.256   0.752  2.7870 -1.2289  0.2398
   24MOL0     H 3205   0.298   6.263   0.584  0.2820  2.7317  1.2409
   24MOL0     H 3206   0.104   6.118   0.520  0.2074  1.9414 -0.8150
   24MOL0     H 3207   0.088   6.075   0.699 -2.4756  1.3681  0.5646
   24MOL0     H 3208  -0.022   6.255   0.761 -0.5067 -1.0865  0.2000
   24MOL0     H 3209   0.052   6.355   0.638  0.7850  0.1651  2.5117
   24MOL0     H 3210  -0.149   6.162   0.539  0.2804 -0.4843  0.3233
   24MOL0     H 3211  -0.095   6.304   0.474  0.9625  0.0021  0.2242
   24MOL0     H 3212  -0.211   6.418   0.685 -1.7440  1.0154 -1.1950
   24MOL0     H 3213  -0.247   6.252   0.728 -0.2816 -2.3389 -1.2981
   24MOL0     H 3214  -0.362   6.391   0.475 -0.1136  1.7363  0.6948
   24MOL0     H 3215  -0.400   6.222   0.535 -2.0294  0.5885  1.3652
   24MOL0     H 3216  -0.533   6.278   0.704 -1.9146  0.2121  0.2303
   24MOL0     H 3217  -0.576   6.394   0.595 -1.6163 -0.9091  2.0493
   24MOL0     H 3218  -0.370   6.492   0.787 -0.9559  0.3651  0.7897
   24MOL0     H 3219  -0.468   6.580   0.688  4.4831  0.7063 -0.3729
   24MOL0     H 3220   0.592   6.056   0.647  1.1279 -1.0031  0.1109
   24MOL0     H 3221   0.732   5.987   0.839 -0.2475 -2.6988  0.0004
   24MOL0     H 3222   0.803   6.011   1.306  4.0676  1.8366 -1.1296
   24MOL0     H 3223   0.973   5.985   1.467 -0.8910 -1.8491  3.4506
   24MOL0     H 3224   1.471   4.573   1.765 -2.5297  2.5059 -0.7600
   24MOL0     H 3225   1.548   4.460   1.564  0.0673  1.4437 -1.4973
   24MOL0     H 3226   1.741   4.133   1.415  2.2820 -1.7068  0.7048
   24MOL0     H 3227   1.742   3.997   1.190  2.5777 -0.8931 -0.4469
   24MOL0     H 3228   1.916   3.924   1.076  2.1571 -3.6528 -0.7731
   24MOL0     H 3229   1.968   3.925   0.904  1.6210 -2.3490  2.7862
   24MOL0     H 3230   1.696   3.838   1.034  0.8644 -2.0208  2.1709
   24MOL0     H 3231   1.816   3.738   0.953 -2.0906 -0.5975 -3.3056
   24MOL0     H 3232   1.771   3.851   0.744 -0.0007  0.3368  0.2522
   24MOL0     H 3233   1.644   3.949   0.822  1.0936  0.5786 -0.5802
   24MOL0     H 3234   1.652   3.656   0.768 -1.0706 -1.5644  1.9073
   24MOL0     H 3235   1.533   3.732   0.891 -4.9650 -1.1629 -3.6292
   24MOL0     H 3236   1.343   3.888   0.573  1.0714 -0.5352 -0.1578
   24MOL0     H 3237   1.952   4.313   0.990  0.1130  0.6904 -1.0219
   24MOL0     H 3238   2.069   4.452   1.227 -1.3060  0.2166  2.8895
   24MOL0     H 3239   1.981   4.525   1.095  0.8447  0.0410  0.1737
   24MOL0     H 3240   1.939   4.549   1.262 -0.7114  1.4683 -2.7146
   25MOL0     O 3241   8.929  10.650   2.793  0.4326  0.4884 -0.2562
   25MOL0     C 3242   9.034  10.598   2.819 -0.3010  0.1513 -0.2369
   25MOL0     O 3243   9.145  10.594   2.732 -0.5245 -0.1767  0.0197
   25MOL0     C 3244   9.153  10.667   2.611 -0.0152  0.9466 -0.4266
   25MOL0     C 3245   9.284  10.701   2.573  0.2749 -0.0511 -0.0700
   25MOL0     C 3246   9.303  10.747   2.442  0.1329  0.5120  0.1681
   25MOL0     C 3247   9.201  10.803   2.365 -0.7279  1.3902 -0.0984
   25MOL0     O 3248   9.248  10.847   2.240 -0.0096  0.0545  0.0662
   25MOL0     C 3249   9.143  10.902   2.147 -0.3055  0.6575  0.5051
   25MOL0     C 3250   9.227  10.990   2.051  0.8691  0.9277 -0.0965
   25MOL0     C 3251   9.151  11.060   1.944  0.6223 -0.0917  0.2197
   25MOL0     C 3252   9.242  11.169   1.871 -0.2897 -0.2711 -0.3750
   25MOL0     C 3253   9.185  11.203   1.731 -0.1074 -0.2903  0.0529
   25MOL0     C 3254   9.282  11.298   1.665  0.1725 -0.5664  0.1361
   25MOL0     C 3255   9.224  11.367   1.544  0.6012  0.1473  0.4307
   25MOL0     C 3256   9.146  11.499   1.586  0.8074  0.3915 -0.7084
   25MOL0     N 3257   9.089  11.584   1.485 -0.5436 -0.2318  1.0613
   25MOL0     C 3258   9.074  11.718   1.495 -0.0721  0.7376  0.6606
   25MOL0     C 3259   9.023  11.762   1.377  0.7540  0.1685  0.5201
   25MOL0     C 3260   8.989  11.902   1.342 -0.4753 -0.0992 -0.2477
   25MOL0     C 3261   9.045  12.000   1.444  0.3995  0.5114  0.0002
   25MOL0     C 3262   9.006  12.152   1.415  0.3971 -0.3187 -0.0678
   25MOL0     C 3263   8.868  12.193   1.391  1.0472 -0.4326  0.2544
   25MOL0     O 3264   8.856  12.332   1.387  0.1680 -1.2753 -1.2271
   25MOL0     C 3265   8.884  12.415   1.496 -0.0232 -0.4218  0.7350
   25MOL0     C 3266   8.900  12.553   1.474  0.1380  0.3032  0.5195
   25MOL0     C 3267   8.929  12.640   1.577  0.0280  0.2353 -0.3921
   25MOL0     C 3268   8.971  12.604   1.704 -0.4117  0.5200 -0.0220
   25MOL0     C 3269   9.013  12.694   1.804  0.7225 -1.0385 -0.0645
   25MOL0     O 3270   9.066  12.643   1.913  0.4689 -0.1226 -0.4148
   25MOL0     C 3271   9.106  12.734   2.009  0.7824 -0.4645  0.1707
   25MOL0     C 3272   9.012  12.790   2.098 -0.4191 -0.1915 -0.1048
   25MOL0     C 3273   9.055  12.886   2.187 -0.6106 -0.3729 -0.6547
   25MOL0     C 3274   9.185  12.928   2.192 -0.2070 -0.2595  0.1611
   25MOL0     O 3275   9.211  13.030   2.279  0.1801 -0.2868  0.1032
   25MOL0     C 3276   9.333  13.103   2.274 -0.1281 -0.3839 -0.3991
   25MOL0     C 3277   9.455  13.042   2.346 -0.0805  0.1157 -0.4504
   25MOL0     C 3278   9.558  13.147   2.387 -0.0610  0.0345 -0.5931
   25MOL0     C 3279   9.672  13.082   2.466  0.1219 -0.5262 -0.5871
   25MOL0     C 3280   9.779  13.181   2.530  0.2084  0.1757 -0.6646
   25MOL0     C 3281   9.724  13.267   2.643  0.3397 -0.0637  0.4875
   25MOL0     C 3282   9.847  13.340   2.709 -1.2559 -0.1268 -0.7285
   25MOL0     C 3283   9.807  13.421   2.839  0.2704 -0.4612  0.5439
   25MOL0    Cl 3284   9.940  13.534   2.888  0.1163 -0.2556 -0.0315
   25MOL0     C 3285   9.283  12.870   2.105 -0.7558 -0.0987 -0.7187
   25MOL0     C 3286   9.237  12.771   2.025 -0.3793 -0.2153 -0.0832
   25MOL0     O 3287   9.003  12.819   1.778 -0.0830 -0.0149  0.3092
   25MOL0     C 3288   8.950  12.468   1.726  0.3939  0.3917  0.0481
   25MOL0     C 3289   8.903  12.376   1.630  0.6292 -0.2643 -0.3561
   25MOL0     N 3290   9.008  11.653   1.294  0.5451  0.4761  0.2728
   25MOL0     N 3291   9.055  11.544   1.354 -0.1452 -0.1156 -0.5992
   25MOL0     C 3292   9.070  10.783   2.407 -0.5166 -0.0940  0.6432
   25MOL0     C 3293   9.043  10.711   2.527  0.2762 -0.5419 -0.0709
   25MOL0     C 3294   9.032  10.537   2.954  0.6108  0.1555  0.2146
   25MOL0     C 3295   9.135  10.447   2.990  1.3571  0.3604  0.0909
   25MOL0     C 3296   9.142  10.384   3.112  0.1573 -0.1137  0.0044
   25MOL0     C 3297   9.051  10.409   3.213 -0.2705 -0.6656 -0.0136
   25MOL0     O 3298   9.056  10.356   3.341 -0.1237  0.4045 -0.0746
   25MOL0     C 3299   9.152  10.243   3.366  1.2917 -0.8347 -0.1127
   25MOL0     C 3300   9.102  10.114   3.325  0.0395 -0.3124 -0.6236
   25MOL0     C 3301   9.196  10.007   3.365  0.0272  0.0450  0.2310
   25MOL0     C 3302   9.339  10.022   3.317  1.3101 -0.3252 -0.6991
   25MOL0     C 3303   9.349  10.046   3.166  0.5631 -0.9427  0.2414
   25MOL0     C 3304   9.353  10.047   3.041 -0.8438 -0.8071 -0.2455
   25MOL0     C 3305   8.949  10.496   3.187 -0.0073  0.8132  0.6780
   25MOL0     C 3306   8.944  10.563   3.065  0.0003 -0.3882  1.0058
   25MOL0     C 3307   8.815  10.640   3.054 -0.7109 -0.3119  0.1351
   25MOL0     H 3308   9.365  10.700   2.645  1.4555  0.9345 -1.3210
   25MOL0     H 3309   9.400  10.771   2.400  0.3525  2.4424  1.5996
   25MOL0     H 3310   9.092  10.819   2.096 -0.8794  2.6271 -2.3681
   25MOL0     H 3311   9.068  10.965   2.197 -2.2365  0.3910 -1.8533
   25MOL0     H 3312   9.314  10.930   2.021  0.8081  0.1462  1.2180
   25MOL0     H 3313   9.266  11.070   2.115 -0.4758  0.7150  1.0215
   25MOL0     H 3314   9.067  11.107   1.996  1.1764  0.1356  0.9244
   25MOL0     H 3315   9.119  10.982   1.875 -0.4845 -0.2248  0.8593
   25MOL0     H 3316   9.270  11.261   1.924  0.1653 -1.5625  1.7239
   25MOL0     H 3317   9.339  11.119   1.860 -0.8975 -1.3819 -0.8841
   25MOL0     H 3318   9.183  11.107   1.679  4.5755  1.0893 -3.3485
   25MOL0     H 3319   9.084  11.244   1.728  0.4289  1.0511 -0.5995
   25MOL0     H 3320   9.322  11.372   1.735  0.9474  0.1889 -1.0464
   25MOL0     H 3321   9.365  11.235   1.631 -0.4815  0.1633 -3.1459
   25MOL0     H 3322   9.161  11.293   1.494  2.4722 -2.6746  1.9165
   25MOL0     H 3323   9.303  11.392   1.472  0.2457 -1.0714 -0.4195
   25MOL0     H 3324   9.069  11.478   1.661  1.1850  0.9451 -0.1519
   25MOL0     H 3325   9.223  11.562   1.631  1.0579 -1.1805  1.2462
   25MOL0     H 3326   9.109  11.762   1.588  1.4412 -0.8919  0.9104
   25MOL0     H 3327   9.016  11.931   1.240  2.2540 -0.2154  0.3882
   25MOL0     H 3328   8.881  11.919   1.344 -0.6111  0.8608 -5.0278
   25MOL0     H 3329   8.993  11.985   1.539  1.7656  0.9108  0.8400
   25MOL0     H 3330   9.153  11.984   1.444  0.1941 -1.4468 -2.3252
   25MOL0     H 3331   9.070  12.181   1.332  2.1708  3.6095  2.4204
   25MOL0     H 3332   9.043  12.208   1.501 -3.5911  1.2798  0.8522
   25MOL0     H 3333   8.811  12.143   1.471  0.7844 -1.9590 -0.8484
   25MOL0     H 3334   8.825  12.159   1.297  0.0804 -0.5539  0.7251
   25MOL0     H 3335   8.870  12.582   1.374  1.5733  0.2734  0.0518
   25MOL0     H 3336   8.932  12.747   1.554  0.5648  0.7761  1.9220
   25MOL0     H 3337   8.911  12.753   2.111 -0.9691  0.8650 -1.1926
   25MOL0     H 3338   8.995  12.938   2.261  2.1643 -1.7451  2.8468
   25MOL0     H 3339   9.362  13.137   2.174  0.8157  2.6480  0.8096
   25MOL0     H 3340   9.304  13.186   2.339  1.6684 -1.6460  2.1825
   25MOL0     H 3341   9.421  12.984   2.432 -3.6975 -1.3332 -2.6287
   25MOL0     H 3342   9.515  12.983   2.277  2.8793  0.5035  1.5981
   25MOL0     H 3343   9.606  13.196   2.302  0.3294  0.1146 -0.3295
   25MOL0     H 3344   9.515  13.218   2.458  0.0665 -0.0651 -0.4157
   25MOL0     H 3345   9.729  13.015   2.400  1.7029 -0.3966  0.5937
   25MOL0     H 3346   9.632  13.032   2.554  0.1490  1.2513  0.4794
   25MOL0     H 3347   9.798  13.255   2.452  2.5168  2.9775  2.2781
   25MOL0     H 3348   9.873  13.131   2.555  0.7864  1.7015  0.3265
   25MOL0     H 3349   9.656  13.335   2.591 -0.5605 -2.3591 -1.5147
   25MOL0     H 3350   9.667  13.208   2.714  0.4492  0.9170  1.4135
   25MOL0     H 3351   9.885  13.416   2.640 -1.4131  0.9114  0.3072
   25MOL0     H 3352   9.927  13.270   2.736  1.6184  2.3167 -2.2336
   25MOL0     H 3353   9.724  13.486   2.812 -0.4075 -0.7904  1.7656
   25MOL0     H 3354   9.768  13.349   2.912  0.8779 -1.2075  0.1526
   25MOL0     H 3355   9.385  12.905   2.104 -1.7998  3.6550  1.6903
   25MOL0     H 3356   9.306  12.716   1.963 -1.5327 -1.6037 -0.1889
   25MOL0     H 3357   8.971  12.418   1.820 -2.1033 -3.0937 -1.0703
   25MOL0     H 3358   8.890  12.269   1.645 -0.2311 -0.1565 -0.2657
   25MOL0     H 3359   8.986  10.807   2.343 -1.2240 -0.7493  1.2917
   25MOL0     H 3360   8.940  10.689   2.550  0.2076 -1.9830 -1.5551
   25MOL0     H 3361   9.200  10.410   2.912 -0.2454  1.3365 -1.7898
   25MOL0     H 3362   9.221  10.310   3.126 -0.7653 -1.0570  0.4032
   25MOL0     H 3363   9.163  10.242   3.475  3.6554  1.7528 -0.2170
   25MOL0     H 3364   9.257  10.264   3.345  1.5955 -0.4636  1.6282
   25MOL0     H 3365   9.081  10.114   3.217  4.3759 -1.0154 -1.6404
   25MOL0     H 3366   9.003  10.102   3.371  0.9459  2.0835  2.3359
   25MOL0     H 3367   9.152   9.916   3.323  1.8721  0.2152 -2.2545
   25MOL0     H 3368   9.219   9.994   3.472 -1.9819  1.1873  0.8693
   25MOL0     H 3369   9.402  10.090   3.376 -1.9930  1.3844  1.1905
   25MOL0     H 3370   9.388   9.925   3.326  1.3316 -0.1971  1.1396
   25MOL0     H 3371   9.369  10.045   2.935 -0.0039 -3.6241 -0.1688
   25MOL0     H 3372   8.890  10.516   3.276  1.1066 -1.4750  2.0255
   25MOL0     H 3373   8.770  10.669   3.149 -3.5935 -1.5346 -0.7655
   25MOL0     H 3374   8.812  10.720   2.980 -3.1760  0.8496  1.3937
   25MOL0     H 3375   8.729  10.581   3.023 -2.7353  0.0489  4.2918
   26MOL0     O 3376   2.534   5.883   8.016  0.0338  0.5946  1.1893
   26MOL0     C 3377   2.606   5.942   8.090 -0.3922 -0.5767 -0.1908
   26MOL0     O 3378   2.586   5.946   8.223 -0.0445  0.4264  0.0602
   26MOL0     C 3379   2.522   5.835   8.276  1.0859  1.3493  0.0991
   26MOL0     C 3380   2.422   5.851   8.375 -0.3146 -0.6325 -0.3270
   26MOL0     C 3381   2.359   5.739   8.420 -0.6448 -0.5265  0.0249
   26MOL0     C 3382   2.395   5.609   8.375 -0.2877 -0.1333 -0.7380
   26MOL0     O 3383   2.353   5.490   8.427 -0.4423  1.2955  1.0809
   26MOL0     C 3384   2.265   5.487   8.547 -0.7495 -0.4461 -1.0189
   26MOL0     C 3385   2.121   5.467   8.506 -0.1570  0.8647  0.4988
   26MOL0     C 3386   2.024   5.523   8.619 -0.4240  1.2179  0.5547
   26MOL0     C 3387   2.036   5.674   8.633 -0.3639  0.1847 -0.2269
   26MOL0     C 3388   1.930   5.737   8.720  0.7805  0.2021 -0.0315
   26MOL0     C 3389   1.781   5.729   8.670 -0.3850 -0.5902  0.5842
   26MOL0     C 3390   1.685   5.819   8.739 -0.3908  0.0006  0.2520
   26MOL0     C 3391   1.567   5.740   8.793 -0.3756 -0.0663 -0.0081
   26MOL0     N 3392   1.478   5.835   8.862 -0.1047 -0.4545 -0.1059
   26MOL0     C 3393   1.503   5.904   8.983  0.0236 -0.4445 -0.2024
   26MOL0     C 3394   1.391   5.969   9.011  0.3076  0.3946 -0.0319
   26MOL0     C 3395   1.352   6.045   9.134 -1.4382 -0.9163 -0.7391
   26MOL0     C 3396   1.459   6.153   9.165 -0.4068 -0.3888 -0.3822
   26MOL0     C 3397   1.434   6.224   9.300 -0.5827 -0.1702 -0.1906
   26MOL0     C 3398   1.327   6.332   9.293 -0.0438  1.5338 -0.5243
   26MOL0     O 3399   1.322   6.415   9.411 -0.1343  0.5207 -0.0885
   26MOL0     C 3400   1.201   6.473   9.447  0.6251 -0.2040  0.2455
   26MOL0     C 3401   1.180   6.538   9.569  0.2087  0.4963 -0.7934
   26MOL0     C 3402   1.050   6.586   9.602  0.1433 -0.4116 -1.0150
   26MOL0     C 3403   0.937   6.574   9.518  0.2445 -0.3956 -0.8466
   26MOL0     C 3404   0.804   6.637   9.550  0.3266 -0.0268 -0.2504
   26MOL0     O 3405   0.707   6.634   9.456  0.1203 -0.0010 -0.5632
   26MOL0     C 3406   0.587   6.704   9.476 -0.5305  0.6909  0.7558
   26MOL0     C 3407   0.581   6.837   9.445  0.1232 -0.8972 -1.3502
   26MOL0     C 3408   0.468   6.916   9.461  0.5384 -0.1588 -0.4618
   26MOL0     C 3409   0.357   6.858   9.514  0.1689  0.1367  0.1252
   26MOL0     O 3410   0.264   6.944   9.569  0.4489 -0.1025  0.0466
   26MOL0     C 3411   0.168   6.895   9.652  0.6779 -0.0391 -0.0531
   26MOL0     C 3412   0.100   7.010   9.726 -0.7718 -0.0860 -0.0484
   26MOL0     C 3413  -0.002   7.090   9.634  0.0114 -0.0085  0.3284
   26MOL0     C 3414  -0.056   7.215   9.712 -0.1572  0.1912 -0.8328
   26MOL0     C 3415  -0.125   7.310   9.610  0.1938 -0.4546 -0.1619
   26MOL0     C 3416  -0.239   7.243   9.546 -0.8560  0.9481  0.1710
   26MOL0     C 3417  -0.347   7.342   9.514  0.1357  0.0690  1.1971
   26MOL0     C 3418  -0.460   7.284   9.418 -0.3077 -0.1026  0.0419
   26MOL0    Cl 3419  -0.562   7.423   9.400  0.1611 -0.2419  0.1664
   26MOL0     C 3420   0.361   6.718   9.540 -1.1721  0.7643  0.8399
   26MOL0     C 3421   0.477   6.641   9.528 -1.2987  0.4495  0.2509
   26MOL0     O 3422   0.798   6.689   9.661 -0.0057  0.6276 -0.0209
   26MOL0     C 3423   0.967   6.528   9.390 -0.8805 -0.4157  0.6204
   26MOL0     C 3424   1.090   6.477   9.353  0.5492 -1.0542 -0.3467
   26MOL0     N 3425   1.297   5.937   8.911 -0.0769  0.3835  0.3945
   26MOL0     N 3426   1.350   5.868   8.817 -0.2421 -0.6955  0.3627
   26MOL0     C 3427   2.491   5.587   8.283 -0.0186 -0.1465 -0.5700
   26MOL0     C 3428   2.558   5.698   8.232  1.0141  0.1709  0.2817
   26MOL0     C 3429   2.727   6.016   8.040 -0.0614  0.5211  0.5401
   26MOL0     C 3430   2.732   6.058   7.903 -0.1033 -1.0858 -0.0670
   26MOL0     C 3431   2.841   6.132   7.845  0.0243  0.1199 -0.4304
   26MOL0     C 3432   2.940   6.171   7.937 -0.0808 -0.2996  0.2487
   26MOL0     O 3433   3.054   6.242   7.906 -0.5867  0.2979  0.6579
   26MOL0     C 3434   3.079   6.284   7.771  0.1342  0.7932 -0.8467
   26MOL0     C 3435   3.210   6.361   7.766  0.0764 -0.1909  1.0479
   26MOL0     C 3436   3.340   6.283   7.815  0.1564 -0.2681  0.0552
   26MOL0     C 3437   3.472   6.347   7.757 -0.0690 -1.0568 -0.3106
   26MOL0     C 3438   3.582   6.256   7.767 -0.2517  0.2685 -0.3241
   26MOL0     C 3439   3.681   6.194   7.762 -0.7685  0.2202  0.1745
   26MOL0     C 3440   2.943   6.117   8.059  0.1780  0.3736  0.0801
   26MOL0     C 3441   2.842   6.036   8.118  0.1454 -0.1302  0.4838
   26MOL0     C 3442   2.867   6.001   8.263 -0.1995 -0.3258  0.2439
   26MOL0     H 3443   2.391   5.947   8.415  1.0966 -0.4560  0.4389
   26MOL0     H 3444   2.295   5.748   8.507 -1.0827  0.1977 -0.3589
   26MOL0     H 3445   2.310   5.422   8.622  0.2588 -1.5829 -2.5686
   26MOL0     H 3446   2.282   5.578   8.606  0.8005 -0.2086 -1.7954
   26MOL0     H 3447   2.102   5.360   8.488 -0.3235  1.1749 -1.2986
   26MOL0     H 3448   2.101   5.516   8.411  0.1621 -2.5981 -1.5227
   26MOL0     H 3449   2.041   5.464   8.709 -0.0463  4.3744  2.7357
   26MOL0     H 3450   1.922   5.508   8.580  0.2854  0.2666 -1.0080
   26MOL0     H 3451   2.132   5.698   8.678  0.9796 -2.0293 -1.6859
   26MOL0     H 3452   2.048   5.708   8.530  1.2794 -3.6747 -1.5232
   26MOL0     H 3453   1.924   5.694   8.821  0.8254  0.2204 -0.0205
   26MOL0     H 3454   1.953   5.844   8.725  0.2897  0.3728 -1.2751
   26MOL0     H 3455   1.779   5.763   8.566  0.2828  5.4902  2.1670
   26MOL0     H 3456   1.756   5.624   8.686 -0.5352 -0.7711 -0.7201
   26MOL0     H 3457   1.643   5.895   8.673 -2.7162 -1.2030  0.2269
   26MOL0     H 3458   1.735   5.874   8.819 -0.1478  2.1932 -1.3141
   26MOL0     H 3459   1.514   5.682   8.717 -1.4654  0.2122  0.5328
   26MOL0     H 3460   1.601   5.668   8.868 -0.7172 -3.2626 -2.7161
   26MOL0     H 3461   1.599   5.901   9.035 -1.0987 -4.3021  2.0620
   26MOL0     H 3462   1.264   6.099   9.097  0.0203  1.2321 -1.2857
   26MOL0     H 3463   1.337   5.981   9.221  3.4498 -0.0135  1.1135
   26MOL0     H 3464   1.555   6.102   9.179  0.4908  1.8185  2.4632
   26MOL0     H 3465   1.459   6.225   9.083  1.4008  1.6352  1.2817
   26MOL0     H 3466   1.533   6.264   9.321 -0.1053 -0.8549 -1.0876
   26MOL0     H 3467   1.400   6.155   9.378 -0.5932 -0.4878 -0.4777
   26MOL0     H 3468   1.230   6.284   9.276  0.3864  0.7287 -0.7764
   26MOL0     H 3469   1.360   6.393   9.208  2.7736  0.0734 -0.5875
   26MOL0     H 3470   1.256   6.533   9.647 -1.6057  0.8191  1.0961
   26MOL0     H 3471   1.049   6.634   9.699  0.8966 -0.6558 -0.8811
   26MOL0     H 3472   0.663   6.900   9.412  0.2388 -0.0475  0.4234
   26MOL0     H 3473   0.469   7.020   9.430  0.4773  0.5384  1.6955
   26MOL0     H 3474   0.095   6.834   9.599  0.9858 -1.7316  1.3919
   26MOL0     H 3475   0.207   6.826   9.727 -3.0227  2.6185  4.9444
   26MOL0     H 3476   0.037   6.969   9.805 -2.8220  0.5079 -1.2875
   26MOL0     H 3477   0.174   7.072   9.778 -0.1711  0.7191 -1.7679
   26MOL0     H 3478   0.058   7.121   9.548  2.1418 -2.3597  0.8483
   26MOL0     H 3479  -0.080   7.021   9.599 -1.3004  1.8037 -0.4851
   26MOL0     H 3480   0.027   7.270   9.757 -2.3079  0.5892  3.1808
   26MOL0     H 3481  -0.114   7.193   9.802  0.1825  0.5821 -0.5113
   26MOL0     H 3482  -0.050   7.341   9.537 -0.4979  0.1587 -0.6279
   26MOL0     H 3483  -0.158   7.396   9.669  0.5486 -0.6206  0.2906
   26MOL0     H 3484  -0.207   7.193   9.454  0.4304 -0.0929  1.1407
   26MOL0     H 3485  -0.279   7.175   9.622  0.6895 -2.1589 -1.6119
   26MOL0     H 3486  -0.305   7.430   9.465  0.7369  0.2571  2.0254
   26MOL0     H 3487  -0.390   7.386   9.605 -0.8630  1.3516  0.1538
   26MOL0     H 3488  -0.423   7.245   9.323 -2.5322 -1.9311 -0.1483
   26MOL0     H 3489  -0.513   7.196   9.457 -3.2615  0.4586 -2.3467
   26MOL0     H 3490   0.276   6.674   9.590 -0.4536  0.0158  1.4154
   26MOL0     H 3491   0.492   6.538   9.560  1.0328  1.3084  2.3256
   26MOL0     H 3492   0.887   6.541   9.317 -2.4818 -0.2103  2.3396
   26MOL0     H 3493   1.085   6.447   9.248  0.4882 -1.1440 -0.3187
   26MOL0     H 3494   2.504   5.494   8.229  3.7274  1.7363 -3.4422
   26MOL0     H 3495   2.629   5.682   8.152  1.2320  2.8816 -0.1441
   26MOL0     H 3496   2.646   6.042   7.839 -0.9491  2.9921 -0.2037
   26MOL0     H 3497   2.819   6.162   7.744 -2.9934  1.5364  0.5556
   26MOL0     H 3498   2.997   6.349   7.738  0.8769  3.4792  2.1522
   26MOL0     H 3499   3.094   6.196   7.708 -1.4195 -0.2236  0.1203
   26MOL0     H 3500   3.194   6.455   7.818 -1.5921 -0.1697  0.5324
   26MOL0     H 3501   3.245   6.386   7.665  2.5882 -0.4009  1.7872
   26MOL0     H 3502   3.334   6.179   7.781  0.1712 -0.1837 -0.2052
   26MOL0     H 3503   3.348   6.281   7.924 -2.1272 -0.3786  0.2779
   26MOL0     H 3504   3.460   6.363   7.650  3.9501 -1.5033 -0.9831
   26MOL0     H 3505   3.477   6.441   7.813 -3.2888  0.5376 -2.3768
   26MOL0     H 3506   3.782   6.157   7.755  0.1515  1.7178  3.3788
   26MOL0     H 3507   3.023   6.155   8.122  0.0454  4.0548 -1.6765
   26MOL0     H 3508   2.829   5.901   8.284 -2.3271  0.8912  2.6467
   26MOL0     H 3509   2.975   6.011   8.280  0.1300  2.7764 -2.5655
   26MOL0     H 3510   2.821   6.066   8.338 -0.5157 -0.5412  0.2367
   27MOL0     O 3511   1.929  11.389   2.823  0.5066  0.4483  0.0498
   27MOL0     C 3512   1.992  11.292   2.795  0.0423  1.1636  0.0976
   27MOL0     O 3513   2.058  11.209   2.892 -0.2826  0.8313  0.8585
   27MOL0     C 3514   2.015  11.201   3.023 -0.9689 -0.4722 -0.1855
   27MOL0     C 3515   1.971  11.069   3.055  0.0798  0.2282  0.0460
   27MOL0     C 3516   1.928  11.050   3.189 -0.3866 -0.3232 -0.5919
   27MOL0     C 3517   1.913  11.151   3.286  0.1138  0.3290 -0.5883
   27MOL0     O 3518   1.866  11.121   3.408  0.0997 -0.1154 -0.1758
   27MOL0     C 3519   1.846  11.226   3.501  0.6104  0.2934 -0.9779
   27MOL0     C 3520   1.802  11.149   3.620 -0.4166 -0.0026 -0.2195
   27MOL0     C 3521   1.739  11.235   3.732 -0.3804  0.4854  0.0361
   27MOL0     C 3522   1.709  11.153   3.859 -1.0468  0.2938  0.7603
   27MOL0     C 3523   1.649  11.233   3.974 -0.3836  0.4807  0.5021
   27MOL0     C 3524   1.594  11.133   4.073  0.6958 -0.1036 -0.3241
   27MOL0     C 3525   1.472  11.200   4.143 -0.1170 -0.2903 -0.1673
   27MOL0     C 3526   1.405  11.119   4.253 -0.4625 -0.8862 -0.0813
   27MOL0     N 3527   1.332  11.205   4.349 -0.1144  0.3156  0.2499
   27MOL0     C 3528   1.381  11.310   4.421  0.3222  0.1601  0.2180
   27MOL0     C 3529   1.284  11.346   4.503 -0.7922 -0.2482 -0.5954
   27MOL0     C 3530   1.296  11.449   4.604  0.2031 -0.5356 -1.1546
   27MOL0     C 3531   1.264  11.394   4.737 -0.3143  0.2211 -0.4168
   27MOL0     C 3532   1.112  11.408   4.777  0.1764 -0.6657 -0.0751
   27MOL0     C 3533   1.071  11.330   4.899  0.7416  0.4609 -0.1536
   27MOL0     O 3534   1.135  11.194   4.905  0.7809 -0.0001 -0.2844
   27MOL0     C 3535   1.240  11.176   4.990  0.2153 -0.3390 -0.8409
   27MOL0     C 3536   1.277  11.047   5.006 -0.4974 -0.2359 -1.1645
   27MOL0     C 3537   1.385  11.008   5.085  0.3671  0.6596 -0.0544
   27MOL0     C 3538   1.463  11.103   5.146 -0.0867 -0.3517  0.2439
   27MOL0     C 3539   1.569  11.065   5.242  0.8291  0.2736  0.3338
   27MOL0     O 3540   1.660  11.155   5.276  0.7686 -0.4580 -0.1627
   27MOL0     C 3541   1.746  11.110   5.366  0.8803 -0.2205 -0.4881
   27MOL0     C 3542   1.839  11.015   5.345 -0.6690 -0.5353 -0.3217
   27MOL0     C 3543   1.911  10.959   5.456  0.1764  0.2549  0.4726
   27MOL0     C 3544   1.901  11.019   5.584  0.2301  0.4252 -0.3866
   27MOL0     O 3545   1.986  10.968   5.675  0.1021  0.3315  0.0625
   27MOL0     C 3546   1.952  11.006   5.812  0.0056  0.0913  0.7403
   27MOL0     C 3547   2.028  10.923   5.914  0.3604  0.2067  0.1412
   27MOL0     C 3548   2.182  10.945   5.903 -0.4420 -0.2977 -0.0545
   27MOL0     C 3549   2.251  10.836   5.822 -0.3978  0.4401  0.1424
   27MOL0     C 3550   2.405  10.861   5.821  0.7026 -0.4623  0.0917
   27MOL0     C 3551   2.441  10.962   5.715 -0.4222 -0.1741  0.4618
   27MOL0     C 3552   2.562  11.049   5.751 -0.6524  1.0649  0.0564
   27MOL0     C 3553   2.679  10.969   5.804  0.1438  0.0903  0.2526
   27MOL0    Cl 3554   2.806  11.075   5.862  0.3916  0.0652 -0.4458
   27MOL0     C 3555   1.823  11.133   5.599  0.1754 -0.7247  0.0364
   27MOL0     C 3556   1.761  11.182   5.487 -0.2222  0.0915  0.6134
   27MOL0     O 3557   1.559  10.950   5.288  0.0127 -0.2626 -0.0977
   27MOL0     C 3558   1.430  11.238   5.116 -0.8635  0.7752  0.3116
   27MOL0     C 3559   1.314  11.270   5.057  0.2229  0.4484  0.4051
   27MOL0     N 3560   1.179  11.267   4.475  0.7273  0.0157 -0.0795
   27MOL0     N 3561   1.210  11.176   4.397 -0.0657 -0.4883  0.2285
   27MOL0     C 3562   1.955  11.278   3.255 -0.4319  0.0826  0.9948
   27MOL0     C 3563   2.008  11.305   3.125  0.1732 -1.0642 -0.0669
   27MOL0     C 3564   2.014  11.251   2.654 -0.9335  0.2062  0.5156
   27MOL0     C 3565   2.151  11.208   2.620  1.0106  0.2333 -0.1388
   27MOL0     C 3566   2.163  11.138   2.502 -0.6312 -0.3438  1.0648
   27MOL0     C 3567   2.059  11.119   2.414  0.5773  0.6015  0.5197
   27MOL0     O 3568   2.058  11.042   2.296 -0.1693  0.1755 -0.6731
   27MOL0     C 3569   2.169  10.955   2.258  0.7126 -0.7814 -0.0209
   27MOL0     C 3570   2.142  10.913   2.116 -0.2903 -0.3966  0.2879
   27MOL0     C 3571   2.261  10.817   2.067 -0.0599  0.4082  0.1559
   27MOL0     C 3572   2.234  10.673   2.134 -0.5110 -0.3537  0.5848
   27MOL0     C 3573   2.114  10.614   2.072 -0.8738 -0.2729 -0.7358
   27MOL0     C 3574   2.016  10.591   2.017  0.4674  0.3940  0.3917
   27MOL0     C 3575   1.939  11.174   2.448  0.5998  0.4741  0.6142
   27MOL0     C 3576   1.907  11.227   2.570 -1.3165 -0.0080 -0.3128
   27MOL0     C 3577   1.761  11.268   2.606 -0.2990  0.3072 -0.4341
   27MOL0     H 3578   1.965  10.984   2.988  1.4411  1.2485 -1.4297
   27MOL0     H 3579   1.890  10.956   3.227  0.5622 -0.1542  0.8722
   27MOL0     H 3580   1.931  11.292   3.523  1.8781 -2.4281  3.5691
   27MOL0     H 3581   1.752  11.275   3.474 -0.3397 -0.3321  0.9838
   27MOL0     H 3582   1.898  11.104   3.649 -0.0701 -0.9426 -2.6485
   27MOL0     H 3583   1.724  11.077   3.594  0.6104 -1.8646  1.5209
   27MOL0     H 3584   1.643  11.278   3.702 -0.2818  1.7656  1.4341
   27MOL0     H 3585   1.804  11.319   3.759 -1.5635  1.8713 -1.2126
   27MOL0     H 3586   1.654  11.064   3.824 -1.6034  0.4692  1.1702
   27MOL0     H 3587   1.801  11.105   3.891 -2.3448 -4.2951 -1.4744
   27MOL0     H 3588   1.737  11.281   4.019  2.4840 -1.8918 -2.1266
   27MOL0     H 3589   1.586  11.312   3.933  0.2916  0.8725  0.2083
   27MOL0     H 3590   1.562  11.039   4.026 -0.8841 -0.3519  1.1688
   27MOL0     H 3591   1.674  11.102   4.141  2.3123  2.1606 -1.0908
   27MOL0     H 3592   1.401  11.218   4.063  1.5925 -2.2514 -2.2546
   27MOL0     H 3593   1.508  11.291   4.193  2.8225 -0.5397 -1.6113
   27MOL0     H 3594   1.329  11.061   4.201 -1.5835  0.1617  0.3492
   27MOL0     H 3595   1.475  11.055   4.307 -1.5330 -2.5380 -0.5637
   27MOL0     H 3596   1.482  11.348   4.419  0.5489 -0.3304  1.5354
   27MOL0     H 3597   1.404  11.465   4.601  0.3671 -0.9991  0.6747
   27MOL0     H 3598   1.225  11.529   4.584 -0.7999 -0.5922  1.6829
   27MOL0     H 3599   1.297  11.290   4.744  0.1521  0.2666 -1.7152
   27MOL0     H 3600   1.337  11.445   4.800 -1.3178  2.6904 -1.1179
   27MOL0     H 3601   1.045  11.390   4.692  0.8313  1.5651 -1.1543
   27MOL0     H 3602   1.089  11.512   4.803  1.0871 -0.7832  1.2711
   27MOL0     H 3603   0.962  11.321   4.895  0.6601 -4.2646  3.4979
   27MOL0     H 3604   1.106  11.391   4.982  1.0814 -0.5394  0.4510
   27MOL0     H 3605   1.229  10.959   4.964 -1.1381 -1.3168  1.6375
   27MOL0     H 3606   1.401  10.903   5.107  3.5987  0.6595 -1.8274
   27MOL0     H 3607   1.849  10.969   5.247  0.2862  0.6706 -0.8202
   27MOL0     H 3608   1.970  10.869   5.439 -2.5675 -1.2541 -1.8470
   27MOL0     H 3609   1.982  11.111   5.818 -2.9312  1.1296 -0.5850
   27MOL0     H 3610   1.847  10.992   5.837 -0.1714  0.4611  0.2250
   27MOL0     H 3611   1.997  10.955   6.014 -3.0587  0.8894 -1.0239
   27MOL0     H 3612   2.006  10.818   5.892  0.9502  0.0329  0.3649
   27MOL0     H 3613   2.200  11.046   5.865 -1.5634 -1.2916 -3.7130
   27MOL0     H 3614   2.213  10.931   6.006 -0.5982  1.1210  0.2071
   27MOL0     H 3615   2.217  10.836   5.718 -1.7946  1.5822  0.5615
   27MOL0     H 3616   2.229  10.743   5.875 -6.0615  1.9547  1.0988
   27MOL0     H 3617   2.458  10.766   5.804  1.2116  0.1968 -2.3944
   27MOL0     H 3618   2.436  10.903   5.917 -0.0038  2.1809 -0.7590
   27MOL0     H 3619   2.448  10.911   5.619 -0.0634  0.2025  0.2863
   27MOL0     H 3620   2.353  11.021   5.689 -0.1433 -0.8917 -2.4227
   27MOL0     H 3621   2.526  11.120   5.826 -0.6584 -1.0059  2.1557
   27MOL0     H 3622   2.589  11.109   5.664 -0.9447  0.2879 -0.5827
   27MOL0     H 3623   2.663  10.898   5.885  0.8036  1.2872  1.4741
   27MOL0     H 3624   2.719  10.904   5.727 -0.3224 -0.4809  0.4849
   27MOL0     H 3625   1.802  11.181   5.694 -2.3353  1.5300 -1.4974
   27MOL0     H 3626   1.693  11.268   5.482 -1.1356 -0.6682 -3.3636
   27MOL0     H 3627   1.486  11.317   5.164  1.4322  0.8144 -2.1977
   27MOL0     H 3628   1.298  11.376   5.041 -0.5290  0.7328  2.6144
   27MOL0     H 3629   1.952  11.359   3.327 -0.1357  2.6211 -1.6282
   27MOL0     H 3630   2.033  11.408   3.102 -0.2451 -0.8894  0.2661
   27MOL0     H 3631   2.234  11.245   2.679  0.7336  0.1420  0.3101
   27MOL0     H 3632   2.258  11.089   2.484  0.8199  2.2557  1.1017
   27MOL0     H 3633   2.152  10.869   2.323 -1.4251  0.1976  0.8156
   27MOL0     H 3634   2.262  11.008   2.283  0.1030 -1.7262  5.5614
   27MOL0     H 3635   2.124  10.991   2.043  1.3336  0.4389  0.7261
   27MOL0     H 3636   2.051  10.852   2.113  0.6075 -1.8786  1.4958
   27MOL0     H 3637   2.362  10.852   2.093  1.7849 -2.4935 -2.4343
   27MOL0     H 3638   2.257  10.819   1.958 -2.2445  1.3745  0.1994
   27MOL0     H 3639   2.324  10.612   2.123  1.2614  2.0439  0.9537
   27MOL0     H 3640   2.219  10.673   2.242 -1.3451  1.3414  0.5043
   27MOL0     H 3641   1.927  10.574   1.960  0.2955  1.3329  0.3554
   27MOL0     H 3642   1.860  11.154   2.376  1.8677  0.3349 -0.7785
   27MOL0     H 3643   1.741  11.374   2.585  1.5687  0.4289 -1.8618
   27MOL0     H 3644   1.682  11.215   2.553 -2.5335  0.4464  2.5009
   27MOL0     H 3645   1.749  11.252   2.714 -1.4264  0.2186 -0.5590
   28MOL0     O 3646   6.166   7.757   0.382 -0.1298 -0.1365 -0.2728
   28MOL0     C 3647   6.140   7.632   0.391 -0.7132 -0.5647 -0.3124
   28MOL0     O 3648   6.033   7.570   0.458 -1.0316 -0.1564  0.3813
   28MOL0     C 3649   5.944   7.638   0.534 -0.1171  0.6589  0.2257
   28MOL0     C 3650   5.896   7.578   0.653 -0.7956 -0.9392 -0.9923
   28MOL0     C 3651   5.805   7.649   0.732 -0.2229  0.4913  0.1787
   28MOL0     C 3652   5.762   7.777   0.685  0.7529 -0.0995  0.2305
   28MOL0     O 3653   5.689   7.861   0.768  0.0831  0.4684  0.1121
   28MOL0     C 3654   5.605   7.812   0.878 -0.5688 -1.2096 -0.5632
   28MOL0     C 3655   5.494   7.909   0.919 -0.1220 -0.5713  0.3606
   28MOL0     C 3656   5.399   7.963   0.814 -0.4444  0.7241  0.4283
   28MOL0     C 3657   5.295   8.029   0.893  0.3856 -0.3569  0.0558
   28MOL0     C 3658   5.185   7.933   0.947  0.5377  0.2223 -0.8392
   28MOL0     C 3659   5.050   7.998   0.946  0.5793  0.1792  0.2897
   28MOL0     C 3660   5.036   8.126   1.033  0.0773 -0.7460 -1.3569
   28MOL0     C 3661   4.899   8.184   1.040 -0.6340  0.2071  0.0890
   28MOL0     N 3662   4.815   8.091   1.109 -0.5701  0.2859 -0.8200
   28MOL0     C 3663   4.752   7.983   1.047 -0.7649 -0.2247 -0.8243
   28MOL0     C 3664   4.708   7.910   1.154  0.2651  0.6675  0.0002
   28MOL0     C 3665   4.661   7.771   1.146  0.4200 -0.7987  0.0842
   28MOL0     C 3666   4.509   7.768   1.166  0.1718  0.6386 -0.2134
   28MOL0     C 3667   4.450   7.624   1.154  0.1610  0.6548  0.7143
   28MOL0     C 3668   4.303   7.628   1.133 -0.3777 -0.4326  0.1458
   28MOL0     O 3669   4.262   7.492   1.111 -1.1963  0.2440 -0.7576
   28MOL0     C 3670   4.145   7.432   1.152  0.3883  0.4521  0.3792
   28MOL0     C 3671   4.127   7.306   1.092  0.0390  0.6433  0.1747
   28MOL0     C 3672   4.001   7.244   1.103 -0.2359 -0.1198  0.2753
   28MOL0     C 3673   3.892   7.307   1.168 -0.6997  0.8711 -0.1902
   28MOL0     C 3674   3.760   7.244   1.177 -0.3145  0.1966  0.4636
   28MOL0     O 3675   3.666   7.328   1.226 -0.5615  0.0884 -0.2187
   28MOL0     C 3676   3.540   7.284   1.260 -1.0885  0.9283  0.1173
   28MOL0     C 3677   3.488   7.348   1.368 -0.2653  0.3134 -0.0058
   28MOL0     C 3678   3.366   7.317   1.416  0.1692 -0.0033 -0.1810
   28MOL0     C 3679   3.280   7.217   1.365 -0.5923 -0.1289  0.7998
   28MOL0     O 3680   3.147   7.210   1.403  0.6656  0.0118 -0.3947
   28MOL0     C 3681   3.106   7.072   1.396  0.1927  0.2977 -0.3401
   28MOL0     C 3682   3.014   7.049   1.508  0.3994 -0.1802 -0.3394
   28MOL0     C 3683   2.884   7.125   1.505  0.1311 -0.1345  0.5281
   28MOL0     C 3684   2.795   7.122   1.630  0.9636 -0.6200  0.2223
   28MOL0     C 3685   2.845   7.244   1.704  0.2614  0.6625  0.0810
   28MOL0     C 3686   2.766   7.276   1.828 -0.5161  0.7138  0.2514
   28MOL0     C 3687   2.792   7.421   1.883  0.5940  0.0577  0.3814
   28MOL0     C 3688   2.760   7.436   2.025  0.4144  0.0412  0.0120
   28MOL0    Cl 3689   2.876   7.345   2.131  0.0419  0.1094 -0.0898
   28MOL0     C 3690   3.347   7.148   1.256 -0.0219 -0.4104  0.1741
   28MOL0     C 3691   3.477   7.179   1.208 -0.1904  0.4868 -0.6925
   28MOL0     O 3692   3.749   7.121   1.153 -0.1995  0.5647 -0.5528
   28MOL0     C 3693   3.917   7.423   1.239 -0.5845  0.5950  1.0175
   28MOL0     C 3694   4.046   7.490   1.228 -0.0802 -0.7823  0.5308
   28MOL0     N 3695   4.743   7.980   1.270 -0.0139  0.5793 -0.2434
   28MOL0     N 3696   4.794   8.097   1.240 -0.1482  0.1365 -0.0440
   28MOL0     C 3697   5.806   7.824   0.567 -0.6604  0.0680  1.0763
   28MOL0     C 3698   5.882   7.748   0.482 -0.2660  0.3011  0.3576
   28MOL0     C 3699   6.254   7.551   0.341 -0.8831  0.0244  0.8403
   28MOL0     C 3700   6.379   7.596   0.362  0.0218 -0.3358 -0.1322
   28MOL0     C 3701   6.494   7.525   0.323  0.0980 -0.6330 -0.5312
   28MOL0     C 3702   6.471   7.396   0.261 -0.0140  0.1104 -0.2670
   28MOL0     O 3703   6.583   7.318   0.233  0.1203 -0.0875  0.3837
   28MOL0     C 3704   6.611   7.282   0.096  0.0563 -0.1841  0.8865
   28MOL0     C 3705   6.698   7.385   0.021  0.0419  0.6503 -0.4342
   28MOL0     C 3706   6.832   7.425   0.084  0.1452 -0.1366 -0.4790
   28MOL0     C 3707   6.901   7.549   0.036  0.0039 -0.1631  0.0009
   28MOL0     C 3708   6.862   7.648   0.135 -0.2948 -0.7146  0.4939
   28MOL0     C 3709   6.853   7.726   0.233 -0.4659  1.3206 -0.0245
   28MOL0     C 3710   6.348   7.344   0.237  0.2531  1.2283 -0.1305
   28MOL0     C 3711   6.229   7.423   0.282 -0.0921 -0.1671  0.8367
   28MOL0     C 3712   6.085   7.362   0.256 -0.7518 -0.3461 -0.2576
   28MOL0     H 3713   5.938   7.483   0.684  5.0587  1.4235 -0.5028
   28MOL0     H 3714   5.781   7.603   0.827 -0.8586  1.0107  0.2795
   28MOL0     H 3715   5.553   7.723   0.842 -0.9334 -0.2128 -2.5868
   28MOL0     H 3716   5.659   7.790   0.972 -4.5783  1.3488  2.6775
   28MOL0     H 3717   5.540   7.995   0.969  1.9520 -1.1437 -0.4472
   28MOL0     H 3718   5.437   7.846   0.988 -0.7018  0.9013  1.2889
   28MOL0     H 3719   5.352   7.881   0.759  0.6918 -0.5054  1.2415
   28MOL0     H 3720   5.457   8.031   0.750  2.2592 -0.5391  1.3916
   28MOL0     H 3721   5.326   8.093   0.976 -2.3771 -0.7121  1.4643
   28MOL0     H 3722   5.248   8.090   0.816 -1.9762 -0.1191  1.5836
   28MOL0     H 3723   5.182   7.842   0.886  0.5436  1.4482 -2.7633
   28MOL0     H 3724   5.192   7.897   1.049 -1.1314 -0.1704 -0.8485
   28MOL0     H 3725   5.009   8.014   0.846  0.9170  1.5963  0.3607
   28MOL0     H 3726   4.986   7.918   0.984  0.0342  1.0045  1.1428
   28MOL0     H 3727   5.107   8.206   1.010  0.6523 -0.6471  0.5920
   28MOL0     H 3728   5.071   8.098   1.133  0.1659  1.5134 -0.7022
   28MOL0     H 3729   4.902   8.281   1.090  2.2224  0.8347 -1.0809
   28MOL0     H 3730   4.855   8.204   0.941  1.0217  0.8147 -0.5618
   28MOL0     H 3731   4.745   7.975   0.939  0.2130  0.5848 -0.9617
   28MOL0     H 3732   4.670   7.717   1.051 -2.1625 -3.3627  1.1502
   28MOL0     H 3733   4.713   7.717   1.226  1.0905 -0.0457  0.1753
   28MOL0     H 3734   4.483   7.806   1.266  0.6401 -1.3268  0.7059
   28MOL0     H 3735   4.459   7.831   1.092 -2.2262 -0.0665  0.7051
   28MOL0     H 3736   4.472   7.564   1.243  2.3615 -0.7429 -0.6877
   28MOL0     H 3737   4.500   7.576   1.070  0.6563 -1.3187  2.0540
   28MOL0     H 3738   4.283   7.685   1.042 -1.5486  1.9983  1.8256
   28MOL0     H 3739   4.267   7.667   1.229 -0.0782  0.1363  0.0286
   28MOL0     H 3740   4.208   7.263   1.034 -1.1282 -2.0041  0.3920
   28MOL0     H 3741   3.986   7.148   1.055  0.8855 -0.1890  0.0493
   28MOL0     H 3742   3.536   7.429   1.421 -1.0827  0.7440  0.1027
   28MOL0     H 3743   3.313   7.367   1.496 -3.3585 -2.1745 -0.9419
   28MOL0     H 3744   3.039   7.062   1.310 -3.6625 -0.6394  2.4575
   28MOL0     H 3745   3.189   7.001   1.390  0.2453  0.1744  1.4377
   28MOL0     H 3746   2.994   6.941   1.501 -2.1555  0.2252 -0.5131
   28MOL0     H 3747   3.068   7.070   1.600  2.5578 -0.3967 -1.4932
   28MOL0     H 3748   2.897   7.225   1.462 -0.7005 -0.3096 -0.1480
   28MOL0     H 3749   2.820   7.072   1.434 -1.7503 -0.0599  2.0976
   28MOL0     H 3750   2.811   7.029   1.686  0.4987  0.4961  2.3390
   28MOL0     H 3751   2.688   7.120   1.609  1.1465 -0.9081 -0.7081
   28MOL0     H 3752   2.840   7.327   1.633 -4.9404 -1.3912 -2.5188
   28MOL0     H 3753   2.951   7.241   1.730  0.2588 -1.8259  0.0372
   28MOL0     H 3754   2.660   7.251   1.822 -0.2014 -1.3500  2.1983
   28MOL0     H 3755   2.803   7.215   1.911 -1.7029  1.8959  1.7174
   28MOL0     H 3756   2.717   7.468   1.818  0.2322 -3.0536 -1.7010
   28MOL0     H 3757   2.891   7.461   1.861 -0.5947  1.9328 -2.0953
   28MOL0     H 3758   2.748   7.543   2.046 -1.4349 -0.1683  0.2058
   28MOL0     H 3759   2.661   7.392   2.041  0.7268 -0.2662  1.2051
   28MOL0     H 3760   3.301   7.077   1.188 -0.5786  0.1457 -0.0401
   28MOL0     H 3761   3.516   7.123   1.123  0.4835  0.6181 -0.4716
   28MOL0     H 3762   3.842   7.475   1.298  1.9400  1.7225  3.4922
   28MOL0     H 3763   4.048   7.588   1.273 -2.3270  0.2370 -1.3910
   28MOL0     H 3764   5.769   7.916   0.524  4.5845  0.3819 -3.7988
   28MOL0     H 3765   5.911   7.782   0.383 -1.0054  0.0933  0.0662
   28MOL0     H 3766   6.402   7.688   0.416 -1.5738 -0.5721  1.0343
   28MOL0     H 3767   6.591   7.556   0.361 -0.7529  2.5492 -0.7057
   28MOL0     H 3768   6.523   7.265   0.033  1.1722  2.3079 -1.5895
   28MOL0     H 3769   6.674   7.194   0.112  0.8901  0.6606  2.4701
   28MOL0     H 3770   6.647   7.482   0.020  2.4255  2.1578  3.3776
   28MOL0     H 3771   6.721   7.347  -0.079  0.7676 -2.0944  0.6971
   28MOL0     H 3772   6.900   7.345   0.057  2.0744  1.6112 -1.0348
   28MOL0     H 3773   6.813   7.407   0.191 -0.9674 -0.9920 -0.7989
   28MOL0     H 3774   7.006   7.526   0.021 -0.9675 -3.0157 -4.1289
   28MOL0     H 3775   6.872   7.591  -0.061 -2.1709  0.4327  0.8228
   28MOL0     H 3776   6.857   7.790   0.319  1.2713  2.1285 -0.6474
   28MOL0     H 3777   6.337   7.246   0.193  0.4270  0.2330  1.9416
   28MOL0     H 3778   6.054   7.294   0.335 -0.2913 -1.4858 -1.0331
   28MOL0     H 3779   6.007   7.439   0.250 -1.3844 -0.9970 -0.6271
   28MOL0     H 3780   6.082   7.319   0.156 -2.7485  2.3402 -1.4967
   29MOL0     O 3781   7.188   1.230   5.924  0.5905  0.7170 -1.1382
   29MOL0     C 3782   7.183   1.335   5.860 -1.0898  0.6792  0.5284
   29MOL0     O 3783   7.178   1.337   5.718  0.4264  0.0454  0.5294
   29MOL0     C 3784   7.138   1.221   5.641  1.1914  0.4347 -0.6247
   29MOL0     C 3785   7.052   1.120   5.690 -0.0494  0.5613 -0.9652
   29MOL0     C 3786   7.024   1.004   5.619 -0.1444  0.3257  0.3096
   29MOL0     C 3787   7.085   0.983   5.491 -0.9472 -0.2157 -0.4183
   29MOL0     O 3788   7.077   0.865   5.415 -0.7291 -0.4556  0.1607
   29MOL0     C 3789   7.071   0.740   5.469 -0.4336 -0.0088  0.0962
   29MOL0     C 3790   7.135   0.640   5.359  0.0757  0.0259 -0.3518
   29MOL0     C 3791   7.287   0.669   5.325  1.0997  0.5655  0.3589
   29MOL0     C 3792   7.340   0.554   5.243  0.0596  1.0982 -0.9357
   29MOL0     C 3793   7.478   0.598   5.189  0.1739  0.1493  0.1947
   29MOL0     C 3794   7.541   0.505   5.093 -0.4615  0.3312  0.0867
   29MOL0     C 3795   7.477   0.499   4.951 -0.3020 -0.5880  0.3442
   29MOL0     C 3796   7.476   0.624   4.859  0.1165  0.3839 -0.1797
   29MOL0     N 3797   7.611   0.656   4.815 -0.1404 -0.1358 -0.6659
   29MOL0     C 3798   7.712   0.732   4.878 -0.2778 -1.0231  0.3876
   29MOL0     C 3799   7.794   0.784   4.778 -0.5367  0.4624  0.1315
   29MOL0     C 3800   7.917   0.876   4.798  0.5317 -0.4258  0.0345
   29MOL0     C 3801   8.055   0.800   4.796 -0.0863  0.2938  0.6741
   29MOL0     C 3802   8.083   0.718   4.921 -1.2797  0.5605  0.4822
   29MOL0     C 3803   8.226   0.635   4.923 -0.4995  0.1668 -0.2667
   29MOL0     O 3804   8.310   0.685   5.025 -0.4644  0.0041 -0.0600
   29MOL0     C 3805   8.411   0.602   5.070  0.0757 -0.0283  0.2871
   29MOL0     C 3806   8.490   0.658   5.170  0.2943 -0.3966 -0.3803
   29MOL0     C 3807   8.597   0.590   5.223  0.0937  0.3879 -0.2765
   29MOL0     C 3808   8.626   0.448   5.190 -0.2512 -0.2578 -1.2278
   29MOL0     C 3809   8.731   0.370   5.260 -0.0782 -0.7507 -0.2898
   29MOL0     O 3810   8.797   0.426   5.366 -0.5087 -0.3160  0.0378
   29MOL0     C 3811   8.884   0.352   5.442 -0.3192  0.2001  0.3683
   29MOL0     C 3812   8.985   0.264   5.391  1.3596 -0.4708  0.3570
   29MOL0     C 3813   9.049   0.177   5.479  0.4775 -0.2446 -0.2838
   29MOL0     C 3814   9.017   0.174   5.617  0.2673  0.7259 -0.0254
   29MOL0     O 3815   9.066   0.079   5.705  0.1370 -0.2635 -0.0604
   29MOL0     C 3816   9.106  -0.043   5.650  0.1932 -0.6269  0.5492
   29MOL0     C 3817   9.195  -0.114   5.739 -0.2162  0.9875 -0.1207
   29MOL0     C 3818   9.289  -0.022   5.817  0.8013 -0.4861  0.7072
   29MOL0     C 3819   9.369  -0.111   5.910 -0.3260 -0.2153 -0.7501
   29MOL0     C 3820   9.517  -0.075   5.962 -0.1594 -0.2061  0.1902
   29MOL0     C 3821   9.532   0.078   5.979 -0.7076 -0.2456 -0.2228
   29MOL0     C 3822   9.458   0.115   6.111  0.0466  0.3497  1.0302
   29MOL0     C 3823   9.463   0.257   6.166  0.1756  0.5373  1.1578
   29MOL0    Cl 3824   9.331   0.274   6.295 -0.2627  0.0185  0.7185
   29MOL0     C 3825   8.932   0.271   5.664  0.3464 -0.0980 -0.8563
   29MOL0     C 3826   8.868   0.361   5.584  0.0763  0.3621 -0.0753
   29MOL0     O 3827   8.741   0.256   5.216  0.4424  0.3232 -0.2179
   29MOL0     C 3828   8.541   0.389   5.082  0.5878 -1.2085  0.7661
   29MOL0     C 3829   8.436   0.468   5.032  0.7660  0.7648  0.0160
   29MOL0     N 3830   7.757   0.720   4.667 -1.4142 -0.2705 -0.5572
   29MOL0     N 3831   7.655   0.648   4.688 -0.2810  0.1578  0.3760
   29MOL0     C 3832   7.160   1.087   5.437 -0.2889 -0.1427  0.1130
   29MOL0     C 3833   7.178   1.204   5.510  0.1757 -0.0040  0.0997
   29MOL0     C 3834   7.182   1.469   5.923 -0.1435  0.0773 -0.1853
   29MOL0     C 3835   7.136   1.586   5.858  0.2485  0.0440 -0.1598
   29MOL0     C 3836   7.126   1.710   5.933  0.4315  0.7339 -0.8008
   29MOL0     C 3837   7.168   1.719   6.065  0.1629 -0.1623  0.4068
   29MOL0     O 3838   7.161   1.847   6.122  0.7350  0.6696  0.2417
   29MOL0     C 3839   7.202   1.853   6.259 -1.6376  1.0980 -0.0343
   29MOL0     C 3840   7.187   1.999   6.320 -0.4315  0.3290 -0.6432
   29MOL0     C 3841   7.245   2.108   6.224  0.1504  0.3798  0.3551
   29MOL0     C 3842   7.225   2.241   6.297  0.1579  0.5345 -0.0174
   29MOL0     C 3843   7.081   2.269   6.290  0.3595 -0.8009 -0.3161
   29MOL0     C 3844   6.962   2.308   6.314  0.1994 -0.0565  0.6386
   29MOL0     C 3845   7.222   1.604   6.122  0.1373 -0.1655 -0.4723
   29MOL0     C 3846   7.238   1.488   6.053 -0.2272  0.5133 -0.2394
   29MOL0     C 3847   7.317   1.384   6.121 -0.4565  0.2064 -0.8320
   29MOL0     H 3848   6.986   1.139   5.774  0.2779 -0.1830 -0.5316
   29MOL0     H 3849   6.960   0.928   5.663 -0.0385  0.0884  0.0518
   29MOL0     H 3850   7.125   0.747   5.564 -1.2436  0.9256  0.5059
   29MOL0     H 3851   6.966   0.714   5.485 -0.6309 -0.8202 -2.2595
   29MOL0     H 3852   7.077   0.646   5.266 -0.9788  3.3273  0.3645
   29MOL0     H 3853   7.121   0.541   5.402 -1.5774  0.1234 -0.5883
   29MOL0     H 3854   7.334   0.684   5.423 -3.3221  2.2162  2.4841
   29MOL0     H 3855   7.301   0.765   5.273  0.7073  0.3731 -0.1044
   29MOL0     H 3856   7.373   0.472   5.308  2.1130  2.1746 -0.5277
   29MOL0     H 3857   7.264   0.527   5.170 -1.1686  0.3200  0.5631
   29MOL0     H 3858   7.462   0.698   5.149 -3.4521 -1.2956 -2.4726
   29MOL0     H 3859   7.550   0.601   5.271  2.1958  1.2217 -1.5082
   29MOL0     H 3860   7.643   0.535   5.067  0.7171 -2.7395  0.7657
   29MOL0     H 3861   7.556   0.408   5.143 -0.5373  0.5276  0.4958
   29MOL0     H 3862   7.370   0.479   4.963 -0.9708  2.0737 -0.4051
   29MOL0     H 3863   7.514   0.414   4.894 -0.4885 -0.4196 -0.0304
   29MOL0     H 3864   7.415   0.597   4.772 -1.7327 -1.2856  1.5312
   29MOL0     H 3865   7.442   0.710   4.918  0.2068 -0.7334  1.5648
   29MOL0     H 3866   7.732   0.746   4.984 -2.3075  2.1574  0.4920
   29MOL0     H 3867   7.932   0.941   4.712  0.6034 -2.0230 -1.2147
   29MOL0     H 3868   7.895   0.931   4.890  0.6772  2.2993 -1.4692
   29MOL0     H 3869   8.064   0.734   4.709  0.9138  1.9186 -0.5204
   29MOL0     H 3870   8.125   0.883   4.780  0.0045  0.1896  0.5231
   29MOL0     H 3871   8.009   0.637   4.919 -2.3611  1.5394 -0.0313
   29MOL0     H 3872   8.072   0.775   5.013 -3.3290  1.0783 -0.0454
   29MOL0     H 3873   8.277   0.654   4.828 -1.2041 -1.5795 -1.0371
   29MOL0     H 3874   8.203   0.528   4.930  2.1503 -0.6701 -2.3975
   29MOL0     H 3875   8.483   0.760   5.205  0.0409 -0.7884  0.7357
   29MOL0     H 3876   8.640   0.644   5.307 -0.9683 -1.7821  1.7768
   29MOL0     H 3877   8.989   0.264   5.282  0.2394 -0.9379  0.3077
   29MOL0     H 3878   9.118   0.115   5.422  0.9138  1.2698 -1.4663
   29MOL0     H 3879   9.023  -0.103   5.612 -0.3234 -0.7891  1.8777
   29MOL0     H 3880   9.170  -0.016   5.565 -0.6590 -0.5421 -0.0881
   29MOL0     H 3881   9.143  -0.177   5.811  2.1295 -1.3250 -0.3199
   29MOL0     H 3882   9.249  -0.188   5.679  1.4472  2.2269 -0.2192
   29MOL0     H 3883   9.357   0.017   5.741  1.7747 -3.3174  0.0212
   29MOL0     H 3884   9.251   0.062   5.877 -1.9666 -2.3231  1.7187
   29MOL0     H 3885   9.375  -0.208   5.860 -1.0458  0.5043 -2.2957
   29MOL0     H 3886   9.306  -0.133   5.998  0.3300 -0.2883 -0.2925
   29MOL0     H 3887   9.592  -0.112   5.892  2.0082  0.9959  1.7552
   29MOL0     H 3888   9.540  -0.125   6.056 -0.5212 -0.9541 -0.1122
   29MOL0     H 3889   9.639   0.102   5.976 -0.6736 -0.0369 -4.6016
   29MOL0     H 3890   9.492   0.145   5.902  0.1461 -0.6274 -1.0242
   29MOL0     H 3891   9.478   0.046   6.193 -4.3335 -3.0393 -0.3497
   29MOL0     H 3892   9.351   0.097   6.095  0.4296  0.8551 -3.8167
   29MOL0     H 3893   9.560   0.293   6.204  0.8607  0.6716 -0.6177
   29MOL0     H 3894   9.436   0.323   6.083  0.5345  0.8536  1.2871
   29MOL0     H 3895   8.907   0.267   5.769  1.1458  1.0867 -0.5980
   29MOL0     H 3896   8.802   0.439   5.622 -0.0677  0.7351 -1.0588
   29MOL0     H 3897   8.561   0.293   5.035 -0.5078  0.0451 -2.5357
   29MOL0     H 3898   8.368   0.420   4.963  2.8322 -1.0184 -0.9176
   29MOL0     H 3899   7.214   1.093   5.343 -0.2918 -1.1361  0.0434
   29MOL0     H 3900   7.233   1.285   5.462  1.2784 -0.0855  1.1725
   29MOL0     H 3901   7.106   1.594   5.754  1.8446 -0.4644 -0.6881
   29MOL0     H 3902   7.090   1.802   5.888  0.0712  1.0746  0.1775
   29MOL0     H 3903   7.308   1.828   6.266 -1.6166 -0.7849 -4.0719
   29MOL0     H 3904   7.150   1.777   6.318  2.1396  1.2537  3.9693
   29MOL0     H 3905   7.227   1.996   6.422 -1.0184 -5.1534 -0.2803
   29MOL0     H 3906   7.079   2.013   6.328 -0.4351 -0.1832  0.4137
   29MOL0     H 3907   7.197   2.111   6.126 -0.5739 -1.0631  0.6445
   29MOL0     H 3908   7.351   2.091   6.201 -0.3122 -0.6073 -1.2153
   29MOL0     H 3909   7.267   2.237   6.398  1.1018 -0.2104 -0.4197
   29MOL0     H 3910   7.277   2.323   6.249 -1.1212  1.4178  0.0438
   29MOL0     H 3911   6.859   2.322   6.338 -0.1991  0.0021 -0.9885
   29MOL0     H 3912   7.244   1.611   6.228 -1.3992  2.0442 -0.2482
   29MOL0     H 3913   7.389   1.342   6.051 -1.2943  0.9898 -2.2175
   29MOL0     H 3914   7.364   1.412   6.215 -5.1011 -0.0544  1.8959
   29MOL0     H 3915   7.247   1.308   6.158 -0.4054  0.4557 -0.2118
   30MOL0     O 3916   2.260   9.267   2.725 -0.0927 -0.3813  0.0393
   30MOL0     C 3917   2.171   9.191   2.733  0.1100 -0.1758 -0.4401
   30MOL0     O 3918   2.189   9.062   2.781 -0.4506 -0.9036  0.0110
   30MOL0     C 3919   2.307   9.048   2.855 -0.1468 -0.0134 -0.0258
   30MOL0     C 3920   2.419   8.992   2.786 -0.4638 -0.5222  0.5325
   30MOL0     C 3921   2.541   8.966   2.865  0.3506 -1.0241 -0.2979
   30MOL0     C 3922   2.548   8.982   3.004  0.6899 -0.7476  0.1725
   30MOL0     O 3923   2.663   8.959   3.077  0.4618  0.1619 -0.2038
   30MOL0     C 3924   2.713   8.825   3.061  0.0140  0.5715 -1.1997
   30MOL0     C 3925   2.826   8.810   3.162  0.1062 -0.1208  0.2712
   30MOL0     C 3926   2.776   8.850   3.302 -0.1958  0.1320  0.4012
   30MOL0     C 3927   2.891   8.801   3.399  0.3862 -0.2182 -0.4046
   30MOL0     C 3928   2.849   8.788   3.546 -0.4273  0.6367 -0.0280
   30MOL0     C 3929   2.793   8.913   3.597 -0.0060 -0.8342  0.9175
   30MOL0     C 3930   2.766   8.913   3.752 -0.0296 -0.0985 -0.7842
   30MOL0     C 3931   2.700   9.040   3.796  0.3020 -0.1919 -0.4140
   30MOL0     N 3932   2.579   9.087   3.722  0.3900 -0.3175 -0.2626
   30MOL0     C 3933   2.446   9.041   3.712  0.3030  0.1480 -0.8659
   30MOL0     C 3934   2.385   9.140   3.640  0.8592 -0.4850  0.6328
   30MOL0     C 3935   2.249   9.149   3.565  0.0260 -0.7625  0.5651
   30MOL0     C 3936   2.238   9.028   3.465  0.0668  0.1167 -0.0680
   30MOL0     C 3937   2.131   9.037   3.357 -0.4622  0.2672 -0.0406
   30MOL0     C 3938   2.078   8.898   3.310  0.3781  0.6737  0.2527
   30MOL0     O 3939   2.006   8.841   3.421  0.5433  0.5731 -0.0191
   30MOL0     C 3940   1.919   8.736   3.404 -0.1988 -0.1232 -0.4104
   30MOL0     C 3941   1.946   8.634   3.309  0.8040  0.3339 -0.4600
   30MOL0     C 3942   1.854   8.533   3.282 -0.1521 -0.4222 -0.1440
   30MOL0     C 3943   1.737   8.534   3.356 -0.4343  0.1790  0.0529
   30MOL0     C 3944   1.634   8.436   3.334  1.1362  0.6508 -0.2777
   30MOL0     O 3945   1.544   8.408   3.434 -0.0688 -0.6945  0.7699
   30MOL0     C 3946   1.450   8.310   3.411  0.5336 -0.2812  0.0784
   30MOL0     C 3947   1.494   8.179   3.396  0.7866 -0.5106 -0.1600
   30MOL0     C 3948   1.389   8.080   3.381  0.3669 -0.1493 -0.2414
   30MOL0     C 3949   1.248   8.115   3.384 -0.1358 -0.8544  0.5176
   30MOL0     O 3950   1.161   8.016   3.378 -0.0779 -0.6766  0.2263
   30MOL0     C 3951   1.028   8.054   3.325  0.4702  0.1471 -0.9189
   30MOL0     C 3952   0.993   7.967   3.208  0.0397  0.3500 -0.0529
   30MOL0     C 3953   0.851   7.963   3.160  0.4033 -0.3443  0.1755
   30MOL0     C 3954   0.756   7.872   3.249 -0.2163  0.6068  0.4014
   30MOL0     C 3955   0.613   7.885   3.203 -0.1265 -0.5069 -0.2592
   30MOL0     C 3956   0.569   8.027   3.159 -0.1529  0.6416  0.0462
   30MOL0     C 3957   0.414   8.042   3.137 -0.7897  0.0046 -0.0443
   30MOL0     C 3958   0.381   8.186   3.092  0.2929 -0.2460  0.2750
   30MOL0    Cl 3959   0.421   8.229   2.915  0.1626  0.6582  0.2118
   30MOL0     C 3960   1.216   8.252   3.403 -0.4081  0.2319  0.5808
   30MOL0     C 3961   1.314   8.351   3.407 -0.4588  0.9062 -0.6859
   30MOL0     O 3962   1.634   8.385   3.220 -0.1846 -0.1487  0.1098
   30MOL0     C 3963   1.730   8.613   3.469  0.5698  0.4335 -0.4746
   30MOL0     C 3964   1.817   8.709   3.499 -0.8262 -0.1431 -0.5539
   30MOL0     N 3965   2.471   9.247   3.634 -0.4285 -0.2418 -0.9800
   30MOL0     N 3966   2.589   9.214   3.671  0.3647 -0.4196  0.2740
   30MOL0     C 3967   2.434   9.037   3.069  0.2672 -0.6471 -0.2108
   30MOL0     C 3968   2.322   9.069   2.989 -0.3741  0.0425  1.2614
   30MOL0     C 3969   2.035   9.240   2.705 -0.8382 -0.4460 -0.1618
   30MOL0     C 3970   1.932   9.187   2.783 -0.0967 -0.8043  0.1690
   30MOL0     C 3971   1.805   9.227   2.768  0.2702 -0.8536  0.5811
   30MOL0     C 3972   1.767   9.295   2.653 -0.2635  0.0975 -0.5482
   30MOL0     O 3973   1.629   9.317   2.635  0.1548  0.2689 -0.7984
   30MOL0     C 3974   1.535   9.227   2.702  0.2749 -0.0160  0.9094
   30MOL0     C 3975   1.400   9.235   2.640 -0.0819  0.0248  0.2010
   30MOL0     C 3976   1.410   9.203   2.491 -0.5007 -0.2245 -0.0466
   30MOL0     C 3977   1.290   9.230   2.395 -0.9689  0.5543  0.7054
   30MOL0     C 3978   1.166   9.167   2.436  0.8125 -0.1475  0.2880
   30MOL0     C 3979   1.054   9.114   2.460 -0.1547 -0.4090 -1.0022
   30MOL0     C 3980   1.869   9.340   2.566 -0.2668  0.1794  0.4559
   30MOL0     C 3981   2.002   9.330   2.598  0.2403  0.1836  0.6596
   30MOL0     C 3982   2.098   9.408   2.511  0.0177 -0.0976  0.5780
   30MOL0     H 3983   2.414   8.965   2.681  0.1521 -3.6463  1.2103
   30MOL0     H 3984   2.626   8.921   2.814 -0.5609 -1.3507 -1.5723
   30MOL0     H 3985   2.632   8.751   3.062 -0.1201  0.6202  1.8598
   30MOL0     H 3986   2.765   8.816   2.965  1.4837 -3.7487 -0.2165
   30MOL0     H 3987   2.905   8.883   3.140  1.2971 -1.4009  0.2144
   30MOL0     H 3988   2.877   8.714   3.149  2.5101  1.2586 -1.3896
   30MOL0     H 3989   2.680   8.803   3.325 -0.7553  1.0346 -0.0182
   30MOL0     H 3990   2.765   8.959   3.305  0.5764  0.2290 -0.2368
   30MOL0     H 3991   2.900   8.700   3.360 -2.0902  0.0739 -1.9646
   30MOL0     H 3992   2.987   8.851   3.383  1.5053 -2.6012 -1.5078
   30MOL0     H 3993   2.785   8.700   3.558  1.8782 -1.4754 -2.0542
   30MOL0     H 3994   2.943   8.770   3.598 -0.2093  1.5334 -0.0956
   30MOL0     H 3995   2.862   8.994   3.574 -1.8020  0.0754 -1.7648
   30MOL0     H 3996   2.693   8.934   3.558 -0.0574  0.6710  1.8126
   30MOL0     H 3997   2.864   8.906   3.800  1.2128  0.0129 -3.1400
   30MOL0     H 3998   2.698   8.838   3.791  1.9677 -1.4034  0.3735
   30MOL0     H 3999   2.661   9.020   3.897  0.3161  0.9619 -0.1599
   30MOL0     H 4000   2.772   9.122   3.798 -1.2513  1.2257  0.9959
   30MOL0     H 4001   2.412   8.945   3.750  2.7042 -0.7417 -0.8039
   30MOL0     H 4002   2.162   9.146   3.631 -2.3746 -2.4747 -2.3987
   30MOL0     H 4003   2.243   9.248   3.518  1.6018 -1.4288 -1.1205
   30MOL0     H 4004   2.338   9.028   3.421 -0.7999  2.5466 -2.3666
   30MOL0     H 4005   2.230   8.934   3.519  1.3473 -0.0995 -0.2142
   30MOL0     H 4006   2.157   9.089   3.264  0.8076 -1.9002 -0.9819
   30MOL0     H 4007   2.052   9.097   3.403  0.3334  1.1196  0.2431
   30MOL0     H 4008   2.151   8.838   3.255  0.1496  0.5704  0.0635
   30MOL0     H 4009   2.010   8.908   3.226  0.7266 -0.7140 -0.2283
   30MOL0     H 4010   2.032   8.629   3.242  0.8029 -0.2159 -0.4305
   30MOL0     H 4011   1.865   8.458   3.204  0.7294 -3.4874  2.7025
   30MOL0     H 4012   1.597   8.145   3.386 -0.8624 -6.2453 -1.6347
   30MOL0     H 4013   1.410   7.975   3.363 -2.8285 -2.2824  5.7015
   30MOL0     H 4014   0.957   8.029   3.405  0.0872 -0.1984 -1.3627
   30MOL0     H 4015   1.015   8.154   3.282  0.9336  0.2889 -0.7406
   30MOL0     H 4016   1.058   8.006   3.129  0.4272  0.7050  0.4341
   30MOL0     H 4017   1.023   7.863   3.226  0.7638  0.5964  0.1985
   30MOL0     H 4018   0.809   8.062   3.141 -3.0926 -2.0550 -2.0915
   30MOL0     H 4019   0.854   7.912   3.064 -1.3264  0.2843 -0.2593
   30MOL0     H 4020   0.757   7.912   3.351 -0.8935  0.0316  0.6389
   30MOL0     H 4021   0.796   7.770   3.258 -2.9597 -0.4315  2.4518
   30MOL0     H 4022   0.561   7.857   3.295 -2.0465  2.0491 -0.4585
   30MOL0     H 4023   0.584   7.805   3.134 -2.6362 -2.7036  3.0126
   30MOL0     H 4024   0.609   8.097   3.233  1.6235  0.2686 -0.5205
   30MOL0     H 4025   0.623   8.052   3.067  0.7812  0.0903  0.4347
   30MOL0     H 4026   0.344   8.026   3.219 -0.4054  1.0283  0.5096
   30MOL0     H 4027   0.376   7.984   3.052 -2.2594 -1.4567  1.5342
   30MOL0     H 4028   0.273   8.200   3.101 -0.0334 -0.5720 -2.3384
   30MOL0     H 4029   0.435   8.251   3.162  0.5575 -1.0526  0.8337
   30MOL0     H 4030   1.113   8.287   3.408 -0.2373  1.2631 -1.8098
   30MOL0     H 4031   1.288   8.454   3.432 -2.0157  0.0486  1.5696
   30MOL0     H 4032   1.656   8.599   3.547  0.6930 -0.8717 -0.5783
   30MOL0     H 4033   1.782   8.774   3.579  1.9982 -1.2794  1.8098
   30MOL0     H 4034   2.435   9.065   3.174 -0.2348  1.0059 -0.6111
   30MOL0     H 4035   2.236   9.120   3.032 -0.9131  1.8689 -1.7489
   30MOL0     H 4036   1.969   9.117   2.857  0.7908  0.2580  0.7625
   30MOL0     H 4037   1.726   9.202   2.838 -0.5104  2.5732  1.1353
   30MOL0     H 4038   1.517   9.250   2.808 -0.2035 -2.2277  1.3586
   30MOL0     H 4039   1.570   9.123   2.704 -3.4452 -1.4194  0.5032
   30MOL0     H 4040   1.341   9.325   2.663 -0.4928 -0.6526  1.9960
   30MOL0     H 4041   1.335   9.155   2.678  2.2458 -3.2916 -2.1847
   30MOL0     H 4042   1.437   9.099   2.468  2.0499  0.1484  0.9477
   30MOL0     H 4043   1.497   9.258   2.454  0.6693 -1.6896  0.4170
   30MOL0     H 4044   1.266   9.334   2.374 -0.8907  1.0996  3.0750
   30MOL0     H 4045   1.322   9.184   2.301 -3.3167  3.1941 -1.5733
   30MOL0     H 4046   0.963   9.059   2.471  1.6749 -3.5890 -0.4638
   30MOL0     H 4047   1.839   9.404   2.483  2.0724  2.6370  1.3486
   30MOL0     H 4048   2.111   9.508   2.554  1.4857 -1.1897  2.8766
   30MOL0     H 4049   2.191   9.352   2.500  1.1268  1.7647 -0.0525
   30MOL0     H 4050   2.059   9.427   2.411  2.3577  1.0318 -0.1931
   31MOL0     O 4051   1.387   6.973   4.212 -0.2995  0.0425 -0.2096
   31MOL0     C 4052   1.333   6.996   4.104  0.0536  0.1620 -0.0271
   31MOL0     O 4053   1.214   7.068   4.092 -0.2003  0.9044  0.3266
   31MOL0     C 4054   1.132   7.101   4.203  0.1720  0.5726 -0.4240
   31MOL0     C 4055   1.137   7.058   4.343 -0.2374  0.5427 -0.0270
   31MOL0     C 4056   1.048   7.104   4.441  0.3869 -0.1596  0.0162
   31MOL0     C 4057   0.944   7.193   4.411 -0.3864  1.3656 -0.8925
   31MOL0     O 4058   0.853   7.222   4.514 -0.3247 -0.3080 -0.6117
   31MOL0     C 4059   0.785   7.352   4.501 -0.3324  0.5482 -0.2291
   31MOL0     C 4060   0.728   7.379   4.638 -0.1556 -0.1826  0.3525
   31MOL0     C 4061   0.584   7.334   4.641 -0.0393  0.5908 -0.4603
   31MOL0     C 4062   0.521   7.365   4.778  0.2381 -0.5975  0.2609
   31MOL0     C 4063   0.391   7.285   4.752  0.0650 -1.0830  0.9321
   31MOL0     C 4064   0.317   7.261   4.886  1.6331 -0.7938  0.0657
   31MOL0     C 4065   0.190   7.176   4.868  0.5380 -0.3487 -1.1915
   31MOL0     C 4066   0.075   7.198   4.971 -0.5941 -0.1563 -0.7230
   31MOL0     N 4067   0.110   7.147   5.099  0.4494 -1.3418 -0.0377
   31MOL0     C 4068   0.179   7.222   5.187 -0.0021  1.3907 -0.2809
   31MOL0     C 4069   0.216   7.132   5.288  0.6525  0.2139 -0.0506
   31MOL0     C 4070   0.281   7.163   5.424 -0.5459  0.7687  0.6748
   31MOL0     C 4071   0.400   7.076   5.453 -1.0954  0.3336  0.1139
   31MOL0     C 4072   0.476   7.115   5.581 -1.5338  0.2065  0.4026
   31MOL0     C 4073   0.610   7.039   5.597 -0.4061  0.0381 -0.2925
   31MOL0     O 4074   0.665   7.065   5.734  0.8658  0.5391 -0.2787
   31MOL0     C 4075   0.727   7.183   5.768  1.3735 -0.0845  0.1900
   31MOL0     C 4076   0.771   7.203   5.894 -0.1282 -0.1779 -0.4273
   31MOL0     C 4077   0.829   7.322   5.938 -0.5630  0.4806  0.0453
   31MOL0     C 4078   0.847   7.424   5.850  0.3785 -0.1840 -1.0246
   31MOL0     C 4079   0.907   7.549   5.905  0.7077  0.3662  0.0448
   31MOL0     O 4080   0.895   7.638   5.805  0.5394  0.3398  0.7901
   31MOL0     C 4081   0.930   7.775   5.817  0.3283 -0.0590  0.2743
   31MOL0     C 4082   0.913   7.846   5.939 -0.4664 -0.3150  0.5405
   31MOL0     C 4083   0.956   7.981   5.953  0.3460 -0.1189  0.4037
   31MOL0     C 4084   1.006   8.052   5.840 -0.4965 -0.1521  0.1678
   31MOL0     O 4085   1.077   8.173   5.843 -0.3970  0.1900 -0.6932
   31MOL0     C 4086   1.051   8.251   5.958  0.0093  0.0192  0.5255
   31MOL0     C 4087   1.156   8.368   5.956  0.3891 -0.5438  0.8658
   31MOL0     C 4088   1.302   8.315   5.941  0.0332 -1.0457 -0.7991
   31MOL0     C 4089   1.402   8.421   5.933 -0.3674 -0.7821  1.0240
   31MOL0     C 4090   1.545   8.375   5.904 -0.4183  0.2401  0.6779
   31MOL0     C 4091   1.624   8.463   5.807  0.3146  0.1916 -0.6043
   31MOL0     C 4092   1.773   8.412   5.790 -0.3216 -0.1560  0.1520
   31MOL0     C 4093   1.853   8.493   5.688  0.1279  0.0483  0.3937
   31MOL0    Cl 4094   2.024   8.443   5.718  0.1826 -0.5487 -0.0368
   31MOL0     C 4095   0.991   7.988   5.717 -0.1457 -0.0849 -0.4014
   31MOL0     C 4096   0.968   7.847   5.709 -0.7350 -0.1830 -0.6504
   31MOL0     O 4097   0.941   7.570   6.028 -0.0628 -0.0480  0.1771
   31MOL0     C 4098   0.805   7.408   5.711  0.3031 -0.0970 -1.0163
   31MOL0     C 4099   0.742   7.289   5.669  0.1903 -0.8141  0.2371
   31MOL0     N 4100   0.180   7.007   5.250 -0.6678 -0.5135 -0.0624
   31MOL0     N 4101   0.115   7.020   5.150  0.2636  0.2456  1.0495
   31MOL0     C 4102   0.947   7.244   4.276 -1.3541 -0.1607 -0.0355
   31MOL0     C 4103   1.035   7.200   4.173 -0.6811  0.5642 -0.6298
   31MOL0     C 4104   1.390   6.948   3.981  0.1694  1.2899 -0.2184
   31MOL0     C 4105   1.339   7.008   3.866  1.2953 -0.3116  0.0531
   31MOL0     C 4106   1.411   7.003   3.743 -0.1681  0.1183 -0.7001
   31MOL0     C 4107   1.522   6.917   3.728  0.1128 -0.0507 -0.6283
   31MOL0     O 4108   1.604   6.893   3.617  0.0973  0.0164  0.6780
   31MOL0     C 4109   1.550   6.954   3.494  0.5298 -0.7116  0.2689
   31MOL0     C 4110   1.659   6.964   3.394 -0.1350 -0.7197 -0.3430
   31MOL0     C 4111   1.687   6.849   3.298 -0.5119 -0.5965 -0.3070
   31MOL0     C 4112   1.593   6.846   3.183  0.1792 -0.7923  0.8057
   31MOL0     C 4113   1.625   6.935   3.071 -0.4028 -0.6105 -0.3225
   31MOL0     C 4114   1.665   7.032   3.006  0.0899  0.4133 -0.1941
   31MOL0     C 4115   1.561   6.842   3.843  0.0859 -0.7743  0.2716
   31MOL0     C 4116   1.497   6.857   3.971 -0.1547  0.0244 -0.0401
   31MOL0     C 4117   1.513   6.753   4.074 -0.2160  0.9781  0.7041
   31MOL0     H 4118   1.208   6.977   4.360 -1.3140 -0.5478 -0.5350
   31MOL0     H 4119   1.057   7.039   4.527  0.0337 -0.8296 -0.4423
   31MOL0     H 4120   0.861   7.427   4.480 -0.1023  0.6225  0.8095
   31MOL0     H 4121   0.712   7.361   4.421  0.3501 -0.7728 -1.0462
   31MOL0     H 4122   0.734   7.487   4.659  0.9955 -0.4158  1.3233
   31MOL0     H 4123   0.781   7.325   4.717 -0.1869 -0.7723 -0.0252
   31MOL0     H 4124   0.592   7.226   4.629 -1.6683 -0.1210  3.3666
   31MOL0     H 4125   0.524   7.381   4.562 -0.9536  2.8033  1.4300
   31MOL0     H 4126   0.584   7.313   4.852  1.8972 -1.1730 -1.4789
   31MOL0     H 4127   0.501   7.470   4.803 -0.6466 -0.7007 -0.0098
   31MOL0     H 4128   0.330   7.337   4.676 -1.9779 -0.3265  2.9726
   31MOL0     H 4129   0.410   7.181   4.724  2.4385 -0.3907 -0.2994
   31MOL0     H 4130   0.369   7.215   4.970 -1.4055 -1.1595  1.9262
   31MOL0     H 4131   0.278   7.355   4.928 -2.6571 -0.6629 -3.4250
   31MOL0     H 4132   0.214   7.070   4.874  0.9210 -0.1926  1.5399
   31MOL0     H 4133   0.144   7.201   4.772 -2.4956 -3.3632 -0.6735
   31MOL0     H 4134   0.049   7.304   4.983  0.8078  0.0289  1.2266
   31MOL0     H 4135  -0.012   7.147   4.929 -0.9373  0.1777 -0.4233
   31MOL0     H 4136   0.206   7.326   5.177 -0.1605  1.4840  0.2482
   31MOL0     H 4137   0.311   7.268   5.429  0.1003  0.5217  3.7162
   31MOL0     H 4138   0.209   7.145   5.504  0.1863 -1.6096  0.8761
   31MOL0     H 4139   0.365   6.973   5.467  0.8348 -0.5729 -1.2172
   31MOL0     H 4140   0.468   7.063   5.368 -1.2733  1.3650 -0.1970
   31MOL0     H 4141   0.404   7.082   5.656 -3.3254  0.9542 -0.9238
   31MOL0     H 4142   0.477   7.224   5.586 -3.1887  0.2875 -0.3905
   31MOL0     H 4143   0.685   7.080   5.528 -0.8078  0.4912 -0.4634
   31MOL0     H 4144   0.610   6.932   5.572 -0.5593 -0.0513  0.0915
   31MOL0     H 4145   0.768   7.113   5.955 -0.9567 -1.2076 -1.9186
   31MOL0     H 4146   0.867   7.333   6.040 -1.7093  1.5129  0.3742
   31MOL0     H 4147   0.891   7.794   6.032  2.0676 -4.3190 -0.8182
   31MOL0     H 4148   0.948   8.018   6.054 -1.5230 -0.3430  0.3819
   31MOL0     H 4149   0.953   8.298   5.949 -0.4860 -1.3317 -4.4977
   31MOL0     H 4150   1.066   8.193   6.049 -0.1838  0.3294  0.7553
   31MOL0     H 4151   1.133   8.423   5.864 -0.8054  0.4905  1.7465
   31MOL0     H 4152   1.139   8.431   6.043 -2.2115  2.9906 -1.8867
   31MOL0     H 4153   1.318   8.260   6.034  1.2889  0.5892  0.0076
   31MOL0     H 4154   1.307   8.260   5.847  0.3238 -1.0937 -0.7579
   31MOL0     H 4155   1.399   8.460   6.035 -0.3852 -2.8637  1.8706
   31MOL0     H 4156   1.369   8.503   5.867 -2.2024 -2.2002  0.0953
   31MOL0     H 4157   1.538   8.283   5.846 -2.4983  1.7781 -1.7438
   31MOL0     H 4158   1.613   8.372   5.990  2.2587 -1.7437 -1.3368
   31MOL0     H 4159   1.561   8.464   5.718 -0.1933  0.2884 -0.2513
   31MOL0     H 4160   1.626   8.563   5.852 -2.7546  1.6291 -3.2542
   31MOL0     H 4161   1.761   8.307   5.764  1.1024 -0.3300  0.1334
   31MOL0     H 4162   1.820   8.428   5.888 -1.0130 -2.3605  0.8999
   31MOL0     H 4163   1.835   8.452   5.588  2.5735  1.9623 -0.9281
   31MOL0     H 4164   1.823   8.598   5.692 -1.2475 -0.3112  0.0138
   31MOL0     H 4165   1.006   8.038   5.622 -2.7297  0.0757 -0.7878
   31MOL0     H 4166   0.984   7.801   5.612  0.1629  1.1679 -1.1646
   31MOL0     H 4167   0.804   7.486   5.635 -0.7086  2.9012  1.8234
   31MOL0     H 4168   0.695   7.288   5.571 -2.1368  2.4792  1.1146
   31MOL0     H 4169   0.873   7.317   4.243 -2.1765 -0.6143  0.7466
   31MOL0     H 4170   1.028   7.247   4.075 -3.6676  0.8514 -0.3662
   31MOL0     H 4171   1.252   7.073   3.866  1.0329 -0.5364 -2.9465
   31MOL0     H 4172   1.370   7.053   3.656  0.6892  1.2211 -0.4849
   31MOL0     H 4173   1.510   7.054   3.507  2.0981  0.1108 -0.8664
   31MOL0     H 4174   1.476   6.888   3.448  0.7350 -2.5256  2.3989
   31MOL0     H 4175   1.754   6.980   3.446  0.0679  2.1634 -1.3738
   31MOL0     H 4176   1.653   7.058   3.337  0.1349  1.4714  2.9533
   31MOL0     H 4177   1.673   6.758   3.358  0.3476  0.1107  1.0076
   31MOL0     H 4178   1.789   6.845   3.260 -0.9883  1.1931 -1.9462
   31MOL0     H 4179   1.613   6.747   3.139  4.0125  0.1994 -0.1071
   31MOL0     H 4180   1.488   6.859   3.210 -0.7067 -1.0008 -2.1985
   31MOL0     H 4181   1.697   7.113   2.945 -3.9507  1.3398 -1.4205
   31MOL0     H 4182   1.636   6.765   3.831 -1.3170 -2.1752  0.3166
   31MOL0     H 4183   1.435   6.755   4.151 -0.9228  0.5635  0.0011
   31MOL0     H 4184   1.518   6.654   4.029 -3.7313  1.2634 -0.6418
   31MOL0     H 4185   1.607   6.779   4.125  0.8936 -0.2474 -0.6334
   32MOL0     O 4186   5.723   6.642   5.982 -0.3341  0.6753  0.4009
   32MOL0     C 4187   5.664   6.542   5.959  0.0587 -0.2734 -0.4862
   32MOL0     O 4188   5.596   6.470   6.063 -0.3185  0.1309  0.1666
   32MOL0     C 4189   5.625   6.495   6.193 -0.0380  0.3192  0.2677
   32MOL0     C 4190   5.746   6.529   6.251 -0.4749  0.2633 -0.3689
   32MOL0     C 4191   5.764   6.575   6.382  0.3827 -0.1334 -0.6833
   32MOL0     C 4192   5.661   6.578   6.469 -0.1434  0.0948 -0.1021
   32MOL0     O 4193   5.676   6.623   6.604 -0.5155 -0.5134 -0.2696
   32MOL0     C 4194   5.801   6.677   6.650  0.1810  0.1049  0.5965
   32MOL0     C 4195   5.805   6.720   6.801  0.2112  0.1840 -0.1640
   32MOL0     C 4196   5.739   6.857   6.823  1.1112  0.4748 -1.0639
   32MOL0     C 4197   5.725   6.877   6.981  0.8075 -0.1088  0.7088
   32MOL0     C 4198   5.704   7.023   7.015  0.1863 -0.4541  0.5496
   32MOL0     C 4199   5.546   7.062   7.024  0.4074 -0.9055 -0.5479
   32MOL0     C 4200   5.539   7.212   7.059  0.1571  0.7475 -0.6230
   32MOL0     C 4201   5.399   7.254   7.098 -0.2627 -1.1469 -1.4535
   32MOL0     N 4202   5.371   7.178   7.220 -0.7588 -0.0765  0.1366
   32MOL0     C 4203   5.259   7.105   7.231  0.2407  0.5069 -1.4803
   32MOL0     C 4204   5.236   7.100   7.369 -0.2204  0.0520  0.4253
   32MOL0     C 4205   5.123   7.042   7.430 -1.4900  0.2703 -0.3815
   32MOL0     C 4206   5.158   6.953   7.554  0.3656  0.3015 -0.3477
   32MOL0     C 4207   5.281   6.857   7.555  0.1173  0.8277  0.0557
   32MOL0     C 4208   5.311   6.807   7.701 -0.1408 -0.2543  0.6421
   32MOL0     O 4209   5.386   6.902   7.785 -1.1442 -0.6398  0.2165
   32MOL0     C 4210   5.311   6.988   7.858 -0.6817  0.7264 -1.0559
   32MOL0     C 4211   5.364   7.110   7.851 -1.2920 -1.0656 -0.6342
   32MOL0     C 4212   5.314   7.222   7.925  0.1907  0.9137  0.3040
   32MOL0     C 4213   5.187   7.202   7.984  0.9165 -0.4287  0.2808
   32MOL0     C 4214   5.115   7.309   8.059 -0.1499  0.0549 -0.4937
   32MOL0     O 4215   5.141   7.440   8.031  0.4959  0.5569 -0.1807
   32MOL0     C 4216   5.077   7.544   8.078  0.7540 -0.6838 -0.4391
   32MOL0     C 4217   5.148   7.660   8.093  0.1806  0.4900 -0.7408
   32MOL0     C 4218   5.088   7.774   8.126  0.9942 -0.7824  0.5130
   32MOL0     C 4219   4.948   7.778   8.157 -0.4017 -0.4546 -0.1437
   32MOL0     O 4220   4.913   7.895   8.219  0.8579  0.6221 -0.3316
   32MOL0     C 4221   4.770   7.904   8.253 -1.4973  0.4200  0.0130
   32MOL0     C 4222   4.730   8.036   8.314 -0.6938 -0.1984 -0.6480
   32MOL0     C 4223   4.792   8.054   8.450  0.5343 -0.1206  0.6744
   32MOL0     C 4224   4.725   8.159   8.534 -0.1957  0.4255 -0.0034
   32MOL0     C 4225   4.762   8.303   8.482  0.4364  0.0655 -0.4907
   32MOL0     C 4226   4.694   8.415   8.556 -0.3973  0.4671 -0.8606
   32MOL0     C 4227   4.735   8.544   8.485 -0.4355 -0.3984  0.3887
   32MOL0     C 4228   4.689   8.657   8.577 -0.5935 -0.4421  0.3932
   32MOL0    Cl 4229   4.510   8.680   8.588 -0.5045 -0.1188  0.1007
   32MOL0     C 4230   4.874   7.659   8.147  0.7049 -0.5384 -0.9342
   32MOL0     C 4231   4.938   7.548   8.107  0.0154 -0.8798  0.5318
   32MOL0     O 4232   5.042   7.267   8.152 -0.4656 -0.5662  0.1871
   32MOL0     C 4233   5.127   7.073   7.973  0.3003  0.0159 -0.4962
   32MOL0     C 4234   5.189   6.971   7.917  0.1085  0.5326  0.9276
   32MOL0     N 4235   5.337   7.166   7.430  0.4324 -1.0195 -0.5413
   32MOL0     N 4236   5.419   7.216   7.343  0.3627  0.2072  0.1119
   32MOL0     C 4237   5.540   6.541   6.412  0.3825  0.1439  0.2273
   32MOL0     C 4238   5.523   6.493   6.286  0.1688  0.1328  0.7818
   32MOL0     C 4239   5.632   6.520   5.818  0.4515  0.1758  0.6360
   32MOL0     C 4240   5.520   6.437   5.786 -0.8476  0.0899  0.2512
   32MOL0     C 4241   5.487   6.432   5.656 -1.1822 -0.8248 -0.4602
   32MOL0     C 4242   5.556   6.505   5.551  0.7986  1.0617  0.4981
   32MOL0     O 4243   5.505   6.489   5.421  0.4483 -0.2410 -0.2550
   32MOL0     C 4244   5.575   6.559   5.320 -0.4639 -1.5365 -1.0080
   32MOL0     C 4245   5.695   6.476   5.268 -0.1321 -0.3950  0.5137
   32MOL0     C 4246   5.674   6.429   5.120 -0.1340  1.0392 -0.1247
   32MOL0     C 4247   5.757   6.506   5.010  0.0485  0.8731 -0.8346
   32MOL0     C 4248   5.904   6.503   5.037 -0.0316  0.3758 -0.1283
   32MOL0     C 4249   6.010   6.523   5.088  0.1227  0.6124  0.3503
   32MOL0     C 4250   5.663   6.579   5.586  0.4261  0.8167  0.3009
   32MOL0     C 4251   5.704   6.583   5.712 -0.3518 -0.1006 -0.3123
   32MOL0     C 4252   5.843   6.662   5.733  0.4785  0.2911  0.3250
   32MOL0     H 4253   5.837   6.509   6.195  0.4522 -3.4159  2.1146
   32MOL0     H 4254   5.861   6.578   6.431  0.2780 -3.0444 -0.1654
   32MOL0     H 4255   5.876   6.601   6.626 -1.9760 -0.7293 -5.0134
   32MOL0     H 4256   5.818   6.767   6.589  2.0320  1.3265  2.7449
   32MOL0     H 4257   5.910   6.734   6.831 -0.1590  1.9144  0.4641
   32MOL0     H 4258   5.758   6.640   6.859 -2.1447  3.6693  3.2130
   32MOL0     H 4259   5.639   6.849   6.779  1.3402 -1.1961 -1.3318
   32MOL0     H 4260   5.780   6.947   6.775 -1.0406  3.3971  2.0862
   32MOL0     H 4261   5.645   6.818   7.026 -1.6391  1.4467 -1.3283
   32MOL0     H 4262   5.817   6.841   7.028  1.6958 -0.3006 -1.0707
   32MOL0     H 4263   5.749   7.053   7.110  3.7057 -3.4012  0.0469
   32MOL0     H 4264   5.751   7.091   6.942 -2.3694  2.1743  1.1903
   32MOL0     H 4265   5.473   7.032   6.949 -1.0499  0.4148  0.2617
   32MOL0     H 4266   5.515   7.013   7.117 -0.6612 -0.3935 -0.6147
   32MOL0     H 4267   5.562   7.268   6.967 -2.2755  1.1698 -1.0351
   32MOL0     H 4268   5.611   7.238   7.137 -0.1862 -1.4292  0.4937
   32MOL0     H 4269   5.406   7.357   7.136  1.7912 -2.4109  2.1534
   32MOL0     H 4270   5.327   7.235   7.018 -2.4818  1.5144 -0.2765
   32MOL0     H 4271   5.203   7.066   7.147  3.4538 -1.4188 -2.8856
   32MOL0     H 4272   5.041   7.107   7.465 -0.9964  1.3480 -1.1506
   32MOL0     H 4273   5.067   6.973   7.366  1.7353 -3.5450  0.5428
   32MOL0     H 4274   5.179   7.006   7.647 -0.2630  0.3438 -0.2204
   32MOL0     H 4275   5.070   6.890   7.571  0.7896 -0.5796 -1.2875
   32MOL0     H 4276   5.368   6.908   7.514  1.0980 -2.0815 -1.8212
   32MOL0     H 4277   5.245   6.773   7.495 -2.0618 -0.6530  3.1437
   32MOL0     H 4278   5.381   6.723   7.691 -0.0892 -0.5087  2.6927
   32MOL0     H 4279   5.222   6.767   7.750  1.3505 -4.5948  0.2829
   32MOL0     H 4280   5.451   7.125   7.789 -2.1843  2.9809 -1.1874
   32MOL0     H 4281   5.347   7.323   7.903 -2.2172  1.8120  0.4638
   32MOL0     H 4282   5.255   7.668   8.073  0.8657 -1.1522  1.7839
   32MOL0     H 4283   5.153   7.860   8.123  0.8860 -0.6728  1.1190
   32MOL0     H 4284   4.728   7.884   8.154  0.2334 -1.6836 -0.3887
   32MOL0     H 4285   4.730   7.818   8.308 -0.6562 -1.2608 -1.8770
   32MOL0     H 4286   4.757   8.115   8.244  1.5127 -1.6832 -1.6091
   32MOL0     H 4287   4.622   8.052   8.319 -0.6831  0.9123 -2.9448
   32MOL0     H 4288   4.764   7.964   8.505 -4.6137  0.1294 -1.0201
   32MOL0     H 4289   4.900   8.073   8.446  0.1692  2.1824 -3.9996
   32MOL0     H 4290   4.746   8.141   8.640 -1.0735 -0.9124 -0.0288
   32MOL0     H 4291   4.615   8.159   8.533 -0.4362  4.2029  2.4114
   32MOL0     H 4292   4.716   8.295   8.383 -1.4996 -2.0898  0.4853
   32MOL0     H 4293   4.871   8.308   8.490  0.5587  1.1802 -2.3886
   32MOL0     H 4294   4.588   8.398   8.535 -1.2575  3.5084  0.4980
   32MOL0     H 4295   4.713   8.417   8.664 -1.2694  3.3299 -0.6641
   32MOL0     H 4296   4.685   8.545   8.388  0.6210  0.3419 -0.1594
   32MOL0     H 4297   4.840   8.565   8.466 -0.4736  1.4398  1.8798
   32MOL0     H 4298   4.743   8.645   8.671  1.5115  0.0081 -0.7030
   32MOL0     H 4299   4.723   8.754   8.539  0.1347 -1.3007 -1.1991
   32MOL0     H 4300   4.766   7.649   8.156  0.7416  0.1064  0.6007
   32MOL0     H 4301   4.879   7.457   8.097  0.8251 -1.5721  1.7989
   32MOL0     H 4302   5.028   7.058   8.016  0.7093  0.3883  0.6084
   32MOL0     H 4303   5.143   6.873   7.914  0.2622  0.4647  0.7184
   32MOL0     H 4304   5.448   6.560   6.466 -0.2723  1.9473 -1.4033
   32MOL0     H 4305   5.433   6.448   6.246  0.9987 -1.2600  0.4184
   32MOL0     H 4306   5.459   6.386   5.859 -0.2131  0.8339  1.3401
   32MOL0     H 4307   5.415   6.353   5.641 -0.1357 -1.7311 -0.8599
   32MOL0     H 4308   5.601   6.664   5.340 -3.9461 -0.1095 -2.9557
   32MOL0     H 4309   5.496   6.585   5.249  0.5771  3.1256 -0.7953
   32MOL0     H 4310   5.703   6.385   5.328 -0.0110  0.0413  1.1623
   32MOL0     H 4311   5.798   6.513   5.277 -0.1506  0.5247 -2.0791
   32MOL0     H 4312   5.570   6.449   5.094  0.5882  4.9464 -0.5861
   32MOL0     H 4313   5.692   6.321   5.111 -2.1777  0.6237  0.3396
   32MOL0     H 4314   5.733   6.451   4.918  0.5324  0.3110 -0.6319
   32MOL0     H 4315   5.724   6.610   5.010 -1.9042  0.5148  3.8752
   32MOL0     H 4316   6.109   6.545   5.124 -0.0746  1.0769  0.6166
   32MOL0     H 4317   5.722   6.637   5.516  2.4003 -1.6568 -0.2237
   32MOL0     H 4318   5.826   6.760   5.780  0.4630 -0.5619  2.1788
   32MOL0     H 4319   5.906   6.609   5.805 -0.3428  0.5465  1.2512
   32MOL0     H 4320   5.904   6.670   5.643  2.2870  0.4396  1.4976
   33MOL0     O 4321   5.233   8.990   2.607 -0.3458 -0.2791 -0.5722
   33MOL0     C 4322   5.113   8.988   2.575 -0.9547  0.4357 -0.2374
   33MOL0     O 4323   5.034   8.872   2.573 -0.1472 -0.0645  0.0351
   33MOL0     C 4324   5.060   8.777   2.666 -0.4542  0.3831  0.6977
   33MOL0     C 4325   5.061   8.785   2.807  0.9730  0.0327 -0.3607
   33MOL0     C 4326   5.044   8.661   2.884  0.0128 -0.2647 -1.2284
   33MOL0     C 4327   5.040   8.531   2.825  0.1366 -0.3461 -0.2574
   33MOL0     O 4328   5.053   8.415   2.900  0.3284  0.5443  0.1243
   33MOL0     C 4329   5.031   8.412   3.040 -0.2461 -0.2602 -0.0444
   33MOL0     C 4330   5.022   8.259   3.083  0.3599 -0.2913  1.0569
   33MOL0     C 4331   4.951   8.250   3.218  0.6439 -0.1220  0.8484
   33MOL0     C 4332   4.900   8.112   3.262  0.2636  0.1942 -0.7262
   33MOL0     C 4333   4.818   8.128   3.389  0.7429 -0.0399  0.0215
   33MOL0     C 4334   4.793   7.997   3.464  0.3847  0.4149 -0.4169
   33MOL0     C 4335   4.745   7.885   3.382  0.0431  0.1211  0.5690
   33MOL0     C 4336   4.720   7.761   3.479 -0.6102  0.3384 -0.0182
   33MOL0     N 4337   4.667   7.642   3.410  0.2152  0.3952 -1.0819
   33MOL0     C 4338   4.613   7.534   3.479 -0.7553 -0.2858  0.5004
   33MOL0     C 4339   4.577   7.453   3.383 -0.4093 -0.4021  0.8609
   33MOL0     C 4340   4.532   7.309   3.400 -0.9285 -0.3500  0.0987
   33MOL0     C 4341   4.645   7.223   3.452 -0.1588  0.0687  0.7075
   33MOL0     C 4342   4.654   7.204   3.610  0.2600  0.3686 -0.2071
   33MOL0     C 4343   4.621   7.064   3.648  0.5707  0.6008 -0.4738
   33MOL0     O 4344   4.577   7.072   3.782 -0.2841 -0.3661  0.0840
   33MOL0     C 4345   4.586   6.966   3.862 -0.8007  0.0955 -1.0718
   33MOL0     C 4346   4.556   6.836   3.825  0.4749  0.0565 -0.5395
   33MOL0     C 4347   4.580   6.736   3.912 -0.4233  0.5356  0.0169
   33MOL0     C 4348   4.611   6.761   4.048  0.2434  0.7516 -0.6540
   33MOL0     C 4349   4.624   6.650   4.141  0.2820 -0.2760 -0.0568
   33MOL0     O 4350   4.651   6.521   4.090  0.2488 -0.0236 -0.3729
   33MOL0     C 4351   4.648   6.416   4.180  0.1406 -0.1161  1.1029
   33MOL0     C 4352   4.752   6.389   4.273 -0.5685  0.0785 -0.8244
   33MOL0     C 4353   4.756   6.277   4.359  0.4171  0.9801  0.7476
   33MOL0     C 4354   4.645   6.183   4.351 -0.1097  0.4761 -0.4169
   33MOL0     O 4355   4.641   6.080   4.445 -0.4879  0.4288  0.3192
   33MOL0     C 4356   4.512   6.027   4.486 -0.6487 -0.8097  0.7643
   33MOL0     C 4357   4.471   5.902   4.407 -0.2952 -0.7533  0.2383
   33MOL0     C 4358   4.578   5.798   4.443  0.9330  0.1442  0.0440
   33MOL0     C 4359   4.579   5.759   4.586  0.6921 -1.1932 -0.4467
   33MOL0     C 4360   4.623   5.616   4.609 -0.0403  0.6854  0.7578
   33MOL0     C 4361   4.782   5.611   4.583  0.4249 -0.3223 -0.3046
   33MOL0     C 4362   4.854   5.487   4.631  0.0381 -0.5070  0.2338
   33MOL0     C 4363   5.008   5.484   4.598 -0.5800 -0.1361  0.6941
   33MOL0    Cl 4364   5.026   5.511   4.416  0.4154 -0.2982 -0.1984
   33MOL0     C 4365   4.542   6.211   4.263  0.1967  0.2103  1.5127
   33MOL0     C 4366   4.545   6.321   4.173 -0.2578 -0.5529  0.5159
   33MOL0     O 4367   4.623   6.680   4.264 -0.1354  0.2770  0.3773
   33MOL0     C 4368   4.632   6.890   4.089  0.7627  0.5616 -0.0015
   33MOL0     C 4369   4.619   6.990   3.993 -1.1110  0.4897  0.5143
   33MOL0     N 4370   4.613   7.505   3.259 -0.3995 -0.0371 -0.2865
   33MOL0     N 4371   4.661   7.620   3.278 -0.2887  0.2740  0.1067
   33MOL0     C 4372   5.041   8.532   2.687  1.0649  0.1612  0.3189
   33MOL0     C 4373   5.044   8.645   2.609 -0.7398 -0.5205 -0.6539
   33MOL0     C 4374   5.039   9.113   2.536 -0.3979 -0.1971 -0.0191
   33MOL0     C 4375   5.120   9.227   2.517  0.6971  0.1697 -0.3410
   33MOL0     C 4376   5.070   9.344   2.476 -0.7028 -0.2759  0.4955
   33MOL0     C 4377   4.934   9.371   2.466 -0.7620 -0.6184 -0.4987
   33MOL0     O 4378   4.891   9.483   2.416 -0.0898  0.9255  0.4103
   33MOL0     C 4379   4.791   9.559   2.486 -0.2230  1.3053 -0.2495
   33MOL0     C 4380   4.861   9.630   2.612  0.4026  0.0347  1.1517
   33MOL0     C 4381   4.748   9.660   2.714  0.2008  0.1432 -0.4232
   33MOL0     C 4382   4.729   9.562   2.815 -0.6721 -0.3825 -0.2241
   33MOL0     C 4383   4.645   9.622   2.926  0.5309  0.4114 -0.0115
   33MOL0     C 4384   4.585   9.656   3.019  0.5438 -0.1478 -0.6872
   33MOL0     C 4385   4.854   9.263   2.487  0.3937 -0.7568 -0.6930
   33MOL0     C 4386   4.896   9.128   2.520  0.8555 -0.2209 -0.2434
   33MOL0     C 4387   4.797   9.014   2.516  0.1326 -0.7831  0.7964
   33MOL0     H 4388   5.049   8.883   2.852 -0.7938 -0.7260  0.9261
   33MOL0     H 4389   5.026   8.674   2.990  2.6024 -1.7194 -0.5353
   33MOL0     H 4390   5.112   8.465   3.092 -1.0442  0.7007  0.2471
   33MOL0     H 4391   4.943   8.465   3.078  1.5972  1.5278  2.1367
   33MOL0     H 4392   5.123   8.220   3.101  1.3992  0.8229 -1.7799
   33MOL0     H 4393   4.985   8.191   3.006  1.9238  1.8343 -1.7609
   33MOL0     H 4394   4.871   8.324   3.215  1.4638  0.7659 -0.4044
   33MOL0     H 4395   5.026   8.283   3.290  1.1044 -2.6449  1.6109
   33MOL0     H 4396   4.845   8.061   3.183 -3.7544 -0.3424  2.0724
   33MOL0     H 4397   4.985   8.052   3.296 -2.2281 -1.6666  2.9922
   33MOL0     H 4398   4.866   8.185   3.470  0.1583 -3.0222  2.6625
   33MOL0     H 4399   4.719   8.166   3.360 -1.0418 -3.8415  0.5489
   33MOL0     H 4400   4.889   7.964   3.505  0.2690  1.5688  0.8604
   33MOL0     H 4401   4.716   8.023   3.537  1.1741  4.3581 -0.7722
   33MOL0     H 4402   4.819   7.848   3.309  0.8618 -0.9532  1.8951
   33MOL0     H 4403   4.649   7.905   3.334 -0.0713  1.1614  1.2085
   33MOL0     H 4404   4.817   7.730   3.519 -0.7156 -3.2824 -2.1024
   33MOL0     H 4405   4.665   7.797   3.567  3.9422  2.1162  2.4218
   33MOL0     H 4406   4.618   7.527   3.587  0.4681  5.4707  1.1747
   33MOL0     H 4407   4.448   7.308   3.470  0.1167 -0.3309  1.3988
   33MOL0     H 4408   4.501   7.273   3.302 -0.7353  0.2602 -0.1946
   33MOL0     H 4409   4.641   7.123   3.408 -1.1679 -0.5309  2.0838
   33MOL0     H 4410   4.741   7.264   3.420  1.7938 -1.5483  3.8896
   33MOL0     H 4411   4.588   7.274   3.662 -2.5041 -2.7949  0.8944
   33MOL0     H 4412   4.754   7.236   3.638  1.0842  1.1431 -3.5815
   33MOL0     H 4413   4.711   7.006   3.623  0.5272 -0.3829  1.4625
   33MOL0     H 4414   4.550   7.016   3.580 -1.4404  1.1044  1.1811
   33MOL0     H 4415   4.535   6.819   3.720  1.3637  3.1726 -1.3236
   33MOL0     H 4416   4.565   6.633   3.883 -3.0739  0.2515  2.0232
   33MOL0     H 4417   4.838   6.454   4.275  2.0267 -3.1238 -0.6888
   33MOL0     H 4418   4.836   6.262   4.431  0.4422  2.1150  0.9803
   33MOL0     H 4419   4.508   6.005   4.593 -0.9476 -0.1250  0.8992
   33MOL0     H 4420   4.436   6.105   4.475 -1.0755 -1.3847 -0.5571
   33MOL0     H 4421   4.374   5.857   4.431  0.0342 -0.9316  1.2945
   33MOL0     H 4422   4.484   5.917   4.299 -3.4856 -0.1869 -0.1452
   33MOL0     H 4423   4.550   5.708   4.387  0.0033 -1.2439  2.5918
   33MOL0     H 4424   4.678   5.830   4.413 -0.3436  2.7054 -1.8287
   33MOL0     H 4425   4.480   5.766   4.631  2.2215  0.1934  3.0012
   33MOL0     H 4426   4.643   5.821   4.649  0.5776 -0.8401 -0.6737
   33MOL0     H 4427   4.573   5.544   4.544  1.7311  1.5026 -1.6626
   33MOL0     H 4428   4.600   5.585   4.711 -0.1464 -1.0945  0.2190
   33MOL0     H 4429   4.798   5.630   4.476  1.7193 -0.4007 -0.1381
   33MOL0     H 4430   4.832   5.690   4.640 -0.6358  0.3245 -0.2496
   33MOL0     H 4431   4.804   5.395   4.600 -0.1926 -0.2760 -0.0797
   33MOL0     H 4432   4.850   5.485   4.741  0.7542 -0.9640  0.2582
   33MOL0     H 4433   5.066   5.562   4.649  1.3048 -0.8809 -0.2303
   33MOL0     H 4434   5.050   5.390   4.635  2.6567  0.8251 -0.1962
   33MOL0     H 4435   4.465   6.136   4.247 -0.6996  1.5238 -1.0606
   33MOL0     H 4436   4.478   6.339   4.090  0.5187  1.8991  0.3582
   33MOL0     H 4437   4.655   6.919   4.190  1.9989  0.3915 -0.2252
   33MOL0     H 4438   4.639   7.089   4.032 -1.4107  0.9600 -0.4732
   33MOL0     H 4439   5.011   8.444   2.632 -1.7107  1.0173  0.3065
   33MOL0     H 4440   5.022   8.640   2.503  0.1876 -0.7524 -0.8454
   33MOL0     H 4441   5.228   9.229   2.522  0.6585  2.9329  1.1523
   33MOL0     H 4442   5.137   9.424   2.445 -1.0141  0.3686  1.4449
   33MOL0     H 4443   4.707   9.495   2.514  1.5717 -1.3800 -0.6457
   33MOL0     H 4444   4.753   9.641   2.423  0.6953  2.9001  1.2055
   33MOL0     H 4445   4.910   9.717   2.567 -1.6973  0.1109 -1.2729
   33MOL0     H 4446   4.933   9.574   2.673  2.1302 -2.7916 -3.0088
   33MOL0     H 4447   4.653   9.672   2.661 -0.2311  0.1820  0.3529
   33MOL0     H 4448   4.772   9.754   2.764 -5.0646  0.8086  1.4642
   33MOL0     H 4449   4.662   9.484   2.775 -2.7377  0.4829  1.3819
   33MOL0     H 4450   4.824   9.520   2.849 -0.2547  3.6924  4.7949
   33MOL0     H 4451   4.536   9.673   3.113  0.6821 -2.8710 -0.0206
   33MOL0     H 4452   4.750   9.274   2.458 -0.1002 -0.8041  0.9520
   33MOL0     H 4453   4.711   9.035   2.452  0.6823  2.0400  0.8565
   33MOL0     H 4454   4.843   8.931   2.462  0.3775 -1.6821  2.3298
   33MOL0     H 4455   4.767   8.976   2.614  4.3433 -0.4796  2.4077
   34MOL0     O 4456   9.688   2.105   0.988  1.5821 -0.5404  0.1443
   34MOL0     C 4457   9.753   2.189   1.047 -0.7963 -0.5602  0.3495
   34MOL0     O 4458   9.886   2.210   1.036 -0.2866 -0.1764  0.2064
   34MOL0     C 4459   9.961   2.093   1.035 -0.5875  0.7983  1.1576
   34MOL0     C 4460   9.928   1.956   1.053 -0.3691 -0.4390 -0.8024
   34MOL0     C 4461  10.021   1.864   1.029 -0.0067  0.1104  0.3707
   34MOL0     C 4462  10.151   1.889   0.990 -0.4933  0.1464 -1.1429
   34MOL0     O 4463  10.247   1.790   0.962  0.3724 -0.1125  0.1847
   34MOL0     C 4464  10.265   1.696   1.072  0.3875 -0.7660 -0.1479
   34MOL0     C 4465  10.406   1.618   1.072  0.5757 -0.2158  0.3965
   34MOL0     C 4466  10.403   1.519   0.966  0.0955  0.7473  0.6886
   34MOL0     C 4467  10.438   1.380   1.021 -0.2445  0.1189 -0.2510
   34MOL0     C 4468  10.400   1.267   0.920 -0.7566  0.3644 -0.2737
   34MOL0     C 4469  10.458   1.284   0.781  0.2883 -0.1778  0.7661
   34MOL0     C 4470  10.384   1.200   0.679 -0.3301  0.0277 -0.0573
   34MOL0     C 4471  10.431   1.244   0.540  1.0349  0.0601 -0.7931
   34MOL0     N 4472  10.572   1.207   0.518 -0.3078 -0.6608 -0.0951
   34MOL0     C 4473  10.694   1.282   0.545  0.4602  0.5485  0.3260
   34MOL0     C 4474  10.795   1.215   0.489 -1.2579  0.8318  0.7346
   34MOL0     C 4475  10.950   1.242   0.486 -0.4711 -0.0014 -1.0137
   34MOL0     C 4476  10.986   1.210   0.637 -0.0396 -0.4047  0.0775
   34MOL0     C 4477  11.142   1.217   0.639 -0.1793 -0.5514  0.1614
   34MOL0     C 4478  11.194   1.199   0.786  0.0984 -0.1161 -0.8137
   34MOL0     O 4479  11.163   1.069   0.827 -0.0675 -0.2217  0.3909
   34MOL0     C 4480  11.213   1.011   0.941  0.1816  0.6428  0.0921
   34MOL0     C 4481  11.204   1.073   1.064  0.2306  0.6351  0.0411
   34MOL0     C 4482  11.290   1.040   1.167 -0.1228  0.3180  0.1011
   34MOL0     C 4483  11.385   0.931   1.149 -0.0889  0.5179  0.2928
   34MOL0     C 4484  11.495   0.908   1.239  0.5483 -0.8238 -0.0827
   34MOL0     O 4485  11.517   1.004   1.337 -0.2922 -0.1193 -0.2213
   34MOL0     C 4486  11.638   1.000   1.405  0.0736  0.2831 -0.2586
   34MOL0     C 4487  11.766   0.971   1.352 -0.2116 -0.7888  0.6340
   34MOL0     C 4488  11.884   0.970   1.434 -0.5740  0.2469 -0.2699
   34MOL0     C 4489  11.886   1.024   1.562 -0.1932 -1.2159  0.1163
   34MOL0     O 4490  12.010   1.028   1.628  0.5959  0.2404 -0.4367
   34MOL0     C 4491  12.004   1.091   1.756 -0.3846 -0.1002  0.2557
   34MOL0     C 4492  12.145   1.095   1.811 -0.1438 -0.0804 -0.0578
   34MOL0     C 4493  12.253   1.143   1.712 -0.3183  0.4157  0.1518
   34MOL0     C 4494  12.393   1.125   1.779  0.4624 -0.0572  1.0867
   34MOL0     C 4495  12.432   1.249   1.865 -0.1849  0.1746  0.9479
   34MOL0     C 4496  12.551   1.229   1.961 -0.4643  1.2501  0.1487
   34MOL0     C 4497  12.521   1.145   2.084  0.6258 -0.4226 -0.2736
   34MOL0     C 4498  12.445   1.229   2.193  0.6032  0.7006 -0.4693
   34MOL0    Cl 4499  12.481   1.165   2.342 -0.2521 -0.4557  0.5269
   34MOL0     C 4500  11.758   1.076   1.606 -0.4634  0.3882 -0.4903
   34MOL0     C 4501  11.640   1.051   1.535  0.9744 -0.6363  1.1088
   34MOL0     O 4502  11.557   0.806   1.223  0.7941 -0.8449 -0.8417
   34MOL0     C 4503  11.373   0.858   1.033 -0.6845  0.4818 -0.3324
   34MOL0     C 4504  11.287   0.892   0.932  0.4509 -0.1786 -1.6351
   34MOL0     N 4505  10.742   1.109   0.411  0.5533  0.2078  0.4363
   34MOL0     N 4506  10.617   1.111   0.426 -0.8165  0.3905  0.0194
   34MOL0     C 4507  10.190   2.015   0.967 -0.1573 -0.0480  1.2233
   34MOL0     C 4508  10.090   2.110   0.984 -0.5228  0.2251  0.0392
   34MOL0     C 4509   9.690   2.301   1.129 -0.8091  0.8046  0.7175
   34MOL0     C 4510   9.774   2.372   1.211  0.2155 -0.1397  0.4722
   34MOL0     C 4511   9.743   2.486   1.281 -0.9325  0.3123  0.2577
   34MOL0     C 4512   9.603   2.518   1.290 -0.4915 -0.4195 -0.6257
   34MOL0     O 4513   9.551   2.601   1.384 -1.3355  0.8617  0.1414
   34MOL0     C 4514   9.614   2.729   1.402  0.8544 -0.5959 -0.7152
   34MOL0     C 4515   9.545   2.804   1.517  0.1732 -0.0182  0.1233
   34MOL0     C 4516   9.388   2.789   1.532  0.1619 -0.2734  0.3835
   34MOL0     C 4517   9.328   2.898   1.616 -0.0113  0.0608 -1.1762
   34MOL0     C 4518   9.383   2.914   1.752  0.6030  0.3542  0.2072
   34MOL0     C 4519   9.427   2.946   1.863 -0.1188  0.9814  0.2886
   34MOL0     C 4520   9.512   2.449   1.209  0.1626 -0.6303 -1.0106
   34MOL0     C 4521   9.550   2.343   1.127 -1.2013  0.6015  1.2165
   34MOL0     C 4522   9.442   2.279   1.045  0.2396 -0.4743  0.2562
   34MOL0     H 4523   9.833   1.923   1.094  0.9796  0.1424  3.2774
   34MOL0     H 4524   9.991   1.762   1.052  2.6214 -1.0960 -1.0553
   34MOL0     H 4525  10.252   1.753   1.165  0.7662  1.3561 -1.3396
   34MOL0     H 4526  10.194   1.613   1.082  0.3818 -0.8646 -0.9377
   34MOL0     H 4527  10.429   1.579   1.172  1.2150  0.2449  0.4398
   34MOL0     H 4528  10.469   1.704   1.046 -2.6860  2.3355  0.2560
   34MOL0     H 4529  10.465   1.546   0.880 -0.6560  3.5888  0.9221
   34MOL0     H 4530  10.303   1.501   0.924 -0.2725 -2.2355  2.5718
   34MOL0     H 4531  10.545   1.375   1.039 -0.6722 -0.3652  2.5851
   34MOL0     H 4532  10.382   1.361   1.113  2.9255  1.2630  2.0928
   34MOL0     H 4533  10.431   1.171   0.962 -0.0316  0.3546 -0.8125
   34MOL0     H 4534  10.291   1.264   0.912 -0.6356 -2.2097 -1.6717
   34MOL0     H 4535  10.462   1.389   0.751  1.8813 -0.4302 -0.0061
   34MOL0     H 4536  10.561   1.247   0.780 -0.3787 -2.1550  0.6602
   34MOL0     H 4537  10.275   1.203   0.691 -0.8225 -3.2571 -2.3523
   34MOL0     H 4538  10.421   1.098   0.692 -1.3314 -0.3635 -0.1702
   34MOL0     H 4539  10.362   1.202   0.467  2.4567 -0.6645 -1.7838
   34MOL0     H 4540  10.420   1.351   0.522 -2.3813 -0.3144 -1.5595
   34MOL0     H 4541  10.699   1.383   0.582  1.3599  0.6974 -0.1605
   34MOL0     H 4542  11.004   1.172   0.422 -0.2682 -1.5884  0.7928
   34MOL0     H 4543  10.973   1.344   0.453  0.4958  0.2491  0.3496
   34MOL0     H 4544  10.942   1.287   0.700 -2.8394  0.3463 -2.5634
   34MOL0     H 4545  10.943   1.112   0.660 -1.1764 -1.0895 -4.0459
   34MOL0     H 4546  11.179   1.312   0.599 -0.5121  0.1955  1.5412
   34MOL0     H 4547  11.187   1.132   0.587 -2.3637 -0.6187 -1.7774
   34MOL0     H 4548  11.149   1.281   0.842 -1.9873 -0.5003 -1.8264
   34MOL0     H 4549  11.303   1.209   0.779  0.1953 -1.7485 -4.7551
   34MOL0     H 4550  11.145   1.164   1.066 -0.0788  0.6753 -3.6427
   34MOL0     H 4551  11.296   1.107   1.253 -1.4691  0.1230  0.3623
   34MOL0     H 4552  11.770   0.924   1.254 -0.4753 -0.7518  0.6046
   34MOL0     H 4553  11.978   0.940   1.390  0.7954 -0.5501  2.9111
   34MOL0     H 4554  11.961   1.192   1.749  0.1626  0.1664  0.6322
   34MOL0     H 4555  11.946   1.027   1.823 -1.1483  0.0198 -0.2797
   34MOL0     H 4556  12.145   1.157   1.900  0.5140  2.4321 -1.6938
   34MOL0     H 4557  12.177   0.994   1.837  1.0733  0.2943 -0.0382
   34MOL0     H 4558  12.253   1.088   1.618 -3.4730  1.1035 -0.3519
   34MOL0     H 4559  12.244   1.251   1.695 -4.4130  0.4236  1.3032
   34MOL0     H 4560  12.460   1.126   1.693  1.3628 -0.0944  1.7722
   34MOL0     H 4561  12.399   1.029   1.831 -0.3079 -0.5146  0.3491
   34MOL0     H 4562  12.354   1.311   1.910  3.0211  3.4277  2.6280
   34MOL0     H 4563  12.470   1.312   1.784 -2.8030 -0.9334 -1.2750
   34MOL0     H 4564  12.633   1.180   1.908  0.3734  2.2059  0.5386
   34MOL0     H 4565  12.588   1.331   1.974 -3.9796  3.1429 -2.9227
   34MOL0     H 4566  12.612   1.090   2.111 -1.1514 -3.8945 -0.7977
   34MOL0     H 4567  12.464   1.053   2.063 -0.9245  0.3618  0.3842
   34MOL0     H 4568  12.452   1.338   2.195 -3.2224  1.0969 -0.9852
   34MOL0     H 4569  12.338   1.211   2.179  0.3805  0.7535  1.0026
   34MOL0     H 4570  11.734   1.117   1.703 -1.4282 -0.0984 -0.5106
   34MOL0     H 4571  11.545   1.076   1.582 -0.2037 -2.5776 -0.0763
   34MOL0     H 4572  11.438   0.772   1.017 -0.6559  0.3248  0.5620
   34MOL0     H 4573  11.281   0.826   0.846  1.4196 -1.5316 -0.7083
   34MOL0     H 4574  10.295   2.036   0.947 -0.2901 -1.5123 -1.6139
   34MOL0     H 4575  10.116   2.210   0.948 -1.4917  0.2000 -0.7634
   34MOL0     H 4576   9.882   2.356   1.205  0.1894  0.2606 -1.6352
   34MOL0     H 4577   9.823   2.545   1.324 -3.7106  2.3866  3.0446
   34MOL0     H 4578   9.599   2.780   1.307 -0.7148 -3.6657 -2.2437
   34MOL0     H 4579   9.721   2.726   1.423  0.9469 -0.0533 -1.0808
   34MOL0     H 4580   9.582   2.907   1.512  1.7536 -0.4066  2.4085
   34MOL0     H 4581   9.598   2.750   1.597  4.3797  1.0140 -1.6515
   34MOL0     H 4582   9.371   2.688   1.572 -1.4672 -1.2628 -2.5100
   34MOL0     H 4583   9.330   2.789   1.439 -5.2112  1.8601  3.3435
   34MOL0     H 4584   9.350   2.998   1.578  1.1176 -1.1203 -3.9534
   34MOL0     H 4585   9.219   2.888   1.610 -0.0675  0.6550 -1.2458
   34MOL0     H 4586   9.464   2.971   1.960 -2.7977 -2.3148  2.3835
   34MOL0     H 4587   9.407   2.477   1.210  0.7624  2.4425  3.3212
   34MOL0     H 4588   9.344   2.311   1.081 -0.5882  0.3348 -2.4599
   34MOL0     H 4589   9.448   2.312   0.941  2.4082  0.7325  0.6873
   34MOL0     H 4590   9.453   2.170   1.050 -1.2306 -0.9092 -3.1989
   35MOL0     O 4591   2.735   7.194   7.106  0.0560  0.1746 -0.2269
   35MOL0     C 4592   2.718   7.235   7.220 -0.1082 -0.1595 -0.2682
   35MOL0     O 4593   2.815   7.241   7.321 -0.0801 -0.1890 -0.0689
   35MOL0     C 4594   2.940   7.180   7.302  0.2883 -0.1722 -0.4340
   35MOL0     C 4595   2.988   7.071   7.374  0.6027 -0.0199 -0.4536
   35MOL0     C 4596   3.115   7.012   7.344 -0.5482 -0.7346 -0.1297
   35MOL0     C 4597   3.198   7.067   7.244  0.7186  0.0358  0.1646
   35MOL0     O 4598   3.323   7.030   7.199 -0.1240  0.7346 -0.4108
   35MOL0     C 4599   3.399   6.955   7.304 -0.3724  0.1174  0.1192
   35MOL0     C 4600   3.401   6.812   7.261  0.3364 -0.4190  0.5614
   35MOL0     C 4601   3.517   6.740   7.333  0.9729 -0.3241 -0.3806
   35MOL0     C 4602   3.481   6.586   7.323  0.5782  0.0454 -0.2619
   35MOL0     C 4603   3.590   6.486   7.380 -0.0139 -0.3991 -0.9900
   35MOL0     C 4604   3.576   6.344   7.317 -0.0126 -0.6654  0.8356
   35MOL0     C 4605   3.666   6.236   7.390 -0.1184 -0.0035  1.0736
   35MOL0     C 4606   3.675   6.101   7.299 -0.0604  1.0410 -0.8707
   35MOL0     N 4607   3.801   6.083   7.223 -0.6465 -0.5291  0.4012
   35MOL0     C 4608   3.851   6.178   7.138 -0.5420 -0.3494 -0.5716
   35MOL0     C 4609   3.966   6.138   7.110 -0.0613  0.6163  0.1182
   35MOL0     C 4610   4.067   6.206   7.027 -0.0634 -0.5007  0.3973
   35MOL0     C 4611   4.008   6.311   6.930  0.5213 -0.0968  0.1592
   35MOL0     C 4612   4.128   6.375   6.857 -0.4853  0.1187  0.0607
   35MOL0     C 4613   4.082   6.454   6.731  0.3563  0.2378  0.0080
   35MOL0     O 4614   4.004   6.570   6.748  0.2523 -0.5467  0.4642
   35MOL0     C 4615   3.872   6.566   6.779  0.0838 -0.3094  0.5831
   35MOL0     C 4616   3.782   6.473   6.716 -0.7393 -0.3029  0.3996
   35MOL0     C 4617   3.648   6.484   6.746 -0.1530 -0.0304  0.1923
   35MOL0     C 4618   3.595   6.569   6.840  0.2119  0.2237 -0.6454
   35MOL0     C 4619   3.449   6.559   6.881 -0.1517 -0.2038  0.5584
   35MOL0     O 4620   3.377   6.476   6.813  0.4903  0.4763  0.3599
   35MOL0     C 4621   3.243   6.496   6.792 -0.2689 -0.0241  0.3152
   35MOL0     C 4622   3.172   6.622   6.811 -0.1010 -0.2972 -0.1677
   35MOL0     C 4623   3.034   6.622   6.816 -0.2968 -0.0929  0.6919
   35MOL0     C 4624   2.967   6.505   6.786 -0.3505  0.2381  0.2529
   35MOL0     O 4625   2.833   6.488   6.805 -0.8098 -0.0544  0.2248
   35MOL0     C 4626   2.744   6.597   6.805 -0.7744 -0.3256 -0.5212
   35MOL0     C 4627   2.620   6.535   6.874 -0.0502  0.6451 -0.2835
   35MOL0     C 4628   2.570   6.434   6.779  1.1137 -0.6177 -0.0359
   35MOL0     C 4629   2.449   6.357   6.829 -0.5554  0.3715 -0.7226
   35MOL0     C 4630   2.444   6.209   6.776  0.2237 -0.8666  0.1354
   35MOL0     C 4631   2.349   6.117   6.855  0.0205  0.2046 -0.1672
   35MOL0     C 4632   2.374   5.974   6.805 -0.7849  0.7675  0.8481
   35MOL0     C 4633   2.302   5.934   6.675  0.6334  0.3510  0.1314
   35MOL0    Cl 4634   2.127   5.969   6.673  0.4539 -0.4681  0.1254
   35MOL0     C 4635   3.030   6.382   6.761  0.0098 -0.7579  0.5705
   35MOL0     C 4636   3.174   6.382   6.760  0.3748  0.3305 -0.2268
   35MOL0     O 4637   3.415   6.637   6.968  0.6436 -0.6690  0.5357
   35MOL0     C 4638   3.684   6.658   6.898  0.2940 -0.1309 -0.1352
   35MOL0     C 4639   3.821   6.656   6.867 -0.8535  0.1744 -0.3805
   35MOL0     N 4640   3.984   6.006   7.158 -0.7111  0.3420 -0.7279
   35MOL0     N 4641   3.884   5.976   7.228  1.0694  0.3056 -0.6589
   35MOL0     C 4642   3.143   7.173   7.178 -0.0825  0.1690 -0.8976
   35MOL0     C 4643   3.021   7.230   7.208 -0.2909 -0.2058 -0.1874
   35MOL0     C 4644   2.581   7.273   7.252  0.5907  0.3852  0.5773
   35MOL0     C 4645   2.538   7.278   7.388  0.0919  0.1034 -0.0251
   35MOL0     C 4646   2.412   7.314   7.437  0.0382  0.4212 -0.2130
   35MOL0     C 4647   2.316   7.350   7.344  0.6113 -0.3973  0.0665
   35MOL0     O 4648   2.197   7.407   7.393 -0.4332 -0.0777 -0.1842
   35MOL0     C 4649   2.103   7.468   7.304  0.3329  0.6783 -0.8183
   35MOL0     C 4650   2.132   7.619   7.271 -0.1224  1.0268  0.0515
   35MOL0     C 4651   2.073   7.709   7.384 -0.7700 -0.1569  0.9500
   35MOL0     C 4652   1.925   7.753   7.366 -0.6990 -0.5622  0.0101
   35MOL0     C 4653   1.895   7.844   7.252  0.2662  0.7398 -0.9246
   35MOL0     C 4654   1.867   7.931   7.172  0.0812  0.5123 -0.9304
   35MOL0     C 4655   2.348   7.337   7.204  0.5309 -1.1084  0.0890
   35MOL0     C 4656   2.474   7.307   7.160 -0.3869  0.2363 -0.0100
   35MOL0     C 4657   2.491   7.322   7.013 -0.2455 -0.8234  0.2079
   35MOL0     H 4658   2.936   7.031   7.460  1.5285 -0.7378 -0.2016
   35MOL0     H 4659   3.149   6.938   7.415 -3.9222 -2.8480 -0.4588
   35MOL0     H 4660   3.503   6.987   7.295  0.1601 -2.0297 -3.3517
   35MOL0     H 4661   3.367   6.969   7.408  2.0158 -2.8799  1.4172
   35MOL0     H 4662   3.406   6.825   7.153  0.4706  2.1687  0.8236
   35MOL0     H 4663   3.297   6.784   7.280 -0.3636  1.9538  0.5896
   35MOL0     H 4664   3.541   6.785   7.430 -0.8701  1.5073 -0.6866
   35MOL0     H 4665   3.608   6.750   7.273  1.7754 -1.4809  0.6057
   35MOL0     H 4666   3.392   6.561   7.381 -0.6272  1.0260 -1.6040
   35MOL0     H 4667   3.463   6.562   7.218 -1.1992  0.1190 -0.0082
   35MOL0     H 4668   3.691   6.521   7.356  1.2423 -1.7728  1.8429
   35MOL0     H 4669   3.582   6.478   7.489 -2.2801 -0.0572 -1.0714
   35MOL0     H 4670   3.470   6.318   7.330  0.2988 -2.3035  0.2866
   35MOL0     H 4671   3.601   6.354   7.211  0.1058 -0.0681  0.9139
   35MOL0     H 4672   3.635   6.227   7.494  0.1235 -0.8241  1.0823
   35MOL0     H 4673   3.766   6.278   7.383 -0.0005 -0.5680 -1.9482
   35MOL0     H 4674   3.664   6.017   7.368  1.8158  2.6265  1.5367
   35MOL0     H 4675   3.597   6.099   7.222 -0.7172  1.1780 -0.2137
   35MOL0     H 4676   3.798   6.269   7.109 -1.6522 -0.3771  1.2456
   35MOL0     H 4677   4.152   6.244   7.084 -1.3160  1.0619  1.2891
   35MOL0     H 4678   4.105   6.130   6.958  1.8404 -0.0960  0.9425
   35MOL0     H 4679   3.938   6.261   6.863 -3.5105  1.3221  2.9747
   35MOL0     H 4680   3.950   6.387   6.983  2.1753  0.5472  1.1204
   35MOL0     H 4681   4.195   6.294   6.828 -1.5015 -1.5906  2.1760
   35MOL0     H 4682   4.173   6.451   6.922  0.3432 -0.0233 -0.3302
   35MOL0     H 4683   4.027   6.397   6.655  2.3168 -2.2787  0.3414
   35MOL0     H 4684   4.174   6.468   6.674  1.8906 -1.1349  1.9935
   35MOL0     H 4685   3.814   6.409   6.634  1.2109  1.9790 -0.7198
   35MOL0     H 4686   3.571   6.433   6.689 -0.3756 -0.6134  0.9931
   35MOL0     H 4687   3.222   6.716   6.833 -1.4634  1.0078 -2.3976
   35MOL0     H 4688   2.984   6.716   6.836  1.6623  1.1310  0.1100
   35MOL0     H 4689   2.779   6.682   6.864  1.7791 -1.3922 -0.3582
   35MOL0     H 4690   2.700   6.631   6.710 -3.0335 -1.7019 -0.0234
   35MOL0     H 4691   2.644   6.482   6.967 -2.9639 -4.3596 -2.0143
   35MOL0     H 4692   2.550   6.614   6.902  2.3619  1.7756  3.3149
   35MOL0     H 4693   2.533   6.471   6.683 -1.3100 -2.3112  0.1454
   35MOL0     H 4694   2.650   6.363   6.755  2.0947 -0.0683  1.5334
   35MOL0     H 4695   2.355   6.409   6.806 -2.9139 -2.4579  1.7309
   35MOL0     H 4696   2.465   6.351   6.937 -1.3451  1.1237 -0.5471
   35MOL0     H 4697   2.544   6.165   6.766  0.5329 -0.5116  1.4480
   35MOL0     H 4698   2.396   6.230   6.680 -1.4330  2.5424  1.5232
   35MOL0     H 4699   2.384   6.102   6.958  4.6757 -2.0171 -1.7793
   35MOL0     H 4700   2.247   6.153   6.840 -0.0344  0.0981 -0.0387
   35MOL0     H 4701   2.349   5.902   6.883 -0.2000 -0.1058  0.2410
   35MOL0     H 4702   2.481   5.953   6.797 -0.7063  0.2553  2.8294
   35MOL0     H 4703   2.344   5.988   6.590  0.2653  0.2841 -0.0957
   35MOL0     H 4704   2.301   5.827   6.652 -3.3576  0.7351 -2.5764
   35MOL0     H 4705   2.958   6.304   6.741 -0.8444  0.1780 -0.0283
   35MOL0     H 4706   3.218   6.286   6.737  1.0233  0.7488 -0.7626
   35MOL0     H 4707   3.653   6.722   6.980  0.5808  0.8022 -0.7380
   35MOL0     H 4708   3.880   6.722   6.929 -1.0645 -0.0901  0.1078
   35MOL0     H 4709   3.207   7.228   7.110  0.8176  0.2564 -0.0147
   35MOL0     H 4710   2.976   7.305   7.143 -1.0653 -0.4189  0.0970
   35MOL0     H 4711   2.610   7.253   7.465 -0.4976  2.0117  1.2188
   35MOL0     H 4712   2.389   7.308   7.543 -1.0902  1.8611 -0.3528
   35MOL0     H 4713   2.004   7.464   7.351  0.8929  3.9432  0.9424
   35MOL0     H 4714   2.084   7.402   7.218  1.3534 -1.4282  0.4924
   35MOL0     H 4715   2.097   7.646   7.171  1.4057  1.5078 -0.3790
   35MOL0     H 4716   2.240   7.632   7.267  0.5224 -2.7610  0.7217
   35MOL0     H 4717   2.130   7.802   7.382  0.0579 -0.6282  1.6469
   35MOL0     H 4718   2.096   7.658   7.478  2.9340 -3.0170 -1.2540
   35MOL0     H 4719   1.859   7.666   7.380 -0.4277 -0.9699 -1.1624
   35MOL0     H 4720   1.919   7.820   7.452  1.5065  0.7234 -0.7577
   35MOL0     H 4721   1.849   8.014   7.106 -2.8452 -0.0750 -1.0038
   35MOL0     H 4722   2.267   7.369   7.139 -2.0885 -2.2514  2.5751
   35MOL0     H 4723   2.395   7.340   6.964  0.7684 -0.8806 -1.9468
   35MOL0     H 4724   2.555   7.410   7.003 -1.4169 -0.0748 -1.1004
   35MOL0     H 4725   2.539   7.238   6.963  0.2304 -0.1262 -0.5330
   36MOL0     O 4726   4.675   7.141   0.008  0.2627 -0.3174 -0.6298
   36MOL0     C 4727   4.699   7.166   0.126 -0.3300  0.5884 -0.3223
   36MOL0     O 4728   4.655   7.082   0.229  0.4380  0.0220 -0.1948
   36MOL0     C 4729   4.594   6.959   0.210  0.4875 -0.7668 -0.6531
   36MOL0     C 4730   4.527   6.893   0.315 -0.3465 -0.0728 -0.3776
   36MOL0     C 4731   4.478   6.756   0.296  0.4406 -0.4590 -0.3199
   36MOL0     C 4732   4.494   6.697   0.170 -0.8239  0.8440 -0.7534
   36MOL0     O 4733   4.432   6.580   0.154 -0.1682 -0.9074 -0.7603
   36MOL0     C 4734   4.422   6.508   0.029 -0.1864 -0.3614 -0.1941
   36MOL0     C 4735   4.370   6.363   0.052 -0.1588 -0.4474 -0.8276
   36MOL0     C 4736   4.381   6.276  -0.073  0.0244 -0.0192 -0.1739
   36MOL0     C 4737   4.293   6.147  -0.094  0.1366 -0.7820 -0.7439
   36MOL0     C 4738   4.368   6.052  -0.190  0.6583 -0.3911 -0.0071
   36MOL0     C 4739   4.458   5.957  -0.112  0.0277 -0.2919  0.1754
   36MOL0     C 4740   4.518   5.851  -0.208 -0.0375 -0.0988  0.3297
   36MOL0     C 4741   4.669   5.831  -0.192  0.1999  0.2468 -0.5207
   36MOL0     N 4742   4.744   5.956  -0.202  0.7951 -0.5963  0.3910
   36MOL0     C 4743   4.795   6.040  -0.105  0.5571  0.7110 -0.3366
   36MOL0     C 4744   4.856   6.145  -0.177 -0.8560  0.3142  0.7508
   36MOL0     C 4745   4.927   6.272  -0.121 -0.0558 -0.1012 -0.6770
   36MOL0     C 4746   4.919   6.397  -0.215  0.2857  0.4299  0.2789
   36MOL0     C 4747   4.778   6.441  -0.248  0.1487 -0.4451  0.2585
   36MOL0     C 4748   4.758   6.566  -0.340  0.3868  1.2051 -0.7998
   36MOL0     O 4749   4.768   6.691  -0.269  0.4928  0.1575  0.6593
   36MOL0     C 4750   4.884   6.761  -0.288 -0.9672 -0.0634  0.0552
   36MOL0     C 4751   4.966   6.813  -0.182  0.3514  0.2966 -0.0082
   36MOL0     C 4752   5.064   6.913  -0.214 -0.7859 -0.1848 -1.0491
   36MOL0     C 4753   5.082   6.961  -0.347 -0.2295 -0.1265  0.3593
   36MOL0     C 4754   5.165   7.076  -0.385 -1.0622  0.7667  0.4674
   36MOL0     O 4755   5.215   7.136  -0.282  0.8373 -0.0341  0.1068
   36MOL0     C 4756   5.275   7.254  -0.293  0.9196  0.1881  0.0256
   36MOL0     C 4757   5.414   7.249  -0.302 -0.0618  0.0244  0.0854
   36MOL0     C 4758   5.493   7.364  -0.289 -0.6505 -0.0337 -0.0478
   36MOL0     C 4759   5.429   7.493  -0.278 -0.5208 -0.3602 -0.2788
   36MOL0     O 4760   5.497   7.611  -0.267  0.0974  0.2696 -0.2241
   36MOL0     C 4761   5.609   7.621  -0.354 -0.0421  0.3113  0.2696
   36MOL0     C 4762   5.695   7.757  -0.336 -1.3013 -0.1242 -1.0169
   36MOL0     C 4763   5.768   7.766  -0.204 -0.0012  0.5293 -0.0368
   36MOL0     C 4764   5.879   7.654  -0.198  0.1773 -0.2933 -0.2334
   36MOL0     C 4765   5.989   7.695  -0.097  0.0061 -1.0019 -0.2335
   36MOL0     C 4766   6.058   7.569  -0.047 -0.2157 -0.5698  0.8679
   36MOL0     C 4767   6.183   7.548  -0.139  0.0817  0.0977 -0.7197
   36MOL0     C 4768   6.286   7.466  -0.068 -0.8375  0.1727  0.5043
   36MOL0    Cl 4769   6.428   7.459  -0.181  0.0242  0.1354 -0.3628
   36MOL0     C 4770   5.288   7.495  -0.267 -0.3835 -0.0894  0.0532
   36MOL0     C 4771   5.206   7.380  -0.263 -0.5153 -0.3783  0.1993
   36MOL0     O 4772   5.180   7.107  -0.500  0.8843  0.1215  1.0551
   36MOL0     C 4773   4.994   6.914  -0.447 -0.0654  0.1375 -0.8090
   36MOL0     C 4774   4.906   6.813  -0.409  0.1173  0.4394 -0.5059
   36MOL0     N 4775   4.836   6.121  -0.309 -0.4934 -0.1864 -1.1191
   36MOL0     N 4776   4.781   6.005  -0.325 -0.3357 -0.2038 -0.8068
   36MOL0     C 4777   4.568   6.758   0.071 -1.1717 -0.2916 -0.0562
   36MOL0     C 4778   4.626   6.880   0.097 -0.0570  0.1602  0.7958
   36MOL0     C 4779   4.804   7.275   0.150 -0.0893  0.2470 -0.3111
   36MOL0     C 4780   4.863   7.282   0.275 -0.1242 -0.4330 -1.1833
   36MOL0     C 4781   4.956   7.377   0.315 -0.1654 -0.4239  0.4606
   36MOL0     C 4782   5.005   7.467   0.223 -0.1193  0.4537 -0.8774
   36MOL0     O 4783   5.098   7.567   0.255  0.4044 -0.2295 -0.3198
   36MOL0     C 4784   5.176   7.562   0.378 -1.3615  0.6587  0.1717
   36MOL0     C 4785   5.100   7.626   0.490  0.2729  1.0832  0.1592
   36MOL0     C 4786   5.121   7.781   0.477  0.3415  0.8966 -0.1565
   36MOL0     C 4787   5.053   7.858   0.585 -0.4813 -0.6306  0.0104
   36MOL0     C 4788   4.912   7.870   0.562 -0.2343  0.8014  0.6620
   36MOL0     C 4789   4.793   7.872   0.553 -0.2757  0.4744  0.1717
   36MOL0     C 4790   4.960   7.453   0.087 -0.9362 -0.7452  1.0223
   36MOL0     C 4791   4.861   7.364   0.050  0.7441  0.2128  0.5629
   36MOL0     C 4792   4.830   7.339  -0.094 -0.1346  0.0262  1.5834
   36MOL0     H 4793   4.505   6.955   0.401 -2.6662 -0.3210 -0.7064
   36MOL0     H 4794   4.427   6.709   0.379  1.8026 -0.5640  0.4918
   36MOL0     H 4795   4.358   6.574  -0.030  1.1570  3.3217  2.1095
   36MOL0     H 4796   4.524   6.497  -0.011 -0.0166 -1.3975  0.4981
   36MOL0     H 4797   4.265   6.352   0.082  0.4874  0.2482  2.0560
   36MOL0     H 4798   4.430   6.327   0.136 -0.9417  3.7511  1.8404
   36MOL0     H 4799   4.489   6.259  -0.070  0.5022  2.0579 -2.3851
   36MOL0     H 4800   4.368   6.344  -0.157 -1.4703  3.1580  2.4379
   36MOL0     H 4801   4.271   6.096   0.000 -0.5848  2.1433  0.7777
   36MOL0     H 4802   4.202   6.185  -0.140 -0.7068 -1.4069  0.3617
   36MOL0     H 4803   4.291   5.999  -0.247 -1.2893  0.4648  1.7148
   36MOL0     H 4804   4.413   6.112  -0.270 -0.9428  0.7661 -0.0757
   36MOL0     H 4805   4.531   6.017  -0.056 -0.9536  1.8882 -0.7765
   36MOL0     H 4806   4.396   5.907  -0.036 -1.0164 -0.4767 -0.7858
   36MOL0     H 4807   4.489   5.888  -0.307 -2.4793  1.0832  1.4012
   36MOL0     H 4808   4.469   5.757  -0.180  0.4943 -0.3317  0.4770
   36MOL0     H 4809   4.689   5.789  -0.093  1.4882  2.4803  0.2457
   36MOL0     H 4810   4.703   5.752  -0.259  2.5106  0.3865  0.3789
   36MOL0     H 4811   4.781   6.026   0.002  0.1095  2.0711 -0.1845
   36MOL0     H 4812   4.872   6.299  -0.031  3.4844  1.9216  1.0948
   36MOL0     H 4813   5.031   6.246  -0.101 -1.2556 -3.9935  1.4913
   36MOL0     H 4814   4.978   6.467  -0.154  3.8238  0.8251 -3.1590
   36MOL0     H 4815   4.977   6.379  -0.306  0.6853 -0.7965  0.7613
   36MOL0     H 4816   4.710   6.455  -0.163 -0.5580 -0.5915 -0.2750
   36MOL0     H 4817   4.739   6.357  -0.307 -0.0797  0.5392 -1.0153
   36MOL0     H 4818   4.659   6.565  -0.386  0.7388  0.5293 -1.5778
   36MOL0     H 4819   4.822   6.553  -0.428  1.2721  1.6710 -0.2404
   36MOL0     H 4820   4.933   6.785  -0.083  2.6341 -0.0125  0.7334
   36MOL0     H 4821   5.118   6.962  -0.133 -0.9383  1.7259 -2.0358
   36MOL0     H 4822   5.464   7.156  -0.326  0.4323 -0.4484  2.6166
   36MOL0     H 4823   5.601   7.366  -0.289 -0.6342  2.1784 -0.3646
   36MOL0     H 4824   5.679   7.541  -0.328 -1.9787 -0.9702  1.8235
   36MOL0     H 4825   5.581   7.604  -0.458  0.8929  2.2939 -0.3533
   36MOL0     H 4826   5.760   7.764  -0.424 -1.8320 -1.3396 -1.5435
   36MOL0     H 4827   5.637   7.850  -0.334 -1.6668 -0.3582 -0.6735
   36MOL0     H 4828   5.801   7.869  -0.190 -0.3700  0.8377 -1.3252
   36MOL0     H 4829   5.688   7.747  -0.132  0.6165  0.0242  0.5337
   36MOL0     H 4830   5.919   7.646  -0.299  1.0688 -0.7451  0.1431
   36MOL0     H 4831   5.828   7.563  -0.163 -1.3337  0.4830 -0.3163
   36MOL0     H 4832   5.931   7.742  -0.017  1.2615  0.1770  0.0309
   36MOL0     H 4833   6.059   7.766  -0.142  0.1296 -0.6129  0.5576
   36MOL0     H 4834   6.092   7.588   0.056 -1.9521  1.2321  1.1588
   36MOL0     H 4835   5.996   7.480  -0.038 -2.8088  1.3281  4.6308
   36MOL0     H 4836   6.224   7.644  -0.172 -0.0274  1.2127  2.1593
   36MOL0     H 4837   6.145   7.491  -0.225  1.9833 -2.0885 -0.2321
   36MOL0     H 4838   6.325   7.522   0.018  2.0477  0.9843 -1.2087
   36MOL0     H 4839   6.260   7.363  -0.043 -1.9080  0.2986 -0.0459
   36MOL0     H 4840   5.239   7.587  -0.240  1.2330 -0.1305  3.7023
   36MOL0     H 4841   5.098   7.386  -0.249 -0.6908  0.7924 -1.3201
   36MOL0     H 4842   4.996   6.945  -0.551 -0.2909  0.7111 -0.6460
   36MOL0     H 4843   4.837   6.787  -0.489 -1.0345 -2.3262  1.2450
   36MOL0     H 4844   4.589   6.717  -0.028 -1.0046 -1.3865  0.4156
   36MOL0     H 4845   4.691   6.911   0.016 -1.6174  1.9274  0.1643
   36MOL0     H 4846   4.835   7.209   0.350  4.4056 -0.5914  0.6338
   36MOL0     H 4847   4.988   7.381   0.419 -0.8190 -5.8963  1.1997
   36MOL0     H 4848   5.276   7.605   0.365 -0.3435 -1.5824  0.1170
   36MOL0     H 4849   5.190   7.457   0.405 -0.5223 -0.1673 -3.0120
   36MOL0     H 4850   5.137   7.584   0.584 -0.5082 -1.9128 -0.7322
   36MOL0     H 4851   4.994   7.609   0.468  0.7801 -0.4984 -1.2994
   36MOL0     H 4852   5.089   7.812   0.377 -0.0242  3.1163  0.5726
   36MOL0     H 4853   5.229   7.791   0.490 -0.1419  4.6289  3.3215
   36MOL0     H 4854   5.064   7.815   0.686  0.5507  0.9321  0.5971
   36MOL0     H 4855   5.101   7.956   0.581 -0.3054 -0.4921  2.9886
   36MOL0     H 4856   4.687   7.853   0.554 -0.6746  2.4894  1.7620
   36MOL0     H 4857   4.993   7.532   0.020 -1.1176 -0.9353  0.7109
   36MOL0     H 4858   4.869   7.413  -0.164 -1.0030 -1.5370 -0.7027
   36MOL0     H 4859   4.858   7.245  -0.144 -1.3971  0.0635  0.7436
   36MOL0     H 4860   4.722   7.347  -0.108  0.2788  0.8053 -2.1200
   37MOL0     O 4861   3.736   1.081   2.665 -0.1273  1.2475 -0.5275
   37MOL0     C 4862   3.701   0.983   2.726 -0.4685 -0.3037 -0.9236
   37MOL0     O 4863   3.590   0.969   2.805 -0.3486  0.1950  0.5076
   37MOL0     C 4864   3.515   1.083   2.827  0.0482 -0.1550 -0.0718
   37MOL0     C 4865   3.526   1.152   2.950 -0.3884 -0.4460 -0.5371
   37MOL0     C 4866   3.436   1.260   2.959  0.0989  0.7160 -0.5940
   37MOL0     C 4867   3.344   1.308   2.861 -1.4072  0.4359  0.2488
   37MOL0     O 4868   3.265   1.418   2.872 -0.1181 -0.3713  0.0938
   37MOL0     C 4869   3.263   1.508   2.987 -0.0013  0.2700 -0.6238
   37MOL0     C 4870   3.165   1.447   3.091  0.3586  0.0094  0.6121
   37MOL0     C 4871   3.104   1.548   3.189  0.2069  0.2744  0.2429
   37MOL0     C 4872   2.988   1.470   3.259  0.1178  0.4583 -1.1166
   37MOL0     C 4873   2.914   1.568   3.353 -0.5985  0.3938 -0.9818
   37MOL0     C 4874   2.829   1.671   3.280  0.5330  0.1702 -0.3369
   37MOL0     C 4875   2.788   1.795   3.363  0.0257  0.0520 -0.5591
   37MOL0     C 4876   2.702   1.889   3.279 -0.1966 -0.0246  0.6464
   37MOL0     N 4877   2.591   1.806   3.228  1.0032 -0.0038  0.2017
   37MOL0     C 4878   2.522   1.837   3.110  0.1967  0.3975 -0.6436
   37MOL0     C 4879   2.391   1.812   3.132  0.2698 -1.0080  0.5578
   37MOL0     C 4880   2.285   1.842   3.030  0.4709 -0.1063  0.6202
   37MOL0     C 4881   2.165   1.766   3.057  0.3567  0.0069  0.9454
   37MOL0     C 4882   2.131   1.656   2.949 -0.5840 -0.3545  0.1038
   37MOL0     C 4883   1.983   1.631   2.926 -0.0612  0.1171 -0.3548
   37MOL0     O 4884   1.918   1.736   2.845  0.1212  0.0031 -0.7873
   37MOL0     C 4885   1.781   1.743   2.849 -0.1269 -0.0126  0.3166
   37MOL0     C 4886   1.721   1.775   2.732  0.1804 -0.7646  0.4769
   37MOL0     C 4887   1.585   1.785   2.727  0.4279  0.5353  0.0177
   37MOL0     C 4888   1.502   1.766   2.843 -0.0887 -0.2853 -0.4030
   37MOL0     C 4889   1.353   1.793   2.822  0.1930 -0.0018 -0.5780
   37MOL0     O 4890   1.308   1.817   2.689  0.2278  0.2678 -0.5298
   37MOL0     C 4891   1.174   1.848   2.658 -1.0121 -0.9051  0.0264
   37MOL0     C 4892   1.089   1.919   2.735 -0.2204 -0.3295  0.0023
   37MOL0     C 4893   0.957   1.948   2.687  0.0717 -0.0960 -0.2339
   37MOL0     C 4894   0.926   1.920   2.548  0.5764 -0.2826 -1.3917
   37MOL0     O 4895   0.798   1.949   2.497 -0.0192 -0.2266  0.7975
   37MOL0     C 4896   0.683   1.925   2.579  0.0512  0.2388  0.0303
   37MOL0     C 4897   0.563   1.886   2.488 -1.1824  0.2764 -0.2227
   37MOL0     C 4898   0.518   2.002   2.399  0.8774 -1.2173  0.5610
   37MOL0     C 4899   0.374   1.986   2.332 -0.4310  0.1465 -0.0030
   37MOL0     C 4900   0.309   2.113   2.280  0.5299 -0.2205  0.5329
   37MOL0     C 4901   0.156   2.117   2.269  0.2281 -1.0161 -0.0500
   37MOL0     C 4902   0.101   2.113   2.413  0.2024 -0.0803 -1.4082
   37MOL0     C 4903  -0.050   2.083   2.400  0.5590  0.4538 -0.0273
   37MOL0    Cl 4904  -0.136   2.030   2.539 -0.0795 -0.1346 -0.2000
   37MOL0     C 4905   1.015   1.846   2.475 -0.1832 -0.3883  0.3899
   37MOL0     C 4906   1.144   1.825   2.524 -0.5217  0.2130  0.6462
   37MOL0     O 4907   1.291   1.782   2.930  0.2953  0.7297  0.4736
   37MOL0     C 4908   1.572   1.740   2.968 -0.0356  0.3217  0.1300
   37MOL0     C 4909   1.710   1.727   2.968 -0.9742 -0.1484 -0.0070
   37MOL0     N 4910   2.376   1.756   3.261  0.0590 -0.3401 -1.0053
   37MOL0     N 4911   2.495   1.753   3.314 -0.1251 -0.8881 -0.4240
   37MOL0     C 4912   3.338   1.224   2.749  0.2895 -0.1854 -1.0115
   37MOL0     C 4913   3.427   1.119   2.729 -0.3286 -0.3206 -0.1721
   37MOL0     C 4914   3.781   0.864   2.715 -0.2254 -1.0254 -0.0210
   37MOL0     C 4915   3.864   0.824   2.821 -0.6586 -0.8001  0.6233
   37MOL0     C 4916   3.958   0.720   2.800  0.1666 -0.2643 -1.3573
   37MOL0     C 4917   3.967   0.654   2.679 -0.9187  0.3019  0.3163
   37MOL0     O 4918   4.035   0.538   2.659 -0.0180 -0.0871 -0.4302
   37MOL0     C 4919   4.165   0.525   2.723  0.1979 -0.8337 -0.0567
   37MOL0     C 4920   4.223   0.396   2.668  0.1297  0.2802 -0.3502
   37MOL0     C 4921   4.339   0.331   2.756 -1.1422  0.2335  0.0271
   37MOL0     C 4922   4.305   0.228   2.862  0.5693  0.0154  1.0593
   37MOL0     C 4923   4.274   0.105   2.786 -0.1986 -0.5138  0.1322
   37MOL0     C 4924   4.251  -0.005   2.749  0.2041 -0.5270  1.0403
   37MOL0     C 4925   3.883   0.687   2.575  0.2050  0.6997  0.1499
   37MOL0     C 4926   3.795   0.793   2.589 -0.1018  0.6408 -0.2697
   37MOL0     C 4927   3.696   0.826   2.480  0.8497  0.0219  0.5179
   37MOL0     H 4928   3.589   1.104   3.024  0.8794 -0.5338 -1.6443
   37MOL0     H 4929   3.436   1.318   3.051  1.5107 -1.6177  0.9755
   37MOL0     H 4930   3.364   1.528   3.026 -0.1613 -0.3540  0.1235
   37MOL0     H 4931   3.225   1.609   2.967  1.4315  1.3193  1.4934
   37MOL0     H 4932   3.209   1.373   3.159  0.3829 -0.0494  0.5323
   37MOL0     H 4933   3.081   1.396   3.043  1.0085  1.6411 -2.4643
   37MOL0     H 4934   3.059   1.629   3.130 -2.4448 -3.0733 -2.8465
   37MOL0     H 4935   3.173   1.579   3.268 -0.3773  0.4878  0.6722
   37MOL0     H 4936   2.914   1.436   3.187  0.0993  1.8927 -1.8168
   37MOL0     H 4937   3.030   1.388   3.319  0.4388  0.7265 -0.9712
   37MOL0     H 4938   2.848   1.499   3.405 -0.3711  0.7586 -0.2069
   37MOL0     H 4939   2.991   1.614   3.416 -1.3659 -0.9013  1.0053
   37MOL0     H 4940   2.867   1.697   3.181  0.4792 -1.7232 -0.8881
   37MOL0     H 4941   2.741   1.610   3.261  1.7083 -1.3723 -1.0271
   37MOL0     H 4942   2.865   1.856   3.412 -0.0975  0.8706 -1.3393
   37MOL0     H 4943   2.719   1.759   3.440  0.1742  5.4522  2.6170
   37MOL0     H 4944   2.658   1.976   3.330 -1.5521 -0.8358  0.9102
   37MOL0     H 4945   2.762   1.923   3.194 -1.7163 -1.4160 -1.0762
   37MOL0     H 4946   2.560   1.862   3.012  2.5668 -0.6319 -0.0495
   37MOL0     H 4947   2.275   1.951   3.036  3.0741  0.6051 -3.3700
   37MOL0     H 4948   2.326   1.820   2.931 -0.6442 -1.9258  0.5277
   37MOL0     H 4949   2.164   1.735   3.162  1.0802  0.5331  1.1158
   37MOL0     H 4950   2.073   1.824   3.072 -2.3638 -3.3443 -1.3946
   37MOL0     H 4951   2.173   1.562   2.986 -0.6464 -0.0881  0.8606
   37MOL0     H 4952   2.173   1.676   2.850 -0.8459  1.2370  0.2976
   37MOL0     H 4953   1.931   1.613   3.020 -0.1392  0.0872 -0.4044
   37MOL0     H 4954   1.976   1.538   2.869 -1.7105 -0.5044  0.7974
   37MOL0     H 4955   1.793   1.784   2.651 -0.5992 -1.3987 -0.3167
   37MOL0     H 4956   1.546   1.793   2.626  1.2954 -2.3328 -0.6413
   37MOL0     H 4957   1.113   1.935   2.839 -0.7889  2.1782 -0.1789
   37MOL0     H 4958   0.885   1.995   2.754  0.0406 -3.0652  2.0381
   37MOL0     H 4959   0.705   1.853   2.658  0.5538  2.5787  2.1283
   37MOL0     H 4960   0.651   2.020   2.623 -0.5543 -0.9858  2.4034
   37MOL0     H 4961   0.586   1.795   2.431  2.8659  0.8676  0.1479
   37MOL0     H 4962   0.483   1.868   2.560 -0.2530 -0.8775  0.5759
   37MOL0     H 4963   0.505   2.092   2.460 -0.1519  0.6712 -2.2630
   37MOL0     H 4964   0.596   2.025   2.326  1.3752 -2.5096  0.6595
   37MOL0     H 4965   0.312   1.930   2.401 -0.4579 -0.3981 -0.4629
   37MOL0     H 4966   0.381   1.922   2.243 -1.3343  1.1982 -0.8713
   37MOL0     H 4967   0.354   2.139   2.184  1.9676 -2.8657  0.4077
   37MOL0     H 4968   0.334   2.199   2.342 -2.5257 -0.3941  2.2004
   37MOL0     H 4969   0.108   2.198   2.214  1.5972  0.9677  1.5138
   37MOL0     H 4970   0.135   2.030   2.207  3.8842 -0.4965 -2.3055
   37MOL0     H 4971   0.122   2.206   2.467 -0.9863 -0.6275  0.0752
   37MOL0     H 4972   0.141   2.029   2.472 -0.0852  0.8419  0.1575
   37MOL0     H 4973  -0.097   2.176   2.366  0.3739  0.4694  0.2653
   37MOL0     H 4974  -0.059   2.004   2.325  3.0248 -2.0836  2.1482
   37MOL0     H 4975   0.988   1.813   2.375  1.0262 -4.3460  1.1777
   37MOL0     H 4976   1.230   1.790   2.470 -1.0145  0.3593 -0.2551
   37MOL0     H 4977   1.524   1.730   3.065  0.8436  0.9379  0.6432
   37MOL0     H 4978   1.764   1.719   3.062 -1.6437  0.2890  0.4236
   37MOL0     H 4979   3.266   1.265   2.678 -2.0689 -2.4636 -0.1170
   37MOL0     H 4980   3.416   1.073   2.631 -3.1937 -2.0739  0.8585
   37MOL0     H 4981   3.867   0.867   2.920  0.1155 -2.8181  1.5435
   37MOL0     H 4982   4.013   0.689   2.888  0.6576 -1.1131 -1.9460
   37MOL0     H 4983   4.157   0.516   2.832 -1.6574 -1.9377 -0.2303
   37MOL0     H 4984   4.226   0.611   2.694 -2.6317  0.6764 -2.1147
   37MOL0     H 4985   4.257   0.407   2.565 -0.9341 -1.2409 -0.9120
   37MOL0     H 4986   4.146   0.319   2.656  1.2432 -0.7822 -0.8845
   37MOL0     H 4987   4.386   0.415   2.807  2.2226 -2.5683  2.0861
   37MOL0     H 4988   4.419   0.288   2.694 -1.1572  0.5875 -0.2407
   37MOL0     H 4989   4.394   0.213   2.923  1.3063  2.2805  0.6298
   37MOL0     H 4990   4.213   0.254   2.915 -0.8065 -1.0417 -0.6940
   37MOL0     H 4991   4.228  -0.105   2.717  3.0857 -0.3335 -2.2433
   37MOL0     H 4992   3.883   0.622   2.488  0.3505 -2.9785  2.6579
   37MOL0     H 4993   3.621   0.899   2.512 -0.4226 -0.9023 -0.2972
   37MOL0     H 4994   3.758   0.858   2.395  1.6331 -3.2985 -0.3142
   37MOL0     H 4995   3.635   0.739   2.457  0.6999  0.4571 -0.7908
   38MOL0     O 4996   9.195   7.341   6.388  0.7015 -0.5350 -0.1154
   38MOL0     C 4997   9.269   7.425   6.427 -0.1402  0.0974 -0.0742
   38MOL0     O 4998   9.278   7.551   6.379  0.0788 -0.2443 -0.0595
   38MOL0     C 4999   9.164   7.609   6.327 -0.2594  0.7908 -0.4451
   38MOL0     C 5000   9.065   7.681   6.393  0.2806  0.9019 -0.6112
   38MOL0     C 5001   8.961   7.742   6.322  0.0052  0.8933 -0.4458
   38MOL0     C 5002   8.960   7.742   6.182 -0.5486  0.3101 -0.2661
   38MOL0     O 5003   8.851   7.817   6.144 -0.7784  0.2082  0.0306
   38MOL0     C 5004   8.846   7.845   6.001  0.4598 -0.2459 -0.5154
   38MOL0     C 5005   8.718   7.923   5.954  0.7043 -0.7650 -0.5922
   38MOL0     C 5006   8.607   7.925   6.059  0.4846  0.0152 -0.4102
   38MOL0     C 5007   8.467   7.960   6.008 -0.3982  0.2153  0.3022
   38MOL0     C 5008   8.371   8.002   6.115  0.0893 -0.7734  0.1541
   38MOL0     C 5009   8.236   8.054   6.060  0.1179 -0.0909  0.5387
   38MOL0     C 5010   8.136   8.103   6.160 -0.3156 -1.0338  0.1560
   38MOL0     C 5011   8.172   8.222   6.247 -1.5376  0.3352 -0.7509
   38MOL0     N 5012   8.166   8.365   6.198 -0.4597 -0.6246  0.3347
   38MOL0     C 5013   8.060   8.421   6.115 -1.3829  0.2255  0.5166
   38MOL0     C 5014   8.089   8.553   6.126 -0.4450  0.3537 -0.7495
   38MOL0     C 5015   8.009   8.675   6.079  0.4633  0.3098 -0.5495
   38MOL0     C 5016   7.966   8.652   5.934 -0.1432 -0.6370 -0.4987
   38MOL0     C 5017   8.084   8.685   5.840 -0.0004  0.1828  0.2713
   38MOL0     C 5018   8.051   8.646   5.696 -1.1289  0.2780 -0.0418
   38MOL0     O 5019   7.947   8.725   5.647  0.4056 -0.1666  0.4713
   38MOL0     C 5020   7.987   8.843   5.604 -0.5645  0.3491  0.4983
   38MOL0     C 5021   8.045   8.869   5.478 -0.4232  0.5849 -0.1090
   38MOL0     C 5022   8.059   9.002   5.423  0.7295  0.3003 -0.1020
   38MOL0     C 5023   8.012   9.108   5.499 -0.2024 -0.3680  0.4085
   38MOL0     C 5024   8.027   9.245   5.449 -0.5419  0.4037  1.0745
   38MOL0     O 5025   8.109   9.264   5.350  0.1292 -0.4790  0.3835
   38MOL0     C 5026   8.125   9.394   5.321 -0.7533 -0.3638  0.4211
   38MOL0     C 5027   8.206   9.481   5.402 -0.5270  0.8211  0.4010
   38MOL0     C 5028   8.227   9.609   5.365 -0.4995 -0.2937 -1.1368
   38MOL0     C 5029   8.180   9.661   5.250  0.1520  0.0128 -0.7325
   38MOL0     O 5030   8.202   9.801   5.226 -0.1523 -0.5328 -0.3026
   38MOL0     C 5031   8.205   9.839   5.093 -0.0047 -0.1118 -0.7607
   38MOL0     C 5032   8.092   9.949   5.060 -0.2746 -0.0664  0.4155
   38MOL0     C 5033   8.102  10.018   4.924  0.4858 -0.6000  0.1383
   38MOL0     C 5034   8.229  10.103   4.897  0.2024 -0.6835  0.4221
   38MOL0     C 5035   8.210  10.238   4.979  0.4283 -0.3640 -0.7164
   38MOL0     C 5036   8.346  10.307   5.028  0.7210  0.1772 -0.5326
   38MOL0     C 5037   8.434  10.355   4.913  0.1317 -0.1882  0.0214
   38MOL0     C 5038   8.529  10.467   4.950  0.9530 -0.2686  0.7348
   38MOL0    Cl 5039   8.642  10.507   4.819  0.0558 -0.5101  0.2499
   38MOL0     C 5040   8.104   9.576   5.162 -0.2270 -0.1681  1.2737
   38MOL0     C 5041   8.069   9.443   5.199  0.9142 -0.3530 -0.4755
   38MOL0     O 5042   7.951   9.322   5.497 -0.0703 -0.4479  0.2703
   38MOL0     C 5043   7.951   9.085   5.627  0.6414  0.7586  0.2439
   38MOL0     C 5044   7.941   8.955   5.682  0.3244 -0.4818 -0.3470
   38MOL0     N 5045   8.201   8.573   6.204  0.3652  0.1623  0.1406
   38MOL0     N 5046   8.250   8.457   6.243  0.0342 -0.7641  0.5809
   38MOL0     C 5047   9.067   7.679   6.112 -0.0906  0.0167 -0.5903
   38MOL0     C 5048   9.166   7.619   6.190 -0.9166 -0.7624 -0.3145
   38MOL0     C 5049   9.359   7.373   6.539  0.0428 -0.5892 -0.3252
   38MOL0     C 5050   9.428   7.244   6.535 -0.5290  0.4669  0.3870
   38MOL0     C 5051   9.526   7.207   6.625 -0.2718 -0.2355 -0.2728
   38MOL0     C 5052   9.545   7.283   6.733  0.1427 -0.1472  0.8642
   38MOL0     O 5053   9.632   7.252   6.840 -0.0543  0.5770 -0.4023
   38MOL0     C 5054   9.721   7.138   6.826 -0.3770  1.1197 -0.3761
   38MOL0     C 5055   9.809   7.124   6.952 -0.4341  0.4457 -0.1860
   38MOL0     C 5056   9.722   7.126   7.088 -0.4129  0.2660 -0.1069
   38MOL0     C 5057   9.705   7.263   7.151  0.3850  0.7309 -0.5674
   38MOL0     C 5058   9.751   7.274   7.294  0.6289 -0.1430  0.0050
   38MOL0     C 5059   9.775   7.286   7.412 -0.8713  0.2325 -0.1101
   38MOL0     C 5060   9.470   7.400   6.755 -0.4200 -0.4250 -0.0236
   38MOL0     C 5061   9.385   7.446   6.655  0.2306  0.1456 -0.0809
   38MOL0     C 5062   9.328   7.591   6.660 -0.2326  0.2403  0.1575
   38MOL0     H 5063   9.053   7.696   6.500 -3.7418  1.1546 -0.9525
   38MOL0     H 5064   8.887   7.803   6.374 -0.9890  0.8547 -1.7673
   38MOL0     H 5065   8.938   7.896   5.972  1.9597 -0.9613  2.5142
   38MOL0     H 5066   8.847   7.752   5.945 -2.3893 -0.4160 -0.4464
   38MOL0     H 5067   8.692   7.880   5.857  0.5471  1.8360 -1.7848
   38MOL0     H 5068   8.742   8.028   5.935  0.0432 -0.9315 -2.4995
   38MOL0     H 5069   8.643   8.003   6.126  1.5411 -1.3191  0.6380
   38MOL0     H 5070   8.594   7.822   6.095  0.7045  0.5731  1.3428
   38MOL0     H 5071   8.470   8.041   5.934  2.1644 -0.8466 -0.8718
   38MOL0     H 5072   8.427   7.884   5.941  0.2156  2.1042 -2.4129
   38MOL0     H 5073   8.352   7.917   6.181 -0.3624 -0.2900  0.6645
   38MOL0     H 5074   8.410   8.088   6.172 -0.3718  1.7563 -3.0637
   38MOL0     H 5075   8.252   8.142   5.996 -0.9612 -0.6235 -0.5011
   38MOL0     H 5076   8.198   7.976   5.993  1.2574  0.6427 -1.0303
   38MOL0     H 5077   8.104   8.018   6.222  1.6555 -1.3908  0.7368
   38MOL0     H 5078   8.059   8.132   6.088 -2.0114 -2.2880  1.3768
   38MOL0     H 5079   8.103   8.232   6.332 -0.4212  0.9360  0.1143
   38MOL0     H 5080   8.271   8.188   6.280 -2.1724 -2.0661 -1.0792
   38MOL0     H 5081   7.991   8.362   6.057 -1.2988  0.6688 -0.0450
   38MOL0     H 5082   7.913   8.663   6.131 -0.4952 -2.3014 -2.6834
   38MOL0     H 5083   8.059   8.769   6.104  0.7329  0.0735 -0.1931
   38MOL0     H 5084   7.935   8.547   5.929  3.5321 -1.9595  1.1228
   38MOL0     H 5085   7.879   8.717   5.921 -0.3002 -0.4076  1.4058
   38MOL0     H 5086   8.172   8.627   5.871  1.4693  2.2505  0.1272
   38MOL0     H 5087   8.112   8.789   5.858  1.8416 -0.5087  1.8679
   38MOL0     H 5088   8.017   8.542   5.694  1.4602 -0.6533 -0.4149
   38MOL0     H 5089   8.142   8.658   5.635  0.6649 -2.3785  1.8772
   38MOL0     H 5090   8.084   8.782   5.426  0.8037  0.9905  0.0976
   38MOL0     H 5091   8.119   9.013   5.333 -1.7969  0.0887 -1.9041
   38MOL0     H 5092   8.244   9.451   5.499 -0.0333  1.0729  0.2903
   38MOL0     H 5093   8.280   9.678   5.431 -1.4604  0.2476 -0.9138
   38MOL0     H 5094   8.306   9.877   5.078  1.4662 -2.7504  1.3963
   38MOL0     H 5095   8.185   9.761   5.019 -2.6781  0.5566 -0.8778
   38MOL0     H 5096   8.000   9.900   5.093  0.2380 -1.2344  0.1695
   38MOL0     H 5097   8.106  10.034   5.128  1.1807 -2.2938  3.1180
   38MOL0     H 5098   8.093   9.941   4.847  0.1929  0.8754 -1.3662
   38MOL0     H 5099   8.018  10.086   4.906 -0.6266 -1.3682  2.1459
   38MOL0     H 5100   8.249  10.123   4.791 -2.4848  3.0116  0.4324
   38MOL0     H 5101   8.317  10.051   4.938  0.2361 -2.1850 -1.4206
   38MOL0     H 5102   8.137  10.231   5.060  0.4934  2.2893 -0.3289
   38MOL0     H 5103   8.158  10.296   4.902  0.0926 -3.0595 -2.6600
   38MOL0     H 5104   8.327  10.391   5.095  0.1387  0.0085 -0.4774
   38MOL0     H 5105   8.400  10.227   5.079 -2.4129 -0.5610  2.0158
   38MOL0     H 5106   8.377  10.378   4.822 -1.3580  2.2545  1.4669
   38MOL0     H 5107   8.499  10.269   4.890  0.6525  0.2453 -0.1577
   38MOL0     H 5108   8.482  10.561   4.979  0.2759  0.7844 -3.1968
   38MOL0     H 5109   8.584  10.434   5.039  2.8211  3.5571  1.1949
   38MOL0     H 5110   8.065   9.605   5.065  1.2076  0.6871  0.9190
   38MOL0     H 5111   8.016   9.374   5.134 -0.2800 -1.9419  2.0542
   38MOL0     H 5112   7.923   9.170   5.689  0.4428  0.9411 -0.0982
   38MOL0     H 5113   7.906   8.933   5.782 -1.4484  3.1628  0.0235
   38MOL0     H 5114   9.069   7.677   6.003  1.8923  2.2586 -0.6751
   38MOL0     H 5115   9.244   7.564   6.140  1.6166  2.6041 -0.4083
   38MOL0     H 5116   9.407   7.175   6.455 -1.6884  0.2513  0.8588
   38MOL0     H 5117   9.588   7.118   6.613  3.6798  2.1463  0.6104
   38MOL0     H 5118   9.793   7.144   6.743 -1.0227 -2.3290 -1.3553
   38MOL0     H 5119   9.667   7.044   6.824 -1.2089  1.5798  0.2038
   38MOL0     H 5120   9.886   7.201   6.943  1.0192 -1.0602 -1.1424
   38MOL0     H 5121   9.854   7.024   6.953  1.0235  1.0671  0.6098
   38MOL0     H 5122   9.760   7.046   7.152 -4.1022 -3.0800 -1.6660
   38MOL0     H 5123   9.624   7.081   7.069  0.8098 -3.0747  0.8030
   38MOL0     H 5124   9.775   7.337   7.113  1.0087  1.7921  2.4135
   38MOL0     H 5125   9.599   7.291   7.144  0.5233  1.7160  0.9794
   38MOL0     H 5126   9.792   7.296   7.517  2.5501  0.1516 -0.5438
   38MOL0     H 5127   9.492   7.458   6.844 -0.4235  0.5446 -0.6381
   38MOL0     H 5128   9.224   7.594   6.627  0.4678 -3.0088 -3.0352
   38MOL0     H 5129   9.329   7.627   6.763 -2.7181  0.3234  0.1987
   38MOL0     H 5130   9.386   7.663   6.600 -3.4970  2.7139 -0.3141
   39MOL0     O 5131   5.401   2.489   1.228  0.5358 -0.2266  0.7769
   39MOL0     C 5132   5.307   2.543   1.166 -0.0137 -0.4742 -0.2310
   39MOL0     O 5133   5.207   2.472   1.111 -0.3893  0.7541 -0.3861
   39MOL0     C 5134   5.227   2.335   1.086  0.5581 -0.7481  1.2586
   39MOL0     C 5135   5.342   2.287   1.031 -0.4656  0.0171 -0.2085
   39MOL0     C 5136   5.357   2.150   0.998  0.1509  0.4676 -0.0149
   39MOL0     C 5137   5.257   2.061   1.022  0.6708 -0.4905  0.6899
   39MOL0     O 5138   5.266   1.934   0.978  0.2767  0.7841 -0.7772
   39MOL0     C 5139   5.187   1.826   1.029 -0.5347 -0.4566 -0.4617
   39MOL0     C 5140   5.259   1.759   1.147 -0.8212  0.7278 -0.2151
   39MOL0     C 5141   5.407   1.722   1.112 -0.4245  0.0602  0.3773
   39MOL0     C 5142   5.477   1.614   1.199 -0.0971  0.3561  0.3593
   39MOL0     C 5143   5.586   1.539   1.111  0.0046 -1.0337  0.5847
   39MOL0     C 5144   5.542   1.421   1.016  0.5171 -0.2044 -1.0628
   39MOL0     C 5145   5.669   1.361   0.947  1.0500  0.0458 -0.8244
   39MOL0     C 5146   5.624   1.245   0.858 -0.5827  0.4986  0.0022
   39MOL0     N 5147   5.576   1.124   0.939 -0.0443  0.5872  0.2376
   39MOL0     C 5148   5.457   1.109   1.003  0.1396 -0.2527  0.3629
   39MOL0     C 5149   5.452   0.974   1.025  1.0317 -0.8280 -0.0771
   39MOL0     C 5150   5.334   0.891   1.083 -1.0252 -0.3099  0.9211
   39MOL0     C 5151   5.364   0.737   1.082  0.6049  0.0944 -0.0920
   39MOL0     C 5152   5.367   0.668   0.946 -0.0266 -0.0245 -0.5671
   39MOL0     C 5153   5.241   0.694   0.858 -0.6491  0.7838  0.7103
   39MOL0     O 5154   5.107   0.675   0.916  0.1198  0.2196 -0.3877
   39MOL0     C 5155   5.028   0.576   0.873 -1.6072 -0.1684 -0.0837
   39MOL0     C 5156   4.887   0.585   0.874 -0.9778  1.2265 -0.7122
   39MOL0     C 5157   4.807   0.481   0.841  0.1724  0.5797 -0.6686
   39MOL0     C 5158   4.866   0.359   0.804  0.1613  0.0807 -0.7809
   39MOL0     C 5159   4.789   0.244   0.747 -0.2702 -0.5843 -0.4675
   39MOL0     O 5160   4.854   0.130   0.697 -0.4522 -0.3589  0.5331
   39MOL0     C 5161   4.782   0.023   0.637 -0.7280 -0.4656  1.4795
   39MOL0     C 5162   4.649   0.019   0.583  0.1351  0.1335  0.1966
   39MOL0     C 5163   4.595  -0.095   0.516 -0.5986 -0.0565  0.5010
   39MOL0     C 5164   4.683  -0.204   0.502  0.4856 -0.6733 -0.4039
   39MOL0     O 5165   4.632  -0.302   0.417  0.0330 -0.3468  0.5180
   39MOL0     C 5166   4.623  -0.426   0.482 -0.9927 -0.0441  1.0888
   39MOL0     C 5167   4.474  -0.459   0.473 -0.2364 -0.1945 -0.8745
   39MOL0     C 5168   4.433  -0.577   0.562 -0.3286  0.6745  0.2679
   39MOL0     C 5169   4.480  -0.713   0.527  0.3333 -0.4814  0.2644
   39MOL0     C 5170   4.391  -0.820   0.589 -0.1455 -0.0289  0.1329
   39MOL0     C 5171   4.354  -0.931   0.491 -0.6572  0.3340  0.7112
   39MOL0     C 5172   4.473  -1.007   0.438 -0.4036  0.9848  0.0003
   39MOL0     C 5173   4.436  -1.110   0.334 -0.1400  0.8259 -0.1360
   39MOL0    Cl 5174   4.283  -1.210   0.373  0.2567 -0.0853 -0.3673
   39MOL0     C 5175   4.808  -0.206   0.567  0.3800  0.6437  0.8123
   39MOL0     C 5176   4.854  -0.095   0.627 -0.3949 -0.3163  0.0840
   39MOL0     O 5177   4.673   0.265   0.754  0.7962 -0.4895 -0.1052
   39MOL0     C 5178   5.005   0.343   0.819 -0.1074  0.1964  0.5055
   39MOL0     C 5179   5.086   0.455   0.835  0.3481  1.1679  0.4247
   39MOL0     N 5180   5.577   0.925   0.986  0.4023  0.3137  0.0058
   39MOL0     N 5181   5.648   1.018   0.946 -0.2238  0.0801  0.6093
   39MOL0     C 5182   5.140   2.108   1.085  0.4362 -0.4586 -0.1571
   39MOL0     C 5183   5.127   2.253   1.106  0.8043  1.1032 -0.6219
   39MOL0     C 5184   5.293   2.693   1.179 -0.5554  0.0860  0.3463
   39MOL0     C 5185   5.160   2.739   1.192 -0.7086  0.3798  0.2211
   39MOL0     C 5186   5.136   2.870   1.237 -0.1266 -0.2633  0.7881
   39MOL0     C 5187   5.240   2.962   1.257  0.2935  0.5307  0.2989
   39MOL0     O 5188   5.209   3.089   1.285 -0.2260  0.1070 -0.0393
   39MOL0     C 5189   5.261   3.190   1.195 -0.5821  0.1787  0.8470
   39MOL0     C 5190   5.150   3.275   1.138  0.1475 -0.5433  0.0836
   39MOL0     C 5191   5.176   3.320   0.994  0.8011 -0.3125 -0.1431
   39MOL0     C 5192   5.250   3.446   0.998 -0.3997 -0.2667 -0.5290
   39MOL0     C 5193   5.261   3.513   0.868 -0.2011 -0.3525  0.3783
   39MOL0     C 5194   5.270   3.576   0.764 -0.1311  0.2641  0.0534
   39MOL0     C 5195   5.372   2.920   1.244  0.0169 -0.4497 -0.1213
   39MOL0     C 5196   5.396   2.785   1.202  0.0797 -0.8924 -0.0157
   39MOL0     C 5197   5.543   2.747   1.197  1.0729 -0.6746 -0.4050
   39MOL0     H 5198   5.429   2.352   1.017 -3.5282  4.5840 -0.1400
   39MOL0     H 5199   5.450   2.127   0.947 -1.2722 -1.6989 -1.8301
   39MOL0     H 5200   5.088   1.851   1.069  0.0422  2.9496 -0.8663
   39MOL0     H 5201   5.173   1.754   0.948 -1.1233  1.3596 -2.0598
   39MOL0     H 5202   5.209   1.664   1.166  2.9285 -0.6888  5.2489
   39MOL0     H 5203   5.256   1.817   1.240 -1.0679  1.5433 -0.7191
   39MOL0     H 5204   5.470   1.811   1.124 -0.9309  0.5572 -0.5250
   39MOL0     H 5205   5.407   1.697   1.006  3.9384  0.6082  0.0646
   39MOL0     H 5206   5.525   1.658   1.286 -0.6065 -1.9414  1.9114
   39MOL0     H 5207   5.408   1.536   1.234  0.9855 -0.3195  1.0518
   39MOL0     H 5208   5.634   1.616   1.049 -1.1802 -0.2996  0.5358
   39MOL0     H 5209   5.655   1.491   1.180  4.9887  4.7393  0.4076
   39MOL0     H 5210   5.498   1.344   1.079 -0.6475 -2.1640 -4.0588
   39MOL0     H 5211   5.475   1.433   0.931  0.7526  0.9558 -1.1086
   39MOL0     H 5212   5.746   1.329   1.018  2.3683  2.3690 -1.1027
   39MOL0     H 5213   5.711   1.444   0.890  3.1686  1.2644  2.2288
   39MOL0     H 5214   5.543   1.274   0.789 -0.0560 -2.1173 -1.8726
   39MOL0     H 5215   5.710   1.218   0.796 -0.1517  2.4466 -0.3094
   39MOL0     H 5216   5.378   1.182   1.021  0.9201  1.2068 -1.7058
   39MOL0     H 5217   5.327   0.922   1.187  0.3433 -1.1633  1.3004
   39MOL0     H 5218   5.241   0.920   1.034 -0.0534  0.8477 -0.3052
   39MOL0     H 5219   5.459   0.714   1.131  0.9189 -0.1820 -0.8206
   39MOL0     H 5220   5.285   0.685   1.138 -1.6398  1.9556 -1.3258
   39MOL0     H 5221   5.372   0.560   0.963  1.2597 -0.1503 -1.5755
   39MOL0     H 5222   5.458   0.687   0.888 -0.9220 -1.0948 -2.3960
   39MOL0     H 5223   5.249   0.634   0.766 -1.6521 -1.8215  2.2081
   39MOL0     H 5224   5.250   0.798   0.828 -2.2014  1.1031  1.2849
   39MOL0     H 5225   4.841   0.679   0.904 -0.8103  0.7125  1.3274
   39MOL0     H 5226   4.700   0.497   0.826  0.2820  2.8675  0.4675
   39MOL0     H 5227   4.580   0.102   0.579 -0.1115 -0.1213 -1.2536
   39MOL0     H 5228   4.504  -0.083   0.459  0.6446 -1.4545 -1.9271
   39MOL0     H 5229   4.679  -0.497   0.420  3.6947  2.4438  2.0574
   39MOL0     H 5230   4.659  -0.441   0.584 -0.0681  6.1181  2.0163
   39MOL0     H 5231   4.407  -0.379   0.506 -0.5133 -0.8760  0.2757
   39MOL0     H 5232   4.442  -0.481   0.371 -2.9963 -0.2697 -0.0818
   39MOL0     H 5233   4.466  -0.550   0.663 -0.7657  0.6681  0.4117
   39MOL0     H 5234   4.324  -0.572   0.559 -0.2965  0.9948 -1.2588
   39MOL0     H 5235   4.585  -0.725   0.555  0.3296 -0.1375  0.4242
   39MOL0     H 5236   4.480  -0.716   0.418  5.2322 -3.3516  0.0131
   39MOL0     H 5237   4.298  -0.779   0.629  1.9473  5.6864  0.0345
   39MOL0     H 5238   4.444  -0.853   0.678  2.1716 -0.6102 -1.3983
   39MOL0     H 5239   4.281  -0.996   0.541 -3.9789  1.5635 -2.0935
   39MOL0     H 5240   4.305  -0.887   0.403  0.2151 -1.4356 -0.7167
   39MOL0     H 5241   4.522  -1.065   0.517  2.6804  0.1344 -2.3267
   39MOL0     H 5242   4.541  -0.935   0.391 -1.4853 -0.4078 -4.1252
   39MOL0     H 5243   4.435  -1.039   0.251  1.5137 -0.7316 -1.5927
   39MOL0     H 5244   4.517  -1.182   0.320 -0.0261  1.3784 -2.7819
   39MOL0     H 5245   4.878  -0.289   0.561 -0.4380 -0.0156 -0.0133
   39MOL0     H 5246   4.947  -0.100   0.683  0.0019  1.4878 -0.3506
   39MOL0     H 5247   5.046   0.245   0.798 -1.1450  0.2759 -2.3199
   39MOL0     H 5248   5.192   0.440   0.817 -0.1826 -1.4349 -0.9897
   39MOL0     H 5249   5.054   2.051   1.119  1.2240 -2.3207 -1.1549
   39MOL0     H 5250   5.033   2.287   1.148  0.9764 -0.3831  1.0939
   39MOL0     H 5251   5.079   2.669   1.176  0.9436 -1.5492 -0.0289
   39MOL0     H 5252   5.032   2.892   1.259 -0.6951 -1.3875 -0.6109
   39MOL0     H 5253   5.328   3.155   1.116 -1.7810 -0.7917  0.2163
   39MOL0     H 5254   5.324   3.256   1.255  1.7223 -1.8168  0.8047
   39MOL0     H 5255   5.134   3.364   1.199 -2.7924  0.2356 -1.5930
   39MOL0     H 5256   5.055   3.221   1.128 -0.2715 -0.2959  2.2332
   39MOL0     H 5257   5.080   3.332   0.943  0.1008 -1.4979  0.8486
   39MOL0     H 5258   5.232   3.244   0.939  1.3968  1.2181 -1.7556
   39MOL0     H 5259   5.200   3.515   1.066  2.6488 -0.0915  1.7210
   39MOL0     H 5260   5.350   3.447   1.042  1.3912 -2.8085 -3.9812
   39MOL0     H 5261   5.272   3.638   0.677  4.4319  2.0732  1.1846
   39MOL0     H 5262   5.456   2.989   1.254 -0.8238  0.4179  1.2156
   39MOL0     H 5263   5.565   2.727   1.303 -4.3498 -1.7669  0.7783
   39MOL0     H 5264   5.573   2.666   1.130  4.6417 -0.0774  0.2515
   39MOL0     H 5265   5.603   2.830   1.160  2.3288 -0.7550  1.2902
   40MOL0     O 5266   2.700   1.617   4.474  0.1354  0.7596 -0.5803
   40MOL0     C 5267   2.692   1.652   4.592  0.0797 -1.0290 -0.3173
   40MOL0     O 5268   2.619   1.755   4.641  0.4816  0.6716  0.1414
   40MOL0     C 5269   2.573   1.848   4.545 -0.1446 -0.4185  0.6075
   40MOL0     C 5270   2.429   1.868   4.535 -0.3394 -0.2480  0.4165
   40MOL0     C 5271   2.391   1.967   4.434  0.4691 -0.1198  0.4653
   40MOL0     C 5272   2.473   2.051   4.361 -1.3441 -0.5833  0.1821
   40MOL0     O 5273   2.427   2.158   4.296  0.5118  0.0640  0.5635
   40MOL0     C 5274   2.490   2.283   4.314 -0.4440 -0.1254 -0.1898
   40MOL0     C 5275   2.561   2.335   4.188  1.0157 -0.3298 -0.2563
   40MOL0     C 5276   2.471   2.396   4.078  0.2963 -0.2707  0.0796
   40MOL0     C 5277   2.533   2.387   3.938 -0.6775 -0.8373  0.0216
   40MOL0     C 5278   2.438   2.442   3.824 -0.1925 -0.1256  0.1593
   40MOL0     C 5279   2.290   2.389   3.838  0.6229  0.3103 -0.1403
   40MOL0     C 5280   2.202   2.427   3.722 -0.4832 -0.6685 -0.0626
   40MOL0     C 5281   2.045   2.417   3.752  0.0453 -0.5238  0.2010
   40MOL0     N 5282   1.958   2.490   3.660 -0.0959  0.1294  0.0943
   40MOL0     C 5283   1.885   2.439   3.558  0.4295 -0.2038  0.9527
   40MOL0     C 5284   1.817   2.548   3.500 -0.4739 -0.0772  0.1780
   40MOL0     C 5285   1.709   2.553   3.389  0.8750 -0.4566  0.0221
   40MOL0     C 5286   1.580   2.500   3.431  0.1606  0.0641  0.4890
   40MOL0     C 5287   1.499   2.461   3.300 -0.8839  0.7709 -0.5433
   40MOL0     C 5288   1.349   2.440   3.314  0.9106  1.0292 -0.5170
   40MOL0     O 5289   1.302   2.573   3.338  0.1066  1.1192  0.5168
   40MOL0     C 5290   1.266   2.655   3.229 -0.3340 -0.5565 -0.1535
   40MOL0     C 5291   1.341   2.777   3.207  0.4102  1.1953 -0.3062
   40MOL0     C 5292   1.291   2.870   3.114  0.0734 -0.3430 -0.3512
   40MOL0     C 5293   1.165   2.851   3.048 -0.4805 -0.2128 -0.0902
   40MOL0     C 5294   1.104   2.952   2.955 -0.4517  0.1203  0.5185
   40MOL0     O 5295   1.150   3.079   2.967 -0.4279 -0.0456  0.2934
   40MOL0     C 5296   1.079   3.178   2.911  0.4893 -0.0655 -0.2790
   40MOL0     C 5297   0.932   3.177   2.912 -0.4373 -0.4353  0.8605
   40MOL0     C 5298   0.857   3.280   2.849  0.2203 -0.3883 -0.7644
   40MOL0     C 5299   0.921   3.394   2.800 -0.6448  0.5297 -0.9377
   40MOL0     O 5300   0.833   3.486   2.745 -0.6149 -0.2186 -0.0428
   40MOL0     C 5301   0.891   3.618   2.721 -0.0476  1.0359  0.4719
   40MOL0     C 5302   0.957   3.626   2.583 -0.3980  1.4758 -0.0968
   40MOL0     C 5303   1.042   3.740   2.567 -0.9936  0.7123  1.0244
   40MOL0     C 5304   1.127   3.740   2.435 -0.7929 -0.1850  0.0624
   40MOL0     C 5305   1.199   3.882   2.431  0.2543  0.0372 -0.2190
   40MOL0     C 5306   1.330   3.890   2.345 -0.2906 -0.6690  0.7299
   40MOL0     C 5307   1.386   4.040   2.345  1.1653 -0.5858 -0.0923
   40MOL0     C 5308   1.523   4.015   2.282 -1.1295  0.4927 -1.0227
   40MOL0    Cl 5309   1.502   3.978   2.105  0.1865  0.3270  0.2956
   40MOL0     C 5310   1.059   3.401   2.815 -0.0081  0.4324  1.0887
   40MOL0     C 5311   1.137   3.291   2.867 -0.0461 -0.9625  1.8293
   40MOL0     O 5312   1.018   2.919   2.876  0.5018  0.3286  0.8157
   40MOL0     C 5313   1.099   2.734   3.069 -0.6179  0.1950  0.3249
   40MOL0     C 5314   1.152   2.634   3.150 -0.0761 -0.7082  0.1205
   40MOL0     N 5315   1.864   2.664   3.569 -0.5234 -0.1280  0.8225
   40MOL0     N 5316   1.944   2.627   3.663  0.1467  0.2382  0.5480
   40MOL0     C 5317   2.614   2.023   4.372 -0.3541 -0.7194 -0.8217
   40MOL0     C 5318   2.659   1.921   4.459 -0.7469  0.4917  0.1734
   40MOL0     C 5319   2.801   1.589   4.686  0.0245  0.2644 -0.0740
   40MOL0     C 5320   2.888   1.499   4.628  1.2412 -0.6491  0.2993
   40MOL0     C 5321   2.982   1.437   4.705  0.2257  0.8955  0.1950
   40MOL0     C 5322   3.013   1.471   4.837 -0.7167  0.1359 -1.1652
   40MOL0     O 5323   3.126   1.423   4.889 -0.2934  0.6871  0.1532
   40MOL0     C 5324   3.164   1.451   5.028  0.7284  0.0358 -0.0099
   40MOL0     C 5325   3.317   1.450   5.039  0.0073 -0.3770 -0.6222
   40MOL0     C 5326   3.377   1.311   4.988 -0.3617  0.6359 -0.7716
   40MOL0     C 5327   3.538   1.309   5.009  0.8162  0.0383  0.3676
   40MOL0     C 5328   3.598   1.414   4.925 -0.4015  0.1766 -0.0519
   40MOL0     C 5329   3.653   1.508   4.881 -0.3609 -0.8985  0.5131
   40MOL0     C 5330   2.922   1.563   4.890 -0.0311  0.2494 -2.0987
   40MOL0     C 5331   2.817   1.627   4.828 -0.5884  1.2497  0.3427
   40MOL0     C 5332   2.735   1.721   4.897  0.8819  0.2984  0.1723
   40MOL0     H 5333   2.358   1.811   4.594 -0.7763  0.8712  1.0246
   40MOL0     H 5334   2.283   1.979   4.430  0.2259 -1.8285  1.0959
   40MOL0     H 5335   2.416   2.362   4.334  0.1824  0.5720 -0.5469
   40MOL0     H 5336   2.556   2.279   4.401 -0.4957  0.3820 -0.1250
   40MOL0     H 5337   2.615   2.251   4.144  2.4713  2.2182 -3.8002
   40MOL0     H 5338   2.632   2.416   4.211  1.5207 -0.7307 -0.3690
   40MOL0     H 5339   2.460   2.501   4.106  2.6562 -0.0809  0.5710
   40MOL0     H 5340   2.381   2.336   4.090 -0.5432  1.1989  1.4892
   40MOL0     H 5341   2.631   2.435   3.928 -0.2183 -1.8663 -0.5364
   40MOL0     H 5342   2.542   2.280   3.915 -2.4566 -0.9043 -0.4859
   40MOL0     H 5343   2.430   2.551   3.825  3.4525  0.3394 -2.1504
   40MOL0     H 5344   2.483   2.411   3.729  1.3349  0.2814  0.7218
   40MOL0     H 5345   2.287   2.280   3.830 -2.2328  0.4529 -3.0410
   40MOL0     H 5346   2.241   2.427   3.928  0.3132 -1.9073  0.6906
   40MOL0     H 5347   2.222   2.370   3.630  2.0042 -0.0358  0.0148
   40MOL0     H 5348   2.217   2.532   3.697 -0.0202 -0.0026  2.7565
   40MOL0     H 5349   2.016   2.313   3.767 -0.0451 -0.4524  0.5296
   40MOL0     H 5350   2.029   2.460   3.852 -5.2019  0.9640 -1.0012
   40MOL0     H 5351   1.891   2.336   3.526  2.2433  0.8738 -2.8116
   40MOL0     H 5352   1.695   2.649   3.340  2.7640 -0.8700 -1.4653
   40MOL0     H 5353   1.746   2.500   3.300 -3.2582  1.6096 -3.2847
   40MOL0     H 5354   1.600   2.416   3.498 -2.3654  0.0543  1.3459
   40MOL0     H 5355   1.531   2.567   3.503  0.0936 -1.5896  2.0500
   40MOL0     H 5356   1.535   2.358   3.289 -0.9623  1.0035 -5.4283
   40MOL0     H 5357   1.522   2.520   3.210 -0.2029  0.5744 -0.5055
   40MOL0     H 5358   1.317   2.376   3.397 -2.0145  2.1178 -0.7014
   40MOL0     H 5359   1.303   2.393   3.226 -3.5798 -1.2249  2.5949
   40MOL0     H 5360   1.439   2.783   3.253  0.5843  1.0792 -0.6527
   40MOL0     H 5361   1.350   2.959   3.093  3.1331 -2.5682 -2.0575
   40MOL0     H 5362   0.880   3.092   2.955 -1.0069 -2.4549 -3.3648
   40MOL0     H 5363   0.749   3.282   2.858  0.0783  2.8137 -1.7450
   40MOL0     H 5364   0.807   3.687   2.727 -1.7232 -0.8693 -0.0852
   40MOL0     H 5365   0.957   3.630   2.808 -1.0849 -0.4960  1.5176
   40MOL0     H 5366   1.015   3.540   2.550 -0.7163  0.8821  0.8584
   40MOL0     H 5367   0.878   3.652   2.512  0.2512  1.7959 -0.7061
   40MOL0     H 5368   0.986   3.834   2.572  1.6199  2.4877 -0.2545
   40MOL0     H 5369   1.115   3.740   2.649  0.1637 -0.1684  0.0236
   40MOL0     H 5370   1.061   3.732   2.347 -0.2560 -0.1320 -0.3500
   40MOL0     H 5371   1.196   3.656   2.436 -3.5966 -2.7001 -1.5241
   40MOL0     H 5372   1.235   3.918   2.528  0.7802 -0.0184 -0.3862
   40MOL0     H 5373   1.127   3.956   2.395 -1.3029 -1.7433 -0.8640
   40MOL0     H 5374   1.398   3.810   2.374  2.5291 -0.1078 -3.5353
   40MOL0     H 5375   1.288   3.864   2.248  0.7567 -0.2101  0.1491
   40MOL0     H 5376   1.397   4.086   2.444  0.2130 -0.3898 -0.0627
   40MOL0     H 5377   1.323   4.103   2.281 -1.9476 -1.7316  1.6264
   40MOL0     H 5378   1.590   4.101   2.292  1.8186 -1.8160  0.7635
   40MOL0     H 5379   1.572   3.929   2.329  0.9609  0.0628 -3.7036
   40MOL0     H 5380   1.100   3.491   2.770 -1.7464 -0.5550 -2.8667
   40MOL0     H 5381   1.245   3.296   2.862  0.0413 -2.9939  0.4494
   40MOL0     H 5382   1.005   2.717   3.018 -1.5705 -0.6212  2.2486
   40MOL0     H 5383   1.101   2.539   3.168  2.0911 -1.3424  3.7816
   40MOL0     H 5384   2.685   2.078   4.311  1.5236 -0.7849  1.1977
   40MOL0     H 5385   2.763   1.892   4.472 -1.0804 -0.0163  1.9511
   40MOL0     H 5386   2.878   1.473   4.523  2.1140  1.6303 -0.4042
   40MOL0     H 5387   3.033   1.354   4.657 -0.3313  1.8306 -2.1514
   40MOL0     H 5388   3.132   1.376   5.101  0.1568  0.5913  0.3292
   40MOL0     H 5389   3.135   1.551   5.063  2.6507  0.3333  0.8483
   40MOL0     H 5390   3.353   1.476   5.139 -0.0331 -1.2855 -0.3655
   40MOL0     H 5391   3.361   1.529   4.979  0.5862  1.3889  1.9314
   40MOL0     H 5392   3.360   1.300   4.881 -2.0374 -0.1388 -0.4525
   40MOL0     H 5393   3.333   1.220   5.030 -1.5422  0.1332 -2.9317
   40MOL0     H 5394   3.572   1.321   5.112 -1.3086 -0.5495  1.2041
   40MOL0     H 5395   3.574   1.217   4.963 -1.9792 -1.3149  0.6587
   40MOL0     H 5396   3.702   1.588   4.829 -2.1368 -2.3994 -3.9215
   40MOL0     H 5397   2.938   1.589   4.994  2.0379 -2.1222 -1.7157
   40MOL0     H 5398   2.765   1.725   5.002 -1.4916 -1.8650  1.0325
   40MOL0     H 5399   2.750   1.820   4.852  3.0905  0.2223  0.6368
   40MOL0     H 5400   2.629   1.695   4.906  1.0161 -0.8903 -1.3690
   41MOL0     O 5401   7.715   0.146   3.763 -0.1952  0.0379  0.6358
   41MOL0     C 5402   7.605   0.085   3.752 -0.2371 -1.0337 -0.2513
   41MOL0     O 5403   7.514   0.085   3.642 -0.2660  0.1336  0.3216
   41MOL0     C 5404   7.535   0.164   3.522 -0.4168 -0.6121  0.4743
   41MOL0     C 5405   7.418   0.193   3.452 -0.0323  0.0537 -0.0932
   41MOL0     C 5406   7.418   0.224   3.323  1.2995 -0.5536 -0.6395
   41MOL0     C 5407   7.536   0.259   3.246  0.5650 -0.6742 -0.0805
   41MOL0     O 5408   7.538   0.304   3.112 -0.0142 -0.8358 -0.5831
   41MOL0     C 5409   7.426   0.268   3.030 -0.6424  0.8164  0.7212
   41MOL0     C 5410   7.415   0.336   2.893 -0.8858  0.0975  0.0244
   41MOL0     C 5411   7.398   0.489   2.899 -0.2128 -1.0075  0.2348
   41MOL0     C 5412   7.387   0.578   2.776  0.0708 -0.4820  0.1451
   41MOL0     C 5413   7.519   0.609   2.707  0.2565  0.2969  0.7298
   41MOL0     C 5414   7.482   0.700   2.584  0.4051 -0.7011 -0.0974
   41MOL0     C 5415   7.608   0.719   2.500 -0.0654 -0.3433  0.0883
   41MOL0     C 5416   7.600   0.845   2.413 -0.0354 -0.5185  0.3026
   41MOL0     N 5417   7.513   0.826   2.295 -0.2985 -0.2315 -0.3435
   41MOL0     C 5418   7.520   0.727   2.202 -0.2222 -0.1524  0.1604
   41MOL0     C 5419   7.416   0.740   2.120 -0.0161 -0.5286  0.0794
   41MOL0     C 5420   7.405   0.671   1.985  0.3067  0.6231 -0.2589
   41MOL0     C 5421   7.338   0.525   2.007 -0.8177 -0.0586  0.2615
   41MOL0     C 5422   7.194   0.540   2.056  0.3447  1.1779 -0.2061
   41MOL0     C 5423   7.116   0.413   2.058 -0.0432  0.0593  0.5109
   41MOL0     O 5424   6.977   0.433   2.091 -1.3783 -0.5778  0.0761
   41MOL0     C 5425   6.883   0.337   2.082  1.0354 -0.9995  1.4375
   41MOL0     C 5426   6.754   0.393   2.076  0.6229  0.0284 -0.4835
   41MOL0     C 5427   6.643   0.307   2.082 -0.4011 -0.2291 -0.6406
   41MOL0     C 5428   6.648   0.167   2.091  0.1947 -0.6876  0.4606
   41MOL0     C 5429   6.527   0.079   2.084  0.1859 -0.1708 -0.4514
   41MOL0     O 5430   6.541  -0.057   2.080 -0.3568 -0.0012  0.0189
   41MOL0     C 5431   6.441  -0.158   2.094 -0.3094  0.3669 -0.0029
   41MOL0     C 5432   6.344  -0.151   2.199 -0.2227  0.1732 -0.2677
   41MOL0     C 5433   6.253  -0.252   2.213  0.5264  1.4607 -0.9082
   41MOL0     C 5434   6.252  -0.363   2.129  0.6111  0.0261 -0.0634
   41MOL0     O 5435   6.178  -0.479   2.134  0.5569 -0.2384 -0.5701
   41MOL0     C 5436   6.076  -0.490   2.228 -0.1911 -0.9625 -0.3070
   41MOL0     C 5437   6.048  -0.633   2.261  0.6746  0.8287  0.2039
   41MOL0     C 5438   6.166  -0.720   2.315  0.0821  0.1999  0.1907
   41MOL0     C 5439   6.102  -0.856   2.347  0.0975 -0.3240 -0.2139
   41MOL0     C 5440   6.201  -0.947   2.407  0.0691  0.8104 -0.7982
   41MOL0     C 5441   6.318  -0.984   2.316 -0.7327  0.2659 -0.6013
   41MOL0     C 5442   6.404  -1.107   2.365  0.5174 -0.8124  0.2344
   41MOL0     C 5443   6.479  -1.174   2.243  0.2857 -0.0386 -0.7318
   41MOL0    Cl 5444   6.521  -1.347   2.288  0.7146  0.0270  0.0748
   41MOL0     C 5445   6.346  -0.357   2.017  0.2430  0.6327  0.4310
   41MOL0     C 5446   6.442  -0.263   2.002 -0.6177  0.2089 -0.5548
   41MOL0     O 5447   6.422   0.131   2.103  0.1785 -1.1611  0.2703
   41MOL0     C 5448   6.776   0.111   2.087 -0.5821 -0.2841 -0.2216
   41MOL0     C 5449   6.894   0.195   2.093  0.9681  0.3341 -0.3609
   41MOL0     N 5450   7.325   0.831   2.168 -0.1605 -1.2392 -0.5231
   41MOL0     N 5451   7.391   0.879   2.273  0.3971  0.2860 -0.2663
   41MOL0     C 5452   7.653   0.225   3.313 -0.7962 -0.3402 -0.6009
   41MOL0     C 5453   7.656   0.181   3.451  0.5815  0.4994  0.5202
   41MOL0     C 5454   7.586  -0.021   3.847  0.1927  0.2142 -0.1741
   41MOL0     C 5455   7.581   0.022   3.987  0.5612  0.4592 -0.1031
   41MOL0     C 5456   7.573  -0.082   4.083 -0.6459  0.2154  0.5334
   41MOL0     C 5457   7.572  -0.224   4.051  0.0275 -0.1256  0.1542
   41MOL0     O 5458   7.546  -0.325   4.150  0.0742  0.1031 -0.3838
   41MOL0     C 5459   7.655  -0.362   4.236 -0.1825 -0.3728 -0.0694
   41MOL0     C 5460   7.782  -0.419   4.158 -0.8305  0.7294  0.7048
   41MOL0     C 5461   7.875  -0.482   4.260  0.2332 -0.5501 -0.6785
   41MOL0     C 5462   7.977  -0.383   4.317 -0.1643 -0.0311 -0.9853
   41MOL0     C 5463   7.920  -0.293   4.412  0.3505 -0.1116 -0.5081
   41MOL0     C 5464   7.888  -0.200   4.478 -0.1522  0.1626  0.6929
   41MOL0     C 5465   7.561  -0.252   3.912 -0.2047 -0.3154 -0.6899
   41MOL0     C 5466   7.566  -0.155   3.813  0.1855  0.2244  0.1868
   41MOL0     C 5467   7.579  -0.199   3.667  0.7827  0.2653 -0.8035
   41MOL0     H 5468   7.318   0.181   3.492  1.5142  1.7299  5.1409
   41MOL0     H 5469   7.322   0.239   3.274 -0.3536 -4.7934  0.8311
   41MOL0     H 5470   7.434   0.161   3.011  4.5630  0.0078  4.9900
   41MOL0     H 5471   7.333   0.291   3.082 -1.9964  0.3989 -1.3987
   41MOL0     H 5472   7.320   0.313   2.843 -0.5263  0.9106 -1.0859
   41MOL0     H 5473   7.500   0.307   2.831 -2.2136 -1.4776 -1.1459
   41MOL0     H 5474   7.488   0.515   2.955 -1.3121 -0.3235  1.7549
   41MOL0     H 5475   7.311   0.505   2.963  0.8655 -0.4982  1.6331
   41MOL0     H 5476   7.320   0.523   2.709 -2.1852 -1.6538  3.1589
   41MOL0     H 5477   7.334   0.670   2.802 -3.6241 -2.7500  1.4347
   41MOL0     H 5478   7.586   0.654   2.781  3.4559 -1.3183 -0.9854
   41MOL0     H 5479   7.552   0.511   2.673 -1.4985 -1.2485  3.1615
   41MOL0     H 5480   7.409   0.657   2.516 -0.2521  2.3143 -1.4377
   41MOL0     H 5481   7.439   0.795   2.619  0.2183 -1.1775  0.9919
   41MOL0     H 5482   7.640   0.640   2.432  0.6713 -0.2871  0.3513
   41MOL0     H 5483   7.695   0.739   2.564  1.8858 -0.3785 -2.3775
   41MOL0     H 5484   7.552   0.923   2.473 -3.6268 -1.0468 -1.5785
   41MOL0     H 5485   7.697   0.880   2.376  0.7081  0.0166  2.6326
   41MOL0     H 5486   7.608   0.670   2.176 -2.4660 -3.8847 -0.0253
   41MOL0     H 5487   7.344   0.733   1.918 -0.8836 -1.1260 -0.8637
   41MOL0     H 5488   7.500   0.638   1.944  1.8201 -0.0581  3.3893
   41MOL0     H 5489   7.346   0.462   1.918 -0.7200  1.4610 -0.8520
   41MOL0     H 5490   7.388   0.478   2.092 -0.2498  1.5774  0.8609
   41MOL0     H 5491   7.146   0.610   1.988 -0.6700  0.8985  0.2099
   41MOL0     H 5492   7.194   0.587   2.155 -0.0420 -2.3943  1.6630
   41MOL0     H 5493   7.166   0.333   2.113 -4.3427 -3.3008  0.0920
   41MOL0     H 5494   7.114   0.361   1.962 -1.4023 -0.5973  0.8654
   41MOL0     H 5495   6.745   0.502   2.076  0.9005  0.0556 -0.8207
   41MOL0     H 5496   6.543   0.349   2.079 -0.1994  1.0049  3.3446
   41MOL0     H 5497   6.322  -0.068   2.267  1.4399  1.6636 -1.4551
   41MOL0     H 5498   6.179  -0.246   2.293  1.3638 -2.4762  0.3761
   41MOL0     H 5499   6.102  -0.448   2.326  0.7946 -0.7274 -0.6512
   41MOL0     H 5500   5.986  -0.444   2.187 -1.1427 -2.7726 -0.3614
   41MOL0     H 5501   5.970  -0.626   2.337  2.9399 -1.3106  2.9714
   41MOL0     H 5502   6.006  -0.687   2.176  1.3333  1.7093 -0.7084
   41MOL0     H 5503   6.242  -0.721   2.236 -0.5483  1.8009 -0.4787
   41MOL0     H 5504   6.202  -0.674   2.408 -3.5596  0.5526  1.6021
   41MOL0     H 5505   6.070  -0.897   2.251 -4.4571  0.9701  0.4834
   41MOL0     H 5506   6.015  -0.849   2.414  1.3412 -0.8541  1.5309
   41MOL0     H 5507   6.149  -1.041   2.430 -0.9395  1.5614  0.0684
   41MOL0     H 5508   6.243  -0.901   2.497 -0.6706 -0.8542  0.4708
   41MOL0     H 5509   6.277  -1.006   2.217  1.0308 -1.0216 -1.1007
   41MOL0     H 5510   6.376  -0.894   2.293  0.9242 -0.3355  0.9560
   41MOL0     H 5511   6.338  -1.173   2.421  0.0587  0.2984  1.0452
   41MOL0     H 5512   6.483  -1.075   2.434  0.3987 -0.2311  0.1068
   41MOL0     H 5513   6.429  -1.163   2.146  1.9768  0.3289 -1.6055
   41MOL0     H 5514   6.575  -1.122   2.235  0.5565 -0.5350 -0.7551
   41MOL0     H 5515   6.345  -0.439   1.947  0.1722  1.6715 -0.8219
   41MOL0     H 5516   6.524  -0.271   1.932  0.2635  2.5525  0.1125
   41MOL0     H 5517   6.799   0.005   2.085 -3.7110 -1.0948  0.7325
   41MOL0     H 5518   6.991   0.147   2.107  1.4930  1.0255 -1.4548
   41MOL0     H 5519   7.745   0.234   3.256 -0.2495 -2.2926 -0.1183
   41MOL0     H 5520   7.746   0.156   3.506  1.0931  2.1338  0.4797
   41MOL0     H 5521   7.583   0.128   4.009 -3.0465  0.4918  0.7539
   41MOL0     H 5522   7.559  -0.064   4.189 -1.7579 -0.9434  0.6140
   41MOL0     H 5523   7.620  -0.447   4.296  0.1460 -0.1636  0.4209
   41MOL0     H 5524   7.682  -0.270   4.289 -3.3007  1.4356 -1.2891
   41MOL0     H 5525   7.823  -0.333   4.105  3.1891  0.1898  2.5996
   41MOL0     H 5526   7.747  -0.494   4.086  0.4018  1.9300 -1.2376
   41MOL0     H 5527   7.929  -0.562   4.208  1.5792 -0.9463  1.2249
   41MOL0     H 5528   7.820  -0.538   4.337 -0.4472 -0.0914 -0.8199
   41MOL0     H 5529   8.062  -0.435   4.362  0.5752  0.5050 -1.7329
   41MOL0     H 5530   8.014  -0.320   4.236 -0.4367  0.1089 -1.0018
   41MOL0     H 5531   7.846  -0.117   4.531 -3.3739 -0.2907 -0.9210
   41MOL0     H 5532   7.549  -0.359   3.904 -1.8758 -0.5149  2.4809
   41MOL0     H 5533   7.497  -0.160   3.605  2.8044  1.9120 -2.5652
   41MOL0     H 5534   7.672  -0.153   3.633  1.1730 -0.4957 -0.7811
   41MOL0     H 5535   7.580  -0.308   3.657 -2.2004  0.2990 -3.0200
   42MOL0     O 5536   7.272  11.187   1.307  0.6616  0.5004  0.4335
   42MOL0     C 5537   7.311  11.243   1.403 -0.4987 -0.8839 -0.0353
   42MOL0     O 5538   7.246  11.338   1.473 -0.5128  0.4554  0.2956
   42MOL0     C 5539   7.142  11.395   1.415 -0.1528 -0.6477  0.0514
   42MOL0     C 5540   7.152  11.515   1.349  0.5081 -0.6927  0.3526
   42MOL0     C 5541   7.044  11.594   1.308 -0.0328  0.4457 -0.7358
   42MOL0     C 5542   6.911  11.542   1.313  0.0457  0.2994 -0.1413
   42MOL0     O 5543   6.803  11.619   1.269  0.4555 -0.3033  0.0681
   42MOL0     C 5544   6.813  11.703   1.149  0.9662  0.0106  0.0699
   42MOL0     C 5545   6.687  11.687   1.073  0.3046 -1.0068  0.4998
   42MOL0     C 5546   6.560  11.734   1.149  0.0889  0.4770 -0.6089
   42MOL0     C 5547   6.456  11.623   1.166 -0.5883 -0.7169  0.6414
   42MOL0     C 5548   6.338  11.678   1.237 -0.1057 -0.5879 -0.6060
   42MOL0     C 5549   6.367  11.684   1.383 -0.1856 -0.1971 -0.1885
   42MOL0     C 5550   6.384  11.540   1.445 -0.0834 -0.1709 -0.2245
   42MOL0     C 5551   6.523  11.484   1.479  0.1412 -0.7484  0.6505
   42MOL0     N 5552   6.505  11.348   1.528 -0.3572  0.3871  0.4013
   42MOL0     C 5553   6.520  11.227   1.456 -0.4830  1.2942  0.7003
   42MOL0     C 5554   6.556  11.143   1.558  0.4821  0.1793  0.5724
   42MOL0     C 5555   6.614  11.011   1.533  1.1144  0.1480 -0.2769
   42MOL0     C 5556   6.763  11.012   1.527  0.6587  0.2410 -0.1124
   42MOL0     C 5557   6.819  10.888   1.576 -0.1708  1.1215  0.1824
   42MOL0     C 5558   6.972  10.886   1.560  0.4882 -0.1779 -0.0640
   42MOL0     O 5559   7.037  10.805   1.652  0.5101  1.0315  0.8318
   42MOL0     C 5560   7.097  10.850   1.763  0.4326  0.7511  0.0212
   42MOL0     C 5561   7.020  10.873   1.882 -0.8877  0.3731  0.6036
   42MOL0     C 5562   7.103  10.919   1.986 -0.5091  0.2378  0.2531
   42MOL0     C 5563   7.246  10.950   1.972 -0.4145  0.5920  0.5487
   42MOL0     C 5564   7.318  11.013   2.081 -0.2953 -0.4354 -0.0482
   42MOL0     O 5565   7.248  11.032   2.198  0.0171 -0.6652  0.9999
   42MOL0     C 5566   7.314  11.089   2.299 -0.4851  1.4851  0.5573
   42MOL0     C 5567   7.413  11.025   2.371  0.6049  1.1262 -0.0340
   42MOL0     C 5568   7.487  11.084   2.477  1.0205  0.1009 -0.7969
   42MOL0     C 5569   7.465  11.220   2.504  0.1397 -0.3160 -0.0396
   42MOL0     O 5570   7.547  11.278   2.598  0.5023  0.3832 -1.2849
   42MOL0     C 5571   7.541  11.419   2.635 -0.8612  0.3327  0.1146
   42MOL0     C 5572   7.626  11.436   2.759 -0.2378 -0.2586  0.3660
   42MOL0     C 5573   7.558  11.395   2.892 -0.9372 -0.5629 -0.2142
   42MOL0     C 5574   7.638  11.435   3.012 -0.2984 -0.0754  0.4055
   42MOL0     C 5575   7.718  11.306   3.042  1.1863  0.0088 -0.2060
   42MOL0     C 5576   7.819  11.347   3.151  0.5536  0.9042  0.5674
   42MOL0     C 5577   7.885  11.234   3.248 -0.0296 -0.5089 -0.2278
   42MOL0     C 5578   7.997  11.148   3.177  0.2029 -0.6518 -0.8398
   42MOL0    Cl 5579   7.915  11.071   3.051  0.1805  0.5780 -0.4526
   42MOL0     C 5580   7.369  11.283   2.437 -0.0353  0.2664 -0.5553
   42MOL0     C 5581   7.285  11.222   2.342  0.3855  0.2316  0.4509
   42MOL0     O 5582   7.440  11.026   2.067  0.4689 -0.0211  0.6921
   42MOL0     C 5583   7.306  10.909   1.855  0.3788  0.0480  0.1662
   42MOL0     C 5584   7.232  10.861   1.749  0.2132 -0.0689  0.0422
   42MOL0     N 5585   6.551  11.205   1.682  0.8556 -0.8038  0.2405
   42MOL0     N 5586   6.516  11.326   1.660 -0.4679  1.3181 -0.0044
   42MOL0     C 5587   6.898  11.410   1.373 -0.4736 -0.5068 -0.0117
   42MOL0     C 5588   7.012  11.343   1.430 -0.7164 -0.7528 -1.0486
   42MOL0     C 5589   7.449  11.200   1.444 -0.4965 -0.9236  0.1431
   42MOL0     C 5590   7.543  11.300   1.427  0.2230  0.4057 -0.3226
   42MOL0     C 5591   7.673  11.275   1.453 -1.0564  1.1229  0.1386
   42MOL0     C 5592   7.718  11.142   1.479  1.1243  0.3371 -0.7021
   42MOL0     O 5593   7.846  11.120   1.492 -0.1675  0.0282  0.0725
   42MOL0     C 5594   7.947  11.215   1.452  0.1408 -0.7389  0.1071
   42MOL0     C 5595   8.071  11.130   1.470 -0.9066  0.4542 -0.0787
   42MOL0     C 5596   8.214  11.205   1.496  0.3745  0.0716  0.3029
   42MOL0     C 5597   8.196  11.297   1.613  0.1026 -0.6414  0.8149
   42MOL0     C 5598   8.328  11.344   1.663 -0.0427 -0.4400 -1.4366
   42MOL0     C 5599   8.420  11.383   1.731 -0.2692  0.4475 -0.2564
   42MOL0     C 5600   7.624  11.033   1.480  0.3694 -0.4000  0.5325
   42MOL0     C 5601   7.492  11.065   1.452 -0.5222  0.1741 -0.1866
   42MOL0     C 5602   7.387  10.953   1.439  0.4390 -0.4614 -0.2915
   42MOL0     H 5603   7.251  11.557   1.337  0.3045 -0.2797  0.1049
   42MOL0     H 5604   7.063  11.689   1.259 -0.1764  0.9243  0.1311
   42MOL0     H 5605   6.827  11.808   1.176 -1.0793  1.2841 -3.1684
   42MOL0     H 5606   6.898  11.657   1.098  0.8701 -0.6601  0.5084
   42MOL0     H 5607   6.671  11.586   1.035  0.1702 -1.9149  2.8245
   42MOL0     H 5608   6.698  11.756   0.988 -1.4431 -0.7488  0.4597
   42MOL0     H 5609   6.513  11.816   1.095  0.0839  0.8911  0.0177
   42MOL0     H 5610   6.589  11.771   1.248 -0.8775  1.0667 -0.5349
   42MOL0     H 5611   6.414  11.586   1.071 -1.3837  3.2564 -0.7302
   42MOL0     H 5612   6.498  11.537   1.219 -0.8962 -1.7324 -0.6911
   42MOL0     H 5613   6.307  11.778   1.205 -0.1452 -0.2303  0.5227
   42MOL0     H 5614   6.251  11.613   1.222 -0.8111  0.1978 -0.0032
   42MOL0     H 5615   6.453  11.747   1.407 -1.1660  0.6680  1.2247
   42MOL0     H 5616   6.281  11.725   1.437 -0.5338 -0.4622 -0.5371
   42MOL0     H 5617   6.329  11.466   1.385 -0.7566  0.3083 -0.2160
   42MOL0     H 5618   6.334  11.538   1.543  0.0737  0.5981 -0.1235
   42MOL0     H 5619   6.596  11.489   1.398  0.3288  0.1591  0.8613
   42MOL0     H 5620   6.567  11.541   1.561 -3.4146  3.2253  0.1178
   42MOL0     H 5621   6.528  11.200   1.351 -0.6636 -5.7014  1.9818
   42MOL0     H 5622   6.578  10.940   1.608 -1.3586  0.5312 -1.0057
   42MOL0     H 5623   6.576  10.965   1.441 -1.0114  1.7321 -0.2548
   42MOL0     H 5624   6.805  11.029   1.428 -1.3790  1.1015 -0.8772
   42MOL0     H 5625   6.789  11.085   1.605 -1.0167  0.8229 -0.0604
   42MOL0     H 5626   6.778  10.805   1.518  4.0194 -1.0652 -0.0121
   42MOL0     H 5627   6.798  10.888   1.683 -1.5789  2.1960 -0.0513
   42MOL0     H 5628   6.998  10.989   1.587  0.2430 -0.3081  0.7066
   42MOL0     H 5629   7.000  10.874   1.455  0.5731 -1.2559  0.0760
   42MOL0     H 5630   6.915  10.848   1.874 -0.9859  1.3283 -2.3441
   42MOL0     H 5631   7.047  10.934   2.078 -1.1722 -1.5854  0.1845
   42MOL0     H 5632   7.413  10.922   2.340  2.7963  1.0139  0.1660
   42MOL0     H 5633   7.550  11.025   2.543  0.2893 -2.8126 -2.5199
   42MOL0     H 5634   7.592  11.486   2.565  2.1953 -1.4634  0.4248
   42MOL0     H 5635   7.438  11.447   2.659 -0.7073  0.0446  1.1767
   42MOL0     H 5636   7.722  11.385   2.748  0.3395  0.7183  0.6875
   42MOL0     H 5637   7.640  11.545   2.765  1.2577 -0.3952 -0.2116
   42MOL0     H 5638   7.461  11.441   2.909 -1.3098 -0.0041 -3.3142
   42MOL0     H 5639   7.539  11.287   2.895  2.6096 -1.3195 -0.4181
   42MOL0     H 5640   7.574  11.457   3.098 -0.9268  2.1323 -0.5480
   42MOL0     H 5641   7.698  11.524   2.989 -1.5938  0.3234 -1.6972
   42MOL0     H 5642   7.773  11.269   2.955 -0.8322 -3.3369 -0.2318
   42MOL0     H 5643   7.651  11.228   3.079  0.5691 -0.0441 -1.3774
   42MOL0     H 5644   7.888  11.407   3.091 -0.9117  1.1383 -0.9601
   42MOL0     H 5645   7.768  11.411   3.224 -4.0983 -1.0884 -0.5427
   42MOL0     H 5646   7.801  11.171   3.277  0.2662 -1.2666 -0.9926
   42MOL0     H 5647   7.920  11.279   3.342 -1.3481 -2.3796  1.2437
   42MOL0     H 5648   8.076  11.213   3.139 -0.3113  0.2695 -0.3801
   42MOL0     H 5649   8.039  11.078   3.250 -0.8914 -2.5324 -1.9557
   42MOL0     H 5650   7.348  11.383   2.472 -2.5172 -0.6147  0.7763
   42MOL0     H 5651   7.207  11.280   2.295  0.0945  0.9121  1.7251
   42MOL0     H 5652   7.412  10.925   1.835  0.3029  1.1742  0.5694
   42MOL0     H 5653   7.275  10.836   1.652 -1.9165 -2.0790 -0.4706
   42MOL0     H 5654   6.803  11.363   1.397 -0.5948 -1.2520 -1.7688
   42MOL0     H 5655   6.991  11.246   1.473  0.7765 -1.3129 -1.5379
   42MOL0     H 5656   7.499  11.397   1.407 -1.8102 -0.5697 -0.8803
   42MOL0     H 5657   7.751  11.349   1.446  0.9198 -0.9379 -0.8908
   42MOL0     H 5658   7.949  11.301   1.518 -1.7051 -0.9577  0.5199
   42MOL0     H 5659   7.943  11.245   1.347 -0.0803  1.8109  0.7846
   42MOL0     H 5660   8.078  11.078   1.374 -1.1425  3.4018 -1.7837
   42MOL0     H 5661   8.066  11.049   1.544  0.7619  0.3991  0.0039
   42MOL0     H 5662   8.245  11.260   1.406 -1.1692  1.3054  0.4854
   42MOL0     H 5663   8.275  11.117   1.518 -2.4173 -1.8541  0.8582
   42MOL0     H 5664   8.132  11.379   1.580 -0.3368 -0.5886  1.7768
   42MOL0     H 5665   8.139  11.244   1.690 -0.9310 -1.0093 -0.1837
   42MOL0     H 5666   8.503  11.430   1.780 -2.0514  2.1492  1.3216
   42MOL0     H 5667   7.671  10.939   1.505  2.4794  0.0542 -1.4302
   42MOL0     H 5668   7.296  10.980   1.493  0.2114 -1.8206  0.0580
   42MOL0     H 5669   7.347  10.943   1.338 -0.1353  1.7426 -0.3363
   42MOL0     H 5670   7.431  10.863   1.484 -2.9937 -1.8418  0.5918
   43MOL0     O 5671  10.845  11.241   4.547  0.4610  0.3195 -0.4575
   43MOL0     C 5672  10.801  11.125   4.537 -1.4200  0.6644 -0.3198
   43MOL0     O 5673  10.879  11.025   4.501  0.1138  0.4639  0.7682
   43MOL0     C 5674  11.012  11.040   4.480 -0.2686 -0.8382 -0.3414
   43MOL0     C 5675  11.104  11.071   4.584  0.8854 -0.6380  0.5482
   43MOL0     C 5676  11.239  11.070   4.561  0.8180 -0.1566 -0.0095
   43MOL0     C 5677  11.291  11.035   4.434 -0.4507 -1.3493 -0.1680
   43MOL0     O 5678  11.427  11.051   4.419  0.0756  0.6925  0.1088
   43MOL0     C 5679  11.461  11.124   4.300 -0.0631  0.2458 -0.2880
   43MOL0     C 5680  11.582  11.215   4.340  0.9375 -0.6975  0.5996
   43MOL0     C 5681  11.693  11.131   4.407 -1.0686 -0.7970 -0.1760
   43MOL0     C 5682  11.805  11.220   4.453 -0.0783  0.4720 -0.0497
   43MOL0     C 5683  11.920  11.152   4.537 -1.0795  0.7706 -0.1946
   43MOL0     C 5684  12.036  11.249   4.562  0.5294 -0.4447 -0.0899
   43MOL0     C 5685  12.156  11.178   4.614 -0.9858 -0.5300 -0.3316
   43MOL0     C 5686  12.259  11.275   4.678 -0.6527  1.0398  0.1628
   43MOL0     N 5687  12.298  11.361   4.572  0.1575 -0.2290  0.4578
   43MOL0     C 5688  12.372  11.335   4.464 -0.5661 -0.0479 -0.4193
   43MOL0     C 5689  12.364  11.446   4.391 -1.7457  0.3163 -0.4803
   43MOL0     C 5690  12.456  11.455   4.275 -0.4521  0.1452  0.2959
   43MOL0     C 5691  12.372  11.439   4.147 -0.0995 -0.4370  0.5969
   43MOL0     C 5692  12.306  11.570   4.107 -0.0972 -0.7735 -0.5207
   43MOL0     C 5693  12.156  11.550   4.080 -0.4631  0.0245 -1.0784
   43MOL0     O 5694  12.090  11.494   4.200 -0.4310  0.4106  0.2132
   43MOL0     C 5695  12.014  11.391   4.167  0.7120  1.2106 -0.0259
   43MOL0     C 5696  12.050  11.256   4.160 -0.2759 -0.0701 -0.5253
   43MOL0     C 5697  11.962  11.155   4.124 -0.1336  0.7636 -1.1172
   43MOL0     C 5698  11.833  11.193   4.084  0.4912  0.8714  0.8074
   43MOL0     C 5699  11.735  11.091   4.029  0.7346  0.1686  0.0409
   43MOL0     O 5700  11.609  11.124   3.984  0.6213  0.2997  0.4721
   43MOL0     C 5701  11.509  11.036   3.941 -0.6811  0.0950 -0.3492
   43MOL0     C 5702  11.386  11.102   3.930  0.1736 -0.3917  0.1131
   43MOL0     C 5703  11.270  11.027   3.888 -0.3548  0.0041 -0.0060
   43MOL0     C 5704  11.266  10.895   3.863 -0.2902  0.9441  0.0787
   43MOL0     O 5705  11.152  10.830   3.827 -0.3314 -0.2589  0.0891
   43MOL0     C 5706  11.066  10.805   3.936 -0.3660 -0.1840 -0.0305
   43MOL0     C 5707  10.921  10.845   3.898 -0.0457 -0.4760 -0.0935
   43MOL0     C 5708  10.894  10.786   3.766 -0.3301 -0.0775 -0.6477
   43MOL0     C 5709  10.749  10.804   3.723  0.0855 -0.8558  0.7542
   43MOL0     C 5710  10.740  10.760   3.569  1.1901 -0.0848 -0.2096
   43MOL0     C 5711  10.598  10.779   3.520  0.5397  0.1137  0.4235
   43MOL0     C 5712  10.591  10.774   3.361  0.2951  0.0601 -0.4984
   43MOL0     C 5713  10.455  10.748   3.296  0.6204  0.7960 -0.4644
   43MOL0    Cl 5714  10.442  10.578   3.304 -0.5997 -0.4392  0.1655
   43MOL0     C 5715  11.392  10.829   3.881  0.5347 -0.1448 -0.2737
   43MOL0     C 5716  11.511  10.891   3.913 -0.8668 -1.0035  0.6382
   43MOL0     O 5717  11.778  10.983   4.029 -0.5028  0.5758 -1.0132
   43MOL0     C 5718  11.801  11.325   4.085 -0.2039 -0.3600  0.9736
   43MOL0     C 5719  11.882  11.425   4.141  0.4290 -0.0137  0.3934
   43MOL0     N 5720  12.306  11.548   4.465 -0.6485  0.5053  0.7945
   43MOL0     N 5721  12.271  11.499   4.573 -0.1504  0.9095 -0.3921
   43MOL0     C 5722  11.211  11.000   4.333 -0.6298 -0.4469 -0.2886
   43MOL0     C 5723  11.073  11.002   4.358 -0.1277  0.8325  0.4478
   43MOL0     C 5724  10.658  11.118   4.569  1.4126 -1.2149 -0.0779
   43MOL0     C 5725  10.588  11.243   4.587 -0.3266  0.2407  0.4153
   43MOL0     C 5726  10.460  11.251   4.636 -0.3985 -0.2782  0.0322
   43MOL0     C 5727  10.398  11.137   4.678 -0.8830  0.7283  0.2109
   43MOL0     O 5728  10.273  11.133   4.733  0.2760  1.2527  0.3296
   43MOL0     C 5729  10.215  11.243   4.795 -0.4349 -0.0606  0.2161
   43MOL0     C 5730  10.274  11.266   4.936 -0.0656 -0.6551  0.7940
   43MOL0     C 5731  10.260  11.146   5.027 -0.6961  0.4044  0.3803
   43MOL0     C 5732  10.109  11.119   5.063 -0.0327 -0.1211 -0.2087
   43MOL0     C 5733  10.046  11.238   5.115  0.5096 -0.7988 -0.5591
   43MOL0     C 5734   9.980  11.335   5.147  1.2943 -0.1181  0.2052
   43MOL0     C 5735  10.460  11.016   4.671  0.3003 -0.6054  0.1780
   43MOL0     C 5736  10.580  11.003   4.604 -1.0421 -0.0233  0.0374
   43MOL0     C 5737  10.650  10.871   4.593  0.4685 -0.4129  0.2439
   43MOL0     H 5738  11.066  11.108   4.678  0.7709 -2.1172  1.1099
   43MOL0     H 5739  11.307  11.093   4.643  0.8499  2.2018 -0.6319
   43MOL0     H 5740  11.506  11.052   4.231  0.2666  1.2821 -1.1960
   43MOL0     H 5741  11.383  11.189   4.257  0.8816  1.3362 -0.4233
   43MOL0     H 5742  11.560  11.294   4.413  1.6435 -1.8348  2.1178
   43MOL0     H 5743  11.619  11.269   4.252 -0.5801 -0.4110  0.1026
   43MOL0     H 5744  11.734  11.056   4.340 -0.6637 -0.9801  0.2703
   43MOL0     H 5745  11.658  11.100   4.506  0.4622  3.8027  2.1022
   43MOL0     H 5746  11.858  11.260   4.366 -0.0381  0.3696 -0.0724
   43MOL0     H 5747  11.769  11.311   4.503 -0.4718 -0.1825  0.8812
   43MOL0     H 5748  11.881  11.116   4.633 -4.0241  0.2939 -1.4684
   43MOL0     H 5749  11.962  11.065   4.486  1.2943  0.6970  1.7006
   43MOL0     H 5750  12.064  11.322   4.486 -1.3061  0.9664  0.5297
   43MOL0     H 5751  11.996  11.300   4.651 -1.4620 -1.9876 -0.0346
   43MOL0     H 5752  12.202  11.128   4.529  0.3283  0.3599 -0.1612
   43MOL0     H 5753  12.130  11.102   4.689 -1.0589 -1.7806 -1.5715
   43MOL0     H 5754  12.209  11.319   4.765 -0.9785  0.5189  0.2455
   43MOL0     H 5755  12.341  11.216   4.719 -2.1846 -1.2670  0.1553
   43MOL0     H 5756  12.436  11.249   4.446 -0.6822 -0.7012  1.8622
   43MOL0     H 5757  12.517  11.546   4.279 -0.7543  0.3378  0.5673
   43MOL0     H 5758  12.534  11.379   4.274  0.7776  1.3432  0.9716
   43MOL0     H 5759  12.436  11.403   4.066  0.5551  0.4864  0.6897
   43MOL0     H 5760  12.305  11.358   4.179 -2.1787  0.3392 -1.4623
   43MOL0     H 5761  12.350  11.622   4.022 -0.0543  1.7683  0.9450
   43MOL0     H 5762  12.313  11.649   4.182  1.3255 -0.8589 -0.5396
   43MOL0     H 5763  12.146  11.481   3.996 -0.1259 -1.2719 -0.0939
   43MOL0     H 5764  12.101  11.641   4.052 -1.9206 -0.5843 -0.3354
   43MOL0     H 5765  12.153  11.224   4.171  0.6318  2.2565 -1.4597
   43MOL0     H 5766  11.995  11.055   4.148 -1.3226  0.4005 -0.9151
   43MOL0     H 5767  11.387  11.209   3.945 -1.1574 -0.4298  0.6412
   43MOL0     H 5768  11.179  11.085   3.877 -0.2347  0.0313 -0.9307
   43MOL0     H 5769  11.075  10.697   3.944  1.3598 -0.2522 -1.9979
   43MOL0     H 5770  11.083  10.849   4.034  1.3158 -1.0706  0.1190
   43MOL0     H 5771  10.861  10.800   3.977 -0.5133  0.9017  0.3757
   43MOL0     H 5772  10.913  10.954   3.889  0.6796 -0.5141 -1.4924
   43MOL0     H 5773  10.959  10.826   3.687 -3.4394  0.7245 -2.9990
   43MOL0     H 5774  10.922  10.681   3.777 -0.8524 -0.1845 -0.3540
   43MOL0     H 5775  10.712  10.904   3.747 -0.4568 -1.4890  2.7175
   43MOL0     H 5776  10.700  10.735   3.793  1.5512 -0.9125  1.7583
   43MOL0     H 5777  10.753  10.653   3.550 -2.5051 -0.6231 -0.4293
   43MOL0     H 5778  10.809  10.821   3.510 -0.0334 -0.3267 -1.9364
   43MOL0     H 5779  10.528  10.704   3.559  0.6422 -0.5922 -0.7106
   43MOL0     H 5780  10.559  10.877   3.549  0.8125  1.6068 -3.7028
   43MOL0     H 5781  10.659  10.702   3.315 -1.6482 -0.3045 -3.0114
   43MOL0     H 5782  10.625  10.874   3.331 -0.9336  1.9810  3.7339
   43MOL0     H 5783  10.364  10.788   3.341 -1.7661 -5.5550  1.3930
   43MOL0     H 5784  10.472  10.787   3.195 -1.1807  2.1321 -0.2935
   43MOL0     H 5785  11.396  10.720   3.880 -1.6075 -0.2710 -0.2590
   43MOL0     H 5786  11.600  10.829   3.919 -1.3109 -1.7405 -0.0070
   43MOL0     H 5787  11.707  11.356   4.041  0.8537  0.5638 -0.7591
   43MOL0     H 5788  11.844  11.526   4.150 -1.7589 -0.8191  0.8301
   43MOL0     H 5789  11.242  10.951   4.241 -1.5066 -3.6138  0.9975
   43MOL0     H 5790  11.001  10.979   4.280 -0.9383  1.3433  1.0319
   43MOL0     H 5791  10.641  11.328   4.546 -1.4733  1.9408  2.2454
   43MOL0     H 5792  10.415  11.349   4.649 -1.7951 -1.1391  2.4381
   43MOL0     H 5793  10.107  11.229   4.798 -0.1021 -3.1897  2.5479
   43MOL0     H 5794  10.235  11.336   4.740 -2.0334  1.5608  2.2207
   43MOL0     H 5795  10.224  11.354   4.978 -0.5158 -0.3427 -0.3559
   43MOL0     H 5796  10.381  11.291   4.937 -0.4286  1.1579 -0.4462
   43MOL0     H 5797  10.312  11.155   5.123  0.2958 -1.4226  0.0740
   43MOL0     H 5798  10.309  11.063   4.973 -0.3083  0.8704  0.0017
   43MOL0     H 5799  10.058  11.079   4.975  3.5668  1.6880 -3.4178
   43MOL0     H 5800  10.102  11.050   5.148 -0.2582 -1.6241 -1.3955
   43MOL0     H 5801   9.927  11.424   5.173 -0.3649 -0.8307 -0.6239
   43MOL0     H 5802  10.424  10.929   4.725  1.0069 -1.3341 -0.4978
   43MOL0     H 5803  10.698  10.866   4.495  1.9546 -1.2999  0.9645
   43MOL0     H 5804  10.723  10.851   4.672 -1.0733 -4.8727  0.8470
   43MOL0     H 5805  10.578  10.789   4.604  1.0564 -1.0509 -0.5102
   44MOL0     O 5806  10.138   9.072   9.288 -0.2710 -0.4988  0.2369
   44MOL0     C 5807  10.208   8.990   9.342  0.2746 -0.3197  0.2826
   44MOL0     O 5808  10.345   8.984   9.320  0.3586 -0.4088 -0.1376
   44MOL0     C 5809  10.411   9.096   9.277 -0.0986 -0.0854  0.3018
   44MOL0     C 5810  10.502   9.081   9.174 -0.8848 -0.0657  0.0682
   44MOL0     C 5811  10.572   9.194   9.119 -0.0870 -0.1758 -0.6707
   44MOL0     C 5812  10.553   9.322   9.177  0.3542  0.5615  0.7435
   44MOL0     O 5813  10.619   9.436   9.141  0.0715 -1.0805  0.1854
   44MOL0     C 5814  10.601   9.472   8.999  0.3098  0.3756 -0.3042
   44MOL0     C 5815  10.751   9.500   8.953  0.4800 -0.4861  0.2460
   44MOL0     C 5816  10.830   9.611   9.036 -0.6797 -0.4716  0.2197
   44MOL0     C 5817  10.980   9.616   8.988 -0.0799  0.6871 -0.3410
   44MOL0     C 5818  11.040   9.756   9.027 -0.0912 -0.3277 -0.6360
   44MOL0     C 5819  11.185   9.777   8.959  0.1378  0.2673 -0.1110
   44MOL0     C 5820  11.245   9.912   9.000 -0.0145 -0.1885 -0.3161
   44MOL0     C 5821  11.231   9.961   9.149  0.6608  0.3374  0.5742
   44MOL0     N 5822  11.284  10.095   9.179 -0.3512 -0.3103 -0.9593
   44MOL0     C 5823  11.228  10.215   9.171  0.8670  0.7764 -0.7695
   44MOL0     C 5824  11.305  10.308   9.225  0.1141 -0.0580 -1.1214
   44MOL0     C 5825  11.259  10.451   9.245  0.0620 -0.5325  0.5047
   44MOL0     C 5826  11.386  10.542   9.220  0.0194  1.4474 -0.9233
   44MOL0     C 5827  11.350  10.685   9.209  0.4729 -0.6536 -0.6409
   44MOL0     C 5828  11.436  10.756   9.102 -0.1270 -0.0503 -0.3018
   44MOL0     O 5829  11.380  10.719   8.974  0.1998  0.8727  0.1806
   44MOL0     C 5830  11.445  10.766   8.862 -1.1516  0.1613 -0.5457
   44MOL0     C 5831  11.412  10.711   8.727 -0.5627 -0.5267  0.1998
   44MOL0     C 5832  11.472  10.753   8.609  0.3122 -0.3050 -0.0094
   44MOL0     C 5833  11.585  10.836   8.615  0.3669 -1.0630  0.6706
   44MOL0     C 5834  11.643  10.876   8.484  0.2011 -0.5176  0.3103
   44MOL0     O 5835  11.553  10.872   8.376 -0.0912 -0.1254  0.6619
   44MOL0     C 5836  11.591  10.903   8.249  0.1447 -0.1766  0.4585
   44MOL0     C 5837  11.666  11.015   8.213  0.3709 -0.0541  0.2601
   44MOL0     C 5838  11.692  11.044   8.081 -0.4294  0.6742  0.0363
   44MOL0     C 5839  11.644  10.963   7.975  0.9631  0.5277 -0.0856
   44MOL0     O 5840  11.675  10.991   7.851 -0.6551 -0.7244 -0.4046
   44MOL0     C 5841  11.590  10.943   7.740 -0.3182 -0.9507  0.3953
   44MOL0     C 5842  11.649  10.981   7.601  0.2024 -0.0421  0.6040
   44MOL0     C 5843  11.622  11.122   7.562  0.8982  0.3737  0.7937
   44MOL0     C 5844  11.483  11.166   7.580 -0.0586 -0.1183  0.2810
   44MOL0     C 5845  11.457  11.313   7.522  0.2951  0.3563 -0.6210
   44MOL0     C 5846  11.521  11.421   7.618 -0.3884  0.0606  0.3813
   44MOL0     C 5847  11.653  11.459   7.569  0.3895  0.6445 -0.0382
   44MOL0     C 5848  11.645  11.581   7.476 -0.6071  0.3510  0.1340
   44MOL0    Cl 5849  11.825  11.611   7.434  0.1840 -0.2808  0.2440
   44MOL0     C 5850  11.573  10.850   8.018  0.9407 -0.4263  0.0634
   44MOL0     C 5851  11.540  10.821   8.154  0.6388 -0.0103 -0.3177
   44MOL0     O 5852  11.757  10.919   8.488  0.8344  0.0550 -0.0980
   44MOL0     C 5853  11.628  10.873   8.738  0.2207 -0.6739 -0.1245
   44MOL0     C 5854  11.552  10.855   8.850  0.5691 -0.0633 -1.0261
   44MOL0     N 5855  11.410  10.248   9.278 -0.1114  0.3098 -0.5111
   44MOL0     N 5856  11.410  10.126   9.235  1.2126 -0.3533  0.3445
   44MOL0     C 5857  10.461   9.331   9.292 -0.0164  0.0907  0.6036
   44MOL0     C 5858  10.401   9.218   9.334  0.4566  0.6749  0.1204
   44MOL0     C 5859  10.147   8.890   9.430 -0.0160 -0.3433 -0.1861
   44MOL0     C 5860  10.224   8.771   9.454 -0.2592 -1.1691 -0.9901
   44MOL0     C 5861  10.170   8.668   9.510 -0.2637 -0.2531  0.5679
   44MOL0     C 5862  10.041   8.662   9.558  0.6548  0.0522 -0.2164
   44MOL0     O 5863   9.993   8.552   9.628  1.4188 -0.2148 -0.2796
   44MOL0     C 5864  10.072   8.496   9.730 -0.5492  0.6653 -0.6799
   44MOL0     C 5865  10.050   8.337   9.729 -0.6451  0.3725 -0.6738
   44MOL0     C 5866  10.164   8.276   9.814  1.0618 -0.0971 -0.0236
   44MOL0     C 5867  10.157   8.127   9.834 -0.0786  0.3742 -0.8733
   44MOL0     C 5868  10.162   8.058   9.704  0.9289  0.7858 -0.2658
   44MOL0     C 5869  10.160   7.984   9.609 -0.5174  0.7131 -0.1360
   44MOL0     C 5870   9.961   8.771   9.534  0.0865  0.1903 -0.1233
   44MOL0     C 5871  10.010   8.886   9.462  0.2333  0.2304  0.2241
   44MOL0     C 5872   9.909   8.997   9.418 -0.9405 -0.4478  0.7151
   44MOL0     H 5873  10.518   8.985   9.126  0.4311 -0.5432  1.3839
   44MOL0     H 5874  10.640   9.182   9.035 -2.2068  1.5901 -2.8143
   44MOL0     H 5875  10.547   9.402   8.935  1.1722  0.8565 -1.5938
   44MOL0     H 5876  10.560   9.573   9.005  2.5704  1.4247 -1.1555
   44MOL0     H 5877  10.751   9.530   8.848 -1.1909  3.5527  1.2385
   44MOL0     H 5878  10.808   9.407   8.966  0.5820 -0.2297  1.8656
   44MOL0     H 5879  10.835   9.584   9.142  1.0869  3.5686  1.3493
   44MOL0     H 5880  10.775   9.703   9.012  0.0569 -0.3098 -0.9099
   44MOL0     H 5881  11.028   9.533   9.041 -1.9544  0.7680  1.6107
   44MOL0     H 5882  10.995   9.589   8.883  0.3474 -1.0162  0.1241
   44MOL0     H 5883  10.972   9.837   9.000  0.1858 -0.7175 -2.7059
   44MOL0     H 5884  11.047   9.757   9.136 -1.2305  0.9851 -0.5484
   44MOL0     H 5885  11.256   9.701   8.992 -0.1560  0.1661  0.2852
   44MOL0     H 5886  11.154   9.786   8.854 -5.4095  0.9377  1.2667
   44MOL0     H 5887  11.207   9.990   8.934  1.2599 -0.8604 -1.9241
   44MOL0     H 5888  11.354   9.913   8.984  0.5788  3.9474  2.4715
   44MOL0     H 5889  11.130   9.942   9.188 -0.7047 -2.0948 -3.5173
   44MOL0     H 5890  11.292   9.897   9.212 -1.4354  1.2024  3.7316
   44MOL0     H 5891  11.127  10.222   9.132  0.9355  1.7966 -0.8052
   44MOL0     H 5892  11.186  10.462   9.164 -0.4014 -0.5304  0.9198
   44MOL0     H 5893  11.205  10.468   9.338 -0.9794 -1.7034  0.1460
   44MOL0     H 5894  11.445  10.526   9.310 -3.0694 -1.5382  0.8099
   44MOL0     H 5895  11.444  10.497   9.139  0.1598 -0.7800  0.3276
   44MOL0     H 5896  11.362  10.733   9.307 -2.7788 -2.6372  0.9355
   44MOL0     H 5897  11.243  10.697   9.188  0.0386 -3.0888 -0.2095
   44MOL0     H 5898  11.542  10.730   9.098 -0.3799 -1.0235 -3.8503
   44MOL0     H 5899  11.429  10.865   9.106 -1.3741 -0.0426 -1.6962
   44MOL0     H 5900  11.329  10.642   8.721  0.5295 -1.7649 -2.8890
   44MOL0     H 5901  11.446  10.706   8.515 -0.6650  0.9109 -0.3689
   44MOL0     H 5902  11.705  11.065   8.301  3.7777 -0.9907 -0.5756
   44MOL0     H 5903  11.738  11.138   8.052 -2.0590  1.1662 -1.0335
   44MOL0     H 5904  11.587  10.834   7.749 -3.9646 -1.0347 -0.3180
   44MOL0     H 5905  11.486  10.974   7.750  0.8088  4.3344 -0.9242
   44MOL0     H 5906  11.756  10.962   7.609 -0.1553 -2.7083 -0.1929
   44MOL0     H 5907  11.610  10.924   7.516  1.4910  1.9147 -1.3823
   44MOL0     H 5908  11.695  11.178   7.621  1.6328  0.3656 -0.0879
   44MOL0     H 5909  11.642  11.120   7.454  1.3194 -1.0446  0.8824
   44MOL0     H 5910  11.464  11.168   7.688 -0.0708  1.0059  0.2640
   44MOL0     H 5911  11.412  11.090   7.545  1.2001 -1.3311  0.2535
   44MOL0     H 5912  11.348  11.326   7.521  0.2299  0.2206  1.3387
   44MOL0     H 5913  11.484  11.339   7.419  0.4733  1.5932 -0.2848
   44MOL0     H 5914  11.461  11.512   7.610 -1.9788 -1.0835 -2.1313
   44MOL0     H 5915  11.526  11.378   7.718  1.0207  0.7234  0.6166
   44MOL0     H 5916  11.707  11.378   7.520  1.1147  0.6999  0.6313
   44MOL0     H 5917  11.708  11.483   7.661 -2.2550 -2.5215  2.5990
   44MOL0     H 5918  11.599  11.553   7.381 -0.5678  0.4128  0.0972
   44MOL0     H 5919  11.608  11.666   7.533 -1.0720  0.8463 -0.8748
   44MOL0     H 5920  11.535  10.774   7.950 -1.8036 -1.6192  2.7159
   44MOL0     H 5921  11.491  10.728   8.184  0.2497  0.1774 -0.3639
   44MOL0     H 5922  11.719  10.931   8.739  0.1226 -0.0662 -4.4141
   44MOL0     H 5923  11.563  10.919   8.936 -0.9476  1.1740 -1.6965
   44MOL0     H 5924  10.432   9.428   9.331  0.3911  0.4040  0.1497
   44MOL0     H 5925  10.334   9.212   9.420 -0.0018 -1.8887 -0.3341
   44MOL0     H 5926  10.332   8.762   9.450 -0.1232 -0.6055  0.6224
   44MOL0     H 5927  10.242   8.588   9.526  2.1472  0.9945 -2.9350
   44MOL0     H 5928  10.054   8.532   9.832 -0.0033  0.1064 -0.3767
   44MOL0     H 5929  10.178   8.506   9.706 -0.0385 -3.8691 -1.3128
   44MOL0     H 5930  10.064   8.295   9.629  3.9148 -0.1996  0.0057
   44MOL0     H 5931   9.952   8.305   9.767 -0.3373 -0.2727 -0.4239
   44MOL0     H 5932  10.142   8.325   9.909 -0.3459  0.5247 -0.6372
   44MOL0     H 5933  10.264   8.298   9.775  2.3314 -1.0268  2.4654
   44MOL0     H 5934  10.240   8.112   9.903 -0.9925  2.8576  0.8953
   44MOL0     H 5935  10.068   8.091   9.886  0.2412 -1.4472 -1.5267
   44MOL0     H 5936  10.142   7.907   9.537  0.6790 -0.9395  1.2473
   44MOL0     H 5937   9.857   8.759   9.562  0.0296 -1.3273 -0.8733
   44MOL0     H 5938   9.894   9.013   9.311  0.1092  1.7213  0.8269
   44MOL0     H 5939   9.808   8.979   9.455 -1.7539  0.5467 -0.8785
   44MOL0     H 5940   9.936   9.095   9.460  0.2936  0.3014 -1.6462
   45MOL0     O 5941   0.986  11.223   1.931  0.5671  0.0523  0.1277
   45MOL0     C 5942   1.055  11.319   1.895 -0.0652  0.6668  0.8556
   45MOL0     O 5943   0.999  11.429   1.834 -1.0623  0.0911  0.2562
   45MOL0     C 5944   0.866  11.453   1.834 -0.0563  0.0856  0.1051
   45MOL0     C 5945   0.791  11.407   1.719  0.2124 -0.0759  1.2355
   45MOL0     C 5946   0.658  11.428   1.715  0.6737 -0.3379  0.3164
   45MOL0     C 5947   0.583  11.483   1.825 -0.7125  0.5348 -0.2370
   45MOL0     O 5948   0.447  11.493   1.837 -0.4731 -0.1064 -0.0259
   45MOL0     C 5949   0.380  11.527   1.718  0.7560 -0.3202  0.9711
   45MOL0     C 5950   0.220  11.524   1.736 -0.2927  1.4664 -0.6792
   45MOL0     C 5951   0.179  11.383   1.800 -0.2533 -0.6020 -0.1547
   45MOL0     C 5952   0.037  11.354   1.796  0.5123 -0.8872  0.7219
   45MOL0     C 5953   0.020  11.227   1.869  0.0591  0.2285 -0.7247
   45MOL0     C 5954  -0.119  11.184   1.890  0.4814  0.1776  1.2126
   45MOL0     C 5955  -0.142  11.042   1.946  0.7029 -0.2195 -0.0617
   45MOL0     C 5956  -0.284  11.031   2.001 -0.7316  0.2922 -0.0789
   45MOL0     N 5957  -0.304  11.099   2.134 -0.0117  0.4717 -0.3660
   45MOL0     C 5958  -0.241  11.066   2.250  0.4179 -0.9329 -0.9756
   45MOL0     C 5959  -0.285  11.163   2.336  0.3964  0.5460 -0.5932
   45MOL0     C 5960  -0.244  11.187   2.487  0.5959 -0.6716  0.0856
   45MOL0     C 5961  -0.286  11.070   2.580  0.5957 -0.5615 -1.0780
   45MOL0     C 5962  -0.259  11.103   2.723  0.2574  0.1137  0.6064
   45MOL0     C 5963  -0.270  10.981   2.811 -0.4925  0.1689  0.2414
   45MOL0     O 5964  -0.239  11.018   2.951 -0.6163  0.8662  0.3027
   45MOL0     C 5965  -0.324  11.082   3.037  1.0173 -1.1450 -0.0643
   45MOL0     C 5966  -0.273  11.102   3.163 -0.5760  0.4259 -0.5177
   45MOL0     C 5967  -0.354  11.167   3.257  0.7717  0.6845 -0.8815
   45MOL0     C 5968  -0.481  11.218   3.224 -0.5547 -0.0221  0.0475
   45MOL0     C 5969  -0.574  11.284   3.315  0.6930 -0.4065 -0.4192
   45MOL0     O 5970  -0.556  11.240   3.444  0.3281 -0.2005 -0.5336
   45MOL0     C 5971  -0.655  11.250   3.535 -0.2780 -0.6030  0.1819
   45MOL0     C 5972  -0.648  11.356   3.623  0.0110 -0.0428  0.0364
   45MOL0     C 5973  -0.753  11.384   3.711 -0.5164 -0.8925 -0.5181
   45MOL0     C 5974  -0.863  11.300   3.716  0.9754  0.2704 -0.5046
   45MOL0     O 5975  -0.961  11.329   3.809 -0.0361 -0.6689 -0.2848
   45MOL0     C 5976  -1.090  11.277   3.782  0.0635 -0.4145 -0.1894
   45MOL0     C 5977  -1.181  11.314   3.897 -0.3027  0.3809 -0.0685
   45MOL0     C 5978  -1.235  11.453   3.908 -0.3551  0.5069  0.0771
   45MOL0     C 5979  -1.347  11.471   4.011 -0.6617  0.4096 -0.5105
   45MOL0     C 5980  -1.409  11.610   4.019  0.0028 -0.2970 -0.5753
   45MOL0     C 5981  -1.491  11.631   4.143  0.2180 -0.3153 -0.2657
   45MOL0     C 5982  -1.526  11.786   4.153  0.6922  0.0291  0.6507
   45MOL0     C 5983  -1.612  11.814   4.273  0.4562 -1.1271 -0.1970
   45MOL0    Cl 5984  -1.531  11.747   4.414  0.0653 -0.3499 -0.0356
   45MOL0     C 5985  -0.868  11.179   3.639 -0.4499  0.3075  0.5546
   45MOL0     C 5986  -0.760  11.158   3.542  0.5201  1.1585 -0.1974
   45MOL0     O 5987  -0.663  11.358   3.272  1.2145  0.4573  0.1767
   45MOL0     C 5988  -0.521  11.207   3.087 -0.1738 -0.3674  0.6624
   45MOL0     C 5989  -0.446  11.147   2.994  0.2366  0.3346  0.4914
   45MOL0     N 5990  -0.376  11.243   2.267 -0.3262  0.5284  0.5870
   45MOL0     N 5991  -0.383  11.215   2.140 -0.2666 -0.7376  0.0350
   45MOL0     C 5992   0.655  11.522   1.941 -0.0313 -0.7473  0.2213
   45MOL0     C 5993   0.795  11.504   1.937  1.1400 -0.2543 -0.0518
   45MOL0     C 5994   1.202  11.309   1.883 -0.2144  0.6375 -0.7850
   45MOL0     C 5995   1.282  11.386   1.961  0.1291  0.4001  0.3955
   45MOL0     C 5996   1.425  11.379   1.964  0.4576 -0.5385 -0.1043
   45MOL0     C 5997   1.491  11.283   1.893 -0.1560 -0.3527  0.1191
   45MOL0     O 5998   1.630  11.274   1.872  0.0112  0.6967 -0.6217
   45MOL0     C 5999   1.728  11.373   1.923 -0.5829  0.3482 -0.8974
   45MOL0     C 6000   1.765  11.338   2.068 -0.5473 -0.1130  0.0036
   45MOL0     C 6001   1.867  11.228   2.079  0.5545  0.1286 -0.3638
   45MOL0     C 6002   1.828  11.087   2.038  0.3456  1.1356 -0.0661
   45MOL0     C 6003   1.700  11.043   2.088  0.1082 -0.2645 -0.1737
   45MOL0     C 6004   1.597  11.016   2.144 -0.4067 -0.5792  0.4033
   45MOL0     C 6005   1.414  11.203   1.812  0.5926 -0.3856 -1.0924
   45MOL0     C 6006   1.275  11.207   1.807  0.7747 -0.5093 -0.6711
   45MOL0     C 6007   1.197  11.118   1.719  0.7744  0.1716 -0.5837
   45MOL0     H 6008   0.850  11.361   1.640 -1.2317  4.0079 -2.7049
   45MOL0     H 6009   0.599  11.377   1.640  0.7732  0.7779 -0.5522
   45MOL0     H 6010   0.409  11.626   1.680 -1.7048 -0.8639 -2.8017
   45MOL0     H 6011   0.405  11.452   1.643  1.4377 -2.4931  3.2319
   45MOL0     H 6012   0.166  11.557   1.647  1.1460  1.0700 -1.7363
   45MOL0     H 6013   0.213  11.604   1.810  0.2106 -0.3661  1.4654
   45MOL0     H 6014   0.216  11.386   1.903 -0.6223 -0.3739 -0.0290
   45MOL0     H 6015   0.228  11.301   1.746  2.5810 -0.0920  1.4422
   45MOL0     H 6016  -0.021  11.431   1.848 -0.3874 -2.5374  2.2717
   45MOL0     H 6017  -0.001  11.354   1.693 -3.0229  1.8123  1.8140
   45MOL0     H 6018   0.066  11.144   1.814 -0.1656 -0.0832 -0.4462
   45MOL0     H 6019   0.063  11.241   1.968  1.3607 -1.9452 -0.9272
   45MOL0     H 6020  -0.138  11.269   1.957  3.7467  0.9764  1.2867
   45MOL0     H 6021  -0.185  11.201   1.805 -1.5966 -0.2104  2.6622
   45MOL0     H 6022  -0.059  11.015   2.012  0.9470 -2.5247 -1.2305
   45MOL0     H 6023  -0.134  10.970   1.864 -2.2512 -2.9389  1.7937
   45MOL0     H 6024  -0.367  11.073   1.944  0.3645  1.3120 -0.9690
   45MOL0     H 6025  -0.291  10.923   2.018  0.9414  0.2826  0.8002
   45MOL0     H 6026  -0.171  10.985   2.266 -0.5268 -1.5347  0.3448
   45MOL0     H 6027  -0.136  11.201   2.488  0.6813 -0.7001 -2.2159
   45MOL0     H 6028  -0.291  11.278   2.526  2.0400  0.0809  0.1421
   45MOL0     H 6029  -0.394  11.053   2.569  0.0190  0.2281  2.2475
   45MOL0     H 6030  -0.242  10.976   2.548  0.1575 -1.2437  0.2505
   45MOL0     H 6031  -0.336  11.173   2.757 -0.8588 -1.6464  1.8616
   45MOL0     H 6032  -0.156  11.138   2.730 -0.5126  2.8684 -0.3896
   45MOL0     H 6033  -0.205  10.900   2.777  0.5263 -0.1854  2.8690
   45MOL0     H 6034  -0.371  10.944   2.790 -0.1346 -0.0134 -1.3084
   45MOL0     H 6035  -0.182  11.055   3.197 -0.7616  0.9624  0.7865
   45MOL0     H 6036  -0.313  11.181   3.357  0.4948 -4.0683  0.1239
   45MOL0     H 6037  -0.556  11.413   3.629 -1.5629  2.5628  1.9129
   45MOL0     H 6038  -0.731  11.458   3.787  0.3163 -2.3751  0.7691
   45MOL0     H 6039  -1.134  11.321   3.692  0.4534  3.7990  1.4670
   45MOL0     H 6040  -1.090  11.168   3.778  1.7865 -0.6963  3.5172
   45MOL0     H 6041  -1.257  11.235   3.897 -1.4985  1.4807 -0.8042
   45MOL0     H 6042  -1.137  11.294   3.995 -1.5311 -0.1616  0.3967
   45MOL0     H 6043  -1.148  11.516   3.928  0.8471 -1.3517  0.9626
   45MOL0     H 6044  -1.266  11.486   3.809 -1.3762  0.6457  0.4342
   45MOL0     H 6045  -1.284  11.456   4.100  2.9028 -1.3302 -3.0710
   45MOL0     H 6046  -1.421  11.391   4.009 -0.0825 -0.1997  0.7856
   45MOL0     H 6047  -1.466  11.628   3.928 -0.4769  0.5256 -0.1304
   45MOL0     H 6048  -1.334  11.689   4.028 -0.1316 -0.3360  1.3403
   45MOL0     H 6049  -1.587  11.580   4.148  0.2358 -0.2404  2.8462
   45MOL0     H 6050  -1.434  11.595   4.229  0.0024  0.6041  0.2730
   45MOL0     H 6051  -1.594  11.818   4.074 -2.1982 -1.9293  2.1642
   45MOL0     H 6052  -1.438  11.851   4.156 -0.0734  1.0412  1.6840
   45MOL0     H 6053  -1.613  11.922   4.291  1.3868 -0.8689 -1.5324
   45MOL0     H 6054  -1.710  11.767   4.266 -0.2301  0.1861  0.1441
   45MOL0     H 6055  -0.952  11.111   3.647 -2.1183  2.1699 -0.3767
   45MOL0     H 6056  -0.768  11.072   3.476  3.6356  0.9855 -0.4954
   45MOL0     H 6057  -0.611  11.259   3.056  0.0643  0.8371  1.8397
   45MOL0     H 6058  -0.488  11.150   2.894  0.7374 -0.6602  0.2337
   45MOL0     H 6059   0.607  11.577   2.021  1.1024 -1.4859  1.4573
   45MOL0     H 6060   0.838  11.534   2.032  2.9098 -0.0704 -0.8829
   45MOL0     H 6061   1.239  11.469   2.017 -3.8352 -0.4620 -1.0445
   45MOL0     H 6062   1.476  11.459   2.016 -0.7027 -0.1045  0.4178
   45MOL0     H 6063   1.671  11.466   1.930 -1.3762 -0.2485  2.1441
   45MOL0     H 6064   1.810  11.386   1.851  0.1840 -2.7180 -0.7206
   45MOL0     H 6065   1.667  11.319   2.113 -0.8764  0.5559 -0.4089
   45MOL0     H 6066   1.807  11.431   2.109  2.1568 -0.2565 -2.1664
   45MOL0     H 6067   1.901  11.214   2.181 -0.3038 -0.8690 -0.1906
   45MOL0     H 6068   1.957  11.248   2.021  0.0031  1.9473 -0.6535
   45MOL0     H 6069   1.821  11.087   1.929 -2.4908 -1.9867 -0.0370
   45MOL0     H 6070   1.898  11.012   2.075 -3.4028 -1.6599  2.1044
   45MOL0     H 6071   1.510  10.993   2.203 -0.2140  1.8433  1.7578
   45MOL0     H 6072   1.455  11.124   1.748  3.9062 -0.8255  1.2929
   45MOL0     H 6073   1.264  11.063   1.652  0.5187 -0.0912 -0.6252
   45MOL0     H 6074   1.136  11.044   1.772  0.0955  1.0439 -0.1283
   45MOL0     H 6075   1.135  11.186   1.659  2.1821  1.6043 -0.4714
   46MOL0     O 6076   7.812   5.637   9.546 -1.2717  0.5311  0.0302
   46MOL0     C 6077   7.831   5.685   9.655 -1.0401 -0.3758  0.0978
   46MOL0     O 6078   7.914   5.627   9.747  0.1986 -0.4652 -0.8062
   46MOL0     C 6079   7.982   5.516   9.698  0.1074  0.7993  0.6681
   46MOL0     C 6080   8.102   5.529   9.636 -0.2870 -0.0371 -0.5386
   46MOL0     C 6081   8.182   5.426   9.585  0.0861 -0.0276  0.1056
   46MOL0     C 6082   8.125   5.294   9.595  0.1944  0.4294  0.6179
   46MOL0     O 6083   8.178   5.186   9.526  0.1451  0.5369  0.0654
   46MOL0     C 6084   8.324   5.189   9.534 -0.2302  0.9609 -0.3451
   46MOL0     C 6085   8.385   5.054   9.530 -0.0244  0.6444  0.6937
   46MOL0     C 6086   8.365   4.986   9.664 -1.1342 -1.6105  0.0303
   46MOL0     C 6087   8.239   4.901   9.678  0.2239  0.7739 -0.4313
   46MOL0     C 6088   8.232   4.764   9.597  0.6383  0.3383 -0.3629
   46MOL0     C 6089   8.088   4.707   9.562  0.0525  0.7512  0.2250
   46MOL0     C 6090   8.018   4.658   9.688  0.0251 -0.0297  0.1496
   46MOL0     C 6091   7.928   4.542   9.654 -0.9379  0.2309 -1.1359
   46MOL0     N 6092   7.856   4.489   9.773 -0.5925 -0.0858 -0.2883
   46MOL0     C 6093   7.756   4.556   9.831 -0.7538 -0.7243 -0.1980
   46MOL0     C 6094   7.735   4.492   9.947  0.3643  0.0398  0.7438
   46MOL0     C 6095   7.631   4.505  10.043  0.5225 -0.3595  0.1527
   46MOL0     C 6096   7.627   4.636  10.124  0.4766 -0.0230  0.6696
   46MOL0     C 6097   7.742   4.643  10.215 -1.5205 -0.8697 -0.4967
   46MOL0     C 6098   7.746   4.758  10.311 -0.1071 -0.0310  0.5927
   46MOL0     O 6099   7.619   4.770  10.365  0.3661  0.0847  0.5122
   46MOL0     C 6100   7.583   4.698  10.469  0.5363  0.3146  0.4533
   46MOL0     C 6101   7.442   4.682  10.486 -0.3098  0.4512  0.4107
   46MOL0     C 6102   7.382   4.615  10.594  0.0437 -0.1298 -0.2560
   46MOL0     C 6103   7.464   4.568  10.702 -0.6993  0.6653 -0.3394
   46MOL0     C 6104   7.403   4.510  10.820  0.2852 -0.3818 -0.0293
   46MOL0     O 6105   7.262   4.514  10.828 -0.3394 -0.6534 -0.3119
   46MOL0     C 6106   7.201   4.463  10.942 -0.3377  0.4145  0.6873
   46MOL0     C 6107   7.168   4.329  10.941  0.7209 -0.1822  0.2251
   46MOL0     C 6108   7.091   4.270  11.042 -0.0743 -0.0664 -0.1704
   46MOL0     C 6109   7.030   4.353  11.131 -0.6061 -0.9530  0.1412
   46MOL0     O 6110   6.936   4.292  11.202 -0.7174 -0.6879  0.1731
   46MOL0     C 6111   6.920   4.339  11.333 -0.6449 -0.7261  0.8874
   46MOL0     C 6112   6.855   4.232  11.411 -1.1506 -0.0624  0.7082
   46MOL0     C 6113   6.837   4.266  11.559 -0.0937  0.0761  0.0147
   46MOL0     C 6114   6.974   4.285  11.636 -0.2068 -0.3387 -0.4024
   46MOL0     C 6115   6.956   4.259  11.787 -0.3045  0.3337  0.5576
   46MOL0     C 6116   7.053   4.349  11.873  0.0140  0.0199 -0.2156
   46MOL0     C 6117   7.051   4.310  12.029  0.3822  0.4195 -0.2483
   46MOL0     C 6118   7.138   4.393  12.117 -0.6843  0.1126  0.1958
   46MOL0    Cl 6119   7.131   4.335  12.278  0.5755 -0.2086 -0.0522
   46MOL0     C 6120   7.049   4.496  11.121 -0.6524 -0.0343 -0.3066
   46MOL0     C 6121   7.138   4.547  11.031  0.1592  0.3314  0.4326
   46MOL0     O 6122   7.471   4.468  10.910  0.2390 -0.2893 -0.2192
   46MOL0     C 6123   7.604   4.585  10.684  0.7913 -0.0846  0.1287
   46MOL0     C 6124   7.668   4.651  10.569  0.4854  0.5038 -1.0512
   46MOL0     N 6125   7.831   4.391   9.954 -0.0179 -0.9368  0.0785
   46MOL0     N 6126   7.910   4.388   9.846 -0.3656  0.0623 -0.4167
   46MOL0     C 6127   8.001   5.275   9.669 -0.3116  0.6537 -0.7253
   46MOL0     C 6128   7.942   5.389   9.725 -0.6658  0.3603 -0.4271
   46MOL0     C 6129   7.759   5.805   9.710  0.9413  0.4585 -0.3853
   46MOL0     C 6130   7.814   5.866   9.821 -0.1322 -0.8941 -0.3925
   46MOL0     C 6131   7.752   5.975   9.879  0.5099 -0.1303  0.1939
   46MOL0     C 6132   7.611   6.009   9.859 -0.4667  0.1699  0.8548
   46MOL0     O 6133   7.535   6.099   9.931  0.1948  0.7511  0.6506
   46MOL0     C 6134   7.605   6.151  10.051 -0.6311 -0.6151  0.4190
   46MOL0     C 6135   7.501   6.185  10.157 -0.4172 -0.1524 -1.2031
   46MOL0     C 6136   7.537   6.300  10.242  0.3629  0.2941  0.1333
   46MOL0     C 6137   7.686   6.302  10.298 -0.0644 -0.6608 -0.2314
   46MOL0     C 6138   7.694   6.397  10.408 -1.0706 -0.3149 -0.3111
   46MOL0     C 6139   7.692   6.482  10.488 -0.6676  0.1599  0.3714
   46MOL0     C 6140   7.562   5.944   9.744  1.3095  0.0423  0.0565
   46MOL0     C 6141   7.632   5.848   9.668  0.1914 -0.1319  0.0140
   46MOL0     C 6142   7.559   5.782   9.549 -0.0348  0.5271 -1.0870
   46MOL0     H 6143   8.130   5.634   9.634  2.7136 -0.7437  0.0186
   46MOL0     H 6144   8.276   5.444   9.534 -0.2885  0.4138 -0.4374
   46MOL0     H 6145   8.345   5.225   9.433  3.4135  0.0782 -0.0411
   46MOL0     H 6146   8.381   5.263   9.591  1.1540 -0.1768 -0.1761
   46MOL0     H 6147   8.493   5.066   9.525  0.0182 -0.1191 -2.0173
   46MOL0     H 6148   8.345   4.996   9.446 -2.7344  3.2551 -0.0054
   46MOL0     H 6149   8.381   5.063   9.740  1.4924 -0.7894 -1.2202
   46MOL0     H 6150   8.445   4.911   9.667  1.7851  1.2780  1.2419
   46MOL0     H 6151   8.230   4.873   9.784 -1.9933 -2.6427 -1.3557
   46MOL0     H 6152   8.149   4.959   9.656 -0.7620  0.0754  1.4593
   46MOL0     H 6153   8.292   4.797   9.513 -1.9363 -0.0597 -2.4922
   46MOL0     H 6154   8.270   4.680   9.656  1.4614 -0.3746 -1.8751
   46MOL0     H 6155   8.029   4.788   9.517  0.0069  1.4379  1.4691
   46MOL0     H 6156   8.112   4.623   9.496  1.2200  2.6001 -1.8298
   46MOL0     H 6157   7.950   4.740   9.711 -1.3622 -1.2483  0.5836
   46MOL0     H 6158   8.085   4.645   9.773  3.8424  0.0613 -2.6187
   46MOL0     H 6159   7.856   4.569   9.576  1.1471 -0.1507 -3.3097
   46MOL0     H 6160   7.986   4.457   9.618 -3.1644 -2.1986  0.6033
   46MOL0     H 6161   7.703   4.645   9.799 -3.6297 -1.4412  2.1691
   46MOL0     H 6162   7.535   4.478   9.997  1.3826 -2.2053 -0.6437
   46MOL0     H 6163   7.644   4.422  10.113  0.0519 -1.9033 -1.5161
   46MOL0     H 6164   7.639   4.727  10.065 -0.4817  0.3475  1.0201
   46MOL0     H 6165   7.536   4.645  10.184  2.1412 -1.8694  3.7701
   46MOL0     H 6166   7.835   4.650  10.158  0.9750 -1.7435  3.0928
   46MOL0     H 6167   7.750   4.551  10.275 -0.0275  0.1274  0.9027
   46MOL0     H 6168   7.766   4.844  10.246  1.2093  0.1156  1.1645
   46MOL0     H 6169   7.828   4.744  10.382 -1.0176 -0.8856  1.5136
   46MOL0     H 6170   7.375   4.723  10.411 -1.0783  3.8187  2.6758
   46MOL0     H 6171   7.275   4.600  10.581  0.1647 -1.5861  0.3240
   46MOL0     H 6172   7.206   4.273  10.856  2.9194 -0.3992  1.2918
   46MOL0     H 6173   7.072   4.163  11.041 -0.2017 -0.1108  1.9429
   46MOL0     H 6174   7.016   4.347  11.386 -0.3446 -6.1736  1.7350
   46MOL0     H 6175   6.862   4.431  11.325 -1.9179 -1.4306  1.7645
   46MOL0     H 6176   6.760   4.211  11.359 -0.1240 -2.6559 -0.3307
   46MOL0     H 6177   6.910   4.137  11.407 -1.0463 -0.0000  0.6492
   46MOL0     H 6178   6.785   4.361  11.570  2.6811  1.5290  1.9456
   46MOL0     H 6179   6.776   4.189  11.607  0.3830 -0.7755 -0.7089
   46MOL0     H 6180   6.999   4.389  11.617 -0.6130 -0.1269  0.1714
   46MOL0     H 6181   7.058   4.222  11.605  0.8305  0.3477  0.9311
   46MOL0     H 6182   6.961   4.153  11.814 -0.6058 -0.4938 -2.2982
   46MOL0     H 6183   6.859   4.296  11.820 -1.0564 -0.7073 -0.3732
   46MOL0     H 6184   7.160   4.350  11.851  1.6085  1.7960  5.6500
   46MOL0     H 6185   7.022   4.454  11.883  2.0161  0.5120  1.8424
   46MOL0     H 6186   7.077   4.204  12.042 -3.3827 -0.9164 -2.3053
   46MOL0     H 6187   6.945   4.324  12.054  0.8808 -0.0152  2.4666
   46MOL0     H 6188   7.243   4.385  12.087 -0.4295 -1.0467  1.3375
   46MOL0     H 6189   7.099   4.494  12.102 -2.0188 -0.3798  0.2699
   46MOL0     H 6190   6.991   4.570  11.175 -2.5390  0.8788 -3.3256
   46MOL0     H 6191   7.163   4.652  11.021 -1.0914  0.6821  0.8037
   46MOL0     H 6192   7.665   4.566  10.772 -1.0963  0.2510  1.5868
   46MOL0     H 6193   7.776   4.657  10.572  0.8113 -3.3528 -0.8052
   46MOL0     H 6194   7.957   5.176   9.675  0.3595  0.3702 -0.2027
   46MOL0     H 6195   7.842   5.390   9.767 -0.6872  0.4682 -0.4824
   46MOL0     H 6196   7.919   5.849   9.841  0.3002  2.3157  0.7109
   46MOL0     H 6197   7.814   6.031   9.949  3.4313  0.1719 -2.4107
   46MOL0     H 6198   7.660   6.241  10.022 -1.2869 -1.0334 -2.4416
   46MOL0     H 6199   7.672   6.072  10.087 -1.6208 -1.3404  0.6992
   46MOL0     H 6200   7.474   6.105  10.226 -0.8716  0.1433 -1.0247
   46MOL0     H 6201   7.407   6.224  10.115 -0.0800  3.4918  0.9867
   46MOL0     H 6202   7.467   6.302  10.325  1.7741  2.4298  1.3758
   46MOL0     H 6203   7.515   6.388  10.180 -0.7791 -1.0987 -1.5369
   46MOL0     H 6204   7.737   6.206  10.305  1.7284 -0.0307 -2.9320
   46MOL0     H 6205   7.755   6.358  10.234  0.6475 -0.1123  0.9813
   46MOL0     H 6206   7.690   6.563  10.559  0.4374  1.8406 -1.3995
   46MOL0     H 6207   7.456   5.958   9.722  1.4377  2.0590  0.5762
   46MOL0     H 6208   7.566   5.674   9.568  0.5330  0.6431 -0.6079
   46MOL0     H 6209   7.452   5.804   9.551 -0.0821  0.2312 -0.0152
   46MOL0     H 6210   7.598   5.819   9.454 -1.3428  1.6065 -1.2307
   47MOL0     O 6211  11.012   3.699   6.747  0.0697 -0.1334  0.5945
   47MOL0     C 6212  10.988   3.603   6.674  0.2122  0.6944  0.1332
   47MOL0     O 6213  11.020   3.597   6.545 -0.0389  0.2328  0.3268
   47MOL0     C 6214  11.138   3.640   6.492  0.5920  0.2767  0.2677
   47MOL0     C 6215  11.131   3.654   6.350 -0.4610  1.3451  0.2251
   47MOL0     C 6216  11.252   3.664   6.286  0.0554 -0.1371  0.3869
   47MOL0     C 6217  11.378   3.669   6.345  0.7105  1.0084  0.0917
   47MOL0     O 6218  11.492   3.681   6.269 -0.3067 -0.4809 -0.5554
   47MOL0     C 6219  11.617   3.642   6.319 -0.9719 -0.5400  0.2015
   47MOL0     C 6220  11.727   3.728   6.247  0.3998 -0.1416 -0.0338
   47MOL0     C 6221  11.673   3.799   6.114  0.5025  0.2979  0.2386
   47MOL0     C 6222  11.794   3.851   6.055  0.4853  0.7397 -0.1586
   47MOL0     C 6223  11.751   3.930   5.936  0.1117 -0.5038 -0.0562
   47MOL0     C 6224  11.872   3.996   5.871  0.8865  0.0687  0.0092
   47MOL0     C 6225  11.823   4.093   5.760  0.7000  0.1850 -0.4884
   47MOL0     C 6226  11.800   3.998   5.638  0.2466 -0.9555 -0.4641
   47MOL0     N 6227  11.730   4.067   5.538  0.6836  0.4113 -0.8221
   47MOL0     C 6228  11.789   4.147   5.444  0.4474 -0.2338 -0.5652
   47MOL0     C 6229  11.677   4.200   5.376  0.0175  0.0728 -0.0200
   47MOL0     C 6230  11.685   4.310   5.285  0.6107 -0.2462 -0.0034
   47MOL0     C 6231  11.787   4.288   5.177  0.7059 -0.2833  0.9305
   47MOL0     C 6232  11.768   4.390   5.062 -0.6421 -0.0267  0.2365
   47MOL0     C 6233  11.883   4.375   4.952 -0.0700 -0.2262 -1.0087
   47MOL0     O 6234  12.008   4.406   5.019 -0.6750  0.0899 -0.2607
   47MOL0     C 6235  12.124   4.385   4.946  0.3754  0.8499 -0.6770
   47MOL0     C 6236  12.137   4.314   4.827  0.9216 -0.9257 -0.5652
   47MOL0     C 6237  12.261   4.311   4.764  0.0046  0.6871  0.2870
   47MOL0     C 6238  12.378   4.362   4.820 -0.0981 -0.7788  0.5176
   47MOL0     C 6239  12.511   4.360   4.753 -0.3948 -0.0769 -0.1578
   47MOL0     O 6240  12.614   4.361   4.834  0.2149 -0.0772  0.6755
   47MOL0     C 6241  12.735   4.378   4.782 -0.6926  0.1438 -0.0968
   47MOL0     C 6242  12.778   4.501   4.730  0.2953 -0.3612  0.0239
   47MOL0     C 6243  12.913   4.527   4.696 -0.0813  0.4186 -0.1225
   47MOL0     C 6244  13.010   4.430   4.710 -0.0193 -0.3433 -0.4997
   47MOL0     O 6245  13.140   4.462   4.683 -0.1902 -0.3793 -0.7548
   47MOL0     C 6246  13.248   4.405   4.741  0.7139  0.4802 -0.7014
   47MOL0     C 6247  13.388   4.481   4.731 -0.0676 -0.3076 -0.2821
   47MOL0     C 6248  13.490   4.427   4.834 -1.1459  0.4788  0.1453
   47MOL0     C 6249  13.596   4.537   4.866  0.6904  0.8053  0.5370
   47MOL0     C 6250  13.683   4.567   4.741 -0.3406 -0.0741 -0.2232
   47MOL0     C 6251  13.829   4.545   4.748 -0.0085 -0.2960  0.5459
   47MOL0     C 6252  13.895   4.592   4.877  0.6144 -0.1226  0.5097
   47MOL0     C 6253  14.028   4.527   4.926 -0.2381  0.7013 -0.0903
   47MOL0    Cl 6254  14.027   4.399   5.050  0.2032 -0.1273  0.2356
   47MOL0     C 6255  12.970   4.305   4.766 -0.2498  0.0323  0.3388
   47MOL0     C 6256  12.836   4.281   4.806  0.3922 -0.5401 -0.7128
   47MOL0     O 6257  12.513   4.357   4.631 -0.5613 -0.0331 -0.3456
   47MOL0     C 6258  12.364   4.442   4.932 -0.1606 -0.9645  0.4443
   47MOL0     C 6259  12.242   4.446   5.002  0.0081 -0.2451 -0.2783
   47MOL0     N 6260  11.566   4.134   5.421  0.1426  0.0286 -0.6481
   47MOL0     N 6261  11.599   4.064   5.520  0.6731  0.3320 -0.8190
   47MOL0     C 6262  11.371   3.669   6.486 -0.1151  1.1003 -0.4410
   47MOL0     C 6263  11.258   3.643   6.557 -0.6221 -0.3269  0.0728
   47MOL0     C 6264  10.896   3.504   6.725 -0.2011  0.9291 -0.2737
   47MOL0     C 6265  10.935   3.370   6.707  0.1344 -1.5515 -0.1399
   47MOL0     C 6266  10.874   3.262   6.772  0.9480 -0.1019 -0.4413
   47MOL0     C 6267  10.754   3.294   6.843 -0.0750  0.3598 -0.5853
   47MOL0     O 6268  10.676   3.196   6.897  0.2267  0.6524  0.5664
   47MOL0     C 6269  10.712   3.057   6.890 -0.1730 -0.6962  0.3178
   47MOL0     C 6270  10.603   2.983   6.973  0.4608 -0.3020  0.1525
   47MOL0     C 6271  10.583   3.038   7.115 -0.1263 -0.2014  0.2127
   47MOL0     C 6272  10.551   2.933   7.210 -0.2131  0.7751  0.8002
   47MOL0     C 6273  10.519   2.993   7.337  0.2692 -0.1417 -0.1642
   47MOL0     C 6274  10.479   3.049   7.439  0.9072  0.1410 -0.1718
   47MOL0     C 6275  10.718   3.430   6.853 -0.0510  0.2296 -0.4361
   47MOL0     C 6276  10.788   3.534   6.809 -0.0508 -0.1149  1.0926
   47MOL0     C 6277  10.750   3.682   6.844  0.6309  0.5793  0.1567
   47MOL0     H 6278  11.037   3.652   6.295 -0.6144 -0.1210  0.4924
   47MOL0     H 6279  11.231   3.682   6.181  3.2026  1.0697 -0.1585
   47MOL0     H 6280  11.634   3.650   6.427  1.3394 -1.3762 -0.0449
   47MOL0     H 6281  11.630   3.538   6.290 -0.4749  0.0791 -1.9877
   47MOL0     H 6282  11.818   3.670   6.232  1.8079  1.8401  0.5762
   47MOL0     H 6283  11.749   3.808   6.318  0.4836  0.8834 -1.1834
   47MOL0     H 6284  11.604   3.880   6.140 -1.4455 -1.3444  0.4729
   47MOL0     H 6285  11.623   3.715   6.066 -1.5317 -1.2135  4.4775
   47MOL0     H 6286  11.848   3.907   6.132 -0.3775 -2.2408  2.8914
   47MOL0     H 6287  11.860   3.771   6.019  3.4521  3.5239 -1.3893
   47MOL0     H 6288  11.687   3.877   5.866 -1.4814  2.0316 -0.6806
   47MOL0     H 6289  11.692   4.009   5.983  1.5481  0.9046 -0.5275
   47MOL0     H 6290  11.920   4.057   5.948 -0.0580 -1.4457  1.8992
   47MOL0     H 6291  11.950   3.924   5.843 -0.2137 -0.5495 -1.5733
   47MOL0     H 6292  11.899   4.164   5.727 -0.0170  0.0682 -2.5418
   47MOL0     H 6293  11.746   4.155   5.808  0.8716  1.1693 -1.4625
   47MOL0     H 6294  11.902   3.977   5.606  1.6284  0.9548  2.2971
   47MOL0     H 6295  11.748   3.905   5.664 -2.0522  0.0955 -1.0316
   47MOL0     H 6296  11.890   4.187   5.434  0.4260  0.4930  1.6545
   47MOL0     H 6297  11.586   4.331   5.246  1.8215  2.9154 -1.7280
   47MOL0     H 6298  11.719   4.396   5.344 -3.4483  0.5817  1.4693
   47MOL0     H 6299  11.888   4.287   5.219  1.2718  2.8450 -0.0623
   47MOL0     H 6300  11.770   4.190   5.132  3.7032 -0.5524  0.1796
   47MOL0     H 6301  11.773   4.492   5.102  1.4006 -0.7703  2.0850
   47MOL0     H 6302  11.677   4.373   5.005 -1.6274 -1.1973  2.0602
   47MOL0     H 6303  11.870   4.454   4.877 -0.4126  3.6168  2.6666
   47MOL0     H 6304  11.874   4.279   4.902  1.0162  0.3679 -2.4468
   47MOL0     H 6305  12.053   4.263   4.780 -0.6719  1.2973 -0.3285
   47MOL0     H 6306  12.274   4.270   4.664  1.7060  2.6565 -0.3702
   47MOL0     H 6307  12.707   4.582   4.713  0.4410  0.0867  1.4443
   47MOL0     H 6308  12.947   4.622   4.657 -1.3520  1.3735  0.9631
   47MOL0     H 6309  13.207   4.406   4.843 -2.2210  6.6303 -1.4604
   47MOL0     H 6310  13.266   4.307   4.697  1.3678 -0.4996  1.6102
   47MOL0     H 6311  13.415   4.457   4.628 -0.5585 -5.5325  0.5206
   47MOL0     H 6312  13.375   4.588   4.749  0.9064 -0.4280  1.3189
   47MOL0     H 6313  13.448   4.402   4.932 -1.5764 -0.8120 -0.3515
   47MOL0     H 6314  13.533   4.335   4.793  0.6374  0.6276  1.5378
   47MOL0     H 6315  13.656   4.502   4.950  3.9776  1.8002 -1.1647
   47MOL0     H 6316  13.541   4.629   4.890 -2.7518 -1.0283  0.2918
   47MOL0     H 6317  13.656   4.671   4.720 -0.0627  0.0957  0.2425
   47MOL0     H 6318  13.639   4.519   4.653  1.8601 -0.1545 -1.3309
   47MOL0     H 6319  13.833   4.436   4.745 -0.4124 -0.3539  1.6862
   47MOL0     H 6320  13.874   4.580   4.655  0.0534 -1.2357  0.2124
   47MOL0     H 6321  13.828   4.596   4.963 -0.1605 -3.6570  0.2363
   47MOL0     H 6322  13.921   4.693   4.844  1.5278 -0.9800 -1.6203
   47MOL0     H 6323  14.086   4.484   4.844 -1.9504 -2.8848  0.3840
   47MOL0     H 6324  14.094   4.606   4.961  4.4857 -2.6733 -0.5100
   47MOL0     H 6325  13.041   4.225   4.786 -1.2006 -1.7813 -2.8425
   47MOL0     H 6326  12.818   4.194   4.868 -2.3363 -1.1520 -2.2012
   47MOL0     H 6327  12.447   4.497   4.975  0.1063 -0.6570 -0.4351
   47MOL0     H 6328  12.229   4.510   5.089  1.9106  1.1116 -0.9460
   47MOL0     H 6329  11.465   3.687   6.538 -0.2953  1.9657 -0.3871
   47MOL0     H 6330  11.268   3.624   6.663  1.3167 -0.1382 -0.0464
   47MOL0     H 6331  11.021   3.351   6.644  0.2730 -2.9163  0.4147
   47MOL0     H 6332  10.898   3.158   6.755 -1.7289 -0.8009 -0.3588
   47MOL0     H 6333  10.810   3.042   6.936  0.6302  4.6126  0.9491
   47MOL0     H 6334  10.711   3.026   6.785 -0.6046 -0.5896  0.2894
   47MOL0     H 6335  10.632   2.878   6.985 -2.3356 -1.2258 -0.6189
   47MOL0     H 6336  10.511   2.980   6.916 -0.4884 -4.0147  1.6093
   47MOL0     H 6337  10.508   3.118   7.114 -0.3593 -0.4203 -0.0730
   47MOL0     H 6338  10.680   3.076   7.147 -0.3141 -0.0751  0.6339
   47MOL0     H 6339  10.471   2.874   7.164  2.1737 -2.3148  0.2529
   47MOL0     H 6340  10.638   2.868   7.215 -0.6274  0.2858  1.8438
   47MOL0     H 6341  10.443   3.102   7.525 -0.1859 -2.5204  1.1213
   47MOL0     H 6342  10.637   3.441   6.926 -0.2636 -1.4893 -0.3694
   47MOL0     H 6343  10.811   3.719   6.927 -3.2007 -0.7329  3.9461
   47MOL0     H 6344  10.760   3.748   6.758  0.0980 -1.1232 -1.2683
   47MOL0     H 6345  10.652   3.694   6.890  1.9095 -0.1193  3.3264
   48MOL0     O 6346   6.931   0.402   6.869 -0.4765  0.4050 -0.4168
   48MOL0     C 6347   6.820   0.456   6.897 -0.3071  0.8065  0.0012
   48MOL0     O 6348   6.760   0.461   7.017 -0.2598  0.5291  0.0849
   48MOL0     C 6349   6.824   0.388   7.112  0.9986 -0.3166 -0.2583
   48MOL0     C 6350   6.804   0.257   7.120  0.0263 -0.3095  0.4605
   48MOL0     C 6351   6.875   0.176   7.211  0.3243 -0.4411 -0.4094
   48MOL0     C 6352   6.968   0.230   7.299  0.0057 -0.0440 -0.5078
   48MOL0     O 6353   7.036   0.133   7.364 -0.1526 -0.3049  0.3567
   48MOL0     C 6354   7.167   0.168   7.403 -0.4443  1.0571 -0.1818
   48MOL0     C 6355   7.265   0.155   7.285 -0.0824  0.5100 -0.5165
   48MOL0     C 6356   7.318   0.011   7.282  0.0491 -1.3861 -0.2335
   48MOL0     C 6357   7.408   0.001   7.156 -0.4673 -0.2911 -0.6928
   48MOL0     C 6358   7.465  -0.145   7.132  0.4046  0.0953 -0.9736
   48MOL0     C 6359   7.364  -0.225   7.046  0.3274 -0.5042  0.5000
   48MOL0     C 6360   7.421  -0.334   6.960 -0.6801 -1.0635  0.3685
   48MOL0     C 6361   7.326  -0.391   6.854  0.6165 -0.1538  0.3767
   48MOL0     N 6362   7.235  -0.504   6.904 -0.0384  0.5466 -0.1959
   48MOL0     C 6363   7.100  -0.498   6.942 -0.5389  0.8240  0.3606
   48MOL0     C 6364   7.076  -0.610   7.008  0.1005  0.1050 -0.1138
   48MOL0     C 6365   6.951  -0.650   7.082  0.5250 -0.5851  0.2121
   48MOL0     C 6366   6.841  -0.695   6.991  0.0287 -0.1364 -0.3780
   48MOL0     C 6367   6.726  -0.753   7.080  0.2395 -0.4781 -0.0515
   48MOL0     C 6368   6.619  -0.808   6.985  0.5124  0.2722  0.3037
   48MOL0     O 6369   6.496  -0.782   7.057 -0.7005 -0.4481  0.1400
   48MOL0     C 6370   6.409  -0.684   7.016  0.1121 -0.2742 -0.0053
   48MOL0     C 6371   6.270  -0.707   7.035  0.2236  0.2881 -0.4152
   48MOL0     C 6372   6.178  -0.616   6.995  0.3794  0.1305 -0.6241
   48MOL0     C 6373   6.209  -0.488   6.950 -0.3361 -0.8683  0.1488
   48MOL0     C 6374   6.108  -0.395   6.898  0.2363 -0.7840 -0.0061
   48MOL0     O 6375   6.144  -0.269   6.866  0.2207  0.6025  0.4684
   48MOL0     C 6376   6.057  -0.173   6.813  0.5211 -0.9980 -0.0280
   48MOL0     C 6377   5.913  -0.160   6.833 -0.3681  0.7182 -0.0510
   48MOL0     C 6378   5.841  -0.053   6.770 -0.4384  0.1200 -0.0198
   48MOL0     C 6379   5.914   0.039   6.685 -0.3383 -0.0397 -0.5089
   48MOL0     O 6380   5.841   0.147   6.640 -0.4930  0.3223 -0.5212
   48MOL0     C 6381   5.913   0.258   6.593 -0.6492 -0.2721 -0.6033
   48MOL0     C 6382   5.814   0.356   6.531  0.5195 -0.4058  0.1147
   48MOL0     C 6383   5.741   0.467   6.610 -0.1499 -0.0707 -0.1211
   48MOL0     C 6384   5.664   0.409   6.733 -1.0209 -0.2331 -0.5214
   48MOL0     C 6385   5.583   0.517   6.814  1.1157 -0.6600 -0.3432
   48MOL0     C 6386   5.476   0.468   6.908  1.3791 -0.1019 -0.0961
   48MOL0     C 6387   5.332   0.421   6.850 -0.5024  0.1967  0.8127
   48MOL0     C 6388   5.251   0.542   6.807 -0.2107 -0.3531 -0.7851
   48MOL0    Cl 6389   5.118   0.480   6.703 -0.4721  0.0525  0.4054
   48MOL0     C 6390   6.057   0.019   6.665  0.0068  0.1612  0.3829
   48MOL0     C 6391   6.122  -0.082   6.720  0.1804  0.1858  0.8367
   48MOL0     O 6392   5.999  -0.441   6.878 -0.5474 -0.5832  0.5377
   48MOL0     C 6393   6.346  -0.459   6.932 -0.3808  0.1255  0.3343
   48MOL0     C 6394   6.448  -0.554   6.964 -0.2509  0.4283  0.1305
   48MOL0     N 6395   7.184  -0.697   6.999 -0.2908  0.3145 -0.5604
   48MOL0     N 6396   7.281  -0.635   6.935  0.5450 -0.3970 -0.1142
   48MOL0     C 6397   6.988   0.367   7.286  0.3117  0.3849  0.6349
   48MOL0     C 6398   6.921   0.449   7.192  0.5032  0.1725  0.3742
   48MOL0     C 6399   6.734   0.503   6.781 -0.3388 -0.4859  0.5885
   48MOL0     C 6400   6.727   0.436   6.657  0.1688 -0.4255  0.7544
   48MOL0     C 6401   6.652   0.495   6.550 -0.4887  0.6017  0.4138
   48MOL0     C 6402   6.585   0.616   6.568 -0.7427  0.3028  0.7048
   48MOL0     O 6403   6.510   0.677   6.465  0.6800  0.8427  0.4872
   48MOL0     C 6404   6.520   0.654   6.319 -0.1693  0.5926  0.0427
   48MOL0     C 6405   6.428   0.552   6.254 -0.4833  0.8021 -0.3001
   48MOL0     C 6406   6.275   0.557   6.296 -0.1261  0.1734 -0.1173
   48MOL0     C 6407   6.206   0.686   6.267  0.7519  0.1424 -1.0405
   48MOL0     C 6408   6.084   0.708   6.347  0.0503 -0.4563  0.6645
   48MOL0     C 6409   5.984   0.726   6.414  0.3896  0.7059 -0.2068
   48MOL0     C 6410   6.584   0.675   6.694 -0.6994  2.0462 -0.2432
   48MOL0     C 6411   6.673   0.636   6.794 -0.0743  0.6605  1.0517
   48MOL0     C 6412   6.665   0.707   6.926 -0.9192  0.1063  0.5419
   48MOL0     H 6413   6.743   0.209   7.044 -0.0675  1.0257 -0.3298
   48MOL0     H 6414   6.855   0.069   7.214 -1.4330 -0.1205  0.6845
   48MOL0     H 6415   7.168   0.268   7.449 -1.5655  0.3331  1.5260
   48MOL0     H 6416   7.205   0.101   7.480  1.7617 -0.0794 -2.1576
   48MOL0     H 6417   7.351   0.221   7.301  0.8087 -0.3740 -1.5138
   48MOL0     H 6418   7.203   0.171   7.197 -1.7489  0.2951  0.5654
   48MOL0     H 6419   7.238  -0.064   7.289  0.0714 -1.2320  2.1948
   48MOL0     H 6420   7.377  -0.007   7.372  1.6291 -1.2621 -1.1969
   48MOL0     H 6421   7.336   0.029   7.079 -2.5158 -3.7070 -0.2229
   48MOL0     H 6422   7.495   0.066   7.166 -1.6556  1.4949 -1.5236
   48MOL0     H 6423   7.560  -0.136   7.078 -0.3342  0.8983 -2.1968
   48MOL0     H 6424   7.482  -0.191   7.229 -0.4603  0.7988 -0.4720
   48MOL0     H 6425   7.297  -0.270   7.120 -0.8892 -1.0896 -0.9087
   48MOL0     H 6426   7.303  -0.170   6.973  0.7222  2.9432  2.5595
   48MOL0     H 6427   7.464  -0.414   7.021  2.2197 -0.2585 -0.4719
   48MOL0     H 6428   7.511  -0.305   6.905 -0.4583  3.4334  2.6762
   48MOL0     H 6429   7.270  -0.309   6.810  3.6258  1.6025 -0.5139
   48MOL0     H 6430   7.373  -0.442   6.769 -2.1121 -1.1187 -0.6363
   48MOL0     H 6431   7.029  -0.418   6.925 -0.7269  0.6570  0.3489
   48MOL0     H 6432   6.977  -0.730   7.152 -1.8285 -0.4117  1.3967
   48MOL0     H 6433   6.904  -0.573   7.144 -0.7851 -1.7239  0.7215
   48MOL0     H 6434   6.822  -0.615   6.919  3.8229 -1.2589 -2.9615
   48MOL0     H 6435   6.888  -0.775   6.933  1.5454  2.1329 -2.5273
   48MOL0     H 6436   6.685  -0.674   7.143 -0.8956  1.8455 -3.3826
   48MOL0     H 6437   6.760  -0.830   7.150  0.8268 -0.1684  0.0165
   48MOL0     H 6438   6.620  -0.917   6.977 -1.5851  0.1209  1.4346
   48MOL0     H 6439   6.624  -0.764   6.885  3.8641 -2.8782 -1.1615
   48MOL0     H 6440   6.239  -0.799   7.083  1.7253  0.1616  0.3629
   48MOL0     H 6441   6.073  -0.640   7.008  0.0119  2.2243  0.5645
   48MOL0     H 6442   5.865  -0.229   6.902 -2.4397 -1.3446 -3.3184
   48MOL0     H 6443   5.735  -0.034   6.784 -0.4440  1.5617 -1.6284
   48MOL0     H 6444   5.959   0.316   6.672 -2.1428  3.2923 -2.1405
   48MOL0     H 6445   5.986   0.228   6.517  0.2226  3.3456 -1.3478
   48MOL0     H 6446   5.870   0.405   6.451 -3.1361  1.5369 -1.5114
   48MOL0     H 6447   5.733   0.305   6.480 -1.2529  2.6323 -0.3481
   48MOL0     H 6448   5.810   0.548   6.637 -0.4718  0.3000 -0.3973
   48MOL0     H 6449   5.677   0.526   6.543  1.4775  2.9902  0.8014
   48MOL0     H 6450   5.735   0.354   6.795 -2.2755 -0.7641  0.4934
   48MOL0     H 6451   5.591   0.336   6.696 -0.4288 -0.5877 -1.0011
   48MOL0     H 6452   5.539   0.586   6.741 -2.7573 -1.2507  1.1758
   48MOL0     H 6453   5.655   0.572   6.875 -0.8508  1.6605  0.0780
   48MOL0     H 6454   5.521   0.380   6.953 -0.7517 -0.7374  0.9242
   48MOL0     H 6455   5.471   0.537   6.993  0.7913 -0.9601  0.5784
   48MOL0     H 6456   5.280   0.365   6.927 -1.5339  1.1607  0.8464
   48MOL0     H 6457   5.339   0.362   6.758 -0.2790  1.7508 -0.2017
   48MOL0     H 6458   5.216   0.601   6.893  0.5477 -1.8094  0.5897
   48MOL0     H 6459   5.310   0.619   6.757 -2.3343  2.9721  1.3792
   48MOL0     H 6460   6.109   0.096   6.609  0.0568  0.9393  1.4725
   48MOL0     H 6461   6.230  -0.079   6.710  0.6185  6.0835  3.4897
   48MOL0     H 6462   6.379  -0.366   6.888 -1.5765 -0.5446 -2.1888
   48MOL0     H 6463   6.553  -0.552   6.939 -0.4230  1.2798 -0.5817
   48MOL0     H 6464   7.071   0.406   7.344 -1.7117 -0.3017  4.3111
   48MOL0     H 6465   6.954   0.552   7.180  3.8558 -0.9924 -1.9861
   48MOL0     H 6466   6.787   0.351   6.628 -2.5764 -1.3849 -2.7410
   48MOL0     H 6467   6.649   0.449   6.452 -1.1927 -1.2473  1.2592
   48MOL0     H 6468   6.624   0.635   6.292  0.7798  1.6841  2.6836
   48MOL0     H 6469   6.505   0.747   6.264 -0.1373 -1.4657 -3.7868
   48MOL0     H 6470   6.460   0.451   6.281  2.4120  1.7050  0.0410
   48MOL0     H 6471   6.435   0.571   6.147 -2.1080  0.9414 -0.4054
   48MOL0     H 6472   6.276   0.541   6.405  2.7962  0.4254 -0.0373
   48MOL0     H 6473   6.226   0.478   6.238 -2.8795  0.7346  1.2661
   48MOL0     H 6474   6.281   0.759   6.299  1.8316 -0.7731 -1.4316
   48MOL0     H 6475   6.180   0.703   6.162 -1.4536  1.0684 -0.4059
   48MOL0     H 6476   5.890   0.740   6.463  0.1660  0.0797 -0.4531
   48MOL0     H 6477   6.526   0.765   6.715 -0.6554  1.5312  2.4123
   48MOL0     H 6478   6.616   0.804   6.912  1.8965  1.7768  1.3940
   48MOL0     H 6479   6.608   0.648   6.999 -1.9066  0.1174 -0.2045
   48MOL0     H 6480   6.766   0.717   6.968 -0.9512  2.6218  0.1873
   49MOL0     O 6481   4.669   9.821  10.389  0.2666  0.0183 -0.6749
   49MOL0     C 6482   4.622   9.745  10.302  0.0328 -0.4244 -0.7358
   49MOL0     O 6483   4.615   9.778  10.180 -0.3840  1.1047  0.2601
   49MOL0     C 6484   4.704   9.858  10.123 -0.3074  0.5796  0.1360
   49MOL0     C 6485   4.668   9.932  10.008 -0.4993  0.4966 -0.0700
   49MOL0     C 6486   4.756  10.032   9.951 -0.5470  0.3211  0.0584
   49MOL0     C 6487   4.891  10.034   9.992  0.4811 -0.6264 -0.5504
   49MOL0     O 6488   4.986  10.112   9.939  0.0016  0.4967 -0.2058
   49MOL0     C 6489   4.959  10.134   9.798  0.2265 -0.1806 -1.0130
   49MOL0     C 6490   5.092  10.143   9.716 -0.5722 -0.3879 -0.3906
   49MOL0     C 6491   5.081  10.225   9.597 -0.0878  0.1854  0.2360
   49MOL0     C 6492   5.107  10.376   9.609 -0.6401 -1.0596  0.0401
   49MOL0     C 6493   5.073  10.445   9.474 -0.3181  0.6961  0.4243
   49MOL0     C 6494   5.143  10.576   9.458  0.2413 -0.6723 -0.2509
   49MOL0     C 6495   5.128  10.616   9.314  0.1756  0.5397 -0.3292
   49MOL0     C 6496   5.195  10.749   9.284 -0.6793 -0.2449  0.1713
   49MOL0     N 6497   5.213  10.772   9.135  0.1492  0.0709  0.1185
   49MOL0     C 6498   5.173  10.893   9.068 -0.5460  0.2470 -0.4484
   49MOL0     C 6499   5.217  10.880   8.941  0.3136  0.4710 -0.0975
   49MOL0     C 6500   5.229  10.989   8.843 -0.1738  0.2983 -0.0812
   49MOL0     C 6501   5.374  11.057   8.843 -0.1822 -0.3267  0.2194
   49MOL0     C 6502   5.415  11.130   8.970 -0.3926 -0.2424  0.0045
   49MOL0     C 6503   5.318  11.252   9.001 -0.3202  1.2165  0.6652
   49MOL0     O 6504   5.395  11.356   9.065  0.5782  0.7109 -0.0208
   49MOL0     C 6505   5.340  11.481   9.105 -0.2500  0.2851  1.1005
   49MOL0     C 6506   5.438  11.570   9.150  0.1818 -0.0471 -0.7704
   49MOL0     C 6507   5.403  11.703   9.189  0.0934 -0.1274  0.2567
   49MOL0     C 6508   5.269  11.744   9.179 -0.5442 -1.3854 -1.5208
   49MOL0     C 6509   5.231  11.883   9.217  0.6339 -0.8393 -0.8823
   49MOL0     O 6510   5.318  11.976   9.263 -0.1081 -0.4486  0.4647
   49MOL0     C 6511   5.272  12.100   9.300 -0.8970  0.0538 -0.1699
   49MOL0     C 6512   5.224  12.114   9.427  0.7503  0.7647 -0.7657
   49MOL0     C 6513   5.165  12.235   9.475 -0.3029 -0.0222 -0.7586
   49MOL0     C 6514   5.183  12.352   9.402  0.2427 -0.3581  1.0827
   49MOL0     O 6515   5.116  12.466   9.448 -0.8395  0.1887  0.0011
   49MOL0     C 6516   5.196  12.580   9.467  0.3460  0.5036  1.1759
   49MOL0     C 6517   5.111  12.682   9.542  0.2111  0.8063 -0.0235
   49MOL0     C 6518   5.150  12.703   9.692 -0.2751  0.8163  0.4282
   49MOL0     C 6519   5.140  12.588   9.787  0.0249  0.9804 -0.0924
   49MOL0     C 6520   5.221  12.614   9.911  0.8030  0.8215  0.5871
   49MOL0     C 6521   5.192  12.500  10.012  0.3101 -0.2409 -0.2207
   49MOL0     C 6522   5.250  12.528  10.149  0.1290  0.5342 -0.0242
   49MOL0     C 6523   5.300  12.394  10.205  0.8367  0.8455 -0.0661
   49MOL0    Cl 6524   5.323  12.390  10.385 -0.2374  0.2691  0.1591
   49MOL0     C 6525   5.233  12.351   9.267 -0.3163  0.4121 -0.9579
   49MOL0     C 6526   5.279  12.224   9.219  0.0390 -0.1705 -0.3653
   49MOL0     O 6527   5.110  11.904   9.201 -0.0345 -0.0974 -0.8250
   49MOL0     C 6528   5.169  11.649   9.147  0.2982  0.2113 -0.3599
   49MOL0     C 6529   5.204  11.517   9.104  0.1833 -0.4379 -0.5166
   49MOL0     N 6530   5.263  10.748   8.919 -0.9463 -0.7455  0.4117
   49MOL0     N 6531   5.266  10.686   9.037 -0.2222 -0.1217  0.7679
   49MOL0     C 6532   4.937   9.950  10.102  0.4854 -0.5917  0.3894
   49MOL0     C 6533   4.847   9.865  10.160  0.0934  0.1766 -0.2369
   49MOL0     C 6534   4.544   9.637  10.359  0.0538  0.1476 -0.2108
   49MOL0     C 6535   4.405   9.651  10.347  0.2355 -0.1085 -0.6992
   49MOL0     C 6536   4.330   9.553  10.403  0.2248  0.8876 -0.0358
   49MOL0     C 6537   4.384   9.437  10.475  0.1491  0.1304  1.2613
   49MOL0     O 6538   4.299   9.339  10.520  0.1126  0.2272  0.0708
   49MOL0     C 6539   4.354   9.203  10.526  1.3757  1.0265 -0.0296
   49MOL0     C 6540   4.226   9.114  10.517 -0.4968 -1.2292  0.0853
   49MOL0     C 6541   4.243   8.974  10.571  0.3874 -0.5028 -0.1536
   49MOL0     C 6542   4.311   8.874  10.482 -0.1629  0.7025 -1.0711
   49MOL0     C 6543   4.229   8.838  10.375  0.7941  0.2189  0.1384
   49MOL0     C 6544   4.154   8.816  10.285  0.3191  0.2504 -0.2375
   49MOL0     C 6545   4.523   9.432  10.483 -0.9668 -0.2252  0.6637
   49MOL0     C 6546   4.607   9.531  10.426 -0.2809  0.1079 -0.5203
   49MOL0     C 6547   4.758   9.515  10.440 -0.3036  0.6383 -0.4702
   49MOL0     H 6548   4.565   9.925   9.977  0.0577 -0.9111 -1.7621
   49MOL0     H 6549   4.711  10.086   9.869 -1.0954  1.0813  0.8385
   49MOL0     H 6550   4.894  10.062   9.748 -0.3641 -0.6284  0.3523
   49MOL0     H 6551   4.918  10.235   9.801 -1.0348 -0.6689  2.5530
   49MOL0     H 6552   5.117  10.041   9.687  0.7982 -0.6351  1.4687
   49MOL0     H 6553   5.175  10.171   9.781 -1.6709  1.5896  0.2432
   49MOL0     H 6554   4.990  10.205   9.540  0.5917 -0.5300 -0.6445
   49MOL0     H 6555   5.156  10.193   9.523  0.8214  1.2769  0.6641
   49MOL0     H 6556   5.036  10.404   9.687 -1.1389 -3.8500  0.6987
   49MOL0     H 6557   5.208  10.408   9.637 -0.9326  2.5273 -2.3305
   49MOL0     H 6558   5.089  10.381   9.386 -2.2578  2.4351 -1.2913
   49MOL0     H 6559   4.964  10.459   9.472  0.0648  4.5329 -1.2673
   49MOL0     H 6560   5.095  10.644   9.528 -0.4479 -0.0674 -1.2894
   49MOL0     H 6561   5.251  10.556   9.467  0.0333 -0.8519  4.7895
   49MOL0     H 6562   5.024  10.613   9.281 -0.9036  1.4669  2.6837
   49MOL0     H 6563   5.180  10.535   9.261 -0.9523 -2.7943  3.2015
   49MOL0     H 6564   5.131  10.817   9.340  1.0852  4.9302 -3.2925
   49MOL0     H 6565   5.288  10.753   9.341  0.2487 -1.1192 -1.2071
   49MOL0     H 6566   5.138  10.981   9.122 -1.4526 -0.8765  0.8376
   49MOL0     H 6567   5.211  10.953   8.742 -0.4450  0.7631 -0.1987
   49MOL0     H 6568   5.155  11.067   8.861 -0.0685  0.6414 -1.0949
   49MOL0     H 6569   5.439  10.969   8.832  1.0776  0.4889  0.8371
   49MOL0     H 6570   5.384  11.115   8.751  2.6544 -0.4904  0.3279
   49MOL0     H 6571   5.515  11.170   8.953 -1.0154  2.1746  1.5949
   49MOL0     H 6572   5.406  11.055   9.049  0.7632  1.9183  2.3072
   49MOL0     H 6573   5.240  11.223   9.072 -0.7822 -0.9725 -0.6338
   49MOL0     H 6574   5.284  11.284   8.902 -1.8717  1.0347  1.1125
   49MOL0     H 6575   5.537  11.528   9.163 -0.3916 -0.6726  2.7081
   49MOL0     H 6576   5.486  11.763   9.227  0.7481 -0.8940  0.0623
   49MOL0     H 6577   5.215  12.032   9.498 -2.2045  0.6213 -1.1626
   49MOL0     H 6578   5.116  12.239   9.572 -1.9672 -0.0705 -1.5553
   49MOL0     H 6579   5.287  12.554   9.522  0.3643  0.3197  1.0578
   49MOL0     H 6580   5.233  12.612   9.369  0.2976 -5.4486 -1.1747
   49MOL0     H 6581   5.123  12.782   9.499 -1.9495  0.3399 -1.9596
   49MOL0     H 6582   5.010  12.640   9.549  0.7246 -0.3977  0.3141
   49MOL0     H 6583   5.250  12.747   9.694 -0.0941  0.4061  0.5600
   49MOL0     H 6584   5.083  12.780   9.731 -2.3732 -1.9419  2.7343
   49MOL0     H 6585   5.183  12.495   9.751 -2.5052 -0.1603 -0.3700
   49MOL0     H 6586   5.035  12.566   9.809 -0.4460  3.0028 -0.1196
   49MOL0     H 6587   5.207  12.715   9.950  1.3058  1.0728  0.1245
   49MOL0     H 6588   5.329  12.624   9.896  0.9825  2.6927  2.6308
   49MOL0     H 6589   5.085  12.481  10.029  0.8412 -1.8961  1.7077
   49MOL0     H 6590   5.230  12.409   9.965  1.5512  1.0806 -1.8939
   49MOL0     H 6591   5.181  12.571  10.223  1.9174  2.4222  0.6227
   49MOL0     H 6592   5.336  12.594  10.161 -0.8571  1.4437  3.2078
   49MOL0     H 6593   5.233  12.313  10.176  0.0615  0.3416  2.8551
   49MOL0     H 6594   5.402  12.370  10.172  0.0691 -5.1758  0.9109
   49MOL0     H 6595   5.263  12.441   9.215  2.3999  1.0105  1.3770
   49MOL0     H 6596   5.309  12.216   9.116 -2.3084  2.2873 -1.3684
   49MOL0     H 6597   5.062  11.666   9.161  0.1021 -1.1904  0.0436
   49MOL0     H 6598   5.123  11.448   9.086  1.3170 -1.5966 -1.3835
   49MOL0     H 6599   5.044   9.950  10.121  1.0904  0.3435 -2.5643
   49MOL0     H 6600   4.884   9.810  10.246  0.5150  1.2569  0.2891
   49MOL0     H 6601   4.355   9.734  10.300  1.1023 -0.0306 -1.5061
   49MOL0     H 6602   4.224   9.574  10.397  0.5671  2.8172  0.2244
   49MOL0     H 6603   4.397   9.187  10.625 -0.5685 -0.9438  0.5781
   49MOL0     H 6604   4.427   9.190  10.446  0.2698  0.4629 -0.9841
   49MOL0     H 6605   4.207   9.117  10.409  2.7500  1.6034 -0.6073
   49MOL0     H 6606   4.142   9.169  10.559  1.0356  2.9774 -1.8258
   49MOL0     H 6607   4.143   8.943  10.603 -0.7565  1.1241 -1.9936
   49MOL0     H 6608   4.313   8.985  10.654 -1.6659  3.4580  1.3122
   49MOL0     H 6609   4.400   8.915  10.434  0.7041  0.0674 -0.0633
   49MOL0     H 6610   4.325   8.785  10.544 -0.7262 -1.0116 -3.2913
   49MOL0     H 6611   4.080   8.807  10.209 -1.8579  0.0020  1.7847
   49MOL0     H 6612   4.574   9.345  10.523  1.9890  0.8013 -0.6482
   49MOL0     H 6613   4.799   9.608  10.482 -0.3385  1.3630 -1.9796
   49MOL0     H 6614   4.782   9.430  10.504 -4.6795  0.6584  1.5928
   49MOL0     H 6615   4.807   9.511  10.343  2.9932  1.1595  1.0296
   50MOL0     O 6616   3.240   2.517   0.442 -0.1851  0.8915 -0.5722
   50MOL0     C 6617   3.165   2.496   0.347 -0.7370  0.3032  0.2114
   50MOL0     O 6618   3.184   2.561   0.228  0.9745 -0.3837  0.4519
   50MOL0     C 6619   3.239   2.687   0.224 -0.2996 -0.7109 -0.7784
   50MOL0     C 6620   3.254   2.791   0.324 -0.5916  0.6373  0.3823
   50MOL0     C 6621   3.326   2.908   0.287  1.0820 -0.5937 -0.8128
   50MOL0     C 6622   3.378   2.937   0.162 -0.0790 -0.4809  0.5615
   50MOL0     O 6623   3.432   3.051   0.133  0.3804 -0.3043  0.3106
   50MOL0     C 6624   3.581   3.055   0.126  0.5801  0.3851  0.1102
   50MOL0     C 6625   3.651   3.066   0.259 -0.0263  0.6679 -0.1427
   50MOL0     C 6626   3.798   3.096   0.242  0.3628  0.0817  0.0260
   50MOL0     C 6627   3.871   3.102   0.387  0.2030 -0.6649  0.4724
   50MOL0     C 6628   3.835   3.227   0.472  0.7919  0.8132  0.2314
   50MOL0     C 6629   3.895   3.229   0.622  0.1821 -0.5346 -0.6378
   50MOL0     C 6630   4.042   3.194   0.643  0.8271 -0.3184  0.6532
   50MOL0     C 6631   4.140   3.287   0.589 -0.3590  0.1890 -0.7403
   50MOL0     N 6632   4.113   3.425   0.632  0.4443 -0.4033  0.5670
   50MOL0     C 6633   4.037   3.513   0.553 -0.0954 -0.6133  0.1908
   50MOL0     C 6634   4.101   3.636   0.570 -0.2180  0.3802  0.4654
   50MOL0     C 6635   4.075   3.759   0.481  0.5970 -0.2471 -1.0045
   50MOL0     C 6636   4.187   3.786   0.396 -0.1695 -0.0045  0.6137
   50MOL0     C 6637   4.155   3.887   0.293 -0.1474 -0.3864  0.4759
   50MOL0     C 6638   4.290   3.915   0.215  0.1115 -0.2256  0.4719
   50MOL0     O 6639   4.316   4.047   0.239 -0.0115  0.2500  0.3157
   50MOL0     C 6640   4.426   4.100   0.166 -0.3019  0.6454 -0.4458
   50MOL0     C 6641   4.528   4.020   0.105 -0.2558 -0.3269  0.0645
   50MOL0     C 6642   4.625   4.080   0.031  0.3871  0.3626  0.0726
   50MOL0     C 6643   4.627   4.224   0.021 -0.2238 -0.0603 -0.1532
   50MOL0     C 6644   4.730   4.292  -0.068 -0.4680 -0.2502  0.4379
   50MOL0     O 6645   4.825   4.205  -0.125 -0.5918 -0.3758 -0.1069
   50MOL0     C 6646   4.922   4.264  -0.214 -0.3682  0.4241 -1.1576
   50MOL0     C 6647   4.888   4.333  -0.328  0.1427  0.3827  0.3038
   50MOL0     C 6648   4.980   4.409  -0.409 -0.6111 -0.1998 -0.0503
   50MOL0     C 6649   5.116   4.399  -0.385 -0.6035  0.4915 -1.0493
   50MOL0     O 6650   5.207   4.432  -0.481  0.3591 -0.3276  0.6484
   50MOL0     C 6651   5.325   4.346  -0.494 -0.0629  0.1735  0.5593
   50MOL0     C 6652   5.371   4.321  -0.638 -0.5707 -0.5308  0.4420
   50MOL0     C 6653   5.266   4.238  -0.715 -0.2214  0.4539 -0.2992
   50MOL0     C 6654   5.253   4.273  -0.861  0.1268  0.0307  0.9424
   50MOL0     C 6655   5.139   4.203  -0.932  0.4879 -0.6756  1.1769
   50MOL0     C 6656   5.105   4.278  -1.071 -0.7894  0.4865  0.1373
   50MOL0     C 6657   5.215   4.278  -1.189  0.3654  0.7016 -0.2550
   50MOL0     C 6658   5.174   4.335  -1.327  0.4339  0.3068  0.1679
   50MOL0    Cl 6659   5.029   4.250  -1.393 -0.1477  0.7349 -0.1855
   50MOL0     C 6660   5.152   4.348  -0.257  0.8195  0.0270 -0.3546
   50MOL0     C 6661   5.058   4.271  -0.175 -0.6933 -0.9159 -0.1572
   50MOL0     O 6662   4.725   4.408  -0.083  0.3355 -1.3062  0.0516
   50MOL0     C 6663   4.526   4.307   0.082 -0.2038  0.0566  0.5404
   50MOL0     C 6664   4.426   4.240   0.153 -0.2321  0.2099 -0.4838
   50MOL0     N 6665   4.198   3.632   0.667 -0.9548  0.1627  0.3059
   50MOL0     N 6666   4.200   3.505   0.700 -0.1307  0.0567 -0.7741
   50MOL0     C 6667   3.358   2.842   0.070  0.3971  0.2450 -1.4210
   50MOL0     C 6668   3.287   2.722   0.100 -1.1688 -1.3556 -0.7427
   50MOL0     C 6669   3.060   2.397   0.350  0.1095 -0.7555  0.0792
   50MOL0     C 6670   2.944   2.421   0.275  0.0954 -0.2554  0.2249
   50MOL0     C 6671   2.835   2.330   0.294  0.0582 -1.4087 -0.1490
   50MOL0     C 6672   2.851   2.212   0.372  0.6408  0.8630  0.6261
   50MOL0     O 6673   2.734   2.124   0.380 -0.1272  0.2901 -0.0683
   50MOL0     C 6674   2.652   2.152   0.494  1.2907  0.4726  0.4105
   50MOL0     C 6675   2.566   2.283   0.508 -1.0925 -0.4354  0.1185
   50MOL0     C 6676   2.470   2.283   0.631 -0.0876  0.4491  0.6719
   50MOL0     C 6677   2.386   2.406   0.649 -0.6008 -0.3369  1.0627
   50MOL0     C 6678   2.264   2.392   0.574  0.5898 -0.4343  0.3605
   50MOL0     C 6679   2.156   2.354   0.528  0.7982  0.4315 -0.0830
   50MOL0     C 6680   2.965   2.179   0.431 -0.5060 -0.5471 -0.1029
   50MOL0     C 6681   3.071   2.275   0.422 -0.0792 -0.3434  0.7336
   50MOL0     C 6682   3.197   2.221   0.473  0.6322 -0.5393  0.4378
   50MOL0     H 6683   3.209   2.786   0.423 -3.2246  1.3133 -0.6906
   50MOL0     H 6684   3.337   3.000   0.345 -0.3161  0.0911 -1.5866
   50MOL0     H 6685   3.619   2.969   0.071  4.1718 -1.5283  4.8760
   50MOL0     H 6686   3.604   3.147   0.071  0.8248  0.7548  0.8139
   50MOL0     H 6687   3.638   2.977   0.321  2.1049  0.3821 -0.0378
   50MOL0     H 6688   3.612   3.149   0.319  0.9891  0.0035  1.4964
   50MOL0     H 6689   3.787   3.194   0.195 -0.7311 -0.3860 -0.7485
   50MOL0     H 6690   3.849   3.025   0.176 -0.1206 -2.8083  2.5465
   50MOL0     H 6691   3.839   3.011   0.439 -2.0986 -0.2849 -0.1862
   50MOL0     H 6692   3.978   3.081   0.381 -0.1747 -3.2864  1.5652
   50MOL0     H 6693   3.888   3.304   0.414  0.3785  0.9663  0.0586
   50MOL0     H 6694   3.731   3.260   0.466  1.0084  1.2729 -1.2727
   50MOL0     H 6695   3.865   3.320   0.674 -2.0184 -0.8145 -1.3282
   50MOL0     H 6696   3.832   3.150   0.663  0.1804 -0.8693 -1.2582
   50MOL0     H 6697   4.055   3.093   0.605 -0.5202  0.2321 -1.4223
   50MOL0     H 6698   4.059   3.197   0.752 -0.4470  1.1715  0.8537
   50MOL0     H 6699   4.236   3.262   0.635 -1.5753 -1.3600  1.0829
   50MOL0     H 6700   4.153   3.270   0.481 -0.8288  0.0547 -0.7776
   50MOL0     H 6701   3.956   3.479   0.488 -1.7682  2.1134  0.6946
   50MOL0     H 6702   3.987   3.745   0.417 -0.5082  2.9104 -0.3392
   50MOL0     H 6703   4.057   3.850   0.539 -0.6745 -0.8202 -0.4484
   50MOL0     H 6704   4.261   3.837   0.458 -0.8205  1.7248  0.0329
   50MOL0     H 6705   4.224   3.691   0.357 -3.0138 -0.4629 -1.3119
   50MOL0     H 6706   4.112   3.978   0.335  1.5681  1.4741 -1.4902
   50MOL0     H 6707   4.084   3.841   0.225  3.5456 -2.8528 -2.1266
   50MOL0     H 6708   4.273   3.909   0.107 -0.2514  1.2786  0.4269
   50MOL0     H 6709   4.376   3.852   0.242 -1.0418 -1.3289  1.7029
   50MOL0     H 6710   4.536   3.912   0.113 -0.1783 -0.4012 -0.9768
   50MOL0     H 6711   4.696   4.020  -0.025  0.8999  0.0864  0.9888
   50MOL0     H 6712   4.782   4.348  -0.347 -0.1268 -0.6991  0.8866
   50MOL0     H 6713   4.935   4.470  -0.487 -0.8266  0.4085  0.5383
   50MOL0     H 6714   5.408   4.393  -0.441 -2.6008  3.7240  1.8121
   50MOL0     H 6715   5.313   4.255  -0.434 -1.4978  1.1770  1.8652
   50MOL0     H 6716   5.395   4.420  -0.678  0.9013  0.6599  3.9183
   50MOL0     H 6717   5.460   4.257  -0.634 -0.3064 -0.3135 -1.3291
   50MOL0     H 6718   5.307   4.137  -0.704 -1.4390  0.1867  2.7060
   50MOL0     H 6719   5.166   4.245  -0.672 -0.4366 -1.0233 -0.5177
   50MOL0     H 6720   5.348   4.261  -0.914 -1.6117  1.2493 -2.7738
   50MOL0     H 6721   5.231   4.380  -0.871 -0.1120 -0.0694  0.3379
   50MOL0     H 6722   5.050   4.194  -0.869 -0.3233  1.8093  0.5048
   50MOL0     H 6723   5.172   4.099  -0.944  0.5495 -0.5649  0.2930
   50MOL0     H 6724   5.015   4.242  -1.122  1.8655 -1.1050 -3.8456
   50MOL0     H 6725   5.085   4.381  -1.037  1.2780  1.2071 -0.6923
   50MOL0     H 6726   5.258   4.180  -1.213  2.1399  0.6854  2.5033
   50MOL0     H 6727   5.300   4.334  -1.148 -1.6383  2.3829  1.8144
   50MOL0     H 6728   5.172   4.444  -1.315  1.5333  0.2016  1.5144
   50MOL0     H 6729   5.257   4.313  -1.395  0.3421 -1.8860  0.6733
   50MOL0     H 6730   5.256   4.354  -0.225  0.4079 -0.8383  1.2537
   50MOL0     H 6731   5.091   4.226  -0.082  1.2858 -1.6358 -1.1314
   50MOL0     H 6732   4.520   4.414   0.066 -0.9860 -0.3101 -2.1864
   50MOL0     H 6733   4.349   4.302   0.199  1.2506  0.9593  1.0764
   50MOL0     H 6734   3.381   2.865  -0.034  0.3246 -0.3612 -1.5737
   50MOL0     H 6735   3.253   2.664   0.015 -0.8246 -1.2655 -0.9395
   50MOL0     H 6736   2.935   2.510   0.214 -1.3428  0.5038  1.4599
   50MOL0     H 6737   2.735   2.355   0.262  0.4446  2.3588  1.0441
   50MOL0     H 6738   2.720   2.143   0.580  3.1757  2.1222 -0.8176
   50MOL0     H 6739   2.581   2.071   0.513  2.1906 -0.9714 -1.8993
   50MOL0     H 6740   2.503   2.298   0.420 -0.0066 -3.7468 -1.4154
   50MOL0     H 6741   2.637   2.364   0.526  1.0311 -2.1049 -0.2788
   50MOL0     H 6742   2.534   2.274   0.718 -1.1147 -2.3839  1.2237
   50MOL0     H 6743   2.414   2.191   0.612  1.3589 -0.1255 -1.1540
   50MOL0     H 6744   2.363   2.401   0.756 -0.7611 -0.5644  1.0194
   50MOL0     H 6745   2.428   2.502   0.618  4.4477 -2.3902  0.5971
   50MOL0     H 6746   2.062   2.308   0.505  1.2468  0.1773 -1.5462
   50MOL0     H 6747   2.977   2.081   0.476 -0.8031  0.4879  2.4259
   50MOL0     H 6748   3.188   2.113   0.492 -0.0623 -0.0286  3.5792
   50MOL0     H 6749   3.269   2.250   0.396 -0.2317 -0.7667 -0.4785
   50MOL0     H 6750   3.227   2.270   0.565  2.3195  0.1869 -0.4614
   51MOL0     O 6751   7.937   8.992   2.591  0.6471 -0.6710  0.6258
   51MOL0     C 6752   7.977   9.077   2.508 -0.2373  0.5750  0.6049
   51MOL0     O 6753   7.891   9.157   2.434 -0.3725  0.5500  0.6825
   51MOL0     C 6754   7.760   9.153   2.453 -1.5004  1.1922 -0.8403
   51MOL0     C 6755   7.655   9.123   2.358 -0.7458 -0.2150  0.5946
   51MOL0     C 6756   7.525   9.106   2.386 -0.2237 -0.6605  0.2498
   51MOL0     C 6757   7.486   9.121   2.523 -1.0266 -0.4710 -0.1308
   51MOL0     O 6758   7.360   9.101   2.564 -0.1508  0.2166  0.3401
   51MOL0     C 6759   7.250   9.173   2.513 -0.4624 -0.5381 -0.4077
   51MOL0     C 6760   7.118   9.093   2.517  0.4588  0.6226 -0.7749
   51MOL0     C 6761   7.090   9.024   2.656 -0.4112  0.5522  0.2264
   51MOL0     C 6762   6.972   8.927   2.649  0.7931 -0.4350  0.2405
   51MOL0     C 6763   6.943   8.841   2.767 -0.5850  0.3294 -0.3388
   51MOL0     C 6764   6.869   8.915   2.875 -0.1037  0.1499 -0.6204
   51MOL0     C 6765   6.885   8.817   2.995 -0.5087  0.0348 -0.5341
   51MOL0     C 6766   6.851   8.876   3.130  0.0462 -0.5739  0.1485
   51MOL0     N 6767   6.714   8.926   3.127  0.3837 -0.6467  0.7877
   51MOL0     C 6768   6.603   8.849   3.154 -1.0026 -0.1514  0.3909
   51MOL0     C 6769   6.501   8.936   3.125  0.6271 -0.0519  1.0790
   51MOL0     C 6770   6.354   8.924   3.167  0.0994  0.5668  0.5850
   51MOL0     C 6771   6.265   8.941   3.044  0.4575 -0.2788  0.2289
   51MOL0     C 6772   6.231   8.813   2.962 -0.7625 -0.6156 -0.5342
   51MOL0     C 6773   6.349   8.738   2.944 -0.3333 -0.0186  1.2642
   51MOL0     O 6774   6.429   8.816   2.851 -0.0374 -1.0869 -0.3772
   51MOL0     C 6775   6.491   8.741   2.754 -0.1174 -0.7282 -0.2413
   51MOL0     C 6776   6.509   8.605   2.745 -0.5871  0.5474  0.7537
   51MOL0     C 6777   6.583   8.538   2.646 -0.1732  0.1361  1.0842
   51MOL0     C 6778   6.629   8.617   2.544 -0.4260 -0.6406 -0.4845
   51MOL0     C 6779   6.683   8.557   2.423 -0.4248  1.0497  0.4453
   51MOL0     O 6780   6.665   8.425   2.411 -0.7267 -0.1076 -0.0789
   51MOL0     C 6781   6.686   8.354   2.297  0.3674  0.6704 -0.4537
   51MOL0     C 6782   6.729   8.221   2.323 -1.0154  0.4200 -0.9515
   51MOL0     C 6783   6.746   8.136   2.220  0.1783 -0.1320 -0.1718
   51MOL0     C 6784   6.728   8.180   2.083  0.4157  0.8348 -1.6279
   51MOL0     O 6785   6.754   8.093   1.983  0.0218 -0.1800  0.2026
   51MOL0     C 6786   6.822   8.140   1.865 -0.4568 -0.3786  0.1860
   51MOL0     C 6787   6.725   8.162   1.746  0.4937 -0.4594 -0.5548
   51MOL0     C 6788   6.788   8.187   1.609  0.1547 -0.8930  0.4032
   51MOL0     C 6789   6.860   8.063   1.551 -0.2254 -0.9177  0.0577
   51MOL0     C 6790   6.945   8.085   1.425  0.6466  0.0763 -0.5433
   51MOL0     C 6791   7.013   7.952   1.378  0.7487 -0.8940  0.3202
   51MOL0     C 6792   7.121   7.974   1.279  0.9028  0.3423 -0.0962
   51MOL0     C 6793   7.213   7.857   1.278  0.0281  0.6242 -0.0814
   51MOL0    Cl 6794   7.353   7.872   1.168 -0.0641  0.0644  0.2702
   51MOL0     C 6795   6.691   8.313   2.071  0.2901  0.3734  0.0585
   51MOL0     C 6796   6.653   8.394   2.172  1.2515 -0.9243  0.0633
   51MOL0     O 6797   6.746   8.630   2.344 -0.2617  0.6805 -0.6759
   51MOL0     C 6798   6.619   8.757   2.552  0.1673  0.7642  0.2369
   51MOL0     C 6799   6.547   8.816   2.655 -0.7073  0.3933 -0.3512
   51MOL0     N 6800   6.553   9.065   3.091 -0.0991 -0.0301 -0.4452
   51MOL0     N 6801   6.683   9.052   3.091 -0.2930 -0.4302 -0.1345
   51MOL0     C 6802   7.579   9.157   2.611 -0.0890 -0.3034  1.1227
   51MOL0     C 6803   7.713   9.176   2.587 -0.9901 -0.2217 -0.1938
   51MOL0     C 6804   8.118   9.105   2.486 -1.1527  0.5324 -1.0272
   51MOL0     C 6805   8.162   9.201   2.400 -0.2635 -0.1064  0.4418
   51MOL0     C 6806   8.293   9.229   2.365  0.0960 -0.1664  0.6437
   51MOL0     C 6807   8.393   9.160   2.420  0.2545  0.5796 -0.1757
   51MOL0     O 6808   8.518   9.172   2.364  0.7067 -0.7119  0.3922
   51MOL0     C 6809   8.636   9.149   2.442  0.0371  0.6535 -0.8377
   51MOL0     C 6810   8.724   9.025   2.414 -0.2631 -0.8806 -0.1943
   51MOL0     C 6811   8.832   9.037   2.303  0.3289 -0.0177 -0.4716
   51MOL0     C 6812   8.902   8.898   2.273 -0.3760  0.5810  0.5017
   51MOL0     C 6813   8.971   8.841   2.390 -0.5405 -0.5481  1.2372
   51MOL0     C 6814   9.009   8.801   2.493  0.2542 -0.1932  0.1721
   51MOL0     C 6815   8.359   9.055   2.513 -0.4795 -0.9692  0.0984
   51MOL0     C 6816   8.228   9.039   2.556  0.5525  0.7784  0.3027
   51MOL0     C 6817   8.199   8.916   2.652  0.2489 -0.2687  0.3101
   51MOL0     H 6818   7.690   9.105   2.256 -0.1671  1.3719  0.4778
   51MOL0     H 6819   7.440   9.092   2.321 -0.7615  2.7369  0.0319
   51MOL0     H 6820   7.238   9.262   2.574  0.4998  1.3750 -2.8394
   51MOL0     H 6821   7.278   9.211   2.414  0.6958 -0.0038  0.1146
   51MOL0     H 6822   7.131   9.023   2.434 -0.4470 -2.0703  1.2267
   51MOL0     H 6823   7.026   9.151   2.510 -0.5790 -1.1347 -4.8110
   51MOL0     H 6824   7.094   9.096   2.739  0.4788 -0.6342  1.2458
   51MOL0     H 6825   7.175   8.959   2.675 -0.3822  0.3138 -0.7135
   51MOL0     H 6826   6.877   8.967   2.613  2.2335  1.8003 -1.3285
   51MOL0     H 6827   6.997   8.859   2.567 -0.6334  1.7344 -2.1417
   51MOL0     H 6828   6.878   8.766   2.720  1.1398 -0.4459 -1.5796
   51MOL0     H 6829   7.036   8.800   2.805  0.0320  1.4862 -0.5434
   51MOL0     H 6830   6.913   9.014   2.894  0.4684  0.4498 -3.1713
   51MOL0     H 6831   6.764   8.927   2.850 -0.4371  0.7615  0.9319
   51MOL0     H 6832   6.986   8.777   3.011 -0.7662 -0.2743  0.3754
   51MOL0     H 6833   6.819   8.732   2.976 -2.2735  1.1474  0.3959
   51MOL0     H 6834   6.866   8.794   3.201  1.0571  0.7433  1.5305
   51MOL0     H 6835   6.924   8.953   3.157  1.0077 -0.6139 -2.1805
   51MOL0     H 6836   6.605   8.747   3.190  2.1831 -0.2209  0.2627
   51MOL0     H 6837   6.335   8.832   3.223  2.4856  1.1224  2.4947
   51MOL0     H 6838   6.334   9.005   3.238 -0.1975 -0.7013  1.9874
   51MOL0     H 6839   6.167   8.982   3.071 -0.4015 -1.1138 -1.5207
   51MOL0     H 6840   6.326   9.002   2.977  0.5423 -0.6952 -0.0698
   51MOL0     H 6841   6.180   8.834   2.868 -3.3643 -0.0248  0.9005
   51MOL0     H 6842   6.163   8.751   3.021  1.5227 -0.7677  2.1424
   51MOL0     H 6843   6.309   8.651   2.890 -2.8824  2.1031 -0.4839
   51MOL0     H 6844   6.404   8.708   3.034 -1.5570  1.5736  2.6034
   51MOL0     H 6845   6.462   8.540   2.818 -2.6014 -2.8239 -3.0743
   51MOL0     H 6846   6.596   8.431   2.651 -2.1534 -0.1036  1.8215
   51MOL0     H 6847   6.749   8.182   2.422  0.1073 -1.6974 -1.9620
   51MOL0     H 6848   6.784   8.035   2.231 -0.0424 -0.2951 -0.8143
   51MOL0     H 6849   6.894   8.220   1.880  3.3014 -3.9304  3.4484
   51MOL0     H 6850   6.889   8.058   1.840  1.5828  1.4508 -0.6480
   51MOL0     H 6851   6.671   8.067   1.748  0.1909 -0.3394  2.5435
   51MOL0     H 6852   6.659   8.246   1.770 -1.4459 -2.1430  0.2682
   51MOL0     H 6853   6.709   8.228   1.546 -0.6907 -2.0736  0.6546
   51MOL0     H 6854   6.863   8.266   1.622  0.3168 -1.5486  5.4401
   51MOL0     H 6855   6.790   7.985   1.521 -0.3473 -0.9305  0.3760
   51MOL0     H 6856   6.911   8.011   1.632  0.1285  0.5127  0.7929
   51MOL0     H 6857   7.022   8.157   1.451  0.5047 -0.2333  0.8367
   51MOL0     H 6858   6.896   8.134   1.341  4.6659  1.4817 -2.2673
   51MOL0     H 6859   7.050   7.905   1.470  1.1017  2.1167  1.8642
   51MOL0     H 6860   6.944   7.876   1.340  0.0853  0.2932 -0.9468
   51MOL0     H 6861   7.179   8.060   1.315 -0.1491  1.1041 -0.1763
   51MOL0     H 6862   7.071   7.988   1.183 -0.1784  0.1600  0.4253
   51MOL0     H 6863   7.241   7.827   1.380 -2.6444 -3.9498 -0.3949
   51MOL0     H 6864   7.162   7.763   1.257  0.7537 -0.9235  4.0757
   51MOL0     H 6865   6.687   8.356   1.972 -2.3486  0.0512 -0.0309
   51MOL0     H 6866   6.621   8.495   2.148  4.3975  0.6592  1.9006
   51MOL0     H 6867   6.671   8.825   2.485  1.3868 -0.1507  0.2183
   51MOL0     H 6868   6.547   8.921   2.683  1.8892  0.3682  0.0146
   51MOL0     H 6869   7.525   9.179   2.703 -2.1985  2.6754 -0.6476
   51MOL0     H 6870   7.776   9.222   2.662 -1.1909  1.7132 -1.1680
   51MOL0     H 6871   8.086   9.255   2.345 -0.0114 -1.0835 -0.9124
   51MOL0     H 6872   8.321   9.315   2.305  0.3350 -2.0079 -2.0311
   51MOL0     H 6873   8.604   9.145   2.546  0.5988  1.2543 -0.6365
   51MOL0     H 6874   8.696   9.239   2.432  2.1606 -0.7511 -1.5206
   51MOL0     H 6875   8.665   8.935   2.393 -0.6776 -0.7504  0.3832
   51MOL0     H 6876   8.784   9.009   2.504  2.0045  3.1255 -0.7459
   51MOL0     H 6877   8.900   9.118   2.333 -0.2044  1.3649 -2.7387
   51MOL0     H 6878   8.789   9.071   2.208  1.8113 -2.5390 -2.1705
   51MOL0     H 6879   8.819   8.830   2.253 -1.1556  1.0423  2.0343
   51MOL0     H 6880   8.964   8.897   2.182 -1.8658 -0.0765 -0.5435
   51MOL0     H 6881   9.052   8.770   2.586 -1.4051 -3.9698 -0.1267
   51MOL0     H 6882   8.431   8.991   2.563 -0.4202 -0.4799  0.6523
   51MOL0     H 6883   8.153   8.957   2.742 -0.3721  2.8232 -1.2507
   51MOL0     H 6884   8.125   8.846   2.614 -1.7152  1.2650  1.1560
   51MOL0     H 6885   8.294   8.869   2.677  0.8712  1.4054  1.2784
   52MOL0     O 6886   0.920   0.389  10.310 -0.4455 -0.1356 -0.0734
   52MOL0     C 6887   0.838   0.478  10.308 -0.0345  0.8170  0.0414
   52MOL0     O 6888   0.714   0.467  10.253  0.5940 -0.4700  1.1675
   52MOL0     C 6889   0.670   0.340  10.230  0.0055 -1.0050 -0.5930
   52MOL0     C 6890   0.693   0.263  10.111  0.1931  0.5605  0.1220
   52MOL0     C 6891   0.624   0.146  10.082  0.2950 -0.4392  0.9682
   52MOL0     C 6892   0.532   0.096  10.182 -0.7117  0.1002  0.4881
   52MOL0     O 6893   0.450  -0.013  10.155  0.3968  0.7085 -0.3092
   52MOL0     C 6894   0.517  -0.142  10.129 -0.3147  0.3944  0.7018
   52MOL0     C 6895   0.447  -0.253  10.199  1.0557 -0.0415 -0.2884
   52MOL0     C 6896   0.499  -0.384  10.148 -0.4085 -0.7359 -0.1254
   52MOL0     C 6897   0.426  -0.487  10.230 -0.9549  0.1597  0.1645
   52MOL0     C 6898   0.478  -0.629  10.196 -0.3046  0.6937 -0.6802
   52MOL0     C 6899   0.404  -0.729  10.274  0.6610 -0.8377 -0.0007
   52MOL0     C 6900   0.449  -0.876  10.248  0.3837  0.4758 -0.7939
   52MOL0     C 6901   0.374  -0.990  10.317 -0.4392  0.2481 -0.1042
   52MOL0     N 6902   0.442  -1.123  10.293  0.3003 -0.1071 -0.7078
   52MOL0     C 6903   0.388  -1.246  10.299 -0.0164  0.6801 -0.3660
   52MOL0     C 6904   0.481  -1.337  10.276 -0.9550  0.0341  0.0882
   52MOL0     C 6905   0.469  -1.483  10.277  0.3150 -0.0929  0.9055
   52MOL0     C 6906   0.413  -1.527  10.134  0.2078 -0.2795  0.6673
   52MOL0     C 6907   0.523  -1.553  10.031  0.8644 -0.6234  0.2122
   52MOL0     C 6908   0.467  -1.579   9.884 -0.4803 -0.2001  0.4187
   52MOL0     O 6909   0.443  -1.717   9.874  0.5663  0.0592 -0.1252
   52MOL0     C 6910   0.321  -1.764   9.839 -0.5005  0.0864 -0.1180
   52MOL0     C 6911   0.209  -1.695   9.861 -0.3938 -0.6124  0.4547
   52MOL0     C 6912   0.089  -1.734   9.802  0.3003 -0.4132 -0.5571
   52MOL0     C 6913   0.083  -1.849   9.718  0.3285 -0.3096 -0.2123
   52MOL0     C 6914  -0.046  -1.900   9.656  0.1017 -0.1843  0.2733
   52MOL0     O 6915  -0.022  -2.016   9.584  0.6033 -0.9636 -0.7412
   52MOL0     C 6916  -0.129  -2.065   9.508  0.6438 -0.5909 -0.1172
   52MOL0     C 6917  -0.167  -1.998   9.389 -0.8592  0.2968 -0.2437
   52MOL0     C 6918  -0.272  -2.045   9.307 -0.4554  0.3914 -0.4414
   52MOL0     C 6919  -0.337  -2.161   9.343 -0.0121 -0.2981  0.2154
   52MOL0     O 6920  -0.431  -2.216   9.267  0.7349 -0.5937 -0.5693
   52MOL0     C 6921  -0.553  -2.145   9.283 -0.4044  0.1804  0.3224
   52MOL0     C 6922  -0.644  -2.203   9.391 -0.3205 -0.4785  0.4751
   52MOL0     C 6923  -0.653  -2.350   9.374 -0.1912  0.7920  0.3567
   52MOL0     C 6924  -0.766  -2.417   9.443  0.3660 -0.6955 -0.4230
   52MOL0     C 6925  -0.750  -2.572   9.439 -0.1204 -0.2651  0.8886
   52MOL0     C 6926  -0.858  -2.652   9.508 -1.1141 -0.0897  0.9652
   52MOL0     C 6927  -0.811  -2.661   9.663  0.0210  0.3601  0.5782
   52MOL0     C 6928  -0.826  -2.793   9.728 -0.2943 -0.2245 -0.1797
   52MOL0    Cl 6929  -0.977  -2.884   9.707 -0.2108  0.3275 -0.2037
   52MOL0     C 6930  -0.315  -2.216   9.471 -0.3554 -0.3856  1.1373
   52MOL0     C 6931  -0.215  -2.166   9.556 -0.4037  1.2488 -0.7140
   52MOL0     O 6932  -0.157  -1.848   9.677 -0.2249 -0.7004  0.2061
   52MOL0     C 6933   0.192  -1.937   9.713  1.0530  0.1236  0.2238
   52MOL0     C 6934   0.304  -1.888   9.776 -0.7524 -0.2851 -0.2182
   52MOL0     N 6935   0.596  -1.272  10.248  0.0761 -0.6429 -0.0657
   52MOL0     N 6936   0.573  -1.146  10.258 -1.3886 -0.3596 -0.2574
   52MOL0     C 6937   0.512   0.167  10.301 -0.5318  0.5879 -0.5035
   52MOL0     C 6938   0.584   0.285  10.325 -0.2411 -0.3964 -0.0881
   52MOL0     C 6939   0.888   0.609  10.348 -0.0766 -0.3858  0.2577
   52MOL0     C 6940   0.923   0.636  10.480  0.3348 -0.4634  0.0152
   52MOL0     C 6941   0.955   0.763  10.516 -0.8738 -0.3038 -0.7196
   52MOL0     C 6942   0.975   0.869  10.425  0.8715 -0.3009  0.1029
   52MOL0     O 6943   1.020   0.998  10.456 -0.2516  0.6295  0.2452
   52MOL0     C 6944   1.075   1.090  10.363 -0.4128 -0.3054 -0.2379
   52MOL0     C 6945   1.072   1.227  10.439  0.4061  0.3579 -0.3944
   52MOL0     C 6946   1.143   1.337  10.357  0.0171  0.2037  0.0371
   52MOL0     C 6947   1.156   1.473  10.413 -0.8091 -0.8746 -0.0411
   52MOL0     C 6948   1.250   1.562  10.338 -0.4131 -0.0400 -0.2310
   52MOL0     C 6949   1.329   1.640  10.281  0.2126  0.2801 -0.3160
   52MOL0     C 6950   0.951   0.844  10.289  0.1840  0.6872 -0.9054
   52MOL0     C 6951   0.913   0.714  10.249 -0.4991 -0.0068  0.9225
   52MOL0     C 6952   0.884   0.681  10.113 -0.0629 -0.2790  1.1229
   52MOL0     H 6953   0.762   0.314  10.044 -1.1419  1.9928 -0.1982
   52MOL0     H 6954   0.628   0.094   9.987  2.8222  1.9402 -0.3811
   52MOL0     H 6955   0.511  -0.164  10.022  0.4334  2.3781  0.2036
   52MOL0     H 6956   0.621  -0.117  10.152 -0.2907  2.7187 -1.4653
   52MOL0     H 6957   0.339  -0.239  10.186  1.5129  0.7013 -4.9039
   52MOL0     H 6958   0.458  -0.241  10.307  1.2863  1.3857 -0.4467
   52MOL0     H 6959   0.607  -0.400  10.140 -0.4363 -0.2275 -1.9565
   52MOL0     H 6960   0.456  -0.391  10.048  0.2570  1.2906 -0.5905
   52MOL0     H 6961   0.437  -0.464  10.336  0.4602  2.6920 -0.4576
   52MOL0     H 6962   0.318  -0.486  10.214 -0.7321  0.6993 -1.5474
   52MOL0     H 6963   0.483  -0.664  10.092  2.9433 -0.9263 -0.1317
   52MOL0     H 6964   0.579  -0.629  10.238 -1.3052  2.1986  1.8911
   52MOL0     H 6965   0.411  -0.700  10.380  0.2708 -2.0904  0.3788
   52MOL0     H 6966   0.298  -0.722  10.249  1.0666  0.8012 -1.5014
   52MOL0     H 6967   0.550  -0.875  10.289  0.3964 -0.3170 -0.7820
   52MOL0     H 6968   0.461  -0.892  10.140  0.9449  0.9484 -0.8024
   52MOL0     H 6969   0.367  -0.961  10.423 -1.9545 -0.4858  0.0341
   52MOL0     H 6970   0.278  -0.989  10.265  0.1835 -0.8790 -1.3230
   52MOL0     H 6971   0.285  -1.270  10.322  0.8105 -1.5883  1.3089
   52MOL0     H 6972   0.567  -1.523  10.303 -0.2307 -1.0912  1.5152
   52MOL0     H 6973   0.389  -1.496  10.350  0.0301  1.6533  0.9433
   52MOL0     H 6974   0.345  -1.614  10.138  0.4198 -0.6135 -1.6123
   52MOL0     H 6975   0.352  -1.444  10.097 -0.9593 -0.8245  1.2922
   52MOL0     H 6976   0.590  -1.638  10.047 -0.5591 -1.5958  1.3904
   52MOL0     H 6977   0.586  -1.464  10.037 -1.6324  1.3456 -0.7105
   52MOL0     H 6978   0.552  -1.549   9.822  1.1637 -0.7039  2.3043
   52MOL0     H 6979   0.390  -1.509   9.850  0.8587  1.0486 -0.1541
   52MOL0     H 6980   0.217  -1.597   9.908  0.0012  1.0477 -2.7876
   52MOL0     H 6981  -0.002  -1.676   9.800  0.1144 -0.6594  0.2667
   52MOL0     H 6982  -0.111  -1.912   9.355 -1.1093  2.0031  3.2901
   52MOL0     H 6983  -0.287  -2.003   9.208 -0.3832 -0.9884 -1.0564
   52MOL0     H 6984  -0.545  -2.041   9.318  1.2409  0.1899 -0.0163
   52MOL0     H 6985  -0.592  -2.152   9.181  1.9247 -4.1368 -0.4669
   52MOL0     H 6986  -0.593  -2.174   9.483  0.1999  0.1375 -0.0007
   52MOL0     H 6987  -0.745  -2.162   9.383 -0.7029  0.0868  5.1374
   52MOL0     H 6988  -0.673  -2.379   9.271 -0.6294 -3.2607  1.4105
   52MOL0     H 6989  -0.555  -2.391   9.401 -1.5330 -1.3953  2.3518
   52MOL0     H 6990  -0.864  -2.388   9.405 -0.0297 -3.3782 -1.6594
   52MOL0     H 6991  -0.753  -2.382   9.546  4.2283  0.2129 -1.0527
   52MOL0     H 6992  -0.650  -2.603   9.471 -0.1786  0.1300  1.4860
   52MOL0     H 6993  -0.768  -2.614   9.340  1.7083  0.2455  0.2967
   52MOL0     H 6994  -0.961  -2.618   9.493 -1.0487 -0.4586 -0.4631
   52MOL0     H 6995  -0.858  -2.748   9.455 -0.8049  0.2009  0.4321
   52MOL0     H 6996  -0.855  -2.578   9.720 -2.2575 -1.0978  1.0857
   52MOL0     H 6997  -0.704  -2.646   9.679  0.6334  0.0124 -2.6052
   52MOL0     H 6998  -0.752  -2.859   9.681 -0.3099  0.5598 -1.3594
   52MOL0     H 6999  -0.800  -2.786   9.834 -0.0701 -2.8466 -0.0061
   52MOL0     H 7000  -0.385  -2.295   9.497 -0.7585  0.6444  3.4433
   52MOL0     H 7001  -0.185  -2.228   9.640  0.1256  0.0213 -1.7798
   52MOL0     H 7002   0.211  -2.032   9.665  3.5869  0.4372  0.4837
   52MOL0     H 7003   0.394  -1.949   9.771 -0.8734 -0.3512 -3.1752
   52MOL0     H 7004   0.448   0.138  10.384 -0.6006  1.1065 -0.3732
   52MOL0     H 7005   0.555   0.332  10.419  1.7831  2.1690 -0.6468
   52MOL0     H 7006   0.912   0.554  10.550  3.3773 -0.8938  0.1188
   52MOL0     H 7007   0.976   0.785  10.621  1.6814  1.5581 -1.5125
   52MOL0     H 7008   1.028   1.102  10.265  1.2932  0.9715 -0.9595
   52MOL0     H 7009   1.175   1.053  10.338 -1.2068 -1.0463 -2.5349
   52MOL0     H 7010   1.116   1.227  10.539 -2.2413 -0.7709  0.8866
   52MOL0     H 7011   0.967   1.257  10.442  0.8994  2.6529 -2.8810
   52MOL0     H 7012   1.107   1.332  10.254  1.2268 -2.4064 -0.3474
   52MOL0     H 7013   1.248   1.306  10.351  1.5411  4.8362 -4.3411
   52MOL0     H 7014   1.063   1.523  10.385  0.6420  0.8027 -2.2053
   52MOL0     H 7015   1.178   1.477  10.520  5.1423  1.6469 -0.9686
   52MOL0     H 7016   1.403   1.704  10.238 -0.1939  0.1546 -1.2285
   52MOL0     H 7017   0.957   0.923  10.214  0.0889  1.1041 -0.4769
   52MOL0     H 7018   0.927   0.582  10.093 -0.4187 -0.4190  1.0421
   52MOL0     H 7019   0.777   0.683  10.095  0.1919  1.3198 -0.5246
   52MOL0     H 7020   0.927   0.752  10.043  1.9362 -0.7520  1.7813
   53MOL0     O 7021   3.997   3.074   9.280  0.5380 -0.0845  0.4246
   53MOL0     C 7022   4.057   2.977   9.227  0.4654 -0.2910 -0.5739
   53MOL0     O 7023   4.142   2.998   9.130 -1.0155 -0.5177 -0.1691
   53MOL0     C 7024   4.166   3.126   9.080 -0.0588 -0.4730 -0.2972
   53MOL0     C 7025   4.291   3.192   9.097 -0.2260 -0.0443  1.2603
   53MOL0     C 7026   4.316   3.319   9.055  0.6296  1.3356 -0.2590
   53MOL0     C 7027   4.207   3.397   9.006  0.2166  0.7299 -0.2822
   53MOL0     O 7028   4.248   3.530   8.983  0.4590  0.1871  0.2402
   53MOL0     C 7029   4.160   3.639   8.998 -0.3423 -0.5713 -1.1768
   53MOL0     C 7030   4.245   3.769   8.976 -0.3033  0.8473  0.6823
   53MOL0     C 7031   4.190   3.891   9.046  0.2005  0.4378  0.6522
   53MOL0     C 7032   4.248   3.927   9.188 -0.4594 -0.0767  0.0428
   53MOL0     C 7033   4.204   4.060   9.253 -0.0302  0.0593  0.0972
   53MOL0     C 7034   4.286   4.088   9.381 -0.0382  0.2558 -0.1723
   53MOL0     C 7035   4.240   4.213   9.456  1.0038 -0.1983  0.3649
   53MOL0     C 7036   4.271   4.354   9.383  0.1174  0.7539 -0.3826
   53MOL0     N 7037   4.155   4.460   9.413 -1.1309  0.4889  0.5096
   53MOL0     C 7038   4.155   4.566   9.335  0.5511 -0.8565 -0.0030
   53MOL0     C 7039   4.074   4.656   9.404 -0.5929  0.3966 -0.5972
   53MOL0     C 7040   4.011   4.786   9.362  0.3823 -0.0620  0.4275
   53MOL0     C 7041   4.021   4.898   9.458  0.2902  0.6801  0.0681
   53MOL0     C 7042   4.166   4.965   9.442  0.5085  0.4272 -0.0147
   53MOL0     C 7043   4.212   4.974   9.590  0.4739  0.0609 -0.6264
   53MOL0     O 7044   4.287   5.083   9.624 -0.2763 -0.6004 -0.1503
   53MOL0     C 7045   4.418   5.072   9.652 -1.6892 -0.1258 -0.8850
   53MOL0     C 7046   4.473   5.158   9.748 -0.7595 -0.1543 -0.7188
   53MOL0     C 7047   4.615   5.134   9.775 -0.1901  0.6102 -1.0179
   53MOL0     C 7048   4.698   5.043   9.700  0.8045 -1.1083  0.5318
   53MOL0     C 7049   4.839   5.018   9.741  0.6250  0.2269  0.7681
   53MOL0     O 7050   4.919   4.945   9.658  0.8029  1.1134 -0.0703
   53MOL0     C 7051   5.054   4.918   9.682  0.6760 -1.2789 -0.0480
   53MOL0     C 7052   5.145   5.023   9.666  0.3132 -0.9251  0.4659
   53MOL0     C 7053   5.285   4.991   9.680  0.4921  0.9416 -1.4488
   53MOL0     C 7054   5.339   4.864   9.699 -0.8535  0.6468  0.7805
   53MOL0     O 7055   5.474   4.830   9.686  0.0722 -0.1529  1.1721
   53MOL0     C 7056   5.567   4.938   9.707 -0.4860 -0.9164 -0.0062
   53MOL0     C 7057   5.601   5.021   9.569  0.2677  0.2119 -0.7832
   53MOL0     C 7058   5.658   4.953   9.456 -0.2731 -0.6426 -0.0976
   53MOL0     C 7059   5.574   4.840   9.409 -0.5490  0.7821 -0.2805
   53MOL0     C 7060   5.615   4.783   9.262  0.1821  0.6020 -0.0295
   53MOL0     C 7061   5.530   4.652   9.228 -0.1735  0.8853 -0.0505
   53MOL0     C 7062   5.382   4.657   9.231  0.9041  0.2125  0.3778
   53MOL0     C 7063   5.319   4.771   9.154 -0.3371  0.7877  0.3506
   53MOL0    Cl 7064   5.143   4.759   9.176 -0.1421  0.0620  0.3588
   53MOL0     C 7065   5.252   4.764   9.712  0.2723  0.4055 -0.7588
   53MOL0     C 7066   5.108   4.784   9.695  0.4605 -0.5505  0.5983
   53MOL0     O 7067   4.880   5.059   9.848  0.2194  1.3440 -0.1082
   53MOL0     C 7068   4.640   4.977   9.599  0.1488 -0.8004  0.1154
   53MOL0     C 7069   4.503   4.992   9.573 -1.2034 -0.7221  0.4471
   53MOL0     N 7070   4.044   4.596   9.528  0.6396 -0.0219 -0.0110
   53MOL0     N 7071   4.099   4.481   9.532  0.4564 -1.1468 -0.4298
   53MOL0     C 7072   4.082   3.337   8.989  0.4670 -0.2911 -0.1864
   53MOL0     C 7073   4.063   3.202   9.019  0.1122  0.2247 -0.4095
   53MOL0     C 7074   4.046   2.836   9.282 -0.1882  0.4720  0.5262
   53MOL0     C 7075   3.986   2.822   9.406 -0.3021 -0.5370 -0.3726
   53MOL0     C 7076   3.974   2.705   9.471  0.9499 -0.1592 -0.3434
   53MOL0     C 7077   4.014   2.585   9.409  0.0673  0.7684 -0.1720
   53MOL0     O 7078   3.999   2.462   9.459  0.4047 -0.3775 -0.0289
   53MOL0     C 7079   3.937   2.454   9.586  0.0474  0.4195  0.3607
   53MOL0     C 7080   3.778   2.450   9.568  0.0389 -0.8419  0.1438
   53MOL0     C 7081   3.688   2.332   9.618  0.6858 -0.2487  0.0803
   53MOL0     C 7082   3.556   2.321   9.542  0.3546  0.2330  0.9629
   53MOL0     C 7083   3.473   2.431   9.590  0.6073 -0.5842  0.6233
   53MOL0     C 7084   3.410   2.525   9.632 -0.5998  0.3068  0.6068
   53MOL0     C 7085   4.076   2.604   9.285  0.1664  0.2049 -0.4734
   53MOL0     C 7086   4.096   2.727   9.214 -1.0387  0.8199  0.1407
   53MOL0     C 7087   4.162   2.722   9.078  0.4681  0.5409  0.0929
   53MOL0     H 7088   4.380   3.140   9.128  0.1041 -2.4517 -2.8718
   53MOL0     H 7089   4.419   3.352   9.055  0.6770  1.2057  0.6086
   53MOL0     H 7090   4.082   3.634   8.922  0.3326  1.0243 -2.0047
   53MOL0     H 7091   4.134   3.641   9.104  2.4286 -0.8386 -0.4126
   53MOL0     H 7092   4.235   3.782   8.867 -1.1819 -1.5735  0.4334
   53MOL0     H 7093   4.344   3.732   9.006 -0.2746  1.7103  1.7124
   53MOL0     H 7094   4.085   3.865   9.065  0.8417 -0.5532  3.3449
   53MOL0     H 7095   4.197   3.978   8.980  1.5674  0.5137  0.8771
   53MOL0     H 7096   4.252   3.840   9.255 -0.7452 -0.3135 -0.2452
   53MOL0     H 7097   4.353   3.947   9.166 -1.3072  5.3854 -0.4519
   53MOL0     H 7098   4.209   4.144   9.183  0.1451  1.5168  1.8108
   53MOL0     H 7099   4.101   4.035   9.281 -0.5022  1.1961 -0.5484
   53MOL0     H 7100   4.293   4.001   9.448  0.8010 -0.4320 -1.1264
   53MOL0     H 7101   4.393   4.099   9.363 -0.5210  2.6476 -2.0337
   53MOL0     H 7102   4.280   4.208   9.558  1.4050 -0.8169  0.1803
   53MOL0     H 7103   4.132   4.193   9.461  0.9134 -1.5637 -3.6638
   53MOL0     H 7104   4.368   4.390   9.419  0.1897 -0.5837  0.8856
   53MOL0     H 7105   4.288   4.338   9.276  1.4545 -0.4857 -0.0246
   53MOL0     H 7106   4.187   4.570   9.231 -1.2207 -0.2885 -0.5769
   53MOL0     H 7107   4.054   4.817   9.267  2.0758 -0.2123  1.1085
   53MOL0     H 7108   3.905   4.770   9.340 -0.1322 -1.4308  3.3416
   53MOL0     H 7109   3.941   4.972   9.447  1.8183  2.3240 -0.3037
   53MOL0     H 7110   4.008   4.863   9.561  1.1014 -1.8153 -0.6025
   53MOL0     H 7111   4.172   5.063   9.393 -1.8978  2.3335  3.0969
   53MOL0     H 7112   4.230   4.903   9.378 -0.2124  1.4399 -1.7775
   53MOL0     H 7113   4.262   4.884   9.627 -0.4282  0.1185  0.7940
   53MOL0     H 7114   4.129   4.972   9.662  1.2713 -0.8526  0.2980
   53MOL0     H 7115   4.408   5.231   9.795  0.4955  0.7386 -0.3219
   53MOL0     H 7116   4.659   5.195   9.854 -1.0096 -2.9424  2.5104
   53MOL0     H 7117   5.132   5.127   9.637  1.5452  0.4975  4.4635
   53MOL0     H 7118   5.348   5.078   9.662  3.3121 -0.2975  1.3618
   53MOL0     H 7119   5.520   5.006   9.779  2.7072  1.5205  0.0004
   53MOL0     H 7120   5.664   4.906   9.748  0.2445 -0.1108 -1.0611
   53MOL0     H 7121   5.510   5.068   9.530  0.6236 -0.4133 -2.4305
   53MOL0     H 7122   5.665   5.107   9.591 -1.0231  0.4076  3.1289
   53MOL0     H 7123   5.688   5.021   9.376  0.4045  0.0781  0.7493
   53MOL0     H 7124   5.751   4.910   9.494 -0.3312 -0.8323 -0.1666
   53MOL0     H 7125   5.470   4.872   9.398 -1.2032 -0.8378  0.7721
   53MOL0     H 7126   5.584   4.765   9.488 -0.4151  0.8244 -0.2568
   53MOL0     H 7127   5.724   4.780   9.266  0.1359 -0.3206  2.3660
   53MOL0     H 7128   5.581   4.849   9.182 -1.9279  0.5008  0.7121
   53MOL0     H 7129   5.553   4.618   9.127 -0.8979 -2.5731  0.8214
   53MOL0     H 7130   5.560   4.574   9.299  3.3478 -0.0337 -2.2954
   53MOL0     H 7131   5.349   4.678   9.334  1.4266 -0.6201  0.7238
   53MOL0     H 7132   5.332   4.567   9.194  2.0037 -0.4664  0.4875
   53MOL0     H 7133   5.361   4.867   9.185 -0.9916  1.6442 -1.3286
   53MOL0     H 7134   5.350   4.761   9.050  4.0919  2.6846  1.2467
   53MOL0     H 7135   5.291   4.664   9.726 -0.6558  0.5252  4.8104
   53MOL0     H 7136   5.056   4.689   9.694 -0.3768 -0.2659  4.1450
   53MOL0     H 7137   4.705   4.906   9.550 -0.4306 -1.5218  0.3731
   53MOL0     H 7138   4.456   4.941   9.490 -0.4855  0.7816 -0.9387
   53MOL0     H 7139   4.004   3.395   8.941 -0.0586  1.1384  2.2305
   53MOL0     H 7140   3.964   3.158   9.012  0.9939 -1.5707 -3.1332
   53MOL0     H 7141   3.970   2.920   9.452  3.1879  0.0285 -0.0588
   53MOL0     H 7142   3.933   2.710   9.571 -0.6867 -2.0600 -0.8667
   53MOL0     H 7143   3.982   2.523   9.657  1.7957  0.9455 -1.1858
   53MOL0     H 7144   3.982   2.358   9.611  2.3399  0.0546 -4.1947
   53MOL0     H 7145   3.769   2.443   9.459 -1.1100 -2.9697  0.3040
   53MOL0     H 7146   3.730   2.540   9.606  0.2777 -0.2665 -0.8859
   53MOL0     H 7147   3.657   2.342   9.723 -1.8565 -3.9083 -0.1371
   53MOL0     H 7148   3.747   2.241   9.611  0.3467 -0.3454 -1.9419
   53MOL0     H 7149   3.559   2.315   9.433 -1.8222 -1.0057  0.9090
   53MOL0     H 7150   3.517   2.229   9.588  4.4188 -0.5222  3.3699
   53MOL0     H 7151   3.371   2.610   9.685  1.4974  3.1611 -1.9857
   53MOL0     H 7152   4.107   2.511   9.238  1.0363 -1.2942  2.7454
   53MOL0     H 7153   4.260   2.771   9.071 -0.9615  3.3848 -2.6336
   53MOL0     H 7154   4.184   2.620   9.044 -4.2808 -1.8868  3.1274
   53MOL0     H 7155   4.088   2.768   9.011 -2.1857 -0.8182  1.9003
   54MOL0     O 7156   9.346   0.617   0.199  0.0730  0.0822 -0.1674
   54MOL0     C 7157   9.462   0.650   0.218 -0.6856 -0.1001  0.5880
   54MOL0     O 7158   9.549   0.664   0.115  0.9317 -0.4042 -0.1453
   54MOL0     C 7159   9.485   0.677  -0.004  0.8707 -0.3195  0.5494
   54MOL0     C 7160   9.396   0.772  -0.039  0.3117  0.1678 -0.0389
   54MOL0     C 7161   9.354   0.783  -0.175 -0.4958 -0.8289 -0.0813
   54MOL0     C 7162   9.402   0.695  -0.276  1.5976  0.3692  0.4918
   54MOL0     O 7163   9.343   0.699  -0.409  0.2033 -0.5169 -0.6168
   54MOL0     C 7164   9.366   0.830  -0.470 -0.4395  0.3699  0.1890
   54MOL0     C 7165   9.255   0.873  -0.572 -0.7063 -0.3028  0.5451
   54MOL0     C 7166   9.300   0.837  -0.712  0.2830 -0.3793  0.3140
   54MOL0     C 7167   9.190   0.851  -0.823 -0.5230 -0.5229 -0.7049
   54MOL0     C 7168   9.238   0.813  -0.959 -0.2641  0.2121 -1.0528
   54MOL0     C 7169   9.136   0.830  -1.066 -0.6381  0.1539  0.8333
   54MOL0     C 7170   9.087   0.979  -1.070 -0.3007 -0.1509 -0.3895
   54MOL0     C 7171   9.041   1.023  -1.212 -0.2281 -0.4302 -0.1544
   54MOL0     N 7172   8.903   0.984  -1.248  0.0132 -0.6468 -0.3768
   54MOL0     C 7173   8.791   1.026  -1.179  0.3187 -0.0500 -0.6145
   54MOL0     C 7174   8.686   0.981  -1.253  0.2848 -0.1641 -0.1790
   54MOL0     C 7175   8.538   1.028  -1.249  0.9346  0.6620  0.0090
   54MOL0     C 7176   8.437   0.930  -1.308 -0.2583  0.1373 -1.1735
   54MOL0     C 7177   8.297   0.993  -1.326 -0.3905  0.6452  0.1878
   54MOL0     C 7178   8.223   1.011  -1.190  0.2653  0.5255  0.2564
   54MOL0     O 7179   8.235   0.893  -1.113  0.2225  0.3442  0.0090
   54MOL0     C 7180   8.143   0.857  -1.027  0.1414 -0.3032 -1.0967
   54MOL0     C 7181   8.062   0.743  -1.049  0.1383  1.0669  0.4191
   54MOL0     C 7182   7.969   0.703  -0.954 -0.6145  0.2320 -0.6000
   54MOL0     C 7183   7.952   0.781  -0.837 -0.9865  0.5418  0.3355
   54MOL0     C 7184   7.860   0.743  -0.727  0.4509  0.3405 -0.5210
   54MOL0     O 7185   7.744   0.689  -0.770  0.2050 -0.2450 -0.3849
   54MOL0     C 7186   7.648   0.673  -0.672 -0.1597 -0.5773  0.3117
   54MOL0     C 7187   7.647   0.549  -0.592  0.1851  0.8862 -0.2334
   54MOL0     C 7188   7.555   0.529  -0.490  0.0270  0.1443  0.3378
   54MOL0     C 7189   7.449   0.627  -0.474 -0.0451 -0.3074 -0.4517
   54MOL0     O 7190   7.337   0.606  -0.394  1.0959  0.1740  0.5902
   54MOL0     C 7191   7.359   0.651  -0.262  0.0330  0.2728 -0.8593
   54MOL0     C 7192   7.296   0.774  -0.220  0.7884  0.0178  0.7800
   54MOL0     C 7193   7.312   0.798  -0.064 -0.0140 -0.1392  0.7001
   54MOL0     C 7194   7.222   0.703   0.021 -0.1403 -0.1049 -1.4037
   54MOL0     C 7195   7.189   0.762   0.159  0.3581 -0.1726  0.2620
   54MOL0     C 7196   7.113   0.658   0.248 -0.8878  0.2720  0.0735
   54MOL0     C 7197   7.004   0.708   0.338 -0.2526  0.7111  0.7231
   54MOL0     C 7198   6.921   0.588   0.376 -0.6891 -0.0240  0.4501
   54MOL0    Cl 7199   6.802   0.629   0.511 -0.6482 -0.3536  0.1859
   54MOL0     C 7200   7.458   0.745  -0.539 -0.3697  0.0289 -0.0252
   54MOL0     C 7201   7.552   0.772  -0.637 -0.9148 -0.1855  0.6253
   54MOL0     O 7202   7.886   0.771  -0.611 -0.6660 -0.3219 -0.1320
   54MOL0     C 7203   8.028   0.900  -0.816  0.6449  0.3362 -0.1095
   54MOL0     C 7204   8.126   0.934  -0.915  0.0086 -0.1380 -0.3664
   54MOL0     N 7205   8.734   0.896  -1.347 -0.5905 -0.3588  0.0046
   54MOL0     N 7206   8.863   0.906  -1.356 -0.6919 -0.1009  0.5543
   54MOL0     C 7207   9.495   0.606  -0.237 -0.2902 -0.6679  0.3622
   54MOL0     C 7208   9.536   0.590  -0.099 -0.0559  0.3379 -0.3780
   54MOL0     C 7209   9.523   0.680   0.349 -0.0436 -0.0408 -0.0403
   54MOL0     C 7210   9.661   0.725   0.357  0.5350 -0.4421 -1.0228
   54MOL0     C 7211   9.722   0.742   0.480  0.5456  0.2139  0.3558
   54MOL0     C 7212   9.662   0.697   0.593  0.3289 -1.6865  0.1353
   54MOL0     O 7213   9.714   0.717   0.719 -0.0203 -0.2179  1.2019
   54MOL0     C 7214   9.836   0.798   0.738 -0.1431 -0.4566  0.1518
   54MOL0     C 7215   9.806   0.948   0.722  0.0052 -0.3947 -0.4677
   54MOL0     C 7216   9.931   1.033   0.714 -0.3461 -0.1816 -0.7452
   54MOL0     C 7217   9.902   1.187   0.714 -1.0848  0.5209  0.2326
   54MOL0     C 7218   9.983   1.261   0.611  0.8387 -0.5505 -0.6066
   54MOL0     C 7219  10.047   1.321   0.532  0.9522  0.0187  0.1457
   54MOL0     C 7220   9.532   0.639   0.585 -0.3808  0.3016 -0.5952
   54MOL0     C 7221   9.459   0.638   0.463  0.2550 -0.0294  0.0296
   54MOL0     C 7222   9.309   0.604   0.484 -0.9074  0.0647 -0.0937
   54MOL0     H 7223   9.362   0.856   0.020  3.0938  0.2662  1.6091
   54MOL0     H 7224   9.276   0.855  -0.196  1.3718  1.1328 -0.7366
   54MOL0     H 7225   9.377   0.904  -0.391  2.3527 -1.1638  1.3856
   54MOL0     H 7226   9.464   0.841  -0.517 -0.4819  2.6145  0.5088
   54MOL0     H 7227   9.259   0.982  -0.575  2.1093 -0.3476 -1.8241
   54MOL0     H 7228   9.154   0.850  -0.538 -1.7972  1.5838 -1.2248
   54MOL0     H 7229   9.316   0.729  -0.718 -2.0777 -0.7661 -0.0832
   54MOL0     H 7230   9.394   0.890  -0.728 -0.1142 -0.2071 -1.7065
   54MOL0     H 7231   9.101   0.796  -0.790 -0.7684  0.7775  0.9477
   54MOL0     H 7232   9.165   0.958  -0.828  1.1462  0.0811  1.9894
   54MOL0     H 7233   9.334   0.864  -0.973  0.5232 -0.7239  0.6723
   54MOL0     H 7234   9.264   0.706  -0.956  0.2146  0.3442  2.2234
   54MOL0     H 7235   9.176   0.811  -1.166 -1.2805 -1.3633  0.8384
   54MOL0     H 7236   9.057   0.756  -1.051  0.0301 -1.2126 -1.7683
   54MOL0     H 7237   9.171   1.047  -1.053  1.5328 -1.4542 -3.4862
   54MOL0     H 7238   9.017   0.992  -0.986 -1.7432 -1.7171 -1.2829
   54MOL0     H 7239   9.028   1.130  -1.192 -1.9248 -0.9406  1.9059
   54MOL0     H 7240   9.114   1.000  -1.290 -0.0558 -0.1409 -0.0792
   54MOL0     H 7241   8.788   1.091  -1.092 -3.0178  2.7168 -2.5935
   54MOL0     H 7242   8.510   1.044  -1.145  2.9834 -0.4540  0.7681
   54MOL0     H 7243   8.537   1.118  -1.312 -2.3668  1.7772  1.4120
   54MOL0     H 7244   8.477   0.902  -1.406 -1.2314 -1.5505 -1.1304
   54MOL0     H 7245   8.441   0.828  -1.269  1.9270  0.5920 -0.1002
   54MOL0     H 7246   8.246   0.914  -1.381 -0.4194 -0.4770  1.7862
   54MOL0     H 7247   8.296   1.079  -1.395 -0.4779  1.0526  0.6878
   54MOL0     H 7248   8.117   1.019  -1.219  0.4618 -3.8920 -2.8543
   54MOL0     H 7249   8.260   1.101  -1.141 -0.7758 -0.1310  2.3989
   54MOL0     H 7250   8.077   0.694  -1.145  0.3916  0.7518  0.6198
   54MOL0     H 7251   7.922   0.605  -0.956  1.0614 -0.8390  3.0730
   54MOL0     H 7252   7.721   0.479  -0.627  0.9145  1.0967  0.8721
   54MOL0     H 7253   7.557   0.437  -0.433 -4.6815 -0.7544 -0.4662
   54MOL0     H 7254   7.329   0.563  -0.204  1.8813 -0.7823 -1.3984
   54MOL0     H 7255   7.466   0.662  -0.244  0.0886  1.2211 -1.7004
   54MOL0     H 7256   7.345   0.857  -0.272  1.2959 -0.4784  0.4483
   54MOL0     H 7257   7.191   0.777  -0.250  0.1616  2.3639  2.8910
   54MOL0     H 7258   7.415   0.773  -0.035  0.4940 -1.4018 -1.8687
   54MOL0     H 7259   7.290   0.903  -0.043  0.6139  0.6564 -2.1853
   54MOL0     H 7260   7.267   0.605   0.039 -0.5205  0.3611  3.2184
   54MOL0     H 7261   7.136   0.706  -0.046  0.1874 -0.8606 -1.8642
   54MOL0     H 7262   7.138   0.859   0.157  2.3165  0.9498  1.1998
   54MOL0     H 7263   7.283   0.790   0.206 -0.7037 -0.5347  2.7614
   54MOL0     H 7264   7.063   0.589   0.179 -0.8301 -1.0602  1.3243
   54MOL0     H 7265   7.195   0.615   0.305 -0.7138  0.3131 -0.1426
   54MOL0     H 7266   6.963   0.796   0.289  2.9765  2.3742  0.7461
   54MOL0     H 7267   7.038   0.747   0.434  1.0015 -0.2599  0.7122
   54MOL0     H 7268   6.855   0.554   0.296 -1.1413  1.6481  0.0723
   54MOL0     H 7269   6.974   0.501   0.415  0.2335 -0.1673 -1.0393
   54MOL0     H 7270   7.384   0.821  -0.515  1.8097  1.3436  3.2457
   54MOL0     H 7271   7.545   0.859  -0.701 -2.3761 -0.1095  0.8341
   54MOL0     H 7272   8.012   0.953  -0.722 -0.6534 -2.9167  1.6876
   54MOL0     H 7273   8.191   1.021  -0.908 -0.5067  0.2826 -0.7642
   54MOL0     H 7274   9.538   0.526  -0.297  1.3072 -0.1422  0.7570
   54MOL0     H 7275   9.601   0.507  -0.073 -0.9724 -0.9839 -2.0961
   54MOL0     H 7276   9.718   0.738   0.265 -2.0370 -1.3873 -2.8543
   54MOL0     H 7277   9.820   0.785   0.467  0.8358  0.1463  2.1165
   54MOL0     H 7278   9.923   0.777   0.676  0.1328 -0.4269  0.5249
   54MOL0     H 7279   9.860   0.769   0.841  1.7073 -0.5043 -0.2610
   54MOL0     H 7280   9.734   0.968   0.802  0.1070 -0.6814 -0.2997
   54MOL0     H 7281   9.760   0.969   0.625 -1.6316 -0.2343  0.3099
   54MOL0     H 7282   9.989   1.008   0.624 -0.7782 -1.9845 -0.5592
   54MOL0     H 7283   9.998   1.024   0.800 -1.1383  0.8950  0.0086
   54MOL0     H 7284   9.795   1.207   0.706 -0.7886  2.3323  0.1568
   54MOL0     H 7285   9.933   1.238   0.806 -2.7790  1.1916  0.4712
   54MOL0     H 7286  10.097   1.385   0.462  1.1042 -0.5154 -0.2413
   54MOL0     H 7287   9.495   0.606   0.682 -0.9207 -1.2588 -1.3069
   54MOL0     H 7288   9.257   0.667   0.411  1.7607  0.0807 -2.1543
   54MOL0     H 7289   9.279   0.501   0.463 -0.2742 -0.3728  1.0616
   54MOL0     H 7290   9.270   0.633   0.581  1.8932  1.8176  0.6350
   55MOL0     O 7291   2.531   6.817   5.773  0.2389  0.1837 -0.3502
   55MOL0     C 7292   2.504   6.745   5.868  0.0461 -0.1732  0.3628
   55MOL0     O 7293   2.505   6.788   5.995 -0.6965  0.1910 -0.9554
   55MOL0     C 7294   2.556   6.917   6.014 -0.4105  0.4832 -0.0148
   55MOL0     C 7295   2.700   6.936   6.022  0.5138 -0.5558  0.6424
   55MOL0     C 7296   2.752   7.062   6.035 -0.5081 -0.9707 -0.1569
   55MOL0     C 7297   2.662   7.177   6.032  0.2439 -0.1772 -0.1863
   55MOL0     O 7298   2.712   7.308   6.050 -0.1828 -0.0472 -0.7383
   55MOL0     C 7299   2.728   7.336   6.197  0.5637 -0.5691  0.5377
   55MOL0     C 7300   2.824   7.454   6.213  0.1670 -0.7519  0.1451
   55MOL0     C 7301   2.864   7.499   6.339 -0.4031 -0.3704  0.3043
   55MOL0     C 7302   2.751   7.580   6.400  0.2618 -0.3973 -0.4941
   55MOL0     C 7303   2.778   7.642   6.538  0.2803  0.0899  0.3159
   55MOL0     C 7304   2.804   7.537   6.642 -0.5533  0.0755  1.0368
   55MOL0     C 7305   2.825   7.598   6.772  0.3657  0.5565 -0.9399
   55MOL0     C 7306   2.869   7.492   6.882  0.2799  0.0024 -0.1675
   55MOL0     N 7307   2.894   7.558   7.007 -1.1290 -0.6570  0.3939
   55MOL0     C 7308   2.809   7.555   7.112  0.5864 -0.9666  0.0414
   55MOL0     C 7309   2.870   7.615   7.218  0.9373 -0.0184  0.8943
   55MOL0     C 7310   2.829   7.614   7.359 -0.8477 -0.2245  0.2324
   55MOL0     C 7311   2.691   7.661   7.384 -0.1564 -0.4943 -0.7411
   55MOL0     C 7312   2.679   7.710   7.526  0.1062 -0.6145  0.3346
   55MOL0     C 7313   2.532   7.725   7.567 -0.3420  0.6307  0.0174
   55MOL0     O 7314   2.512   7.738   7.709 -0.1156  0.1419  0.3947
   55MOL0     C 7315   2.397   7.813   7.742  0.4344  0.5487  0.6581
   55MOL0     C 7316   2.403   7.869   7.866  0.8446 -0.1149 -0.1599
   55MOL0     C 7317   2.301   7.951   7.916 -0.3442 -0.6135  0.2167
   55MOL0     C 7318   2.180   7.976   7.841 -0.4166  0.6430  0.6357
   55MOL0     C 7319   2.066   8.056   7.887 -0.6794 -0.1642  0.9773
   55MOL0     O 7320   1.955   8.069   7.802 -0.8628 -0.0558  0.0923
   55MOL0     C 7321   1.862   8.161   7.839 -0.6021  0.6215  0.1009
   55MOL0     C 7322   1.889   8.290   7.873  0.2367  0.2051 -0.3909
   55MOL0     C 7323   1.784   8.377   7.883 -0.4365 -0.9839 -0.3165
   55MOL0     C 7324   1.651   8.335   7.872  0.5716  0.4832  1.1061
   55MOL0     O 7325   1.544   8.421   7.871 -0.3525  0.1378  0.8382
   55MOL0     C 7326   1.547   8.521   7.775  0.0538 -0.4782  0.0667
   55MOL0     C 7327   1.411   8.598   7.771 -0.4174  0.6769 -1.4305
   55MOL0     C 7328   1.419   8.721   7.677  0.3028 -0.4413  0.0405
   55MOL0     C 7329   1.375   8.701   7.529  0.1174 -0.5889  0.5421
   55MOL0     C 7330   1.364   8.828   7.446 -1.3027 -0.8513  0.1191
   55MOL0     C 7331   1.299   8.790   7.312  0.6083 -0.8885 -0.4050
   55MOL0     C 7332   1.280   8.917   7.233 -0.3398  0.5393 -0.1482
   55MOL0     C 7333   1.151   8.929   7.156 -0.7001  1.0779  0.2721
   55MOL0    Cl 7334   1.003   8.954   7.255  0.1453  0.3915  0.2915
   55MOL0     C 7335   1.624   8.203   7.836 -0.3664  1.0057  0.2796
   55MOL0     C 7336   1.728   8.110   7.832 -0.0471  0.3384 -0.9292
   55MOL0     O 7337   2.090   8.119   7.988  0.4346  0.6104  0.6017
   55MOL0     C 7338   2.181   7.918   7.711  0.3833 -0.1415  0.7056
   55MOL0     C 7339   2.285   7.840   7.667  0.1017  0.1809  0.5395
   55MOL0     N 7340   2.990   7.646   7.169 -0.3122  0.0311 -0.0272
   55MOL0     N 7341   3.010   7.614   7.044  0.3359  0.8315  0.7518
   55MOL0     C 7342   2.523   7.156   6.017  0.2676 -0.7174 -0.6982
   55MOL0     C 7343   2.475   7.026   6.004 -0.3288 -0.2239 -0.1243
   55MOL0     C 7344   2.436   6.611   5.838 -0.6796 -0.7125 -0.7968
   55MOL0     C 7345   2.364   6.550   5.950 -0.1891 -0.3026  1.0055
   55MOL0     C 7346   2.297   6.432   5.938 -1.3147  0.9816 -0.0782
   55MOL0     C 7347   2.290   6.368   5.812  0.5163  0.3925 -0.0265
   55MOL0     O 7348   2.243   6.237   5.799 -0.6606  0.2651  0.0678
   55MOL0     C 7349   2.194   6.161   5.909 -0.5689 -0.0754 -1.4298
   55MOL0     C 7350   2.098   6.061   5.855  0.7083  0.2284  0.3615
   55MOL0     C 7351   2.137   5.945   5.778 -0.6390  0.6563 -0.2322
   55MOL0     C 7352   2.017   5.862   5.735 -0.7288 -0.2800  0.0372
   55MOL0     C 7353   1.957   5.933   5.623 -0.3548 -0.5784  0.0367
   55MOL0     C 7354   1.916   5.973   5.516  0.1732 -0.1142  0.2220
   55MOL0     C 7355   2.337   6.441   5.713 -0.4025  1.6978 -0.4059
   55MOL0     C 7356   2.423   6.548   5.714  1.5688 -0.5295 -1.0096
   55MOL0     C 7357   2.502   6.581   5.592 -0.0389 -0.0140 -0.0715
   55MOL0     H 7358   2.764   6.849   6.013 -1.0396 -1.6783 -0.0510
   55MOL0     H 7359   2.859   7.077   6.042 -0.7330  0.1592  1.5585
   55MOL0     H 7360   2.631   7.364   6.239  1.3956  1.2863  1.3417
   55MOL0     H 7361   2.767   7.254   6.258  2.1546  0.4869  1.0264
   55MOL0     H 7362   2.779   7.544   6.171  0.4854  0.7823  2.8753
   55MOL0     H 7363   2.919   7.421   6.168  1.3512  0.8374  1.3662
   55MOL0     H 7364   2.957   7.556   6.345  0.3265 -1.5181  0.2327
   55MOL0     H 7365   2.893   7.411   6.398 -0.9298  0.1378  1.3698
   55MOL0     H 7366   2.742   7.674   6.345  0.9709 -0.2569 -0.3873
   55MOL0     H 7367   2.655   7.530   6.386 -2.0451  3.0347  1.5466
   55MOL0     H 7368   2.856   7.719   6.534 -0.0650  0.4562 -4.5441
   55MOL0     H 7369   2.684   7.694   6.558 -3.1614 -4.5302 -2.0259
   55MOL0     H 7370   2.729   7.457   6.647  1.1249 -1.6471  0.2374
   55MOL0     H 7371   2.897   7.488   6.611 -0.7395  1.3843 -1.8734
   55MOL0     H 7372   2.728   7.637   6.804  0.1519 -0.7926  0.1336
   55MOL0     H 7373   2.892   7.684   6.763  1.1142 -0.0339 -1.1369
   55MOL0     H 7374   2.793   7.415   6.896 -0.3194  0.6212 -0.0179
   55MOL0     H 7375   2.963   7.447   6.848 -0.2490 -2.5159  1.4126
   55MOL0     H 7376   2.716   7.499   7.115  0.8936 -1.4572  0.5442
   55MOL0     H 7377   2.843   7.513   7.398  0.3478  0.7507  2.5022
   55MOL0     H 7378   2.904   7.669   7.417  0.7901 -2.8138  0.7224
   55MOL0     H 7379   2.684   7.749   7.319  1.6195  0.2622  0.0130
   55MOL0     H 7380   2.618   7.584   7.357 -0.3837 -1.5140  2.3176
   55MOL0     H 7381   2.725   7.809   7.539  0.6073 -0.6557 -1.0373
   55MOL0     H 7382   2.728   7.641   7.595  0.8841  0.4543  0.8977
   55MOL0     H 7383   2.468   7.640   7.542  1.4564 -0.2107 -2.0316
   55MOL0     H 7384   2.495   7.816   7.519 -0.3071  1.0409  0.7582
   55MOL0     H 7385   2.488   7.840   7.927  0.1014 -0.1389  0.8907
   55MOL0     H 7386   2.329   7.997   8.011  0.2726  0.6445 -0.5434
   55MOL0     H 7387   1.995   8.312   7.865 -0.4160  3.8967 -0.3722
   55MOL0     H 7388   1.804   8.481   7.906 -0.6912 -1.1242  0.6209
   55MOL0     H 7389   1.630   8.588   7.802  1.0382 -0.8944 -1.8042
   55MOL0     H 7390   1.572   8.470   7.682 -0.2575 -0.3797 -0.0693
   55MOL0     H 7391   1.331   8.528   7.747 -0.5999  1.5892 -3.7847
   55MOL0     H 7392   1.385   8.628   7.873 -0.9911 -1.7045 -0.8307
   55MOL0     H 7393   1.375   8.812   7.719  0.2307 -0.4016 -0.1191
   55MOL0     H 7394   1.525   8.748   7.682  0.5961 -1.4298 -0.4985
   55MOL0     H 7395   1.281   8.646   7.538 -0.4034  0.3240  0.8481
   55MOL0     H 7396   1.449   8.640   7.477 -0.0294  0.5759 -1.1124
   55MOL0     H 7397   1.466   8.858   7.419 -1.6982 -0.4118 -0.8933
   55MOL0     H 7398   1.300   8.901   7.496  0.4073 -1.6605  3.8941
   55MOL0     H 7399   1.363   8.719   7.259  2.7833 -1.3375  2.5438
   55MOL0     H 7400   1.202   8.753   7.347  0.9292 -1.0639  0.3226
   55MOL0     H 7401   1.368   8.904   7.168  2.0708  1.6313  2.6599
   55MOL0     H 7402   1.295   9.001   7.301  0.4379  1.1889 -1.0870
   55MOL0     H 7403   1.162   9.014   7.089  2.6203  0.3616 -0.2694
   55MOL0     H 7404   1.128   8.840   7.096 -0.0347  1.2019 -0.1806
   55MOL0     H 7405   1.521   8.172   7.822  0.2204  0.2162 -3.1060
   55MOL0     H 7406   1.701   8.011   7.796 -1.7536  0.7928 -1.0218
   55MOL0     H 7407   2.103   7.945   7.641  0.0737  1.0541  1.4813
   55MOL0     H 7408   2.268   7.807   7.565  0.6924  0.0171  0.4930
   55MOL0     H 7409   2.462   7.245   6.022 -1.1720 -1.3653 -3.8582
   55MOL0     H 7410   2.369   7.006   5.993 -0.0201 -2.8883  1.2029
   55MOL0     H 7411   2.365   6.600   6.046 -2.2031  1.4509  0.2087
   55MOL0     H 7412   2.244   6.406   6.030 -1.2377 -0.4985 -0.4266
   55MOL0     H 7413   2.130   6.227   5.968 -1.6897  0.4358 -3.1248
   55MOL0     H 7414   2.277   6.120   5.967  0.3116  2.0048 -1.1235
   55MOL0     H 7415   2.015   6.107   5.801  0.6243 -1.0552 -0.6287
   55MOL0     H 7416   2.059   6.013   5.946 -0.3238 -1.3970 -0.8937
   55MOL0     H 7417   2.192   5.876   5.843 -2.7049 -1.9246 -1.0505
   55MOL0     H 7418   2.212   5.976   5.704  1.3861  0.6231  1.7030
   55MOL0     H 7419   2.049   5.764   5.698  0.3275  0.0387  0.0578
   55MOL0     H 7420   1.951   5.843   5.820 -1.6735 -2.1395 -1.0643
   55MOL0     H 7421   1.874   5.995   5.421  2.5447 -0.9962 -1.1241
   55MOL0     H 7422   2.330   6.389   5.618  2.4410  0.1806  0.0924
   55MOL0     H 7423   2.439   6.619   5.511  0.7900  1.3853 -0.0858
   55MOL0     H 7424   2.582   6.653   5.614  2.4589 -2.0473 -1.8282
   55MOL0     H 7425   2.558   6.490   5.567  1.7706  1.0014  0.0560
   56MOL0     O 7426   1.038   8.882   6.494 -0.2047 -0.0084  0.1676
   56MOL0     C 7427   1.027   8.973   6.419  0.8696  0.0108  0.5342
   56MOL0     O 7428   1.114   9.008   6.320  1.1434  0.0310 -1.1462
   56MOL0     C 7429   1.230   8.950   6.310  0.2044  0.1144  0.0611
   56MOL0     C 7430   1.232   8.827   6.260  0.3038  0.9670 -0.9382
   56MOL0     C 7431   1.345   8.754   6.238 -0.1907  1.0016 -0.4758
   56MOL0     C 7432   1.472   8.822   6.267  0.6181  0.4097  1.0747
   56MOL0     O 7433   1.600   8.769   6.249  0.6911 -0.0907 -1.0804
   56MOL0     C 7434   1.616   8.647   6.180 -1.2647 -0.2133  0.7643
   56MOL0     C 7435   1.763   8.614   6.183  0.7229  0.2658  0.5401
   56MOL0     C 7436   1.829   8.616   6.321 -0.1167  0.9633  0.4134
   56MOL0     C 7437   1.923   8.499   6.319  0.2788  0.3053 -0.7248
   56MOL0     C 7438   1.985   8.493   6.465  0.7636  0.2304 -0.0052
   56MOL0     C 7439   2.105   8.398   6.456  0.3798  0.0250  0.4500
   56MOL0     C 7440   2.171   8.385   6.594 -0.5315 -0.3310  0.2667
   56MOL0     C 7441   2.089   8.299   6.686 -0.2112  0.1280 -0.1615
   56MOL0     N 7442   2.147   8.286   6.819  0.7571 -0.1452 -0.1292
   56MOL0     C 7443   2.100   8.368   6.925 -0.3115 -0.1674  0.5978
   56MOL0     C 7444   2.208   8.377   7.008  0.5366  0.4860  0.1337
   56MOL0     C 7445   2.200   8.465   7.139  0.2078  0.2599 -0.1817
   56MOL0     C 7446   2.310   8.458   7.238 -0.0949  0.1834  0.1435
   56MOL0     C 7447   2.429   8.548   7.196  0.9876  0.6846 -0.1372
   56MOL0     C 7448   2.531   8.539   7.300 -0.1363 -0.2381 -0.3827
   56MOL0     O 7449   2.637   8.626   7.256 -0.2050 -0.5209 -0.0497
   56MOL0     C 7450   2.728   8.655   7.356  0.6615  0.0925 -0.3746
   56MOL0     C 7451   2.689   8.759   7.436 -0.0019  0.1709 -0.0396
   56MOL0     C 7452   2.788   8.819   7.519  0.0116  0.4777 -0.1311
   56MOL0     C 7453   2.920   8.768   7.519 -0.4612 -0.6299 -0.4688
   56MOL0     C 7454   3.014   8.812   7.620 -0.1425 -0.3773  0.0917
   56MOL0     O 7455   3.143   8.782   7.597 -0.3314  0.6981  0.8434
   56MOL0     C 7456   3.238   8.828   7.674  0.8411 -0.3452 -0.5134
   56MOL0     C 7457   3.345   8.747   7.695  0.4630 -0.3060 -0.5094
   56MOL0     C 7458   3.448   8.792   7.774 -0.2163 -0.6716  0.3864
   56MOL0     C 7459   3.448   8.913   7.826  0.8758  0.5029 -0.0903
   56MOL0     O 7460   3.552   8.947   7.906  0.2598 -0.3847  0.2992
   56MOL0     C 7461   3.528   9.019   8.034  0.0611 -0.0447 -0.3451
   56MOL0     C 7462   3.558   9.167   8.024 -1.0569  0.1476  0.2839
   56MOL0     C 7463   3.495   9.242   8.144  0.1226 -0.2912 -0.3881
   56MOL0     C 7464   3.575   9.368   8.166 -0.8268 -0.2412  0.3738
   56MOL0     C 7465   3.531   9.458   8.274 -0.6107  0.4632 -0.0061
   56MOL0     C 7466   3.607   9.593   8.282  0.3689  1.2285 -0.4721
   56MOL0     C 7467   3.616   9.658   8.424 -0.6405  0.8669  0.5367
   56MOL0     C 7468   3.599   9.808   8.416 -0.1462 -0.0338  0.0090
   56MOL0    Cl 7469   3.671   9.866   8.572  0.0828  0.0783  0.1959
   56MOL0     C 7470   3.343   9.004   7.805  0.7345  0.6046  0.0847
   56MOL0     C 7471   3.237   8.962   7.722  0.6431 -0.2380 -0.1233
   56MOL0     O 7472   2.972   8.877   7.716 -0.6087  0.1732 -0.5665
   56MOL0     C 7473   2.952   8.657   7.435  0.0596 -0.2620  1.2570
   56MOL0     C 7474   2.854   8.595   7.364  0.5152 -0.1483  0.0306
   56MOL0     N 7475   2.305   8.283   6.961  0.1964 -0.1242 -0.7338
   56MOL0     N 7476   2.260   8.232   6.850  0.2820  0.6823  0.3585
   56MOL0     C 7477   1.461   8.945   6.340 -0.9674 -0.2349 -0.5356
   56MOL0     C 7478   1.342   9.014   6.362 -0.1410  0.0929 -1.0592
   56MOL0     C 7479   0.912   9.080   6.439  0.3667  0.7370 -0.2650
   56MOL0     C 7480   0.956   9.204   6.474  0.2823  0.1284 -0.4983
   56MOL0     C 7481   0.867   9.312   6.482  0.0846 -0.5005  0.2373
   56MOL0     C 7482   0.737   9.290   6.457  0.3584 -0.2655  0.4818
   56MOL0     O 7483   0.641   9.394   6.462  0.2420 -0.6044  1.0828
   56MOL0     C 7484   0.663   9.520   6.530 -0.5646 -0.0305  0.1264
   56MOL0     C 7485   0.523   9.576   6.569  0.1076  0.2105 -0.2037
   56MOL0     C 7486   0.431   9.463   6.611 -0.0428 -0.2030 -0.7620
   56MOL0     C 7487   0.289   9.505   6.664 -0.6617  0.1727 -0.2195
   56MOL0     C 7488   0.214   9.563   6.555 -0.5060  0.3363 -0.3886
   56MOL0     C 7489   0.150   9.596   6.456  0.6350 -0.9812  1.2340
   56MOL0     C 7490   0.689   9.163   6.410  0.4061 -0.9878 -0.3419
   56MOL0     C 7491   0.776   9.059   6.398 -1.0711  0.0343 -0.7798
   56MOL0     C 7492   0.730   8.931   6.344  0.3753 -0.8302 -0.0702
   56MOL0     H 7493   1.137   8.798   6.216 -0.1126  1.4069 -0.3427
   56MOL0     H 7494   1.346   8.653   6.199  1.2976 -0.6495  3.4033
   56MOL0     H 7495   1.565   8.569   6.237  1.7161 -2.7612  0.2207
   56MOL0     H 7496   1.578   8.646   6.077 -0.7744  0.4251  0.5660
   56MOL0     H 7497   1.824   8.678   6.119 -0.9652 -0.8184 -2.3382
   56MOL0     H 7498   1.766   8.517   6.134  0.6686 -0.1730  1.3814
   56MOL0     H 7499   1.763   8.588   6.403  1.1232  3.3069  2.3495
   56MOL0     H 7500   1.878   8.707   6.357  3.5587 -1.5589  2.5417
   56MOL0     H 7501   1.857   8.413   6.305  0.7314 -0.7523  2.7855
   56MOL0     H 7502   1.998   8.507   6.240  0.4039  0.3559 -0.6014
   56MOL0     H 7503   2.016   8.590   6.504 -0.0857  1.0871 -1.3704
   56MOL0     H 7504   1.911   8.445   6.530 -0.2196 -1.3603 -2.1377
   56MOL0     H 7505   2.065   8.304   6.417 -2.0108  0.9087  0.6113
   56MOL0     H 7506   2.184   8.426   6.385 -0.5534  1.2298 -0.1486
   56MOL0     H 7507   2.192   8.475   6.653 -2.0057 -0.7684  1.5393
   56MOL0     H 7508   2.265   8.331   6.580  0.1063  1.1860 -1.7923
   56MOL0     H 7509   1.989   8.344   6.691 -0.3342  0.4398 -3.2819
   56MOL0     H 7510   2.076   8.197   6.647  1.5071 -0.5866  1.0394
   56MOL0     H 7511   2.006   8.420   6.941  0.3276  1.9219 -1.6890
   56MOL0     H 7512   2.185   8.573   7.126  0.8833  0.2014 -1.5697
   56MOL0     H 7513   2.107   8.436   7.188 -1.3423  3.0820 -1.2418
   56MOL0     H 7514   2.267   8.492   7.333 -3.1792 -0.5034 -0.8963
   56MOL0     H 7515   2.344   8.354   7.249  0.2614  0.4629  2.0008
   56MOL0     H 7516   2.405   8.654   7.182  1.5434  0.6844 -1.2958
   56MOL0     H 7517   2.464   8.518   7.096 -0.2187 -0.8161 -0.1421
   56MOL0     H 7518   2.570   8.438   7.317  0.8975  0.2934  0.4972
   56MOL0     H 7519   2.494   8.562   7.401  2.5921  1.4202  0.3418
   56MOL0     H 7520   2.583   8.784   7.438  0.4767  2.4476 -0.1080
   56MOL0     H 7521   2.759   8.902   7.583 -3.3063 -1.6648  1.4475
   56MOL0     H 7522   3.362   8.653   7.643  2.6607  1.2184 -2.7848
   56MOL0     H 7523   3.538   8.733   7.784 -1.1363 -1.9945  1.1877
   56MOL0     H 7524   3.424   8.993   8.058  0.1247  0.2033  0.2037
   56MOL0     H 7525   3.579   8.970   8.118  0.4405  1.7394  0.4970
   56MOL0     H 7526   3.666   9.183   8.021 -1.3728  2.6627 -0.7072
   56MOL0     H 7527   3.510   9.204   7.933 -2.1982 -5.7837 -1.9883
   56MOL0     H 7528   3.388   9.262   8.138 -0.0958 -0.9869  0.8356
   56MOL0     H 7529   3.510   9.185   8.236  0.9919 -0.7747 -0.8194
   56MOL0     H 7530   3.583   9.418   8.068 -2.1998 -0.9359 -0.1097
   56MOL0     H 7531   3.674   9.341   8.204 -1.5279 -1.3056  1.4773
   56MOL0     H 7532   3.544   9.398   8.365 -1.8912 -1.4985 -1.0378
   56MOL0     H 7533   3.423   9.476   8.270 -0.3853  1.6692 -2.4464
   56MOL0     H 7534   3.705   9.569   8.241  0.1468  0.5163 -0.6041
   56MOL0     H 7535   3.552   9.658   8.213 -1.2269 -1.0352 -1.4581
   56MOL0     H 7536   3.716   9.636   8.463 -1.8557 -1.4087  2.7274
   56MOL0     H 7537   3.541   9.612   8.490 -2.3273  2.3958 -0.2290
   56MOL0     H 7538   3.656   9.861   8.339 -1.3343  1.0958 -0.1252
   56MOL0     H 7539   3.493   9.833   8.411 -0.9449 -2.7413  1.4458
   56MOL0     H 7540   3.343   9.105   7.844 -2.3522  0.9299 -0.5669
   56MOL0     H 7541   3.163   9.042   7.715  1.5271  0.6317  0.1893
   56MOL0     H 7542   3.049   8.608   7.431  0.7251  1.0973 -0.3440
   56MOL0     H 7543   2.873   8.506   7.306 -4.8572  0.0831 -2.7279
   56MOL0     H 7544   1.553   8.987   6.380  0.2470  1.2883 -4.4680
   56MOL0     H 7545   1.338   9.117   6.396  1.9854  0.4972 -1.8704
   56MOL0     H 7546   1.059   9.232   6.494  0.1329  0.5234 -0.2724
   56MOL0     H 7547   0.903   9.412   6.504  0.8540 -1.0609  1.7357
   56MOL0     H 7548   0.710   9.590   6.460 -0.7359 -1.7434 -1.7765
   56MOL0     H 7549   0.731   9.507   6.615  0.8077 -0.6721 -1.0319
   56MOL0     H 7550   0.483   9.635   6.486 -0.2318  2.4728  1.4590
   56MOL0     H 7551   0.522   9.631   6.663 -0.8500 -2.9408  1.7869
   56MOL0     H 7552   0.477   9.400   6.688 -3.0053 -1.7685 -0.1103
   56MOL0     H 7553   0.412   9.393   6.530 -0.4706 -1.1357  0.1142
   56MOL0     H 7554   0.230   9.416   6.688 -2.8504  1.4960 -0.4829
   56MOL0     H 7555   0.296   9.573   6.748  2.3161  0.9202 -0.9397
   56MOL0     H 7556   0.100   9.630   6.368  1.0926  0.7278  1.5919
   56MOL0     H 7557   0.586   9.154   6.377  0.4702 -1.8303 -0.3212
   56MOL0     H 7558   0.801   8.903   6.266  0.8330  0.5023 -0.1423
   56MOL0     H 7559   0.720   8.866   6.432 -4.4533 -0.3925 -0.0340
   56MOL0     H 7560   0.630   8.941   6.300 -0.1631  0.2531  1.3269
   57MOL0     O 7561  10.528   4.961   1.347  0.4685  0.8998 -0.0636
   57MOL0     C 7562  10.489   5.063   1.300 -0.4245  1.0003  0.6813
   57MOL0     O 7563  10.364   5.084   1.243  0.0948 -0.5900  0.0604
   57MOL0     C 7564  10.299   4.974   1.209  0.4008  0.8194  0.1988
   57MOL0     C 7565  10.166   4.961   1.253  0.4859 -0.2999  0.3610
   57MOL0     C 7566  10.084   4.858   1.207 -0.4608  0.5261 -0.3077
   57MOL0     C 7567  10.139   4.750   1.128 -0.5808 -0.4141  0.1485
   57MOL0     O 7568  10.075   4.639   1.086  0.5737  0.2502 -0.7054
   57MOL0     C 7569   9.989   4.587   1.196  0.2980  0.2920 -0.0994
   57MOL0     C 7570   9.929   4.448   1.164 -0.3138 -0.0757 -0.1798
   57MOL0     C 7571   9.785   4.425   1.240  0.2709  0.3421 -0.3890
   57MOL0     C 7572   9.713   4.303   1.173  0.2028 -0.6894  0.1430
   57MOL0     C 7573   9.600   4.250   1.261 -0.2699  0.2403 -0.0712
   57MOL0     C 7574   9.519   4.155   1.173  0.3043  0.5204  0.0582
   57MOL0     C 7575   9.419   4.058   1.261 -0.6463 -0.3666  0.2764
   57MOL0     C 7576   9.268   4.112   1.248 -0.2862  0.1058  0.0858
   57MOL0     N 7577   9.169   4.045   1.329 -0.0927 -0.9176 -0.5414
   57MOL0     C 7578   9.119   3.914   1.328 -0.5605  0.0033 -0.1799
   57MOL0     C 7579   9.034   3.903   1.436  0.5085 -0.4289 -0.3988
   57MOL0     C 7580   8.958   3.781   1.475 -0.6312  0.2930  0.2167
   57MOL0     C 7581   9.037   3.704   1.585 -0.0466 -0.1035  0.3747
   57MOL0     C 7582   9.008   3.550   1.575 -0.2977  0.1417  0.4252
   57MOL0     C 7583   8.880   3.508   1.631  1.2046 -0.3596 -0.0512
   57MOL0     O 7584   8.793   3.443   1.532  0.4301  0.0958 -0.0721
   57MOL0     C 7585   8.670   3.393   1.568  0.6490 -0.3180 -0.4837
   57MOL0     C 7586   8.624   3.310   1.474  0.3798 -0.4099 -0.0190
   57MOL0     C 7587   8.495   3.249   1.478 -0.1290 -0.7148  0.5973
   57MOL0     C 7588   8.419   3.270   1.592 -0.7740 -0.4239 -0.6901
   57MOL0     C 7589   8.286   3.213   1.595  0.1864  0.5416  0.2330
   57MOL0     O 7590   8.255   3.131   1.499 -1.1115  0.0641 -0.3129
   57MOL0     C 7591   8.131   3.085   1.477  1.7529  0.0826  0.7914
   57MOL0     C 7592   8.006   3.147   1.504 -0.9233 -0.4653 -0.0434
   57MOL0     C 7593   7.877   3.101   1.476 -0.3542 -0.1920 -0.3362
   57MOL0     C 7594   7.871   2.959   1.436 -0.7796  0.9871 -0.3877
   57MOL0     O 7595   7.760   2.893   1.403 -0.1174 -0.1400  0.2346
   57MOL0     C 7596   7.648   2.897   1.490  0.4747  0.5103 -0.5954
   57MOL0     C 7597   7.611   2.761   1.533  0.3620  0.3350  0.5248
   57MOL0     C 7598   7.473   2.754   1.597 -0.3482  0.5809  0.2421
   57MOL0     C 7599   7.464   2.860   1.716  0.2733  0.0203 -0.1290
   57MOL0     C 7600   7.343   2.846   1.798 -0.0145  0.0843  0.1929
   57MOL0     C 7601   7.325   2.966   1.888 -0.2485 -0.3167  0.3109
   57MOL0     C 7602   7.194   2.954   1.958  1.0851 -0.5596 -0.4028
   57MOL0     C 7603   7.185   3.059   2.067  0.2895  0.1746  0.4836
   57MOL0    Cl 7604   7.007   3.119   2.065 -0.5120 -0.3998 -0.0564
   57MOL0     C 7605   7.986   2.893   1.395  0.2219 -0.0400  0.4305
   57MOL0     C 7606   8.114   2.957   1.403 -0.9120 -1.0188 -0.2512
   57MOL0     O 7607   8.225   3.236   1.696 -0.0641  0.4666 -0.7593
   57MOL0     C 7608   8.468   3.365   1.688  0.2193  0.0155 -0.6441
   57MOL0     C 7609   8.589   3.429   1.673  0.9810 -0.0824  1.0532
   57MOL0     N 7610   9.037   4.031   1.499  0.9686 -0.0230 -0.8649
   57MOL0     N 7611   9.111   4.111   1.442 -0.1591  0.2393  0.2636
   57MOL0     C 7612  10.274   4.768   1.088 -1.0767  0.0188 -0.5038
   57MOL0     C 7613  10.345   4.873   1.124 -0.5111 -1.0189 -0.2591
   57MOL0     C 7614  10.593   5.168   1.324  1.7081 -0.8586 -0.6908
   57MOL0     C 7615  10.532   5.287   1.381  1.5525  0.2303  0.1164
   57MOL0     C 7616  10.616   5.390   1.401 -1.1363 -0.4007  0.3907
   57MOL0     C 7617  10.756   5.394   1.355 -0.5360  0.0951 -0.2802
   57MOL0     O 7618  10.838   5.508   1.344  0.7186 -0.5443  0.0128
   57MOL0     C 7619  10.835   5.595   1.460 -0.6783 -0.0061 -0.5785
   57MOL0     C 7620  10.912   5.543   1.580  1.0506 -0.8332 -0.4713
   57MOL0     C 7621  11.066   5.558   1.553 -0.7292 -1.0320 -0.1467
   57MOL0     C 7622  11.151   5.507   1.667  0.6052  0.7487  0.1637
   57MOL0     C 7623  11.200   5.370   1.650  0.4520 -0.9992  0.1709
   57MOL0     C 7624  11.236   5.253   1.649 -0.0957 -0.3436  0.7384
   57MOL0     C 7625  10.805   5.272   1.311  0.4602  0.3435  0.0998
   57MOL0     C 7626  10.729   5.158   1.313 -0.8869  0.3447  0.6757
   57MOL0     C 7627  10.800   5.026   1.279  0.0817 -0.9786 -0.2222
   57MOL0     H 7628  10.114   5.037   1.311 -0.3611  0.4935 -1.3577
   57MOL0     H 7629   9.979   4.842   1.232 -0.1796 -2.7442 -0.7834
   57MOL0     H 7630  10.040   4.580   1.292 -1.1951 -1.6372  0.6086
   57MOL0     H 7631   9.906   4.658   1.201  0.2296  0.1163  1.5869
   57MOL0     H 7632   9.997   4.365   1.186 -0.8678  0.0263  2.2637
   57MOL0     H 7633   9.890   4.448   1.062 -2.4018 -0.5756  0.5503
   57MOL0     H 7634   9.726   4.512   1.211 -0.9073 -0.5676 -0.7996
   57MOL0     H 7635   9.793   4.414   1.348  2.1564 -0.9393 -0.6045
   57MOL0     H 7636   9.685   4.333   1.072  1.8776 -0.0051 -0.1560
   57MOL0     H 7637   9.778   4.217   1.158  0.7620 -0.0899 -1.0994
   57MOL0     H 7638   9.632   4.200   1.354 -2.2703 -4.0298 -1.4128
   57MOL0     H 7639   9.528   4.323   1.299 -1.9884 -1.8882  1.0086
   57MOL0     H 7640   9.460   4.221   1.108  0.4231  2.4506  1.7966
   57MOL0     H 7641   9.590   4.095   1.115 -0.5821  1.3031 -1.9384
   57MOL0     H 7642   9.455   4.050   1.364 -1.3950 -0.5177  0.5355
   57MOL0     H 7643   9.418   3.967   1.199 -2.2534  1.5608 -2.7792
   57MOL0     H 7644   9.269   4.220   1.265  1.1440  0.8255 -3.6116
   57MOL0     H 7645   9.234   4.094   1.146 -1.2054 -2.6690  0.7951
   57MOL0     H 7646   9.152   3.846   1.250 -0.1595  1.5858 -1.4386
   57MOL0     H 7647   8.862   3.818   1.513 -1.0965 -0.0458 -0.5985
   57MOL0     H 7648   8.942   3.709   1.394 -1.4126  0.0118  0.6133
   57MOL0     H 7649   9.143   3.726   1.578 -0.5771  2.4956 -0.6935
   57MOL0     H 7650   9.004   3.721   1.688 -1.3627  0.2796 -0.0755
   57MOL0     H 7651   9.082   3.498   1.636 -1.4386  0.0396  1.7770
   57MOL0     H 7652   9.011   3.523   1.469 -1.1791  3.3696 -0.5559
   57MOL0     H 7653   8.833   3.600   1.668  1.8225 -1.1289  2.8449
   57MOL0     H 7654   8.896   3.440   1.715  2.5461 -2.3739 -1.8241
   57MOL0     H 7655   8.674   3.308   1.378 -2.5190 -0.2889 -1.6354
   57MOL0     H 7656   8.463   3.191   1.392 -2.1738 -1.6505  1.9267
   57MOL0     H 7657   8.007   3.245   1.551 -2.3516  0.5234 -1.9170
   57MOL0     H 7658   7.792   3.161   1.507  0.1574 -0.3598  1.5477
   57MOL0     H 7659   7.678   2.937   1.587  0.7462 -0.1669 -0.3954
   57MOL0     H 7660   7.566   2.961   1.455  0.9947  0.0880 -2.7600
   57MOL0     H 7661   7.613   2.694   1.446  0.3563  1.5169 -0.4080
   57MOL0     H 7662   7.692   2.727   1.597  2.6549  2.4490 -1.0713
   57MOL0     H 7663   7.402   2.793   1.524  0.0435  1.5160  0.3521
   57MOL0     H 7664   7.441   2.653   1.623 -1.6078  0.6154 -1.0303
   57MOL0     H 7665   7.464   2.962   1.676 -0.3832 -0.0305 -0.2641
   57MOL0     H 7666   7.555   2.864   1.777  1.5741 -0.4303 -1.9409
   57MOL0     H 7667   7.358   2.753   1.854 -1.1442  2.0962  4.2085
   57MOL0     H 7668   7.261   2.831   1.727 -0.1192 -2.4056  0.7518
   57MOL0     H 7669   7.399   2.940   1.964 -0.0055 -0.0292  0.1772
   57MOL0     H 7670   7.350   3.064   1.845  2.5467 -1.3526 -0.6214
   57MOL0     H 7671   7.175   2.858   2.006 -2.5259  0.0464 -0.3637
   57MOL0     H 7672   7.118   2.972   1.882 -0.2127 -0.4147  0.8836
   57MOL0     H 7673   7.237   3.026   2.157 -0.2340 -0.0392  0.7107
   57MOL0     H 7674   7.246   3.142   2.032 -0.9340  0.5902 -0.7638
   57MOL0     H 7675   7.986   2.796   1.347 -3.1746  0.2556 -0.4002
   57MOL0     H 7676   8.212   2.914   1.387  0.5499  0.6628  3.1507
   57MOL0     H 7677   8.403   3.390   1.772  1.8321  0.9186  0.3789
   57MOL0     H 7678   8.632   3.497   1.745  1.5865 -1.4355  2.0019
   57MOL0     H 7679  10.321   4.685   1.035 -0.9435 -1.6564  2.0535
   57MOL0     H 7680  10.444   4.884   1.081 -0.4710 -0.3241  0.0110
   57MOL0     H 7681  10.426   5.298   1.402  0.3923 -3.7138 -2.5678
   57MOL0     H 7682  10.576   5.488   1.426 -0.7863  0.3964 -1.9371
   57MOL0     H 7683  10.733   5.613   1.496  0.3573 -0.0355  2.6496
   57MOL0     H 7684  10.882   5.689   1.431  4.9935 -1.8886  1.2250
   57MOL0     H 7685  10.868   5.444   1.596 -0.6921 -0.1120 -0.6915
   57MOL0     H 7686  10.888   5.609   1.664 -1.8226 -2.9921  0.5742
   57MOL0     H 7687  11.081   5.664   1.534  0.6004 -1.6920 -3.4255
   57MOL0     H 7688  11.099   5.516   1.458  0.2381  1.9400 -1.2238
   57MOL0     H 7689  11.240   5.571   1.663 -0.1427  1.8720  0.6546
   57MOL0     H 7690  11.104   5.508   1.766  0.1205  0.5646 -0.0668
   57MOL0     H 7691  11.265   5.152   1.631  2.3418  0.9307 -4.0127
   57MOL0     H 7692  10.904   5.247   1.274 -0.2587 -1.4461 -0.7446
   57MOL0     H 7693  10.795   4.975   1.375  0.5113  1.8927  1.4638
   57MOL0     H 7694  10.742   4.978   1.200 -1.8779  1.6958 -0.5872
   57MOL0     H 7695  10.900   5.044   1.240 -1.2880  5.4705 -1.9625
   58MOL0     O 7696   0.616   4.520  11.422 -1.0493  0.6384 -0.6983
   58MOL0     C 7697   0.522   4.455  11.388 -0.2664  0.0323 -0.7599
   58MOL0     O 7698   0.525   4.345  11.297 -0.5246 -0.2871 -1.3210
   58MOL0     C 7699   0.649   4.330  11.231  0.2976  0.3935  0.5130
   58MOL0     C 7700   0.743   4.227  11.260 -0.4897  0.3556  0.5117
   58MOL0     C 7701   0.855   4.202  11.184 -0.1130 -1.5155  0.8738
   58MOL0     C 7702   0.888   4.292  11.080  1.0084  1.0819  0.4190
   58MOL0     O 7703   1.007   4.286  11.013  0.0007 -0.8435  0.0092
   58MOL0     C 7704   1.087   4.168  11.009 -0.3770 -0.0103 -0.4908
   58MOL0     C 7705   1.201   4.211  10.921  0.1405  0.1567  0.3745
   58MOL0     C 7706   1.319   4.117  10.911 -0.0954  0.3255 -0.7247
   58MOL0     C 7707   1.289   3.983  10.844  0.4206  0.8692 -0.0305
   58MOL0     C 7708   1.404   3.892  10.850 -0.1602  0.3973 -1.1569
   58MOL0     C 7709   1.412   3.831  10.994  0.0177 -0.7972  1.2984
   58MOL0     C 7710   1.519   3.726  11.003 -0.3213 -0.0771 -0.5211
   58MOL0     C 7711   1.519   3.681  11.147 -1.3926  0.5570  0.1293
   58MOL0     N 7712   1.404   3.600  11.177  0.1745  0.4050  0.3388
   58MOL0     C 7713   1.324   3.605  11.295 -0.4403  0.4911 -0.1354
   58MOL0     C 7714   1.228   3.512  11.281  0.2160  0.6533 -0.1608
   58MOL0     C 7715   1.133   3.459  11.391  0.0426 -0.3437 -0.1008
   58MOL0     C 7716   0.982   3.450  11.377  0.5102  0.5169 -0.9080
   58MOL0     C 7717   0.901   3.417  11.502  0.5042 -0.3745 -0.8887
   58MOL0     C 7718   0.777   3.509  11.532 -0.5748  0.6641 -0.1625
   58MOL0     O 7719   0.711   3.463  11.646  0.0983  0.4316 -0.8313
   58MOL0     C 7720   0.624   3.555  11.708  0.4071  0.4501 -0.7038
   58MOL0     C 7721   0.667   3.665  11.787 -0.1901 -0.1146  0.1595
   58MOL0     C 7722   0.585   3.741  11.860  0.8551  0.0496  1.0542
   58MOL0     C 7723   0.447   3.713  11.871 -0.4699  0.0551  0.0682
   58MOL0     C 7724   0.354   3.796  11.949  0.3435  1.0111  0.3152
   58MOL0     O 7725   0.408   3.917  11.991 -0.4637 -0.3227 -1.1814
   58MOL0     C 7726   0.333   3.984  12.078  0.4023 -0.2427 -0.0407
   58MOL0     C 7727   0.218   4.066  12.036  0.1543 -0.4286 -0.5397
   58MOL0     C 7728   0.164   4.138  12.144  0.6137  0.1769  0.2924
   58MOL0     C 7729   0.203   4.124  12.282  0.3089 -1.1093  0.3871
   58MOL0     O 7730   0.130   4.207  12.374  0.5234  0.7294 -0.5357
   58MOL0     C 7731   0.136   4.184  12.515 -0.3255 -0.0299  0.2510
   58MOL0     C 7732   0.033   4.278  12.590  0.3660  0.4962  0.1035
   58MOL0     C 7733  -0.116   4.249  12.569  0.0262 -0.6394 -0.3146
   58MOL0     C 7734  -0.200   4.306  12.675 -0.0342 -0.1865 -0.5544
   58MOL0     C 7735  -0.342   4.256  12.678  0.0586 -0.0930  0.5268
   58MOL0     C 7736  -0.446   4.317  12.780  0.5293 -0.6009  0.4839
   58MOL0     C 7737  -0.576   4.234  12.781  0.0095 -0.0576  0.0029
   58MOL0     C 7738  -0.645   4.182  12.657  0.7159  0.1258 -0.3524
   58MOL0    Cl 7739  -0.618   3.996  12.657 -0.0177 -0.4493 -0.5700
   58MOL0     C 7740   0.306   4.036  12.305  0.2503 -0.9643 -0.2740
   58MOL0     C 7741   0.377   3.973  12.207 -0.2637  0.2965  0.2931
   58MOL0     O 7742   0.235   3.772  11.952  0.4501  0.1948  0.0548
   58MOL0     C 7743   0.399   3.603  11.795  0.0260  0.1080 -0.1360
   58MOL0     C 7744   0.485   3.526  11.719 -0.8596  0.0047 -0.8014
   58MOL0     N 7745   1.246   3.460  11.160  0.2385 -1.1786  0.2098
   58MOL0     N 7746   1.344   3.509  11.101 -0.3643 -0.7663  0.6613
   58MOL0     C 7747   0.801   4.404  11.056 -1.4955  0.2276 -0.6772
   58MOL0     C 7748   0.684   4.415  11.120 -0.0589  0.5286 -1.0957
   58MOL0     C 7749   0.400   4.466  11.455 -0.0644  0.7431 -0.5715
   58MOL0     C 7750   0.283   4.427  11.387  1.2207 -0.3119  0.6893
   58MOL0     C 7751   0.155   4.421  11.439 -0.1179  1.1013  0.9220
   58MOL0     C 7752   0.133   4.459  11.574  0.5506 -0.7469  0.3906
   58MOL0     O 7753   0.011   4.459  11.634 -0.5048 -1.0683 -0.1000
   58MOL0     C 7754  -0.102   4.435  11.549  0.2354  0.6752  0.1396
   58MOL0     C 7755  -0.235   4.433  11.620  0.0291 -0.5727 -0.2102
   58MOL0     C 7756  -0.260   4.302  11.692  0.3797  0.6339 -0.2595
   58MOL0     C 7757  -0.154   4.254  11.799 -0.1826  0.1755 -0.6901
   58MOL0     C 7758  -0.188   4.113  11.826  0.5481  0.0924  1.4431
   58MOL0     C 7759  -0.239   4.006  11.838  0.8183  0.8171  0.2211
   58MOL0     C 7760   0.242   4.510  11.647  0.9047  0.3543  0.0261
   58MOL0     C 7761   0.375   4.507  11.593 -1.2897  0.4703 -0.8381
   58MOL0     C 7762   0.475   4.580  11.672 -0.1339  0.2750 -0.3307
   58MOL0     H 7763   0.709   4.148  11.327 -1.4511  0.7589  0.5254
   58MOL0     H 7764   0.915   4.117  11.213  0.5419 -1.5818 -0.5746
   58MOL0     H 7765   1.111   4.133  11.110  2.0809  3.0908  0.1621
   58MOL0     H 7766   1.037   4.085  10.958 -0.4047 -0.0370 -0.4206
   58MOL0     H 7767   1.249   4.300  10.963 -0.6302  0.5063  0.5210
   58MOL0     H 7768   1.171   4.253  10.824  1.6433 -0.0829 -0.2254
   58MOL0     H 7769   1.356   4.112  11.014 -1.3171  1.1945 -0.2284
   58MOL0     H 7770   1.404   4.160  10.855 -1.4775 -1.4316 -4.5511
   58MOL0     H 7771   1.199   3.937  10.886  0.3350 -0.1274 -1.2449
   58MOL0     H 7772   1.280   4.004  10.737 -1.3223  0.0925 -0.0672
   58MOL0     H 7773   1.383   3.814  10.777 -4.1535 -3.2404  3.1832
   58MOL0     H 7774   1.498   3.945  10.833  0.7273  0.3539  2.5600
   58MOL0     H 7775   1.443   3.910  11.063  1.1984  1.6575 -1.8003
   58MOL0     H 7776   1.315   3.788  11.020 -1.2943  1.8215  1.0342
   58MOL0     H 7777   1.617   3.770  10.983 -0.4327  0.0866 -0.7070
   58MOL0     H 7778   1.511   3.631  10.950 -1.2356 -0.8651  0.9501
   58MOL0     H 7779   1.608   3.617  11.155 -0.6803  1.6317  0.9512
   58MOL0     H 7780   1.538   3.760  11.220 -0.2015 -1.9327  2.7087
   58MOL0     H 7781   1.345   3.657  11.388  0.4105 -0.9416  0.5019
   58MOL0     H 7782   1.150   3.353  11.414 -4.5919 -1.1210  0.8668
   58MOL0     H 7783   1.146   3.515  11.484 -0.0770 -2.5254  1.3190
   58MOL0     H 7784   0.948   3.544  11.333  1.6901  2.7034  2.4426
   58MOL0     H 7785   0.965   3.363  11.312 -0.3282  1.0682 -1.4412
   58MOL0     H 7786   0.959   3.410  11.595  1.7435 -3.3001 -1.7565
   58MOL0     H 7787   0.858   3.317  11.487 -0.7065 -0.4998  2.5038
   58MOL0     H 7788   0.710   3.488  11.449  0.7661 -0.7672 -0.9528
   58MOL0     H 7789   0.800   3.616  11.535 -1.8661  1.0853 -2.5803
   58MOL0     H 7790   0.774   3.684  11.781 -0.1880 -0.0353  0.4119
   58MOL0     H 7791   0.633   3.827  11.906 -1.8784  2.2495  0.0998
   58MOL0     H 7792   0.182   4.074  11.934  1.1288  0.3314 -0.8452
   58MOL0     H 7793   0.088   4.213  12.125 -0.9386 -1.2339  0.7255
   58MOL0     H 7794   0.118   4.079  12.540  2.3562 -0.4510  0.6575
   58MOL0     H 7795   0.237   4.202  12.552 -0.7896  1.6278  0.8150
   58MOL0     H 7796   0.049   4.258  12.696 -0.2412  1.8958  0.4713
   58MOL0     H 7797   0.069   4.379  12.570  1.5009  0.0097 -0.3857
   58MOL0     H 7798  -0.152   4.287  12.473  3.1428  0.5400 -1.1466
   58MOL0     H 7799  -0.119   4.140  12.576 -0.3375 -0.6466 -0.5803
   58MOL0     H 7800  -0.204   4.415  12.666  0.8695 -0.2699 -2.5889
   58MOL0     H 7801  -0.150   4.295  12.771  0.8774  2.0813 -0.7003
   58MOL0     H 7802  -0.339   4.148  12.691 -2.3764 -0.3120 -0.1746
   58MOL0     H 7803  -0.397   4.261  12.583 -4.3390 -2.0233  2.6754
   58MOL0     H 7804  -0.409   4.307  12.882 -2.8778 -2.8701  1.6675
   58MOL0     H 7805  -0.471   4.420  12.753 -0.2624 -1.0347 -0.5023
   58MOL0     H 7806  -0.650   4.305  12.819  0.4728  0.1285  0.5713
   58MOL0     H 7807  -0.565   4.154  12.855 -0.8248  1.4354  1.8370
   58MOL0     H 7808  -0.754   4.193  12.657  0.2095 -3.0714 -3.1319
   58MOL0     H 7809  -0.604   4.216  12.562  1.1397 -1.8466 -0.9341
   58MOL0     H 7810   0.338   4.008  12.405 -0.6337  0.7941  0.5496
   58MOL0     H 7811   0.454   3.898  12.216 -0.9184 -0.9143 -2.8220
   58MOL0     H 7812   0.297   3.567  11.802 -0.7312  0.7516 -4.7318
   58MOL0     H 7813   0.448   3.437  11.669 -1.7398 -0.2308  0.2475
   58MOL0     H 7814   0.831   4.472  10.976  0.4755  1.0391  0.6671
   58MOL0     H 7815   0.612   4.488  11.082 -0.0125  1.5735  0.7312
   58MOL0     H 7816   0.291   4.388  11.286  1.2407 -0.8811  0.9086
   58MOL0     H 7817   0.085   4.383  11.365  2.1799 -1.1902 -0.2023
   58MOL0     H 7818  -0.086   4.334  11.511 -2.6666  0.8366 -1.8968
   58MOL0     H 7819  -0.110   4.501  11.462 -2.7134  0.7614  0.3696
   58MOL0     H 7820  -0.324   4.451  11.558 -1.0259  1.1491  1.6631
   58MOL0     H 7821  -0.236   4.517  11.690 -0.4709  1.8174 -2.9112
   58MOL0     H 7822  -0.275   4.215  11.628  0.2228  0.2662  0.2648
   58MOL0     H 7823  -0.359   4.312  11.736  0.2152  0.4854 -0.5939
   58MOL0     H 7824  -0.051   4.263  11.761  0.2088 -1.9545 -0.2714
   58MOL0     H 7825  -0.145   4.312  11.891 -2.0239 -2.5443  1.3493
   58MOL0     H 7826  -0.284   3.909  11.838 -0.9926  1.6121  0.3338
   58MOL0     H 7827   0.236   4.531  11.753  3.3788 -1.3155  0.5781
   58MOL0     H 7828   0.511   4.668  11.618  1.7276  1.2927  2.3096
   58MOL0     H 7829   0.437   4.624  11.765  0.1686 -1.0337  0.4318
   58MOL0     H 7830   0.561   4.519  11.704  0.0238 -0.8054 -2.6339
   59MOL0     O 7831   7.480   3.204   6.888  0.4257  0.3554  0.3769
   59MOL0     C 7832   7.573   3.241   6.955  0.2240 -0.5722  0.5133
   59MOL0     O 7833   7.570   3.243   7.095 -0.3625 -0.2773  0.0053
   59MOL0     C 7834   7.482   3.167   7.162 -0.8505  0.6351 -0.4377
   59MOL0     C 7835   7.450   3.042   7.121 -0.5309 -0.9686 -0.3170
   59MOL0     C 7836   7.363   2.963   7.194  0.1979  0.5239 -1.1777
   59MOL0     C 7837   7.323   3.014   7.321  1.0746  0.1923  0.6898
   59MOL0     O 7838   7.239   2.950   7.406  0.2956 -0.0231  0.6054
   59MOL0     C 7839   7.212   2.814   7.390 -0.7226 -0.0548  0.0532
   59MOL0     C 7840   7.132   2.750   7.501 -1.3407  1.1547  0.0980
   59MOL0     C 7841   7.160   2.809   7.642  0.4430 -0.9217  0.3035
   59MOL0     C 7842   7.182   2.697   7.748  0.2134 -0.4241  1.1499
   59MOL0     C 7843   7.224   2.751   7.888 -0.2936 -0.6197  0.4895
   59MOL0     C 7844   7.130   2.717   7.990  0.6180 -0.2057  0.1668
   59MOL0     C 7845   7.177   2.768   8.128 -0.1428 -0.4380 -0.1098
   59MOL0     C 7846   7.314   2.703   8.185 -0.5205  0.2808 -1.5828
   59MOL0     N 7847   7.338   2.737   8.333  0.1449  0.8983 -0.2345
   59MOL0     C 7848   7.259   2.693   8.429 -0.4372 -0.3560  0.0022
   59MOL0     C 7849   7.310   2.739   8.543  0.7304 -0.8738 -0.2346
   59MOL0     C 7850   7.259   2.701   8.676 -0.3343  0.5793 -0.2586
   59MOL0     C 7851   7.294   2.547   8.695 -0.0149  0.8443  0.5830
   59MOL0     C 7852   7.196   2.491   8.799 -0.2011 -0.2750  0.5263
   59MOL0     C 7853   7.228   2.343   8.828  0.2250  0.3262  0.1015
   59MOL0     O 7854   7.106   2.293   8.894 -0.6715  0.1865 -0.4791
   59MOL0     C 7855   7.137   2.176   8.961  0.3604  0.3239 -0.4895
   59MOL0     C 7856   7.208   2.065   8.920 -0.0760  1.0342 -0.2248
   59MOL0     C 7857   7.217   1.952   9.002  0.2413  0.0527 -0.3511
   59MOL0     C 7858   7.152   1.952   9.126 -0.0401  0.4851 -0.1268
   59MOL0     C 7859   7.155   1.832   9.216 -0.5884 -0.2985  0.5642
   59MOL0     O 7860   7.035   1.763   9.244  0.2813  0.1692 -0.0597
   59MOL0     C 7861   6.920   1.803   9.190 -0.2057 -0.3590 -0.1562
   59MOL0     C 7862   6.827   1.871   9.273  0.3335 -0.3401  0.0539
   59MOL0     C 7863   6.710   1.938   9.223 -0.9022  0.5701 -0.6013
   59MOL0     C 7864   6.697   1.940   9.086  0.2851  0.7133  1.2701
   59MOL0     O 7865   6.589   2.003   9.038  0.2903 -0.5021 -0.3556
   59MOL0     C 7866   6.535   1.972   8.915  0.1906  0.0055  0.2310
   59MOL0     C 7867   6.390   2.034   8.909 -0.1372  0.9095 -0.1282
   59MOL0     C 7868   6.303   1.981   9.020 -0.4151  1.3361  0.1928
   59MOL0     C 7869   6.200   2.080   9.055  0.4177  0.1005  0.1123
   59MOL0     C 7870   6.094   2.029   9.144  0.1323  0.1387  1.1487
   59MOL0     C 7871   5.966   2.118   9.140  0.3933  0.6961  0.3567
   59MOL0     C 7872   5.907   2.145   9.005 -0.0220  0.4269  0.3495
   59MOL0     C 7873   5.764   2.189   9.023 -0.3526  0.1257  0.0804
   59MOL0    Cl 7874   5.668   2.048   9.082  0.0061 -0.2530 -0.5779
   59MOL0     C 7875   6.785   1.871   9.004  0.0889 -0.5103  0.2018
   59MOL0     C 7876   6.896   1.799   9.053  0.4666 -0.7191  1.1509
   59MOL0     O 7877   7.269   1.798   9.264  0.0849 -0.3277  0.7081
   59MOL0     C 7878   7.082   2.066   9.171 -0.6960  0.2340  0.8239
   59MOL0     C 7879   7.067   2.169   9.083  0.7884  0.2908  0.6207
   59MOL0     N 7880   7.426   2.804   8.517 -1.4594  0.5513 -0.2795
   59MOL0     N 7881   7.433   2.821   8.387  0.4937 -0.8049  1.2601
   59MOL0     C 7882   7.337   3.150   7.358  0.2542  0.5611  0.0129
   59MOL0     C 7883   7.423   3.221   7.271  0.3757  0.1661 -0.7265
   59MOL0     C 7884   7.692   3.296   6.900 -0.8136  0.5094 -0.2075
   59MOL0     C 7885   7.821   3.273   6.960  0.1740 -0.7958 -0.6455
   59MOL0     C 7886   7.935   3.327   6.917 -0.1072  0.0710  0.7254
   59MOL0     C 7887   7.936   3.411   6.799 -0.4623  0.4232 -0.3221
   59MOL0     O 7888   8.052   3.436   6.729  0.3866  0.5886 -0.0600
   59MOL0     C 7889   8.116   3.317   6.680  0.3012 -0.0940 -0.2837
   59MOL0     C 7890   8.262   3.316   6.726  0.3730 -1.2706  0.7598
   59MOL0     C 7891   8.338   3.449   6.702 -0.0590 -0.6725  0.3029
   59MOL0     C 7892   8.343   3.486   6.553  0.1953  0.0988 -0.4246
   59MOL0     C 7893   8.419   3.604   6.537 -0.7424 -0.5572 -0.4375
   59MOL0     C 7894   8.490   3.701   6.525 -0.5742 -0.0104 -0.3035
   59MOL0     C 7895   7.808   3.436   6.740 -0.5974  0.5774  0.0321
   59MOL0     C 7896   7.684   3.385   6.788  0.0769  0.1893 -0.0695
   59MOL0     C 7897   7.550   3.436   6.732  0.4067 -0.5798  0.9912
   59MOL0     H 7898   7.504   3.003   7.035  0.7984  0.9775 -0.4421
   59MOL0     H 7899   7.344   2.865   7.152  2.3111 -0.3284 -0.2948
   59MOL0     H 7900   7.158   2.789   7.299 -0.9249  1.1578 -0.1722
   59MOL0     H 7901   7.309   2.764   7.390 -2.3085 -3.5678 -2.2773
   59MOL0     H 7902   7.149   2.641   7.502 -1.2698  1.0691 -3.0931
   59MOL0     H 7903   7.027   2.770   7.478 -0.8485  2.7850 -0.8867
   59MOL0     H 7904   7.066   2.857   7.673  2.4352  2.0538  2.3333
   59MOL0     H 7905   7.239   2.884   7.653 -0.5099  0.4241 -1.4667
   59MOL0     H 7906   7.089   2.641   7.762  0.5194 -1.3088 -0.2054
   59MOL0     H 7907   7.263   2.633   7.712  0.8457 -0.0736  1.9200
   59MOL0     H 7908   7.327   2.723   7.915  1.3226  2.4327 -1.9397
   59MOL0     H 7909   7.215   2.860   7.885 -3.9853 -0.8468 -1.4343
   59MOL0     H 7910   7.033   2.760   7.963  1.0818 -1.2343 -3.8887
   59MOL0     H 7911   7.113   2.610   8.000 -2.8215  0.1035 -1.0185
   59MOL0     H 7912   7.101   2.736   8.199  0.4808  1.7433  1.6862
   59MOL0     H 7913   7.192   2.876   8.119  0.4772 -0.2703  2.1626
   59MOL0     H 7914   7.301   2.595   8.183  1.7313 -0.0408 -1.1979
   59MOL0     H 7915   7.408   2.718   8.131  2.2649 -1.4118  2.3354
   59MOL0     H 7916   7.176   2.624   8.427  0.5592 -1.6650  1.4983
   59MOL0     H 7917   7.316   2.755   8.752 -0.7400  0.6900 -0.0304
   59MOL0     H 7918   7.155   2.729   8.695 -0.1664  2.1744 -1.4148
   59MOL0     H 7919   7.289   2.479   8.610 -0.7795 -0.1307  1.3725
   59MOL0     H 7920   7.397   2.539   8.733  0.8933  1.0249 -1.7039
   59MOL0     H 7921   7.100   2.497   8.745  2.0281 -0.2835 -3.8931
   59MOL0     H 7922   7.185   2.553   8.888 -0.0266  0.8816 -0.2231
   59MOL0     H 7923   7.315   2.337   8.894  0.1837  0.7162  0.1947
   59MOL0     H 7924   7.237   2.294   8.730 -1.6541  1.2666 -0.5833
   59MOL0     H 7925   7.232   2.053   8.815 -0.1607  0.6022 -0.1978
   59MOL0     H 7926   7.270   1.858   8.984  1.5222  0.4282  1.2091
   59MOL0     H 7927   6.857   1.882   9.377 -2.1463  1.5412  0.6692
   59MOL0     H 7928   6.644   1.997   9.286 -1.0058 -0.4813  0.3013
   59MOL0     H 7929   6.597   2.010   8.834  1.7276 -2.2825  0.2303
   59MOL0     H 7930   6.539   1.864   8.895 -0.2444  0.3639 -2.0632
   59MOL0     H 7931   6.395   2.143   8.915  2.2165  0.9056 -1.1218
   59MOL0     H 7932   6.350   2.007   8.811 -1.0045 -1.8495  0.8842
   59MOL0     H 7933   6.249   1.894   8.980 -0.3802  0.8138  1.2422
   59MOL0     H 7934   6.365   1.943   9.102 -0.9177 -0.8197 -0.3405
   59MOL0     H 7935   6.159   2.131   8.967  2.0518  1.3589  0.0352
   59MOL0     H 7936   6.249   2.164   9.104  1.2103 -1.1416  1.5034
   59MOL0     H 7937   6.128   2.026   9.248  3.1927 -0.9633  0.2337
   59MOL0     H 7938   6.070   1.925   9.117  2.1627 -0.8396  2.7941
   59MOL0     H 7939   5.896   2.075   9.213  2.0414  0.7052  2.0063
   59MOL0     H 7940   5.987   2.217   9.183  1.6510  1.4869 -1.9319
   59MOL0     H 7941   5.907   2.054   8.943  0.9396 -0.3456  1.4426
   59MOL0     H 7942   5.975   2.212   8.950  1.3200 -1.4938 -0.4590
   59MOL0     H 7943   5.744   2.267   9.097 -1.8506  1.3126 -1.5014
   59MOL0     H 7944   5.738   2.220   8.921  3.9197 -0.9275 -1.5319
   59MOL0     H 7945   6.764   1.865   8.898 -1.8943 -2.3863  0.6142
   59MOL0     H 7946   6.965   1.742   8.991  0.9238  0.7232  0.2865
   59MOL0     H 7947   7.024   2.068   9.263 -2.0342 -0.9822  0.0594
   59MOL0     H 7948   7.011   2.258   9.112  1.4284  3.1408 -5.3361
   59MOL0     H 7949   7.295   3.188   7.451  1.2808 -4.9517  3.2400
   59MOL0     H 7950   7.451   3.321   7.305  0.1796 -0.4594  1.4463
   59MOL0     H 7951   7.812   3.204   7.043 -6.5079  1.0940  0.8312
   59MOL0     H 7952   8.030   3.289   6.955 -1.1956 -1.9601  1.5963
   59MOL0     H 7953   8.108   3.307   6.571  3.4320 -2.1817 -0.4526
   59MOL0     H 7954   8.072   3.224   6.717  0.0013  0.2709  0.2816
   59MOL0     H 7955   8.308   3.234   6.669 -0.6739 -2.1117  1.0957
   59MOL0     H 7956   8.282   3.287   6.829  0.3082 -1.8784  0.6115
   59MOL0     H 7957   8.435   3.424   6.746 -1.2733 -1.5566  2.6350
   59MOL0     H 7958   8.303   3.533   6.763 -1.4296 -1.9723  1.3911
   59MOL0     H 7959   8.373   3.400   6.493 -2.0559 -0.1731 -1.2631
   59MOL0     H 7960   8.246   3.510   6.508  0.3464  0.0608 -0.7725
   59MOL0     H 7961   8.541   3.792   6.498  3.0503 -1.0451  2.3131
   59MOL0     H 7962   7.802   3.504   6.656  1.0197 -0.0652 -0.6387
   59MOL0     H 7963   7.568   3.512   6.656 -2.3530 -0.0935  0.7388
   59MOL0     H 7964   7.495   3.358   6.678 -1.1514  2.6928 -2.6281
   59MOL0     H 7965   7.489   3.481   6.810 -0.0827  1.0974 -0.3067
   60MOL0     O 7966  11.346   4.550   9.192  0.5170  0.3859  0.7229
   60MOL0     C 7967  11.358   4.466   9.282 -1.1054  0.0009  0.2307
   60MOL0     O 7968  11.479   4.410   9.310  0.1401 -0.8215 -0.3394
   60MOL0     C 7969  11.588   4.490   9.273  0.0546  0.3509  0.2461
   60MOL0     C 7970  11.695   4.433   9.193  0.0500  0.8142 -0.2513
   60MOL0     C 7971  11.805   4.515   9.156  0.2070  1.0048  0.4282
   60MOL0     C 7972  11.814   4.648   9.190 -0.7601 -1.0386 -0.1378
   60MOL0     O 7973  11.926   4.721   9.157 -0.7963  0.6407 -0.6386
   60MOL0     C 7974  11.923   4.856   9.126  0.0456  0.0797 -0.9784
   60MOL0     C 7975  12.057   4.897   9.068 -0.3297 -0.2405  1.1507
   60MOL0     C 7976  12.082   5.055   9.065 -0.2379 -0.2035  1.4944
   60MOL0     C 7977  12.221   5.094   9.016 -0.7624  0.2680  0.5548
   60MOL0     C 7978  12.288   5.220   9.062  0.1087 -0.4705  0.1514
   60MOL0     C 7979  12.213   5.340   9.008  0.7340 -0.8306 -0.2826
   60MOL0     C 7980  12.218   5.458   9.115 -0.0089 -0.0446  0.7569
   60MOL0     C 7981  12.131   5.583   9.067  1.8494 -0.1753  0.3121
   60MOL0     N 7982  12.195   5.690   8.991  0.5820  1.0113  0.2594
   60MOL0     C 7983  12.185   5.715   8.861  0.4799 -0.3139  0.4614
   60MOL0     C 7984  12.286   5.812   8.840 -0.1989  0.5328  0.5269
   60MOL0     C 7985  12.292   5.872   8.693 -0.2876 -0.1226  0.1390
   60MOL0     C 7986  12.381   5.992   8.688 -0.8073 -0.1049  0.4576
   60MOL0     C 7987  12.423   6.028   8.553  0.9294 -0.9169 -0.3128
   60MOL0     C 7988  12.503   6.158   8.558  0.7229  0.2761  0.4558
   60MOL0     O 7989  12.562   6.166   8.426  0.0272  0.7142 -0.5495
   60MOL0     C 7990  12.686   6.118   8.400 -0.2168 -0.3981 -0.9506
   60MOL0     C 7991  12.734   6.160   8.278 -0.5658 -0.1189  0.5687
   60MOL0     C 7992  12.855   6.103   8.239 -0.7504 -1.0270 -0.3378
   60MOL0     C 7993  12.926   6.010   8.317 -0.9083  0.4686  1.0401
   60MOL0     C 7994  13.053   5.954   8.269  0.2721 -0.2562 -0.9378
   60MOL0     O 7995  13.097   5.842   8.327 -0.0774 -0.1497 -0.6993
   60MOL0     C 7996  13.173   5.770   8.241 -1.0571  0.7228  0.5563
   60MOL0     C 7997  13.130   5.687   8.142 -0.1795 -0.2027  0.0374
   60MOL0     C 7998  13.213   5.600   8.073  0.0658 -0.5087 -0.5433
   60MOL0     C 7999  13.346   5.588   8.111 -0.3167 -0.4450  0.9319
   60MOL0     O 8000  13.414   5.499   8.027 -0.1110  0.0641  1.6435
   60MOL0     C 8001  13.557   5.488   8.049  0.0498 -0.5988  0.0147
   60MOL0     C 8002  13.599   5.395   7.935  0.2553  0.1802  1.1931
   60MOL0     C 8003  13.740   5.347   7.917 -1.2225  0.1179  0.4555
   60MOL0     C 8004  13.843   5.451   7.922 -0.4673 -0.2334  0.3492
   60MOL0     C 8005  13.826   5.560   7.819  0.8221 -0.7967  0.3934
   60MOL0     C 8006  13.946   5.647   7.801  0.7587  0.8038 -0.2891
   60MOL0     C 8007  14.071   5.585   7.731 -0.4554 -0.0736  1.2452
   60MOL0     C 8008  14.178   5.692   7.709  0.2444  0.2840  0.1538
   60MOL0    Cl 8009  14.113   5.837   7.606 -0.3986 -0.3092  0.1455
   60MOL0     C 8010  13.397   5.667   8.211  0.1699  0.5938  0.3694
   60MOL0     C 8011  13.311   5.753   8.274  0.7508  0.2458 -0.0357
   60MOL0     O 8012  13.100   6.003   8.167  0.8957 -0.4141 -0.0438
   60MOL0     C 8013  12.867   5.971   8.440  0.3748 -0.0162  0.0394
   60MOL0     C 8014  12.753   6.036   8.490  0.4095  0.6585 -0.1276
   60MOL0     N 8015  12.352   5.836   8.957 -1.1465 -1.0382 -0.0828
   60MOL0     N 8016  12.293   5.772   9.045  0.1043 -0.6573 -0.0897
   60MOL0     C 8017  11.721   4.704   9.284 -0.0977  0.1720  0.3064
   60MOL0     C 8018  11.611   4.622   9.319  1.6353  1.6479  0.4605
   60MOL0     C 8019  11.238   4.421   9.347  0.1028  0.6762 -0.2338
   60MOL0     C 8020  11.255   4.288   9.404  0.7695 -0.8431 -0.2315
   60MOL0     C 8021  11.147   4.224   9.466 -0.3925 -0.1939 -0.9606
   60MOL0     C 8022  11.021   4.289   9.480  0.1949 -1.0339  0.6198
   60MOL0     O 8023  10.906   4.238   9.534  0.4433 -0.9801 -0.3859
   60MOL0     C 8024  10.924   4.114   9.605 -0.0512 -0.5990  0.0363
   60MOL0     C 8025  10.802   4.074   9.682 -0.0486  0.0847 -0.1362
   60MOL0     C 8026  10.810   3.936   9.750  1.2359 -0.3905  0.1573
   60MOL0     C 8027  10.667   3.917   9.821 -0.3024  0.4806 -0.2170
   60MOL0     C 8028  10.622   3.782   9.834 -0.1510  0.3497  0.6875
   60MOL0     C 8029  10.569   3.680   9.845  0.9072  0.3491  0.4174
   60MOL0     C 8030  11.013   4.420   9.431  0.6663  0.0876  0.1028
   60MOL0     C 8031  11.110   4.479   9.350 -1.0244 -0.3627 -0.3749
   60MOL0     C 8032  11.085   4.615   9.298 -0.4327  0.0499 -0.0546
   60MOL0     H 8033  11.684   4.329   9.167  0.4348  1.1278 -1.7574
   60MOL0     H 8034  11.895   4.484   9.102  2.5160  4.6695  1.7587
   60MOL0     H 8035  11.841   4.861   9.054 -1.4045 -0.0472  0.6069
   60MOL0     H 8036  11.895   4.924   9.208  0.2617  0.7072 -1.4179
   60MOL0     H 8037  12.068   4.858   8.966 -1.7270  1.2545  0.3851
   60MOL0     H 8038  12.137   4.847   9.123 -0.0657 -1.4658 -0.2793
   60MOL0     H 8039  12.058   5.093   9.165  0.5352 -0.9462  1.9867
   60MOL0     H 8040  12.009   5.104   9.001  3.0370  1.4417 -1.3192
   60MOL0     H 8041  12.281   5.006   9.042 -4.5193 -3.0774 -0.9355
   60MOL0     H 8042  12.212   5.092   8.907  3.0775 -0.7851  0.1074
   60MOL0     H 8043  12.293   5.228   9.171 -0.4187  2.8162  0.0346
   60MOL0     H 8044  12.389   5.226   9.019  1.2596 -3.3932  2.0804
   60MOL0     H 8045  12.247   5.357   8.905  1.3449 -4.5473 -0.8235
   60MOL0     H 8046  12.105   5.323   9.009  0.2721  1.6455  1.1739
   60MOL0     H 8047  12.324   5.485   9.129  0.4367 -1.3597  0.0698
   60MOL0     H 8048  12.172   5.432   9.210 -0.3327  2.7707  1.4650
   60MOL0     H 8049  12.055   5.535   9.004  1.3109  0.0809  0.7631
   60MOL0     H 8050  12.078   5.625   9.152  2.4936  1.6843 -0.1453
   60MOL0     H 8051  12.134   5.662   8.782 -0.4380 -0.0004  0.8272
   60MOL0     H 8052  12.330   5.797   8.623 -0.4626 -1.0623  1.0311
   60MOL0     H 8053  12.192   5.893   8.654 -0.6175  1.7734  1.8043
   60MOL0     H 8054  12.316   6.065   8.737 -2.2586 -0.6542 -0.5574
   60MOL0     H 8055  12.468   5.982   8.754  1.3356  3.2212 -1.5725
   60MOL0     H 8056  12.328   6.035   8.500  1.6759 -1.1005 -1.7503
   60MOL0     H 8057  12.474   5.941   8.509 -1.6226 -3.4737  1.4039
   60MOL0     H 8058  12.578   6.157   8.637  2.2481  0.5324 -0.9369
   60MOL0     H 8059  12.443   6.246   8.584  2.6326  1.8872 -0.3658
   60MOL0     H 8060  12.672   6.230   8.223 -2.2085 -1.1804  1.0150
   60MOL0     H 8061  12.899   6.132   8.144  0.6349 -0.6054  0.3945
   60MOL0     H 8062  13.030   5.689   8.101  0.1726  1.4556 -0.8259
   60MOL0     H 8063  13.166   5.536   7.999 -0.1053  0.3602 -1.2027
   60MOL0     H 8064  13.610   5.584   8.038  0.2690 -0.5756  1.1659
   60MOL0     H 8065  13.563   5.444   8.149  0.5193  0.0262  0.2722
   60MOL0     H 8066  13.550   5.301   7.962  1.3518 -0.5659  0.6920
   60MOL0     H 8067  13.560   5.424   7.837  1.6032 -2.3654 -0.2037
   60MOL0     H 8068  13.776   5.286   8.000 -0.6811  0.7511  0.6886
   60MOL0     H 8069  13.753   5.290   7.825  4.1044  1.2983  0.1973
   60MOL0     H 8070  13.941   5.409   7.901 -0.0194  1.0400 -0.1771
   60MOL0     H 8071  13.833   5.493   8.023  0.4543  4.1690 -1.1832
   60MOL0     H 8072  13.735   5.619   7.836  0.5681 -0.4308 -1.9265
   60MOL0     H 8073  13.795   5.519   7.722 -0.2284 -0.9653  0.7840
   60MOL0     H 8074  13.928   5.734   7.737  0.3041  0.2473 -0.9359
   60MOL0     H 8075  13.958   5.696   7.898 -2.2951 -0.3985  0.8088
   60MOL0     H 8076  14.050   5.544   7.632  1.3735  1.8405 -0.0228
   60MOL0     H 8077  14.126   5.515   7.794  1.5036  0.4244  0.1813
   60MOL0     H 8078  14.215   5.716   7.809  0.2794 -0.5180  0.3367
   60MOL0     H 8079  14.264   5.648   7.659  1.9607  1.0793  2.2714
   60MOL0     H 8080  13.501   5.655   8.239  0.7786  1.5416 -1.3129
   60MOL0     H 8081  13.348   5.810   8.358  0.5223  0.8587 -0.3452
   60MOL0     H 8082  12.916   5.904   8.511  1.4897  0.3099 -0.4009
   60MOL0     H 8083  12.697   6.006   8.578 -0.1855  0.2565 -0.6388
   60MOL0     H 8084  11.744   4.803   9.321  0.1179 -0.6253  2.4220
   60MOL0     H 8085  11.535   4.668   9.381 -0.3082  0.3732 -0.8660
   60MOL0     H 8086  11.348   4.234   9.398  1.4690  0.3327 -0.3422
   60MOL0     H 8087  11.159   4.121   9.496  1.6435  0.5503  1.1046
   60MOL0     H 8088  11.018   4.117   9.662  1.3226  1.6463 -2.1223
   60MOL0     H 8089  10.943   4.037   9.530  0.9174 -2.1171  1.7623
   60MOL0     H 8090  10.726   4.061   9.604  2.7832  1.1345 -3.3352
   60MOL0     H 8091  10.766   4.145   9.757 -1.9953 -1.2818  0.3158
   60MOL0     H 8092  10.878   3.938   9.835  0.8702  2.7370  0.4909
   60MOL0     H 8093  10.838   3.858   9.679  0.8164  0.5221 -1.0691
   60MOL0     H 8094  10.664   3.974   9.914 -1.3927 -0.2863  0.2440
   60MOL0     H 8095  10.593   3.959   9.753  0.0197  2.1555  0.4320
   60MOL0     H 8096  10.514   3.588   9.839 -1.3064  1.6278 -0.2280
   60MOL0     H 8097  10.913   4.460   9.442 -0.0013 -0.7481 -2.2596
   60MOL0     H 8098  11.051   4.617   9.194  1.5166 -2.0130 -0.8130
   60MOL0     H 8099  11.013   4.663   9.366 -1.6537 -0.9552 -0.6052
   60MOL0     H 8100  11.173   4.680   9.299 -2.1084  2.5069 -0.2087
   61MOL0     O 8101   4.208   5.927   9.447 -0.6973  0.3057 -0.0484
   61MOL0     C 8102   4.194   6.029   9.379 -1.2024 -0.5730  0.1790
   61MOL0     O 8103   4.249   6.151   9.420  0.3450 -0.2813 -0.5997
   61MOL0     C 8104   4.329   6.147   9.532  0.6452 -1.0100 -0.2261
   61MOL0     C 8105   4.299   6.204   9.657  0.0799  0.6444  0.3316
   61MOL0     C 8106   4.382   6.203   9.766 -0.2070 -0.6426 -0.1957
   61MOL0     C 8107   4.508   6.136   9.758 -0.2323  0.7290  0.5064
   61MOL0     O 8108   4.607   6.154   9.852 -1.1814 -0.9022 -0.1887
   61MOL0     C 8109   4.661   6.291   9.860 -0.2856 -0.3041  0.1493
   61MOL0     C 8110   4.730   6.322   9.999 -0.4974 -0.1809 -0.1190
   61MOL0     C 8111   4.880   6.266  10.034  1.1614 -0.3758 -0.4423
   61MOL0     C 8112   4.979   6.334   9.947 -0.9890  0.0712 -0.2147
   61MOL0     C 8113   5.126   6.291   9.970  0.4128  0.2182 -0.3552
   61MOL0     C 8114   5.223   6.354   9.871 -1.3831  1.4514 -0.3174
   61MOL0     C 8115   5.367   6.305   9.909 -0.3259  0.1466 -0.0598
   61MOL0     C 8116   5.470   6.342   9.805  0.3593 -1.1086  0.2783
   61MOL0     N 8117   5.609   6.343   9.854  0.1858  0.5455  0.0733
   61MOL0     C 8118   5.705   6.240   9.838 -0.2126 -0.5402  0.4933
   61MOL0     C 8119   5.813   6.276   9.915 -0.3204 -0.1242  0.0978
   61MOL0     C 8120   5.946   6.197   9.933  0.4224 -0.1145  1.1804
   61MOL0     C 8121   6.003   6.232  10.070 -0.7672  0.2549 -0.2673
   61MOL0     C 8122   5.930   6.166  10.179 -0.8172 -0.7171 -0.2710
   61MOL0     C 8123   5.994   6.168  10.322  0.0093  0.0889 -0.0797
   61MOL0     O 8124   6.083   6.050  10.326  0.0204 -0.2019 -0.6233
   61MOL0     C 8125   6.211   6.040  10.367 -0.4239 -0.1802 -0.3636
   61MOL0     C 8126   6.273   6.129  10.451 -0.0683  0.0330 -0.2356
   61MOL0     C 8127   6.402   6.121  10.498  0.1414  0.3775  0.5639
   61MOL0     C 8128   6.486   6.026  10.446  0.8750  1.0652  1.0724
   61MOL0     C 8129   6.625   6.005  10.483  0.0401  0.5441 -0.9270
   61MOL0     O 8130   6.674   5.876  10.475 -0.6617  0.3886 -0.1172
   61MOL0     C 8131   6.795   5.850  10.532  1.0132  0.1391 -0.7874
   61MOL0     C 8132   6.901   5.929  10.508 -0.8337 -0.2786  0.0031
   61MOL0     C 8133   7.030   5.904  10.559 -0.2977  0.3705 -0.6319
   61MOL0     C 8134   7.050   5.795  10.648 -0.2805 -0.2092  1.0226
   61MOL0     O 8135   7.181   5.781  10.684 -0.4233  0.3062  0.3907
   61MOL0     C 8136   7.212   5.672  10.768 -0.0293  0.1238  0.3310
   61MOL0     C 8137   7.363   5.675  10.820 -0.0355 -0.2055 -0.6618
   61MOL0     C 8138   7.448   5.676  10.696  0.5626 -0.0383 -0.2007
   61MOL0     C 8139   7.598   5.675  10.747  0.7636  0.4889  0.0720
   61MOL0     C 8140   7.675   5.779  10.665  0.6504 -0.5599 -0.2497
   61MOL0     C 8141   7.709   5.904  10.745 -0.0655  0.0358  0.1136
   61MOL0     C 8142   7.785   6.011  10.669 -0.9915  0.2175  0.5799
   61MOL0     C 8143   7.772   6.159  10.725 -0.2195 -0.1068 -0.5967
   61MOL0    Cl 8144   7.872   6.155  10.873 -0.3997  0.2674  0.2578
   61MOL0     C 8145   6.932   5.711  10.676  0.3093  0.3701 -0.3493
   61MOL0     C 8146   6.806   5.742  10.621  0.0089  1.0952  1.1631
   61MOL0     O 8147   6.676   6.088  10.555 -0.7866  0.0114 -0.6440
   61MOL0     C 8148   6.429   5.935  10.356 -0.5218 -0.6133  0.4294
   61MOL0     C 8149   6.292   5.934  10.322 -0.3772  1.5343 -0.7210
   61MOL0     N 8150   5.773   6.399   9.984  0.8513  0.2124 -0.1462
   61MOL0     N 8151   5.653   6.430   9.938 -0.0895  0.4881  0.5819
   61MOL0     C 8152   4.546   6.080   9.629  0.5373 -0.1068  0.8154
   61MOL0     C 8153   4.462   6.092   9.518 -0.2830  0.3287 -0.4086
   61MOL0     C 8154   4.106   6.040   9.259 -0.6724  0.1535  1.1763
   61MOL0     C 8155   4.053   6.163   9.215 -0.1888 -0.0831  0.4795
   61MOL0     C 8156   3.992   6.185   9.090  0.2834  0.5615 -0.8509
   61MOL0     C 8157   3.947   6.082   9.009 -0.8381  0.6529 -0.1108
   61MOL0     O 8158   3.881   6.113   8.895 -0.0864  0.6482 -0.6848
   61MOL0     C 8159   3.966   6.149   8.788  0.1131  0.6313 -0.1866
   61MOL0     C 8160   3.998   6.025   8.707  0.3950 -0.4026 -0.0520
   61MOL0     C 8161   4.063   6.043   8.570  1.4060  0.1401 -0.0875
   61MOL0     C 8162   4.079   5.913   8.499 -0.8664  0.5904  0.4262
   61MOL0     C 8163   3.952   5.854   8.460 -0.3736  0.3080  0.1826
   61MOL0     C 8164   3.845   5.819   8.420  0.4590 -0.4011  0.2620
   61MOL0     C 8165   3.998   5.951   9.052 -0.1721  0.2631  0.5433
   61MOL0     C 8166   4.069   5.930   9.174 -0.2696 -0.0133  0.0024
   61MOL0     C 8167   4.131   5.786   9.197 -0.3809 -0.7131  0.6087
   61MOL0     H 8168   4.202   6.252   9.664  0.3726  2.0004 -3.2439
   61MOL0     H 8169   4.359   6.254   9.859  0.0042 -1.9575  0.6047
   61MOL0     H 8170   4.734   6.299   9.779  0.2015  0.2036  0.6276
   61MOL0     H 8171   4.585   6.368   9.841  1.7316  1.5355 -1.0156
   61MOL0     H 8172   4.668   6.277  10.077 -1.7105 -0.0551 -0.9794
   61MOL0     H 8173   4.730   6.429  10.019  0.8058 -0.3404  0.8022
   61MOL0     H 8174   4.882   6.158  10.013  1.7735 -0.3842 -0.3573
   61MOL0     H 8175   4.907   6.283  10.139 -1.9169 -1.8659  0.7327
   61MOL0     H 8176   4.954   6.310   9.843  1.0839  0.4731 -0.8596
   61MOL0     H 8177   4.979   6.442   9.960 -0.5207 -0.0997  1.5856
   61MOL0     H 8178   5.161   6.300  10.073  1.3574  2.6566 -0.8153
   61MOL0     H 8179   5.130   6.182   9.964  0.9520  0.1612  0.7174
   61MOL0     H 8180   5.202   6.308   9.774  0.2438  0.6977 -0.3476
   61MOL0     H 8181   5.220   6.463   9.857 -2.1276  1.4785  0.0131
   61MOL0     H 8182   5.387   6.200   9.930 -0.8405 -0.2052 -1.2594
   61MOL0     H 8183   5.397   6.361   9.999 -0.0381  3.7909 -2.1980
   61MOL0     H 8184   5.466   6.275   9.718  0.0109 -1.3064  0.4445
   61MOL0     H 8185   5.438   6.438   9.764  0.5242 -1.4738 -0.7339
   61MOL0     H 8186   5.713   6.144   9.788  2.4569  1.1535 -2.7887
   61MOL0     H 8187   5.934   6.089   9.936 -0.6063  0.0252  3.3242
   61MOL0     H 8188   6.018   6.217   9.853  1.8129 -2.0616  1.8731
   61MOL0     H 8189   6.104   6.190  10.075 -0.3824  1.2704  1.1616
   61MOL0     H 8190   6.013   6.341  10.077  1.9142  0.0087  1.0040
   61MOL0     H 8191   5.908   6.063  10.151  1.1499 -1.8094  1.9248
   61MOL0     H 8192   5.838   6.223  10.194 -1.9359 -2.3360 -0.7282
   61MOL0     H 8193   5.920   6.171  10.403  1.6934  2.6273  1.4995
   61MOL0     H 8194   6.049   6.262  10.326  2.0602 -1.0951  1.5975
   61MOL0     H 8195   6.212   6.209  10.492  0.2404  0.0984  0.1010
   61MOL0     H 8196   6.441   6.183  10.579 -3.1436  0.4281  2.2690
   61MOL0     H 8197   6.890   6.013  10.440  0.6517  1.2031  1.5037
   61MOL0     H 8198   7.111   5.977  10.550 -0.2190  0.5838  1.3247
   61MOL0     H 8199   7.147   5.671  10.857  1.8935 -0.6687  1.7889
   61MOL0     H 8200   7.198   5.578  10.713 -0.7147 -0.1612  0.9715
   61MOL0     H 8201   7.388   5.770  10.869  1.7372 -0.8234 -0.2679
   61MOL0     H 8202   7.385   5.585  10.878 -2.9794 -0.8895 -0.4738
   61MOL0     H 8203   7.417   5.581  10.651  0.7369  0.4254 -1.3346
   61MOL0     H 8204   7.429   5.767  10.638 -0.5555 -0.3822 -0.4065
   61MOL0     H 8205   7.639   5.575  10.730 -1.1229 -0.2029 -0.6330
   61MOL0     H 8206   7.605   5.690  10.855  0.7849  0.0746  0.1284
   61MOL0     H 8207   7.617   5.813  10.578  0.1327  4.7232  1.7723
   61MOL0     H 8208   7.772   5.739  10.636  0.9903 -2.3838  2.9236
   61MOL0     H 8209   7.610   5.941  10.774  0.1967  1.6688 -0.9438
   61MOL0     H 8210   7.766   5.882  10.835  0.3430  0.6990  0.0197
   61MOL0     H 8211   7.768   6.014  10.561  2.7659 -1.3669 -0.2061
   61MOL0     H 8212   7.892   5.990  10.679 -0.6255  0.8726 -1.5655
   61MOL0     H 8213   7.824   6.236  10.667  2.7894  0.5717  2.6407
   61MOL0     H 8214   7.668   6.188  10.743 -0.8764 -1.3839 -2.1532
   61MOL0     H 8215   6.934   5.618  10.733  1.9121  0.1993 -0.6542
   61MOL0     H 8216   6.729   5.666  10.625  1.1142 -0.1836 -0.3807
   61MOL0     H 8217   6.497   5.854  10.330 -1.1134 -0.9073 -0.2395
   61MOL0     H 8218   6.253   5.852  10.263 -0.2835  0.6664  0.3930
   61MOL0     H 8219   4.642   6.031   9.644  0.1268 -1.6943 -1.2888
   61MOL0     H 8220   4.492   6.061   9.418  1.5416  0.2256  0.1289
   61MOL0     H 8221   4.063   6.253   9.274 -0.7610  0.5596 -0.3931
   61MOL0     H 8222   3.965   6.285   9.059 -0.5230  0.1555 -1.5258
   61MOL0     H 8223   4.065   6.183   8.819 -0.0971  0.8793  0.2211
   61MOL0     H 8224   3.926   6.228   8.725  0.5549  0.4776 -0.6645
   61MOL0     H 8225   3.904   5.969   8.701  1.2301 -1.8867  0.2135
   61MOL0     H 8226   4.060   5.955   8.763 -0.7657 -1.8393 -0.5201
   61MOL0     H 8227   4.165   6.079   8.582  1.8612 -1.2186  0.2141
   61MOL0     H 8228   4.014   6.119   8.508  4.1968  1.3598 -0.9318
   61MOL0     H 8229   4.138   5.936   8.410  0.9782  0.4308  1.5647
   61MOL0     H 8230   4.127   5.842   8.567  0.9272  3.1047  1.9672
   61MOL0     H 8231   3.750   5.781   8.386  0.1932  0.1295  0.4035
   61MOL0     H 8232   3.981   5.866   8.986 -1.6487  1.6943 -1.0150
   61MOL0     H 8233   4.239   5.792   9.212 -0.1639  1.3241 -1.3394
   61MOL0     H 8234   4.104   5.744   9.295 -0.8260 -1.8768  0.0196
   61MOL0     H 8235   4.119   5.722   9.109  1.2315  0.5442 -0.5682
   62MOL0     O 8236   2.214   9.750   2.471 -0.0965 -0.3049  0.5577
   62MOL0     C 8237   2.177   9.852   2.421  0.0226 -1.0288  0.3766
   62MOL0     O 8238   2.088   9.852   2.312 -1.1645  0.3233  0.2556
   62MOL0     C 8239   2.030   9.737   2.274  0.3672  0.8098 -0.1894
   62MOL0     C 8240   1.893   9.708   2.316  0.6178  0.5515  0.0400
   62MOL0     C 8241   1.829   9.597   2.261  0.2154 -0.1848 -0.7072
   62MOL0     C 8242   1.886   9.518   2.161  0.0997 -1.0284  0.1191
   62MOL0     O 8243   1.830   9.398   2.116 -0.3723 -0.5614  0.4830
   62MOL0     C 8244   1.904   9.303   2.039 -0.3904  0.2669  0.8029
   62MOL0     C 8245   1.811   9.205   1.971  0.2274  0.1510  0.4947
   62MOL0     C 8246   1.795   9.078   2.058  0.2828 -0.6535  0.1283
   62MOL0     C 8247   1.667   9.068   2.137 -0.3449 -0.6532 -0.3514
   62MOL0     C 8248   1.619   8.927   2.167 -0.4867 -0.1861  0.4716
   62MOL0     C 8249   1.533   8.869   2.057  0.2119  0.3057  0.2899
   62MOL0     C 8250   1.466   8.740   2.098  0.4138  0.8259 -0.3793
   62MOL0     C 8251   1.560   8.622   2.077 -0.0933  0.4407 -0.8275
   62MOL0     N 8252   1.480   8.501   2.087  0.1554  0.3549 -0.4649
   62MOL0     C 8253   1.428   8.445   2.202  0.2232 -0.3155 -0.6264
   62MOL0     C 8254   1.358   8.338   2.168 -0.7531  0.9832  0.8657
   62MOL0     C 8255   1.288   8.242   2.259  0.0807 -0.1129  0.2232
   62MOL0     C 8256   1.189   8.322   2.345  0.3827 -0.3602 -0.2005
   62MOL0     C 8257   1.067   8.382   2.267 -1.3635 -0.0216  0.8278
   62MOL0     C 8258   0.961   8.271   2.259  0.4215 -0.7098  0.9037
   62MOL0     O 8259   0.844   8.335   2.208  0.3340  0.0130  0.8570
   62MOL0     C 8260   0.743   8.246   2.163 -0.0287 -0.6625  0.5929
   62MOL0     C 8261   0.656   8.287   2.058 -0.5498  0.2226  0.3771
   62MOL0     C 8262   0.569   8.201   1.995 -0.0428  0.1827 -0.0561
   62MOL0     C 8263   0.565   8.064   2.028  1.3710  0.0907  0.6233
   62MOL0     C 8264   0.494   7.968   1.944  1.8635 -0.4966 -0.6838
   62MOL0     O 8265   0.393   8.016   1.867 -0.4928  0.0842 -0.2749
   62MOL0     C 8266   0.298   7.948   1.803 -0.1332  0.2644 -0.1363
   62MOL0     C 8267   0.229   8.015   1.698 -0.0895  0.5255 -0.0171
   62MOL0     C 8268   0.135   7.956   1.613  0.3512 -0.6929 -0.0985
   62MOL0     C 8269   0.098   7.825   1.644  1.3236 -1.0968  0.5243
   62MOL0     O 8270   0.005   7.756   1.571  0.4990 -0.7437  0.6378
   62MOL0     C 8271  -0.057   7.794   1.453  0.7599  0.0169  0.2871
   62MOL0     C 8272  -0.156   7.694   1.385  0.6925  0.0049  0.5182
   62MOL0     C 8273  -0.275   7.644   1.466  0.4648 -0.2702  0.9012
   62MOL0     C 8274  -0.383   7.755   1.505  0.0394  0.6675 -0.9179
   62MOL0     C 8275  -0.460   7.708   1.634 -0.2909  0.2124 -0.7097
   62MOL0     C 8276  -0.385   7.734   1.774  0.9412  0.0174 -0.3712
   62MOL0     C 8277  -0.355   7.883   1.802 -1.0037  0.5019 -0.3738
   62MOL0     C 8278  -0.325   7.918   1.955 -0.3934  0.9307 -0.0383
   62MOL0    Cl 8279  -0.462   7.905   2.072  0.3538  0.0800  0.2828
   62MOL0     C 8280   0.162   7.757   1.749 -0.2903 -0.0406 -0.4445
   62MOL0     C 8281   0.260   7.815   1.830  0.5171 -0.1622 -0.5766
   62MOL0     O 8282   0.512   7.854   1.966 -0.4506  0.2059  0.5124
   62MOL0     C 8283   0.642   8.026   2.146 -0.2319  0.6376  0.8984
   62MOL0     C 8284   0.731   8.115   2.205  0.6010  0.7464 -0.1226
   62MOL0     N 8285   1.363   8.327   2.024  0.0974  0.4503 -0.0146
   62MOL0     N 8286   1.428   8.429   1.979 -1.1617  0.1026 -0.8182
   62MOL0     C 8287   2.015   9.556   2.107  0.5546 -0.8953  0.7974
   62MOL0     C 8288   2.082   9.656   2.176  0.2459  1.1743  0.1290
   62MOL0     C 8289   2.230   9.992   2.449  0.8776  0.2446  0.0257
   62MOL0     C 8290   2.188  10.105   2.373  0.2793 -0.2761 -0.8824
   62MOL0     C 8291   2.221  10.236   2.420 -0.3979  0.2177 -0.5241
   62MOL0     C 8292   2.321  10.253   2.512  0.1053 -0.3419  0.0985
   62MOL0     O 8293   2.376  10.374   2.553  0.5044 -0.2075  1.0095
   62MOL0     C 8294   2.372  10.480   2.457  0.3035  0.3293 -0.2662
   62MOL0     C 8295   2.441  10.602   2.506  0.3012  0.8439  0.1679
   62MOL0     C 8296   2.498  10.698   2.393 -0.6368 -0.3929 -0.2629
   62MOL0     C 8297   2.448  10.844   2.424 -0.6842  0.7537  0.0087
   62MOL0     C 8298   2.521  10.914   2.535 -0.4124  0.9613 -0.8518
   62MOL0     C 8299   2.575  10.961   2.631  0.0051 -0.2526  0.4674
   62MOL0     C 8300   2.367  10.142   2.579 -0.0623 -0.2880 -0.9848
   62MOL0     C 8301   2.321  10.013   2.555  0.0149  0.5581 -0.1771
   62MOL0     C 8302   2.399   9.910   2.633 -1.1617  0.2837 -0.7604
   62MOL0     H 8303   1.849   9.775   2.390  0.5636  0.4651  0.0872
   62MOL0     H 8304   1.728   9.566   2.287 -0.3724 -0.3590 -3.0336
   62MOL0     H 8305   1.953   9.351   1.954  1.8154  1.2412  2.5304
   62MOL0     H 8306   1.977   9.249   2.100 -0.4346 -0.9711 -0.1851
   62MOL0     H 8307   1.852   9.182   1.873  1.3111 -0.4222  1.0672
   62MOL0     H 8308   1.716   9.255   1.951  1.0787  0.8312 -2.2900
   62MOL0     H 8309   1.888   9.051   2.108  1.4194  0.1471 -1.4462
   62MOL0     H 8310   1.785   8.996   1.986 -5.0352  1.4379 -2.0547
   62MOL0     H 8311   1.677   9.120   2.234  1.1934 -2.5004  0.5489
   62MOL0     H 8312   1.578   9.112   2.091 -1.3286 -0.0241  1.9678
   62MOL0     H 8313   1.712   8.870   2.168  0.8363  1.8794  2.4533
   62MOL0     H 8314   1.567   8.915   2.263  0.7633 -2.9013  0.9145
   62MOL0     H 8315   1.457   8.941   2.025  1.6242  0.8552 -2.0787
   62MOL0     H 8316   1.600   8.858   1.971 -1.0244  0.3662 -0.7141
   62MOL0     H 8317   1.379   8.726   2.032 -2.1188  1.2649  2.6413
   62MOL0     H 8318   1.427   8.750   2.199 -0.1070  1.0581 -0.5993
   62MOL0     H 8319   1.602   8.625   1.976  0.9803  1.0937 -0.3791
   62MOL0     H 8320   1.633   8.619   2.159  2.3458 -4.4521 -2.7148
   62MOL0     H 8321   1.446   8.477   2.305 -0.4060  0.7349 -0.8312
   62MOL0     H 8322   1.242   8.163   2.199  0.7398  0.4320 -1.0428
   62MOL0     H 8323   1.364   8.186   2.316 -1.2422 -3.1089 -0.7730
   62MOL0     H 8324   1.142   8.261   2.423  0.8642  3.9103  3.8817
   62MOL0     H 8325   1.241   8.392   2.412 -0.5996 -0.4933  0.7335
   62MOL0     H 8326   1.105   8.414   2.170 -0.2068  0.3353  1.3851
   62MOL0     H 8327   1.020   8.465   2.321 -3.8523 -1.1192  0.4819
   62MOL0     H 8328   0.943   8.235   2.360 -1.1386 -4.5178 -0.5777
   62MOL0     H 8329   1.001   8.198   2.188  2.9327  1.2350  0.1407
   62MOL0     H 8330   0.667   8.385   2.013 -0.3503 -0.4412 -1.0715
   62MOL0     H 8331   0.523   8.236   1.903  0.4567 -3.5313 -1.9078
   62MOL0     H 8332   0.270   8.107   1.656 -2.5833  0.8619 -1.9211
   62MOL0     H 8333   0.080   8.009   1.535  2.9985  3.4565  0.5267
   62MOL0     H 8334  -0.112   7.887   1.463 -1.4734 -1.0243 -1.4175
   62MOL0     H 8335   0.023   7.805   1.380  3.4030  1.1387  3.1413
   62MOL0     H 8336  -0.199   7.736   1.293  0.2739 -0.7635  0.3536
   62MOL0     H 8337  -0.110   7.598   1.364  0.7295  0.0087  0.5835
   62MOL0     H 8338  -0.326   7.563   1.413 -1.0773 -0.8356  3.0971
   62MOL0     H 8339  -0.245   7.601   1.562 -1.0541  0.3710  1.6992
   62MOL0     H 8340  -0.457   7.771   1.425 -1.8778  2.9717  1.1452
   62MOL0     H 8341  -0.329   7.848   1.521  0.8756  0.2899 -1.4573
   62MOL0     H 8342  -0.469   7.599   1.642  1.6452  0.0954  0.5555
   62MOL0     H 8343  -0.561   7.750   1.632 -0.7477 -0.8340 -0.2634
   62MOL0     H 8344  -0.449   7.697   1.854  1.8696  0.0577  0.4166
   62MOL0     H 8345  -0.296   7.671   1.767 -0.5984 -2.4124  0.6620
   62MOL0     H 8346  -0.440   7.938   1.762  1.0958  4.2911 -0.1322
   62MOL0     H 8347  -0.266   7.920   1.749 -0.6662 -0.3713 -0.4401
   62MOL0     H 8348  -0.239   7.857   1.985 -0.6728  0.2570 -0.6061
   62MOL0     H 8349  -0.313   8.027   1.955  2.5966  0.6990  1.2998
   62MOL0     H 8350   0.120   7.657   1.759  0.5925 -0.3822 -0.0812
   62MOL0     H 8351   0.306   7.753   1.906  2.3032 -0.0587 -1.5286
   62MOL0     H 8352   0.645   7.923   2.182  2.1582  0.0678 -0.6429
   62MOL0     H 8353   0.788   8.060   2.279  0.5415 -0.6606 -1.0905
   62MOL0     H 8354   2.064   9.509   2.022  1.0930  0.1317  0.5121
   62MOL0     H 8355   2.184   9.657   2.140  0.8566 -0.8006  1.6509
   62MOL0     H 8356   2.121  10.092   2.289 -0.3715 -0.1661 -0.3902
   62MOL0     H 8357   2.190  10.325   2.365  3.0462  1.1127 -1.2201
   62MOL0     H 8358   2.269  10.499   2.425 -0.1843 -1.5811  0.0252
   62MOL0     H 8359   2.421  10.443   2.367 -2.6870  0.5415 -2.1152
   62MOL0     H 8360   2.524  10.588   2.576  0.9316 -1.4816 -0.9556
   62MOL0     H 8361   2.367  10.651   2.571  1.0882 -0.2702  1.9861
   62MOL0     H 8362   2.457  10.677   2.294  1.3385 -0.3303 -1.1605
   62MOL0     H 8363   2.608  10.695   2.387 -0.3513 -0.2960  3.1777
   62MOL0     H 8364   2.466  10.902   2.333  2.8952  2.9566  1.8826
   62MOL0     H 8365   2.339  10.842   2.431 -0.5587 -1.5886  3.8777
   62MOL0     H 8366   2.642  11.003   2.703  2.9627 -0.3231 -2.0476
   62MOL0     H 8367   2.440  10.163   2.657  1.6954 -0.7484 -2.4199
   62MOL0     H 8368   2.425   9.815   2.585 -1.3334  0.5991 -1.4922
   62MOL0     H 8369   2.492   9.950   2.676 -0.9908  0.2815 -1.1244
   62MOL0     H 8370   2.331   9.887   2.716 -0.3250  0.3510 -0.0377
   63MOL0     O 8371   5.987   6.184   9.575 -0.4866 -0.6554 -0.1599
   63MOL0     C 8372   6.099   6.217   9.617 -0.7498 -0.2318 -0.0733
   63MOL0     O 8373   6.151   6.343   9.607 -0.2970  0.3357  0.1838
   63MOL0     C 8374   6.064   6.448   9.584 -0.2277  0.2037 -0.4273
   63MOL0     C 8375   5.977   6.501   9.675  1.0467  0.0614 -1.1674
   63MOL0     C 8376   5.903   6.620   9.645 -0.6694 -0.0654  0.1768
   63MOL0     C 8377   5.915   6.678   9.518 -0.4685 -0.7099 -1.0526
   63MOL0     O 8378   5.834   6.779   9.495  0.0494  0.2275 -0.0231
   63MOL0     C 8379   5.895   6.896   9.445  0.0465  0.1037 -0.5184
   63MOL0     C 8380   5.828   7.019   9.514 -0.7473  0.4146  0.7179
   63MOL0     C 8381   5.882   7.055   9.658  0.1751 -0.6280  0.3980
   63MOL0     C 8382   6.025   7.105   9.659  0.8631 -0.2532 -0.3702
   63MOL0     C 8383   6.069   7.184   9.777  0.3604  0.2427  0.1826
   63MOL0     C 8384   6.002   7.325   9.785  0.3870 -0.5442 -0.5492
   63MOL0     C 8385   6.072   7.405   9.893  0.1619 -0.4079  0.7024
   63MOL0     C 8386   6.014   7.539   9.892  0.4055 -0.0032  0.1197
   63MOL0     N 8387   6.078   7.616  10.001 -0.7900 -0.3707 -0.5599
   63MOL0     C 8388   6.096   7.753   9.996 -0.9123 -0.6164  0.1056
   63MOL0     C 8389   6.119   7.778  10.126  0.8308 -0.2356  0.3145
   63MOL0     C 8390   6.120   7.916  10.187 -0.2282 -0.7763  0.5407
   63MOL0     C 8391   5.989   7.930  10.269 -0.1727 -0.1315  0.1756
   63MOL0     C 8392   5.947   8.078  10.301 -0.4453 -0.3186 -0.1726
   63MOL0     C 8393   6.057   8.163  10.362  0.3063  0.8167 -0.8330
   63MOL0     O 8394   6.121   8.096  10.474 -0.4252  0.7033  0.0640
   63MOL0     C 8395   6.214   8.161  10.550  0.4076 -1.0224  0.3637
   63MOL0     C 8396   6.262   8.290  10.534  0.1702 -0.3728 -0.7519
   63MOL0     C 8397   6.351   8.348  10.623 -0.6333  0.2039  0.2844
   63MOL0     C 8398   6.391   8.274  10.730  0.2939 -0.3175 -0.6443
   63MOL0     C 8399   6.490   8.334  10.824 -0.2558 -0.4464  0.1515
   63MOL0     O 8400   6.532   8.467  10.807 -0.3098 -0.0016  0.4235
   63MOL0     C 8401   6.644   8.509  10.881 -0.5690  0.2673 -0.7127
   63MOL0     C 8402   6.759   8.434  10.884 -0.9516 -0.1277  0.0637
   63MOL0     C 8403   6.875   8.469  10.961 -0.1541 -0.8875 -0.0199
   63MOL0     C 8404   6.871   8.584  11.043  0.2664 -0.2456  0.4914
   63MOL0     O 8405   6.978   8.628  11.114 -0.4644  0.0444 -0.0033
   63MOL0     C 8406   7.024   8.547  11.212  0.2086  0.6731 -0.1749
   63MOL0     C 8407   7.173   8.554  11.206  0.7057  0.1240  0.2777
   63MOL0     C 8408   7.234   8.470  11.322  0.6194  0.3067  0.0566
   63MOL0     C 8409   7.189   8.324  11.320  0.5734  0.2735  0.3758
   63MOL0     C 8410   7.280   8.240  11.414 -0.3841  0.0473  0.1214
   63MOL0     C 8411   7.218   8.227  11.565 -0.7315 -0.2060  1.0532
   63MOL0     C 8412   7.258   8.084  11.630 -0.7425  0.4777 -0.8390
   63MOL0     C 8413   7.202   8.064  11.778 -0.7834 -0.3386  0.4864
   63MOL0    Cl 8414   7.024   8.092  11.770  0.2920 -0.1203  0.3674
   63MOL0     C 8415   6.748   8.658  11.038  0.7946  0.4912 -0.0411
   63MOL0     C 8416   6.646   8.635  10.953  0.8628  0.5723 -0.1308
   63MOL0     O 8417   6.521   8.264  10.923 -0.0139  0.5033 -0.2206
   63MOL0     C 8418   6.347   8.148  10.757 -0.0171 -0.5884  0.6338
   63MOL0     C 8419   6.256   8.089  10.667  0.2400 -0.0474 -0.4656
   63MOL0     N 8420   6.135   7.665  10.207 -0.0608  0.5685  0.4550
   63MOL0     N 8421   6.111   7.574  10.131 -1.2953 -0.3782  0.2393
   63MOL0     C 8422   6.002   6.620   9.430 -0.7450  0.4556 -0.0651
   63MOL0     C 8423   6.081   6.508   9.466 -0.4857  0.1234 -0.6510
   63MOL0     C 8424   6.179   6.110   9.658  0.0162  1.1717 -1.3059
   63MOL0     C 8425   6.106   6.001   9.725  0.0397 -0.4847 -0.9443
   63MOL0     C 8426   6.177   5.888   9.772 -0.1095  0.3652  0.2164
   63MOL0     C 8427   6.314   5.884   9.749  0.5718  0.6542 -0.2467
   63MOL0     O 8428   6.378   5.770   9.786  0.4273 -0.6481 -1.0754
   63MOL0     C 8429   6.306   5.646   9.752  0.0880 -0.0035  0.2527
   63MOL0     C 8430   6.397   5.520   9.744  0.1078  0.1781 -0.6016
   63MOL0     C 8431   6.482   5.501   9.869 -0.1069  0.5118  0.0792
   63MOL0     C 8432   6.508   5.353   9.902 -0.5746  0.7715  0.6043
   63MOL0     C 8433   6.561   5.286   9.781  0.0864 -0.0914  0.1451
   63MOL0     C 8434   6.611   5.242   9.682 -0.3650  0.0313  0.0106
   63MOL0     C 8435   6.384   5.992   9.703 -1.1653  0.7634 -0.4884
   63MOL0     C 8436   6.324   6.104   9.655  0.1450 -0.3194  0.3612
   63MOL0     C 8437   6.407   6.220   9.590 -0.3891 -0.2082  0.0721
   63MOL0     H 8438   5.965   6.458   9.774 -1.2458 -2.5363 -2.4580
   63MOL0     H 8439   5.848   6.678   9.718 -0.7327 -0.4799  0.4605
   63MOL0     H 8440   6.001   6.906   9.469 -0.0716 -0.7549  0.4202
   63MOL0     H 8441   5.891   6.892   9.336 -1.4105 -1.2937 -0.4559
   63MOL0     H 8442   5.720   7.008   9.506 -0.6504 -1.3430  1.3143
   63MOL0     H 8443   5.846   7.100   9.443  2.0297 -0.8069 -0.1327
   63MOL0     H 8444   5.874   6.959   9.710  3.7735 -2.2715 -1.6512
   63MOL0     H 8445   5.816   7.129   9.703 -0.4083 -1.5457  1.0998
   63MOL0     H 8446   6.090   7.018   9.646 -1.1746 -1.9968  0.4496
   63MOL0     H 8447   6.051   7.179   9.582  0.7122  2.0321  1.6599
   63MOL0     H 8448   6.037   7.133   9.869  1.1916  1.3301  1.1000
   63MOL0     H 8449   6.177   7.186   9.764  0.5504  2.0803  1.6209
   63MOL0     H 8450   5.999   7.381   9.691 -0.7965  2.0610  0.9423
   63MOL0     H 8451   5.895   7.325   9.803 -0.3358  2.4625 -3.6677
   63MOL0     H 8452   6.180   7.406   9.874 -0.1853 -1.3378 -1.6899
   63MOL0     H 8453   6.045   7.348   9.983 -0.5960 -2.1720 -0.5794
   63MOL0     H 8454   6.039   7.585   9.796  0.2852  1.8053  0.9168
   63MOL0     H 8455   5.907   7.521   9.905  0.3215  1.1718  1.2444
   63MOL0     H 8456   6.079   7.814   9.908  2.3008  0.8340  0.3598
   63MOL0     H 8457   6.202   7.922  10.259 -1.4368  2.0576  1.8467
   63MOL0     H 8458   6.116   7.995  10.111 -2.1586 -2.5790 -1.3453
   63MOL0     H 8459   5.901   7.884  10.222 -0.5749  0.7044  0.0841
   63MOL0     H 8460   6.010   7.881  10.364  1.5978  2.7743  1.4369
   63MOL0     H 8461   5.865   8.066  10.372  0.5411  0.3803  1.1263
   63MOL0     H 8462   5.900   8.130  10.217 -0.8646  1.5268  1.1476
   63MOL0     H 8463   6.025   8.260  10.400  3.3978  0.9181  1.9263
   63MOL0     H 8464   6.139   8.179  10.292  1.8494 -1.9632  0.1801
   63MOL0     H 8465   6.219   8.356  10.459  2.7847  3.0627  0.4947
   63MOL0     H 8466   6.393   8.447  10.608 -0.8368  0.3929  0.9416
   63MOL0     H 8467   6.774   8.344  10.825  3.1573  1.2811 -1.3866
   63MOL0     H 8468   6.963   8.406  10.955  0.0739 -0.7770  1.7262
   63MOL0     H 8469   6.986   8.587  11.307 -1.2438  0.8965 -0.8267
   63MOL0     H 8470   6.990   8.444  11.204 -0.0588  0.4780  2.5913
   63MOL0     H 8471   7.207   8.503  11.115  1.4800 -0.7665  1.0468
   63MOL0     H 8472   7.199   8.660  11.199 -2.6559  1.1386  1.1685
   63MOL0     H 8473   7.343   8.464  11.328  0.6044  0.3774  0.4011
   63MOL0     H 8474   7.203   8.514  11.417 -0.0679  0.8840 -0.4282
   63MOL0     H 8475   7.194   8.282  11.219  0.6726 -1.7989  1.1922
   63MOL0     H 8476   7.086   8.306  11.354  0.4169  0.6324  0.0996
   63MOL0     H 8477   7.378   8.287  11.427  0.1513 -1.5363  2.4104
   63MOL0     H 8478   7.278   8.137  11.377 -0.3993  0.4464 -1.0331
   63MOL0     H 8479   7.277   8.301  11.620 -0.4779 -0.3787  1.0147
   63MOL0     H 8480   7.113   8.259  11.565 -0.9070 -0.4574 -2.3139
   63MOL0     H 8481   7.367   8.084  11.641 -0.8978 -1.0021  1.1501
   63MOL0     H 8482   7.224   7.999  11.569 -2.5550  0.3619  0.2583
   63MOL0     H 8483   7.209   7.966  11.826  0.8340  0.4154  1.9267
   63MOL0     H 8484   7.250   8.139  11.842 -1.7279  0.7309 -0.0306
   63MOL0     H 8485   6.736   8.745  11.102 -2.7914  0.9604 -1.1068
   63MOL0     H 8486   6.557   8.696  10.944  0.6532 -0.0448 -3.7091
   63MOL0     H 8487   6.379   8.084  10.839 -1.0594 -1.1457  0.6258
   63MOL0     H 8488   6.243   7.982  10.668  3.2494 -0.5556 -2.4678
   63MOL0     H 8489   5.995   6.656   9.328 -0.3630 -1.6510 -0.8956
   63MOL0     H 8490   6.152   6.458   9.401  0.6497 -0.3901  0.9118
   63MOL0     H 8491   5.999   5.983   9.734  0.0716 -0.6049 -0.7981
   63MOL0     H 8492   6.127   5.803   9.817  1.2264 -0.3665  0.3491
   63MOL0     H 8493   6.253   5.668   9.659  0.7251  0.3672 -0.0339
   63MOL0     H 8494   6.227   5.628   9.826 -0.5357 -1.4955 -0.7432
   63MOL0     H 8495   6.463   5.542   9.659  0.9084 -0.1600 -0.0753
   63MOL0     H 8496   6.326   5.439   9.728 -0.5453  0.2064  1.8435
   63MOL0     H 8497   6.428   5.540   9.955 -2.4933  2.1620 -2.0223
   63MOL0     H 8498   6.577   5.556   9.868 -1.3820  2.9826  2.3979
   63MOL0     H 8499   6.584   5.334   9.979 -0.8528  0.8199  0.8915
   63MOL0     H 8500   6.417   5.303   9.936  0.5830 -2.4605 -0.6387
   63MOL0     H 8501   6.637   5.205   9.585 -2.6946 -1.6882 -0.0537
   63MOL0     H 8502   6.492   5.992   9.700 -1.1629  1.7417 -3.2221
   63MOL0     H 8503   6.405   6.315   9.643 -1.0689  0.5808 -1.2922
   63MOL0     H 8504   6.512   6.197   9.567 -0.2997 -1.2152  1.3536
   63MOL0     H 8505   6.356   6.240   9.495 -0.5888 -0.1274  0.1958
   64MOL0     O 8506   1.386   0.084   1.229 -0.0456  0.4115  0.6794
   64MOL0     C 8507   1.466   0.005   1.179 -0.6201 -0.7783  1.0375
   64MOL0     O 8508   1.498  -0.009   1.049 -1.3467 -0.6431  0.3532
   64MOL0     C 8509   1.451   0.067   0.941 -0.6322  0.2487  0.1199
   64MOL0     C 8510   1.451   0.210   0.941 -0.0663  0.6568  0.3673
   64MOL0     C 8511   1.417   0.278   0.826  1.3035 -0.5494  1.0759
   64MOL0     C 8512   1.360   0.205   0.711  0.1934 -0.3200 -0.0067
   64MOL0     O 8513   1.280   0.260   0.609 -0.3686  0.1127 -1.5770
   64MOL0     C 8514   1.181   0.358   0.646  0.4906 -1.4086  0.0575
   64MOL0     C 8515   1.042   0.289   0.670  0.4276 -0.1054  0.6119
   64MOL0     C 8516   1.024   0.225   0.809 -0.2435 -0.9471  0.0186
   64MOL0     C 8517   0.909   0.125   0.792 -0.2065 -0.2092  0.3720
   64MOL0     C 8518   0.874   0.065   0.933 -0.3967  1.1015 -0.1646
   64MOL0     C 8519   0.974  -0.042   0.988  0.3343 -0.4270  0.6443
   64MOL0     C 8520   0.914  -0.103   1.115 -0.1225  0.2708  0.3746
   64MOL0     C 8521   1.002  -0.219   1.175 -0.5966  0.5124 -0.5133
   64MOL0     N 8522   0.947  -0.279   1.298  0.8343  0.5076 -1.3279
   64MOL0     C 8523   0.841  -0.358   1.293  1.0124  0.2071  0.3312
   64MOL0     C 8524   0.835  -0.418   1.414  1.2239  0.6151 -0.4740
   64MOL0     C 8525   0.737  -0.522   1.461 -0.8721 -0.1830  0.3005
   64MOL0     C 8526   0.651  -0.482   1.585  0.6862 -0.7024  0.6201
   64MOL0     C 8527   0.736  -0.519   1.706  0.7261  0.3397 -0.1437
   64MOL0     C 8528   0.665  -0.477   1.837 -0.6432  0.9363  1.1873
   64MOL0     O 8529   0.561  -0.559   1.879 -0.0601 -0.2186 -0.5027
   64MOL0     C 8530   0.474  -0.511   1.972  0.0938 -0.2479  0.0714
   64MOL0     C 8531   0.351  -0.575   1.984  0.0557  0.3951 -0.0441
   64MOL0     C 8532   0.241  -0.517   2.060 -0.3439  0.5575 -0.2007
   64MOL0     C 8533   0.268  -0.403   2.142  0.6160  0.0091  0.1609
   64MOL0     C 8534   0.168  -0.336   2.220  0.0340 -0.7632 -0.0428
   64MOL0     O 8535   0.199  -0.219   2.271  0.2467  0.2771  0.4046
   64MOL0     C 8536   0.107  -0.134   2.317 -0.8360 -0.3376 -0.3360
   64MOL0     C 8537   0.096  -0.118   2.453  0.7258  0.1541  0.0500
   64MOL0     C 8538  -0.014  -0.044   2.502 -1.3752 -0.9180 -0.1267
   64MOL0     C 8539  -0.108   0.011   2.414  0.5218  0.5222  0.5332
   64MOL0     O 8540  -0.209   0.090   2.471 -0.2094  0.0588  0.7335
   64MOL0     C 8541  -0.331   0.112   2.400  0.0498  0.9713 -0.3734
   64MOL0     C 8542  -0.431   0.180   2.490  1.0411  0.0305  0.3795
   64MOL0     C 8543  -0.393   0.325   2.518  0.2672 -1.0534 -0.0537
   64MOL0     C 8544  -0.476   0.393   2.630  0.9093 -0.1988  0.6883
   64MOL0     C 8545  -0.442   0.541   2.631 -0.0615 -0.6414 -0.0930
   64MOL0     C 8546  -0.522   0.638   2.715  0.1576 -0.3484  0.6647
   64MOL0     C 8547  -0.539   0.598   2.859 -0.7644  0.0586  0.7504
   64MOL0     C 8548  -0.667   0.645   2.930 -0.0751  0.1208  0.7703
   64MOL0    Cl 8549  -0.660   0.828   2.949 -0.1239  0.0172  0.0629
   64MOL0     C 8550  -0.096  -0.012   2.277  0.6877  0.5789 -0.3570
   64MOL0     C 8551   0.007  -0.088   2.225  0.7198 -0.2144  0.8157
   64MOL0     O 8552   0.052  -0.384   2.234 -0.3988  0.6337  1.1924
   64MOL0     C 8553   0.394  -0.354   2.134 -1.0203 -0.2434 -0.0040
   64MOL0     C 8554   0.497  -0.400   2.048  0.3000 -0.4379  0.1479
   64MOL0     N 8555   0.927  -0.355   1.493  0.7416  1.0955  0.6638
   64MOL0     N 8556   1.001  -0.280   1.422  0.1964 -0.4386  1.0359
   64MOL0     C 8557   1.360   0.068   0.723  0.9497 -0.3481  0.1224
   64MOL0     C 8558   1.410  -0.002   0.835 -0.2142 -0.3605  2.0946
   64MOL0     C 8559   1.518  -0.107   1.264  0.1480 -0.6941 -0.1103
   64MOL0     C 8560   1.616  -0.200   1.205  0.4363  0.2532 -0.2680
   64MOL0     C 8561   1.685  -0.288   1.287  0.9384 -0.7733 -0.6383
   64MOL0     C 8562   1.650  -0.304   1.416  0.3079 -1.0921 -0.2384
   64MOL0     O 8563   1.708  -0.396   1.501  0.0512 -0.1713 -0.8544
   64MOL0     C 8564   1.813  -0.483   1.449 -0.0355 -0.7013  0.5184
   64MOL0     C 8565   1.745  -0.597   1.366  0.9452 -0.0160  0.0035
   64MOL0     C 8566   1.811  -0.644   1.241  0.4625 -0.1212 -0.4272
   64MOL0     C 8567   1.739  -0.767   1.186 -0.4431 -0.1584 -0.2505
   64MOL0     C 8568   1.765  -0.779   1.048  0.4798 -0.7271 -1.1814
   64MOL0     C 8569   1.778  -0.785   0.935  0.3404  0.2901 -0.5892
   64MOL0     C 8570   1.546  -0.218   1.473 -0.8406  0.8005  0.1630
   64MOL0     C 8571   1.480  -0.123   1.403 -0.6017 -0.9545 -0.8049
   64MOL0     C 8572   1.382  -0.042   1.493  0.6669 -0.3609  0.6907
   64MOL0     H 8573   1.495   0.254   1.030  1.6490 -1.3098  0.5732
   64MOL0     H 8574   1.410   0.386   0.836 -1.4942 -0.3347 -1.6918
   64MOL0     H 8575   1.207   0.419   0.733 -0.9548  2.2068 -1.8256
   64MOL0     H 8576   1.176   0.433   0.567  1.3871  0.3221  1.5646
   64MOL0     H 8577   1.041   0.212   0.592  2.4824  1.5423 -1.1629
   64MOL0     H 8578   0.959   0.357   0.647 -1.4587 -2.7196 -0.9324
   64MOL0     H 8579   0.991   0.302   0.879  1.3306 -0.9924  0.8520
   64MOL0     H 8580   1.115   0.184   0.855 -1.3159 -3.5113  0.0581
   64MOL0     H 8581   0.821   0.179   0.756 -0.3349  0.6319  1.8473
   64MOL0     H 8582   0.937   0.042   0.726 -1.2688 -0.5062  0.2719
   64MOL0     H 8583   0.861   0.137   1.014 -1.5466 -3.4181  4.2246
   64MOL0     H 8584   0.772   0.030   0.915  0.5176 -0.1650 -3.4956
   64MOL0     H 8585   0.994  -0.120   0.914 -0.3014  0.5765 -0.6426
   64MOL0     H 8586   1.061   0.021   1.008 -0.7144  0.9518  1.0732
   64MOL0     H 8587   0.821  -0.157   1.094  0.1475 -0.1300  0.1821
   64MOL0     H 8588   0.893  -0.031   1.194  0.2821 -0.6808  1.3817
   64MOL0     H 8589   1.012  -0.305   1.107  2.7748 -0.5171  1.0856
   64MOL0     H 8590   1.101  -0.180   1.198 -0.9880  1.1346  0.1736
   64MOL0     H 8591   0.770  -0.366   1.211 -0.3696  0.5180  1.4595
   64MOL0     H 8592   0.660  -0.519   1.383  0.2246  0.9900 -0.7909
   64MOL0     H 8593   0.777  -0.623   1.472 -0.4477 -0.0360  0.1299
   64MOL0     H 8594   0.637  -0.374   1.584  0.4358 -0.7380 -0.2548
   64MOL0     H 8595   0.553  -0.528   1.571 -1.2775  3.6919 -2.0529
   64MOL0     H 8596   0.831  -0.465   1.715 -0.0524  1.6353  0.6565
   64MOL0     H 8597   0.752  -0.627   1.708 -0.8988  0.0828  0.3837
   64MOL0     H 8598   0.633  -0.373   1.821  2.3547  2.2891  3.0454
   64MOL0     H 8599   0.752  -0.479   1.904  0.8300 -1.2413 -0.6617
   64MOL0     H 8600   0.339  -0.669   1.931 -2.4047  0.5486  0.1171
   64MOL0     H 8601   0.146  -0.569   2.056 -0.9215  1.6583 -1.4081
   64MOL0     H 8602   0.173  -0.161   2.516 -2.3089 -0.0608  3.9832
   64MOL0     H 8603  -0.028  -0.043   2.610 -0.5543  0.2568 -0.0113
   64MOL0     H 8604  -0.312   0.172   2.311  0.1335  1.4096 -0.0651
   64MOL0     H 8605  -0.365   0.017   2.357 -0.1881  1.0341 -0.3263
   64MOL0     H 8606  -0.531   0.180   2.447  0.2957  2.5604  1.9134
   64MOL0     H 8607  -0.431   0.132   2.588  2.7835  0.5042  0.6503
   64MOL0     H 8608  -0.287   0.326   2.544  1.2476 -0.3135 -3.5836
   64MOL0     H 8609  -0.404   0.390   2.430  2.1728  0.8918  1.0505
   64MOL0     H 8610  -0.463   0.351   2.730 -0.9874  1.1274  1.5593
   64MOL0     H 8611  -0.582   0.394   2.602  0.4502 -0.3772  2.3487
   64MOL0     H 8612  -0.431   0.571   2.526 -0.9175  0.1068  0.0179
   64MOL0     H 8613  -0.338   0.542   2.667  0.1041  1.2197 -0.4947
   64MOL0     H 8614  -0.481   0.739   2.707  1.7085 -0.9108  1.1018
   64MOL0     H 8615  -0.621   0.629   2.670  0.3998 -1.0487  0.2503
   64MOL0     H 8616  -0.449   0.626   2.914 -0.9768  2.5977 -0.0483
   64MOL0     H 8617  -0.551   0.490   2.868 -1.0947 -0.0472 -0.6172
   64MOL0     H 8618  -0.756   0.606   2.879 -1.2165  1.1148  1.9277
   64MOL0     H 8619  -0.671   0.593   3.026  3.3898 -3.3375 -0.7044
   64MOL0     H 8620  -0.177   0.010   2.208  1.1403  0.4909 -0.9268
   64MOL0     H 8621   0.017  -0.087   2.117  2.0670 -1.4941  0.8974
   64MOL0     H 8622   0.417  -0.263   2.188  2.4812 -1.4103  0.6773
   64MOL0     H 8623   0.592  -0.349   2.041 -0.2665  0.5076 -0.8609
   64MOL0     H 8624   1.301   0.010   0.653 -2.2211 -0.6064  2.7187
   64MOL0     H 8625   1.419  -0.110   0.841  0.9964 -0.3208  1.5166
   64MOL0     H 8626   1.647  -0.175   1.104  0.2204  0.4744 -0.2796
   64MOL0     H 8627   1.752  -0.349   1.227  0.2946 -1.5206 -0.6203
   64MOL0     H 8628   1.868  -0.535   1.528  0.2158 -1.5225 -0.1814
   64MOL0     H 8629   1.882  -0.411   1.404  0.4039 -0.9723  0.7440
   64MOL0     H 8630   1.647  -0.556   1.340  0.9217  0.2721  0.5345
   64MOL0     H 8631   1.728  -0.686   1.427  3.0500 -0.0060  0.6790
   64MOL0     H 8632   1.915  -0.666   1.269  0.3154 -1.8314 -1.0857
   64MOL0     H 8633   1.810  -0.562   1.168  1.2485 -0.9126 -1.3555
   64MOL0     H 8634   1.766  -0.860   1.236 -0.2268  0.7918  1.4532
   64MOL0     H 8635   1.630  -0.760   1.185 -0.4439  0.1827 -2.0643
   64MOL0     H 8636   1.774  -0.787   0.828 -0.2980  2.5823 -0.6670
   64MOL0     H 8637   1.525  -0.249   1.575 -0.6276 -1.9470 -0.5221
   64MOL0     H 8638   1.290  -0.028   1.435  1.3939 -0.7321 -0.6110
   64MOL0     H 8639   1.352  -0.105   1.577 -1.8964 -0.9370 -0.5464
   64MOL0     H 8640   1.416   0.060   1.513 -0.8526  0.1646  0.7168
   65MOL0     O 8641   6.604   1.120   8.394  1.1472  0.0082  0.6614
   65MOL0     C 8642   6.593   1.200   8.303  0.5970  0.4273 -0.1718
   65MOL0     O 8643   6.685   1.252   8.221  0.0289  0.0465 -0.6484
   65MOL0     C 8644   6.806   1.183   8.209  0.2633  0.4934 -0.5158
   65MOL0     C 8645   6.813   1.045   8.208  0.3829 -0.8082  0.1018
   65MOL0     C 8646   6.932   0.976   8.221 -0.0741  1.1153 -1.0322
   65MOL0     C 8647   7.053   1.049   8.230  0.4189  1.0418 -0.7543
   65MOL0     O 8648   7.179   0.997   8.254 -0.5725  0.3167  0.5207
   65MOL0     C 8649   7.187   0.884   8.344  0.2309  0.5236  0.5889
   65MOL0     C 8650   7.316   0.887   8.422  0.5449  0.7911 -0.3672
   65MOL0     C 8651   7.322   1.012   8.509  0.3649  0.2256  0.0023
   65MOL0     C 8652   7.402   0.987   8.634 -0.3129  0.0409 -0.0077
   65MOL0     C 8653   7.452   1.116   8.695 -0.8693  1.2027  0.4109
   65MOL0     C 8654   7.553   1.101   8.805  0.2926  0.6702 -0.0236
   65MOL0     C 8655   7.581   1.228   8.891  0.3014  0.6275 -0.7937
   65MOL0     C 8656   7.673   1.182   9.006 -0.6369  0.2408 -0.1014
   65MOL0     N 8657   7.679   1.291   9.102 -0.4299 -0.2439  0.3380
   65MOL0     C 8658   7.784   1.379   9.101  0.5119  0.3198 -0.5693
   65MOL0     C 8659   7.755   1.469   9.196  0.8379  0.2559  0.3580
   65MOL0     C 8660   7.854   1.573   9.238  0.3580  0.6665 -0.1135
   65MOL0     C 8661   7.933   1.643   9.125 -0.3224 -0.1397  0.2763
   65MOL0     C 8662   7.957   1.790   9.161 -0.4332  0.4518 -0.4769
   65MOL0     C 8663   8.009   1.878   9.049  0.6409  0.2371  0.6169
   65MOL0     O 8664   8.005   2.009   9.105  0.1277 -0.6745 -0.1801
   65MOL0     C 8665   8.059   2.107   9.026  0.1141 -0.0295 -0.1322
   65MOL0     C 8666   8.099   2.097   8.899  0.0648  0.3426 -0.2618
   65MOL0     C 8667   8.147   2.205   8.831 -0.3984  0.4006 -0.6139
   65MOL0     C 8668   8.151   2.332   8.888 -0.2020  0.4392  0.5630
   65MOL0     C 8669   8.190   2.450   8.808 -0.3634 -0.0149 -0.2740
   65MOL0     O 8670   8.197   2.579   8.853  0.1108 -0.4279  0.3959
   65MOL0     C 8671   8.269   2.687   8.796  0.3301  0.2905  1.0939
   65MOL0     C 8672   8.394   2.674   8.730 -0.0738  0.3445  0.3039
   65MOL0     C 8673   8.471   2.771   8.683 -0.2533  0.7540 -0.5953
   65MOL0     C 8674   8.416   2.903   8.689 -0.0014  0.4616 -1.1967
   65MOL0     O 8675   8.483   3.015   8.647 -0.1364  0.8653  0.2246
   65MOL0     C 8676   8.538   2.991   8.519  0.1720  1.2226  0.7788
   65MOL0     C 8677   8.618   3.122   8.479 -0.1193  0.5340  0.0384
   65MOL0     C 8678   8.713   3.084   8.358  1.2027  0.2664 -0.8179
   65MOL0     C 8679   8.644   3.068   8.226 -0.4898 -0.0122  0.3318
   65MOL0     C 8680   8.732   3.029   8.107 -0.5108 -0.6601  0.2101
   65MOL0     C 8681   8.714   2.886   8.080 -0.4411  0.9932  0.4350
   65MOL0     C 8682   8.814   2.837   7.977 -0.1891 -0.0855  0.3254
   65MOL0     C 8683   8.768   2.705   7.921 -0.2654 -0.3329  0.0510
   65MOL0    Cl 8684   8.612   2.759   7.833 -0.2045  0.1647  0.0898
   65MOL0     C 8685   8.300   2.925   8.762  0.2984  0.6381 -0.5132
   65MOL0     C 8686   8.223   2.819   8.816  0.0638 -0.2587 -0.3155
   65MOL0     O 8687   8.231   2.418   8.689  0.1998 -0.0087  0.4680
   65MOL0     C 8688   8.092   2.345   9.019  1.1414  0.5979  1.0323
   65MOL0     C 8689   8.064   2.231   9.090  0.4279 -0.3311 -0.1573
   65MOL0     N 8690   7.643   1.425   9.262 -0.0404  0.3806  0.4929
   65MOL0     N 8691   7.601   1.310   9.212  0.8357  0.1138  0.1921
   65MOL0     C 8692   7.056   1.187   8.221 -0.5721 -0.7113 -0.6099
   65MOL0     C 8693   6.928   1.253   8.224 -0.3501 -0.6039  0.5578
   65MOL0     C 8694   6.460   1.270   8.289 -0.4440  0.9613 -0.7537
   65MOL0     C 8695   6.363   1.190   8.244  0.7763  0.6439  0.3637
   65MOL0     C 8696   6.243   1.244   8.204  0.1208 -0.0129 -0.2051
   65MOL0     C 8697   6.215   1.381   8.216  0.3493 -0.6246  1.4395
   65MOL0     O 8698   6.094   1.441   8.172  0.0945  0.2679  0.2125
   65MOL0     C 8699   5.993   1.341   8.144  0.3724  0.0107  0.5138
   65MOL0     C 8700   5.845   1.399   8.161  0.3252 -0.8827 -0.0277
   65MOL0     C 8701   5.823   1.554   8.169  0.3867 -0.5712 -0.3729
   65MOL0     C 8702   5.867   1.610   8.310  0.1616  1.2197 -0.0733
   65MOL0     C 8703   5.807   1.740   8.344 -0.0929  0.0760 -0.0627
   65MOL0     C 8704   5.739   1.833   8.385 -0.5349  0.8569 -0.7214
   65MOL0     C 8705   6.320   1.465   8.256  0.3956 -0.2119 -0.8995
   65MOL0     C 8706   6.442   1.409   8.290  0.2936  0.3868  0.4141
   65MOL0     C 8707   6.540   1.492   8.367 -0.1947  0.2263 -0.7390
   65MOL0     H 8708   6.720   0.990   8.214 -0.8382  0.9569 -1.5907
   65MOL0     H 8709   6.939   0.868   8.216  3.6308  1.2331 -0.9801
   65MOL0     H 8710   7.103   0.889   8.414  0.3892 -1.3170  0.9538
   65MOL0     H 8711   7.182   0.791   8.287  1.4165  1.5680 -1.3333
   65MOL0     H 8712   7.403   0.870   8.358  1.0729 -2.8742  1.0825
   65MOL0     H 8713   7.304   0.800   8.488  2.0097 -0.3862 -1.5879
   65MOL0     H 8714   7.225   1.060   8.518 -0.1652 -0.7003 -0.6163
   65MOL0     H 8715   7.379   1.089   8.456 -1.9182  2.7500  0.9907
   65MOL0     H 8716   7.350   0.931   8.712  0.0442  2.5421  2.1589
   65MOL0     H 8717   7.487   0.926   8.604 -2.0600 -2.2638 -0.5677
   65MOL0     H 8718   7.499   1.184   8.624  1.2599  0.1214  0.7155
   65MOL0     H 8719   7.356   1.157   8.728 -1.9060 -1.7182  1.3253
   65MOL0     H 8720   7.503   1.029   8.870 -2.0137  1.5140 -0.7741
   65MOL0     H 8721   7.648   1.057   8.773  0.5456  0.9775  0.2888
   65MOL0     H 8722   7.491   1.281   8.924  0.0611  0.4639 -1.1659
   65MOL0     H 8723   7.628   1.308   8.832  0.4164 -0.7340 -2.6621
   65MOL0     H 8724   7.621   1.098   9.052  0.2736 -1.9221 -2.7448
   65MOL0     H 8725   7.772   1.150   8.971 -0.3856  1.2463 -0.3510
   65MOL0     H 8726   7.870   1.370   9.035  2.0498  0.6988  1.3004
   65MOL0     H 8727   7.796   1.636   9.307 -0.2399 -1.5832  1.5790
   65MOL0     H 8728   7.920   1.514   9.301 -1.0016 -0.4144  0.3539
   65MOL0     H 8729   8.026   1.597   9.090  1.2608  3.1243 -0.1803
   65MOL0     H 8730   7.867   1.645   9.037 -3.8393  2.2331  2.6790
   65MOL0     H 8731   8.044   1.787   9.228 -0.5886 -0.7857 -0.2984
   65MOL0     H 8732   7.864   1.830   9.202 -1.2701 -0.4345 -1.4596
   65MOL0     H 8733   7.937   1.866   8.967  0.4734  0.1762  0.7706
   65MOL0     H 8734   8.110   1.850   9.020  1.2517  0.1986  2.6038
   65MOL0     H 8735   8.098   1.999   8.851  1.6018 -0.0164  0.3651
   65MOL0     H 8736   8.196   2.210   8.734  1.3869  3.3806  0.3071
   65MOL0     H 8737   8.440   2.577   8.718 -0.4419  0.0535  1.1417
   65MOL0     H 8738   8.567   2.742   8.641 -0.2541 -1.9668  1.0460
   65MOL0     H 8739   8.602   2.903   8.525 -2.7294 -1.0087  0.9429
   65MOL0     H 8740   8.464   2.970   8.440 -0.1863  3.5569  0.4159
   65MOL0     H 8741   8.542   3.199   8.463  1.9015  2.7069  0.3124
   65MOL0     H 8742   8.685   3.151   8.561  0.1512  0.3221 -0.1086
   65MOL0     H 8743   8.783   3.166   8.345  0.5588  2.3236  5.3259
   65MOL0     H 8744   8.769   2.992   8.380 -1.3738 -0.9293  1.3667
   65MOL0     H 8745   8.603   3.167   8.205  1.4077  1.0768  1.5062
   65MOL0     H 8746   8.565   2.993   8.237 -2.3093  1.8785  0.7437
   65MOL0     H 8747   8.837   3.044   8.135  0.0432 -1.0008 -1.5497
   65MOL0     H 8748   8.705   3.085   8.017  0.2209  0.3943  0.6213
   65MOL0     H 8749   8.730   2.818   8.164  1.7176  0.2998 -0.4438
   65MOL0     H 8750   8.613   2.872   8.041 -0.7416 -0.2216  1.5886
   65MOL0     H 8751   8.911   2.829   8.027  0.0442  0.0115 -0.1013
   65MOL0     H 8752   8.829   2.909   7.896  0.1225  1.7843  1.9814
   65MOL0     H 8753   8.843   2.647   7.865 -0.8973 -2.0346  0.8972
   65MOL0     H 8754   8.733   2.645   8.005 -0.4882 -1.0437 -0.5363
   65MOL0     H 8755   8.263   3.026   8.773  1.8232  1.2352 -0.7714
   65MOL0     H 8756   8.128   2.825   8.867  0.4365 -2.4117  0.7434
   65MOL0     H 8757   8.083   2.438   9.073 -1.4218  1.4323 -0.6659
   65MOL0     H 8758   8.034   2.233   9.195  2.6618 -1.2351  0.5665
   65MOL0     H 8759   7.147   1.246   8.223 -1.8414  1.2826  1.0095
   65MOL0     H 8760   6.927   1.361   8.236  1.4720 -0.3575 -0.9392
   65MOL0     H 8761   6.375   1.082   8.238 -2.8163  0.1621 -0.0475
   65MOL0     H 8762   6.167   1.177   8.165  0.3282 -0.3210 -0.0910
   65MOL0     H 8763   5.992   1.257   8.213  1.1281  0.6710  1.3496
   65MOL0     H 8764   6.009   1.306   8.041  0.0853  3.0287 -0.6679
   65MOL0     H 8765   5.802   1.350   8.249 -0.8083  1.9947  1.1618
   65MOL0     H 8766   5.789   1.363   8.075  0.2366 -1.4393  0.2641
   65MOL0     H 8767   5.715   1.565   8.156  0.4400 -2.5599 -4.1489
   65MOL0     H 8768   5.879   1.583   8.079 -2.3014 -1.4243 -2.4560
   65MOL0     H 8769   5.840   1.532   8.382 -0.5706 -2.5274 -4.0423
   65MOL0     H 8770   5.976   1.616   8.317  0.7745 -3.1521 -2.5248
   65MOL0     H 8771   5.685   1.921   8.417 -0.9857  1.8439 -3.8769
   65MOL0     H 8772   6.318   1.573   8.259  4.9518  0.0858 -1.7055
   65MOL0     H 8773   6.585   1.544   8.282 -0.3065  0.0976 -0.8789
   65MOL0     H 8774   6.497   1.553   8.447  4.7190  0.8672  1.7508
   65MOL0     H 8775   6.627   1.436   8.403  0.1815  0.0929 -1.7986
   66MOL0     O 8776   3.278   3.941   3.726 -0.4144  0.5996 -0.5358
   66MOL0     C 8777   3.207   3.855   3.685 -0.2034 -0.6368  0.0950
   66MOL0     O 8778   3.184   3.838   3.549  0.5411 -0.1342 -0.0730
   66MOL0     C 8779   3.233   3.929   3.469  0.0933 -0.1618 -0.2847
   66MOL0     C 8780   3.157   4.048   3.455 -0.0441 -0.3465 -0.6709
   66MOL0     C 8781   3.192   4.143   3.356  0.6489 -1.0592  0.3137
   66MOL0     C 8782   3.314   4.135   3.281 -0.6360 -0.4609  0.0587
   66MOL0     O 8783   3.338   4.233   3.193 -0.2661 -0.6429 -0.6641
   66MOL0     C 8784   3.424   4.210   3.080 -0.6051  0.7764  0.3152
   66MOL0     C 8785   3.460   4.334   3.004 -0.1679  0.6838  0.5870
   66MOL0     C 8786   3.520   4.441   3.088  0.3347 -0.2793  0.2687
   66MOL0     C 8787   3.671   4.437   3.107 -0.7990  1.5250  0.9498
   66MOL0     C 8788   3.721   4.572   3.168  0.8469 -0.1068 -0.7299
   66MOL0     C 8789   3.870   4.615   3.155  0.6606  0.0245 -0.3534
   66MOL0     C 8790   3.888   4.760   3.187  0.3274 -0.3306  0.5611
   66MOL0     C 8791   4.028   4.815   3.166 -0.5877  0.2311 -0.3469
   66MOL0     N 8792   4.088   4.892   3.282  1.2719  0.6173  0.2811
   66MOL0     C 8793   4.038   4.993   3.363 -0.4468 -0.8889  0.7640
   66MOL0     C 8794   4.139   5.017   3.448  0.9005  0.8016 -0.4621
   66MOL0     C 8795   4.108   5.084   3.573 -0.3030 -0.0116  0.2749
   66MOL0     C 8796   4.032   4.998   3.679  0.1540 -0.4438  0.1749
   66MOL0     C 8797   3.885   4.957   3.625 -0.6770 -0.1339  0.3386
   66MOL0     C 8798   3.812   4.873   3.724  0.0254  0.3809 -0.0117
   66MOL0     O 8799   3.884   4.754   3.754 -0.2578  0.4079  0.7192
   66MOL0     C 8800   3.814   4.662   3.824 -0.3699 -0.2548 -0.6934
   66MOL0     C 8801   3.685   4.680   3.886  0.1326  0.2211 -0.6594
   66MOL0     C 8802   3.624   4.579   3.967  0.3929 -0.1353 -0.0274
   66MOL0     C 8803   3.690   4.462   3.985  0.9092  0.7412  0.4017
   66MOL0     C 8804   3.629   4.342   4.058 -0.1217 -0.2764 -0.3528
   66MOL0     O 8805   3.692   4.218   4.047  0.4298  0.0724 -0.2988
   66MOL0     C 8806   3.642   4.118   4.131  0.7875 -0.0370 -0.0404
   66MOL0     C 8807   3.646   4.109   4.271  0.4516  0.5001 -0.7598
   66MOL0     C 8808   3.614   3.992   4.340  0.0028  0.4832 -1.0015
   66MOL0     C 8809   3.563   3.876   4.271 -0.0884 -0.0047  0.2235
   66MOL0     O 8810   3.527   3.761   4.337 -0.6344  0.0429 -0.2916
   66MOL0     C 8811   3.537   3.635   4.266  0.0782 -0.2924  0.3943
   66MOL0     C 8812   3.396   3.601   4.239 -0.9000  0.6528 -0.8078
   66MOL0     C 8813   3.308   3.564   4.361  0.9105  0.4873 -0.5149
   66MOL0     C 8814   3.352   3.443   4.444  0.2209  0.3778 -0.4905
   66MOL0     C 8815   3.244   3.385   4.537  0.5249  0.2478  0.7523
   66MOL0     C 8816   3.220   3.469   4.658  0.7092  0.0225 -0.1004
   66MOL0     C 8817   3.112   3.397   4.747  0.0816  0.5881  0.2049
   66MOL0     C 8818   3.040   3.505   4.829 -0.2211 -1.0235  0.4640
   66MOL0    Cl 8819   2.912   3.595   4.735 -0.3243 -0.0939  0.0681
   66MOL0     C 8820   3.543   3.892   4.132  0.7433  0.6283  0.1910
   66MOL0     C 8821   3.582   4.008   4.063 -0.2001 -0.1543 -0.3053
   66MOL0     O 8822   3.535   4.364   4.128  0.1976 -0.3019 -0.1646
   66MOL0     C 8823   3.824   4.445   3.932  0.6843 -0.6698  0.3821
   66MOL0     C 8824   3.883   4.542   3.849  0.1583  0.0749 -1.0730
   66MOL0     N 8825   4.248   4.929   3.429 -0.8041 -0.7908  0.1162
   66MOL0     N 8826   4.215   4.857   3.328 -0.2096 -0.0293 -0.6130
   66MOL0     C 8827   3.398   4.026   3.307 -0.6299 -0.3233  0.7316
   66MOL0     C 8828   3.356   3.926   3.394  0.4933  0.3581 -1.4635
   66MOL0     C 8829   3.134   3.761   3.777 -0.2047  0.0620 -0.3037
   66MOL0     C 8830   3.073   3.650   3.716 -0.1174  0.7837  0.8155
   66MOL0     C 8831   3.031   3.536   3.778  0.2355  0.1640  0.3317
   66MOL0     C 8832   3.046   3.537   3.923  0.1851 -0.5941  0.2640
   66MOL0     O 8833   2.996   3.428   3.984  0.8553  0.3833 -0.5663
   66MOL0     C 8834   2.963   3.432   4.126  0.3839 -0.6990  0.0374
   66MOL0     C 8835   2.821   3.500   4.140 -0.6510 -0.0387  0.7757
   66MOL0     C 8836   2.764   3.465   4.283 -0.7470 -0.2254  0.1922
   66MOL0     C 8837   2.618   3.514   4.314  0.1039 -0.7304 -0.4758
   66MOL0     C 8838   2.526   3.437   4.219  0.1283  0.2464  0.5356
   66MOL0     C 8839   2.443   3.394   4.143 -0.2623 -0.2326  0.0512
   66MOL0     C 8840   3.094   3.661   3.991 -0.0335  0.0740  1.3903
   66MOL0     C 8841   3.138   3.769   3.922 -0.0065  0.4822  0.1993
   66MOL0     C 8842   3.180   3.894   4.006 -0.3861 -0.0550  0.1380
   66MOL0     H 8843   3.071   4.068   3.518 -0.3284  1.5320 -1.5806
   66MOL0     H 8844   3.109   4.204   3.324 -1.4197 -2.5864  2.4394
   66MOL0     H 8845   3.516   4.159   3.107 -1.2826  1.2041  3.9714
   66MOL0     H 8846   3.372   4.152   3.004 -1.1201  1.9968 -0.2974
   66MOL0     H 8847   3.360   4.363   2.969 -0.4506  0.9645  1.6018
   66MOL0     H 8848   3.519   4.322   2.913 -0.2223  2.7292  0.2289
   66MOL0     H 8849   3.467   4.444   3.184 -3.5390 -0.4695 -1.7091
   66MOL0     H 8850   3.488   4.533   3.039 -0.2626  0.3195  1.7324
   66MOL0     H 8851   3.692   4.354   3.175 -0.3873  0.7279 -0.1095
   66MOL0     H 8852   3.714   4.436   3.006  0.3985 -0.8293  1.4207
   66MOL0     H 8853   3.675   4.653   3.110 -1.3733 -1.8663 -1.5357
   66MOL0     H 8854   3.693   4.594   3.271  0.2757 -1.0981 -0.6620
   66MOL0     H 8855   3.928   4.552   3.222  2.4099  1.2646 -0.6423
   66MOL0     H 8856   3.904   4.596   3.053 -0.9806  1.5138 -1.2353
   66MOL0     H 8857   3.866   4.778   3.292  3.8153 -0.2121  1.4209
   66MOL0     H 8858   3.809   4.817   3.138  0.2234 -1.4889 -0.6655
   66MOL0     H 8859   4.090   4.727   3.150 -0.8318 -0.0658  0.3042
   66MOL0     H 8860   4.032   4.865   3.068 -0.9067 -0.1097 -0.5376
   66MOL0     H 8861   3.933   5.023   3.359 -0.2976  0.1464  3.1070
   66MOL0     H 8862   4.207   5.098   3.616 -0.9572  1.7871  1.3199
   66MOL0     H 8863   4.064   5.181   3.546  0.3512  0.8626  2.1771
   66MOL0     H 8864   4.089   4.910   3.709 -1.5596 -0.5683  3.6621
   66MOL0     H 8865   4.009   5.059   3.767  1.3279  1.5081 -0.8149
   66MOL0     H 8866   3.885   4.891   3.538  2.7118 -2.7718  2.0949
   66MOL0     H 8867   3.827   5.045   3.595 -1.6123  0.3145  3.1132
   66MOL0     H 8868   3.718   4.839   3.681  0.9811 -1.0528 -1.0782
   66MOL0     H 8869   3.799   4.931   3.815  2.9331  3.0908 -1.1017
   66MOL0     H 8870   3.629   4.770   3.865  1.7247  1.6523  0.8531
   66MOL0     H 8871   3.537   4.595   4.030 -0.7552  1.8523 -1.9746
   66MOL0     H 8872   3.681   4.193   4.330 -0.7263  1.9445 -2.0396
   66MOL0     H 8873   3.639   3.985   4.445  0.2379  2.2551 -0.9065
   66MOL0     H 8874   3.591   3.643   4.171  1.0621  2.0471  1.0909
   66MOL0     H 8875   3.582   3.551   4.319 -2.7680 -2.0604  0.2596
   66MOL0     H 8876   3.356   3.693   4.196 -0.6223  1.7881  1.2386
   66MOL0     H 8877   3.400   3.530   4.155 -0.3442 -0.0598 -0.1920
   66MOL0     H 8878   3.288   3.657   4.415 -0.5195  0.3515 -0.7572
   66MOL0     H 8879   3.202   3.548   4.338  0.2298  3.8494 -0.2946
   66MOL0     H 8880   3.435   3.472   4.510 -1.5830  0.4100  1.8929
   66MOL0     H 8881   3.378   3.359   4.378 -3.8714 -1.3032 -0.2682
   66MOL0     H 8882   3.285   3.284   4.554  0.3356 -0.0750 -0.6196
   66MOL0     H 8883   3.159   3.364   4.472  1.9756 -2.4927 -0.4338
   66MOL0     H 8884   3.308   3.503   4.715 -0.9489  3.1946  0.8337
   66MOL0     H 8885   3.166   3.552   4.613  0.3254  1.0774  2.1768
   66MOL0     H 8886   3.159   3.321   4.811 -4.1697 -4.2493 -1.6915
   66MOL0     H 8887   3.034   3.352   4.685  0.4290  0.8978 -0.4624
   66MOL0     H 8888   2.984   3.451   4.907  0.9291 -2.7527  0.1631
   66MOL0     H 8889   3.103   3.581   4.876  0.0271 -1.2248  0.4594
   66MOL0     H 8890   3.499   3.814   4.071  0.2310 -0.5347  1.9678
   66MOL0     H 8891   3.559   4.009   3.957 -0.7079  0.2297 -0.1925
   66MOL0     H 8892   3.880   4.354   3.948  0.4093 -0.7350  0.9977
   66MOL0     H 8893   3.984   4.543   3.810 -0.2529  2.4282 -2.2708
   66MOL0     H 8894   3.492   4.011   3.255  0.2004  2.9775  1.0478
   66MOL0     H 8895   3.409   3.832   3.407 -0.7318  0.0370  2.4062
   66MOL0     H 8896   3.057   3.655   3.609 -0.6668 -3.8895  0.4961
   66MOL0     H 8897   2.979   3.453   3.731 -0.5038 -0.4472  2.1583
   66MOL0     H 8898   3.037   3.488   4.182 -1.8692  1.5484  0.9636
   66MOL0     H 8899   2.959   3.329   4.163  2.1761  0.2227  3.1121
   66MOL0     H 8900   2.759   3.460   4.059  0.4820  1.6211 -1.0016
   66MOL0     H 8901   2.827   3.607   4.116  0.4337 -0.5756 -1.5187
   66MOL0     H 8902   2.836   3.514   4.349 -0.8544 -1.5821  1.3675
   66MOL0     H 8903   2.758   3.357   4.300 -1.1646  0.1111  2.4653
   66MOL0     H 8904   2.606   3.498   4.422 -0.9656  2.2171 -0.0639
   66MOL0     H 8905   2.603   3.620   4.288 -0.0356 -0.5580  0.2775
   66MOL0     H 8906   2.371   3.340   4.085 -1.5522  0.3185  1.0988
   66MOL0     H 8907   3.087   3.670   4.099  0.8956  0.6100  1.4134
   66MOL0     H 8908   3.111   3.975   3.983 -0.4307  0.2018  1.1226
   66MOL0     H 8909   3.169   3.875   4.113  2.1724 -0.4948  0.4001
   66MOL0     H 8910   3.285   3.922   3.994  0.1573 -2.9067 -3.5447
   67MOL0     O 8911  10.778   7.738   2.633 -0.3103 -0.6277 -0.1706
   67MOL0     C 8912  10.718   7.645   2.578  0.0846  0.4684 -1.1294
   67MOL0     O 8913  10.741   7.513   2.610  0.8948 -0.5835  0.7615
   67MOL0     C 8914  10.817   7.462   2.715  1.4514  0.3695  0.5726
   67MOL0     C 8915  10.780   7.332   2.770 -1.0589  0.2643 -0.2602
   67MOL0     C 8916  10.857   7.267   2.867  0.3536 -0.2091 -0.5892
   67MOL0     C 8917  10.946   7.343   2.938  0.4989 -0.2414  0.5459
   67MOL0     O 8918  10.992   7.273   3.048  0.1332  0.4685  0.3533
   67MOL0     C 8919  11.049   7.336   3.161 -1.2718 -0.5103 -0.6893
   67MOL0     C 8920  10.932   7.385   3.250 -0.5078  0.1808  0.8481
   67MOL0     C 8921  10.888   7.513   3.204 -0.6774 -1.0461 -0.2760
   67MOL0     C 8922  10.773   7.545   3.308  0.7626 -0.1546  0.1431
   67MOL0     C 8923  10.630   7.523   3.245  0.7737  0.1843  0.3953
   67MOL0     C 8924  10.517   7.581   3.319  0.4046  0.8130 -0.0127
   67MOL0     C 8925  10.379   7.521   3.289  0.0418  0.5605 -0.0467
   67MOL0     C 8926  10.277   7.641   3.281  0.9823 -0.7016 -0.2873
   67MOL0     N 8927  10.265   7.715   3.416 -0.5546  0.0179 -0.2319
   67MOL0     C 8928  10.168   7.691   3.509  0.3126 -0.0738  0.7451
   67MOL0     C 8929  10.195   7.781   3.603  0.5753 -0.5488 -0.6419
   67MOL0     C 8930  10.111   7.807   3.722  0.5290  0.4121 -0.6302
   67MOL0     C 8931  10.201   7.791   3.846 -0.4246  0.1404 -0.0420
   67MOL0     C 8932  10.128   7.859   3.967  0.7238 -0.1384  0.4152
   67MOL0     C 8933  10.161   8.011   3.964 -0.3660 -0.2493  0.4770
   67MOL0     O 8934  10.109   8.076   4.077 -0.2505 -0.2516  0.5862
   67MOL0     C 8935  10.087   8.211   4.068  0.4522  0.1358  0.6470
   67MOL0     C 8936  10.166   8.302   3.987 -0.1743 -1.1554  0.2533
   67MOL0     C 8937  10.130   8.446   3.996  0.2404  0.2283 -0.4390
   67MOL0     C 8938  10.038   8.488   4.093  0.8513  0.1288 -0.2986
   67MOL0     C 8939  10.021   8.634   4.131  0.3071 -0.1023  0.2444
   67MOL0     O 8940  10.079   8.731   4.059  0.0841 -0.7772  0.9078
   67MOL0     C 8941  10.157   8.827   4.116  0.1431 -0.5619 -0.0301
   67MOL0     C 8942  10.186   8.822   4.246 -0.6340 -0.2502 -0.7601
   67MOL0     C 8943  10.251   8.934   4.304  0.2010 -0.3460 -0.0497
   67MOL0     C 8944  10.287   9.044   4.230  0.6157  0.7645 -0.0633
   67MOL0     O 8945  10.348   9.152   4.293  0.8750  0.9426  0.3327
   67MOL0     C 8946  10.492   9.151   4.274  0.7580  0.3176  0.8674
   67MOL0     C 8947  10.556   9.083   4.393 -0.5929 -0.7325  0.2018
   67MOL0     C 8948  10.706   9.078   4.389  0.6739 -0.1718 -0.8604
   67MOL0     C 8949  10.778   9.112   4.522  0.5543  0.0112 -0.3921
   67MOL0     C 8950  10.922   9.127   4.483  0.0243 -0.3327 -0.5772
   67MOL0     C 8951  11.022   9.165   4.597  0.2014  0.3053  0.0907
   67MOL0     C 8952  11.174   9.149   4.560 -0.4405 -0.3258 -0.0881
   67MOL0     C 8953  11.231   9.283   4.506  0.5724  0.6026  0.0932
   67MOL0    Cl 8954  11.388   9.245   4.442 -0.1109  0.0836 -0.2023
   67MOL0     C 8955  10.256   9.048   4.097 -0.1093 -0.7151  1.2326
   67MOL0     C 8956  10.190   8.936   4.038  1.1449  0.5969  0.1130
   67MOL0     O 8957   9.939   8.656   4.224 -0.5796  0.8832 -0.5187
   67MOL0     C 8958   9.962   8.395   4.161  0.0840 -0.3171 -0.4606
   67MOL0     C 8959   9.976   8.255   4.146 -0.5515  0.6737  0.0921
   67MOL0     N 8960  10.305   7.854   3.565 -0.6235  0.0811 -0.8619
   67MOL0     N 8961  10.348   7.812   3.451 -0.8189 -0.3271 -0.1779
   67MOL0     C 8962  10.985   7.471   2.885  0.2337  0.8121  0.2753
   67MOL0     C 8963  10.916   7.528   2.782  1.3569 -0.4953  0.1569
   67MOL0     C 8964  10.629   7.674   2.464 -0.1771 -0.1765 -0.8867
   67MOL0     C 8965  10.650   7.793   2.403  0.0642 -0.4283  0.1884
   67MOL0     C 8966  10.573   7.843   2.296 -0.4910 -0.7019  0.9472
   67MOL0     C 8967  10.468   7.773   2.250 -0.5387 -0.2307 -0.7479
   67MOL0     O 8968  10.387   7.833   2.152 -0.4612  0.4681 -0.2110
   67MOL0     C 8969  10.446   7.868   2.026  0.0785 -1.0011  0.1642
   67MOL0     C 8970  10.329   7.915   1.929 -0.8752  0.7523  1.0804
   67MOL0     C 8971  10.230   7.801   1.886  0.4508  1.2912  0.3356
   67MOL0     C 8972  10.107   7.850   1.812  0.2506 -0.1292 -0.2873
   67MOL0     C 8973  10.029   7.962   1.867  0.8003  0.6951  0.5558
   67MOL0     C 8974   9.957   8.054   1.899 -0.6553  0.8482  0.4764
   67MOL0     C 8975  10.439   7.652   2.312  0.1432  0.7915  0.3044
   67MOL0     C 8976  10.515   7.607   2.419  0.9540 -0.4161 -0.3595
   67MOL0     C 8977  10.480   7.469   2.472  0.2684 -0.7987  0.8857
   67MOL0     H 8978  10.688   7.283   2.741 -2.2366  2.1822  0.0883
   67MOL0     H 8979  10.820   7.171   2.904  1.2438  0.3328  1.9353
   67MOL0     H 8980  11.093   7.264   3.231  0.8271  0.5403 -0.8530
   67MOL0     H 8981  11.119   7.412   3.127 -0.5632 -1.3408 -1.1344
   67MOL0     H 8982  10.962   7.377   3.355  0.7492 -0.3461  0.4667
   67MOL0     H 8983  10.849   7.313   3.257 -0.6124  0.1887 -0.1556
   67MOL0     H 8984  10.857   7.533   3.101 -0.0601  1.9524  0.0171
   67MOL0     H 8985  10.966   7.590   3.208 -0.9910 -0.7890  1.6575
   67MOL0     H 8986  10.781   7.497   3.405 -1.9768 -1.7571 -0.3131
   67MOL0     H 8987  10.779   7.651   3.335  0.2536 -0.1439  0.2202
   67MOL0     H 8988  10.612   7.560   3.144 -0.6062  1.5998  1.1319
   67MOL0     H 8989  10.618   7.415   3.233  1.7542  0.0539  0.4313
   67MOL0     H 8990  10.536   7.583   3.427  0.1364  0.9672  0.0335
   67MOL0     H 8991  10.522   7.685   3.285 -4.0187  1.1928 -0.1008
   67MOL0     H 8992  10.338   7.448   3.359  2.0368  2.2841  3.1917
   67MOL0     H 8993  10.378   7.485   3.186  0.1587  0.5874 -0.0577
   67MOL0     H 8994  10.303   7.707   3.197  0.6435  1.0932  0.9579
   67MOL0     H 8995  10.172   7.612   3.265  0.7823  0.1890 -0.6693
   67MOL0     H 8996  10.082   7.624   3.513  1.8139 -2.1566 -0.0736
   67MOL0     H 8997  10.068   7.907   3.719  0.9825  1.1081  4.9793
   67MOL0     H 8998  10.032   7.733   3.735  1.0735 -0.0951 -0.1682
   67MOL0     H 8999  10.222   7.685   3.863  0.9502  0.3977 -0.0379
   67MOL0     H 9000  10.302   7.834   3.837 -0.2570 -0.6481 -3.0448
   67MOL0     H 9001  10.172   7.824   4.061 -1.2283 -2.3553  0.5871
   67MOL0     H 9002  10.024   7.826   3.971  0.1147  1.6801  0.9325
   67MOL0     H 9003  10.113   8.054   3.876  0.3805 -2.3920 -1.0375
   67MOL0     H 9004  10.263   8.042   3.943 -0.5677 -1.9371 -3.7550
   67MOL0     H 9005  10.243   8.266   3.920 -1.3952  1.9696 -3.1300
   67MOL0     H 9006  10.188   8.523   3.946  0.9526 -0.2813 -0.4191
   67MOL0     H 9007  10.164   8.742   4.315 -0.5971  1.5065  1.3943
   67MOL0     H 9008  10.258   8.928   4.412 -4.0946 -3.2499  0.3117
   67MOL0     H 9009  10.528   9.103   4.183  0.1314 -0.0402  0.8019
   67MOL0     H 9010  10.514   9.258   4.269  2.1931  0.1023  1.8070
   67MOL0     H 9011  10.515   9.119   4.487 -2.8510 -4.1076  0.6769
   67MOL0     H 9012  10.508   8.985   4.389 -4.2239  0.9364 -3.1933
   67MOL0     H 9013  10.734   8.976   4.361  3.3441 -0.4022  2.0804
   67MOL0     H 9014  10.753   9.142   4.314  0.9144 -1.2840 -1.6864
   67MOL0     H 9015  10.771   9.038   4.603  2.0420 -0.3233 -0.5409
   67MOL0     H 9016  10.749   9.212   4.555  2.2849 -0.4282  2.8820
   67MOL0     H 9017  10.942   9.198   4.402 -0.1363 -0.7690 -1.0075
   67MOL0     H 9018  10.947   9.029   4.440  2.0348  0.5315 -1.5330
   67MOL0     H 9019  11.018   9.274   4.607  2.1749  1.0341 -4.6079
   67MOL0     H 9020  10.992   9.107   4.685 -0.3146  1.4038  0.6648
   67MOL0     H 9021  11.200   9.064   4.496  1.7576 -2.3575  3.1964
   67MOL0     H 9022  11.225   9.120   4.652  0.4700  1.5255  0.0326
   67MOL0     H 9023  11.169   9.324   4.426 -1.4315 -0.3321  1.0991
   67MOL0     H 9024  11.219   9.357   4.586 -0.6627 -1.1206  1.5955
   67MOL0     H 9025  10.295   9.128   4.036 -1.9754 -0.5586  0.1694
   67MOL0     H 9026  10.160   8.931   3.933  1.1033 -2.3618  0.1718
   67MOL0     H 9027   9.884   8.425   4.231 -1.3315  0.2616 -2.1982
   67MOL0     H 9028   9.911   8.190   4.205 -2.5319  3.3174  1.0001
   67MOL0     H 9029  11.058   7.526   2.943 -0.0729 -0.4229  1.9211
   67MOL0     H 9030  10.958   7.610   2.725 -0.1149  0.9378  1.0426
   67MOL0     H 9031  10.733   7.857   2.433 -0.4202  2.0575 -3.1305
   67MOL0     H 9032  10.597   7.942   2.257 -0.5243 -0.8403  0.5691
   67MOL0     H 9033  10.513   7.794   1.981 -0.5357 -0.2376 -2.1474
   67MOL0     H 9034  10.499   7.957   2.062 -0.1496 -0.5060 -0.6845
   67MOL0     H 9035  10.367   7.947   1.832 -0.1070 -0.7928  0.8364
   67MOL0     H 9036  10.273   7.998   1.973  0.6490  2.1434  0.5008
   67MOL0     H 9037  10.180   7.762   1.975  2.8956 -2.5792  0.2159
   67MOL0     H 9038  10.282   7.721   1.833 -1.5447 -2.1722  3.1434
   67MOL0     H 9039  10.135   7.876   1.709 -1.2334 -0.3010 -0.7525
   67MOL0     H 9040  10.044   7.762   1.799  0.8937 -1.1244  2.6320
   67MOL0     H 9041   9.884   8.127   1.928 -0.3432  0.5780  1.9933
   67MOL0     H 9042  10.347   7.598   2.292  1.1639 -0.0427 -2.7784
   67MOL0     H 9043  10.516   7.387   2.409 -1.0606  0.0928 -1.1348
   67MOL0     H 9044  10.503   7.446   2.577 -2.6364  2.4890  2.4512
   67MOL0     H 9045  10.376   7.442   2.454 -0.3310  1.9584 -0.3988
   68MOL0     O 9046   5.585   0.802   3.116 -0.0686  0.4725 -0.5674
   68MOL0     C 9047   5.524   0.881   3.046 -1.7861 -0.1650 -0.2067
   68MOL0     O 9048   5.571   0.958   2.931  0.2990 -0.6019 -0.3572
   68MOL0     C 9049   5.703   0.936   2.888  1.1296 -0.1575 -0.9144
   68MOL0     C 9050   5.781   0.816   2.902  0.5381  0.0440  0.4907
   68MOL0     C 9051   5.902   0.808   2.847  0.4312 -0.2032 -0.3296
   68MOL0     C 9052   5.968   0.914   2.783 -0.2037 -0.5292 -0.8842
   68MOL0     O 9053   6.090   0.890   2.716 -0.5788  0.2207 -0.4433
   68MOL0     C 9054   6.095   0.946   2.586  0.5225  0.8716  0.1622
   68MOL0     C 9055   6.169   0.848   2.495  0.5478 -0.5803  0.3190
   68MOL0     C 9056   6.103   0.717   2.450  1.0899  0.0685 -0.1067
   68MOL0     C 9057   6.199   0.621   2.373 -0.7357  0.4570 -0.5580
   68MOL0     C 9058   6.119   0.511   2.302 -0.8927  0.8789  0.0659
   68MOL0     C 9059   6.195   0.427   2.206 -0.4641 -0.5457  1.0040
   68MOL0     C 9060   6.112   0.326   2.125 -0.3095 -0.4121 -0.2453
   68MOL0     C 9061   6.066   0.218   2.209  0.1079  0.4212 -0.0752
   68MOL0     N 9062   6.005   0.112   2.123 -0.6472  0.4550  0.4759
   68MOL0     C 9063   6.080   0.025   2.056  0.3745  0.1052  0.4490
   68MOL0     C 9064   5.994  -0.028   1.972  0.3330  0.1378  0.3399
   68MOL0     C 9065   6.024  -0.148   1.877  0.2420 -0.4763 -0.5845
   68MOL0     C 9066   5.953  -0.280   1.918  0.0560  0.6711  0.4604
   68MOL0     C 9067   5.945  -0.383   1.797  0.0580 -0.6851  0.0882
   68MOL0     C 9068   5.873  -0.334   1.674 -0.0953 -0.0499 -0.1960
   68MOL0     O 9069   5.738  -0.298   1.707 -0.8592 -0.4359 -0.8009
   68MOL0     C 9070   5.659  -0.227   1.624  0.0443 -0.1411 -0.3415
   68MOL0     C 9071   5.684  -0.217   1.485 -0.9368 -0.1904 -0.0773
   68MOL0     C 9072   5.597  -0.146   1.397  0.2822 -0.1549 -0.5967
   68MOL0     C 9073   5.492  -0.067   1.460  0.6424  0.6026 -0.2585
   68MOL0     C 9074   5.403   0.023   1.387 -0.2482 -0.5895 -0.4880
   68MOL0     O 9075   5.320   0.109   1.458 -0.6127 -0.3590  0.6362
   68MOL0     C 9076   5.238   0.216   1.415 -0.0801  0.0514  1.1564
   68MOL0     C 9077   5.117   0.247   1.473 -0.2634  1.0061 -0.5824
   68MOL0     C 9078   5.029   0.345   1.421  0.4162  1.0465  0.0570
   68MOL0     C 9079   5.069   0.418   1.308 -0.9080 -0.2204 -0.8509
   68MOL0     O 9080   4.988   0.519   1.267 -0.2229  0.9467  0.5194
   68MOL0     C 9081   5.024   0.632   1.346 -0.5859 -0.8550  0.2989
   68MOL0     C 9082   4.997   0.763   1.265 -0.1196  0.4911  1.0398
   68MOL0     C 9083   4.845   0.774   1.228  0.7414 -0.0724 -0.1537
   68MOL0     C 9084   4.825   0.919   1.182  0.6928  0.0756  0.7585
   68MOL0     C 9085   4.679   0.920   1.133  0.1815 -0.5832  0.4807
   68MOL0     C 9086   4.616   1.041   1.056 -0.4088  0.4426  0.3352
   68MOL0     C 9087   4.686   1.079   0.927 -0.1747 -0.2991 -0.3965
   68MOL0     C 9088   4.676   0.985   0.801 -0.2519 -0.5941  0.1987
   68MOL0    Cl 9089   4.789   1.070   0.673  0.1480  0.1068  0.6321
   68MOL0     C 9090   5.192   0.382   1.243  0.2830  0.0659 -0.3977
   68MOL0     C 9091   5.275   0.284   1.295  0.4267 -0.5758 -0.7474
   68MOL0     O 9092   5.410   0.020   1.261  0.4638 -0.0999  0.1522
   68MOL0     C 9093   5.475  -0.082   1.601 -0.3333 -0.2089  0.0559
   68MOL0     C 9094   5.552  -0.162   1.680  0.6030  1.2186 -0.5462
   68MOL0     N 9095   5.874   0.023   1.990  0.4220 -0.4751 -0.0354
   68MOL0     N 9096   5.873   0.116   2.083  0.4494 -0.1327  0.4461
   68MOL0     C 9097   5.901   1.037   2.790  1.1714  0.7424  1.0724
   68MOL0     C 9098   5.768   1.048   2.829  1.0223 -0.4020 -0.1962
   68MOL0     C 9099   5.387   0.887   3.073 -0.1711 -0.1293  0.4124
   68MOL0     C 9100   5.311   0.958   2.978 -0.1743  0.4759 -0.2485
   68MOL0     C 9101   5.169   0.971   2.995  0.1179  0.2787 -0.0737
   68MOL0     C 9102   5.107   0.925   3.109 -0.5194  0.7877 -0.7759
   68MOL0     O 9103   4.977   0.939   3.123  0.5218 -1.1685  0.1258
   68MOL0     C 9104   4.899   0.883   3.233 -1.1605  0.1914 -0.7395
   68MOL0     C 9105   4.751   0.909   3.224  0.2232  0.3827  0.1698
   68MOL0     C 9106   4.729   1.069   3.231  1.1308  0.6462 -0.0785
   68MOL0     C 9107   4.579   1.091   3.241 -0.7864 -0.3587  0.4193
   68MOL0     C 9108   4.504   1.047   3.117  0.3133 -0.9578 -0.3268
   68MOL0     C 9109   4.451   1.030   3.015  0.2843  0.4198 -0.7982
   68MOL0     C 9110   5.194   0.868   3.207 -0.4615  0.7976 -0.4852
   68MOL0     C 9111   5.330   0.844   3.196  0.3935  0.4481  0.7552
   68MOL0     C 9112   5.390   0.780   3.318  0.5459  0.9663  0.9811
   68MOL0     H 9113   5.733   0.734   2.954 -1.9017  1.3240  0.4069
   68MOL0     H 9114   5.958   0.717   2.867 -1.1167 -0.8497  1.4052
   68MOL0     H 9115   5.993   0.951   2.548  1.3737  3.2335 -2.0673
   68MOL0     H 9116   6.140   1.045   2.598 -0.2264  1.0997  1.3093
   68MOL0     H 9117   6.268   0.827   2.535  1.0433  0.0642 -0.5316
   68MOL0     H 9118   6.191   0.903   2.403 -0.8682  0.3192  0.4867
   68MOL0     H 9119   6.026   0.740   2.375  0.7315  0.0623  0.2574
   68MOL0     H 9120   6.046   0.669   2.530  0.2286  0.9203 -0.1875
   68MOL0     H 9121   6.255   0.669   2.293 -1.5618 -1.5649 -2.4525
   68MOL0     H 9122   6.271   0.585   2.447 -0.4119  1.4724 -0.3738
   68MOL0     H 9123   6.079   0.438   2.374  2.1711 -0.9992  0.0577
   68MOL0     H 9124   6.037   0.565   2.253  0.0812  2.7732  0.4435
   68MOL0     H 9125   6.240   0.491   2.129  0.4601  1.2953  2.9614
   68MOL0     H 9126   6.281   0.382   2.257  0.8149  0.8855  0.2042
   68MOL0     H 9127   6.177   0.290   2.045 -2.6237 -3.5025 -0.9461
   68MOL0     H 9128   6.020   0.373   2.089 -0.2666  0.2587  0.4915
   68MOL0     H 9129   6.160   0.178   2.249 -0.8324 -4.9277 -2.2862
   68MOL0     H 9130   5.998   0.246   2.290  1.0395 -1.9157  1.6192
   68MOL0     H 9131   6.185   0.005   2.075  0.3945  1.4790  2.0571
   68MOL0     H 9132   5.998  -0.102   1.782 -0.4423  0.0681 -0.1459
   68MOL0     H 9133   6.132  -0.164   1.872  0.6253  1.5356  0.2893
   68MOL0     H 9134   6.013  -0.328   1.995 -2.3625 -2.9044  0.3625
   68MOL0     H 9135   5.851  -0.276   1.958 -0.1499 -2.0802  0.3585
   68MOL0     H 9136   5.890  -0.474   1.824  1.3712 -1.3809  0.5024
   68MOL0     H 9137   6.046  -0.418   1.774 -0.6008 -2.6880  0.0276
   68MOL0     H 9138   5.869  -0.414   1.599 -1.9701 -1.3807  1.2297
   68MOL0     H 9139   5.921  -0.241   1.640 -0.4101  1.1513  2.4053
   68MOL0     H 9140   5.773  -0.255   1.437  0.3253  0.2927  1.7809
   68MOL0     H 9141   5.620  -0.137   1.291  4.3606  0.7700  0.2061
   68MOL0     H 9142   5.083   0.181   1.552 -1.3044  1.3477 -0.7381
   68MOL0     H 9143   4.936   0.365   1.473  1.3962  2.2650  1.4486
   68MOL0     H 9144   4.975   0.637   1.444  0.0111  1.2751  0.5425
   68MOL0     H 9145   5.129   0.628   1.376  0.0569 -3.2185 -1.9193
   68MOL0     H 9146   5.026   0.850   1.324 -1.8796  1.7386  0.1650
   68MOL0     H 9147   5.060   0.768   1.176 -1.2199  1.2843  0.2718
   68MOL0     H 9148   4.814   0.704   1.151 -0.1497 -1.3957  1.3457
   68MOL0     H 9149   4.776   0.754   1.311 -2.6242 -0.4828 -2.8449
   68MOL0     H 9150   4.890   0.939   1.096 -1.2625 -0.2675 -0.8961
   68MOL0     H 9151   4.853   0.997   1.253  0.0153  0.7943  0.2494
   68MOL0     H 9152   4.606   0.904   1.214 -2.4100  4.1421 -0.5558
   68MOL0     H 9153   4.675   0.839   1.060  1.8041  0.1575 -0.4687
   68MOL0     H 9154   4.509   1.024   1.038 -0.6558  0.2953  1.8263
   68MOL0     H 9155   4.620   1.126   1.124  1.3071 -0.2391  1.1329
   68MOL0     H 9156   4.790   1.098   0.958  0.4983  2.1948 -3.6241
   68MOL0     H 9157   4.640   1.173   0.897  0.6857  0.9754  2.0748
   68MOL0     H 9158   4.708   0.883   0.823 -1.8125 -0.3089  5.0775
   68MOL0     H 9159   4.568   0.988   0.780  0.2139  1.3641 -2.3856
   68MOL0     H 9160   5.219   0.446   1.160 -2.5799 -0.2718 -1.7084
   68MOL0     H 9161   5.367   0.258   1.245  2.6420  0.7283  2.3257
   68MOL0     H 9162   5.405  -0.031   1.666 -1.8673 -4.4179  2.0208
   68MOL0     H 9163   5.542  -0.169   1.788  5.3120 -1.0478 -0.0270
   68MOL0     H 9164   5.949   1.127   2.753  0.7667  0.4346 -0.2505
   68MOL0     H 9165   5.725   1.147   2.839 -0.2807 -0.7996 -1.4903
   68MOL0     H 9166   5.348   1.007   2.889 -1.1549  0.7294 -0.5246
   68MOL0     H 9167   5.114   1.034   2.924  3.0641  2.1879 -0.8358
   68MOL0     H 9168   4.923   0.937   3.325 -4.2365  0.1428  0.2017
   68MOL0     H 9169   4.913   0.775   3.245 -1.3196 -0.0773 -2.5452
   68MOL0     H 9170   4.697   0.848   3.297 -3.0548  1.2352 -1.3853
   68MOL0     H 9171   4.718   0.889   3.122  0.9593  3.8342 -0.9028
   68MOL0     H 9172   4.760   1.114   3.136  0.8908  2.2237  0.5664
   68MOL0     H 9173   4.789   1.121   3.305  2.1090  0.7546 -0.9226
   68MOL0     H 9174   4.542   1.042   3.332  1.3608 -0.2086  1.4314
   68MOL0     H 9175   4.570   1.200   3.242 -4.6408 -0.3414 -3.9499
   68MOL0     H 9176   4.385   1.003   2.935  1.2918 -1.4241 -1.0598
   68MOL0     H 9177   5.150   0.837   3.301  1.6597 -1.3954 -0.0915
   68MOL0     H 9178   5.417   0.678   3.290  2.5199  1.5213  0.7208
   68MOL0     H 9179   5.479   0.826   3.361  2.5068 -2.6697  1.2283
   68MOL0     H 9180   5.320   0.758   3.399  2.2637 -0.9944  2.0187
   69MOL0     O 9181   8.114   4.064   5.153 -0.5864  0.2420  0.4098
   69MOL0     C 9182   8.081   4.171   5.095 -0.0957  0.9002  0.3695
   69MOL0     O 9183   7.969   4.179   5.016 -0.1408  0.5224  0.1172
   69MOL0     C 9184   7.890   4.068   4.996  1.0109  0.0542 -0.2038
   69MOL0     C 9185   7.911   3.996   4.882 -0.7786  0.4053 -0.7456
   69MOL0     C 9186   7.841   3.878   4.860  0.0127  0.0387  0.2370
   69MOL0     C 9187   7.759   3.816   4.962  0.4217  0.8997 -0.6631
   69MOL0     O 9188   7.697   3.700   4.944  0.4414 -0.7176  0.2594
   69MOL0     C 9189   7.685   3.644   4.816 -0.7721  0.0783 -0.9325
   69MOL0     C 9190   7.585   3.533   4.814  0.9499 -0.5598 -0.3854
   69MOL0     C 9191   7.445   3.570   4.879 -0.1884  0.4492 -0.5696
   69MOL0     C 9192   7.438   3.525   5.033  0.1596 -0.1574  0.7254
   69MOL0     C 9193   7.398   3.381   5.050  0.6259  0.5535  0.3272
   69MOL0     C 9194   7.244   3.360   5.032  0.5461 -1.1789  0.7888
   69MOL0     C 9195   7.205   3.217   4.980 -1.1365  0.4397  0.1460
   69MOL0     C 9196   7.200   3.131   5.107  0.4661 -0.0620 -0.7304
   69MOL0     N 9197   7.063   3.137   5.172 -0.1762 -0.6380 -0.7115
   69MOL0     C 9198   7.038   3.225   5.273  0.1756 -0.0694 -0.3582
   69MOL0     C 9199   6.918   3.191   5.318  0.0302 -0.6154  0.1769
   69MOL0     C 9200   6.849   3.253   5.441 -0.3453  0.7189  1.1561
   69MOL0     C 9201   6.784   3.394   5.424 -0.0977 -0.1495  0.1543
   69MOL0     C 9202   6.702   3.423   5.292 -0.2068 -0.1288 -1.4226
   69MOL0     C 9203   6.786   3.493   5.184 -0.6253  0.0068 -0.4506
   69MOL0     O 9204   6.704   3.501   5.066 -0.2591  0.3897 -0.3347
   69MOL0     C 9205   6.744   3.616   4.988  1.3422  0.3532 -0.2750
   69MOL0     C 9206   6.637   3.677   4.935 -0.4184 -0.2193  0.0647
   69MOL0     C 9207   6.664   3.770   4.832  0.1091 -0.3414  0.8175
   69MOL0     C 9208   6.782   3.815   4.792 -0.2997  0.2841  0.7975
   69MOL0     C 9209   6.800   3.916   4.683  0.1602 -0.5869 -0.5990
   69MOL0     O 9210   6.682   3.966   4.626  0.2856 -0.4273 -0.0280
   69MOL0     C 9211   6.679   4.051   4.517 -0.5045  0.1200  0.5261
   69MOL0     C 9212   6.775   4.141   4.479 -0.2050  0.5401  0.0097
   69MOL0     C 9213   6.759   4.234   4.380  0.3828 -0.5288  0.5556
   69MOL0     C 9214   6.643   4.229   4.299 -0.5848  0.0485  0.4375
   69MOL0     O 9215   6.628   4.311   4.193  0.2785 -0.2347  0.1510
   69MOL0     C 9216   6.548   4.270   4.086  0.2434 -0.4420 -0.5763
   69MOL0     C 9217   6.574   4.358   3.961  0.1672 -0.3138 -0.7789
   69MOL0     C 9218   6.709   4.326   3.890  0.7919 -0.9061  0.1420
   69MOL0     C 9219   6.719   4.391   3.753  0.3806 -0.1032  0.2811
   69MOL0     C 9220   6.661   4.537   3.746 -0.8750  0.5601  0.3660
   69MOL0     C 9221   6.688   4.610   3.615  0.1283  0.2122  1.1759
   69MOL0     C 9222   6.839   4.659   3.616 -0.5512 -0.6813  0.4268
   69MOL0     C 9223   6.857   4.774   3.518 -0.0444  0.1094  1.0914
   69MOL0    Cl 9224   7.030   4.830   3.515  0.5772 -0.4255 -0.1631
   69MOL0     C 9225   6.551   4.130   4.324  0.3611 -0.5293  0.9878
   69MOL0     C 9226   6.567   4.042   4.431 -0.5272  0.2227 -0.1859
   69MOL0     O 9227   6.918   3.941   4.640  0.1609 -0.3910  0.3041
   69MOL0     C 9228   6.889   3.751   4.847  0.2637 -0.3829 -0.2274
   69MOL0     C 9229   6.873   3.651   4.941  0.1501  0.1744  0.1125
   69MOL0     N 9230   6.874   3.079   5.246  1.1083  0.7681 -0.5841
   69MOL0     N 9231   6.965   3.052   5.157 -0.1879 -0.4935 -0.0439
   69MOL0     C 9232   7.731   3.887   5.077 -0.6682 -0.0720 -0.0299
   69MOL0     C 9233   7.795   4.012   5.091  1.0188  0.1757 -0.5194
   69MOL0     C 9234   8.180   4.280   5.100 -0.4831  0.3133  0.1836
   69MOL0     C 9235   8.139   4.408   5.049  0.4193  0.6355 -0.0891
   69MOL0     C 9236   8.216   4.516   5.068 -0.1009 -0.5914  0.0043
   69MOL0     C 9237   8.350   4.508   5.117  0.5950 -0.4186  0.1556
   69MOL0     O 9238   8.443   4.609   5.095  0.9780 -0.8651  0.3629
   69MOL0     C 9239   8.391   4.737   5.151 -0.3193 -0.7056 -0.5844
   69MOL0     C 9240   8.496   4.834   5.196 -0.0296  0.3935  0.5751
   69MOL0     C 9241   8.585   4.773   5.296 -0.0853 -0.5036 -0.7042
   69MOL0     C 9242   8.533   4.754   5.442  0.0187 -0.7654  0.9822
   69MOL0     C 9243   8.446   4.638   5.458  0.4850 -0.0421  0.7203
   69MOL0     C 9244   8.397   4.530   5.465  0.2540  0.3096  0.7608
   69MOL0     C 9245   8.380   4.379   5.164 -0.0125  0.5059 -0.2196
   69MOL0     C 9246   8.313   4.264   5.154  0.1754  0.5608 -0.7277
   69MOL0     C 9247   8.379   4.138   5.218  0.0531 -0.1547 -0.4595
   69MOL0     H 9248   8.000   4.028   4.829  1.4285  0.8173  2.9375
   69MOL0     H 9249   7.866   3.830   4.766  2.8035  2.8657 -0.6223
   69MOL0     H 9250   7.656   3.715   4.737 -1.3518 -0.0982 -0.8838
   69MOL0     H 9251   7.776   3.590   4.789 -1.8942 -1.9914 -0.8246
   69MOL0     H 9252   7.612   3.438   4.861 -1.6144 -0.8547  0.6594
   69MOL0     H 9253   7.560   3.518   4.709  2.5677 -0.5828 -0.7895
   69MOL0     H 9254   7.359   3.539   4.819 -1.0830  0.4598  0.6656
   69MOL0     H 9255   7.436   3.679   4.874  1.9704  0.6100 -1.9815
   69MOL0     H 9256   7.540   3.533   5.072  0.7429 -1.6225 -0.4389
   69MOL0     H 9257   7.377   3.591   5.096  0.0029  3.4326 -2.7887
   69MOL0     H 9258   7.447   3.310   4.983  0.6166 -0.0082  0.9074
   69MOL0     H 9259   7.416   3.365   5.157  1.0108 -1.9521 -0.0550
   69MOL0     H 9260   7.198   3.396   5.125  3.3323 -0.8590  2.1754
   69MOL0     H 9261   7.209   3.419   4.947  0.0377  0.7740  2.2835
   69MOL0     H 9262   7.278   3.177   4.910 -3.3191 -1.1612 -1.3389
   69MOL0     H 9263   7.109   3.217   4.928 -0.4189 -2.0419 -1.3606
   69MOL0     H 9264   7.209   3.026   5.079 -2.4526 -0.1591 -1.7531
   69MOL0     H 9265   7.275   3.152   5.183  0.5452 -1.9732 -0.2220
   69MOL0     H 9266   7.100   3.298   5.325 -1.9682  0.3166  1.8275
   69MOL0     H 9267   6.772   3.181   5.470 -0.0841  0.9570  2.5162
   69MOL0     H 9268   6.922   3.257   5.523  3.4998 -1.3244 -1.7898
   69MOL0     H 9269   6.716   3.427   5.504  0.1681  2.5111 -0.6286
   69MOL0     H 9270   6.861   3.471   5.419 -0.6407  0.3674 -0.5193
   69MOL0     H 9271   6.619   3.491   5.315  0.6607  0.7729 -0.8526
   69MOL0     H 9272   6.653   3.331   5.260  0.0612 -0.1658 -1.7340
   69MOL0     H 9273   6.869   3.428   5.156  1.0487  2.4843 -1.6254
   69MOL0     H 9274   6.820   3.591   5.219 -0.6423 -0.5519  1.1826
   69MOL0     H 9275   6.535   3.652   4.961 -0.4819  1.7634  2.1000
   69MOL0     H 9276   6.575   3.811   4.784  0.3164  1.7393  2.0759
   69MOL0     H 9277   6.853   4.143   4.554 -0.4712  2.2176  0.2864
   69MOL0     H 9278   6.846   4.297   4.369  1.2034 -1.9832 -2.1610
   69MOL0     H 9279   6.568   4.167   4.056  0.7493 -0.3943 -0.4081
   69MOL0     H 9280   6.441   4.272   4.109  0.3584  0.7779 -0.1127
   69MOL0     H 9281   6.490   4.357   3.892 -0.2686  0.5757 -0.2861
   69MOL0     H 9282   6.575   4.461   3.999  1.1513 -0.2573 -0.9208
   69MOL0     H 9283   6.800   4.363   3.940  1.3108  0.6738 -1.8151
   69MOL0     H 9284   6.713   4.218   3.878  1.3933 -0.9752  0.8805
   69MOL0     H 9285   6.664   4.334   3.678  1.0841  0.0644 -0.3613
   69MOL0     H 9286   6.824   4.383   3.724 -0.4136  0.9448 -3.4002
   69MOL0     H 9287   6.707   4.592   3.829  0.0550 -1.7387  1.4854
   69MOL0     H 9288   6.557   4.553   3.774 -1.2253  0.0565 -0.6117
   69MOL0     H 9289   6.663   4.541   3.534 -1.4324 -0.2458  2.0182
   69MOL0     H 9290   6.630   4.702   3.623  0.7798  0.6718  0.7417
   69MOL0     H 9291   6.904   4.586   3.567  0.6849  1.3990 -1.2693
   69MOL0     H 9292   6.876   4.693   3.713  4.2569  0.4675 -1.5191
   69MOL0     H 9293   6.832   4.730   3.421  0.5943  0.3789  0.7977
   69MOL0     H 9294   6.786   4.852   3.547  1.0352  0.4565  2.9745
   69MOL0     H 9295   6.463   4.114   4.262 -1.3640  1.6442  2.7379
   69MOL0     H 9296   6.488   3.968   4.434  1.0788 -1.8091 -3.0705
   69MOL0     H 9297   6.989   3.778   4.815  0.1465 -0.9659 -1.1222
   69MOL0     H 9298   6.962   3.606   4.985  0.4565  2.5995  2.2457
   69MOL0     H 9299   7.659   3.844   5.146  0.5539  0.7469  1.8380
   69MOL0     H 9300   7.783   4.083   5.173 -0.1343  2.9385 -2.8841
   69MOL0     H 9301   8.046   4.422   4.994  2.6653  1.7882 -3.9537
   69MOL0     H 9302   8.170   4.611   5.041  0.5225 -0.4031 -0.4195
   69MOL0     H 9303   8.339   4.719   5.245 -0.4579  1.3402 -0.2379
   69MOL0     H 9304   8.335   4.782   5.068 -0.2844 -1.7721 -1.2088
   69MOL0     H 9305   8.439   4.913   5.246 -2.7035 -0.4191 -0.9621
   69MOL0     H 9306   8.550   4.871   5.108 -1.8203  0.6616 -0.4659
   69MOL0     H 9307   8.668   4.845   5.300  1.2594 -1.6880 -3.7889
   69MOL0     H 9308   8.633   4.683   5.256 -0.6383 -1.0283 -0.1951
   69MOL0     H 9309   8.622   4.744   5.505  3.1452 -0.4201 -2.9935
   69MOL0     H 9310   8.488   4.851   5.464 -0.4933 -1.2328  2.1021
   69MOL0     H 9311   8.351   4.434   5.478  0.5706  0.1564  0.7739
   69MOL0     H 9312   8.475   4.379   5.215  0.0137  1.4092 -0.2614
   69MOL0     H 9313   8.386   4.063   5.138  2.5617 -2.7503  1.9436
   69MOL0     H 9314   8.481   4.154   5.255 -0.1729  1.8009 -0.5859
   69MOL0     H 9315   8.335   4.092   5.306  3.5625 -0.5265  1.2822
   70MOL0     O 9316   3.668   3.723   3.884 -0.4874 -0.3321  0.5238
   70MOL0     C 9317   3.770   3.750   3.946  0.3911 -0.2096  0.3396
   70MOL0     O 9318   3.834   3.675   4.042  0.9024  1.3434  0.0477
   70MOL0     C 9319   3.802   3.538   4.052 -0.1338 -0.3082 -0.3866
   70MOL0     C 9320   3.790   3.459   3.939  0.6575 -0.2435 -0.5528
   70MOL0     C 9321   3.752   3.319   3.951 -0.6680 -0.5068 -0.5603
   70MOL0     C 9322   3.758   3.257   4.071  0.0591 -0.6072 -0.6741
   70MOL0     O 9323   3.732   3.126   4.109 -0.3795  0.0752 -0.7687
   70MOL0     C 9324   3.714   3.034   4.011 -0.1521  0.3052 -0.2219
   70MOL0     C 9325   3.698   2.899   4.069 -0.1565 -0.3397  0.0249
   70MOL0     C 9326   3.678   2.796   3.956 -0.3379  0.3913 -0.1359
   70MOL0     C 9327   3.547   2.811   3.883  0.0739  0.6775  0.4060
   70MOL0     C 9328   3.539   2.704   3.773 -0.0001 -0.1341 -0.3527
   70MOL0     C 9329   3.407   2.687   3.695  0.0696 -1.1215 -0.4793
   70MOL0     C 9330   3.283   2.705   3.780  0.7641 -0.1886 -0.0597
   70MOL0     C 9331   3.154   2.658   3.707  0.1131 -1.2402  0.4101
   70MOL0     N 9332   3.028   2.653   3.785  0.1102  0.3772  0.0846
   70MOL0     C 9333   2.944   2.759   3.793  0.4213 -0.2238  0.7308
   70MOL0     C 9334   2.861   2.730   3.887  0.0922  0.2621 -0.3759
   70MOL0     C 9335   2.742   2.808   3.931 -0.1205  0.2315 -0.3416
   70MOL0     C 9336   2.773   2.942   3.986  0.0896 -0.7573 -0.3896
   70MOL0     C 9337   2.845   2.954   4.122 -0.1225 -0.7125  0.2625
   70MOL0     C 9338   2.975   2.878   4.149 -0.2844  0.0752 -0.0549
   70MOL0     O 9339   3.057   2.977   4.218 -0.2413  0.9074 -0.0577
   70MOL0     C 9340   3.183   2.948   4.267 -0.1882  0.7616  0.1189
   70MOL0     C 9341   3.231   2.815   4.276 -0.7425  1.0884 -0.4552
   70MOL0     C 9342   3.350   2.789   4.346  0.1595  0.1689 -0.2224
   70MOL0     C 9343   3.429   2.901   4.384  0.1984  0.8130 -0.0443
   70MOL0     C 9344   3.563   2.868   4.422 -0.3538  0.6305  1.3009
   70MOL0     O 9345   3.640   2.975   4.439  1.1017 -0.0216 -0.3850
   70MOL0     C 9346   3.776   2.948   4.452  0.1732  0.3299 -0.5110
   70MOL0     C 9347   3.841   3.028   4.530 -0.7333 -0.7740 -0.3540
   70MOL0     C 9348   3.981   3.009   4.554 -0.3897  0.2152  0.8882
   70MOL0     C 9349   4.055   2.912   4.498  0.5413  0.8341  0.1653
   70MOL0     O 9350   4.186   2.900   4.531 -0.1164  0.1346  0.5158
   70MOL0     C 9351   4.267   2.813   4.449 -0.0613 -0.9764  0.3382
   70MOL0     C 9352   4.407   2.835   4.492  0.4928 -0.9202  0.1725
   70MOL0     C 9353   4.454   2.962   4.450 -0.6036  1.0118 -0.5866
   70MOL0     C 9354   4.594   2.982   4.501 -0.5149 -0.0863 -0.2447
   70MOL0     C 9355   4.619   3.133   4.504  0.5510  0.6055 -0.0712
   70MOL0     C 9356   4.624   3.191   4.363 -0.4107  0.2437 -0.1597
   70MOL0     C 9357   4.672   3.329   4.350  0.2383  0.4173 -0.2548
   70MOL0     C 9358   4.638   3.405   4.222 -0.0306  0.6239  0.5086
   70MOL0    Cl 9359   4.658   3.566   4.280 -0.2975 -0.4081 -0.4954
   70MOL0     C 9360   3.985   2.820   4.415 -0.7858  0.3399  0.0343
   70MOL0     C 9361   3.848   2.843   4.386  0.0268 -0.0798 -0.5197
   70MOL0     O 9362   3.595   2.753   4.454  0.1180 -0.2183  0.5576
   70MOL0     C 9363   3.376   3.035   4.367 -0.4433 -0.9060  0.2537
   70MOL0     C 9364   3.254   3.053   4.311  0.0121  0.1094  0.8465
   70MOL0     N 9365   2.886   2.602   3.940 -0.6130 -1.3701 -0.2850
   70MOL0     N 9366   2.985   2.559   3.873 -0.1010 -0.5863  0.5204
   70MOL0     C 9367   3.773   3.330   4.182 -0.2000 -0.0906 -0.4742
   70MOL0     C 9368   3.806   3.468   4.173  0.3842 -0.7362  0.2403
   70MOL0     C 9369   3.847   3.869   3.893  1.2610 -0.5523 -0.8616
   70MOL0     C 9370   3.960   3.909   3.965  0.0645 -0.8137 -0.0060
   70MOL0     C 9371   4.060   3.998   3.911 -0.4577 -0.5514 -0.4368
   70MOL0     C 9372   4.043   4.063   3.783  0.2108 -0.0940  0.2808
   70MOL0     O 9373   4.128   4.146   3.730 -0.2689  0.3670  0.5983
   70MOL0     C 9374   4.213   4.223   3.818  0.2711  0.2335  0.4620
   70MOL0     C 9375   4.350   4.139   3.842  0.7953 -1.3745 -0.5497
   70MOL0     C 9376   4.424   4.094   3.706  0.2778  0.3349 -0.9940
   70MOL0     C 9377   4.570   4.045   3.749 -0.8322  0.4306  0.0326
   70MOL0     C 9378   4.550   3.910   3.827  0.1414 -0.2108  0.1821
   70MOL0     C 9379   4.535   3.798   3.874 -0.8175  0.5823  0.3526
   70MOL0     C 9380   3.930   4.028   3.716  1.0650 -0.2939 -0.4869
   70MOL0     C 9381   3.832   3.935   3.767 -0.2789  0.0938 -0.3079
   70MOL0     C 9382   3.720   3.902   3.674 -0.1539  0.1278 -0.4863
   70MOL0     H 9383   3.784   3.511   3.843  0.1129  1.9307  0.5828
   70MOL0     H 9384   3.718   3.273   3.859 -1.0453 -1.0477 -0.1601
   70MOL0     H 9385   3.621   3.062   3.959 -2.7946 -0.7241  3.5173
   70MOL0     H 9386   3.792   3.033   3.934 -0.2035 -5.5075 -0.6473
   70MOL0     H 9387   3.600   2.907   4.115 -2.6683 -3.8222 -3.9412
   70MOL0     H 9388   3.785   2.888   4.135 -0.2646 -1.2854  0.0146
   70MOL0     H 9389   3.693   2.692   3.988  1.6335  0.1920 -1.5304
   70MOL0     H 9390   3.758   2.808   3.882 -1.3727 -0.8649 -1.5306
   70MOL0     H 9391   3.464   2.815   3.953  0.1116 -2.4040  0.7693
   70MOL0     H 9392   3.542   2.903   3.824 -0.2523  0.8332  0.6786
   70MOL0     H 9393   3.625   2.706   3.706  1.5730 -0.6476  1.5647
   70MOL0     H 9394   3.543   2.602   3.814  0.1108  0.2224  0.5467
   70MOL0     H 9395   3.399   2.749   3.605 -2.9366 -1.1280 -0.3332
   70MOL0     H 9396   3.416   2.584   3.659  0.6420 -0.9725 -0.7744
   70MOL0     H 9397   3.281   2.811   3.808  3.9735  0.2249 -0.9852
   70MOL0     H 9398   3.292   2.650   3.875 -0.5099 -0.9905 -0.3765
   70MOL0     H 9399   3.149   2.724   3.620  1.2973 -1.3985  0.2063
   70MOL0     H 9400   3.168   2.557   3.667 -1.2471 -1.6057  0.8098
   70MOL0     H 9401   2.944   2.844   3.727  1.4015 -0.0822  0.9032
   70MOL0     H 9402   2.665   2.823   3.854  2.2392  0.2965 -2.8667
   70MOL0     H 9403   2.685   2.741   3.996 -1.7171  0.7444 -1.1787
   70MOL0     H 9404   2.813   3.018   3.917  0.5082  2.3694  2.9488
   70MOL0     H 9405   2.678   2.989   4.014 -1.1095 -1.5875 -2.8377
   70MOL0     H 9406   2.774   2.926   4.200 -0.2376 -1.8160 -0.2202
   70MOL0     H 9407   2.862   3.062   4.127 -0.3717 -0.7281  1.7809
   70MOL0     H 9408   3.019   2.854   4.052  2.8615  1.9801  0.7615
   70MOL0     H 9409   2.967   2.787   4.210 -2.9012 -1.3893 -2.3163
   70MOL0     H 9410   3.170   2.730   4.249 -0.0461  0.1576  0.7933
   70MOL0     H 9411   3.377   2.685   4.363  1.0897 -0.0607 -2.6694
   70MOL0     H 9412   3.805   3.117   4.580  0.6986  0.0561 -0.7294
   70MOL0     H 9413   4.029   3.070   4.630 -1.2998 -0.4927  2.0638
   70MOL0     H 9414   4.235   2.710   4.471  1.0398 -1.6618 -1.0425
   70MOL0     H 9415   4.254   2.834   4.343 -0.3569 -0.4413  0.4778
   70MOL0     H 9416   4.406   2.831   4.602 -2.6249  0.5277  0.2878
   70MOL0     H 9417   4.469   2.751   4.459 -2.4954 -3.2649  0.0837
   70MOL0     H 9418   4.448   2.954   4.341 -0.7329  1.0588 -0.5830
   70MOL0     H 9419   4.390   3.043   4.484 -1.1825  0.1843  0.3683
   70MOL0     H 9420   4.660   2.940   4.425 -2.1604 -0.6729 -1.3927
   70MOL0     H 9421   4.603   2.936   4.600 -2.4784  3.1470  1.6201
   70MOL0     H 9422   4.713   3.148   4.556 -0.4636 -2.1598  2.8925
   70MOL0     H 9423   4.538   3.189   4.552 -0.6349 -0.5904 -0.5839
   70MOL0     H 9424   4.688   3.131   4.297 -1.0485  0.2793 -0.8267
   70MOL0     H 9425   4.527   3.192   4.312  0.1691  1.0662 -1.2990
   70MOL0     H 9426   4.781   3.328   4.358  0.3985 -3.7397 -0.8845
   70MOL0     H 9427   4.622   3.381   4.432  0.0053  0.1686 -0.2359
   70MOL0     H 9428   4.698   3.370   4.138  1.2695 -2.1682  2.4188
   70MOL0     H 9429   4.532   3.396   4.195  0.7607  1.5924 -3.4896
   70MOL0     H 9430   4.040   2.735   4.377  1.1246  0.4743  2.2423
   70MOL0     H 9431   3.795   2.776   4.320  1.0311 -1.8053  0.3599
   70MOL0     H 9432   3.435   3.120   4.401  0.0620 -1.6171  1.1939
   70MOL0     H 9433   3.215   3.153   4.300  1.6957  0.5578 -2.1349
   70MOL0     H 9434   3.767   3.293   4.284  2.8404  3.9951  1.4737
   70MOL0     H 9435   3.847   3.514   4.262  0.5778 -0.3548 -0.0434
   70MOL0     H 9436   3.979   3.862   4.061  4.7085 -2.0218 -1.2316
   70MOL0     H 9437   4.150   4.018   3.968 -1.0871 -0.0145  0.3917
   70MOL0     H 9438   4.166   4.233   3.916 -0.4407  2.5546 -0.0636
   70MOL0     H 9439   4.238   4.321   3.777 -2.1056  1.1406  1.0609
   70MOL0     H 9440   4.339   4.051   3.906  0.4242 -0.8677  0.0926
   70MOL0     H 9441   4.413   4.218   3.885  0.1722  0.9082 -3.4597
   70MOL0     H 9442   4.437   4.186   3.649  0.2491  1.0608  0.1388
   70MOL0     H 9443   4.370   4.019   3.648 -1.0812  0.4048  0.1322
   70MOL0     H 9444   4.634   4.017   3.665 -1.7452  3.6790 -1.8959
   70MOL0     H 9445   4.628   4.117   3.809  0.3491  0.2489 -0.8637
   70MOL0     H 9446   4.535   3.699   3.914 -0.3053  1.3836  2.4466
   70MOL0     H 9447   3.915   4.075   3.619 -1.4971  2.0270  0.8740
   70MOL0     H 9448   3.736   3.819   3.604 -0.3860 -0.5879  0.2921
   70MOL0     H 9449   3.631   3.888   3.736  0.3543 -0.9398  0.0110
   70MOL0     H 9450   3.704   3.988   3.608  2.1951  2.0382  1.2413
   71MOL0     O 9451   2.743   6.552   3.494  0.4852  0.2647 -0.3063
   71MOL0     C 9452   2.630   6.505   3.522 -0.8796 -0.5871  0.1980
   71MOL0     O 9453   2.578   6.405   3.446  0.1132  0.3165  0.1097
   71MOL0     C 9454   2.663   6.321   3.375  0.6592 -0.2271  0.1293
   71MOL0     C 9455   2.691   6.348   3.240 -0.1802  0.8986  0.6806
   71MOL0     C 9456   2.775   6.255   3.176  0.2654  0.0625  0.4566
   71MOL0     C 9457   2.829   6.136   3.235 -0.0271 -0.0812  0.5223
   71MOL0     O 9458   2.904   6.060   3.148  0.7654  0.3063 -0.3835
   71MOL0     C 9459   2.967   5.938   3.186  0.4870  1.1147 -0.2528
   71MOL0     C 9460   3.004   5.855   3.066  0.4038  0.1600 -0.0435
   71MOL0     C 9461   3.083   5.942   2.967 -0.5725  0.1310  0.4753
   71MOL0     C 9462   3.137   5.859   2.846  0.8928  0.8973 -0.3664
   71MOL0     C 9463   3.233   5.944   2.762 -0.7635  0.6579 -0.2305
   71MOL0     C 9464   3.155   6.033   2.668 -0.7108  0.0708 -0.3578
   71MOL0     C 9465   3.254   6.111   2.573  0.2481 -0.1027 -0.0232
   71MOL0     C 9466   3.329   6.023   2.471  0.4909  0.2532  0.0774
   71MOL0     N 9467   3.382   6.091   2.356  0.0245  0.6287  0.7208
   71MOL0     C 9468   3.472   6.202   2.349  0.0463  1.2858 -0.5489
   71MOL0     C 9469   3.471   6.246   2.225  0.4565  0.0764 -0.1535
   71MOL0     C 9470   3.538   6.372   2.180 -0.1668  0.8493 -0.4715
   71MOL0     C 9471   3.662   6.328   2.099 -0.0301 -0.2397 -0.9139
   71MOL0     C 9472   3.751   6.455   2.064  0.2613  0.2925  0.0978
   71MOL0     C 9473   3.698   6.574   1.977 -0.1507 -0.4339 -0.0934
   71MOL0     O 9474   3.610   6.652   2.064 -0.1049 -0.2538 -0.4979
   71MOL0     C 9475   3.628   6.784   2.091  0.0867  0.4987 -0.4132
   71MOL0     C 9476   3.695   6.878   2.010 -0.1807 -0.1804  0.1771
   71MOL0     C 9477   3.702   7.009   2.053  0.3623  0.2136  0.3626
   71MOL0     C 9478   3.656   7.053   2.170 -0.1742 -0.2901  0.1561
   71MOL0     C 9479   3.701   7.187   2.225 -0.3843 -0.2165 -0.8545
   71MOL0     O 9480   3.726   7.289   2.133 -0.2733 -0.1218 -0.6278
   71MOL0     C 9481   3.783   7.403   2.174  0.8926 -0.0164  0.7125
   71MOL0     C 9482   3.860   7.418   2.293 -0.4676  0.4239  0.4155
   71MOL0     C 9483   3.934   7.535   2.316  0.4049  0.2600  0.8318
   71MOL0     C 9484   3.913   7.638   2.227 -0.7941  0.0501 -0.8835
   71MOL0     O 9485   3.984   7.752   2.233 -1.2593 -0.3166 -0.3472
   71MOL0     C 9486   4.128   7.740   2.188 -0.6980  0.4015  0.4092
   71MOL0     C 9487   4.143   7.809   2.052 -0.5863  0.1861 -1.9678
   71MOL0     C 9488   4.292   7.817   1.990 -0.0024  0.1525 -0.6276
   71MOL0     C 9489   4.290   7.870   1.843  0.0808  0.3079 -0.3897
   71MOL0     C 9490   4.416   7.826   1.776 -0.7641  0.1123  0.2752
   71MOL0     C 9491   4.419   7.871   1.642  0.9212  0.2013 -0.9581
   71MOL0     C 9492   4.526   7.808   1.567  1.0024  0.3515 -0.3895
   71MOL0     C 9493   4.657   7.773   1.631  0.5624  0.1136 -0.2413
   71MOL0    Cl 9494   4.738   7.676   1.506  0.0555  0.0398 -0.3164
   71MOL0     C 9495   3.825   7.623   2.118  1.3615 -0.8371  0.5884
   71MOL0     C 9496   3.756   7.505   2.094  0.2790  0.1296 -0.8050
   71MOL0     O 9497   3.685   7.206   2.347 -0.4392  0.5890  0.5343
   71MOL0     C 9498   3.575   6.969   2.246  0.3919  0.0658 -0.1161
   71MOL0     C 9499   3.556   6.836   2.205 -0.9024 -0.6614 -0.9169
   71MOL0     N 9500   3.378   6.171   2.153  1.1146 -0.8371 -0.1883
   71MOL0     N 9501   3.327   6.084   2.236 -0.0572  0.6107 -0.7676
   71MOL0     C 9502   2.793   6.106   3.361 -1.1833 -0.3191 -0.3356
   71MOL0     C 9503   2.706   6.198   3.430  0.1732 -0.0560 -1.0424
   71MOL0     C 9504   2.551   6.571   3.626 -0.1113  0.9858 -1.3635
   71MOL0     C 9505   2.609   6.666   3.700 -0.4725 -0.1306  0.6541
   71MOL0     C 9506   2.554   6.730   3.809  0.5073  0.1936 -1.1279
   71MOL0     C 9507   2.429   6.697   3.852  0.6974 -0.8785  0.3048
   71MOL0     O 9508   2.361   6.754   3.960  0.2877 -0.2506  1.0319
   71MOL0     C 9509   2.432   6.708   4.080 -0.1703  0.9634 -0.1665
   71MOL0     C 9510   2.348   6.764   4.188 -0.2336 -0.2043 -0.6804
   71MOL0     C 9511   2.391   6.708   4.326  0.3090 -0.3793  0.3956
   71MOL0     C 9512   2.392   6.549   4.342  0.6177 -0.1947 -0.7714
   71MOL0     C 9513   2.265   6.478   4.303 -0.6589  0.2848 -0.3926
   71MOL0     C 9514   2.165   6.419   4.273  0.2874  0.5426  0.4916
   71MOL0     C 9515   2.353   6.609   3.773 -0.7228 -1.2657 -0.6391
   71MOL0     C 9516   2.414   6.542   3.665  0.2894 -0.1149 -0.2090
   71MOL0     C 9517   2.330   6.444   3.591  0.9514  0.7549 -0.6475
   71MOL0     H 9518   2.649   6.439   3.199 -1.3568 -0.1337 -0.5109
   71MOL0     H 9519   2.815   6.269   3.076 -1.1898  0.5885 -0.0837
   71MOL0     H 9520   3.057   5.953   3.247  0.4772 -2.4511  0.8923
   71MOL0     H 9521   2.900   5.879   3.249  2.6908 -0.9360  0.3510
   71MOL0     H 9522   2.909   5.823   3.021  0.5589  1.6511 -1.5282
   71MOL0     H 9523   3.067   5.767   3.080  1.9765  0.9302 -1.8449
   71MOL0     H 9524   3.164   6.000   3.011 -3.1613  3.4000  1.3014
   71MOL0     H 9525   3.013   6.012   2.921 -0.2944 -0.6775 -1.2490
   71MOL0     H 9526   3.200   5.785   2.897  0.2443  1.5084  1.4232
   71MOL0     H 9527   3.074   5.805   2.775 -0.0909  0.0721  1.0717
   71MOL0     H 9528   3.289   6.009   2.830 -1.4417  1.2095 -0.1909
   71MOL0     H 9529   3.297   5.881   2.700 -0.5455  2.1763 -1.6077
   71MOL0     H 9530   3.090   5.971   2.605  0.0375 -1.1522  0.0303
   71MOL0     H 9531   3.101   6.108   2.726 -2.1547  0.9516 -2.6849
   71MOL0     H 9532   3.315   6.181   2.632 -0.0265  0.9979 -0.9887
   71MOL0     H 9533   3.199   6.188   2.518  0.0128  1.6536  2.5077
   71MOL0     H 9534   3.404   5.970   2.530  0.3910  0.8225  0.7307
   71MOL0     H 9535   3.248   5.955   2.441 -0.7644  0.1407  3.3442
   71MOL0     H 9536   3.526   6.255   2.426 -0.7735  0.8753  0.3450
   71MOL0     H 9537   3.464   6.434   2.128 -0.7151 -1.1323 -2.2279
   71MOL0     H 9538   3.561   6.431   2.268 -1.7249  1.5363 -0.4954
   71MOL0     H 9539   3.719   6.255   2.158 -1.2090 -1.1663 -0.8829
   71MOL0     H 9540   3.630   6.272   2.011 -2.5863 -2.5501  1.2672
   71MOL0     H 9541   3.843   6.411   2.022 -0.2001 -0.2084 -0.3979
   71MOL0     H 9542   3.780   6.491   2.163 -3.6651 -0.9804  1.8729
   71MOL0     H 9543   3.637   6.547   1.890  2.8566 -1.9630 -1.8964
   71MOL0     H 9544   3.789   6.625   1.946  0.2849 -0.1502  1.5940
   71MOL0     H 9545   3.741   6.837   1.920  1.0236 -0.3010  0.8190
   71MOL0     H 9546   3.755   7.075   1.985  0.4425 -0.0863  0.1338
   71MOL0     H 9547   3.883   7.334   2.357 -2.3452  0.3203  1.0242
   71MOL0     H 9548   3.997   7.536   2.404 -1.9895  1.0967  2.6695
   71MOL0     H 9549   4.198   7.791   2.254 -1.9244  1.9527  0.5811
   71MOL0     H 9550   4.164   7.637   2.192  1.6149  1.2197  2.4536
   71MOL0     H 9551   4.077   7.748   1.990 -0.6443  0.0365 -1.7633
   71MOL0     H 9552   4.102   7.909   2.069  0.6562  0.2063  1.9405
   71MOL0     H 9553   4.354   7.894   2.036 -0.3642 -0.4211  0.8564
   71MOL0     H 9554   4.333   7.717   2.005 -1.5745 -0.0006  3.8473
   71MOL0     H 9555   4.280   7.979   1.852 -2.5337  0.0712  0.5763
   71MOL0     H 9556   4.201   7.835   1.789  1.6757 -2.2737 -1.4986
   71MOL0     H 9557   4.419   7.718   1.766 -0.4225  0.3591 -3.8064
   71MOL0     H 9558   4.500   7.864   1.836 -1.0306  2.0100 -0.4751
   71MOL0     H 9559   4.328   7.862   1.582 -0.1027  0.0777  0.5625
   71MOL0     H 9560   4.438   7.978   1.650 -1.3830  0.6208 -0.3087
   71MOL0     H 9561   4.533   7.865   1.474 -1.7826  0.2621 -0.7123
   71MOL0     H 9562   4.479   7.717   1.530 -0.6564  1.0694 -0.1343
   71MOL0     H 9563   4.718   7.857   1.665  0.7503 -0.5388  1.1015
   71MOL0     H 9564   4.636   7.713   1.720 -1.2557  0.5927 -0.3021
   71MOL0     H 9565   3.811   7.707   2.051  0.1997 -0.5662  1.1500
   71MOL0     H 9566   3.689   7.490   2.010 -0.9627 -0.8292  0.3059
   71MOL0     H 9567   3.535   7.009   2.338 -0.6815  0.4826 -0.7473
   71MOL0     H 9568   3.486   6.770   2.254  1.2072 -2.0708  0.3285
   71MOL0     H 9569   2.828   6.013   3.406  1.3556  1.1987  1.0434
   71MOL0     H 9570   2.666   6.166   3.527  1.8904 -0.2435 -0.3694
   71MOL0     H 9571   2.714   6.687   3.679 -0.2639 -0.2850  1.5283
   71MOL0     H 9572   2.612   6.808   3.857  2.8988  0.4453 -4.1885
   71MOL0     H 9573   2.534   6.743   4.097  0.1573  1.3108 -2.4955
   71MOL0     H 9574   2.428   6.599   4.088 -0.3075  1.1124  3.5710
   71MOL0     H 9575   2.241   6.742   4.177 -0.6350  1.4001 -0.1608
   71MOL0     H 9576   2.358   6.873   4.187 -2.7946  0.1179  0.7107
   71MOL0     H 9577   2.318   6.744   4.399 -2.1729 -0.4329 -1.8724
   71MOL0     H 9578   2.492   6.746   4.342  0.9619 -2.3786  1.3579
   71MOL0     H 9579   2.475   6.499   4.291  0.5839 -3.1192  1.7280
   71MOL0     H 9580   2.413   6.535   4.449  2.6812  3.9498 -0.4433
   71MOL0     H 9581   2.067   6.381   4.250 -0.3675  1.6950  1.2780
   71MOL0     H 9582   2.250   6.597   3.805 -1.6408  2.3907 -1.7496
   71MOL0     H 9583   2.347   6.337   3.606 -2.1276  0.2548 -0.2176
   71MOL0     H 9584   2.227   6.461   3.623  0.3606 -2.5430 -0.4776
   71MOL0     H 9585   2.348   6.471   3.487  0.8041 -1.2049 -1.2215
   72MOL0     O 9586   1.736   1.385   0.756 -0.9118 -0.5348  1.1513
   72MOL0     C 9587   1.842   1.339   0.751  1.3183 -0.3499  0.6467
   72MOL0     O 9588   1.874   1.209   0.747 -0.2950 -0.4173 -0.1389
   72MOL0     C 9589   1.799   1.131   0.663 -1.0076  0.4429  0.6413
   72MOL0     C 9590   1.872   1.035   0.594  0.2818 -0.7416  0.2781
   72MOL0     C 9591   1.805   0.934   0.523 -0.4872 -0.8366  0.1751
   72MOL0     C 9592   1.675   0.933   0.498  0.2422 -0.0197  0.2750
   72MOL0     O 9593   1.628   0.842   0.409  0.0594 -0.2090 -0.1866
   72MOL0     C 9594   1.497   0.784   0.420  0.1850  0.0449  0.2553
   72MOL0     C 9595   1.464   0.705   0.295 -0.5566  0.0602  0.7157
   72MOL0     C 9596   1.321   0.642   0.319 -0.3957 -0.6688  1.0261
   72MOL0     C 9597   1.272   0.572   0.192  0.1375 -0.4279 -0.7792
   72MOL0     C 9598   1.127   0.506   0.204 -0.3688 -0.4773 -0.2837
   72MOL0     C 9599   1.139   0.373   0.126  0.4788 -0.4594 -0.5692
   72MOL0     C 9600   1.154   0.374  -0.022 -0.5800 -0.3733 -0.6679
   72MOL0     C 9601   1.139   0.228  -0.060  0.3720  0.2703  1.0584
   72MOL0     N 9602   1.159   0.220  -0.210  0.2147 -0.0974 -0.2429
   72MOL0     C 9603   1.277   0.183  -0.273 -0.0670  0.1875 -0.2099
   72MOL0     C 9604   1.245   0.180  -0.404 -0.5770 -0.1570  0.4110
   72MOL0     C 9605   1.347   0.164  -0.516 -0.3464  0.0936 -0.2131
   72MOL0     C 9606   1.355   0.287  -0.598 -0.4406 -0.8605  0.2594
   72MOL0     C 9607   1.455   0.273  -0.706  0.2219  0.2101  0.4395
   72MOL0     C 9608   1.482   0.405  -0.776 -0.2010  0.0481 -0.1628
   72MOL0     O 9609   1.616   0.437  -0.743  0.1892 -0.4231 -0.6374
   72MOL0     C 9610   1.684   0.513  -0.839 -0.1638  0.0283  0.0281
   72MOL0     C 9611   1.635   0.600  -0.933  0.3775 -0.9446 -0.1445
   72MOL0     C 9612   1.717   0.675  -1.029  0.5840 -1.3464 -0.2087
   72MOL0     C 9613   1.855   0.668  -1.012 -0.3237 -0.1624 -0.5737
   72MOL0     C 9614   1.943   0.749  -1.092 -1.0856 -0.3768  0.6308
   72MOL0     O 9615   1.869   0.833  -1.183  0.3866 -0.5972 -0.4318
   72MOL0     C 9616   1.935   0.932  -1.249 -0.4980 -0.7220  0.7699
   72MOL0     C 9617   1.935   1.058  -1.191 -1.3796 -0.1464 -0.1987
   72MOL0     C 9618   2.004   1.161  -1.247 -0.4412  0.0853  0.0972
   72MOL0     C 9619   2.080   1.143  -1.369 -0.0100  0.0146  0.0074
   72MOL0     O 9620   2.143   1.258  -1.409 -0.5642 -0.4680  0.5626
   72MOL0     C 9621   2.248   1.253  -1.507 -0.4100 -0.0353  0.7383
   72MOL0     C 9622   2.303   1.391  -1.546 -0.1171  0.7866  0.2324
   72MOL0     C 9623   2.393   1.452  -1.436  0.0989 -0.2977 -0.4803
   72MOL0     C 9624   2.503   1.551  -1.486 -0.6054  0.1481  0.8760
   72MOL0     C 9625   2.578   1.637  -1.374 -0.0366 -0.7658 -0.0367
   72MOL0     C 9626   2.655   1.546  -1.280  0.4441 -0.5735 -0.2762
   72MOL0     C 9627   2.705   1.607  -1.152 -0.0963 -0.1339 -0.4683
   72MOL0     C 9628   2.797   1.517  -1.074  0.2618  0.2681 -0.3231
   72MOL0    Cl 9629   2.701   1.366  -1.031 -0.2932  0.1644  0.0558
   72MOL0     C 9630   2.073   1.017  -1.430  0.7230  0.3696  0.6022
   72MOL0     C 9631   2.001   0.908  -1.370 -0.3728 -0.4103  0.2414
   72MOL0     O 9632   2.070   0.745  -1.076  0.9533 -0.0791  0.2182
   72MOL0     C 9633   1.906   0.579  -0.913  0.0503 -0.5355 -0.7016
   72MOL0     C 9634   1.816   0.504  -0.837 -0.8691 -0.4248  0.4473
   72MOL0     N 9635   1.111   0.211  -0.416  0.0373  0.4371  0.1373
   72MOL0     N 9636   1.063   0.239  -0.300  0.3399 -0.3538 -0.4631
   72MOL0     C 9637   1.596   1.038   0.557 -0.6016  0.1955  0.3708
   72MOL0     C 9638   1.655   1.127   0.650 -0.4416 -0.8690  0.0014
   72MOL0     C 9639   1.943   1.431   0.802 -1.1139  0.6635 -0.0561
   72MOL0     C 9640   1.900   1.563   0.847  0.5256  0.4113  0.4246
   72MOL0     C 9641   1.979   1.666   0.887 -0.7954 -0.1040  0.0258
   72MOL0     C 9642   2.115   1.647   0.896 -0.5727  0.4672  1.0315
   72MOL0     O 9643   2.199   1.749   0.945  0.2306 -1.6710 -0.3599
   72MOL0     C 9644   2.144   1.871   0.993  0.2376 -0.4760  0.0816
   72MOL0     C 9645   2.264   1.960   1.014  0.8735 -0.6338 -0.1909
   72MOL0     C 9646   2.231   2.108   1.039 -0.4710  0.6747 -0.1680
   72MOL0     C 9647   2.255   2.154   1.176 -0.0471 -0.3071 -1.1282
   72MOL0     C 9648   2.160   2.083   1.266 -0.2158  1.1382  0.9097
   72MOL0     C 9649   2.091   2.028   1.347 -0.1687 -0.5932  0.6537
   72MOL0     C 9650   2.158   1.515   0.854  0.2633  0.0833 -0.1035
   72MOL0     C 9651   2.081   1.400   0.814  0.3211  0.0178  0.0708
   72MOL0     C 9652   2.150   1.271   0.771  0.0002  0.1485 -1.0629
   72MOL0     H 9653   1.979   1.045   0.605  0.3713 -1.4671  0.1257
   72MOL0     H 9654   1.861   0.855   0.475  3.6206  0.9888  1.5616
   72MOL0     H 9655   1.489   0.721   0.509 -1.6210  0.9713  0.7935
   72MOL0     H 9656   1.415   0.855   0.419  0.6905  0.6429  0.9841
   72MOL0     H 9657   1.532   0.620   0.286  1.2358  1.4533  0.5404
   72MOL0     H 9658   1.459   0.781   0.217  1.9390  1.0175  1.4000
   72MOL0     H 9659   1.257   0.726   0.345 -1.3605  0.3848 -3.8187
   72MOL0     H 9660   1.307   0.580   0.408 -1.0921  1.3197  2.3676
   72MOL0     H 9661   1.283   0.644   0.111 -1.0158 -0.3412 -0.8715
   72MOL0     H 9662   1.336   0.484   0.175 -0.8276 -1.0838 -1.1236
   72MOL0     H 9663   1.096   0.484   0.307 -1.2920  0.9952 -0.2126
   72MOL0     H 9664   1.060   0.579   0.158 -1.9888 -2.5740 -1.4191
   72MOL0     H 9665   1.216   0.310   0.170 -0.4453 -0.7034  0.7839
   72MOL0     H 9666   1.045   0.320   0.146  0.6928 -0.5032  0.3578
   72MOL0     H 9667   1.255   0.404  -0.052  0.6492 -3.4668  0.0183
   72MOL0     H 9668   1.080   0.434  -0.075  0.1044 -0.4558 -1.7419
   72MOL0     H 9669   1.210   0.156  -0.019  1.2296 -1.0918 -2.4744
   72MOL0     H 9670   1.037   0.196  -0.036  0.0181  0.0504 -0.6103
   72MOL0     H 9671   1.378   0.186  -0.233  0.5647 -2.9658 -1.2711
   72MOL0     H 9672   1.441   0.133  -0.469  1.7182  1.9856 -2.8183
   72MOL0     H 9673   1.306   0.086  -0.581 -2.7957  0.1234  1.1764
   72MOL0     H 9674   1.259   0.315  -0.642  0.4785 -0.9254 -1.9483
   72MOL0     H 9675   1.393   0.359  -0.525  1.6532 -1.3339 -0.2809
   72MOL0     H 9676   1.405   0.204  -0.775 -2.5827  2.1876  0.3087
   72MOL0     H 9677   1.548   0.222  -0.679 -0.3970 -0.6426  1.0091
   72MOL0     H 9678   1.418   0.487  -0.744  0.7066  0.3117  1.0442
   72MOL0     H 9679   1.472   0.387  -0.883  0.3728 -1.4705  0.0005
   72MOL0     H 9680   1.529   0.616  -0.919  0.1280 -2.2469 -0.4726
   72MOL0     H 9681   1.666   0.743  -1.096  2.0810 -2.4558 -2.5881
   72MOL0     H 9682   1.889   1.073  -1.094 -1.2839  0.3420 -0.2288
   72MOL0     H 9683   2.008   1.256  -1.194 -1.9776  0.0500  0.3103
   72MOL0     H 9684   2.328   1.189  -1.470  0.0253  1.0824  1.7980
   72MOL0     H 9685   2.203   1.214  -1.599  1.6085  0.6703 -0.6096
   72MOL0     H 9686   2.356   1.382  -1.641 -0.4796  0.2818  0.0740
   72MOL0     H 9687   2.217   1.459  -1.551 -0.5976  0.1271 -0.6445
   72MOL0     H 9688   2.336   1.507  -1.361  0.3030  0.4039 -0.8263
   72MOL0     H 9689   2.445   1.368  -1.390  0.3912 -1.1479 -2.2471
   72MOL0     H 9690   2.453   1.625  -1.549  1.7617 -0.0135 -1.3871
   72MOL0     H 9691   2.569   1.498  -1.555 -0.8447  1.1589 -0.1720
   72MOL0     H 9692   2.502   1.689  -1.315  1.3657  0.5438  0.7136
   72MOL0     H 9693   2.634   1.717  -1.424 -2.6611  0.4303 -1.2088
   72MOL0     H 9694   2.602   1.455  -1.253  2.2705 -1.7562 -0.4694
   72MOL0     H 9695   2.749   1.520  -1.330  0.7932 -1.1398  0.6377
   72MOL0     H 9696   2.619   1.637  -1.092  2.0408  3.2842  1.2220
   72MOL0     H 9697   2.763   1.696  -1.180 -1.2073  0.4269 -1.0533
   72MOL0     H 9698   2.882   1.493  -1.138 -0.5201 -1.7695 -0.6618
   72MOL0     H 9699   2.822   1.567  -0.980  1.7288  1.6584 -1.4088
   72MOL0     H 9700   2.109   0.998  -1.531  0.6232 -1.1604  0.8178
   72MOL0     H 9701   2.000   0.811  -1.420  2.2071 -0.2503 -0.2407
   72MOL0     H 9702   2.009   0.556  -0.887 -0.0404 -1.7013 -1.2971
   72MOL0     H 9703   1.855   0.439  -0.759  0.5681 -1.3352 -0.9814
   72MOL0     H 9704   1.489   1.037   0.538 -1.0190 -0.0642  2.4948
   72MOL0     H 9705   1.592   1.205   0.692  0.1402  0.0701 -0.8178
   72MOL0     H 9706   1.794   1.582   0.842  0.4701  0.7532  2.4255
   72MOL0     H 9707   1.927   1.757   0.916 -0.1629  0.0064  0.8290
   72MOL0     H 9708   2.084   1.861   1.084 -0.0787  1.4580  0.1357
   72MOL0     H 9709   2.077   1.921   0.922  1.5543 -0.5836 -1.2723
   72MOL0     H 9710   2.329   1.976   0.927  0.8080  4.0566  0.3699
   72MOL0     H 9711   2.323   1.915   1.094 -1.3779 -0.7782  1.4882
   72MOL0     H 9712   2.127   2.126   1.008 -0.5329  1.9049  0.6828
   72MOL0     H 9713   2.295   2.166   0.972  3.1795 -1.7256  0.9593
   72MOL0     H 9714   2.359   2.133   1.204 -0.8127 -3.0963 -0.0267
   72MOL0     H 9715   2.235   2.260   1.193  1.5922 -0.1241 -0.1380
   72MOL0     H 9716   2.010   1.984   1.401 -1.0945  1.9223  1.4121
   72MOL0     H 9717   2.266   1.518   0.859  0.4596  2.3770 -3.0610
   72MOL0     H 9718   2.252   1.294   0.741  0.4485  0.5468  0.6856
   72MOL0     H 9719   2.147   1.216   0.865  0.1470  3.1151  0.8382
   72MOL0     H 9720   2.110   1.225   0.680 -2.0513  0.0764 -0.1938
   73MOL0     O 9721   4.876  10.498   1.634 -0.1052 -0.2284  0.3763
   73MOL0     C 9722   4.856  10.593   1.708 -0.0312 -1.0072  0.8699
   73MOL0     O 9723   4.761  10.686   1.690  0.2032  0.4248  0.0529
   73MOL0     C 9724   4.678  10.709   1.583 -0.0367  0.6037  0.3889
   73MOL0     C 9725   4.702  10.661   1.450 -0.8745 -0.1108  0.4471
   73MOL0     C 9726   4.614  10.670   1.352 -0.0040 -0.2785 -0.3725
   73MOL0     C 9727   4.485  10.722   1.371  0.6531 -0.4896  0.2996
   73MOL0     O 9728   4.393  10.734   1.270 -0.2181 -0.2194 -0.1265
   73MOL0     C 9729   4.434  10.761   1.134 -0.8081 -0.0738  0.4027
   73MOL0     C 9730   4.315  10.782   1.042 -0.1225 -0.2757  0.2557
   73MOL0     C 9731   4.218  10.892   1.090 -0.8536  1.0315  0.5154
   73MOL0     C 9732   4.215  10.994   0.978 -0.4131  0.1622 -0.0089
   73MOL0     C 9733   4.139  11.124   1.019 -0.2555 -0.1025 -0.3275
   73MOL0     C 9734   3.979  11.108   1.010  0.9992  0.1319 -0.6380
   73MOL0     C 9735   3.903  11.238   1.043  0.6538 -0.1723 -0.5910
   73MOL0     C 9736   3.757  11.217   0.985 -0.2492  0.6238 -0.1263
   73MOL0     N 9737   3.669  11.324   1.033  0.2259 -0.0212  0.1591
   73MOL0     C 9738   3.701  11.437   1.105 -0.0674  0.0104  0.5498
   73MOL0     C 9739   3.599  11.522   1.089 -0.5603  0.0845  0.2602
   73MOL0     C 9740   3.582  11.660   1.156 -0.1028  0.3855  0.1932
   73MOL0     C 9741   3.599  11.772   1.058 -0.9743 -0.3208  0.1892
   73MOL0     C 9742   3.720  11.763   0.968 -0.2131 -0.0248 -0.4928
   73MOL0     C 9743   3.698  11.853   0.850  1.1338 -0.2113  0.6603
   73MOL0     O 9744   3.803  11.936   0.796  0.4575 -0.0098  0.2673
   73MOL0     C 9745   3.893  11.883   0.711 -0.7644 -0.0978  0.7953
   73MOL0     C 9746   4.012  11.961   0.701 -0.2276  0.0735 -0.6063
   73MOL0     C 9747   4.131  11.924   0.645 -1.0477  0.4162  0.4998
   73MOL0     C 9748   4.142  11.802   0.583  0.1821  0.2286  0.1780
   73MOL0     C 9749   4.269  11.764   0.520 -0.3796  0.4805 -0.0535
   73MOL0     O 9750   4.354  11.858   0.462  0.8822 -0.4668 -0.0174
   73MOL0     C 9751   4.469  11.816   0.406  0.5542  0.5492 -0.4934
   73MOL0     C 9752   4.478  11.716   0.312  0.5526  0.7476  0.0957
   73MOL0     C 9753   4.604  11.688   0.269  0.2884  0.3114  1.0302
   73MOL0     C 9754   4.722  11.762   0.300 -0.3530  0.2617  0.0496
   73MOL0     O 9755   4.853  11.739   0.256 -1.0388  0.2230  0.0628
   73MOL0     C 9756   4.904  11.606   0.268  0.4634  0.3537 -0.0901
   73MOL0     C 9757   5.044  11.621   0.328 -0.1963  0.0651  0.0242
   73MOL0     C 9758   5.130  11.499   0.315 -1.0055  0.2318 -0.2433
   73MOL0     C 9759   5.255  11.513   0.406  1.0456 -0.3090  0.4690
   73MOL0     C 9760   5.235  11.501   0.562 -0.3531 -0.0592 -0.2216
   73MOL0     C 9761   5.370  11.524   0.620 -0.3505  0.8816 -0.4548
   73MOL0     C 9762   5.391  11.461   0.764 -0.6037 -0.2500 -0.0834
   73MOL0     C 9763   5.293  11.529   0.855  0.1945 -0.1449  0.0511
   73MOL0    Cl 9764   5.306  11.718   0.864  0.3569 -0.4831 -0.0719
   73MOL0     C 9765   4.706  11.865   0.392  0.5240  0.4742  0.6269
   73MOL0     C 9766   4.577  11.891   0.440  0.1299 -0.5350 -0.4644
   73MOL0     O 9767   4.294  11.644   0.538 -0.6613  1.0414  0.2613
   73MOL0     C 9768   4.026  11.717   0.590 -0.1630  0.0401  0.0839
   73MOL0     C 9769   3.909  11.754   0.660  1.0719  0.4697  0.6271
   73MOL0     N 9770   3.497  11.455   1.017  0.6942 -0.8472 -0.2618
   73MOL0     N 9771   3.539  11.339   0.983 -0.5709 -0.9708  0.7678
   73MOL0     C 9772   4.453  10.781   1.498  0.7135 -0.1895  0.1438
   73MOL0     C 9773   4.557  10.779   1.601  1.1261 -0.0014 -0.6568
   73MOL0     C 9774   4.940  10.622   1.831  0.1542 -0.3560  0.6625
   73MOL0     C 9775   4.919  10.754   1.902  0.4936  0.4477  0.0727
   73MOL0     C 9776   5.004  10.789   2.004 -0.6027  1.0153 -0.7498
   73MOL0     C 9777   5.092  10.698   2.070  0.4336  0.2911  0.8000
   73MOL0     O 9778   5.151  10.746   2.180 -0.0662 -0.3541  0.0158
   73MOL0     C 9779   5.271  10.682   2.225 -0.4321  0.4486 -0.2386
   73MOL0     C 9780   5.235  10.592   2.350 -0.6956  0.1803  0.2604
   73MOL0     C 9781   5.155  10.668   2.452 -0.1299  1.4584 -0.0611
   73MOL0     C 9782   5.168  10.604   2.594  0.0317 -0.2423 -0.0057
   73MOL0     C 9783   5.300  10.625   2.652 -0.6082  0.0407 -0.1892
   73MOL0     C 9784   5.413  10.631   2.696  0.5389  0.5587 -0.3118
   73MOL0     C 9785   5.103  10.573   2.007  0.4498  1.6205 -0.8420
   73MOL0     C 9786   5.036  10.541   1.884 -0.1496 -0.3970  0.3280
   73MOL0     C 9787   5.094  10.425   1.799 -0.7462  0.8881  0.3860
   73MOL0     H 9788   4.800  10.623   1.424 -0.4286  0.0361  1.8372
   73MOL0     H 9789   4.652  10.635   1.256  1.0227 -2.5632  0.7809
   73MOL0     H 9790   4.489  10.856   1.126 -1.6188  0.3599 -0.1309
   73MOL0     H 9791   4.496  10.684   1.086 -1.6966 -1.4311  1.3765
   73MOL0     H 9792   4.261  10.688   1.031 -2.1952  0.5177  2.7100
   73MOL0     H 9793   4.354  10.806   0.943 -0.6229  1.4084  0.4371
   73MOL0     H 9794   4.235  10.946   1.184 -2.3530  2.0411  0.2380
   73MOL0     H 9795   4.124  10.836   1.094  0.1343 -0.9237 -1.4496
   73MOL0     H 9796   4.321  11.012   0.960 -0.8332 -0.2142 -3.7452
   73MOL0     H 9797   4.168  10.956   0.886  2.3536 -1.1179 -0.9988
   73MOL0     H 9798   4.170  11.145   1.121  0.6027  4.2505 -1.2915
   73MOL0     H 9799   4.181  11.207   0.961 -0.0013  0.2347  0.3378
   73MOL0     H 9800   3.956  11.094   0.904 -1.1868  1.4188 -0.3962
   73MOL0     H 9801   3.931  11.033   1.073  0.9785  0.3579 -0.3816
   73MOL0     H 9802   3.938  11.328   0.992 -0.3398  1.6297  1.7180
   73MOL0     H 9803   3.900  11.260   1.151 -1.0944  1.2527 -0.8925
   73MOL0     H 9804   3.749  11.206   0.876 -2.2156 -1.5935  0.1657
   73MOL0     H 9805   3.719  11.119   1.013 -1.7138  0.6133 -1.9525
   73MOL0     H 9806   3.785  11.462   1.169 -0.4259  0.9688  0.6676
   73MOL0     H 9807   3.477  11.670   1.186  0.3364 -0.4576  2.1829
   73MOL0     H 9808   3.639  11.657   1.249 -0.0160 -0.9992  0.1131
   73MOL0     H 9809   3.506  11.783   1.002 -1.6770 -0.2548  1.3408
   73MOL0     H 9810   3.596  11.865   1.115 -0.7910 -1.1472  1.5984
   73MOL0     H 9811   3.746  11.665   0.926 -2.0142 -0.1264 -1.4543
   73MOL0     H 9812   3.809  11.791   1.025  2.0578 -5.5345 -0.6509
   73MOL0     H 9813   3.627  11.931   0.878  0.5032 -0.2170 -0.7976
   73MOL0     H 9814   3.643  11.792   0.777  2.4789 -0.9865  0.2602
   73MOL0     H 9815   4.024  12.054   0.756  1.4797  0.1199 -0.9895
   73MOL0     H 9816   4.210  11.999   0.651 -0.0295 -0.7143  1.9832
   73MOL0     H 9817   4.388  11.662   0.284 -1.8262  4.6716 -0.6596
   73MOL0     H 9818   4.616  11.612   0.192  0.6648  1.3574  0.0193
   73MOL0     H 9819   4.841  11.539   0.326  0.9248 -0.7445 -0.8253
   73MOL0     H 9820   4.918  11.571   0.165  2.2060  0.2891  0.1309
   73MOL0     H 9821   5.097  11.704   0.279  1.4305 -0.6922  0.4144
   73MOL0     H 9822   5.038  11.641   0.435  1.2120  1.7617 -0.1504
   73MOL0     H 9823   5.074  11.409   0.343  1.1393 -0.9901  0.3200
   73MOL0     H 9824   5.166  11.478   0.215  2.5810 -1.8295  1.2972
   73MOL0     H 9825   5.290  11.614   0.385 -1.2381  1.2820  3.5119
   73MOL0     H 9826   5.326  11.443   0.361 -1.8012 -2.9373 -0.2719
   73MOL0     H 9827   5.189  11.404   0.585 -0.0785 -1.0231 -3.2742
   73MOL0     H 9828   5.173  11.584   0.596 -0.2515  0.0723 -0.3600
   73MOL0     H 9829   5.441  11.480   0.550 -0.2617 -0.6319  0.5468
   73MOL0     H 9830   5.384  11.632   0.633 -0.6544  0.9836 -0.9395
   73MOL0     H 9831   5.496  11.483   0.787  0.1246 -0.3167 -3.0028
   73MOL0     H 9832   5.377  11.352   0.761 -3.8590  0.0867 -1.1792
   73MOL0     H 9833   5.186  11.518   0.833 -0.5005  3.9885  0.6707
   73MOL0     H 9834   5.304  11.487   0.956 -2.4389  0.3193  0.6042
   73MOL0     H 9835   4.797  11.919   0.415 -0.3981  3.2623 -1.7581
   73MOL0     H 9836   4.554  11.976   0.504 -1.6615 -2.3891  1.5380
   73MOL0     H 9837   4.017  11.624   0.535  2.6862  2.0402 -4.3649
   73MOL0     H 9838   3.819  11.696   0.679  0.0761  1.6228 -0.4141
   73MOL0     H 9839   4.359  10.833   1.516 -0.4160 -0.9223 -2.9723
   73MOL0     H 9840   4.533  10.814   1.700 -0.6776 -1.3234 -0.5768
   73MOL0     H 9841   4.844  10.828   1.872  0.0047  1.1243  2.7562
   73MOL0     H 9842   4.982  10.884   2.053  3.4706  0.9973  1.6020
   73MOL0     H 9843   5.336  10.763   2.258  1.7315 -1.4704  0.4719
   73MOL0     H 9844   5.331  10.630   2.149  0.0092 -0.0491  0.4390
   73MOL0     H 9845   5.329  10.562   2.398 -1.9865 -0.0107  2.8309
   73MOL0     H 9846   5.181  10.500   2.328  1.7662 -1.3837  0.3432
   73MOL0     H 9847   5.053  10.671   2.412  0.6335 -1.3387 -2.6455
   73MOL0     H 9848   5.207  10.764   2.449  0.3838  1.1710 -2.1575
   73MOL0     H 9849   5.101  10.654   2.665  1.2133 -0.9653  1.6720
   73MOL0     H 9850   5.143  10.498   2.588  2.3169 -0.7703 -1.4826
   73MOL0     H 9851   5.512  10.638   2.738 -0.3997 -0.5701  2.3026
   73MOL0     H 9852   5.156  10.491   2.056 -2.6033 -0.3291 -0.4800
   73MOL0     H 9853   5.201  10.422   1.824 -0.9022 -0.1691  0.9581
   73MOL0     H 9854   5.048  10.334   1.838 -1.0324  1.2934  1.0216
   73MOL0     H 9855   5.100  10.441   1.691  0.7970  2.2648  0.6341
   74MOL0     O 9856   5.858   1.152   4.760  0.1384  0.1182 -0.1890
   74MOL0     C 9857   5.827   1.152   4.640  0.7598  0.3602  0.1440
   74MOL0     O 9858   5.901   1.185   4.542 -0.4687 -0.6551 -0.9754
   74MOL0     C 9859   6.031   1.228   4.547 -0.5179  0.3999  0.5875
   74MOL0     C 9860   6.054   1.346   4.480 -1.3607 -0.3397 -0.0130
   74MOL0     C 9861   6.185   1.405   4.478 -0.0913 -0.1336  0.7455
   74MOL0     C 9862   6.292   1.340   4.550 -0.6440 -0.1968  0.1699
   74MOL0     O 9863   6.423   1.387   4.563  0.1667 -0.1671 -0.5754
   74MOL0     C 9864   6.467   1.477   4.445  0.0277  0.0321  0.3340
   74MOL0     C 9865   6.612   1.508   4.475 -0.3341 -0.0005 -0.2147
   74MOL0     C 9866   6.687   1.551   4.349  0.8169 -0.2584 -0.2659
   74MOL0     C 9867   6.827   1.598   4.384 -0.3450 -0.2129  0.0930
   74MOL0     C 9868   6.919   1.606   4.257 -0.3900 -0.0478 -0.4904
   74MOL0     C 9869   7.067   1.657   4.270 -0.8725 -0.2989 -0.8976
   74MOL0     C 9870   7.094   1.806   4.308  0.5384  0.2630  0.2241
   74MOL0     C 9871   7.052   1.902   4.192  0.5917 -0.7208 -0.4344
   74MOL0     N 9872   7.092   2.038   4.242  0.2438  0.8158 -0.0969
   74MOL0     C 9873   7.208   2.101   4.213  0.4556 -0.3018 -0.0908
   74MOL0     C 9874   7.216   2.205   4.302  0.0567  0.6788 -0.6646
   74MOL0     C 9875   7.334   2.296   4.312  0.0290 -0.0255 -0.1320
   74MOL0     C 9876   7.464   2.204   4.334 -0.0438  0.2799 -0.1089
   74MOL0     C 9877   7.601   2.274   4.321  0.3837 -0.1423 -0.2222
   74MOL0     C 9878   7.631   2.358   4.436 -0.0867 -0.5108 -0.0974
   74MOL0     O 9879   7.566   2.483   4.432  0.1339 -0.4511  0.1865
   74MOL0     C 9880   7.596   2.575   4.342 -0.1399  0.1335 -0.1918
   74MOL0     C 9881   7.499   2.676   4.314  0.0712  0.3018 -0.5995
   74MOL0     C 9882   7.518   2.757   4.201  0.4088 -0.0465  0.3803
   74MOL0     C 9883   7.638   2.755   4.123  0.2378 -0.3829 -1.1120
   74MOL0     C 9884   7.663   2.856   4.015 -0.1958  0.8911 -0.3209
   74MOL0     O 9885   7.628   2.984   4.047 -0.4205  0.2423  0.2493
   74MOL0     C 9886   7.641   3.088   3.948  0.2326 -0.6096 -0.4909
   74MOL0     C 9887   7.772   3.125   3.902 -0.4879  0.7563  0.4493
   74MOL0     C 9888   7.780   3.220   3.797  0.1413  0.4521 -0.1694
   74MOL0     C 9889   7.676   3.295   3.748 -0.4377 -0.3535 -0.7353
   74MOL0     O 9890   7.708   3.403   3.671 -0.3737 -0.5085  0.3280
   74MOL0     C 9891   7.611   3.419   3.562  0.2090  0.7780 -0.1918
   74MOL0     C 9892   7.644   3.335   3.444 -0.0214  0.9227  0.0887
   74MOL0     C 9893   7.767   3.371   3.363 -0.0972  0.3528 -0.1592
   74MOL0     C 9894   7.766   3.280   3.229 -0.1749 -0.9068 -0.1055
   74MOL0     C 9895   7.898   3.311   3.156 -0.4477  0.0879 -0.2547
   74MOL0     C 9896   8.012   3.232   3.213  0.3383  0.3753 -0.6604
   74MOL0     C 9897   8.136   3.261   3.145 -0.3538  0.2046 -0.0414
   74MOL0     C 9898   8.245   3.197   3.219  0.5537 -0.0535 -0.0671
   74MOL0    Cl 9899   8.227   3.014   3.212  0.8677 -0.2358  0.1499
   74MOL0     C 9900   7.554   3.278   3.811 -0.8578  0.3177 -0.9801
   74MOL0     C 9901   7.538   3.167   3.907  0.2372 -0.5547  0.7076
   74MOL0     O 9902   7.727   2.822   3.913  0.1621 -0.3321  0.5247
   74MOL0     C 9903   7.723   2.645   4.142  0.1587  0.1341 -0.7680
   74MOL0     C 9904   7.703   2.564   4.247 -0.3710 -0.7606 -0.6092
   74MOL0     N 9905   7.100   2.200   4.383  0.6220 -0.4908  0.1442
   74MOL0     N 9906   7.025   2.102   4.344  0.1913  0.2089 -0.0520
   74MOL0     C 9907   6.266   1.222   4.616  0.6412  0.3440  0.3331
   74MOL0     C 9908   6.133   1.159   4.617 -0.0440  0.6076 -0.4289
   74MOL0     C 9909   5.685   1.118   4.609  0.0360 -0.0094  0.3337
   74MOL0     C 9910   5.592   1.159   4.704  0.2189 -0.7992  0.3049
   74MOL0     C 9911   5.453   1.151   4.685  0.6004 -0.4890 -0.6762
   74MOL0     C 9912   5.402   1.098   4.563 -0.6204  1.2164 -0.1860
   74MOL0     O 9913   5.268   1.079   4.534  0.1974 -0.5282 -0.7852
   74MOL0     C 9914   5.161   1.107   4.621  0.6140 -0.2172  0.8525
   74MOL0     C 9915   5.131   0.984   4.702  1.5094  0.4275  0.1228
   74MOL0     C 9916   4.979   0.970   4.742 -1.1014  0.5202  0.1245
   74MOL0     C 9917   4.958   0.844   4.837 -0.6888  0.1715 -0.0494
   74MOL0     C 9918   4.819   0.845   4.864  0.0665  0.3603 -0.7571
   74MOL0     C 9919   4.713   0.864   4.918  0.2811  0.5129  0.2487
   74MOL0     C 9920   5.491   1.066   4.471 -0.2785 -0.0679  0.7698
   74MOL0     C 9921   5.629   1.064   4.491  0.1061 -0.1607  0.7909
   74MOL0     C 9922   5.714   1.024   4.373 -0.2080  0.5067  0.4736
   74MOL0     H 9923   5.967   1.398   4.443 -2.3591  0.0839  2.6850
   74MOL0     H 9924   6.202   1.495   4.419  0.3109 -1.5284 -1.4045
   74MOL0     H 9925   6.439   1.437   4.347 -2.9283  1.2601  0.5711
   74MOL0     H 9926   6.424   1.577   4.451 -0.5482 -0.2653  1.2882
   74MOL0     H 9927   6.656   1.418   4.517 -2.6714 -0.3374  1.6826
   74MOL0     H 9928   6.625   1.584   4.552 -1.6420  1.2781 -1.1863
   74MOL0     H 9929   6.629   1.629   4.299  0.9637 -0.0508 -0.1140
   74MOL0     H 9930   6.697   1.463   4.284  4.6147  0.0698 -0.3580
   74MOL0     H 9931   6.820   1.694   4.436 -1.3110 -0.7466  0.9828
   74MOL0     H 9932   6.876   1.520   4.443  0.8800  0.5128  0.0728
   74MOL0     H 9933   6.924   1.513   4.199  1.5039  0.3450 -1.0379
   74MOL0     H 9934   6.877   1.677   4.185  0.1568  1.8157  0.9567
   74MOL0     H 9935   7.102   1.579   4.338 -0.3721 -2.0980 -3.0974
   74MOL0     H 9936   7.129   1.632   4.183 -1.0693  0.8284 -1.3863
   74MOL0     H 9937   7.200   1.829   4.324  0.6652  2.5356 -2.9458
   74MOL0     H 9938   7.051   1.838   4.403  0.1100 -0.2400  0.2001
   74MOL0     H 9939   7.112   1.882   4.103 -0.9374  3.3082 -2.6325
   74MOL0     H 9940   6.945   1.892   4.173  0.4774 -1.9448  0.7473
   74MOL0     H 9941   7.279   2.080   4.134 -0.6253 -0.1640 -1.1196
   74MOL0     H 9942   7.350   2.356   4.221 -0.4684  0.5874  0.1753
   74MOL0     H 9943   7.336   2.350   4.407  0.6855  0.9348 -0.6684
   74MOL0     H 9944   7.456   2.152   4.431  1.4044  0.3944  0.0912
   74MOL0     H 9945   7.468   2.122   4.261  2.5302 -0.1327  0.3822
   74MOL0     H 9946   7.607   2.328   4.226  0.8299 -0.6686 -0.4998
   74MOL0     H 9947   7.687   2.207   4.315  0.5308 -0.0499  0.7357
   74MOL0     H 9948   7.738   2.381   4.431 -0.1404 -0.1679  0.2957
   74MOL0     H 9949   7.611   2.284   4.514 -0.5693 -1.6682 -1.2783
   74MOL0     H 9950   7.403   2.687   4.364  0.6031 -0.4945  0.6593
   74MOL0     H 9951   7.450   2.832   4.164  2.8919  2.0361 -0.2820
   74MOL0     H 9952   7.863   3.072   3.930 -0.7042 -1.4672 -2.5577
   74MOL0     H 9953   7.874   3.252   3.752 -0.7768  2.7574 -0.6062
   74MOL0     H 9954   7.511   3.390   3.597  0.8819 -3.8328 -1.4089
   74MOL0     H 9955   7.615   3.523   3.531 -0.9272  1.2050  1.0174
   74MOL0     H 9956   7.659   3.233   3.480  0.9592  2.2026  3.7432
   74MOL0     H 9957   7.557   3.335   3.377  2.0172 -2.7703 -2.9881
   74MOL0     H 9958   7.767   3.478   3.339  0.0222  0.1681 -1.0436
   74MOL0     H 9959   7.859   3.353   3.420  0.1238  2.5791  0.3027
   74MOL0     H 9960   7.680   3.310   3.169 -1.5519 -6.6752 -1.6330
   74MOL0     H 9961   7.744   3.176   3.256 -0.6204 -1.0329 -0.9198
   74MOL0     H 9962   7.920   3.418   3.158 -1.6645  0.3451  1.3229
   74MOL0     H 9963   7.883   3.284   3.051  1.7234  3.1392 -1.4888
   74MOL0     H 9964   8.019   3.249   3.321  3.1840  1.0951 -0.8765
   74MOL0     H 9965   7.985   3.127   3.199 -2.5375  0.1425  4.1915
   74MOL0     H 9966   8.156   3.365   3.171  0.2576 -0.5576  2.8350
   74MOL0     H 9967   8.150   3.238   3.039  0.2509  1.4650 -0.2483
   74MOL0     H 9968   8.340   3.226   3.173  2.0815 -1.1933  2.2113
   74MOL0     H 9969   8.253   3.217   3.326 -0.4447  1.7545 -0.2975
   74MOL0     H 9970   7.481   3.358   3.798  0.3850  1.8830  0.9233
   74MOL0     H 9971   7.450   3.150   3.968 -0.2888  1.6366  0.6487
   74MOL0     H 9972   7.811   2.628   4.082  1.9057 -2.5976  2.2494
   74MOL0     H 9973   7.785   2.494   4.249 -0.6851 -1.1679 -1.5000
   74MOL0     H 9974   6.339   1.171   4.678 -0.4971 -2.9550 -0.7932
   74MOL0     H 9975   6.127   1.067   4.675  3.4212  0.8534  0.5478
   74MOL0     H 9976   5.633   1.204   4.794  2.3513 -0.1411 -0.9363
   74MOL0     H 9977   5.378   1.184   4.757 -1.4753 -1.0911 -2.4304
   74MOL0     H 9978   5.068   1.113   4.562  0.8679 -0.1293  0.4588
   74MOL0     H 9979   5.169   1.191   4.690  1.3990 -2.1137  3.1970
   74MOL0     H 9980   5.199   0.978   4.787 -1.2362  0.4919  2.4644
   74MOL0     H 9981   5.151   0.888   4.653  0.1000 -0.5328  1.3189
   74MOL0     H 9982   4.918   0.955   4.652  0.3646  1.9263 -1.1658
   74MOL0     H 9983   4.947   1.063   4.788 -0.3700  0.2655  1.1745
   74MOL0     H 9984   4.976   0.747   4.789 -3.6624 -0.9697  0.9488
   74MOL0     H 9985   5.009   0.858   4.933  2.3544 -0.0819 -1.4999
   74MOL0     H 9986   4.628   0.904   4.970 -1.1039 -0.0892 -1.4681
   74MOL0     H 9987   5.453   1.025   4.378  0.7230  3.1823 -1.2202
   74MOL0     H 9988   5.818   1.057   4.372 -0.6600  2.0688  1.4785
   74MOL0     H 9989   5.703   0.915   4.376 -2.0389  0.6543  0.6900
   74MOL0     H 9990   5.671   1.055   4.278  0.0227 -2.4175 -0.6830
   75MOL0     O 9991   3.312  10.928   7.027  0.5419  0.0494 -0.1578
   75MOL0     C 9992   3.289  10.812   7.068  0.2178 -0.2079 -0.8889
   75MOL0     O 9993   3.371  10.747   7.162 -0.1210 -0.2922  0.2283
   75MOL0     C 9994   3.467  10.819   7.233  0.1358  0.2024 -0.9730
   75MOL0     C 9995   3.567  10.898   7.178 -0.5371  0.0379 -0.9281
   75MOL0     C 9996   3.667  10.951   7.262 -0.0164 -0.4227 -0.8560
   75MOL0     C 9997   3.665  10.944   7.404  1.1798  0.4238  0.7157
   75MOL0     O 9998   3.743  11.016   7.483  0.5594 -0.7890  0.9344
   75MOL0     C 9999   3.854  10.932   7.536  0.7371 -0.5912  0.9993
   75MOL0     C10000   3.887  10.988   7.675 -0.2255  0.1095 -0.3636
   75MOL0     C10001   3.766  10.984   7.765  0.6374  0.0727  0.0054
   75MOL0     C10002   3.780  11.017   7.916 -0.1660  0.5770  0.2136
   75MOL0     C10003   3.652  11.056   7.980  0.3878 -0.5536 -0.2790
   75MOL0     C10004   3.654  11.125   8.114 -0.1608 -0.0019 -0.4722
   75MOL0     C10005   3.743  11.057   8.217  0.2154  0.5587 -0.6104
   75MOL0     C10006   3.731  11.140   8.345  0.4987 -0.2099 -0.3128
   75MOL0     N10007   3.785  11.082   8.465 -1.1986 -0.1905  0.0822
   75MOL0     C10008   3.860  11.148   8.551  1.3885 -0.5250 -0.4379
   75MOL0     C10009   3.866  11.083   8.666 -0.1721  0.6297  0.1318
   75MOL0     C10010   3.940  11.125   8.785  0.2458 -0.5823  0.7773
   75MOL0     C10011   3.860  11.168   8.910 -0.0335  0.5671 -0.8320
   75MOL0     C10012   3.959  11.215   9.020  0.6987 -0.0093  0.2412
   75MOL0     C10013   3.895  11.203   9.168 -1.1204  0.4020  0.0852
   75MOL0     O10014   3.783  11.289   9.176 -0.1758 -0.5857  0.0582
   75MOL0     C10015   3.694  11.273   9.279  0.1674 -1.0049  0.7276
   75MOL0     C10016   3.711  11.192   9.394 -0.8006 -0.0315 -0.4562
   75MOL0     C10017   3.599  11.182   9.481 -0.1969  1.0255  0.0439
   75MOL0     C10018   3.497  11.263   9.473  0.5717  0.0056  0.8168
   75MOL0     C10019   3.378  11.256   9.573 -0.8936 -0.1889  0.6124
   75MOL0     O10020   3.300  11.372   9.574  0.3952 -0.1888  0.1153
   75MOL0     C10021   3.217  11.385   9.685 -1.0054 -0.6377  0.3263
   75MOL0     C10022   3.099  11.309   9.684 -1.2175  0.8170  0.5034
   75MOL0     C10023   3.017  11.301   9.801  0.2409  0.0481 -0.0330
   75MOL0     C10024   3.047  11.388   9.908  0.0869 -0.1104 -0.3093
   75MOL0     O10025   2.964  11.372  10.016 -1.1073  0.3386  0.3568
   75MOL0     C10026   3.016  11.382  10.144 -0.3788  0.0828 -0.3278
   75MOL0     C10027   2.907  11.318  10.226  0.1509  0.0510 -0.8232
   75MOL0     C10028   2.911  11.348  10.380  0.1683 -0.1475  0.2939
   75MOL0     C10029   2.788  11.290  10.450  0.5161  0.1236 -1.0560
   75MOL0     C10030   2.733  11.379  10.557  0.4534 -0.6727 -0.4980
   75MOL0     C10031   2.610  11.318  10.626 -0.2407 -0.1171 -0.6382
   75MOL0     C10032   2.555  11.412  10.737 -0.1408  0.0123  0.6479
   75MOL0     C10033   2.422  11.364  10.797 -0.0594 -0.0272 -0.3269
   75MOL0    Cl10034   2.443  11.209  10.881  0.9886 -0.4557  0.3400
   75MOL0     C10035   3.164  11.468   9.906 -0.1723 -0.1450 -0.3353
   75MOL0     C10036   3.249  11.467   9.792 -0.1316  0.0728 -0.1649
   75MOL0     O10037   3.383  11.171   9.662 -0.0246 -0.1612 -1.2094
   75MOL0     C10038   3.485  11.354   9.359  0.0598 -0.4125 -0.4399
   75MOL0     C10039   3.580  11.356   9.263  0.5072  0.1381  0.7208
   75MOL0     N10040   3.780  10.977   8.655 -0.0017 -0.2598 -0.2739
   75MOL0     N10041   3.725  10.983   8.536  0.6058 -0.3667  0.0281
   75MOL0     C10042   3.555  10.876   7.456  0.1735 -0.4796  0.6670
   75MOL0     C10043   3.463  10.808   7.376  0.1247  0.3878 -0.2565
   75MOL0     C10044   3.170  10.746   7.012  0.2333 -0.2378 -0.2631
   75MOL0     C10045   3.123  10.630   7.069  0.8703  1.0469  0.2439
   75MOL0     C10046   3.011  10.556   7.023  0.6631  0.2939 -0.2659
   75MOL0     C10047   2.941  10.594   6.903  0.5047 -0.7687  0.5818
   75MOL0     O10048   2.832  10.527   6.847 -0.6701  0.0760  0.8848
   75MOL0     C10049   2.843  10.380   6.865  0.4903 -0.4581 -0.0304
   75MOL0     C10050   2.716  10.313   6.819  0.6085  0.3506  0.1345
   75MOL0     C10051   2.598  10.373   6.904  0.2141  0.3937 -0.2696
   75MOL0     C10052   2.616  10.377   7.059 -0.7956 -0.1586  0.2748
   75MOL0     C10053   2.622  10.255   7.133 -0.2675  1.1861 -0.4820
   75MOL0     C10054   2.639  10.150   7.189 -0.1911 -0.1778  0.3989
   75MOL0     C10055   2.990  10.711   6.848  0.2382 -0.9057  0.2127
   75MOL0     C10056   3.097  10.790   6.893  0.1819  0.2487 -0.0317
   75MOL0     C10057   3.120  10.921   6.827 -1.1110  0.8827 -0.0347
   75MOL0     H10058   3.566  10.915   7.071 -1.0744  0.7529 -0.8228
   75MOL0     H10059   3.743  11.011   7.212 -0.4675 -0.5146 -1.6735
   75MOL0     H10060   3.815  10.833   7.561  0.4597 -0.7979 -0.1649
   75MOL0     H10061   3.941  10.920   7.471  0.0260 -0.4167 -0.0178
   75MOL0     H10062   3.915  11.092   7.660 -0.2748 -0.0544 -1.6803
   75MOL0     H10063   3.968  10.931   7.723 -0.9252  0.3783  1.2116
   75MOL0     H10064   3.717  10.886   7.771 -1.2821  0.9909  0.0262
   75MOL0     H10065   3.691  11.046   7.715  0.7536 -0.3357 -0.6918
   75MOL0     H10066   3.827  10.931   7.965 -0.5872 -0.1064 -0.5542
   75MOL0     H10067   3.844  11.104   7.932 -1.1245  1.1119  1.3113
   75MOL0     H10068   3.597  11.117   7.907 -3.1563 -0.6034  2.1252
   75MOL0     H10069   3.589  10.967   7.987 -2.0621  0.9182 -1.8853
   75MOL0     H10070   3.684  11.230   8.108  1.2851 -0.2418  1.6335
   75MOL0     H10071   3.551  11.115   8.150 -0.5806  1.2057 -1.2647
   75MOL0     H10072   3.850  11.055   8.194  0.1306 -1.2741 -0.9925
   75MOL0     H10073   3.710  10.954   8.234 -0.5093  0.3236 -3.0775
   75MOL0     H10074   3.770  11.242   8.337  0.6984 -0.1901  0.6679
   75MOL0     H10075   3.624  11.153   8.366  0.6375 -2.8074  2.8976
   75MOL0     H10076   3.924  11.233   8.530  0.0067  0.9632  1.0541
   75MOL0     H10077   4.016  11.049   8.806  2.5170  0.9153 -1.5143
   75MOL0     H10078   3.996  11.215   8.761 -1.5756  0.3791 -0.0632
   75MOL0     H10079   3.784  11.244   8.896  0.8071  1.6655  0.2794
   75MOL0     H10080   3.806  11.080   8.947  2.3268 -1.3311 -1.5908
   75MOL0     H10081   3.960  11.323   9.004  1.0456 -0.0914 -0.3180
   75MOL0     H10082   4.053  11.160   9.021  0.6548 -0.0916 -0.0469
   75MOL0     H10083   3.969  11.230   9.243 -0.5090 -1.4946  0.2130
   75MOL0     H10084   3.862  11.100   9.184 -1.5441  0.4605 -0.3717
   75MOL0     H10085   3.805  11.145   9.418 -1.0588  0.5403  1.8729
   75MOL0     H10086   3.597  11.113   9.564  1.9857 -0.0893 -0.7388
   75MOL0     H10087   3.077  11.274   9.584 -1.8226 -0.1517  0.9647
   75MOL0     H10088   2.930  11.236   9.805 -0.0875  0.4849  0.0616
   75MOL0     H10089   3.115  11.336  10.154  0.8874  2.9702  2.1976
   75MOL0     H10090   3.025  11.488  10.170 -2.4335  0.2149  0.0022
   75MOL0     H10091   2.815  11.362  10.188 -0.3529  1.8280  2.1581
   75MOL0     H10092   2.899  11.210  10.220 -1.8588  0.1312 -0.1393
   75MOL0     H10093   3.004  11.313  10.425 -0.3930  0.2230  1.7891
   75MOL0     H10094   2.904  11.455  10.404  1.7742 -0.2570  1.3505
   75MOL0     H10095   2.801  11.195  10.502  0.0036  1.1750  1.1143
   75MOL0     H10096   2.711  11.279  10.373 -3.1764  0.0928  2.2968
   75MOL0     H10097   2.715  11.483  10.529 -2.4885  0.2703  3.7172
   75MOL0     H10098   2.807  11.394  10.636  0.4260  0.9176 -0.7422
   75MOL0     H10099   2.538  11.296  10.546  1.9385  0.4178 -2.8608
   75MOL0     H10100   2.634  11.222  10.672 -0.8428 -1.0686 -2.1910
   75MOL0     H10101   2.529  11.509  10.694  2.3591 -0.1311 -1.4190
   75MOL0     H10102   2.631  11.417  10.816  0.9966 -0.6430 -0.3766
   75MOL0     H10103   2.381  11.438  10.867 -0.9945  2.1582 -2.9693
   75MOL0     H10104   2.354  11.369  10.711  2.3000  3.4945 -2.2677
   75MOL0     H10105   3.187  11.543   9.981 -2.0435 -0.8400  1.0251
   75MOL0     H10106   3.331  11.538   9.790 -2.7236  3.3746  0.5892
   75MOL0     H10107   3.399  11.419   9.349 -0.4019 -0.8541  0.5104
   75MOL0     H10108   3.572  11.422   9.177 -3.9341 -1.8549 -0.7154
   75MOL0     H10109   3.559  10.857   7.563 -0.7554  3.5420  1.5694
   75MOL0     H10110   3.386  10.759   7.435 -0.0893  0.0462 -0.8032
   75MOL0     H10111   3.179  10.582   7.149 -0.5790  0.1410  0.7586
   75MOL0     H10112   2.977  10.473   7.084  2.7334 -1.7359 -1.7089
   75MOL0     H10113   2.859  10.350   6.969 -1.9626 -3.2231 -0.2945
   75MOL0     H10114   2.924  10.340   6.803 -1.5944 -2.4009 -1.7003
   75MOL0     H10115   2.722  10.204   6.829  0.1401  0.2275 -0.7930
   75MOL0     H10116   2.708  10.335   6.712  0.0733  0.3412  0.1660
   75MOL0     H10117   2.502  10.326   6.879 -0.0452  1.2421 -0.9058
   75MOL0     H10118   2.574  10.474   6.870 -3.6578  0.2141  1.3465
   75MOL0     H10119   2.696  10.448   7.083 -0.4699 -0.4009 -0.1039
   75MOL0     H10120   2.523  10.429   7.085 -0.2899 -0.0306  1.9530
   75MOL0     H10121   2.647  10.058   7.243  0.4342  1.5070  3.3803
   75MOL0     H10122   2.935  10.741   6.760  2.9840 -3.7810 -2.7653
   75MOL0     H10123   3.226  10.928   6.801 -0.4889  0.6770  2.3035
   75MOL0     H10124   3.057  10.918   6.737 -0.0994 -0.2499 -0.7335
   75MOL0     H10125   3.087  11.005   6.889  1.7646 -0.9943  4.5323
   76MOL0     O10126  10.826   3.749   8.871  0.1452  0.1564  0.0759
   76MOL0     C10127  10.912   3.659   8.884  0.7188  0.3880  0.1449
   76MOL0     O10128  11.020   3.661   8.811  0.3574  0.6494  0.3327
   76MOL0     C10129  11.059   3.759   8.720 -0.0195 -0.2183  0.4112
   76MOL0     C10130  11.197   3.802   8.718  0.3990 -0.9823  0.8426
   76MOL0     C10131  11.229   3.898   8.623  0.7011 -0.1596 -0.2973
   76MOL0     C10132  11.142   3.948   8.528 -0.6007  0.1624 -0.9006
   76MOL0     O10133  11.182   4.052   8.463  0.4102 -0.3467 -0.1854
   76MOL0     C10134  11.173   4.050   8.318 -0.9557  0.1879  0.4744
   76MOL0     C10135  11.219   4.178   8.247 -1.4525 -0.1341 -0.9727
   76MOL0     C10136  11.124   4.285   8.294 -0.3420 -0.3182  0.3933
   76MOL0     C10137  11.182   4.422   8.256 -0.8526 -0.1074 -0.0020
   76MOL0     C10138  11.195   4.469   8.116 -0.6126  0.8309 -0.0037
   76MOL0     C10139  11.284   4.589   8.095 -0.5560  0.9715  0.5282
   76MOL0     C10140  11.248   4.727   8.150 -0.2942 -0.3804  0.2708
   76MOL0     C10141  11.144   4.795   8.057  0.3553  0.0222 -0.7836
   76MOL0     N10142  11.156   4.937   8.042 -0.2137 -0.6514  0.6944
   76MOL0     C10143  11.158   5.026   8.146  0.3742  1.1540  0.7620
   76MOL0     C10144  11.249   5.125   8.109 -0.4528  0.0540  0.1101
   76MOL0     C10145  11.306   5.229   8.215 -1.0948  0.4880  0.3432
   76MOL0     C10146  11.435   5.303   8.181 -0.2269 -0.6097 -0.3004
   76MOL0     C10147  11.539   5.226   8.111 -0.4642 -0.9327  0.2489
   76MOL0     C10148  11.584   5.090   8.168  1.1624  1.3462  0.0022
   76MOL0     O10149  11.715   5.060   8.136 -0.9142  0.8922  0.6214
   76MOL0     C10150  11.784   4.936   8.162  0.4450 -0.0805 -0.9543
   76MOL0     C10151  11.723   4.840   8.237  0.9124 -0.2003 -0.2481
   76MOL0     C10152  11.786   4.723   8.276 -0.1939 -0.3226  0.1984
   76MOL0     C10153  11.923   4.697   8.240 -0.1590 -1.1413  0.5804
   76MOL0     C10154  11.988   4.572   8.286 -0.3774  0.0044  0.7288
   76MOL0     O10155  12.118   4.544   8.243  0.2655 -0.1442  0.4581
   76MOL0     C10156  12.182   4.442   8.309 -0.1725  0.0617  0.7263
   76MOL0     C10157  12.162   4.311   8.264  0.0227  0.1128  0.4149
   76MOL0     C10158  12.248   4.211   8.299  0.6278 -0.9480 -0.9106
   76MOL0     C10159  12.352   4.233   8.393 -0.9823  0.7570 -0.1191
   76MOL0     O10160  12.454   4.139   8.402 -0.0541  0.3195  0.2809
   76MOL0     C10161  12.578   4.195   8.445 -0.7743  0.0960  1.4219
   76MOL0     C10162  12.690   4.082   8.426  0.8705 -0.1177 -1.1767
   76MOL0     C10163  12.738   4.079   8.286  0.2718  0.4469  0.1624
   76MOL0     C10164  12.834   3.966   8.255  0.5511  0.3111  0.8289
   76MOL0     C10165  12.963   3.946   8.343  0.2677  0.0495  0.3574
   76MOL0     C10166  13.081   4.017   8.278  0.7203  0.1266  0.0588
   76MOL0     C10167  13.220   3.979   8.349  0.2064  0.1414 -0.2125
   76MOL0     C10168  13.354   3.990   8.267  0.2723  0.8362  0.4498
   76MOL0    Cl10169  13.376   4.156   8.205  0.4507 -0.1554  0.5344
   76MOL0     C10170  12.359   4.369   8.440  0.0533  1.4829 -0.7817
   76MOL0     C10171  12.274   4.468   8.401 -0.4258  0.0839 -0.5951
   76MOL0     O10172  11.928   4.495   8.362 -0.0776 -0.6187  0.1816
   76MOL0     C10173  11.983   4.796   8.162  0.2324 -0.3306  0.2252
   76MOL0     C10174  11.917   4.917   8.133 -0.0556 -0.2042  0.4533
   76MOL0     N10175  11.283   5.111   7.983 -0.3453  0.2212  0.7061
   76MOL0     N10176  11.226   5.003   7.941  0.5175 -0.1455  0.6790
   76MOL0     C10177  11.013   3.904   8.532 -0.0525 -0.5638 -1.5483
   76MOL0     C10178  10.972   3.813   8.626  0.1990  1.1829 -0.1074
   76MOL0     C10179  10.895   3.548   8.980  0.0928  0.8788  0.1777
   76MOL0     C10180  10.994   3.439   8.983  1.4495 -0.4011  1.2846
   76MOL0     C10181  10.984   3.331   9.076  0.4190  0.0729 -0.4355
   76MOL0     C10182  10.871   3.306   9.160  0.0313 -0.2735  0.1579
   76MOL0     O10183  10.869   3.197   9.243 -0.3840 -0.6013 -0.6271
   76MOL0     C10184  10.746   3.120   9.255 -0.0688  1.2876 -0.6316
   76MOL0     C10185  10.769   3.013   9.361 -0.5215  0.6320 -0.4418
   76MOL0     C10186  10.752   3.074   9.498  0.7569 -0.5077  0.1978
   76MOL0     C10187  10.751   2.980   9.625 -1.1487 -0.5294 -0.0594
   76MOL0     C10188  10.637   2.895   9.629  0.2282  0.2437 -0.6812
   76MOL0     C10189  10.553   2.801   9.634 -0.4511  0.1112  0.8298
   76MOL0     C10190  10.772   3.402   9.144 -0.6602 -0.2631 -0.5309
   76MOL0     C10191  10.783   3.528   9.081 -0.3991  0.5229  0.1686
   76MOL0     C10192  10.676   3.632   9.089  0.0076  0.1146 -0.0923
   76MOL0     H10193  11.270   3.752   8.781 -0.1593 -1.8777  0.8039
   76MOL0     H10194  11.332   3.931   8.618  0.9367 -0.4250  1.8914
   76MOL0     H10195  11.228   3.962   8.281 -1.1747 -0.9208  2.6263
   76MOL0     H10196  11.068   4.037   8.292 -0.8568  1.7138 -0.8592
   76MOL0     H10197  11.219   4.163   8.139  4.5325 -0.1446 -1.2626
   76MOL0     H10198  11.320   4.205   8.277 -2.0829  1.7089 -0.3588
   76MOL0     H10199  11.100   4.283   8.401  1.6421 -1.9276  0.8677
   76MOL0     H10200  11.028   4.276   8.243  0.6667  3.7512 -2.7793
   76MOL0     H10201  11.118   4.497   8.304  0.2499  0.5477  0.4594
   76MOL0     H10202  11.279   4.425   8.306 -1.6799 -3.0321  2.0425
   76MOL0     H10203  11.235   4.387   8.055 -2.0767  1.7587 -2.3260
   76MOL0     H10204  11.098   4.486   8.069 -1.6033  0.1628  1.7463
   76MOL0     H10205  11.389   4.562   8.107  0.5982  4.4628 -0.5683
   76MOL0     H10206  11.286   4.591   7.986  4.2040  3.2522  0.4208
   76MOL0     H10207  11.336   4.792   8.157 -0.3762 -0.2232 -0.1791
   76MOL0     H10208  11.209   4.702   8.250  0.1114 -1.0999  0.2565
   76MOL0     H10209  11.148   4.755   7.955 -2.0115  2.3861 -1.8963
   76MOL0     H10210  11.044   4.772   8.094 -0.6421  1.0466 -2.6923
   76MOL0     H10211  11.115   4.991   8.239  4.5345 -1.5430  1.9394
   76MOL0     H10212  11.232   5.307   8.239 -2.0865  0.2233 -1.6631
   76MOL0     H10213  11.329   5.170   8.305  1.8042  2.3252  0.9098
   76MOL0     H10214  11.405   5.388   8.119 -2.4772 -1.0054  0.1263
   76MOL0     H10215  11.469   5.349   8.274  0.2678  1.4867 -1.4537
   76MOL0     H10216  11.636   5.276   8.120 -2.5653  4.0460 -1.0082
   76MOL0     H10217  11.516   5.213   8.005 -0.6035  0.0462  0.1528
   76MOL0     H10218  11.522   5.006   8.135  2.0771 -0.1967  2.0224
   76MOL0     H10219  11.573   5.098   8.276  1.0658  3.4437 -0.1174
   76MOL0     H10220  11.623   4.834   8.278  0.4345 -0.9066 -1.4962
   76MOL0     H10221  11.726   4.655   8.335 -0.7545  0.2053  0.2479
   76MOL0     H10222  12.091   4.295   8.183  1.5661  1.2604 -1.2657
   76MOL0     H10223  12.250   4.111   8.256 -2.0618 -0.1381 -3.1905
   76MOL0     H10224  12.605   4.283   8.387 -2.2599 -1.2273 -1.4801
   76MOL0     H10225  12.579   4.223   8.551 -0.2940  1.1592  1.1471
   76MOL0     H10226  12.770   4.105   8.497 -0.2509  0.1355  0.0284
   76MOL0     H10227  12.649   3.983   8.447 -0.0195  0.6408  0.8372
   76MOL0     H10228  12.653   4.064   8.218  0.6721 -0.6730 -0.1058
   76MOL0     H10229  12.779   4.177   8.258 -0.0304  1.3349  2.5898
   76MOL0     H10230  12.864   3.988   8.153 -1.8194 -0.4743 -0.0994
   76MOL0     H10231  12.779   3.872   8.258 -1.1063  1.0480 -2.3887
   76MOL0     H10232  12.975   3.837   8.341  0.5151  0.0784  0.1698
   76MOL0     H10233  12.946   3.979   8.446 -1.8335  0.9722 -0.2306
   76MOL0     H10234  13.094   3.991   8.172 -0.6770  0.4046 -0.2018
   76MOL0     H10235  13.067   4.124   8.296  2.8516  1.0569 -2.8888
   76MOL0     H10236  13.200   3.886   8.403 -1.4094  0.6112  0.0411
   76MOL0     H10237  13.233   4.062   8.420 -2.6959 -0.2335  0.8978
   76MOL0     H10238  13.443   3.960   8.324 -0.5938  2.2155  2.6558
   76MOL0     H10239  13.353   3.918   8.184 -0.4600 -3.3750  3.7534
   76MOL0     H10240  12.424   4.398   8.522 -0.5541  3.0895 -0.8372
   76MOL0     H10241  12.286   4.564   8.450  0.7812 -0.3394 -0.0194
   76MOL0     H10242  12.087   4.793   8.131  0.4608  1.6921  0.6605
   76MOL0     H10243  11.948   5.002   8.072 -2.0973 -2.2312 -3.9303
   76MOL0     H10244  10.934   3.939   8.466  1.1121  1.0127 -2.1714
   76MOL0     H10245  10.868   3.783   8.625 -0.0687  2.0053  1.1266
   76MOL0     H10246  11.081   3.433   8.920  1.3593 -1.2693  1.2225
   76MOL0     H10247  11.067   3.262   9.090 -1.4392 -2.2112  0.1642
   76MOL0     H10248  10.727   3.075   9.158  0.0570 -0.6163  0.1828
   76MOL0     H10249  10.660   3.187   9.268 -1.5863 -0.3379 -1.8828
   76MOL0     H10250  10.872   2.976   9.362 -0.3498  0.7737  3.4240
   76MOL0     H10251  10.706   2.930   9.327  1.0550 -1.1797  0.8875
   76MOL0     H10252  10.658   3.129   9.486  0.3068 -1.3530 -0.3453
   76MOL0     H10253  10.838   3.139   9.513  1.8674 -1.2755 -2.2246
   76MOL0     H10254  10.838   2.914   9.631 -0.2422  0.3384 -2.2152
   76MOL0     H10255  10.755   3.039   9.717 -0.4092 -1.0726  0.2691
   76MOL0     H10256  10.480   2.723   9.625 -1.0553  0.8744 -1.8187
   76MOL0     H10257  10.679   3.377   9.194 -0.1154 -1.4871 -0.0848
   76MOL0     H10258  10.717   3.731   9.111  1.5245 -0.5620  0.2601
   76MOL0     H10259  10.619   3.636   8.996 -1.3541 -0.6058  0.6822
   76MOL0     H10260  10.610   3.615   9.174  1.7979 -2.9982  0.8439
   77MOL0     O10261   1.607   0.493   8.098 -0.3839 -0.1558  0.2420
   77MOL0     C10262   1.698   0.471   8.020 -0.5327  0.7320  0.0275
   77MOL0     O10263   1.824   0.516   8.030 -0.3650 -0.3363 -0.4988
   77MOL0     C10264   1.853   0.587   8.142  0.3926  0.3653  0.0199
   77MOL0     C10265   1.888   0.721   8.131  0.0223  0.1320  0.1412
   77MOL0     C10266   1.924   0.793   8.247  0.0055 -0.4990  0.3608
   77MOL0     C10267   1.918   0.740   8.376 -0.0774  0.6762  1.1125
   77MOL0     O10268   1.946   0.816   8.488  0.3881  0.8553  0.3122
   77MOL0     C10269   1.832   0.870   8.562  0.2077 -0.0873 -0.6924
   77MOL0     C10270   1.878   0.945   8.688  0.7081  0.3954 -0.0498
   77MOL0     C10271   1.974   1.060   8.661  0.3293 -0.2447 -0.6825
   77MOL0     C10272   2.113   1.025   8.724  0.5673  0.6885  0.7196
   77MOL0     C10273   2.232   1.081   8.653 -0.1255 -0.7012  1.1399
   77MOL0     C10274   2.371   1.055   8.718  0.2972 -0.2509  0.0807
   77MOL0     C10275   2.491   1.060   8.628 -0.2049 -0.6557 -1.1826
   77MOL0     C10276   2.542   1.204   8.612 -0.1132  0.1261 -0.5494
   77MOL0     N10277   2.600   1.278   8.728 -0.9883  0.8292  0.4282
   77MOL0     C10278   2.708   1.242   8.807  0.2725 -0.0326  0.9313
   77MOL0     C10279   2.721   1.331   8.900 -0.6124 -0.8031 -0.1615
   77MOL0     C10280   2.828   1.327   9.007 -0.1324  0.1599  0.7561
   77MOL0     C10281   2.787   1.247   9.132  0.1393 -1.3948  0.6919
   77MOL0     C10282   2.874   1.262   9.240  0.6370  0.6345 -0.3327
   77MOL0     C10283   2.831   1.173   9.353  0.1431 -0.2150 -0.2227
   77MOL0     O10284   2.689   1.187   9.371 -0.2823 -0.5666  0.0479
   77MOL0     C10285   2.632   1.118   9.478  0.8060 -0.7415  0.5002
   77MOL0     C10286   2.540   1.192   9.559  0.4206 -0.3062  0.1845
   77MOL0     C10287   2.479   1.126   9.669  0.2798  0.0750 -0.7101
   77MOL0     C10288   2.522   0.996   9.701 -0.3563 -0.4263  0.6195
   77MOL0     C10289   2.471   0.927   9.823  0.1099 -0.2448  0.3182
   77MOL0     O10290   2.518   0.802   9.840 -0.2786 -1.0124 -0.1511
   77MOL0     C10291   2.439   0.722   9.917  0.9993  0.4026  0.5617
   77MOL0     C10292   2.384   0.737  10.048 -0.5037 -0.2068  0.1099
   77MOL0     C10293   2.313   0.632  10.101  0.0505 -0.7773 -0.4314
   77MOL0     C10294   2.275   0.524  10.023  0.2210 -0.6153 -0.1612
   77MOL0     O10295   2.193   0.423  10.074  0.4515 -0.4684  0.3890
   77MOL0     C10296   2.065   0.479  10.125  0.1990 -1.0804  0.7291
   77MOL0     C10297   1.943   0.388  10.133 -1.0949 -1.3731 -0.0978
   77MOL0     C10298   1.819   0.484  10.145 -0.2280 -0.5503  0.0749
   77MOL0     C10299   1.695   0.446  10.209  0.8167  0.7812 -0.5720
   77MOL0     C10300   1.578   0.542  10.196 -0.2388 -1.1178 -0.5281
   77MOL0     C10301   1.460   0.479  10.273  0.3070 -0.0679 -0.1812
   77MOL0     C10302   1.329   0.550  10.252  0.0629 -0.2606  0.3864
   77MOL0     C10303   1.293   0.642  10.373  0.0782  0.0762 -0.2675
   77MOL0    Cl10304   1.225   0.548  10.501 -0.5621  0.4985  0.1258
   77MOL0     C10305   2.339   0.499   9.908  0.1535  0.0520 -0.1872
   77MOL0     C10306   2.421   0.599   9.854 -0.1975 -0.2194 -0.0705
   77MOL0     O10307   2.385   0.988   9.890  0.6441 -0.2263 -0.8050
   77MOL0     C10308   2.617   0.924   9.617  0.3693 -0.0295 -0.0802
   77MOL0     C10309   2.674   0.992   9.510  0.4123  0.5607  0.2007
   77MOL0     N10310   2.631   1.435   8.862  0.2010 -0.0708 -0.8909
   77MOL0     N10311   2.557   1.402   8.767  0.0940  1.1073  0.2855
   77MOL0     C10312   1.873   0.602   8.387 -0.0681 -1.1006 -0.3369
   77MOL0     C10313   1.855   0.532   8.268  0.2506  0.1237  0.7359
   77MOL0     C10314   1.660   0.376   7.910 -0.0606 -0.7380  0.0256
   77MOL0     C10315   1.640   0.242   7.934  0.0612 -0.0033 -0.6229
   77MOL0     C10316   1.601   0.153   7.823  0.0163 -0.9618 -0.3428
   77MOL0     C10317   1.579   0.203   7.694  0.6737 -0.0427  0.2708
   77MOL0     O10318   1.543   0.132   7.583 -0.2463 -0.5843 -0.0218
   77MOL0     C10319   1.494   0.002   7.596  0.0026  0.6917 -0.4467
   77MOL0     C10320   1.474  -0.021   7.450 -0.5294  0.5923  0.7112
   77MOL0     C10321   1.393  -0.139   7.420 -0.3208  0.0888 -0.7410
   77MOL0     C10322   1.367  -0.163   7.276 -0.1608 -0.3557 -0.4252
   77MOL0     C10323   1.267  -0.061   7.232  0.8314 -0.5596  0.4654
   77MOL0     C10324   1.196   0.036   7.209 -0.9305  0.1373 -0.2182
   77MOL0     C10325   1.603   0.345   7.678 -0.1738  0.5931 -0.0182
   77MOL0     C10326   1.641   0.429   7.787  0.4351 -0.6960 -0.6683
   77MOL0     C10327   1.648   0.573   7.749 -1.1158  0.5524  0.3541
   77MOL0     H10328   1.876   0.775   8.037 -0.8838  0.9119  0.6872
   77MOL0     H10329   1.943   0.899   8.244 -1.7948 -0.1795 -1.5167
   77MOL0     H10330   1.780   0.940   8.496 -1.4605  0.2484  0.8766
   77MOL0     H10331   1.758   0.794   8.589 -1.2376  0.9221 -1.6296
   77MOL0     H10332   1.920   0.872   8.758  0.5959 -1.5575 -1.9214
   77MOL0     H10333   1.783   0.988   8.720  0.5678 -1.4260  2.2392
   77MOL0     H10334   1.938   1.145   8.719  0.8137 -2.1371  2.5908
   77MOL0     H10335   1.994   1.080   8.555  2.1001 -0.3549 -0.3877
   77MOL0     H10336   2.118   1.061   8.827  0.2119  0.5725  0.7820
   77MOL0     H10337   2.125   0.917   8.721 -2.0438  0.3326 -1.9717
   77MOL0     H10338   2.229   1.029   8.557  3.3098  0.3451  0.3452
   77MOL0     H10339   2.211   1.187   8.639 -0.7594 -0.7136  1.9090
   77MOL0     H10340   2.384   1.111   8.811  0.0493 -1.7357  1.0414
   77MOL0     H10341   2.371   0.951   8.751 -2.7786 -0.2096  0.5259
   77MOL0     H10342   2.466   1.020   8.530 -2.5499 -2.0271 -0.1106
   77MOL0     H10343   2.564   0.994   8.676 -1.9045 -0.4512  1.9481
   77MOL0     H10344   2.612   1.207   8.528  0.8250 -1.3990  0.1234
   77MOL0     H10345   2.457   1.267   8.584 -2.5468 -1.6431  2.2992
   77MOL0     H10346   2.759   1.151   8.778  1.5058  0.1351  2.4737
   77MOL0     H10347   2.924   1.286   8.973 -0.7444 -1.0636  0.4260
   77MOL0     H10348   2.852   1.429   9.036  1.8085 -0.7547  2.6018
   77MOL0     H10349   2.683   1.276   9.149 -0.3058 -0.4217 -2.7652
   77MOL0     H10350   2.784   1.144   9.094 -2.8040 -0.8218 -0.9898
   77MOL0     H10351   2.877   1.361   9.288 -1.4236  0.5476  0.0870
   77MOL0     H10352   2.981   1.242   9.228  1.1387  2.0525  1.3666
   77MOL0     H10353   2.889   1.205   9.440 -0.0436 -0.2644 -0.0764
   77MOL0     H10354   2.865   1.071   9.330  3.4003  0.0258  2.7236
   77MOL0     H10355   2.538   1.299   9.545  2.5196 -0.4379 -1.8650
   77MOL0     H10356   2.423   1.183   9.742 -0.9075 -0.7018 -0.9993
   77MOL0     H10357   2.390   0.831  10.101 -1.2407 -1.1528  2.0038
   77MOL0     H10358   2.271   0.645  10.201 -2.4976 -1.3924 -1.3477
   77MOL0     H10359   2.085   0.523  10.223  1.5927  4.8231 -1.7022
   77MOL0     H10360   2.034   0.567  10.067 -1.1308 -2.5071 -0.8374
   77MOL0     H10361   1.934   0.319  10.049  0.2886 -2.1792  0.3759
   77MOL0     H10362   1.937   0.332  10.227  1.3362  1.7802  2.1425
   77MOL0     H10363   1.843   0.580  10.191  0.8630 -0.2340 -1.0967
   77MOL0     H10364   1.789   0.509  10.042 -2.3328  1.6091  1.1208
   77MOL0     H10365   1.722   0.434  10.315 -3.1625 -0.8457  0.4604
   77MOL0     H10366   1.660   0.348  10.175  3.0857 -1.0806  1.9172
   77MOL0     H10367   1.550   0.557  10.091  0.4291 -1.0053 -0.6952
   77MOL0     H10368   1.611   0.640  10.231 -2.3970 -0.0836 -1.2332
   77MOL0     H10369   1.439   0.376  10.244 -0.0622 -0.6157  1.9150
   77MOL0     H10370   1.492   0.470  10.377  0.0521 -1.4649 -0.2034
   77MOL0     H10371   1.245   0.481  10.238  0.7681 -0.7207 -2.1293
   77MOL0     H10372   1.323   0.614  10.163  1.3306 -1.3436 -0.5288
   77MOL0     H10373   1.375   0.709  10.400 -1.9436  3.2483 -1.4250
   77MOL0     H10374   1.221   0.721  10.352 -4.1038 -2.8685  1.5899
   77MOL0     H10375   2.329   0.401   9.864 -3.2165 -0.3230  1.1278
   77MOL0     H10376   2.487   0.573   9.772  0.4925 -0.1475  0.4556
   77MOL0     H10377   2.638   0.818   9.632  1.7944 -0.1877 -2.6274
   77MOL0     H10378   2.745   0.940   9.446  1.9089  0.4802  1.8330
   77MOL0     H10379   1.863   0.538   8.474  1.7535 -1.1168 -0.0990
   77MOL0     H10380   1.837   0.425   8.267 -1.3151  0.3029 -2.7237
   77MOL0     H10381   1.644   0.212   8.038  2.9147 -1.5671 -1.0756
   77MOL0     H10382   1.597   0.046   7.839  2.6538 -1.4742 -2.3456
   77MOL0     H10383   1.407  -0.018   7.659  2.0706  1.4579  2.8767
   77MOL0     H10384   1.573  -0.057   7.642 -1.6970  0.3324  2.2601
   77MOL0     H10385   1.564  -0.031   7.389 -1.8201 -1.0031 -1.0288
   77MOL0     H10386   1.418   0.065   7.412 -1.9849 -0.9178 -0.6892
   77MOL0     H10387   1.293  -0.133   7.464  0.6968 -0.6188  1.8413
   77MOL0     H10388   1.457  -0.222   7.451  4.2824  1.8242 -4.4277
   77MOL0     H10389   1.461  -0.157   7.220 -0.8806  4.0983 -1.5710
   77MOL0     H10390   1.323  -0.261   7.257 -0.0986 -0.4229 -0.2245
   77MOL0     H10391   1.148   0.130   7.191 -1.2584  0.0711  0.2898
   77MOL0     H10392   1.596   0.377   7.574  3.0311  0.1879 -0.4879
   77MOL0     H10393   1.627   0.634   7.837 -3.0627 -2.6004  2.3038
   77MOL0     H10394   1.740   0.608   7.702 -0.4621  1.3401  2.1180
   77MOL0     H10395   1.565   0.586   7.679 -0.4302 -1.7902 -1.0385
   78MOL0     O10396   9.882   9.135  10.185  0.5018  0.5305 -0.1646
   78MOL0     C10397   9.878   9.124  10.060 -0.2714 -0.6851  0.8619
   78MOL0     O10398   9.967   9.188   9.983  0.3738  0.1989  0.8054
   78MOL0     C10399  10.064   9.264  10.039  0.2832  0.4126 -0.5143
   78MOL0     C10400  10.164   9.207  10.125  0.6278  0.4961  0.9908
   78MOL0     C10401  10.279   9.271  10.180 -0.0591  0.4883 -0.4657
   78MOL0     C10402  10.287   9.408  10.149  0.1319 -0.0421  0.4971
   78MOL0     O10403  10.386   9.497  10.193  0.1353  0.1244  0.1800
   78MOL0     C10404  10.454   9.472  10.309 -0.7048 -0.3300 -0.5687
   78MOL0     C10405  10.559   9.583  10.340 -0.5263 -0.9487 -1.1318
   78MOL0     C10406  10.667   9.554  10.444 -0.0985  1.1150 -1.0058
   78MOL0     C10407  10.785   9.649  10.411  0.8138  0.2566 -1.1749
   78MOL0     C10408  10.878   9.651  10.525 -0.1921  0.3262  0.8162
   78MOL0     C10409  11.017   9.718  10.489 -0.3658 -0.6814  0.1154
   78MOL0     C10410  11.017   9.857  10.419 -0.3609 -0.4114  0.6605
   78MOL0     C10411  10.940   9.962  10.486  0.3822 -0.3604  0.2365
   78MOL0     N10412  10.967  10.003  10.625  0.2141  0.8947 -0.7009
   78MOL0     C10413  11.100  10.052  10.655  1.0480  0.6534 -0.0504
   78MOL0     C10414  11.086  10.126  10.766 -0.0171 -0.2234  0.8028
   78MOL0     C10415  11.197  10.195  10.846  0.4826 -0.1247 -0.6327
   78MOL0     C10416  11.189  10.347  10.869 -0.4324  0.6201  0.2039
   78MOL0     C10417  11.186  10.422  10.738  0.0565 -0.2360 -0.2958
   78MOL0     C10418  11.215  10.576  10.759 -0.2267  0.9294  0.4385
   78MOL0     O10419  11.348  10.614  10.802  0.3055 -0.4137  0.1183
   78MOL0     C10420  11.354  10.742  10.837 -0.5443  0.4403 -0.4982
   78MOL0     C10421  11.349  10.776  10.970  0.8888  0.2772  0.0043
   78MOL0     C10422  11.384  10.909  11.012  0.2374 -1.0563 -0.3214
   78MOL0     C10423  11.404  11.011  10.915  0.7675 -0.2605 -1.3621
   78MOL0     C10424  11.415  11.162  10.951  0.1747  0.6612 -0.8677
   78MOL0     O10425  11.391  11.246  10.851  0.4406 -0.5679  0.6259
   78MOL0     C10426  11.391  11.381  10.887  0.2128 -0.6181  0.5705
   78MOL0     C10427  11.272  11.441  10.918  0.5858  0.8048 -0.5711
   78MOL0     C10428  11.269  11.572  10.979 -0.2207 -0.5526 -0.2156
   78MOL0     C10429  11.384  11.657  10.986 -0.8908 -0.3035  0.1432
   78MOL0     O10430  11.368  11.789  11.018  1.1503  0.2785 -0.1191
   78MOL0     C10431  11.457  11.844  11.115  0.4619  0.1579  0.0267
   78MOL0     C10432  11.386  11.922  11.225  0.0484  0.1592  0.5320
   78MOL0     C10433  11.301  11.825  11.303  1.1372  0.7274 -0.3342
   78MOL0     C10434  11.230  11.889  11.426 -0.0698 -0.6216 -0.6944
   78MOL0     C10435  11.313  11.910  11.552 -0.7651  0.9752 -0.2928
   78MOL0     C10436  11.260  12.030  11.645  0.3532  0.5927  0.3643
   78MOL0     C10437  11.351  12.048  11.773  0.1852 -0.0871  0.4747
   78MOL0     C10438  11.328  11.937  11.873 -0.3904 -0.0423  0.4389
   78MOL0    Cl10439  11.143  11.898  11.883  0.1047  0.0549 -0.2891
   78MOL0     C10440  11.504  11.602  10.939 -0.3843 -0.2275  0.9027
   78MOL0     C10441  11.505  11.464  10.896  0.3850  0.0466  0.4846
   78MOL0     O10442  11.449  11.189  11.064  0.0734  0.0234  0.6339
   78MOL0     C10443  11.408  10.984  10.779 -0.9897  0.4996  0.1533
   78MOL0     C10444  11.393  10.846  10.746 -0.1180 -0.1699 -0.1535
   78MOL0     N10445  10.955  10.129  10.793 -0.1805  0.4612  0.4598
   78MOL0     N10446  10.882  10.065  10.717 -0.4157  0.6040  0.6334
   78MOL0     C10447  10.189   9.470  10.074  0.4396 -0.3738 -0.1907
   78MOL0     C10448  10.087   9.396  10.010 -0.2376  0.5243 -1.2197
   78MOL0     C10449   9.795   9.018  10.008 -0.0459 -0.6588  0.5159
   78MOL0     C10450   9.769   8.913  10.103  0.3965  0.0733 -1.0056
   78MOL0     C10451   9.734   8.782  10.064  0.1481 -0.5007  0.2013
   78MOL0     C10452   9.696   8.758   9.934 -0.4309 -0.5992 -0.8101
   78MOL0     O10453   9.661   8.627   9.903  0.6319 -0.3365  1.1134
   78MOL0     C10454   9.599   8.597   9.777  0.0393  0.2401  0.2735
   78MOL0     C10455   9.451   8.652   9.771 -0.1218 -0.5380 -0.2746
   78MOL0     C10456   9.404   8.643   9.633  0.0277  0.6014  0.0243
   78MOL0     C10457   9.285   8.743   9.609 -0.4248  0.2173  0.0579
   78MOL0     C10458   9.329   8.887   9.617 -0.2821  0.1550  1.1250
   78MOL0     C10459   9.337   9.011   9.611  0.0922  0.4000 -0.1162
   78MOL0     C10460   9.696   8.861   9.842 -0.1154 -1.0178 -0.2872
   78MOL0     C10461   9.760   8.989   9.877  0.7264  0.6060 -0.3905
   78MOL0     C10462   9.780   9.075   9.763 -0.0472 -0.6197 -1.3959
   78MOL0     H10463  10.137   9.102  10.132 -0.1586  0.4849 -1.2315
   78MOL0     H10464  10.348   9.198  10.221 -0.0284 -0.8693 -2.7665
   78MOL0     H10465  10.389   9.447  10.393  2.4483 -2.9338  1.3287
   78MOL0     H10466  10.514   9.381  10.305 -0.5255 -0.2327 -0.1678
   78MOL0     H10467  10.513   9.672  10.384  3.8361  1.1703 -0.2809
   78MOL0     H10468  10.609   9.627  10.252 -1.0604 -1.5912 -1.7647
   78MOL0     H10469  10.702   9.450  10.442  3.9905  2.3362 -1.2080
   78MOL0     H10470  10.622   9.579  10.540  1.6871  0.5686  0.0088
   78MOL0     H10471  10.834   9.604  10.324  1.4284 -0.9790 -0.2045
   78MOL0     H10472  10.741   9.747  10.388 -2.0025 -0.4951  0.4961
   78MOL0     H10473  10.839   9.680  10.623  0.2180 -1.2015  1.4614
   78MOL0     H10474  10.902   9.550  10.558 -1.6718  0.9658  4.3883
   78MOL0     H10475  11.079   9.724  10.579  0.0643  3.6649 -0.2768
   78MOL0     H10476  11.068   9.648  10.422  1.0615 -0.7780  1.2618
   78MOL0     H10477  10.975   9.850  10.318  0.8353  0.8687  0.0291
   78MOL0     H10478  11.117   9.899  10.405 -1.3874  1.3332 -2.6443
   78MOL0     H10479  10.949  10.057  10.433 -0.6437 -0.3601  0.0397
   78MOL0     H10480  10.834   9.938  10.493  0.0783 -0.0514 -2.2109
   78MOL0     H10481  11.199  10.037  10.612  2.0375 -2.7798  3.0027
   78MOL0     H10482  11.183  10.158  10.948 -1.2729  0.9547 -0.4478
   78MOL0     H10483  11.296  10.170  10.808 -0.6621 -5.3343 -0.9143
   78MOL0     H10484  11.108  10.369  10.939  1.1441 -2.6420  3.3419
   78MOL0     H10485  11.283  10.375  10.917  0.5754 -2.2934  0.1174
   78MOL0     H10486  11.093  10.404  10.684 -1.0367 -0.3190  1.5029
   78MOL0     H10487  11.257  10.375  10.670 -1.0726 -0.3306 -1.4443
   78MOL0     H10488  11.138  10.622  10.821  0.9371  3.4413  0.1770
   78MOL0     H10489  11.203  10.616  10.658  0.9612 -1.0698 -0.5584
   78MOL0     H10490  11.323  10.700  11.043 -0.2906  0.5914 -0.0782
   78MOL0     H10491  11.367  10.921  11.119 -3.1402 -3.8283 -0.3733
   78MOL0     H10492  11.180  11.384  10.917  1.1176 -0.1995 -3.3112
   78MOL0     H10493  11.172  11.608  11.009  0.8048  1.2253  1.1887
   78MOL0     H10494  11.519  11.766  11.161  0.1018  0.1096  0.4383
   78MOL0     H10495  11.531  11.913  11.072  2.8017 -2.3137 -0.1875
   78MOL0     H10496  11.455  11.984  11.282 -1.7727  0.3957  2.5989
   78MOL0     H10497  11.329  12.005  11.183 -1.2913 -1.3153 -0.7111
   78MOL0     H10498  11.223  11.788  11.235  1.3343  2.5452 -1.6087
   78MOL0     H10499  11.368  11.747  11.341  3.6538  1.9924 -1.9284
   78MOL0     H10500  11.147  11.824  11.455 -0.1421 -1.1718 -2.0606
   78MOL0     H10501  11.187  11.987  11.400  0.6181 -0.0316  0.3114
   78MOL0     H10502  11.416  11.921  11.519 -1.1482 -1.9583 -2.8742
   78MOL0     H10503  11.327  11.822  11.614 -1.5744  3.2533  3.4498
   78MOL0     H10504  11.277  12.127  11.598 -0.9447  1.2932  1.2828
   78MOL0     H10505  11.151  12.021  11.653  0.2794  0.1141 -0.9596
   78MOL0     H10506  11.338  12.145  11.821 -0.4822  0.1284 -0.1259
   78MOL0     H10507  11.455  12.049  11.739  1.9318  1.3770  5.1235
   78MOL0     H10508  11.393  11.850  11.857  0.3159  0.9220 -2.4883
   78MOL0     H10509  11.351  11.970  11.974  0.2723 -1.9013  0.9440
   78MOL0     H10510  11.590  11.668  10.929  0.6635 -1.8387 -1.8325
   78MOL0     H10511  11.594  11.416  10.857 -0.3480 -1.1432  0.2279
   78MOL0     H10512  11.435  11.056  10.703  0.0746 -1.7447 -1.7474
   78MOL0     H10513  11.405  10.820  10.641  2.8479 -1.2971  0.3553
   78MOL0     H10514  10.200   9.576  10.051 -2.0104 -0.2763 -1.2784
   78MOL0     H10515  10.009   9.435   9.945 -2.7166 -1.2979  0.4744
   78MOL0     H10516   9.800   8.913  10.207 -1.4514  0.5907 -0.4166
   78MOL0     H10517   9.711   8.711  10.143  1.3664 -0.0197  1.0241
   78MOL0     H10518   9.589   8.489   9.763  2.4564 -0.0886  0.6754
   78MOL0     H10519   9.659   8.645   9.700 -0.5715  1.4508  0.5261
   78MOL0     H10520   9.444   8.755   9.807  2.3225 -0.5266  0.3596
   78MOL0     H10521   9.391   8.589   9.837  0.7591 -0.0758  0.9982
   78MOL0     H10522   9.367   8.543   9.609  2.0337  0.6304 -4.1349
   78MOL0     H10523   9.495   8.659   9.574  0.8468 -0.1766  1.0310
   78MOL0     H10524   9.257   8.717   9.507  1.4878 -0.8168 -0.2696
   78MOL0     H10525   9.214   8.716   9.688  1.3057 -1.3990  1.1629
   78MOL0     H10526   9.355   9.117   9.610 -0.9505  0.5784 -0.1970
   78MOL0     H10527   9.651   8.851   9.744  0.2779 -1.7732 -0.4001
   78MOL0     H10528   9.807   9.175   9.798 -1.2101 -0.2949 -1.4091
   78MOL0     H10529   9.864   9.045   9.699  1.9840  2.1683 -0.1987
   78MOL0     H10530   9.685   9.081   9.709 -0.3540 -0.9564 -0.9009
   79MOL0     O10531   5.330   7.175   9.450  0.4363  0.5428 -1.0950
   79MOL0     C10532   5.275   7.188   9.563  0.5262  0.5938  0.7353
   79MOL0     O10533   5.148   7.161   9.596 -0.4026  0.1971 -0.0841
   79MOL0     C10534   5.064   7.148   9.496  0.2015  0.7086 -0.5093
   79MOL0     C10535   4.983   7.249   9.458 -0.1151 -0.3748 -0.2722
   79MOL0     C10536   4.888   7.228   9.361 -0.1430  0.4426 -0.2354
   79MOL0     C10537   4.863   7.104   9.304 -0.7516 -1.0208  0.3905
   79MOL0     O10538   4.763   7.105   9.214  0.0977 -0.0465 -0.4729
   79MOL0     C10539   4.782   7.011   9.107  1.2377  0.5464 -0.5251
   79MOL0     C10540   4.689   7.036   8.985 -0.5624 -0.0753 -0.3778
   79MOL0     C10541   4.546   6.970   9.005  0.7726  0.1893  0.6025
   79MOL0     C10542   4.465   6.997   8.884 -0.3940 -0.6570 -0.1312
   79MOL0     C10543   4.336   6.920   8.865 -0.2366  0.0150 -0.1406
   79MOL0     C10544   4.350   6.776   8.815 -0.0885  0.2560  0.3250
   79MOL0     C10545   4.213   6.706   8.784 -0.4587 -0.5703 -0.5210
   79MOL0     C10546   4.203   6.549   8.781  0.7514 -0.9405 -0.2377
   79MOL0     N10547   4.066   6.518   8.744 -0.3937  0.3724  0.1670
   79MOL0     C10548   3.949   6.516   8.816  0.1794 -0.1152  0.7269
   79MOL0     C10549   3.849   6.469   8.733 -0.6374  0.3587 -0.1097
   79MOL0     C10550   3.711   6.455   8.779 -0.2726  0.0295 -0.3459
   79MOL0     C10551   3.610   6.384   8.674 -0.8150 -0.8132  0.6125
   79MOL0     C10552   3.552   6.262   8.735 -0.6109  0.4900 -0.6183
   79MOL0     C10553   3.417   6.231   8.680 -0.2756 -0.0694 -0.6775
   79MOL0     O10554   3.303   6.308   8.729 -0.0748 -0.9679  0.5678
   79MOL0     C10555   3.205   6.317   8.627 -0.9528  0.6474  0.2191
   79MOL0     C10556   3.226   6.398   8.514 -0.3938 -0.9065 -0.8352
   79MOL0     C10557   3.118   6.402   8.421 -0.6753 -0.1336  0.1581
   79MOL0     C10558   2.992   6.353   8.453 -0.3173 -0.3356  0.9023
   79MOL0     C10559   2.885   6.375   8.358  0.9361 -0.5290  0.7469
   79MOL0     O10560   2.924   6.422   8.231 -0.4068 -0.2679  0.6958
   79MOL0     C10561   2.846   6.454   8.127 -0.2536  0.4008  0.3277
   79MOL0     C10562   2.918   6.522   8.019  0.4833  0.4505  0.1276
   79MOL0     C10563   2.847   6.580   7.911  0.8604  0.3232 -0.3755
   79MOL0     C10564   2.712   6.536   7.893  0.2661  0.3189 -0.3687
   79MOL0     O10565   2.632   6.584   7.789 -0.6674 -0.4649  0.1040
   79MOL0     C10566   2.644   6.523   7.664 -0.0039 -0.7973  1.2396
   79MOL0     C10567   2.515   6.458   7.619  0.3059 -0.1253 -0.7805
   79MOL0     C10568   2.509   6.423   7.476 -0.2246  0.0573 -0.2645
   79MOL0     C10569   2.617   6.316   7.422  0.2088 -0.6458 -1.4435
   79MOL0     C10570   2.571   6.268   7.285 -0.3750 -0.9177  0.1075
   79MOL0     C10571   2.665   6.163   7.241 -0.5590 -0.1561 -0.3298
   79MOL0     C10572   2.663   6.147   7.086 -0.2256 -0.7725  0.0628
   79MOL0     C10573   2.766   6.045   7.029 -0.7915  0.2945  0.3535
   79MOL0    Cl10574   2.725   5.998   6.863  0.0528  0.2649 -0.1530
   79MOL0     C10575   2.649   6.454   7.985 -0.3544 -0.0976  0.2207
   79MOL0     C10576   2.719   6.408   8.096  0.2774 -0.9347 -0.7742
   79MOL0     O10577   2.772   6.337   8.382  0.3178  0.5575 -0.0753
   79MOL0     C10578   2.972   6.279   8.574  0.1633 -0.7876  0.0969
   79MOL0     C10579   3.076   6.260   8.657 -0.1212 -0.4536  0.8857
   79MOL0     N10580   3.906   6.440   8.613  0.3219  0.5906  1.6029
   79MOL0     N10581   4.027   6.457   8.622 -0.9045 -0.5791  0.1871
   79MOL0     C10582   4.942   6.996   9.348 -0.0724 -0.1678  0.1384
   79MOL0     C10583   5.037   7.016   9.441 -0.4728  0.4841 -0.1096
   79MOL0     C10584   5.381   7.200   9.667 -0.2385 -0.6223 -0.3010
   79MOL0     C10585   5.505   7.241   9.629 -1.2904 -0.1533  0.7429
   79MOL0     C10586   5.602   7.290   9.719 -0.0348  0.9246 -1.0558
   79MOL0     C10587   5.577   7.289   9.864  0.0325  0.2437  0.5740
   79MOL0     O10588   5.665   7.337   9.962  0.1266 -0.0451 -0.0501
   79MOL0     C10589   5.611   7.429  10.063  0.5996 -0.2847  0.3447
   79MOL0     C10590   5.723   7.434  10.172  0.0644 -0.7562 -0.9045
   79MOL0     C10591   5.750   7.580  10.214  0.1572 -0.9089  1.0752
   79MOL0     C10592   5.818   7.588  10.350  0.1417 -0.1581  0.6373
   79MOL0     C10593   5.728   7.534  10.452  0.1508  0.1455  0.4055
   79MOL0     C10594   5.672   7.481  10.550  0.3723 -0.5917  0.0729
   79MOL0     C10595   5.451   7.242   9.900  0.6258  0.2823  0.2446
   79MOL0     C10596   5.359   7.196   9.807  0.0222 -0.5988  0.2466
   79MOL0     C10597   5.232   7.127   9.868  0.3427 -0.2891  0.5514
   79MOL0     H10598   4.998   7.337   9.519  0.8845 -0.9163  0.2949
   79MOL0     H10599   4.806   7.299   9.353 -0.9684 -0.0471  2.9112
   79MOL0     H10600   4.882   7.014   9.063 -0.1758  1.8725 -3.9262
   79MOL0     H10601   4.757   6.910   9.143 -3.1641  1.0523 -1.6351
   79MOL0     H10602   4.732   6.984   8.899  3.1862  1.0416  0.6293
   79MOL0     H10603   4.690   7.143   8.962  2.7553 -0.3560 -2.1396
   79MOL0     H10604   4.493   6.999   9.096  0.7963  1.7318  0.1397
   79MOL0     H10605   4.556   6.861   9.011  2.6028  0.3079  0.3255
   79MOL0     H10606   4.445   7.105   8.881 -0.2719 -0.5816  1.2794
   79MOL0     H10607   4.528   6.973   8.798 -1.3497  0.9407 -1.3340
   79MOL0     H10608   4.288   6.927   8.963  0.2828 -2.5233  0.3662
   79MOL0     H10609   4.267   6.966   8.793 -0.8927 -1.5585 -0.5815
   79MOL0     H10610   4.410   6.781   8.724  2.3152 -1.4285  1.7286
   79MOL0     H10611   4.392   6.711   8.892  0.7300  2.4450  1.8402
   79MOL0     H10612   4.183   6.741   8.684 -0.0139 -2.4828 -1.3756
   79MOL0     H10613   4.144   6.751   8.856  2.5715  3.2820  0.3580
   79MOL0     H10614   4.266   6.508   8.702 -0.0755  0.6693 -1.7826
   79MOL0     H10615   4.219   6.507   8.881 -0.3717 -1.8409 -0.4037
   79MOL0     H10616   3.936   6.529   8.923 -2.1157 -0.3834  0.5252
   79MOL0     H10617   3.729   6.390   8.865  0.1769 -1.5616 -1.6119
   79MOL0     H10618   3.675   6.550   8.821 -2.3755 -0.5324 -0.7663
   79MOL0     H10619   3.536   6.460   8.647 -0.9870 -1.3753 -0.5578
   79MOL0     H10620   3.660   6.370   8.577  2.7960 -0.1187  2.2084
   79MOL0     H10621   3.524   6.271   8.840 -0.9680 -1.0173 -0.5586
   79MOL0     H10622   3.609   6.172   8.710 -2.9729 -0.9132 -1.3860
   79MOL0     H10623   3.408   6.124   8.698  0.1453  0.3687  3.1126
   79MOL0     H10624   3.426   6.247   8.572  2.8654  3.7393 -0.0842
   79MOL0     H10625   3.321   6.449   8.502 -0.2725 -0.9697 -0.2023
   79MOL0     H10626   3.141   6.470   8.339  1.1028  1.2667  1.7108
   79MOL0     H10627   3.024   6.541   8.025  0.8239 -1.0358 -0.6644
   79MOL0     H10628   2.895   6.637   7.832  1.0895 -0.6182 -0.9313
   79MOL0     H10629   2.680   6.599   7.593 -0.7242 -1.0365  0.6016
   79MOL0     H10630   2.727   6.452   7.668  0.8143 -0.0039 -0.5179
   79MOL0     H10631   2.519   6.364   7.675  3.7469 -0.6327 -1.6333
   79MOL0     H10632   2.433   6.522   7.652 -3.0261 -2.5344 -3.7018
   79MOL0     H10633   2.409   6.385   7.451 -0.1276 -0.7193  0.4846
   79MOL0     H10634   2.522   6.514   7.417  2.4923  0.8339  1.3727
   79MOL0     H10635   2.624   6.229   7.488 -3.0619  0.5903  0.7823
   79MOL0     H10636   2.718   6.358   7.419  0.1524 -0.4949 -1.2599
   79MOL0     H10637   2.577   6.351   7.213  0.5043 -2.2412 -1.3967
   79MOL0     H10638   2.476   6.215   7.295  0.9333 -3.2222  1.0028
   79MOL0     H10639   2.768   6.194   7.262  1.4819 -3.8267 -3.6037
   79MOL0     H10640   2.645   6.064   7.282  1.2058 -1.2163 -1.8688
   79MOL0     H10641   2.685   6.240   7.032  2.5189 -1.8306 -0.8217
   79MOL0     H10642   2.570   6.101   7.054 -0.3282 -0.8953  0.5353
   79MOL0     H10643   2.866   6.086   7.040  0.7647 -2.9568 -0.3687
   79MOL0     H10644   2.768   5.952   7.089  0.3352 -1.5842 -2.4037
   79MOL0     H10645   2.557   6.400   7.966 -1.3309  1.9680 -1.2106
   79MOL0     H10646   2.686   6.327   8.160  0.5103 -0.1401  0.3910
   79MOL0     H10647   2.879   6.224   8.587 -0.5025  0.7471  2.2490
   79MOL0     H10648   3.073   6.196   8.745  1.2421  1.0089  2.0382
   79MOL0     H10649   4.935   6.893   9.315 -0.6995 -0.7702  1.9979
   79MOL0     H10650   5.093   6.927   9.465  0.4165  0.1260 -3.0944
   79MOL0     H10651   5.539   7.254   9.527 -0.1805 -0.3018  1.0784
   79MOL0     H10652   5.701   7.315   9.681  0.6300 -2.3724 -1.7381
   79MOL0     H10653   5.515   7.406  10.110 -1.3373  0.5763 -2.8446
   79MOL0     H10654   5.593   7.528  10.019 -0.5351 -0.2191  0.9059
   79MOL0     H10655   5.816   7.381  10.146  2.5259  2.8559 -0.2529
   79MOL0     H10656   5.666   7.369  10.239  1.5086 -3.0450 -1.7607
   79MOL0     H10657   5.658   7.639  10.211  0.9566  0.3854 -2.1244
   79MOL0     H10658   5.807   7.631  10.136 -0.3653  0.1067  1.3426
   79MOL0     H10659   5.916   7.541  10.337  1.0281  2.1637 -2.2870
   79MOL0     H10660   5.846   7.691  10.373  2.6552 -0.4473 -0.7727
   79MOL0     H10661   5.624   7.440  10.636  0.8487 -0.9648  0.1651
   79MOL0     H10662   5.440   7.226  10.007 -1.1205 -1.8269 -0.1873
   79MOL0     H10663   5.231   7.119   9.977 -1.1166  2.0587  0.7832
   79MOL0     H10664   5.145   7.189   9.845  0.4694 -0.1083  0.5633
   79MOL0     H10665   5.213   7.032   9.816  0.1915 -0.2107  0.4605
   80MOL0     O10666  10.540   6.834   5.531  0.0000 -0.5060  0.8661
   80MOL0     C10667  10.625   6.848   5.441  0.0806  0.9534  0.5892
   80MOL0     O10668  10.718   6.752   5.418 -0.3159 -0.7135 -0.0227
   80MOL0     C10669  10.723   6.638   5.493 -0.1806 -1.0047  0.5080
   80MOL0     C10670  10.665   6.522   5.451  0.8897 -0.2769  0.2911
   80MOL0     C10671  10.697   6.409   5.529  0.3331  0.4248 -0.4791
   80MOL0     C10672  10.771   6.411   5.646  0.0041  0.1679  1.3344
   80MOL0     O10673  10.784   6.290   5.712 -0.1644 -0.3647  0.2426
   80MOL0     C10674  10.863   6.272   5.826 -0.1075  0.2807  0.2208
   80MOL0     C10675  10.798   6.322   5.959  0.2455 -0.2569 -0.2741
   80MOL0     C10676  10.740   6.215   6.051 -0.3554  1.5498  0.6905
   80MOL0     C10677  10.609   6.175   5.985 -0.5750  0.4737  0.5528
   80MOL0     C10678  10.558   6.038   6.031 -0.2291  0.1352 -0.6857
   80MOL0     C10679  10.444   5.987   5.948  0.6051 -0.0937  0.1376
   80MOL0     C10680  10.454   5.986   5.800 -0.7228 -0.8422  0.1726
   80MOL0     C10681  10.582   5.909   5.755 -0.4476  0.1972 -0.1311
   80MOL0     N10682  10.575   5.865   5.613 -0.2649  0.9982 -0.2836
   80MOL0     C10683  10.660   5.918   5.516 -0.6973 -0.1301 -0.6528
   80MOL0     C10684  10.603   5.861   5.405  0.8759 -0.6598 -1.3945
   80MOL0     C10685  10.616   5.908   5.261  0.8863  0.1605  0.0315
   80MOL0     C10686  10.484   5.934   5.191  0.4553 -0.0459  0.1322
   80MOL0     C10687  10.491   5.980   5.038 -0.4607  0.2249 -0.8260
   80MOL0     C10688  10.571   5.880   4.947  0.1966  0.6765  0.8302
   80MOL0     O10689  10.712   5.911   4.964 -0.1613  0.6451 -0.0640
   80MOL0     C10690  10.802   5.828   4.904  0.9063 -0.1206  0.3383
   80MOL0     C10691  10.921   5.819   4.964  0.2786 -0.3341  0.2332
   80MOL0     C10692  11.010   5.721   4.929 -0.3210  0.9972  0.5596
   80MOL0     C10693  10.986   5.631   4.830  0.6344 -0.3614 -0.0697
   80MOL0     C10694  11.079   5.524   4.783 -0.2552 -1.0457  1.2630
   80MOL0     O10695  11.017   5.420   4.715 -0.0349  0.3985 -0.2567
   80MOL0     C10696  11.098   5.324   4.659  0.2068 -0.3095 -1.5120
   80MOL0     C10697  11.179   5.232   4.726 -0.2701 -0.2299 -0.0506
   80MOL0     C10698  11.232   5.112   4.660  0.1765 -0.4570 -0.5410
   80MOL0     C10699  11.205   5.084   4.532 -0.1819 -0.0609 -0.0323
   80MOL0     O10700  11.268   4.978   4.471  0.1218  0.0098  0.8518
   80MOL0     C10701  11.301   4.996   4.329  0.8390  1.1037 -0.2760
   80MOL0     C10702  11.438   4.940   4.317  1.1545  0.4442  0.9885
   80MOL0     C10703  11.452   4.790   4.316 -1.2092 -0.2293  0.0278
   80MOL0     C10704  11.567   4.745   4.228 -0.9300 -0.0957  0.1569
   80MOL0     C10705  11.574   4.589   4.227  0.9241 -0.0029 -0.4174
   80MOL0     C10706  11.675   4.529   4.128  0.0135  0.4646  0.1001
   80MOL0     C10707  11.828   4.555   4.167 -0.3468  0.8006 -0.6096
   80MOL0     C10708  11.905   4.553   4.036  0.3100  0.3002 -1.1562
   80MOL0    Cl10709  12.075   4.573   4.070  0.3805  0.1244  0.0464
   80MOL0     C10710  11.124   5.180   4.462  0.2709  0.1329  0.4516
   80MOL0     C10711  11.071   5.297   4.522  0.0807 -0.4736 -0.3592
   80MOL0     O10712  11.192   5.525   4.833  0.1681 -0.5820 -0.0050
   80MOL0     C10713  10.869   5.645   4.759 -0.3304 -0.0176 -0.1706
   80MOL0     C10714  10.772   5.739   4.799 -0.2641 -0.6576 -0.9034
   80MOL0     N10715  10.505   5.780   5.440  0.3425  0.0835  0.5805
   80MOL0     N10716  10.496   5.770   5.564 -0.5859  0.6514 -0.7497
   80MOL0     C10717  10.826   6.528   5.688 -0.0793  0.1047 -0.0228
   80MOL0     C10718  10.803   6.639   5.600 -0.1632 -0.2544 -0.7535
   80MOL0     C10719  10.619   6.973   5.359  0.7391 -1.2711  0.6943
   80MOL0     C10720  10.518   7.067   5.386 -0.1206  0.0854 -0.0628
   80MOL0     C10721  10.522   7.190   5.319  0.2962 -0.4596 -0.2312
   80MOL0     C10722  10.613   7.215   5.220  0.1142 -1.4012  0.1907
   80MOL0     O10723  10.603   7.324   5.142  0.5604  0.7870 -0.3064
   80MOL0     C10724  10.627   7.450   5.209  0.6731 -0.2406  0.6560
   80MOL0     C10725  10.710   7.527   5.107  0.6521  0.3192  0.1062
   80MOL0     C10726  10.763   7.658   5.169  0.0009  0.0918 -0.3236
   80MOL0     C10727  10.884   7.715   5.094 -0.3046  0.2704  0.0195
   80MOL0     C10728  10.866   7.724   4.949  0.2677 -0.1621  0.6198
   80MOL0     C10729  10.857   7.703   4.834  0.8206  0.5053  0.4942
   80MOL0     C10730  10.701   7.115   5.185 -0.0470 -0.3023  0.1395
   80MOL0     C10731  10.716   7.009   5.260 -0.9453  0.7744  0.0201
   80MOL0     C10732  10.844   6.930   5.229 -0.3528 -0.1894 -0.0390
   80MOL0     H10733  10.621   6.532   5.352 -1.8229  0.8057  1.5084
   80MOL0     H10734  10.665   6.310   5.498 -0.7099  0.6888 -0.2767
   80MOL0     H10735  10.878   6.163   5.826  1.4196  0.4186 -1.8922
   80MOL0     H10736  10.966   6.304   5.809  0.7435 -2.5798 -0.6007
   80MOL0     H10737  10.723   6.397   5.933  0.0285 -0.6201 -0.7164
   80MOL0     H10738  10.868   6.385   6.016 -0.8229  1.8842 -1.2312
   80MOL0     H10739  10.725   6.254   6.152 -3.3328 -1.9472  1.8107
   80MOL0     H10740  10.809   6.130   6.047 -0.3458  1.5526 -3.2538
   80MOL0     H10741  10.526   6.244   6.005 -2.2951 -0.8402 -1.5396
   80MOL0     H10742  10.630   6.158   5.879  3.4537  0.7812  1.1398
   80MOL0     H10743  10.642   5.969   6.021  2.4887  3.3424 -1.6264
   80MOL0     H10744  10.515   6.051   6.131 -5.4828  4.3674 -2.9773
   80MOL0     H10745  10.426   5.890   5.994  4.3274 -1.1762 -0.3364
   80MOL0     H10746  10.363   6.057   5.970 -0.2385 -0.1982 -2.3493
   80MOL0     H10747  10.458   6.080   5.745  0.2506 -1.1856 -0.3705
   80MOL0     H10748  10.362   5.939   5.764  0.0504 -0.6803 -2.1673
   80MOL0     H10749  10.681   5.955   5.764 -0.4811  1.5801 -4.4253
   80MOL0     H10750  10.583   5.817   5.815 -2.9154 -1.3008 -2.1715
   80MOL0     H10751  10.731   5.999   5.528  1.2974 -1.6298 -1.6809
   80MOL0     H10752  10.675   6.000   5.264 -0.3553  0.9670  2.1916
   80MOL0     H10753  10.670   5.825   5.214  1.2166  0.2356  0.2716
   80MOL0     H10754  10.417   5.847   5.189  2.1499 -1.4255 -1.9177
   80MOL0     H10755  10.437   6.023   5.231 -0.7170  0.2823 -1.8371
   80MOL0     H10756  10.538   6.077   5.020 -0.1944 -0.0106 -1.4425
   80MOL0     H10757  10.390   5.992   4.998 -0.0031  0.2024 -2.0564
   80MOL0     H10758  10.543   5.893   4.842  1.4525 -3.6006 -0.2389
   80MOL0     H10759  10.545   5.775   4.962  0.7923  0.7851  2.8737
   80MOL0     H10760  10.942   5.879   5.052  2.1732 -0.2982 -0.2098
   80MOL0     H10761  11.103   5.716   4.984  0.8415 -0.8548 -1.4181
   80MOL0     H10762  11.201   5.257   4.829  0.1517  1.6410 -0.5478
   80MOL0     H10763  11.281   5.044   4.728 -1.7450 -1.7887 -0.3977
   80MOL0     H10764  11.241   4.931   4.264  3.3102  0.1819 -1.7798
   80MOL0     H10765  11.306   5.099   4.294 -0.2245  1.1124 -0.4488
   80MOL0     H10766  11.474   4.967   4.217  1.1258  0.5937  1.0176
   80MOL0     H10767  11.507   4.983   4.389  0.6902 -2.9113  3.6694
   80MOL0     H10768  11.475   4.753   4.417 -1.6032 -2.4585 -0.6442
   80MOL0     H10769  11.361   4.736   4.287 -2.4409  1.7678 -0.0716
   80MOL0     H10770  11.663   4.788   4.258 -0.9248 -0.2559  0.3704
   80MOL0     H10771  11.547   4.775   4.125 -1.1296 -1.1760 -0.1291
   80MOL0     H10772  11.473   4.560   4.197 -0.4582  4.8352 -1.3080
   80MOL0     H10773  11.597   4.562   4.330 -1.2234 -2.8364 -0.5852
   80MOL0     H10774  11.652   4.423   4.139  2.1698  0.0217  0.7933
   80MOL0     H10775  11.650   4.561   4.026  0.5942  5.7543  1.2977
   80MOL0     H10776  11.855   4.487   4.249  1.4766  3.7912  1.4884
   80MOL0     H10777  11.854   4.649   4.217  1.1760 -1.9478  4.4825
   80MOL0     H10778  11.871   4.469   3.975 -0.5403 -1.3694  1.4557
   80MOL0     H10779  11.879   4.648   3.988 -0.0471  0.1182 -1.3275
   80MOL0     H10780  11.106   5.159   4.357 -1.8296  0.0809  0.7818
   80MOL0     H10781  11.023   5.369   4.457 -0.3103 -1.6486 -1.4215
   80MOL0     H10782  10.842   5.589   4.669 -2.1418 -0.5736  0.6672
   80MOL0     H10783  10.684   5.741   4.736 -0.4697  0.4872 -0.6057
   80MOL0     H10784  10.861   6.544   5.789 -1.3753  0.5047  0.3892
   80MOL0     H10785  10.863   6.719   5.644  1.8018 -1.3808 -1.2830
   80MOL0     H10786  10.435   7.055   5.455 -0.6460 -1.0081 -0.8545
   80MOL0     H10787  10.443   7.262   5.337 -0.5520 -1.2745 -0.6136
   80MOL0     H10788  10.672   7.430   5.307  0.4682 -0.6089  0.6797
   80MOL0     H10789  10.536   7.509   5.224  0.4118 -0.0965 -1.3383
   80MOL0     H10790  10.637   7.537   5.026 -0.2035 -1.6607  0.5689
   80MOL0     H10791  10.796   7.469   5.073  0.5848  0.3672 -0.1449
   80MOL0     H10792  10.802   7.636   5.268 -0.1671 -1.3528 -0.5510
   80MOL0     H10793  10.683   7.732   5.180  2.4654  2.9695 -0.6009
   80MOL0     H10794  10.905   7.817   5.126 -2.1234  0.4738  0.7077
   80MOL0     H10795  10.974   7.656   5.112 -0.2101  0.6380  0.7904
   80MOL0     H10796  10.833   7.689   4.731  0.4998 -1.0665  0.7530
   80MOL0     H10797  10.758   7.142   5.097 -0.5735 -3.9115 -1.5034
   80MOL0     H10798  10.817   6.848   5.162 -0.2259  0.4728 -0.9275
   80MOL0     H10799  10.921   6.986   5.175  0.4918 -2.5126 -1.3681
   80MOL0     H10800  10.896   6.903   5.321  0.5952  0.7545 -0.2744
   81MOL0     O10801  10.724   0.150  10.078 -0.5174  0.5178 -0.3748
   81MOL0     C10802  10.705   0.158  10.202  0.5517 -0.2631  0.0193
   81MOL0     O10803  10.620   0.250  10.266  0.3731 -0.4501 -0.4146
   81MOL0     C10804  10.507   0.310  10.213 -0.1429 -0.4987 -0.0581
   81MOL0     C10805  10.475   0.326  10.079  0.1260 -0.6137 -0.4152
   81MOL0     C10806  10.355   0.392  10.051 -0.5117  0.1616 -0.3157
   81MOL0     C10807  10.268   0.433  10.157  0.5440  1.0534 -0.8334
   81MOL0     O10808  10.167   0.514  10.125  0.4548 -0.1374  0.4894
   81MOL0     C10809  10.185   0.649  10.170 -0.8211 -0.1250 -0.2625
   81MOL0     C10810  10.170   0.748  10.050 -0.7183  0.7840  0.0307
   81MOL0     C10811  10.144   0.889  10.094  0.5412  0.2694  0.3665
   81MOL0     C10812  10.104   0.980   9.977 -1.2921 -0.4851 -0.3144
   81MOL0     C10813   9.957   0.978   9.934  0.6648 -0.4536 -0.0615
   81MOL0     C10814   9.935   1.074   9.813 -0.0288 -1.1692 -0.0118
   81MOL0     C10815   9.785   1.070   9.772 -0.5022 -0.2449  0.4648
   81MOL0     C10816   9.712   1.206   9.813 -1.0902 -0.0555  0.6786
   81MOL0     N10817   9.566   1.187   9.807 -0.1465 -1.1536 -0.6023
   81MOL0     C10818   9.497   1.127   9.911 -0.1218 -0.4769  0.7027
   81MOL0     C10819   9.364   1.144   9.875 -0.0147  0.0070  0.9073
   81MOL0     C10820   9.239   1.125   9.950 -0.5887  0.5412 -0.1229
   81MOL0     C10821   9.122   1.074   9.858  0.1832 -0.2542 -0.9789
   81MOL0     C10822   9.002   1.168   9.876 -0.6901 -0.2616  1.1485
   81MOL0     C10823   8.872   1.093   9.841 -0.1734  0.0164 -0.5558
   81MOL0     O10824   8.750   1.171   9.860 -0.2138 -0.1290 -0.2774
   81MOL0     C10825   8.627   1.113   9.834 -0.4156 -0.7901 -0.2979
   81MOL0     C10826   8.515   1.180   9.880  0.3050  0.3301 -0.0887
   81MOL0     C10827   8.385   1.132   9.856  0.3139  0.0591 -0.4957
   81MOL0     C10828   8.363   1.013   9.791 -0.6025 -1.1802 -0.1543
   81MOL0     C10829   8.227   0.963   9.757  0.1381 -0.1388 -0.6421
   81MOL0     O10830   8.214   0.846   9.705  0.9795 -1.0393 -0.8784
   81MOL0     C10831   8.092   0.816   9.650  0.7141  0.8997  0.7005
   81MOL0     C10832   8.017   0.898   9.564 -0.2268 -1.1757 -0.2724
   81MOL0     C10833   7.896   0.861   9.507  0.5550  0.2791  0.1851
   81MOL0     C10834   7.842   0.736   9.542  0.8201  0.4741  0.0417
   81MOL0     O10835   7.719   0.700   9.488  0.2806  0.0239 -0.2404
   81MOL0     C10836   7.646   0.584   9.539  0.3863 -0.5057 -0.2967
   81MOL0     C10837   7.588   0.511   9.410 -0.4808  0.5359  0.0681
   81MOL0     C10838   7.531   0.381   9.468 -0.6603 -0.9237 -0.0497
   81MOL0     C10839   7.476   0.283   9.369 -0.0569  0.4295 -0.5064
   81MOL0     C10840   7.469   0.143   9.433 -0.2963  0.2448 -1.0485
   81MOL0     C10841   7.407   0.043   9.332 -0.8307 -0.2298 -0.7478
   81MOL0     C10842   7.427  -0.102   9.379  0.2528  0.0201 -0.0625
   81MOL0     C10843   7.453  -0.201   9.270 -0.2861 -0.8034  0.7027
   81MOL0    Cl10844   7.598  -0.159   9.176 -0.0662  0.1198 -0.4311
   81MOL0     C10845   7.917   0.649   9.620  0.0888  0.3095  0.0753
   81MOL0     C10846   8.035   0.691   9.675  0.5410  0.3035 -0.0723
   81MOL0     O10847   8.135   1.030   9.800 -0.3391 -0.2400 -0.2853
   81MOL0     C10848   8.474   0.945   9.741 -0.4937  0.0907  0.3658
   81MOL0     C10849   8.605   0.998   9.761  0.0371  0.3944 -1.5640
   81MOL0     N10850   9.358   1.199   9.752  0.1482 -0.1494  0.1698
   81MOL0     N10851   9.479   1.226   9.710  0.1084 -0.2066 -0.2635
   81MOL0     C10852  10.297   0.399  10.287  0.6880 -0.4937 -0.1950
   81MOL0     C10853  10.417   0.336  10.316  0.8874  1.1200  0.8739
   81MOL0     C10854  10.777   0.056  10.290  0.1637 -0.2604  0.2643
   81MOL0     C10855  10.835  -0.049  10.225  0.0929  1.1513  0.0161
   81MOL0     C10856  10.896  -0.153  10.297  0.4144 -0.3874 -0.0255
   81MOL0     C10857  10.919  -0.141  10.434  0.2570  0.4558  0.6393
   81MOL0     O10858  10.986  -0.250  10.498 -0.0652 -0.8239 -1.0071
   81MOL0     C10859  10.937  -0.285  10.630 -0.2706  0.5207  0.8326
   81MOL0     C10860  11.010  -0.398  10.688  0.2378 -0.4416 -1.7445
   81MOL0     C10861  10.976  -0.402  10.834  0.1066  0.6420  0.2967
   81MOL0     C10862  11.033  -0.527  10.899 -0.5667 -0.0644 -0.4341
   81MOL0     C10863  10.954  -0.647  10.874  0.7873 -0.3207 -0.0020
   81MOL0     C10864  10.894  -0.746  10.833  0.3194 -1.0190  0.3175
   81MOL0     C10865  10.861  -0.039  10.499  0.1394  0.1571 -0.3989
   81MOL0     C10866  10.787   0.062  10.428 -0.4224  0.1248 -0.6926
   81MOL0     C10867  10.752   0.187  10.503 -0.7478  0.1753 -0.7814
   81MOL0     H10868  10.553   0.305  10.006 -0.3596 -1.2539 -0.7579
   81MOL0     H10869  10.339   0.424   9.948 -0.4770 -1.0027 -0.6947
   81MOL0     H10870  10.109   0.673  10.244  2.0004  2.2708  2.0809
   81MOL0     H10871  10.283   0.661  10.218 -1.1930  0.1010  0.4402
   81MOL0     H10872  10.084   0.723   9.986 -0.8110 -0.4255  0.5906
   81MOL0     H10873  10.251   0.744   9.977 -1.3329 -1.7101 -0.6122
   81MOL0     H10874  10.239   0.931  10.130  0.4161  0.0417  0.9860
   81MOL0     H10875  10.063   0.904  10.166 -1.4524 -4.7578 -0.4687
   81MOL0     H10876  10.126   1.085   9.998 -1.8711 -0.3874 -0.1628
   81MOL0     H10877  10.170   0.945   9.897  0.8906 -1.1262  1.6723
   81MOL0     H10878   9.938   0.875   9.901  3.0590 -1.0762  0.3287
   81MOL0     H10879   9.882   1.017  10.003 -1.0560 -1.9862 -0.9554
   81MOL0     H10880   9.963   1.176   9.843 -2.0009 -0.5968 -0.0022
   81MOL0     H10881   9.993   1.037   9.728 -1.0354 -1.3470 -0.6277
   81MOL0     H10882   9.729   0.985   9.813  0.5189 -2.3721 -2.2217
   81MOL0     H10883   9.788   1.056   9.663 -1.5979  3.0088 -0.0864
   81MOL0     H10884   9.742   1.225   9.916  0.3920  2.2088 -0.0884
   81MOL0     H10885   9.748   1.294   9.758  1.2707  0.3704  2.7361
   81MOL0     H10886   9.532   1.101  10.010 -1.3817  1.3480  1.6860
   81MOL0     H10887   9.262   1.050  10.027 -0.5600 -0.3708 -0.9972
   81MOL0     H10888   9.219   1.221   9.998 -1.1890  0.7062 -0.6929
   81MOL0     H10889   9.157   1.062   9.755  0.9784  1.6033 -0.9713
   81MOL0     H10890   9.084   0.979   9.895  0.8561 -1.1119 -2.4050
   81MOL0     H10891   9.009   1.254   9.808  1.7764  0.6927  2.4663
   81MOL0     H10892   9.007   1.186   9.984 -2.9042 -1.2017  1.4571
   81MOL0     H10893   8.870   1.009   9.910 -0.2808  0.7111  0.3008
   81MOL0     H10894   8.874   1.055   9.738  2.2385  2.1885 -1.4199
   81MOL0     H10895   8.535   1.269   9.939 -1.1645 -0.5938  1.9409
   81MOL0     H10896   8.295   1.180   9.895 -0.4505 -0.6401 -1.3571
   81MOL0     H10897   8.052   0.994   9.528  2.2024 -2.3921 -1.4202
   81MOL0     H10898   7.845   0.922   9.432  0.0939 -1.8118 -1.2830
   81MOL0     H10899   7.705   0.510   9.595 -0.6707 -0.2392  1.2418
   81MOL0     H10900   7.568   0.626   9.603 -0.5841  0.6299 -2.1296
   81MOL0     H10901   7.505   0.575   9.378 -0.3887 -1.0988 -4.0918
   81MOL0     H10902   7.662   0.496   9.330 -0.2124  1.3492  0.1555
   81MOL0     H10903   7.616   0.338   9.523  1.1663  2.7817  0.3478
   81MOL0     H10904   7.455   0.410   9.541 -1.8760  0.6855 -1.8331
   81MOL0     H10905   7.544   0.272   9.283 -1.2126  1.2552 -1.5501
   81MOL0     H10906   7.376   0.302   9.331 -1.9805 -0.6295  3.4982
   81MOL0     H10907   7.435   0.152   9.536  4.0578  1.6578  0.4841
   81MOL0     H10908   7.570   0.104   9.446 -0.9857 -1.5037 -0.6390
   81MOL0     H10909   7.305   0.077   9.310 -0.5061  3.3145  2.1372
   81MOL0     H10910   7.460   0.058   9.238  0.4201  0.0608 -0.0096
   81MOL0     H10911   7.330  -0.129   9.423 -0.3904  3.8258  1.2655
   81MOL0     H10912   7.505  -0.112   9.455  0.5481 -0.2901 -0.4047
   81MOL0     H10913   7.457  -0.301   9.315 -0.0694 -1.7927 -1.3969
   81MOL0     H10914   7.371  -0.213   9.199  0.3957  2.2651 -0.7950
   81MOL0     H10915   7.900   0.542   9.626  2.0818 -0.4148 -3.7205
   81MOL0     H10916   8.085   0.621   9.741  1.5074 -0.2376 -1.3399
   81MOL0     H10917   8.475   0.856   9.680  1.6948  0.7504 -0.6631
   81MOL0     H10918   8.687   0.931   9.734 -0.4366 -0.5975 -0.6167
   81MOL0     H10919  10.234   0.434  10.369 -0.6995  1.0933 -1.8496
   81MOL0     H10920  10.435   0.314  10.421 -2.5044 -0.2016  1.2970
   81MOL0     H10921  10.819  -0.073  10.120  1.5073 -0.7199  0.1801
   81MOL0     H10922  10.922  -0.238  10.236  0.7756  0.5193 -1.1801
   81MOL0     H10923  10.828  -0.291  10.632 -0.5482  1.5294 -3.0296
   81MOL0     H10924  10.959  -0.200  10.696 -2.1649  0.8099  1.1421
   81MOL0     H10925  11.118  -0.383  10.677  0.3437 -0.3076 -0.6149
   81MOL0     H10926  10.985  -0.491  10.636  1.3260 -0.4803 -2.2303
   81MOL0     H10927  10.868  -0.390  10.844 -0.3296 -1.9510 -0.5403
   81MOL0     H10928  11.026  -0.310  10.865 -0.5520  1.4038 -0.7948
   81MOL0     H10929  11.138  -0.529  10.866  0.4220  3.0250  2.0507
   81MOL0     H10930  11.047  -0.521  11.007 -0.0109  0.9616 -0.5466
   81MOL0     H10931  10.827  -0.821  10.795  1.1870 -0.0331 -3.6994
   81MOL0     H10932  10.872  -0.022  10.606  0.1524 -0.2594 -0.3287
   81MOL0     H10933  10.644   0.201  10.493 -1.2050 -1.2592  1.4456
   81MOL0     H10934  10.763   0.170  10.611 -0.3378  0.0819 -0.8340
   81MOL0     H10935  10.801   0.280  10.474 -0.3523  0.5324  0.9244
   82MOL0     O10936  10.885   2.029   1.137  0.4000  0.1989 -0.4328
   82MOL0     C10937  10.832   2.001   1.245 -0.3686 -0.3673 -0.5094
   82MOL0     O10938  10.831   1.880   1.304 -0.2195  0.3832  0.7211
   82MOL0     C10939  10.902   1.774   1.240  0.1138 -0.0140 -1.7029
   82MOL0     C10940  10.836   1.699   1.138  0.1952  0.1599  0.3160
   82MOL0     C10941  10.907   1.600   1.072  0.5540  0.5570 -0.7979
   82MOL0     C10942  11.043   1.572   1.108  0.4075  0.0227  0.6177
   82MOL0     O10943  11.103   1.479   1.025  0.5827 -0.6856 -0.1422
   82MOL0     C10944  11.250   1.444   1.054 -0.1724 -0.2908 -0.2897
   82MOL0     C10945  11.338   1.547   0.973 -0.2330  0.6166  0.1868
   82MOL0     C10946  11.327   1.529   0.823 -0.0385  0.1187 -1.1697
   82MOL0     C10947  11.380   1.642   0.741  0.1671 -0.0868 -0.6397
   82MOL0     C10948  11.524   1.679   0.762  0.1697  0.0049 -0.0049
   82MOL0     C10949  11.566   1.802   0.682  1.0322  0.6266 -0.0543
   82MOL0     C10950  11.714   1.828   0.714  0.8658 -0.3097  0.6873
   82MOL0     C10951  11.761   1.955   0.640 -0.1501 -0.1176 -1.0689
   82MOL0     N10952  11.722   2.084   0.711 -0.4080  0.4037  0.0753
   82MOL0     C10953  11.619   2.166   0.669 -1.8487 -0.3094  0.5005
   82MOL0     C10954  11.631   2.278   0.746 -0.6558  0.7040 -0.5687
   82MOL0     C10955  11.553   2.401   0.720 -0.1577  0.8588 -0.1595
   82MOL0     C10956  11.442   2.415   0.822 -0.2591  0.1435 -0.0143
   82MOL0     C10957  11.467   2.444   0.974  0.2895  0.2932  0.1581
   82MOL0     C10958  11.581   2.542   1.002  0.0840  0.8361 -0.3206
   82MOL0     O10959  11.587   2.563   1.146 -0.5930 -0.2341 -0.1282
   82MOL0     C10960  11.497   2.655   1.204  0.3696 -0.1058  0.3386
   82MOL0     C10961  11.478   2.640   1.340  0.1282 -0.4860  0.3384
   82MOL0     C10962  11.394   2.726   1.404 -0.2567 -0.8228  0.1215
   82MOL0     C10963  11.315   2.824   1.334 -0.2388  0.5812 -0.4906
   82MOL0     C10964  11.208   2.898   1.414  0.4898 -0.9198  0.0145
   82MOL0     O10965  11.110   2.951   1.339  0.3191 -0.2479  0.0460
   82MOL0     C10966  11.024   3.035   1.401 -0.6753 -0.6214 -0.7388
   82MOL0     C10967  10.891   3.032   1.363 -0.7347  0.1142 -0.2476
   82MOL0     C10968  10.784   3.093   1.438 -0.7226  0.7324  1.0186
   82MOL0     C10969  10.808   3.186   1.536 -0.0807  0.1518  0.7595
   82MOL0     O10970  10.704   3.249   1.599  0.1950  0.6986  0.4302
   82MOL0     C10971  10.720   3.375   1.673 -1.3980  0.4978 -0.6351
   82MOL0     C10972  10.597   3.407   1.758  0.1808  0.8794 -0.2508
   82MOL0     C10973  10.485   3.426   1.656  0.1118  0.9877 -0.3010
   82MOL0     C10974  10.366   3.474   1.723  0.3878 -0.1937 -0.6846
   82MOL0     C10975  10.244   3.504   1.643  0.2488  0.3893 -0.1434
   82MOL0     C10976  10.131   3.560   1.732  0.0404 -0.9078 -0.2646
   82MOL0     C10977   9.992   3.545   1.674  0.5431 -0.2327 -0.0667
   82MOL0     C10978   9.865   3.578   1.762  0.0870 -0.3090  0.1091
   82MOL0    Cl10979   9.906   3.714   1.862  0.2703  0.1633 -0.6324
   82MOL0     C10980  10.951   3.195   1.575 -0.2023  0.4585 -0.2401
   82MOL0     C10981  11.050   3.119   1.501 -0.1103 -0.1301 -0.4871
   82MOL0     O10982  11.209   2.886   1.542 -0.3689 -0.0451  0.5242
   82MOL0     C10983  11.349   2.845   1.196 -0.2549 -0.5945 -0.1593
   82MOL0     C10984  11.440   2.764   1.135 -0.1900  0.7542 -0.3679
   82MOL0     N10985  11.727   2.256   0.845  0.1177  0.2362 -0.2747
   82MOL0     N10986  11.787   2.139   0.819  0.3109 -1.1518  0.3401
   82MOL0     C10987  11.106   1.652   1.208 -0.1812  0.4293  1.1943
   82MOL0     C10988  11.028   1.739   1.280  0.4158 -0.2646 -0.4974
   82MOL0     C10989  10.750   2.110   1.300  0.6698 -0.1041 -0.2191
   82MOL0     C10990  10.802   2.243   1.326 -0.2687  0.2564 -0.3902
   82MOL0     C10991  10.739   2.332   1.409  1.3260  0.2281  1.0863
   82MOL0     C10992  10.599   2.308   1.443 -0.3800 -0.7765  0.0274
   82MOL0     O10993  10.519   2.383   1.526  0.5782  0.0608  0.0928
   82MOL0     C10994  10.575   2.499   1.594  0.3611 -0.0735 -0.0564
   82MOL0     C10995  10.453   2.565   1.657 -0.0765  0.3715 -0.1630
   82MOL0     C10996  10.411   2.484   1.786 -0.0725  0.2539  0.2121
   82MOL0     C10997  10.272   2.540   1.832 -0.2526  0.2398 -1.1849
   82MOL0     C10998  10.213   2.455   1.935  1.6933  0.5032  0.1644
   82MOL0     C10999  10.177   2.381   2.025 -0.1885  0.4530 -0.0947
   82MOL0     C11000  10.545   2.185   1.412  0.3457 -0.0961 -0.0292
   82MOL0     C11001  10.611   2.085   1.339 -0.7347 -0.1322  0.2210
   82MOL0     C11002  10.531   1.954   1.320  0.7860  0.4630  0.1224
   82MOL0     H11003  10.735   1.731   1.115 -2.3504 -6.9173 -0.5907
   82MOL0     H11004  10.862   1.541   0.992 -0.3674 -1.6743  1.2526
   82MOL0     H11005  11.286   1.452   1.158  0.8728 -1.6462 -0.5170
   82MOL0     H11006  11.273   1.339   1.035  0.2766  0.1776 -2.5560
   82MOL0     H11007  11.440   1.523   1.004 -0.9288 -0.9868  1.3725
   82MOL0     H11008  11.325   1.652   1.001 -0.9295  0.1400  1.7170
   82MOL0     H11009  11.220   1.521   0.804  0.1029 -2.6393 -1.1923
   82MOL0     H11010  11.391   1.444   0.797  1.6516  0.2946  1.8853
   82MOL0     H11011  11.351   1.630   0.637 -0.5631  0.7061 -0.5398
   82MOL0     H11012  11.332   1.739   0.760 -0.5903 -0.2102 -1.8691
   82MOL0     H11013  11.553   1.684   0.867  2.9895 -0.9404 -0.6474
   82MOL0     H11014  11.578   1.587   0.736  1.6965 -0.4370  4.1020
   82MOL0     H11015  11.548   1.780   0.576  0.8737 -0.0443  0.1066
   82MOL0     H11016  11.498   1.885   0.702 -3.2568 -2.9344  2.1001
   82MOL0     H11017  11.776   1.742   0.688  0.7376 -0.5573  1.1856
   82MOL0     H11018  11.715   1.855   0.820 -1.6794 -1.0067  0.9563
   82MOL0     H11019  11.866   1.948   0.611 -0.5370 -1.5113 -2.2337
   82MOL0     H11020  11.707   1.941   0.546  0.5451 -1.1958 -1.3214
   82MOL0     H11021  11.572   2.161   0.571  0.9990 -3.8641 -0.8678
   82MOL0     H11022  11.610   2.494   0.713  1.8961 -0.1922  1.6907
   82MOL0     H11023  11.503   2.380   0.625  0.4506 -0.1146 -0.2781
   82MOL0     H11024  11.384   2.502   0.789 -0.2654 -0.4629 -1.6696
   82MOL0     H11025  11.386   2.320   0.821 -2.2253  1.2293  0.3991
   82MOL0     H11026  11.490   2.346   1.016 -1.4027  0.6778  2.1214
   82MOL0     H11027  11.369   2.474   1.012 -0.2798 -0.4796 -0.6545
   82MOL0     H11028  11.556   2.632   0.945  1.3520 -0.4181 -3.0756
   82MOL0     H11029  11.679   2.512   0.964 -0.0489 -0.9970  0.6876
   82MOL0     H11030  11.529   2.558   1.389  3.3411  0.2480 -1.5266
   82MOL0     H11031  11.378   2.718   1.511 -2.7130 -1.2223 -0.2112
   82MOL0     H11032  10.863   2.991   1.267  0.9182 -0.9162 -0.3298
   82MOL0     H11033  10.686   3.070   1.399  0.6570 -0.5021 -2.0488
   82MOL0     H11034  10.800   3.364   1.747 -1.2782 -1.2280 -0.9917
   82MOL0     H11035  10.729   3.452   1.595 -1.4447  2.0030  0.7847
   82MOL0     H11036  10.562   3.323   1.818 -0.1856 -0.4370 -2.2186
   82MOL0     H11037  10.613   3.498   1.817  0.4714  2.2607 -2.3388
   82MOL0     H11038  10.514   3.490   1.573 -0.2175  1.4126 -0.0923
   82MOL0     H11039  10.456   3.335   1.603  0.6316  1.5007 -1.4959
   82MOL0     H11040  10.407   3.566   1.765  2.1116 -2.1073  2.1851
   82MOL0     H11041  10.357   3.418   1.817 -0.8208  1.6908  0.4074
   82MOL0     H11042  10.209   3.411   1.598 -3.2424  0.8782  1.2592
   82MOL0     H11043  10.256   3.585   1.570  1.0897 -1.9936 -2.8266
   82MOL0     H11044  10.130   3.504   1.826  0.3358 -0.8010 -0.1990
   82MOL0     H11045  10.166   3.661   1.756  0.5816 -0.8189 -1.3489
   82MOL0     H11046   9.983   3.447   1.628  2.7979 -3.1284  4.8452
   82MOL0     H11047   9.988   3.614   1.589 -1.3638  2.2828  1.8711
   82MOL0     H11048   9.781   3.608   1.698  0.6659  1.8117  0.2603
   82MOL0     H11049   9.849   3.486   1.819  0.3908 -2.8930 -3.5917
   82MOL0     H11050  10.979   3.267   1.651  0.2574  0.0575 -0.0241
   82MOL0     H11051  11.148   3.130   1.547  0.4532 -0.5290 -1.5690
   82MOL0     H11052  11.298   2.923   1.140  1.9281  1.4592  0.5673
   82MOL0     H11053  11.476   2.778   1.033 -0.2876 -0.6050 -0.6098
   82MOL0     H11054  11.208   1.631   1.239  0.7267  1.8156 -0.6805
   82MOL0     H11055  11.056   1.789   1.372  2.5828 -0.0460 -1.2177
   82MOL0     H11056  10.908   2.261   1.314 -0.3154  1.0090  0.2680
   82MOL0     H11057  10.787   2.426   1.436  1.1976 -0.3149  3.4458
   82MOL0     H11058  10.616   2.570   1.521  0.4884 -0.2951 -0.2024
   82MOL0     H11059  10.652   2.473   1.667  0.5367 -1.3595 -0.6761
   82MOL0     H11060  10.364   2.558   1.594  1.1037  0.8760 -1.9666
   82MOL0     H11061  10.483   2.666   1.685  1.4985 -0.4696  1.3842
   82MOL0     H11062  10.483   2.490   1.868 -1.1281 -1.5520  1.3463
   82MOL0     H11063  10.409   2.377   1.762 -3.9546 -0.0707  1.2510
   82MOL0     H11064  10.300   2.633   1.884  2.3223 -0.5503 -1.0475
   82MOL0     H11065  10.206   2.551   1.746  0.1846  0.3912 -1.4998
   82MOL0     H11066  10.146   2.326   2.111  0.7709 -0.2279 -0.1724
   82MOL0     H11067  10.449   2.153   1.452 -0.8495  0.1320 -2.5322
   82MOL0     H11068  10.518   1.906   1.417 -1.4519 -0.3291 -0.4981
   82MOL0     H11069  10.428   1.969   1.286  0.0696 -2.9184  0.5068
   82MOL0     H11070  10.577   1.885   1.249  0.4206  0.2886  0.0546
   83MOL0     O11071   3.652   5.750   2.991 -0.2544  0.2790  1.0751
   83MOL0     C11072   3.606   5.818   3.082  0.2337  0.5753  0.9013
   83MOL0     O11073   3.601   5.953   3.074  0.1430  1.4109  0.5861
   83MOL0     C11074   3.648   6.007   2.958  0.5841  1.0020 -0.0075
   83MOL0     C11075   3.601   5.971   2.829 -0.2688 -0.0221  0.4899
   83MOL0     C11076   3.657   6.041   2.715  0.3874  0.6118 -1.0356
   83MOL0     C11077   3.753   6.141   2.732  0.1014 -0.1646 -0.7310
   83MOL0     O11078   3.800   6.209   2.626  0.3838  0.9578 -1.0601
   83MOL0     C11079   3.832   6.138   2.506 -0.2159 -0.0100 -0.6544
   83MOL0     C11080   3.865   6.245   2.401 -1.1128  0.2827  0.2952
   83MOL0     C11081   3.984   6.336   2.426 -0.3168 -0.9694 -0.5370
   83MOL0     C11082   4.115   6.261   2.437 -0.3914 -0.0527  0.1034
   83MOL0     C11083   4.227   6.348   2.452  0.0181  0.5484 -0.1604
   83MOL0     C11084   4.352   6.263   2.435  0.1803 -1.0530 -0.4305
   83MOL0     C11085   4.479   6.344   2.390 -1.0595 -0.3818  0.5060
   83MOL0     C11086   4.553   6.417   2.495 -0.0942 -0.1863  0.1419
   83MOL0     N11087   4.680   6.479   2.456 -0.4272 -0.7900  0.5249
   83MOL0     C11088   4.697   6.582   2.366 -1.0884 -0.3026 -0.4671
   83MOL0     C11089   4.819   6.638   2.381 -0.4870 -0.9659  0.2172
   83MOL0     C11090   4.873   6.755   2.299  0.8669 -0.2133 -0.2943
   83MOL0     C11091   4.948   6.702   2.173 -0.1772  0.0735  0.4862
   83MOL0     C11092   4.992   6.812   2.075 -0.4732 -0.1089 -0.3447
   83MOL0     C11093   5.070   6.761   1.958  1.1161 -0.0187 -0.6606
   83MOL0     O11094   5.000   6.659   1.883  0.1878 -0.7534  0.4870
   83MOL0     C11095   5.067   6.595   1.785  0.0543 -0.2991  0.9209
   83MOL0     C11096   5.185   6.638   1.725  0.0097  0.2544 -0.1535
   83MOL0     C11097   5.249   6.554   1.635  0.8835 -0.0749 -0.3504
   83MOL0     C11098   5.198   6.428   1.605  0.3074 -0.1282  0.2678
   83MOL0     C11099   5.263   6.343   1.509 -0.2500 -0.2119  0.3961
   83MOL0     O11100   5.355   6.400   1.430  0.5930 -0.6057  0.5357
   83MOL0     C11101   5.427   6.325   1.341 -0.3667  0.1217 -0.8389
   83MOL0     C11102   5.469   6.191   1.354  0.1463  0.3570 -0.1464
   83MOL0     C11103   5.544   6.120   1.262 -0.8581  0.6290  1.3213
   83MOL0     C11104   5.589   6.191   1.154  0.5414  0.8183  0.4077
   83MOL0     O11105   5.662   6.118   1.059 -0.1425 -0.2745 -1.0639
   83MOL0     C11106   5.616   6.113   0.925  0.4468  0.8431 -0.5173
   83MOL0     C11107   5.734   6.054   0.850  0.4617  0.5123  0.0110
   83MOL0     C11108   5.846   6.160   0.838  0.0079 -0.3865  0.0290
   83MOL0     C11109   5.979   6.096   0.858 -0.1384 -0.5001 -0.8796
   83MOL0     C11110   6.092   6.185   0.805 -0.6455  0.3276 -0.8015
   83MOL0     C11111   6.222   6.114   0.833 -0.7841 -0.3658 -0.3549
   83MOL0     C11112   6.333   6.198   0.783 -0.0836  0.2813 -0.5105
   83MOL0     C11113   6.471   6.126   0.792 -0.3966 -0.6870 -1.0216
   83MOL0    Cl11114   6.464   5.962   0.695  0.2040 -0.4247 -0.2882
   83MOL0     C11115   5.547   6.322   1.140  0.9105  0.7829  0.9993
   83MOL0     C11116   5.473   6.392   1.233 -0.3897  0.1279 -0.2540
   83MOL0     O11117   5.248   6.223   1.524  0.2701 -0.3879 -0.4913
   83MOL0     C11118   5.082   6.387   1.671 -0.0972  0.3915  0.0672
   83MOL0     C11119   5.015   6.474   1.751  0.2383 -0.1285  0.6373
   83MOL0     N11120   4.874   6.569   2.488  0.0287 -0.6280  0.3570
   83MOL0     N11121   4.792   6.485   2.531  0.4611  0.3959 -0.2686
   83MOL0     C11122   3.777   6.191   2.864 -0.3643 -0.5794  0.5900
   83MOL0     C11123   3.738   6.105   2.977 -0.7638 -0.3133  1.3691
   83MOL0     C11124   3.552   5.733   3.197 -0.0229 -0.4172  0.3790
   83MOL0     C11125   3.621   5.618   3.226 -0.2334  0.6926 -0.7358
   83MOL0     C11126   3.563   5.518   3.317  0.2757 -0.6782  0.4484
   83MOL0     C11127   3.434   5.542   3.354  0.6309 -0.4099 -0.6131
   83MOL0     O11128   3.355   5.458   3.425 -0.2529 -0.4033  0.3660
   83MOL0     C11129   3.396   5.332   3.474 -0.6765 -0.4408  0.8695
   83MOL0     C11130   3.396   5.232   3.355  0.4383 -0.0566  0.7075
   83MOL0     C11131   3.439   5.092   3.405  0.1630 -0.1624 -0.1741
   83MOL0     C11132   3.372   4.976   3.332  0.5661 -0.4103 -0.9737
   83MOL0     C11133   3.426   4.849   3.376  0.7133  0.1938 -0.0730
   83MOL0     C11134   3.483   4.764   3.441 -0.0645  0.5323  0.8742
   83MOL0     C11135   3.372   5.669   3.336 -0.1123  0.3720 -0.4429
   83MOL0     C11136   3.422   5.763   3.254 -1.2730  0.7928 -0.2750
   83MOL0     C11137   3.347   5.893   3.236 -0.0958  0.3541  0.0158
   83MOL0     H11138   3.550   5.877   2.809  2.6504 -2.1283  2.0880
   83MOL0     H11139   3.625   5.988   2.627  2.1954 -0.1868 -1.2648
   83MOL0     H11140   3.918   6.074   2.524 -2.7093 -3.0821  1.3996
   83MOL0     H11141   3.750   6.074   2.472 -0.6990  0.2616 -0.0367
   83MOL0     H11142   3.771   6.294   2.376  0.0898  2.3380 -0.4841
   83MOL0     H11143   3.898   6.193   2.310  0.6792  0.6904  0.6672
   83MOL0     H11144   3.963   6.407   2.506  2.1340  0.6291 -1.1934
   83MOL0     H11145   4.002   6.405   2.343  1.5712 -0.6954  0.0599
   83MOL0     H11146   4.124   6.178   2.508 -1.1583 -1.6844 -1.6080
   83MOL0     H11147   4.121   6.210   2.340  0.6312  3.1324 -1.6574
   83MOL0     H11148   4.220   6.432   2.382 -1.3880 -1.2679 -2.3510
   83MOL0     H11149   4.222   6.392   2.553  1.4336  0.3593  0.0038
   83MOL0     H11150   4.375   6.196   2.518 -0.1434 -2.0448 -1.1202
   83MOL0     H11151   4.332   6.209   2.342 -1.3535  0.6157 -1.1422
   83MOL0     H11152   4.448   6.418   2.317  1.4558 -0.3771 -0.6548
   83MOL0     H11153   4.551   6.282   2.334  0.6460  1.2238  0.8299
   83MOL0     H11154   4.494   6.500   2.536 -0.2955  0.0769 -0.6737
   83MOL0     H11155   4.564   6.354   2.584  1.2094  0.2627  0.3217
   83MOL0     H11156   4.619   6.617   2.299  0.9397 -0.4823 -3.0768
   83MOL0     H11157   4.787   6.810   2.261  2.3942  0.0955 -3.6916
   83MOL0     H11158   4.923   6.810   2.379 -1.3966 -0.7601  1.5906
   83MOL0     H11159   5.032   6.633   2.187 -0.1852 -0.1448 -0.4966
   83MOL0     H11160   4.869   6.649   2.119 -0.1167  0.4242  0.0495
   83MOL0     H11161   5.061   6.873   2.135  0.5297  0.8725 -2.3614
   83MOL0     H11162   4.902   6.865   2.044 -0.7993 -0.1720  0.4915
   83MOL0     H11163   5.157   6.717   2.008  1.2981 -0.2472 -1.1722
   83MOL0     H11164   5.111   6.847   1.905  1.2509  1.2196  1.3697
   83MOL0     H11165   5.231   6.736   1.731 -0.9513  0.9249 -2.5133
   83MOL0     H11166   5.336   6.592   1.583  0.2140  3.0216  0.5650
   83MOL0     H11167   5.449   6.136   1.445  0.0359 -1.6001 -1.3137
   83MOL0     H11168   5.570   6.014   1.257 -1.0706  0.5788  1.2726
   83MOL0     H11169   5.526   6.052   0.919 -0.3367  1.9199  0.0859
   83MOL0     H11170   5.598   6.210   0.880 -2.4650  0.9670  0.7429
   83MOL0     H11171   5.776   5.961   0.892  0.4680  0.3995 -0.2405
   83MOL0     H11172   5.696   6.019   0.753 -0.5473 -0.7345  0.8209
   83MOL0     H11173   5.843   6.217   0.745  2.9880 -4.9965 -3.3604
   83MOL0     H11174   5.845   6.224   0.927  1.0373 -5.2564  4.0281
   83MOL0     H11175   5.975   6.012   0.789 -1.6912 -1.4138  0.2716
   83MOL0     H11176   5.994   6.059   0.960 -0.8906 -4.3506 -1.9933
   83MOL0     H11177   6.092   6.283   0.855  1.0963 -0.3491  0.6664
   83MOL0     H11178   6.074   6.206   0.700  0.0273  0.8647 -0.8118
   83MOL0     H11179   6.230   6.102   0.941  0.0494  1.4352 -0.1807
   83MOL0     H11180   6.227   6.012   0.794  0.6282 -1.2886  2.0546
   83MOL0     H11181   6.351   6.281   0.853 -2.7672  0.2273  0.3812
   83MOL0     H11182   6.313   6.228   0.680 -2.1310  0.5602 -0.0916
   83MOL0     H11183   6.543   6.195   0.747 -2.9736  2.6915 -0.4006
   83MOL0     H11184   6.495   6.111   0.898  1.5540  0.6491 -1.2027
   83MOL0     H11185   5.576   6.381   1.053 -0.3248 -0.2390 -0.1468
   83MOL0     H11186   5.442   6.495   1.220 -0.8766  0.1877  1.1550
   83MOL0     H11187   5.034   6.291   1.655 -0.8632  0.6563  0.7144
   83MOL0     H11188   4.915   6.443   1.779 -0.6671  2.4203  0.4445
   83MOL0     H11189   3.838   6.277   2.890 -1.0144  0.1880 -0.3479
   83MOL0     H11190   3.764   6.132   3.078 -1.7174  0.0217  1.5360
   83MOL0     H11191   3.723   5.598   3.196 -0.4583 -0.8269 -0.5697
   83MOL0     H11192   3.619   5.426   3.332 -1.3637 -1.4396  2.3645
   83MOL0     H11193   3.324   5.310   3.554 -2.3608  3.2690  0.5888
   83MOL0     H11194   3.499   5.339   3.510 -0.5317  2.7038  0.1272
   83MOL0     H11195   3.472   5.264   3.282 -3.1503  0.5233 -3.1596
   83MOL0     H11196   3.298   5.222   3.309  1.6628  1.2708 -2.4683
   83MOL0     H11197   3.397   5.079   3.505  3.4150  1.2832  1.5482
   83MOL0     H11198   3.547   5.084   3.421 -0.0447 -2.0776  0.5206
   83MOL0     H11199   3.266   4.987   3.357  0.3096 -1.3203 -1.6161
   83MOL0     H11200   3.381   4.977   3.223 -0.5744  0.1412 -1.0714
   83MOL0     H11201   3.528   4.687   3.500  3.3907  2.1516  0.6142
   83MOL0     H11202   3.274   5.685   3.380  0.7354  0.6050  1.4852
   83MOL0     H11203   3.423   5.971   3.224 -0.0425  0.0765 -1.8372
   83MOL0     H11204   3.287   5.888   3.144  0.2379 -0.6639 -0.1603
   83MOL0     H11205   3.277   5.921   3.315  2.0929  2.0830  1.4386
   84MOL0     O11206   5.667  10.501   0.402 -0.1118 -0.1309 -0.0660
   84MOL0     C11207   5.727  10.561   0.494 -0.6368 -0.1546 -0.1288
   84MOL0     O11208   5.859  10.585   0.500  0.2556  0.2994 -0.2529
   84MOL0     C11209   5.930  10.594   0.386 -0.0280  0.8957  0.7317
   84MOL0     C11210   6.025  10.498   0.375 -0.0321  0.0977 -0.0543
   84MOL0     C11211   6.111  10.500   0.261 -0.8343 -0.6673  0.2138
   84MOL0     C11212   6.107  10.601   0.169  0.5665 -1.0735 -0.5001
   84MOL0     O11213   6.200  10.603   0.067 -0.8188  0.2499 -0.0753
   84MOL0     C11214   6.199  10.698  -0.030  0.5315 -0.1345  0.0875
   84MOL0     C11215   6.104  10.668  -0.143  0.0892 -0.2442  1.0296
   84MOL0     C11216   6.121  10.528  -0.190  0.3797  0.0297  0.6180
   84MOL0     C11217   6.035  10.512  -0.314 -1.1319  0.4166 -0.2286
   84MOL0     C11218   6.071  10.383  -0.389  0.0986 -0.4085 -0.2492
   84MOL0     C11219   5.982  10.375  -0.509  0.4699 -0.0339 -0.2876
   84MOL0     C11220   6.031  10.434  -0.631 -0.2293 -0.5561  0.0939
   84MOL0     C11221   5.926  10.418  -0.731  0.4161  0.5588  1.2238
   84MOL0     N11222   5.895  10.550  -0.788 -0.1947  1.0430 -1.1015
   84MOL0     C11223   5.819  10.645  -0.727  0.0376  0.2181  0.8755
   84MOL0     C11224   5.806  10.740  -0.816 -0.7440 -1.1997  0.6263
   84MOL0     C11225   5.730  10.869  -0.812 -0.0067 -0.2832 -0.2767
   84MOL0     C11226   5.583  10.854  -0.861  0.5937  0.1183 -0.1105
   84MOL0     C11227   5.499  10.967  -0.807 -0.3604  0.2475  0.0963
   84MOL0     C11228   5.347  10.959  -0.836  0.1057  0.0973 -0.3196
   84MOL0     O11229   5.305  11.080  -0.786  0.0506  0.2095  0.2362
   84MOL0     C11230   5.173  11.110  -0.784 -0.2949  0.4219 -0.9070
   84MOL0     C11231   5.150  11.238  -0.734  0.1067 -0.0903 -0.3020
   84MOL0     C11232   5.027  11.279  -0.716  0.5493 -0.4709  0.3358
   84MOL0     C11233   4.918  11.197  -0.756  0.8345  1.2278  0.0695
   84MOL0     C11234   4.778  11.247  -0.743  0.8557 -0.4053  0.3070
   84MOL0     O11235   4.686  11.182  -0.829 -1.0619 -0.0521  0.1929
   84MOL0     C11236   4.560  11.216  -0.820 -0.0371 -0.6597 -0.2601
   84MOL0     C11237   4.513  11.316  -0.904 -0.7433 -0.1722  0.6512
   84MOL0     C11238   4.374  11.339  -0.925 -0.5401 -0.0357  0.7371
   84MOL0     C11239   4.280  11.276  -0.844  0.6415 -0.4331  0.1852
   84MOL0     O11240   4.148  11.287  -0.857 -0.0214 -0.1424 -0.4572
   84MOL0     C11241   4.093  11.386  -0.939  1.1183  0.8553  0.1822
   84MOL0     C11242   3.947  11.394  -0.917  1.6071 -0.0368 -0.8040
   84MOL0     C11243   3.879  11.269  -0.969 -0.5663  0.0202  0.3339
   84MOL0     C11244   3.728  11.290  -0.937 -1.4350  1.1841 -0.4591
   84MOL0     C11245   3.634  11.185  -0.989 -0.0176  1.2410  0.0370
   84MOL0     C11246   3.494  11.184  -0.934  0.1371 -0.3624  0.4746
   84MOL0     C11247   3.436  11.049  -0.908  0.6610  0.3006  0.2965
   84MOL0     C11248   3.291  11.065  -0.863  0.6066  0.6199  0.4594
   84MOL0    Cl11249   3.169  11.112  -0.999 -0.0728  0.0149 -0.5344
   84MOL0     C11250   4.329  11.192  -0.748 -1.1365  0.0246 -0.6420
   84MOL0     C11251   4.465  11.148  -0.735 -0.5054 -0.9467  0.2891
   84MOL0     O11252   4.755  11.355  -0.687  0.1152 -0.3251 -0.1772
   84MOL0     C11253   4.942  11.073  -0.809 -0.8074  0.0341 -0.2501
   84MOL0     C11254   5.068  11.021  -0.815 -0.3780 -0.2681  0.7648
   84MOL0     N11255   5.876  10.713  -0.930  0.0941  1.1292 -0.8232
   84MOL0     N11256   5.924  10.599  -0.911 -0.1677  0.8118  0.3174
   84MOL0     C11257   6.006  10.700   0.191 -0.5065  0.5205  0.8310
   84MOL0     C11258   5.911  10.695   0.297 -0.2947 -0.5590  0.0516
   84MOL0     C11259   5.659  10.598   0.617 -0.3994  0.0470 -0.5805
   84MOL0     C11260   5.732  10.580   0.742 -0.1833  0.5496  1.2723
   84MOL0     C11261   5.677  10.610   0.866 -0.2503 -0.8744  0.0043
   84MOL0     C11262   5.543  10.650   0.868 -0.0622  0.1490 -0.3358
   84MOL0     O11263   5.488  10.676   0.994 -0.3213 -0.1967 -0.6394
   84MOL0     C11264   5.366  10.756   1.000 -0.0986  0.2983 -0.1908
   84MOL0     C11265   5.245  10.659   1.005  0.0262  0.2607 -0.6541
   84MOL0     C11266   5.131  10.750   1.063  0.0219 -0.9933  0.2398
   84MOL0     C11267   4.983  10.726   1.023 -0.6648  1.1293  0.7597
   84MOL0     C11268   4.979  10.719   0.878  0.0623 -0.6731 -0.9700
   84MOL0     C11269   4.981  10.707   0.756  0.4775 -0.7584  0.2891
   84MOL0     C11270   5.477  10.679   0.744 -0.6510 -0.0242 -0.1586
   84MOL0     C11271   5.535  10.659   0.618 -0.7625  0.2950  0.3980
   84MOL0     C11272   5.461  10.714   0.504  0.3916  0.1759  1.1937
   84MOL0     H11273   6.044  10.417   0.445  0.2293 -0.1355 -0.3907
   84MOL0     H11274   6.193  10.431   0.243 -0.7233 -0.3914 -0.3453
   84MOL0     H11275   6.180  10.796   0.014  1.7653  1.1763 -2.1321
   84MOL0     H11276   6.298  10.706  -0.076  1.7195 -2.0339  2.0759
   84MOL0     H11277   6.122  10.741  -0.222  0.8087 -0.3211  1.1184
   84MOL0     H11278   6.002  10.682  -0.105 -0.9251 -5.2196  0.8384
   84MOL0     H11279   6.087  10.457  -0.114 -1.8834 -0.5602 -0.8594
   84MOL0     H11280   6.225  10.511  -0.220 -0.9527 -3.8782 -2.7435
   84MOL0     H11281   5.928  10.517  -0.290 -0.9491 -0.5996  0.8990
   84MOL0     H11282   6.053  10.593  -0.385  0.3812  0.7968  0.5450
   84MOL0     H11283   6.176  10.376  -0.417  0.3368 -5.2979  1.0798
   84MOL0     H11284   6.038  10.306  -0.319 -1.8998 -0.5889 -1.3174
   84MOL0     H11285   5.974  10.267  -0.527  2.7095 -0.1346 -0.9116
   84MOL0     H11286   5.884  10.414  -0.479 -0.4791 -0.7763 -2.2383
   84MOL0     H11287   6.120  10.380  -0.664 -0.6368 -0.5086 -1.1632
   84MOL0     H11288   6.065  10.537  -0.624  0.5816 -0.8573  0.7020
   84MOL0     H11289   5.958  10.354  -0.813  1.6912 -1.6636  3.3205
   84MOL0     H11290   5.827  10.387  -0.698 -0.5846 -1.2174 -2.9035
   84MOL0     H11291   5.771  10.637  -0.630 -3.2687  1.2207 -0.5241
   84MOL0     H11292   5.746  10.897  -0.707  2.1726  2.5555 -1.2442
   84MOL0     H11293   5.780  10.942  -0.876  3.4788 -2.3669 -0.1759
   84MOL0     H11294   5.587  10.846  -0.970  1.7067 -1.1597 -0.0057
   84MOL0     H11295   5.541  10.761  -0.824  1.8213 -1.1775 -1.7850
   84MOL0     H11296   5.541  11.067  -0.825  2.5836 -1.1441 -1.5324
   84MOL0     H11297   5.512  10.954  -0.699 -1.4148 -1.3796  0.0676
   84MOL0     H11298   5.318  10.876  -0.771  4.4697 -1.9608 -0.6388
   84MOL0     H11299   5.323  10.946  -0.942  0.0125 -1.8270 -0.1034
   84MOL0     H11300   5.229  11.308  -0.709  2.7392 -2.9640  0.1905
   84MOL0     H11301   5.014  11.372  -0.661  1.5821 -0.7328  1.0641
   84MOL0     H11302   4.577  11.368  -0.975 -0.2412 -1.9186 -0.2185
   84MOL0     H11303   4.354  11.399  -1.013 -0.3778 -1.8456 -0.5967
   84MOL0     H11304   4.139  11.485  -0.933  2.7260  0.3668 -2.3116
   84MOL0     H11305   4.106  11.360  -1.045 -3.5550 -1.9529  0.0509
   84MOL0     H11306   3.928  11.399  -0.809  0.7712  0.8401 -0.9700
   84MOL0     H11307   3.903  11.479  -0.971 -2.1488 -1.0728  0.3203
   84MOL0     H11308   3.896  11.271  -1.077 -0.8190  0.2394  0.2989
   84MOL0     H11309   3.908  11.175  -0.921 -1.0402 -0.0465  0.4982
   84MOL0     H11310   3.691  11.384  -0.980 -4.3071  0.0899 -0.6174
   84MOL0     H11311   3.733  11.293  -0.828  0.6814  0.7775 -0.4955
   84MOL0     H11312   3.680  11.089  -0.963  1.1384  1.4956 -0.9776
   84MOL0     H11313   3.631  11.193  -1.099  0.1315  3.2493  0.1367
   84MOL0     H11314   3.489  11.240  -0.840 -0.9488  0.6768 -0.1616
   84MOL0     H11315   3.433  11.241  -1.005  0.0198  0.3973  1.1709
   84MOL0     H11316   3.499  10.991  -0.840  0.6521  1.5342  1.3936
   84MOL0     H11317   3.417  10.995  -1.001 -2.0473  0.8709  0.4383
   84MOL0     H11318   3.255  10.974  -0.814 -1.5360  1.7795  1.1782
   84MOL0     H11319   3.277  11.122  -0.770 -3.2870 -3.2237  2.5759
   84MOL0     H11320   4.250  11.147  -0.688 -1.0095  1.8348  0.9478
   84MOL0     H11321   4.499  11.085  -0.653  1.0608  2.0740  2.1812
   84MOL0     H11322   4.861  11.012  -0.847 -0.2714 -0.8820  0.0477
   84MOL0     H11323   5.077  10.921  -0.856  3.2961  0.3890 -0.3978
   84MOL0     H11324   6.003  10.786   0.124 -0.7676  0.4064  0.6962
   84MOL0     H11325   5.843  10.780   0.305  1.9852  1.1971  2.1922
   84MOL0     H11326   5.834  10.545   0.737 -0.4121 -0.0423 -2.5321
   84MOL0     H11327   5.721  10.571   0.958  0.8690 -2.0649 -0.9795
   84MOL0     H11328   5.352  10.822   0.914 -2.6438 -1.0278 -0.9038
   84MOL0     H11329   5.360  10.815   1.092  0.1827  0.2771 -0.1583
   84MOL0     H11330   5.258  10.573   1.070 -1.6555  1.0278  0.7671
   84MOL0     H11331   5.220  10.614   0.908 -0.4326 -0.6540 -0.1186
   84MOL0     H11332   5.153  10.855   1.038 -1.2125 -0.9280 -0.6870
   84MOL0     H11333   5.147  10.728   1.169  2.7151 -0.5055  0.0063
   84MOL0     H11334   4.941  10.643   1.080 -0.2839  1.9555  2.3178
   84MOL0     H11335   4.922  10.809   1.061 -0.6463  1.4691  0.0647
   84MOL0     H11336   4.977  10.704   0.649 -2.6109  1.0355  0.2222
   84MOL0     H11337   5.373  10.710   0.740 -0.7219 -0.2898 -3.8891
   84MOL0     H11338   5.478  10.820   0.483 -0.7358  0.1404 -0.0567
   84MOL0     H11339   5.487  10.660   0.412 -0.7052  0.0935  0.9147
   84MOL0     H11340   5.355  10.695   0.520  0.3355  1.5065  2.5007
   85MOL0     O11341   0.558   1.525  10.045  0.7368  0.0929  0.2737
   85MOL0     C11342   0.631   1.425  10.028 -0.0714  0.3750 -0.5538
   85MOL0     O11343   0.744   1.423   9.951  0.1270  0.4316 -0.2125
   85MOL0     C11344   0.779   1.542   9.892 -0.3867 -0.4441 -0.5993
   85MOL0     C11345   0.802   1.655   9.973 -1.0978 -0.3127 -0.1324
   85MOL0     C11346   0.817   1.780   9.906  0.2120  0.0548 -0.3470
   85MOL0     C11347   0.831   1.783   9.766 -0.0218 -0.3147 -0.7097
   85MOL0     O11348   0.857   1.898   9.688  0.4652 -0.5091 -0.8558
   85MOL0     C11349   0.779   2.016   9.712 -0.1675  0.3924  1.2292
   85MOL0     C11350   0.870   2.112   9.781  1.0760 -0.1704 -1.0429
   85MOL0     C11351   0.803   2.237   9.835  0.0599 -0.3544 -0.4528
   85MOL0     C11352   0.756   2.321   9.721  0.5034 -1.0967  0.8323
   85MOL0     C11353   0.672   2.444   9.772  0.4317 -0.9237 -0.3969
   85MOL0     C11354   0.750   2.527   9.868 -0.0711 -0.0387 -0.1582
   85MOL0     C11355   0.667   2.647   9.901  0.5104 -0.8170  0.9973
   85MOL0     C11356   0.764   2.769   9.932  0.0485  0.5065 -0.0272
   85MOL0     N11357   0.683   2.895   9.942  0.6346  0.6963 -0.5303
   85MOL0     C11358   0.632   2.972   9.836 -0.3074 -0.0813 -0.1243
   85MOL0     C11359   0.553   3.065   9.901 -0.5913  0.5301 -1.5842
   85MOL0     C11360   0.475   3.179   9.832 -0.1733  0.3909 -0.6313
   85MOL0     C11361   0.573   3.259   9.740  0.9695  0.1325 -0.3759
   85MOL0     C11362   0.511   3.400   9.702 -0.2760 -0.1389  0.3918
   85MOL0     C11363   0.589   3.461   9.580  0.6215  0.4066 -0.2503
   85MOL0     O11364   0.717   3.500   9.609  0.2267  0.0872  0.7192
   85MOL0     C11365   0.757   3.592   9.513  0.6748 -0.5655  1.3596
   85MOL0     C11366   0.798   3.554   9.387 -0.7056  0.9043 -0.2988
   85MOL0     C11367   0.860   3.649   9.298  0.7219 -0.4037 -0.8126
   85MOL0     C11368   0.876   3.782   9.342 -0.7222 -0.3484 -0.1578
   85MOL0     C11369   0.941   3.880   9.251  0.3902 -0.3209 -0.3261
   85MOL0     O11370   1.026   3.824   9.168  0.0746  0.0299  0.5427
   85MOL0     C11371   1.077   3.911   9.072  0.3881 -0.3382 -0.4731
   85MOL0     C11372   1.009   3.967   8.969 -0.4933  0.3420  0.6915
   85MOL0     C11373   1.077   4.063   8.884 -0.0063  0.3645 -0.2906
   85MOL0     C11374   1.207   4.096   8.898 -1.2664 -0.4694  0.4823
   85MOL0     O11375   1.258   4.189   8.810  0.3412  0.5221  0.1286
   85MOL0     C11376   1.394   4.218   8.802  0.4085 -0.4886 -0.2502
   85MOL0     C11377   1.406   4.324   8.693 -0.7201  0.4322  0.4259
   85MOL0     C11378   1.537   4.326   8.611 -1.1325 -0.4336  0.1051
   85MOL0     C11379   1.661   4.375   8.700  0.4428  0.1146 -0.6435
   85MOL0     C11380   1.667   4.531   8.715 -0.5122  0.0332 -0.2681
   85MOL0     C11381   1.809   4.567   8.752  0.1306 -0.4661  0.2305
   85MOL0     C11382   1.817   4.717   8.783  0.0770  0.2909 -1.0515
   85MOL0     C11383   1.955   4.755   8.842 -0.3006 -0.5771 -0.0038
   85MOL0    Cl11384   1.962   4.926   8.898 -0.0083 -0.1792  0.0557
   85MOL0     C11385   1.279   4.033   9.002 -0.4191 -0.9056  1.0395
   85MOL0     C11386   1.216   3.942   9.081  1.3490  0.7550  0.3680
   85MOL0     O11387   0.933   4.002   9.268  0.7589  0.6006 -0.8080
   85MOL0     C11388   0.828   3.815   9.470 -0.0308 -1.0667  0.5705
   85MOL0     C11389   0.781   3.721   9.555  0.9041 -0.3975 -0.3834
   85MOL0     N11390   0.554   3.038  10.041 -0.1190 -0.8440  0.0327
   85MOL0     N11391   0.640   2.952  10.061 -0.0269  0.9941  0.3748
   85MOL0     C11392   0.819   1.670   9.693  0.3023  0.3628  0.7201
   85MOL0     C11393   0.793   1.551   9.751 -0.6949 -0.9990  0.1285
   85MOL0     C11394   0.590   1.300  10.107  0.9096 -0.1961  0.5484
   85MOL0     C11395   0.697   1.208  10.124 -0.1254  0.2828 -0.7252
   85MOL0     C11396   0.688   1.106  10.218  1.0800  0.8837 -0.4416
   85MOL0     C11397   0.565   1.094  10.294 -0.9287  0.4724  0.2245
   85MOL0     O11398   0.543   0.994  10.394  0.2921 -0.5661 -0.2957
   85MOL0     C11399   0.639   0.902  10.451 -0.2904  0.7245 -0.8568
   85MOL0     C11400   0.556   0.790  10.511 -0.1891  0.4782 -0.1547
   85MOL0     C11401   0.429   0.827  10.583 -0.3181  0.1809 -0.3326
   85MOL0     C11402   0.452   0.926  10.708 -0.7439  0.2297 -0.8318
   85MOL0     C11403   0.337   0.926  10.792  0.5990  1.0596 -0.5367
   85MOL0     C11404   0.240   0.900  10.853  0.0207 -0.3986  0.8120
   85MOL0     C11405   0.464   1.184  10.271  0.2276  0.5646 -0.0152
   85MOL0     C11406   0.464   1.289  10.176  0.0967  0.3867  0.1901
   85MOL0     C11407   0.340   1.372  10.146 -0.4664 -0.4766  0.8442
   85MOL0     H11408   0.790   1.653  10.081 -0.1045  1.7462  0.0650
   85MOL0     H11409   0.835   1.873   9.959 -0.1494 -0.1621  0.1628
   85MOL0     H11410   0.761   2.061   9.614  0.7013 -2.9684 -0.6081
   85MOL0     H11411   0.688   1.988   9.767 -0.3577  0.6052  1.0275
   85MOL0     H11412   0.954   2.138   9.717  0.8219  0.6860 -1.0444
   85MOL0     H11413   0.917   2.059   9.864  1.6201  0.1271 -1.1568
   85MOL0     H11414   0.880   2.300   9.881  3.3254 -2.8821 -1.9965
   85MOL0     H11415   0.724   2.203   9.903  0.2045 -0.6539 -0.4363
   85MOL0     H11416   0.849   2.356   9.676 -0.5744  0.4665 -0.2668
   85MOL0     H11417   0.714   2.270   9.634  2.4433 -1.5903  0.1517
   85MOL0     H11418   0.665   2.511   9.685  1.6932  3.0453  2.2884
   85MOL0     H11419   0.573   2.412   9.804  0.9521 -0.3626  1.9901
   85MOL0     H11420   0.744   2.466   9.959 -1.7999  1.1394  0.5700
   85MOL0     H11421   0.854   2.545   9.838  0.0378  0.9580  0.7539
   85MOL0     H11422   0.594   2.619   9.977 -1.3890 -1.1774 -0.8594
   85MOL0     H11423   0.613   2.675   9.810 -1.2744 -1.0598  1.9305
   85MOL0     H11424   0.812   2.734  10.024 -1.2933 -1.5051 -0.0104
   85MOL0     H11425   0.836   2.772   9.850 -1.4187  2.1878 -1.3199
   85MOL0     H11426   0.632   2.957   9.729 -2.2304  1.6232 -0.4119
   85MOL0     H11427   0.387   3.130   9.789 -0.7655 -1.7383  2.6400
   85MOL0     H11428   0.441   3.252   9.906 -3.0814  1.3682 -2.7597
   85MOL0     H11429   0.665   3.280   9.795 -0.0422 -2.5179  2.6801
   85MOL0     H11430   0.594   3.194   9.655  1.4517 -3.4064  2.1890
   85MOL0     H11431   0.510   3.472   9.784  1.5617  0.8206 -0.3706
   85MOL0     H11432   0.405   3.398   9.674  0.6024 -0.3946 -3.4293
   85MOL0     H11433   0.540   3.555   9.553  1.2256  1.1772  1.2031
   85MOL0     H11434   0.593   3.398   9.491  1.1734  1.3979 -0.9437
   85MOL0     H11435   0.800   3.455   9.342 -1.4853  0.9637 -0.4851
   85MOL0     H11436   0.891   3.616   9.199 -1.9448  1.4567 -2.4232
   85MOL0     H11437   0.902   3.964   8.954 -0.2896 -0.1597 -0.8504
   85MOL0     H11438   1.024   4.107   8.800 -0.2045  1.6632  0.4954
   85MOL0     H11439   1.424   4.258   8.900 -3.6336  1.6686  0.3119
   85MOL0     H11440   1.455   4.132   8.771  1.2484  0.6339 -1.8424
   85MOL0     H11441   1.345   4.298   8.606 -0.9652  2.2410  0.0233
   85MOL0     H11442   1.398   4.426   8.731 -4.1325  0.2050  0.5506
   85MOL0     H11443   1.548   4.228   8.564  1.1988  0.0384 -0.4920
   85MOL0     H11444   1.530   4.403   8.533 -0.1967 -1.4070 -0.9856
   85MOL0     H11445   1.744   4.341   8.636  0.9480  0.1814 -0.0310
   85MOL0     H11446   1.670   4.328   8.798  1.5084 -0.2631 -0.9053
   85MOL0     H11447   1.597   4.572   8.789  1.1076  3.6554 -0.4991
   85MOL0     H11448   1.647   4.595   8.629  0.3321  0.4917 -0.1325
   85MOL0     H11449   1.834   4.509   8.841  2.2036 -0.8725 -0.5532
   85MOL0     H11450   1.887   4.536   8.682 -1.8771 -3.3955 -0.9046
   85MOL0     H11451   1.746   4.729   8.865  0.7552  0.3793 -0.4700
   85MOL0     H11452   1.790   4.788   8.704  1.7811  5.2354  2.3459
   85MOL0     H11453   1.990   4.683   8.917  1.7941 -3.5788 -3.5632
   85MOL0     H11454   2.029   4.742   8.763  0.4578  1.1660  0.3663
   85MOL0     H11455   1.382   4.066   9.012  0.3122 -2.7941  0.1912
   85MOL0     H11456   1.270   3.889   9.159 -3.5965 -1.2713  2.8129
   85MOL0     H11457   0.824   3.919   9.500  1.1465 -0.8274 -0.0308
   85MOL0     H11458   0.778   3.747   9.660  0.6920 -0.9485 -0.2502
   85MOL0     H11459   0.840   1.667   9.587  0.9588  2.4201  0.7460
   85MOL0     H11460   0.773   1.460   9.696  0.1469 -1.0062 -0.1617
   85MOL0     H11461   0.782   1.213  10.056 -1.7181  1.9137 -2.7359
   85MOL0     H11462   0.757   1.023  10.232 -0.0281 -0.2727 -1.5295
   85MOL0     H11463   0.706   0.959  10.516 -1.6379 -0.9946  2.2573
   85MOL0     H11464   0.693   0.860  10.365 -1.0785 -0.1534 -0.9329
   85MOL0     H11465   0.614   0.731  10.583 -0.8027  1.0725  0.8648
   85MOL0     H11466   0.521   0.715  10.440 -5.6045  2.1865  0.2108
   85MOL0     H11467   0.378   0.742  10.628 -2.2197  0.6833 -1.4406
   85MOL0     H11468   0.358   0.882  10.521  0.4615 -0.2570 -1.6480
   85MOL0     H11469   0.522   0.882  10.780 -2.9327  1.1103  2.0601
   85MOL0     H11470   0.476   1.027  10.673  2.5998 -0.3103 -0.5005
   85MOL0     H11471   0.165   0.849  10.910 -0.2455 -0.9388  0.0031
   85MOL0     H11472   0.367   1.169  10.315  0.9549 -1.6864  0.9443
   85MOL0     H11473   0.344   1.457  10.214  0.3446  0.6134 -0.5156
   85MOL0     H11474   0.327   1.399  10.040 -1.8539 -3.3061  0.1787
   85MOL0     H11475   0.245   1.328  10.177 -2.6625  2.0258 -1.7422
   86MOL0     O11476  10.076  10.014   5.586 -0.1010 -0.2300  0.2016
   86MOL0     C11477  10.108  10.059   5.476 -0.2488 -0.3336  0.3897
   86MOL0     O11478  10.076  10.186   5.433 -0.0012 -0.5552  0.0442
   86MOL0     C11479   9.983  10.257   5.508  0.1961 -0.8299 -1.0803
   86MOL0     C11480   9.856  10.213   5.551 -0.5513  0.1453 -0.1221
   86MOL0     C11481   9.771  10.297   5.611  1.0861  0.5940 -0.5558
   86MOL0     C11482   9.798  10.432   5.642 -0.8545 -0.5291 -0.2901
   86MOL0     O11483   9.710  10.522   5.704  0.3107 -0.0439 -1.0829
   86MOL0     C11484   9.659  10.625   5.621 -0.0628  0.0316 -1.4636
   86MOL0     C11485   9.532  10.688   5.684  0.4535 -1.1442  0.4531
   86MOL0     C11486   9.400  10.605   5.667  0.1945  0.6760  0.0232
   86MOL0     C11487   9.424  10.453   5.696  0.1457  0.4915 -0.4157
   86MOL0     C11488   9.321  10.351   5.669 -0.7603 -0.5532 -0.1332
   86MOL0     C11489   9.177  10.411   5.679 -0.1687 -0.4821  0.5255
   86MOL0     C11490   9.077  10.307   5.712 -0.5963 -0.0232  0.6267
   86MOL0     C11491   8.929  10.354   5.712  0.0162  1.5410  0.7453
   86MOL0     N11492   8.820  10.258   5.729 -0.2096  0.1473  0.3984
   86MOL0     C11493   8.830  10.127   5.745 -0.6017 -0.3003  0.0923
   86MOL0     C11494   8.704  10.086   5.760 -0.0898 -0.5510  0.2053
   86MOL0     C11495   8.675   9.940   5.785  0.0419 -0.3411 -0.4775
   86MOL0     C11496   8.676   9.876   5.651 -0.1159  0.2627  0.3210
   86MOL0     C11497   8.616   9.739   5.658  0.1162  0.1352 -0.6569
   86MOL0     C11498   8.642   9.656   5.535 -0.2872 -0.9261  0.7274
   86MOL0     O11499   8.581   9.717   5.422  0.3039  0.3925  0.1018
   86MOL0     C11500   8.643   9.789   5.321 -0.2735  0.2947  0.5797
   86MOL0     C11501   8.774   9.831   5.317 -0.4321  0.5513 -0.2276
   86MOL0     C11502   8.830   9.903   5.214 -0.2521  0.0350  0.5870
   86MOL0     C11503   8.758   9.898   5.087 -0.0199 -1.6359 -0.1434
   86MOL0     C11504   8.823   9.946   4.966  0.2199 -0.3893 -0.0726
   86MOL0     O11505   8.961   9.922   4.957 -0.1922  0.5049  0.1571
   86MOL0     C11506   9.035   9.954   4.848 -0.0622  0.2148 -0.6134
   86MOL0     C11507   9.008   9.904   4.715 -0.5321 -0.6028 -0.3791
   86MOL0     C11508   9.104   9.929   4.613  0.1641  0.4249 -0.1998
   86MOL0     C11509   9.226   9.970   4.641 -0.9862  0.5425  0.2088
   86MOL0     O11510   9.318   9.979   4.537 -0.4119  0.4257  0.0897
   86MOL0     C11511   9.436   9.893   4.541 -0.2173  0.2026 -1.0275
   86MOL0     C11512   9.562   9.971   4.524 -0.3053 -0.5745 -0.1383
   86MOL0     C11513   9.694   9.903   4.509 -0.5112 -0.1720  0.1156
   86MOL0     C11514   9.799   9.997   4.455 -0.7566 -0.5086 -0.5061
   86MOL0     C11515   9.908   9.911   4.401 -1.3357 -0.0302  0.4316
   86MOL0     C11516  10.044   9.978   4.358 -0.1376 -0.4385 -0.5367
   86MOL0     C11517  10.102  10.048   4.476  0.5852  1.0905 -0.1518
   86MOL0     C11518  10.246  10.073   4.463 -0.1902  0.4989  0.0819
   86MOL0    Cl11519  10.279  10.213   4.579 -0.1696 -0.1889 -0.0823
   86MOL0     C11520   9.266  10.012   4.775 -0.2948  0.2583 -0.4103
   86MOL0     C11521   9.165  10.011   4.875 -0.4650  0.2067 -0.3586
   86MOL0     O11522   8.746   9.982   4.871 -0.7336 -0.0188  0.2522
   86MOL0     C11523   8.621   9.862   5.091 -0.3834 -0.1107 -0.3259
   86MOL0     C11524   8.568   9.801   5.203  0.7139 -0.2492 -0.5296
   86MOL0     N11525   8.619  10.189   5.754  1.1132 -0.3061 -1.0344
   86MOL0     N11526   8.687  10.292   5.737 -0.0768 -0.1925  0.2563
   86MOL0     C11527   9.917  10.476   5.592  0.0551 -0.2056  0.0559
   86MOL0     C11528  10.010  10.394   5.527 -0.8080  0.4839 -0.2257
   86MOL0     C11529  10.165   9.955   5.386 -0.8222 -0.3403  0.9313
   86MOL0     C11530  10.122   9.822   5.394 -0.0141  0.5649 -0.4121
   86MOL0     C11531  10.177   9.726   5.308 -0.4734 -0.0742  0.6068
   86MOL0     C11532  10.265   9.759   5.203 -0.5556  0.0142  0.0325
   86MOL0     O11533  10.297   9.653   5.111 -0.0243  0.1784 -0.5721
   86MOL0     C11534  10.384   9.677   5.000  0.5924  0.1858 -0.6578
   86MOL0     C11535  10.302   9.726   4.882  0.6930  0.3891  0.1308
   86MOL0     C11536  10.203   9.621   4.827  0.2583 -0.8550  0.2841
   86MOL0     C11537  10.081   9.683   4.752  0.0701  0.1361 -0.1544
   86MOL0     C11538  10.039   9.588   4.651  0.9480 -0.0230  0.0725
   86MOL0     C11539   9.988   9.521   4.567  0.9323 -0.5328  0.0598
   86MOL0     C11540  10.295   9.897   5.189  0.4042 -0.0807 -0.7868
   86MOL0     C11541  10.249   9.990   5.278 -1.3726  0.2594 -0.7882
   86MOL0     C11542  10.303  10.131   5.252 -0.1065 -0.4985 -0.3193
   86MOL0     H11543   9.836  10.106   5.560  1.2958 -0.0803  2.6540
   86MOL0     H11544   9.676  10.259   5.646  1.5256 -0.9337 -0.9551
   86MOL0     H11545   9.737  10.700   5.605 -0.6590  0.9019 -0.4685
   86MOL0     H11546   9.625  10.593   5.523 -2.4257 -0.6626 -0.4898
   86MOL0     H11547   9.523  10.780   5.625 -0.4933 -2.0868 -0.9182
   86MOL0     H11548   9.547  10.717   5.789 -2.2378  0.5598  0.4680
   86MOL0     H11549   9.354  10.625   5.570 -0.7162  4.9967  1.1398
   86MOL0     H11550   9.322  10.639   5.735 -1.9569 -0.3676 -1.8089
   86MOL0     H11551   9.510  10.418   5.639  0.2173 -1.9701  1.0520
   86MOL0     H11552   9.448  10.461   5.802  0.5144  1.8856 -0.5950
   86MOL0     H11553   9.334  10.299   5.573  0.5179  0.0536 -0.3102
   86MOL0     H11554   9.335  10.286   5.756 -1.0701  0.0997  0.4046
   86MOL0     H11555   9.153  10.481   5.759 -2.6373  0.0321 -0.5840
   86MOL0     H11556   9.149  10.459   5.584  2.2644  1.4241  0.6539
   86MOL0     H11557   9.104  10.255   5.804 -1.5606 -0.6868  0.5381
   86MOL0     H11558   9.088  10.231   5.634 -0.3607  1.7359 -1.1484
   86MOL0     H11559   8.913  10.443   5.774 -1.4402  1.7872  0.0685
   86MOL0     H11560   8.911  10.391   5.611 -1.1845 -2.3880 -0.6674
   86MOL0     H11561   8.914  10.059   5.748 -2.1020 -2.2247  2.0202
   86MOL0     H11562   8.751   9.889   5.845  0.5112 -0.9338 -1.5557
   86MOL0     H11563   8.577   9.926   5.831  0.4324  0.2384  0.5633
   86MOL0     H11564   8.619   9.932   5.577 -2.3131 -1.5586  0.5206
   86MOL0     H11565   8.782   9.879   5.624 -0.3488  0.6475 -0.5785
   86MOL0     H11566   8.508   9.744   5.670 -0.3507  2.9292 -4.3998
   86MOL0     H11567   8.657   9.685   5.744  2.7826  1.2721 -1.0973
   86MOL0     H11568   8.603   9.557   5.559 -1.0399 -0.2167  2.6810
   86MOL0     H11569   8.751   9.645   5.526  0.0390  1.3193  1.2235
   86MOL0     H11570   8.833   9.806   5.405 -2.5448 -0.1857  1.0529
   86MOL0     H11571   8.934   9.935   5.216  0.4866 -2.1502  2.6331
   86MOL0     H11572   8.912   9.867   4.681 -0.4793 -0.3302 -0.8406
   86MOL0     H11573   9.091   9.911   4.507 -1.8264 -0.8394  0.2177
   86MOL0     H11574   9.431   9.833   4.633 -2.1300  1.7971 -0.0141
   86MOL0     H11575   9.433   9.827   4.454  2.6671 -0.0726 -0.9894
   86MOL0     H11576   9.547  10.030   4.433  0.1696  2.0733  1.3925
   86MOL0     H11577   9.569  10.041   4.608  0.8249  0.7689 -1.3055
   86MOL0     H11578   9.715   9.862   4.609 -0.6379  1.3775  0.8141
   86MOL0     H11579   9.682   9.824   4.435  0.1041  0.0997 -0.2802
   86MOL0     H11580   9.836  10.056   4.539 -3.1264 -0.5305  0.6277
   86MOL0     H11581   9.758  10.065   4.380 -0.8090  0.2752  0.2208
   86MOL0     H11582   9.867   9.876   4.306 -1.1746  1.5617 -0.2495
   86MOL0     H11583   9.933   9.825   4.464 -0.6766 -1.9068 -2.2156
   86MOL0     H11584  10.117   9.900   4.335 -1.5077 -2.0357  0.1900
   86MOL0     H11585  10.031  10.048   4.276 -0.3961  0.6684  0.4269
   86MOL0     H11586  10.083   9.978   4.557  0.8208 -1.5792 -2.2635
   86MOL0     H11587  10.046  10.142   4.482 -2.4070 -0.5974  0.3663
   86MOL0     H11588  10.300   9.984   4.498  0.8343  1.6539  1.5777
   86MOL0     H11589  10.282  10.100   4.363 -1.6443 -0.7313 -0.8154
   86MOL0     H11590   9.368  10.034   4.807 -0.3137  2.2298 -1.5610
   86MOL0     H11591   9.185  10.054   4.972  2.3203 -0.4851 -0.5501
   86MOL0     H11592   8.546   9.865   5.012 -1.6676 -2.7902  0.6802
   86MOL0     H11593   8.470   9.754   5.199  0.9722 -0.9539  0.7448
   86MOL0     H11594   9.929  10.584   5.583  2.0007 -0.3765  0.0846
   86MOL0     H11595  10.102  10.439   5.491  0.1845 -1.0175  0.3582
   86MOL0     H11596  10.058   9.789   5.475 -2.1841  1.6880 -1.5554
   86MOL0     H11597  10.135   9.627   5.325 -1.2758 -0.2188 -1.8233
   86MOL0     H11598  10.420   9.580   4.964 -0.8202 -1.2357  1.4923
   86MOL0     H11599  10.465   9.748   5.018  2.3344 -1.5524 -1.1899
   86MOL0     H11600  10.372   9.758   4.804 -1.4178  0.5736 -1.7676
   86MOL0     H11601  10.250   9.819   4.907 -0.2047  1.4311 -4.6732
   86MOL0     H11602  10.160   9.553   4.902 -2.3345  0.7108  0.3674
   86MOL0     H11603  10.249   9.556   4.753 -1.9221 -0.3663 -1.6062
   86MOL0     H11604   9.996   9.713   4.815 -0.0050  0.8732 -0.6015
   86MOL0     H11605  10.123   9.767   4.696 -0.2052 -0.4176 -1.1976
   86MOL0     H11606   9.936   9.455   4.501 -1.1851 -0.0516  1.1533
   86MOL0     H11607  10.346   9.937   5.102  1.0871  0.2388 -0.2464
   86MOL0     H11608  10.226  10.201   5.219  0.0014  0.5121  1.4760
   86MOL0     H11609  10.348  10.177   5.340  1.7200  1.6013 -2.2137
   86MOL0     H11610  10.385  10.129   5.180 -2.1665  1.3931 -2.9340
   87MOL0     O11611  11.443  10.602   7.368  0.4634  0.1945  0.8427
   87MOL0     C11612  11.450  10.584   7.487 -0.9119  0.2899  0.0037
   87MOL0     O11613  11.548  10.508   7.548 -0.4495  0.2303  0.0821
   87MOL0     C11614  11.661  10.461   7.485  0.1481 -0.3697 -0.0801
   87MOL0     C11615  11.789  10.505   7.512 -0.0721 -0.5856 -0.4131
   87MOL0     C11616  11.897  10.442   7.449 -0.0924  0.7146  0.4761
   87MOL0     C11617  11.872  10.336   7.354  1.3032  0.6422 -0.3975
   87MOL0     O11618  11.972  10.280   7.277  0.6701  0.1891  0.7318
   87MOL0     C11619  12.088  10.235   7.338  0.5410  0.5401 -0.3139
   87MOL0     C11620  12.150  10.126   7.254 -0.8894  0.4942  0.4753
   87MOL0     C11621  12.291  10.085   7.305  0.2788  0.0334  0.8656
   87MOL0     C11622  12.391  10.180   7.236 -0.5789 -0.9291 -0.8092
   87MOL0     C11623  12.530  10.149   7.287 -0.7560  0.0764  0.0262
   87MOL0     C11624  12.641  10.236   7.227  0.0525  0.5026  0.2019
   87MOL0     C11625  12.774  10.156   7.257  0.2223 -0.3933  0.3002
   87MOL0     C11626  12.871  10.242   7.171  0.1146 -0.0108  0.0848
   87MOL0     N11627  13.004  10.194   7.203 -0.3724  0.0924  0.2190
   87MOL0     C11628  13.081  10.223   7.321 -0.2337 -1.0527  0.9441
   87MOL0     C11629  13.202  10.166   7.290 -0.3321 -0.6697  0.4496
   87MOL0     C11630  13.327  10.157   7.365 -0.4028  0.2270  0.8927
   87MOL0     C11631  13.301  10.091   7.504  0.8342 -0.6620 -0.2318
   87MOL0     C11632  13.285   9.944   7.478 -0.4889 -0.1867 -0.6204
   87MOL0     C11633  13.298   9.871   7.617 -0.1747 -0.0951  0.4336
   87MOL0     O11634  13.290   9.729   7.590 -0.5571  0.9385  0.3855
   87MOL0     C11635  13.401   9.681   7.519  0.2598  0.3317 -0.3042
   87MOL0     C11636  13.525   9.738   7.522 -0.5742 -1.1088  0.9891
   87MOL0     C11637  13.632   9.690   7.452 -0.9799  0.4588  0.1198
   87MOL0     C11638  13.628   9.572   7.388  0.2825  0.4548 -0.1897
   87MOL0     C11639  13.749   9.510   7.315  1.2176 -0.9123  1.7610
   87MOL0     O11640  13.768   9.383   7.323 -0.6247 -0.0514  0.3976
   87MOL0     C11641  13.888   9.344   7.268  0.3908  0.5170  0.1737
   87MOL0     C11642  13.886   9.264   7.159  0.0864 -1.0649  0.1936
   87MOL0     C11643  13.999   9.221   7.088 -0.2507 -0.0913 -0.2259
   87MOL0     C11644  14.123   9.234   7.150  0.0821 -0.1003 -0.5053
   87MOL0     O11645  14.233   9.163   7.115  0.7307 -0.1215 -1.3194
   87MOL0     C11646  14.225   9.019   7.111 -1.3371 -0.7501 -0.1797
   87MOL0     C11647  14.249   8.978   6.971  0.0072 -0.3979 -0.4726
   87MOL0     C11648  14.261   8.829   6.949 -0.3824  0.5867 -0.4193
   87MOL0     C11649  14.349   8.783   6.836 -0.5819  0.1818 -0.1109
   87MOL0     C11650  14.359   8.623   6.841  0.2832  0.3374  0.3951
   87MOL0     C11651  14.443   8.572   6.732 -0.1239  0.1775 -0.2723
   87MOL0     C11652  14.472   8.427   6.768 -0.2422  1.0192  0.1491
   87MOL0     C11653  14.529   8.354   6.643  0.0860 -0.8150  0.0374
   87MOL0    Cl11654  14.620   8.456   6.538 -0.1116  0.2241 -0.5114
   87MOL0     C11655  14.133   9.318   7.268 -0.4229 -0.0901  0.1538
   87MOL0     C11656  14.012   9.361   7.333 -0.6807 -0.2575  0.9931
   87MOL0     O11657  13.810   9.593   7.246  0.2312  0.0179 -0.4879
   87MOL0     C11658  13.510   9.492   7.396  0.4376  0.1715 -0.3090
   87MOL0     C11659  13.399   9.546   7.464 -0.0312 -0.2294  0.1055
   87MOL0     N11660  13.195  10.107   7.166 -0.6531  0.0875  0.2206
   87MOL0     N11661  13.080  10.126   7.118 -0.1997  0.3206  0.5787
   87MOL0     C11662  11.736  10.303   7.324 -0.5736  0.7702  0.9368
   87MOL0     C11663  11.632  10.359   7.401  0.2563 -0.5561  0.3516
   87MOL0     C11664  11.326  10.615   7.557  0.2476 -0.0159 -0.6272
   87MOL0     C11665  11.292  10.522   7.659 -0.1746 -1.0887 -0.7997
   87MOL0     C11666  11.186  10.552   7.739  0.2705 -0.9093 -0.3464
   87MOL0     C11667  11.113  10.674   7.722 -0.3066  0.3384 -0.1739
   87MOL0     O11668  11.007  10.694   7.798 -0.6635 -0.0463 -0.2712
   87MOL0     C11669  10.981  10.827   7.844  0.0260  0.2370  0.3251
   87MOL0     C11670  11.102  10.877   7.919 -0.3612 -0.0797 -0.4258
   87MOL0     C11671  11.075  10.992   8.010  0.0464  0.8726 -0.0722
   87MOL0     C11672  11.171  11.008   8.125  0.3642  1.0154  0.1915
   87MOL0     C11673  11.155  10.897   8.213 -0.6380 -0.6256 -0.1241
   87MOL0     C11674  11.131  10.806   8.298  0.9158  0.3898  0.8788
   87MOL0     C11675  11.149  10.758   7.613 -0.0308  0.0206 -0.1739
   87MOL0     C11676  11.251  10.727   7.527 -0.6216 -0.1498 -1.0286
   87MOL0     C11677  11.287  10.817   7.409 -0.2044 -0.5733  0.1632
   87MOL0     H11678  11.812  10.587   7.579  3.4785 -1.4925 -0.3005
   87MOL0     H11679  11.996  10.477   7.475  0.1641  0.2807  0.0805
   87MOL0     H11680  12.159  10.316   7.357  0.5816  0.4571 -0.1056
   87MOL0     H11681  12.069  10.177   7.429 -0.8348  0.1592 -0.8152
   87MOL0     H11682  12.154  10.160   7.150 -1.1089 -4.1044 -1.2586
   87MOL0     H11683  12.092  10.034   7.255  0.7868 -0.6276 -1.0648
   87MOL0     H11684  12.299   9.983   7.264  3.9046  0.6266 -0.2944
   87MOL0     H11685  12.291  10.082   7.414 -0.0063  1.9836  0.9560
   87MOL0     H11686  12.382  10.174   7.128  0.3417  0.6988 -1.0119
   87MOL0     H11687  12.366  10.282   7.266 -0.1706 -0.2507 -2.6980
   87MOL0     H11688  12.544  10.167   7.394  1.3160 -1.6828  0.1121
   87MOL0     H11689  12.548  10.042   7.272 -1.6367  0.2291 -2.7890
   87MOL0     H11690  12.605  10.252   7.125 -2.6102  0.8876  1.1350
   87MOL0     H11691  12.641  10.334   7.277 -3.5109  1.6902 -1.7856
   87MOL0     H11692  12.777  10.052   7.222  3.9371 -0.8425  1.5579
   87MOL0     H11693  12.791  10.152   7.365 -1.2160  1.2821  0.6443
   87MOL0     H11694  12.848  10.228   7.065 -1.1757 -0.6977  0.4206
   87MOL0     H11695  12.864  10.349   7.188  0.4465  0.0665 -0.2549
   87MOL0     H11696  13.075  10.249   7.426 -1.6350 -0.8309  0.8285
   87MOL0     H11697  13.415  10.111   7.320 -0.5642  0.5300  0.2598
   87MOL0     H11698  13.353  10.261   7.389  1.2574  0.6052 -2.0408
   87MOL0     H11699  13.390  10.114   7.563  0.4251  0.9168 -0.1875
   87MOL0     H11700  13.217  10.129   7.562  0.6383  2.8544 -2.5643
   87MOL0     H11701  13.357   9.902   7.407 -2.1090  0.7262 -2.9558
   87MOL0     H11702  13.193   9.928   7.421 -0.7047  1.6866 -0.8661
   87MOL0     H11703  13.218   9.900   7.685 -1.6619  0.0392 -1.2778
   87MOL0     H11704  13.389   9.896   7.671 -0.4386 -1.4818  1.5654
   87MOL0     H11705  13.543   9.831   7.577  0.3200 -1.5070  1.3985
   87MOL0     H11706  13.724   9.747   7.444  0.9076 -1.6220  4.2717
   87MOL0     H11707  13.791   9.234   7.115 -1.5868  3.2944  0.3449
   87MOL0     H11708  13.983   9.150   7.007 -0.8268 -0.3603  0.1177
   87MOL0     H11709  14.306   8.974   7.170  1.0177 -0.2746 -2.7966
   87MOL0     H11710  14.132   8.977   7.150 -2.8156  0.3946 -2.2784
   87MOL0     H11711  14.169   9.017   6.908  0.0987 -1.9464 -1.5996
   87MOL0     H11712  14.341   9.032   6.949 -0.5874  1.8196  1.9545
   87MOL0     H11713  14.293   8.780   7.042  0.1771  2.6107  0.5219
   87MOL0     H11714  14.164   8.783   6.930  0.3564 -2.3450  2.0208
   87MOL0     H11715  14.449   8.822   6.858 -0.0605  0.3665 -2.5172
   87MOL0     H11716  14.306   8.824   6.744  0.3216  1.4025 -0.0172
   87MOL0     H11717  14.266   8.566   6.837  0.5332 -0.0298 -1.6203
   87MOL0     H11718  14.401   8.595   6.938 -0.3824 -4.0801 -0.3460
   87MOL0     H11719  14.389   8.566   6.636  1.3148 -1.3714 -1.0280
   87MOL0     H11720  14.530   8.637   6.721 -1.2532  1.5469 -1.8828
   87MOL0     H11721  14.380   8.372   6.791 -1.2811  1.2485 -3.0283
   87MOL0     H11722  14.543   8.431   6.852  1.8146 -1.7874 -1.2924
   87MOL0     H11723  14.591   8.270   6.679 -1.3036  0.0798  5.4004
   87MOL0     H11724  14.448   8.324   6.577  0.7761  0.2076 -1.3061
   87MOL0     H11725  14.227   9.334   7.320 -0.2224  3.7919 -1.0470
   87MOL0     H11726  14.017   9.409   7.430  1.9019  1.1034  0.2902
   87MOL0     H11727  13.511   9.392   7.354  0.6129  0.5854 -1.3163
   87MOL0     H11728  13.304   9.494   7.464 -1.6544  2.1906 -4.1571
   87MOL0     H11729  11.736  10.236   7.239  0.9432  1.0080  0.7151
   87MOL0     H11730  11.533  10.324   7.374 -0.0978 -1.0499  2.1646
   87MOL0     H11731  11.350  10.434   7.686 -0.9464 -0.9551  1.5096
   87MOL0     H11732  11.164  10.488   7.824 -0.3653  0.2522  0.3916
   87MOL0     H11733  10.887  10.837   7.898 -1.8237  1.0165 -2.8494
   87MOL0     H11734  10.965  10.887   7.754 -2.3013  2.0046  1.8026
   87MOL0     H11735  11.172  10.916   7.845  0.8284 -2.2885 -0.5515
   87MOL0     H11736  11.154  10.789   7.959  1.2512  0.7204 -0.6803
   87MOL0     H11737  10.976  10.993   8.055  1.1283  0.4497  2.5325
   87MOL0     H11738  11.082  11.076   7.941  0.0192 -0.4426 -1.7469
   87MOL0     H11739  11.274  11.022   8.092 -0.7972  4.2795 -2.7660
   87MOL0     H11740  11.135  11.091   8.186  0.8614  1.1230  0.3413
   87MOL0     H11741  11.111  10.746   8.385  3.3765 -3.0272 -0.6713
   87MOL0     H11742  11.088  10.847   7.610 -1.1027 -0.4260  3.5182
   87MOL0     H11743  11.229  10.909   7.425  0.0057 -0.4341  0.1288
   87MOL0     H11744  11.392  10.842   7.390 -1.0410  1.1127 -3.0992
   87MOL0     H11745  11.247  10.777   7.316 -0.2655  3.8187 -1.9871
   88MOL0     O11746   5.028   2.309   6.161  0.6490 -0.0140 -0.5793
   88MOL0     C11747   4.938   2.354   6.096  0.5245 -0.2576  0.9935
   88MOL0     O11748   4.950   2.405   5.971  0.3057 -0.0386 -0.4444
   88MOL0     C11749   5.074   2.393   5.916  0.4299 -0.0791  0.9535
   88MOL0     C11750   5.139   2.509   5.872  0.1987  0.1352  0.0386
   88MOL0     C11751   5.246   2.501   5.780  0.2028  0.4783  0.4196
   88MOL0     C11752   5.301   2.381   5.733  0.0251 -0.5572  0.3709
   88MOL0     O11753   5.406   2.377   5.648  0.7053  0.4523 -0.2457
   88MOL0     C11754   5.444   2.257   5.589  0.5184 -0.2745 -0.3676
   88MOL0     C11755   5.347   2.202   5.474  0.6785 -0.1107 -0.5711
   88MOL0     C11756   5.414   2.087   5.405  0.2388 -0.1967 -1.2210
   88MOL0     C11757   5.315   2.027   5.308 -0.5170 -0.9418  0.2629
   88MOL0     C11758   5.296   2.100   5.169 -0.3305  0.3890 -0.2380
   88MOL0     C11759   5.365   2.019   5.057 -0.3871 -0.0416  0.5839
   88MOL0     C11760   5.364   2.095   4.920 -0.2946  1.2894 -0.5640
   88MOL0     C11761   5.503   2.168   4.901 -0.5356 -0.1125  0.5218
   88MOL0     N11762   5.504   2.272   4.795 -0.7845  0.4499 -0.0218
   88MOL0     C11763   5.474   2.405   4.800  0.7255 -0.9246 -0.5245
   88MOL0     C11764   5.518   2.462   4.681 -0.0849  0.7493  0.1875
   88MOL0     C11765   5.536   2.614   4.658 -0.1568  0.4816  1.0683
   88MOL0     C11766   5.484   2.642   4.511  0.1243  0.6287  0.0423
   88MOL0     C11767   5.479   2.786   4.454  0.9610  1.1461  0.3088
   88MOL0     C11768   5.617   2.842   4.451  0.2096 -0.4036  0.1927
   88MOL0     O11769   5.625   2.948   4.347 -0.1716 -0.3716 -0.2649
   88MOL0     C11770   5.734   3.024   4.343  0.8499  0.1626  0.9166
   88MOL0     C11771   5.740   3.118   4.236  0.1860  0.4567  0.2724
   88MOL0     C11772   5.854   3.203   4.234  0.7669 -0.2636 -0.8510
   88MOL0     C11773   5.950   3.210   4.340 -0.0840  0.2984 -0.0450
   88MOL0     C11774   6.062   3.304   4.334 -0.8154  0.9580 -0.2215
   88MOL0     O11775   6.045   3.427   4.270  0.2158  0.0399 -0.1081
   88MOL0     C11776   6.147   3.503   4.218 -0.0486 -0.3514 -0.6826
   88MOL0     C11777   6.136   3.642   4.226 -0.6588  0.3435 -0.2913
   88MOL0     C11778   6.239   3.730   4.233  0.9377 -0.9056 -0.3359
   88MOL0     C11779   6.367   3.687   4.217  0.4293  0.7395 -0.7853
   88MOL0     O11780   6.471   3.781   4.231 -0.2633  0.6702 -0.4037
   88MOL0     C11781   6.582   3.772   4.136  0.1309  1.2620 -0.4938
   88MOL0     C11782   6.556   3.874   4.024  0.0991  0.0632  0.7679
   88MOL0     C11783   6.672   3.903   3.923 -0.9396 -0.2452 -0.6446
   88MOL0     C11784   6.617   3.959   3.785  0.0839 -0.6890  0.4781
   88MOL0     C11785   6.725   3.934   3.678 -0.0971  0.1894 -0.8224
   88MOL0     C11786   6.671   3.977   3.539  0.0831  0.3576 -0.1918
   88MOL0     C11787   6.782   3.934   3.430  0.4992  1.1432  0.3411
   88MOL0     C11788   6.756   3.807   3.345 -0.1888  0.0924  0.0185
   88MOL0    Cl11789   6.614   3.847   3.237  0.2666 -0.5716  0.4357
   88MOL0     C11790   6.382   3.551   4.185 -0.7522  0.1533  0.4147
   88MOL0     C11791   6.277   3.459   4.179  0.4331  0.1823  0.2949
   88MOL0     O11792   6.170   3.278   4.384  0.8486  0.1290 -0.5515
   88MOL0     C11793   5.937   3.111   4.441 -0.1605 -0.6182  0.1550
   88MOL0     C11794   5.833   3.021   4.436 -0.0191  0.3847 -1.5670
   88MOL0     N11795   5.575   2.362   4.603  0.1057  0.4122  0.7335
   88MOL0     N11796   5.562   2.249   4.675 -0.1805  0.5864  0.7027
   88MOL0     C11797   5.245   2.267   5.789  1.1711  0.8225 -0.5746
   88MOL0     C11798   5.122   2.274   5.858 -0.0151 -0.1373 -0.8018
   88MOL0     C11799   4.800   2.347   6.162  0.1994 -0.5055 -0.4048
   88MOL0     C11800   4.726   2.463   6.162 -0.1232  0.7046 -0.7409
   88MOL0     C11801   4.599   2.459   6.226  0.3626  0.0692  0.3773
   88MOL0     C11802   4.544   2.337   6.272  0.1577 -0.0424 -0.1314
   88MOL0     O11803   4.429   2.334   6.335  0.4508  0.5334  0.3263
   88MOL0     C11804   4.427   2.386   6.466 -1.2382  0.4207 -0.4738
   88MOL0     C11805   4.319   2.488   6.474 -0.1314  0.2158  0.4846
   88MOL0     C11806   4.273   2.501   6.618  0.3695  0.4421  0.1652
   88MOL0     C11807   4.386   2.513   6.721  0.1735  0.5557 -0.0008
   88MOL0     C11808   4.368   2.613   6.814  0.0296 -0.0937 -0.7618
   88MOL0     C11809   4.337   2.702   6.890  0.2700 -0.9155 -0.2048
   88MOL0     C11810   4.619   2.214   6.261  0.6588 -1.5951 -0.4821
   88MOL0     C11811   4.744   2.223   6.216 -0.0346  0.0141 -0.1961
   88MOL0     C11812   4.818   2.088   6.218  0.0854 -0.1669 -0.0919
   88MOL0     H11813   5.103   2.603   5.912 -2.7558  0.1141 -2.2208
   88MOL0     H11814   5.280   2.597   5.742 -0.2973  2.1407  3.8120
   88MOL0     H11815   5.530   2.296   5.533  1.2189 -0.5574  0.4852
   88MOL0     H11816   5.466   2.185   5.668 -0.7850 -0.2604  0.0201
   88MOL0     H11817   5.319   2.277   5.400 -1.9481  0.0418  0.4690
   88MOL0     H11818   5.253   2.166   5.516  0.7159 -0.3081 -0.6548
   88MOL0     H11819   5.454   2.022   5.484  2.3522  1.2460 -1.0072
   88MOL0     H11820   5.492   2.144   5.352 -0.4347  2.0668  0.0616
   88MOL0     H11821   5.352   1.924   5.299  1.6981 -0.0821 -1.7601
   88MOL0     H11822   5.227   2.023   5.372 -0.2388  1.3824  0.8882
   88MOL0     H11823   5.192   2.100   5.136  0.8325 -1.9538 -4.7518
   88MOL0     H11824   5.333   2.203   5.175  1.1026  0.0059 -1.7578
   88MOL0     H11825   5.468   1.986   5.072 -0.1665 -1.5908 -3.2621
   88MOL0     H11826   5.316   1.923   5.038  0.5996 -0.2841 -0.9326
   88MOL0     H11827   5.293   2.177   4.936 -0.8066  1.0990 -1.6890
   88MOL0     H11828   5.333   2.021   4.846  0.8860  0.9604 -0.7440
   88MOL0     H11829   5.535   2.212   4.996  2.1498 -0.6380 -0.0481
   88MOL0     H11830   5.576   2.089   4.882 -1.4129 -1.6174  2.9600
   88MOL0     H11831   5.438   2.460   4.886 -1.4133 -1.2439 -1.1583
   88MOL0     H11832   5.465   2.658   4.729 -0.1934 -0.7806  1.8515
   88MOL0     H11833   5.642   2.639   4.669  0.5476 -2.2710  1.1805
   88MOL0     H11834   5.550   2.584   4.445  0.6278  0.2032  0.9094
   88MOL0     H11835   5.384   2.601   4.490  1.4119 -2.6528 -0.3336
   88MOL0     H11836   5.414   2.849   4.515 -0.8192  1.7038 -2.0194
   88MOL0     H11837   5.434   2.787   4.354  0.6413  0.6778  0.4477
   88MOL0     H11838   5.694   2.765   4.439 -0.2955 -1.2481  1.9758
   88MOL0     H11839   5.630   2.884   4.552  2.7923  1.3164 -0.7490
   88MOL0     H11840   5.655   3.127   4.169  0.2694  1.9048  0.3295
   88MOL0     H11841   5.876   3.256   4.142  0.5868 -1.2505 -1.4760
   88MOL0     H11842   6.034   3.676   4.242  0.0961  2.2580  0.8690
   88MOL0     H11843   6.225   3.833   4.264  1.4031 -1.4857  1.9863
   88MOL0     H11844   6.676   3.793   4.187  0.9460  2.1539 -2.2710
   88MOL0     H11845   6.589   3.674   4.089  2.7504  0.1762  1.9040
   88MOL0     H11846   6.474   3.835   3.962 -0.3641  0.3110  1.2112
   88MOL0     H11847   6.532   3.968   4.074 -1.6852  1.1366 -1.8923
   88MOL0     H11848   6.739   3.977   3.967 -2.8176 -0.0812  2.1307
   88MOL0     H11849   6.731   3.811   3.915  0.8445  0.5653  2.1076
   88MOL0     H11850   6.607   4.068   3.785  2.1928 -0.4565  0.2229
   88MOL0     H11851   6.518   3.919   3.760  1.4605 -2.2067 -3.3518
   88MOL0     H11852   6.744   3.826   3.675  0.6780  0.3064 -0.3468
   88MOL0     H11853   6.823   3.977   3.700  0.2105 -1.0926  0.5192
   88MOL0     H11854   6.577   3.926   3.514  0.3149  0.9258 -2.4820
   88MOL0     H11855   6.648   4.084   3.541 -4.1377 -0.3606  0.3270
   88MOL0     H11856   6.879   3.915   3.475  0.6021 -0.6982 -0.5696
   88MOL0     H11857   6.795   4.010   3.351  4.1469  2.0808  1.6474
   88MOL0     H11858   6.846   3.784   3.286  0.2340  2.0366 -0.1414
   88MOL0     H11859   6.734   3.722   3.411  1.0768 -0.5172 -0.3064
   88MOL0     H11860   6.472   3.506   4.144 -1.6652 -0.2629 -1.2294
   88MOL0     H11861   6.307   3.355   4.166 -1.8218 -0.4015 -0.6613
   88MOL0     H11862   6.032   3.091   4.491  0.2105 -0.8978 -0.6457
   88MOL0     H11863   5.828   2.953   4.520 -0.3996 -0.7822 -2.5051
   88MOL0     H11864   5.274   2.166   5.764  0.7700  0.8386 -1.1340
   88MOL0     H11865   5.058   2.189   5.882 -2.4242  0.5931 -4.0507
   88MOL0     H11866   4.753   2.557   6.115 -1.0895  2.1576  1.4199
   88MOL0     H11867   4.544   2.553   6.230 -1.6259 -0.8585 -2.2559
   88MOL0     H11868   4.526   2.429   6.483 -1.5664  0.4363  1.7245
   88MOL0     H11869   4.419   2.302   6.536  1.8535  0.4400  0.0615
   88MOL0     H11870   4.237   2.452   6.411  1.2765  0.8293 -1.8101
   88MOL0     H11871   4.351   2.590   6.451 -0.6975  0.7523  1.9813
   88MOL0     H11872   4.201   2.419   6.629  2.3855 -1.7056 -1.6958
   88MOL0     H11873   4.219   2.596   6.622 -2.1503 -0.9490  1.4992
   88MOL0     H11874   4.416   2.413   6.753  0.7215  0.6598 -0.1775
   88MOL0     H11875   4.473   2.564   6.678  1.3891  0.0406  1.7328
   88MOL0     H11876   4.317   2.781   6.960  0.1987 -1.7840  0.7847
   88MOL0     H11877   4.568   2.119   6.273 -3.1175 -0.0026 -2.4401
   88MOL0     H11878   4.899   2.081   6.145 -1.3847 -1.4189 -1.6801
   88MOL0     H11879   4.850   2.060   6.319 -1.8747  0.0070  0.6184
   88MOL0     H11880   4.749   2.008   6.191  0.3651 -0.8425  1.1408
   89MOL0     O11881   8.600   6.093   1.186  0.6102  0.3271 -0.4062
   89MOL0     C11882   8.638   6.212   1.165  0.0944 -0.4520  0.2051
   89MOL0     O11883   8.598   6.325   1.223  0.2189 -0.4348  0.3571
   89MOL0     C11884   8.499   6.313   1.316 -0.7032 -0.4589  0.5108
   89MOL0     C11885   8.518   6.234   1.432  0.0928  0.5995 -0.2935
   89MOL0     C11886   8.413   6.210   1.523  0.2011  1.0047  0.7032
   89MOL0     C11887   8.278   6.247   1.499 -0.0912 -0.3711 -1.1521
   89MOL0     O11888   8.178   6.225   1.594 -0.8972  0.2157 -0.2208
   89MOL0     C11889   8.049   6.285   1.569 -0.2636  0.3618 -1.4286
   89MOL0     C11890   7.949   6.237   1.675 -0.2174  0.5046 -0.0008
   89MOL0     C11891   7.863   6.120   1.633  0.3538 -1.2454 -0.5877
   89MOL0     C11892   7.729   6.162   1.562 -0.2070  0.0679 -0.3140
   89MOL0     C11893   7.636   6.034   1.553  0.8648 -0.7421  0.4279
   89MOL0     C11894   7.486   6.063   1.549 -0.0318 -0.2418  0.1141
   89MOL0     C11895   7.403   5.985   1.443 -0.6581 -0.5732  0.1588
   89MOL0     C11896   7.250   5.984   1.463  1.4036  0.8320 -0.7156
   89MOL0     N11897   7.190   6.078   1.378  0.5415 -0.2518  0.4764
   89MOL0     C11898   7.139   6.045   1.254  0.2661  0.7395  0.1895
   89MOL0     C11899   7.042   6.129   1.220  0.4873 -0.1467  0.2169
   89MOL0     C11900   6.946   6.123   1.096 -0.6556 -1.0890 -0.4681
   89MOL0     C11901   6.995   6.224   0.996 -1.0365 -0.4126  0.5219
   89MOL0     C11902   6.890   6.251   0.886  0.3557  0.6077 -0.3701
   89MOL0     C11903   6.932   6.356   0.785  1.1706  0.2004 -1.0214
   89MOL0     O11904   6.958   6.476   0.847 -0.1878  0.3603 -1.2595
   89MOL0     C11905   6.858   6.564   0.876  0.4808  0.0981  0.0803
   89MOL0     C11906   6.781   6.628   0.777 -0.7586  0.2873  1.1534
   89MOL0     C11907   6.685   6.725   0.816  0.1924 -0.6643 -0.4686
   89MOL0     C11908   6.661   6.747   0.952 -0.8934  0.7322  0.3239
   89MOL0     C11909   6.567   6.846   1.002 -0.1451  0.8771 -0.5856
   89MOL0     O11910   6.570   6.868   1.138 -0.0199 -0.0716  0.0254
   89MOL0     C11911   6.459   6.908   1.204  0.1871 -0.5378 -0.2307
   89MOL0     C11912   6.489   7.004   1.304  0.5082 -0.7436  0.0370
   89MOL0     C11913   6.383   7.053   1.382  0.4205 -0.3593  1.1364
   89MOL0     C11914   6.249   7.006   1.365 -0.4611  0.2733 -0.2803
   89MOL0     O11915   6.139   7.064   1.438 -0.2699 -0.1117  0.1934
   89MOL0     C11916   6.159   7.180   1.521 -0.8037  0.2785 -0.6052
   89MOL0     C11917   6.027   7.243   1.554  0.1311  0.7531  0.1661
   89MOL0     C11918   6.005   7.273   1.703  0.1491 -0.1108 -0.4425
   89MOL0     C11919   5.862   7.315   1.726  0.0266  0.4451 -0.0027
   89MOL0     C11920   5.837   7.334   1.880  0.7936 -0.3039 -0.1815
   89MOL0     C11921   5.692   7.347   1.938  0.5307  0.7199  0.3017
   89MOL0     C11922   5.582   7.249   1.885  0.9738 -0.2888 -0.2517
   89MOL0     C11923   5.454   7.246   1.976  0.2156 -0.3984  0.3901
   89MOL0    Cl11924   5.378   7.402   1.932  0.0324  0.1279 -0.2663
   89MOL0     C11925   6.224   6.918   1.266  0.4554  0.6146  0.4222
   89MOL0     C11926   6.325   6.863   1.193  0.0503 -0.0441  0.1815
   89MOL0     O11927   6.483   6.888   0.929  0.0636  0.4213  0.3067
   89MOL0     C11928   6.731   6.675   1.048 -0.4221 -0.2833  0.0585
   89MOL0     C11929   6.825   6.582   1.012 -0.2511  0.7393 -0.3150
   89MOL0     N11930   7.034   6.217   1.328  0.0659  0.0100  0.7189
   89MOL0     N11931   7.115   6.180   1.426  0.0988  0.6708 -0.4720
   89MOL0     C11932   8.258   6.323   1.386 -1.5009  0.0687  0.8465
   89MOL0     C11933   8.369   6.356   1.295 -0.8231 -0.2451 -0.0464
   89MOL0     C11934   8.745   6.236   1.058 -0.3897  0.2339 -0.0733
   89MOL0     C11935   8.828   6.342   1.077  0.5363 -0.2425  0.9690
   89MOL0     C11936   8.922   6.379   0.986  0.0026  0.2188  0.7294
   89MOL0     C11937   8.932   6.308   0.867  0.3089 -0.1969 -0.4252
   89MOL0     O11938   9.030   6.339   0.772  0.5768  1.2381 -0.8893
   89MOL0     C11939   9.169   6.359   0.825  0.1454 -0.7253 -0.1361
   89MOL0     C11940   9.227   6.254   0.921  0.6040 -0.0827  0.3198
   89MOL0     C11941   9.208   6.115   0.867 -0.3956  0.1756  0.3359
   89MOL0     C11942   9.289   6.014   0.944  0.1440  0.3236  0.0612
   89MOL0     C11943   9.424   6.004   0.886 -0.0375 -0.6320  0.0604
   89MOL0     C11944   9.528   5.989   0.834 -0.8067 -0.1787  0.3282
   89MOL0     C11945   8.865   6.193   0.855  0.2205  0.6338  0.4091
   89MOL0     C11946   8.762   6.160   0.946 -0.2435 -0.1775 -0.3114
   89MOL0     C11947   8.678   6.042   0.924  0.4795 -0.7441 -0.5302
   89MOL0     H11948   8.611   6.179   1.449 -2.4293 -3.8315  0.9601
   89MOL0     H11949   8.440   6.154   1.611 -1.8047  0.0435  0.7697
   89MOL0     H11950   8.072   6.392   1.576  2.1454 -0.1508 -0.5105
   89MOL0     H11951   8.002   6.262   1.473 -2.2444 -0.2573 -0.3510
   89MOL0     H11952   7.883   6.323   1.688 -0.4555  0.7753 -2.4746
   89MOL0     H11953   8.004   6.209   1.765 -2.1556 -2.5241  0.3924
   89MOL0     H11954   7.833   6.060   1.719  0.3150 -1.6265 -0.8605
   89MOL0     H11955   7.910   6.054   1.559 -2.3372 -2.7097 -1.1537
   89MOL0     H11956   7.690   6.239   1.629 -0.7940 -0.0264 -0.5409
   89MOL0     H11957   7.760   6.191   1.461  0.9406 -1.8053 -0.5546
   89MOL0     H11958   7.664   5.973   1.467  0.3280 -0.0926 -0.2182
   89MOL0     H11959   7.652   5.972   1.642 -0.7753  0.1103  1.3569
   89MOL0     H11960   7.443   6.042   1.647 -0.0320  0.6895  0.3268
   89MOL0     H11961   7.472   6.170   1.529  1.3808  0.2858  1.7227
   89MOL0     H11962   7.442   5.883   1.445  4.2465  1.0280  1.2403
   89MOL0     H11963   7.419   6.025   1.343 -2.8552  4.0273  1.3938
   89MOL0     H11964   7.221   5.881   1.438 -0.0198  0.9394  0.3423
   89MOL0     H11965   7.233   6.012   1.567  1.3784 -0.6035 -0.3061
   89MOL0     H11966   7.149   5.959   1.190 -1.0085 -1.3583  2.6137
   89MOL0     H11967   6.940   6.023   1.051 -3.2679 -2.0828  1.8017
   89MOL0     H11968   6.842   6.148   1.120 -1.0921 -2.4874 -0.7931
   89MOL0     H11969   6.996   6.318   1.053 -1.1225  0.0194 -0.1698
   89MOL0     H11970   7.096   6.215   0.954 -2.0504 -0.6998 -2.0305
   89MOL0     H11971   6.796   6.283   0.931  0.8318 -0.1824  1.2768
   89MOL0     H11972   6.866   6.156   0.837 -3.1870  1.4361 -0.5167
   89MOL0     H11973   6.856   6.366   0.707  0.2115  0.5268 -0.0573
   89MOL0     H11974   7.027   6.337   0.735 -0.0878  2.4595 -4.6536
   89MOL0     H11975   6.793   6.614   0.670  5.6072 -0.1034  1.5208
   89MOL0     H11976   6.645   6.797   0.746 -1.7291  0.4285  1.6298
   89MOL0     H11977   6.589   7.045   1.316 -0.2446  1.2065 -0.0166
   89MOL0     H11978   6.383   7.131   1.458 -2.0307  1.3636 -0.5038
   89MOL0     H11979   6.201   7.147   1.617 -1.7411 -0.7439 -0.5364
   89MOL0     H11980   6.225   7.258   1.480 -2.1772 -0.6990 -5.2882
   89MOL0     H11981   6.017   7.335   1.497 -2.0043  0.6335  0.2807
   89MOL0     H11982   5.937   7.190   1.521  0.1321  1.2119 -0.5840
   89MOL0     H11983   6.038   7.186   1.761  4.3768  1.2141 -0.5210
   89MOL0     H11984   6.075   7.352   1.730 -0.6361  0.6187 -0.5002
   89MOL0     H11985   5.798   7.233   1.693 -2.6697  2.8606 -1.1668
   89MOL0     H11986   5.844   7.404   1.666  0.2649  0.7543  0.3757
   89MOL0     H11987   5.884   7.427   1.913  1.4536 -1.0055  0.8933
   89MOL0     H11988   5.880   7.249   1.933 -0.5827 -1.4518 -0.8113
   89MOL0     H11989   5.686   7.362   2.046 -3.5242  0.1245  0.3134
   89MOL0     H11990   5.667   7.449   1.907  0.2244  0.0397 -1.8086
   89MOL0     H11991   5.632   7.152   1.889 -1.9904 -1.9384 -0.5697
   89MOL0     H11992   5.554   7.268   1.781  2.4120 -3.5929 -1.3780
   89MOL0     H11993   5.382   7.170   1.944 -1.3776  0.6224  1.3881
   89MOL0     H11994   5.474   7.234   2.083 -0.6269  1.7857  0.8472
   89MOL0     H11995   6.118   6.891   1.260  0.7518 -0.6078  0.3791
   89MOL0     H11996   6.291   6.792   1.117 -2.2916  1.0345  0.1333
   89MOL0     H11997   6.724   6.702   1.153  0.8861  0.4480 -0.0248
   89MOL0     H11998   6.884   6.518   1.077  0.2756  1.4854 -0.0526
   89MOL0     H11999   8.166   6.366   1.348 -1.0138 -0.3154 -0.8440
   89MOL0     H12000   8.362   6.420   1.208  0.3138  0.1260  0.1176
   89MOL0     H12001   8.806   6.417   1.152 -0.6014  0.5329 -0.0898
   89MOL0     H12002   8.974   6.470   1.013 -1.3250  1.5639 -1.0041
   89MOL0     H12003   9.161   6.451   0.884  0.5284 -0.4304 -0.5362
   89MOL0     H12004   9.242   6.375   0.745 -2.7884  1.5895 -2.5867
   89MOL0     H12005   9.178   6.278   1.015 -2.7459 -1.5196 -0.8886
   89MOL0     H12006   9.336   6.258   0.931  0.7163 -1.9344  0.2754
   89MOL0     H12007   9.236   6.104   0.762  0.9641 -2.3667  0.8623
   89MOL0     H12008   9.103   6.087   0.870  0.0772 -2.2851 -1.9801
   89MOL0     H12009   9.301   6.023   1.053 -3.0700  1.3995  0.4054
   89MOL0     H12010   9.229   5.924   0.928 -1.4160  1.1244  1.1491
   89MOL0     H12011   9.615   5.961   0.779 -1.7797  1.0703 -2.0110
   89MOL0     H12012   8.885   6.126   0.772 -0.0265 -0.6142  1.3332
   89MOL0     H12013   8.682   6.011   0.819  1.7751  1.4789 -1.2027
   89MOL0     H12014   8.705   5.959   0.991  0.9975  0.0013  0.2078
   89MOL0     H12015   8.576   6.071   0.950  2.0916  3.1644  2.6138
   90MOL0     O12016   5.696   8.192   7.922  0.1376 -1.1098 -0.2681
   90MOL0     C12017   5.744   8.128   7.834 -0.1950  0.5289 -0.4963
   90MOL0     O12018   5.676   8.063   7.736 -0.1078  0.2485  0.1591
   90MOL0     C12019   5.550   8.008   7.763 -0.6707 -0.0093  0.3992
   90MOL0     C12020   5.467   7.990   7.658  0.3464  0.5605 -0.2487
   90MOL0     C12021   5.342   7.925   7.680  0.2891  0.5173  0.6481
   90MOL0     C12022   5.304   7.869   7.803  0.4643 -0.2777 -0.3881
   90MOL0     O12023   5.184   7.813   7.829  0.4395  0.8775 -0.2971
   90MOL0     C12024   5.130   7.722   7.726 -0.3718 -0.8080 -0.1377
   90MOL0     C12025   4.983   7.692   7.743  1.1735 -0.2077 -0.0932
   90MOL0     C12026   4.937   7.566   7.659 -0.2520  0.9162 -0.8230
   90MOL0     C12027   5.020   7.446   7.696  0.6635 -0.1728 -0.0603
   90MOL0     C12028   4.955   7.320   7.658 -0.6899 -0.3033  0.0769
   90MOL0     C12029   4.817   7.295   7.715 -0.1928 -0.1221  0.4943
   90MOL0     C12030   4.777   7.145   7.698 -0.7545 -0.0858 -0.4879
   90MOL0     C12031   4.854   7.046   7.780 -0.1144  0.3630 -0.6912
   90MOL0     N12032   4.813   6.899   7.779  0.2113  0.2578  0.9081
   90MOL0     C12033   4.755   6.837   7.668  0.0916  0.0148  1.2401
   90MOL0     C12034   4.694   6.729   7.710  0.3478 -0.5420  0.1365
   90MOL0     C12035   4.609   6.636   7.623  0.6986 -0.3022  0.6054
   90MOL0     C12036   4.592   6.496   7.687 -0.3178  0.2486  0.2191
   90MOL0     C12037   4.719   6.417   7.697 -0.2709  0.0154 -0.5684
   90MOL0     C12038   4.771   6.349   7.568 -0.4994 -0.0717  0.2848
   90MOL0     O12039   4.873   6.423   7.507 -0.1036  0.3109 -0.4201
   90MOL0     C12040   5.001   6.393   7.546 -0.3222  0.2951 -0.2827
   90MOL0     C12041   5.056   6.265   7.518  0.3887  0.6121 -0.7148
   90MOL0     C12042   5.194   6.243   7.536 -0.3842 -0.8417 -0.1464
   90MOL0     C12043   5.276   6.347   7.581  0.1025 -0.8316 -0.7888
   90MOL0     C12044   5.417   6.303   7.603  0.5293  0.2846 -0.6233
   90MOL0     O12045   5.449   6.177   7.556 -0.0047  0.2038 -0.1480
   90MOL0     C12046   5.578   6.137   7.578  0.2010 -1.0276  0.4077
   90MOL0     C12047   5.632   6.135   7.704  0.3795  0.8468 -0.0176
   90MOL0     C12048   5.766   6.106   7.722 -0.2355  0.1066 -0.8809
   90MOL0     C12049   5.843   6.080   7.608 -0.2703  0.4531  0.4480
   90MOL0     O12050   5.978   6.049   7.612 -0.4651  0.2039 -1.2208
   90MOL0     C12051   6.059   6.071   7.732  0.4806 -0.7215  0.8467
   90MOL0     C12052   6.182   5.978   7.714  1.1539 -0.1069 -0.1692
   90MOL0     C12053   6.230   5.987   7.575 -0.5478  0.4088  0.1995
   90MOL0     C12054   6.341   5.888   7.550  0.0888 -0.2131  0.3533
   90MOL0     C12055   6.397   5.908   7.411 -0.0021  0.7364 -0.2451
   90MOL0     C12056   6.473   6.046   7.385  0.2895  0.6802 -0.8982
   90MOL0     C12057   6.541   6.041   7.249  0.3917  0.2785  0.4523
   90MOL0     C12058   6.511   6.163   7.167  0.6558 -0.0432  0.4705
   90MOL0    Cl12059   6.582   6.148   6.998  0.0277  0.1132 -0.2137
   90MOL0     C12060   5.792   6.089   7.482  0.3766  0.1587  0.5890
   90MOL0     C12061   5.658   6.111   7.467  0.1044 -0.9832  1.2325
   90MOL0     O12062   5.487   6.378   7.662 -0.6496  0.3542 -0.4338
   90MOL0     C12063   5.224   6.471   7.607 -0.9549  0.2299  0.1946
   90MOL0     C12064   5.088   6.490   7.595 -0.5475 -0.2690 -0.3719
   90MOL0     N12065   4.717   6.725   7.849  0.1364  0.3813 -0.2146
   90MOL0     N12066   4.793   6.821   7.888 -0.3065  0.4685 -0.1409
   90MOL0     C12067   5.392   7.888   7.910 -0.0329  0.2201 -0.2488
   90MOL0     C12068   5.517   7.951   7.888  0.3245  0.0655  0.2974
   90MOL0     C12069   5.884   8.113   7.819  0.0516 -0.2562  0.5223
   90MOL0     C12070   5.945   8.108   7.695 -0.3004  0.5856  0.3379
   90MOL0     C12071   6.086   8.094   7.673  0.1078 -0.6140 -0.8991
   90MOL0     C12072   6.170   8.091   7.789  0.3770 -0.4130 -0.1570
   90MOL0     O12073   6.305   8.084   7.771 -0.4017  0.2561 -1.1070
   90MOL0     C12074   6.382   8.100   7.890 -0.8398  1.6831 -0.0577
   90MOL0     C12075   6.520   8.119   7.845  1.1454  0.0064  0.1744
   90MOL0     C12076   6.593   7.996   7.807 -1.1326 -0.8902  0.5800
   90MOL0     C12077   6.747   8.026   7.790  0.5468 -0.4591  0.1957
   90MOL0     C12078   6.765   8.064   7.647 -0.0439  0.6783  0.8368
   90MOL0     C12079   6.785   8.098   7.529 -0.0044 -0.0613  0.1068
   90MOL0     C12080   6.105   8.086   7.914  0.6526  0.9286  0.9507
   90MOL0     C12081   5.967   8.094   7.931  0.0929  0.8472  0.7215
   90MOL0     C12082   5.918   8.080   8.075  0.9148  0.1503  0.0094
   90MOL0     H12083   5.486   8.039   7.563 -1.6420 -2.1864 -2.2105
   90MOL0     H12084   5.265   7.935   7.605  1.5586  3.0186 -0.4564
   90MOL0     H12085   5.134   7.757   7.623  0.9336 -2.9945 -0.8985
   90MOL0     H12086   5.196   7.635   7.720  0.5949 -0.0089 -4.2465
   90MOL0     H12087   4.929   7.780   7.706 -1.0831 -1.7343 -0.6552
   90MOL0     H12088   4.962   7.669   7.847  2.2606  1.4380  0.5285
   90MOL0     H12089   4.961   7.590   7.555  0.6632  1.0026 -0.6056
   90MOL0     H12090   4.830   7.555   7.679  0.1847  0.6250  1.7255
   90MOL0     H12091   5.113   7.469   7.643 -0.0455  3.4252 -0.0196
   90MOL0     H12092   5.028   7.446   7.805 -3.2560  3.2712  0.5137
   90MOL0     H12093   4.947   7.344   7.551 -2.9163  0.8889  0.4591
   90MOL0     H12094   5.020   7.235   7.681 -0.4342 -0.1584 -0.0911
   90MOL0     H12095   4.805   7.325   7.819 -2.3580  4.5579 -0.8424
   90MOL0     H12096   4.743   7.356   7.663 -0.7269 -0.8590  0.3725
   90MOL0     H12097   4.770   7.117   7.593 -0.8138 -1.8661 -0.0451
   90MOL0     H12098   4.679   7.141   7.747  1.2485 -2.0000  3.9071
   90MOL0     H12099   4.957   7.047   7.743  0.5858  3.6427  0.9199
   90MOL0     H12100   4.861   7.091   7.880  2.0886  0.3234 -0.7727
   90MOL0     H12101   4.767   6.866   7.564 -2.3107 -4.2268 -0.4648
   90MOL0     H12102   4.523   6.700   7.599  1.8000  1.3055  0.7769
   90MOL0     H12103   4.662   6.624   7.529 -0.4565  0.4374 -0.1750
   90MOL0     H12104   4.540   6.511   7.782 -1.1298  0.8717 -0.2988
   90MOL0     H12105   4.531   6.429   7.625 -1.0046  0.6592  0.4344
   90MOL0     H12106   4.702   6.331   7.763 -2.0809  0.2545 -0.6674
   90MOL0     H12107   4.799   6.465   7.754  1.6555 -0.6209 -2.5649
   90MOL0     H12108   4.683   6.337   7.504 -0.1712  0.9210 -0.3682
   90MOL0     H12109   4.816   6.252   7.591 -0.6185 -0.0510  0.6143
   90MOL0     H12110   4.988   6.185   7.489 -0.5188  0.4731  1.5469
   90MOL0     H12111   5.226   6.141   7.518  0.7519 -0.5902  0.3848
   90MOL0     H12112   5.572   6.167   7.789 -0.6038  0.9471 -0.7420
   90MOL0     H12113   5.801   6.113   7.824  2.2208 -0.2643 -1.6224
   90MOL0     H12114   6.102   6.172   7.735  4.1518 -1.9865 -1.7673
   90MOL0     H12115   6.012   6.050   7.828 -2.3709  0.9817 -0.0451
   90MOL0     H12116   6.268   6.003   7.776  1.1014  3.6215 -1.3918
   90MOL0     H12117   6.148   5.874   7.722  1.8058 -0.2697  0.6767
   90MOL0     H12118   6.149   5.947   7.513 -0.7541 -1.4403  1.5837
   90MOL0     H12119   6.268   6.087   7.555  3.5096 -0.7066  1.4520
   90MOL0     H12120   6.315   5.782   7.559  0.6020 -0.4583 -0.8481
   90MOL0     H12121   6.418   5.903   7.626  1.8615  0.5814 -1.5033
   90MOL0     H12122   6.318   5.901   7.336 -1.5139  0.6942  1.3002
   90MOL0     H12123   6.466   5.826   7.387 -0.8561  0.3161 -1.3199
   90MOL0     H12124   6.407   6.132   7.380  0.4171  0.7602 -1.2375
   90MOL0     H12125   6.543   6.066   7.467  0.0293  0.0611 -0.5155
   90MOL0     H12126   6.507   5.949   7.201  2.3542 -0.7033  0.8397
   90MOL0     H12127   6.650   6.041   7.244  0.3819  2.7893 -1.4809
   90MOL0     H12128   6.404   6.179   7.152  0.4366 -0.3657  1.6332
   90MOL0     H12129   6.557   6.250   7.215  1.5081  0.2118 -0.7376
   90MOL0     H12130   5.852   6.072   7.393 -0.6275  0.5717 -0.1754
   90MOL0     H12131   5.631   6.130   7.363  1.3411 -2.9055  0.4979
   90MOL0     H12132   5.288   6.542   7.658 -0.6178  0.3914 -0.4461
   90MOL0     H12133   5.060   6.587   7.634 -1.4900 -0.4804 -0.4744
   90MOL0     H12134   5.365   7.851   8.009 -1.0921 -0.8363 -0.9005
   90MOL0     H12135   5.587   7.970   7.969  0.9510 -1.4993  0.1469
   90MOL0     H12136   5.876   8.106   7.611 -0.3400  4.3754  0.1282
   90MOL0     H12137   6.126   8.073   7.574  2.5045  0.4506 -0.2138
   90MOL0     H12138   6.381   8.010   7.951 -0.1748 -0.8068 -3.4212
   90MOL0     H12139   6.351   8.195   7.936  0.1088  2.3486 -0.7646
   90MOL0     H12140   6.567   8.171   7.929  0.3321  1.7005 -0.3848
   90MOL0     H12141   6.540   8.182   7.758  3.1565 -1.8674 -0.8243
   90MOL0     H12142   6.559   7.951   7.714 -2.4994 -0.9082  1.0748
   90MOL0     H12143   6.595   7.936   7.898 -0.0171  1.0898  1.9545
   90MOL0     H12144   6.768   8.113   7.853  1.9193 -1.5479  1.3091
   90MOL0     H12145   6.806   7.937   7.814  1.4445 -0.2635 -1.1451
   90MOL0     H12146   6.812   8.127   7.430  1.2098 -0.6871  0.2351
   90MOL0     H12147   6.149   8.065   8.011  0.6544 -0.5147  0.6712
   90MOL0     H12148   5.988   8.062   8.157 -1.5744  0.8454  2.4024
   90MOL0     H12149   5.869   8.173   8.106 -0.7126 -0.6734  0.0127
   90MOL0     H12150   5.844   8.000   8.065  0.4212  0.8754 -3.9134
   91MOL0     O12151   2.716   3.096  10.888  0.5567 -0.3388 -0.1113
   91MOL0     C12152   2.773   2.995  10.848  0.4627 -0.1018  0.0388
   91MOL0     O12153   2.735   2.864  10.875  0.5636  0.4157 -0.4560
   91MOL0     C12154   2.614   2.828  10.949  0.1570 -0.2229 -0.5511
   91MOL0     C12155   2.625   2.728  11.044 -0.1403  1.0562  0.2746
   91MOL0     C12156   2.518   2.662  11.102  1.4444  0.4194 -0.1070
   91MOL0     C12157   2.387   2.717  11.080 -0.7887 -0.5399 -1.0361
   91MOL0     O12158   2.278   2.659  11.132  0.5197  1.2206  0.1326
   91MOL0     C12159   2.297   2.609  11.268  1.6614 -0.0295 -0.0161
   91MOL0     C12160   2.161   2.583  11.347 -0.8788 -0.3772  0.8796
   91MOL0     C12161   2.099   2.717  11.385 -0.1035 -0.3328  0.4110
   91MOL0     C12162   1.955   2.698  11.450 -0.4607  0.6466 -0.0779
   91MOL0     C12163   1.918   2.819  11.529  0.4936 -0.8690 -0.0333
   91MOL0     C12164   1.774   2.796  11.588 -1.0188 -0.0759  0.0395
   91MOL0     C12165   1.727   2.914  11.674  0.6034 -0.3355 -0.3394
   91MOL0     C12166   1.818   2.920  11.798 -0.3701 -0.2461 -0.6884
   91MOL0     N12167   1.755   3.011  11.894  0.2360  0.5145  0.3445
   91MOL0     C12168   1.697   3.138  11.870 -0.4471  0.2823  0.1700
   91MOL0     C12169   1.677   3.200  11.992 -0.4885  0.5405 -0.2300
   91MOL0     C12170   1.629   3.334  12.026 -0.5002  0.6269 -0.5627
   91MOL0     C12171   1.692   3.429  11.928  0.1572 -0.5557  0.3799
   91MOL0     C12172   1.659   3.576  11.971 -0.2196 -0.7087 -0.0535
   91MOL0     C12173   1.733   3.682  11.888  0.1934 -0.3835  0.2147
   91MOL0     O12174   1.868   3.704  11.942  1.1653 -0.4070 -0.0491
   91MOL0     C12175   1.979   3.700  11.860  0.1755  0.3960 -0.0531
   91MOL0     C12176   1.988   3.661  11.723  0.7872  0.2156  0.4406
   91MOL0     C12177   2.109   3.641  11.653  0.1834 -0.5258  0.2754
   91MOL0     C12178   2.228   3.679  11.726  0.1789 -0.1066  0.9026
   91MOL0     C12179   2.365   3.666  11.664  0.6729  0.1994 -0.0437
   91MOL0     O12180   2.371   3.615  11.533 -0.5601 -0.3811 -0.1954
   91MOL0     C12181   2.486   3.581  11.469 -1.0169  0.8775 -0.0873
   91MOL0     C12182   2.579   3.487  11.523 -1.0107  0.6303 -0.4476
   91MOL0     C12183   2.691   3.453  11.450  0.2142 -0.2832  0.0481
   91MOL0     C12184   2.723   3.524  11.334  0.8166 -0.8898 -0.0138
   91MOL0     O12185   2.850   3.504  11.280 -0.3048 -0.5265 -0.1416
   91MOL0     C12186   2.937   3.619  11.288  0.0590  0.3565  0.7879
   91MOL0     C12187   3.054   3.613  11.175 -0.0334  0.1181 -0.1144
   91MOL0     C12188   3.188   3.681  11.189  0.5278  0.5040 -0.8176
   91MOL0     C12189   3.177   3.831  11.147 -0.4905  0.3962  0.5587
   91MOL0     C12190   3.314   3.902  11.146  0.6718  0.2179  0.3724
   91MOL0     C12191   3.411   3.870  11.032  0.2420  0.6026 -0.6534
   91MOL0     C12192   3.543   3.945  11.070  0.1685 -0.0168 -0.2087
   91MOL0     C12193   3.634   3.928  10.943 -0.6494 -1.0566 -1.7157
   91MOL0    Cl12194   3.794   3.985  10.984  0.0802 -0.0108 -0.0304
   91MOL0     C12195   2.630   3.615  11.281 -0.2699  0.6191  0.0455
   91MOL0     C12196   2.504   3.647  11.343  0.3796 -1.0620 -0.0965
   91MOL0     O12197   2.460   3.704  11.734  0.7098 -0.9694  0.0169
   91MOL0     C12198   2.214   3.720  11.858 -0.3721 -0.1702  0.9373
   91MOL0     C12199   2.091   3.727  11.924 -0.0818 -1.1340 -0.3787
   91MOL0     N12200   1.708   3.096  12.081  0.1159 -0.1656 -0.4232
   91MOL0     N12201   1.757   2.991  12.028 -0.2214  0.0296  0.2955
   91MOL0     C12202   2.373   2.825  10.992 -0.5593 -0.7610  0.1642
   91MOL0     C12203   2.482   2.870  10.916 -0.4282  0.4610  1.6184
   91MOL0     C12204   2.883   3.018  10.755 -1.0232 -0.2250 -0.6759
   91MOL0     C12205   2.896   2.940  10.637  0.6029  0.1301  0.7005
   91MOL0     C12206   2.992   2.958  10.539  1.3824  0.0553 -0.0696
   91MOL0     C12207   3.067   3.075  10.548 -0.3075 -0.7781 -0.7166
   91MOL0     O12208   3.163   3.093  10.457  0.0777 -0.5827 -0.7070
   91MOL0     C12209   3.236   3.221  10.455 -0.4478 -0.1376  0.0516
   91MOL0     C12210   3.321   3.197  10.343 -0.0901 -0.8140 -0.7690
   91MOL0     C12211   3.398   3.330  10.308  0.7128 -0.0171  0.4299
   91MOL0     C12212   3.519   3.351  10.401 -0.2258 -1.0307 -0.1929
   91MOL0     C12213   3.631   3.252  10.375  0.1884  0.2060  0.1080
   91MOL0     C12214   3.730   3.191  10.344 -0.4764 -0.2345  0.8401
   91MOL0     C12215   3.063   3.153  10.662 -0.3285 -0.8917 -0.2792
   91MOL0     C12216   2.976   3.131  10.769  0.5448  0.0796  0.1442
   91MOL0     C12217   2.992   3.205  10.896  0.5445 -0.1732  0.0123
   91MOL0     H12218   2.721   2.692  11.079  0.1698  1.0070 -0.6085
   91MOL0     H12219   2.524   2.568  11.156 -0.5745  0.4198  0.1642
   91MOL0     H12220   2.346   2.513  11.251 -0.9163 -1.6527  1.1070
   91MOL0     H12221   2.362   2.682  11.317 -2.2142  5.0810 -1.6630
   91MOL0     H12222   2.187   2.524  11.435  3.2483 -0.1139  0.0525
   91MOL0     H12223   2.101   2.528  11.273  2.1866 -3.1709  0.1910
   91MOL0     H12224   2.090   2.783  11.298 -0.2034 -1.6380 -0.5880
   91MOL0     H12225   2.154   2.773  11.461 -2.2752  0.4224  1.5038
   91MOL0     H12226   1.889   2.680  11.364 -0.8578  1.0917  0.1290
   91MOL0     H12227   1.950   2.603  11.504  2.9433  0.2589 -0.2408
   91MOL0     H12228   1.991   2.832  11.610  3.1709  1.7290 -2.6337
   91MOL0     H12229   1.910   2.916  11.479 -0.5398  1.2879  3.8914
   91MOL0     H12230   1.697   2.769  11.515  1.0206 -2.6316 -1.3446
   91MOL0     H12231   1.783   2.709  11.654  1.7058  0.2042  0.1377
   91MOL0     H12232   1.627   2.891  11.712  1.5506 -1.5688  1.5344
   91MOL0     H12233   1.720   3.012  11.626  0.5752  0.1127  0.5666
   91MOL0     H12234   1.818   2.817  11.835  1.1285  0.5919  1.8913
   91MOL0     H12235   1.922   2.947  11.777 -0.0787 -1.3793 -0.7401
   91MOL0     H12236   1.679   3.183  11.773 -2.0123 -0.0588  0.2772
   91MOL0     H12237   1.520   3.344  12.029 -0.5635 -0.0443 -0.6071
   91MOL0     H12238   1.668   3.352  12.127 -0.5348  0.0151 -0.4374
   91MOL0     H12239   1.801   3.427  11.924  0.2297  1.8351 -1.2859
   91MOL0     H12240   1.644   3.419  11.830  1.6967 -0.4736 -0.3968
   91MOL0     H12241   1.685   3.579  12.077  0.0415  1.9874 -0.1191
   91MOL0     H12242   1.554   3.605  11.966  0.4374  1.9686  0.1390
   91MOL0     H12243   1.680   3.778  11.898  0.2591  0.0471 -2.6415
   91MOL0     H12244   1.736   3.660  11.781  0.6852  0.0779  0.1321
   91MOL0     H12245   1.896   3.639  11.669 -0.3343  0.6083  2.1176
   91MOL0     H12246   2.115   3.605  11.551  1.0607 -0.9450  0.4559
   91MOL0     H12247   2.551   3.429  11.610 -0.1870  3.0876  1.5854
   91MOL0     H12248   2.764   3.378  11.478  0.9812 -0.1488 -1.5160
   91MOL0     H12249   2.888   3.717  11.296  1.6590  1.1721  1.0634
   91MOL0     H12250   2.995   3.603  11.379  0.8076 -1.9189 -0.0272
   91MOL0     H12251   3.071   3.505  11.166  0.0457 -0.0939  2.0313
   91MOL0     H12252   3.023   3.632  11.072  0.4043 -1.1421 -0.4986
   91MOL0     H12253   3.236   3.668  11.286  0.4459 -2.3982 -1.0745
   91MOL0     H12254   3.256   3.633  11.117  2.0955  0.2231  0.7848
   91MOL0     H12255   3.113   3.885  11.217 -2.5915 -0.7504 -0.3998
   91MOL0     H12256   3.141   3.828  11.044 -1.6243 -4.0333  0.8894
   91MOL0     H12257   3.361   3.887  11.244  0.0589  2.8177  1.1147
   91MOL0     H12258   3.297   4.010  11.144 -0.0237  0.5242  5.9162
   91MOL0     H12259   3.436   3.764  11.041  4.3606  1.5659  2.1467
   91MOL0     H12260   3.376   3.893  10.931  2.4510 -1.1713 -1.9202
   91MOL0     H12261   3.583   3.895  11.159  0.6519 -3.4526 -2.1663
   91MOL0     H12262   3.521   4.051  11.085  1.4442  0.2395 -0.0197
   91MOL0     H12263   3.642   3.819  10.939 -2.0319 -1.2037 -1.1571
   91MOL0     H12264   3.593   3.966  10.848  1.3528 -0.1988 -2.2893
   91MOL0     H12265   2.664   3.668  11.192  3.2325 -3.3640 -1.2995
   91MOL0     H12266   2.434   3.721  11.306 -1.6405 -3.0685 -0.4433
   91MOL0     H12267   2.298   3.758  11.915 -0.8234  0.3864  1.2554
   91MOL0     H12268   2.076   3.772  12.021 -1.5485  1.6718 -1.7835
   91MOL0     H12269   2.276   2.872  10.979 -1.1620 -2.0553 -0.1778
   91MOL0     H12270   2.468   2.928  10.826 -0.6500 -0.2755  1.1753
   91MOL0     H12271   2.814   2.872  10.616 -0.6304  2.5754 -3.7082
   91MOL0     H12272   2.990   2.899  10.448 -0.8741  2.0356 -1.4271
   91MOL0     H12273   3.291   3.245  10.546 -2.0629  1.0961  0.7599
   91MOL0     H12274   3.164   3.301  10.439 -0.2462  0.4009  1.6570
   91MOL0     H12275   3.257   3.158  10.264 -0.0539  0.2915 -1.3558
   91MOL0     H12276   3.391   3.114  10.360  0.5575 -0.0721  0.3227
   91MOL0     H12277   3.331   3.416  10.307 -0.9048 -1.1263  2.5925
   91MOL0     H12278   3.414   3.331  10.200  0.9707  3.5307  0.3852
   91MOL0     H12279   3.552   3.450  10.369 -0.8355 -0.9686 -0.6354
   91MOL0     H12280   3.506   3.362  10.509  1.7848 -0.4833  0.0375
   91MOL0     H12281   3.817   3.143  10.302  1.4816  0.9818  3.2447
   91MOL0     H12282   3.125   3.242  10.669  2.2611 -2.6237 -0.1088
   91MOL0     H12283   3.091   3.248  10.906  0.9889 -1.6742  3.9139
   91MOL0     H12284   2.924   3.290  10.886  0.4427 -0.3902 -1.2999
   91MOL0     H12285   2.962   3.156  10.989 -2.6590  1.9417  0.2793
   92MOL0     O12286   2.789   0.634   5.312  0.0890 -0.2372  0.1766
   92MOL0     C12287   2.667   0.628   5.299  0.2251 -0.4997  0.4944
   92MOL0     O12288   2.586   0.534   5.368 -0.8007  0.6639  0.1253
   92MOL0     C12289   2.655   0.454   5.461  0.8367  0.0397  0.1959
   92MOL0     C12290   2.603   0.456   5.587 -0.3875  0.0857  0.6036
   92MOL0     C12291   2.651   0.369   5.688 -1.0512 -0.2433 -0.0268
   92MOL0     C12292   2.765   0.288   5.664  0.5551  0.0646 -0.1287
   92MOL0     O12293   2.810   0.206   5.770 -0.6856  0.4925  0.7081
   92MOL0     C12294   2.933   0.269   5.821  0.1815  0.7109 -0.3827
   92MOL0     C12295   2.984   0.198   5.955  0.3825 -0.0193  1.2400
   92MOL0     C12296   3.127   0.235   5.997  0.2892  0.4151 -0.4500
   92MOL0     C12297   3.130   0.339   6.102 -1.0191 -0.5294 -1.0325
   92MOL0     C12298   3.278   0.341   6.156  1.1823  0.1080  0.5122
   92MOL0     C12299   3.304   0.467   6.241  0.2691 -0.1796 -0.2974
   92MOL0     C12300   3.451   0.498   6.271  0.0433 -0.0359  0.2057
   92MOL0     C12301   3.459   0.605   6.378 -0.3891  0.0388  0.6291
   92MOL0     N12302   3.436   0.747   6.340  0.9726  0.2459  0.0501
   92MOL0     C12303   3.489   0.815   6.232 -1.0152 -0.0831  0.7623
   92MOL0     C12304   3.425   0.929   6.232  1.0394 -0.9684  0.7667
   92MOL0     C12305   3.452   1.049   6.151 -0.2964  0.2200  0.5617
   92MOL0     C12306   3.467   1.010   5.999 -0.7082 -0.1432  0.2508
   92MOL0     C12307   3.435   1.133   5.915 -0.0986  0.3927  0.1956
   92MOL0     C12308   3.281   1.143   5.864 -0.6924  0.3953  0.2661
   92MOL0     O12309   3.172   1.142   5.961 -0.4532 -0.0592  0.2576
   92MOL0     C12310   3.041   1.162   5.919 -0.6811  0.8966 -0.2915
   92MOL0     C12311   2.951   1.173   6.020  0.6908  1.0069  0.0702
   92MOL0     C12312   2.816   1.203   5.983  0.0575 -0.3181  0.1870
   92MOL0     C12313   2.784   1.235   5.856 -0.6327  0.4538  0.5937
   92MOL0     C12314   2.647   1.279   5.808  1.0181  0.1855  0.0326
   92MOL0     O12315   2.629   1.306   5.678  0.7731  0.0455 -0.0560
   92MOL0     C12316   2.524   1.377   5.621  0.1181  0.2911 -0.1508
   92MOL0     C12317   2.390   1.353   5.657 -0.2573  0.3296 -0.6505
   92MOL0     C12318   2.288   1.430   5.611 -0.2877 -1.0695  0.0894
   92MOL0     C12319   2.319   1.516   5.512 -1.0913 -0.4444  1.0613
   92MOL0     O12320   2.214   1.595   5.465 -0.4059  0.1624 -0.3616
   92MOL0     C12321   2.238   1.702   5.370 -0.0989  0.6973  0.1367
   92MOL0     C12322   2.099   1.754   5.304  0.1626 -0.3629  0.1765
   92MOL0     C12323   1.994   1.785   5.406 -0.5350 -0.2125  0.0399
   92MOL0     C12324   1.914   1.656   5.455  0.3971  0.0032 -0.5423
   92MOL0     C12325   1.836   1.688   5.588 -0.5321  0.4616  0.2244
   92MOL0     C12326   1.793   1.566   5.669  0.0987  0.1541  0.9019
   92MOL0     C12327   1.746   1.617   5.805  0.3350 -0.5417 -0.2018
   92MOL0     C12328   1.697   1.505   5.882  0.3716  0.0123  0.3025
   92MOL0    Cl12329   1.819   1.381   5.941 -0.3234  0.2629  0.3246
   92MOL0     C12330   2.453   1.555   5.481  0.3596 -0.3966 -0.0773
   92MOL0     C12331   2.561   1.479   5.530  0.0973  0.7313  0.0314
   92MOL0     O12332   2.560   1.301   5.894 -0.6823 -0.6066 -0.9395
   92MOL0     C12333   2.885   1.231   5.759  0.3589  0.1857 -1.1485
   92MOL0     C12334   3.013   1.195   5.789 -0.4938 -0.4172  0.6631
   92MOL0     N12335   3.317   0.919   6.317  0.3445  1.2631 -0.1566
   92MOL0     N12336   3.325   0.811   6.384 -0.5183 -0.3922  0.4500
   92MOL0     C12337   2.830   0.297   5.536 -0.4482  0.3048 -0.5435
   92MOL0     C12338   2.771   0.375   5.432  0.5400 -0.4929 -0.1129
   92MOL0     C12339   2.590   0.729   5.218 -0.9972 -0.1693  0.5559
   92MOL0     C12340   2.468   0.772   5.267  0.0116  0.2427 -0.4859
   92MOL0     C12341   2.381   0.865   5.209 -0.7940 -0.8579 -0.7777
   92MOL0     C12342   2.435   0.920   5.091 -0.4514 -0.5858 -0.1046
   92MOL0     O12343   2.351   0.998   5.015 -0.0748 -0.1687  0.1569
   92MOL0     C12344   2.203   1.004   5.026 -0.4560 -0.3747 -0.4009
   92MOL0     C12345   2.155   1.097   4.913  0.4328 -0.4891 -0.1189
   92MOL0     C12346   2.216   1.038   4.784  0.1977 -0.2876  0.6579
   92MOL0     C12347   2.159   1.097   4.649  1.7147 -0.7032  0.3544
   92MOL0     C12348   2.017   1.052   4.641  0.6287 -1.0981 -0.8688
   92MOL0     C12349   1.896   1.026   4.635  0.1109 -0.4925  1.5839
   92MOL0     C12350   2.560   0.894   5.048 -0.8868 -0.1848  0.8012
   92MOL0     C12351   2.640   0.807   5.116  0.6579  0.2837  0.2042
   92MOL0     C12352   2.788   0.803   5.074  0.0461  0.0141  0.2014
   92MOL0     H12353   2.511   0.512   5.602  0.7635  3.2995 -2.6469
   92MOL0     H12354   2.606   0.376   5.787  0.2645 -1.9771  0.7634
   92MOL0     H12355   3.011   0.278   5.744  1.3490  4.0120  0.9966
   92MOL0     H12356   2.912   0.375   5.837 -2.3209  0.0465  1.2651
   92MOL0     H12357   2.969   0.090   5.949  3.0982 -0.4261  0.5020
   92MOL0     H12358   2.926   0.238   6.039  0.0181  0.5260  0.7415
   92MOL0     H12359   3.186   0.269   5.912 -1.1189  1.0101 -1.2210
   92MOL0     H12360   3.179   0.147   6.036 -0.6463 -0.2619 -0.6884
   92MOL0     H12361   3.108   0.435   6.055  2.2387  0.9571  0.2038
   92MOL0     H12362   3.070   0.313   6.190 -0.5614 -1.6846 -1.0525
   92MOL0     H12363   3.296   0.248   6.210 -0.5201 -1.0995 -0.8819
   92MOL0     H12364   3.343   0.336   6.069 -1.9272 -1.1701 -1.9316
   92MOL0     H12365   3.258   0.554   6.194 -1.3613  0.7607  2.7316
   92MOL0     H12366   3.250   0.453   6.335  0.8278  0.7842  0.1790
   92MOL0     H12367   3.508   0.539   6.187 -1.0364  0.9889 -0.0560
   92MOL0     H12368   3.490   0.401   6.305  1.8755  0.6434  0.1236
   92MOL0     H12369   3.396   0.570   6.461 -1.7611  3.0466  0.9936
   92MOL0     H12370   3.553   0.608   6.433 -1.0791 -3.7746  2.4023
   92MOL0     H12371   3.567   0.781   6.165 -1.5471 -0.0540  0.1118
   92MOL0     H12372   3.375   1.123   6.176 -0.0614  0.8872 -0.5839
   92MOL0     H12373   3.551   1.086   6.181 -0.0185 -2.2353  3.0013
   92MOL0     H12374   3.568   0.971   5.985  0.0478 -0.0930  4.2372
   92MOL0     H12375   3.403   0.922   5.984  0.9113 -1.0780 -1.5944
   92MOL0     H12376   3.487   1.123   5.819 -2.0797  0.2527 -0.9119
   92MOL0     H12377   3.467   1.229   5.957 -2.2819  1.9374 -1.4127
   92MOL0     H12378   3.265   1.064   5.790 -0.0656 -0.1379  0.6850
   92MOL0     H12379   3.292   1.233   5.803 -3.5452 -0.1209 -1.1977
   92MOL0     H12380   2.980   1.142   6.120 -2.7922 -1.9535  0.3935
   92MOL0     H12381   2.732   1.192   6.051  0.3791 -0.3660  0.5755
   92MOL0     H12382   2.367   1.286   5.739  3.0806  2.1654  2.0694
   92MOL0     H12383   2.189   1.430   5.655  0.3510 -0.8577  1.5838
   92MOL0     H12384   2.307   1.773   5.415  2.4911 -2.1312  0.9947
   92MOL0     H12385   2.283   1.655   5.282 -2.0758 -3.4382  1.0518
   92MOL0     H12386   2.132   1.845   5.255  2.0798 -0.7445  0.6889
   92MOL0     H12387   2.067   1.675   5.234 -1.9972  0.0869  0.5726
   92MOL0     H12388   2.046   1.830   5.491  2.2396 -1.4686 -0.8683
   92MOL0     H12389   1.922   1.858   5.367 -2.2670 -1.6314  0.4448
   92MOL0     H12390   1.990   1.581   5.480  2.1827  1.1394 -2.2804
   92MOL0     H12391   1.849   1.621   5.375  0.4341  1.3269 -1.1791
   92MOL0     H12392   1.765   1.769   5.567 -0.6212  0.0771 -1.0330
   92MOL0     H12393   1.916   1.732   5.649  2.5251 -1.4195 -2.1580
   92MOL0     H12394   1.718   1.515   5.608  0.6144  0.4536  0.0095
   92MOL0     H12395   1.873   1.492   5.669 -2.2850 -2.6022 -0.0907
   92MOL0     H12396   1.669   1.693   5.790 -0.8922 -1.6983  0.0460
   92MOL0     H12397   1.825   1.667   5.864 -0.7918  1.6947 -0.4649
   92MOL0     H12398   1.649   1.551   5.968 -0.3883 -2.4941  1.3047
   92MOL0     H12399   1.622   1.453   5.821  0.8722  0.9593 -1.1953
   92MOL0     H12400   2.472   1.642   5.418  1.9896  0.4171  1.4511
   92MOL0     H12401   2.664   1.507   5.511 -0.5069  4.8155  1.7323
   92MOL0     H12402   2.872   1.250   5.653  1.4490 -0.3330 -1.3866
   92MOL0     H12403   3.083   1.195   5.706 -3.3924  0.5552 -1.9380
   92MOL0     H12404   2.915   0.238   5.504  2.1454  4.5215 -2.2680
   92MOL0     H12405   2.821   0.382   5.336  1.5464  1.3936  0.5021
   92MOL0     H12406   2.429   0.708   5.345  2.0323 -2.8862 -1.8597
   92MOL0     H12407   2.286   0.890   5.253 -0.4501 -2.6726  1.1287
   92MOL0     H12408   2.177   1.057   5.119  0.0256 -1.6636  0.4911
   92MOL0     H12409   2.151   0.908   5.024 -1.5990  0.2318 -0.4850
   92MOL0     H12410   2.198   1.195   4.938 -1.4192  0.2930  0.1573
   92MOL0     H12411   2.046   1.108   4.913  0.3507 -1.1533 -1.0382
   92MOL0     H12412   2.215   0.929   4.794  0.9411 -0.1840  2.0590
   92MOL0     H12413   2.321   1.069   4.789 -0.0847  0.6279  1.1208
   92MOL0     H12414   2.158   1.206   4.655 -2.1103 -0.6927  4.4889
   92MOL0     H12415   2.217   1.071   4.559  1.8728  1.4100 -0.2099
   92MOL0     H12416   1.791   1.003   4.635 -0.8116  3.1637  2.5310
   92MOL0     H12417   2.586   0.945   4.955 -4.3193  3.3280  1.5109
   92MOL0     H12418   2.817   0.700   5.055 -2.2394 -0.6065 -0.1994
   92MOL0     H12419   2.802   0.863   4.983  0.8893 -3.2060 -1.9582
   92MOL0     H12420   2.856   0.845   5.149 -2.4296  0.3114  2.4313
   93MOL0     O12421   2.757   6.028   4.572  0.2816  0.3077  0.2486
   93MOL0     C12422   2.859   5.963   4.543 -0.4104 -0.3691  0.2312
   93MOL0     O12423   2.870   5.831   4.573 -0.4607  0.1598  0.4587
   93MOL0     C12424   2.756   5.763   4.602  1.2955  0.6090  1.0083
   93MOL0     C12425   2.716   5.740   4.735  0.1229  0.8425  0.3486
   93MOL0     C12426   2.598   5.676   4.767  0.2657  0.9969  0.0899
   93MOL0     C12427   2.517   5.647   4.656 -0.1368 -0.2464  0.6312
   93MOL0     O12428   2.385   5.602   4.679 -0.0231  0.2400  0.0358
   93MOL0     C12429   2.334   5.623   4.809 -0.4729 -0.3048  0.3489
   93MOL0     C12430   2.314   5.770   4.843  0.1713  0.1605 -1.7202
   93MOL0     C12431   2.174   5.801   4.905  0.7543  0.8617 -0.2558
   93MOL0     C12432   2.177   5.889   5.025  0.4572 -0.3837  0.0373
   93MOL0     C12433   2.038   5.896   5.101  0.8064  0.2066 -0.0141
   93MOL0     C12434   1.906   5.906   5.017  0.6018 -0.6436 -0.5470
   93MOL0     C12435   1.782   5.935   5.111 -0.5949 -0.1134  0.6562
   93MOL0     C12436   1.660   5.980   5.021 -0.9250 -0.6873 -0.5051
   93MOL0     N12437   1.674   6.116   4.983 -0.5965  0.8356  0.0770
   93MOL0     C12438   1.686   6.167   4.856 -0.0964  0.7082 -0.3876
   93MOL0     C12439   1.724   6.296   4.879  0.5731  0.3432  1.5139
   93MOL0     C12440   1.747   6.400   4.765  0.2581  0.0649  0.8938
   93MOL0     C12441   1.853   6.345   4.676  0.1652  0.3868  0.4605
   93MOL0     C12442   1.980   6.305   4.750  0.1737 -0.3216  0.4290
   93MOL0     C12443   2.099   6.274   4.663 -0.3662  0.0355 -0.4333
   93MOL0     O12444   2.103   6.129   4.637  0.3780 -0.6995  0.7981
   93MOL0     C12445   2.204   6.083   4.551  0.4567 -1.3419  0.6858
   93MOL0     C12446   2.300   6.164   4.495 -0.0055 -0.5559  0.9232
   93MOL0     C12447   2.392   6.119   4.400  0.3967 -0.0046  0.0557
   93MOL0     C12448   2.386   5.978   4.367 -0.3488  0.4496 -0.4845
   93MOL0     C12449   2.473   5.925   4.255 -0.5158  0.9629  0.5590
   93MOL0     O12450   2.558   6.016   4.197 -0.3611 -0.0676  0.0087
   93MOL0     C12451   2.664   5.974   4.111 -0.4774  0.8223 -0.4275
   93MOL0     C12452   2.658   5.869   4.011 -0.4346  0.1969  0.9537
   93MOL0     C12453   2.760   5.863   3.910 -0.3501  0.2568 -0.7044
   93MOL0     C12454   2.872   5.938   3.910 -0.2598 -0.5947 -0.0619
   93MOL0     O12455   2.965   5.930   3.810  0.2052 -0.5885 -0.3282
   93MOL0     C12456   3.056   5.818   3.833 -0.6265 -0.3569 -0.1015
   93MOL0     C12457   3.109   5.747   3.704 -0.4175 -0.1858  0.4540
   93MOL0     C12458   3.226   5.663   3.718  0.0046  0.9217 -0.4166
   93MOL0     C12459   3.356   5.732   3.694 -0.0697  0.8012  0.1535
   93MOL0     C12460   3.481   5.639   3.706 -0.5088 -0.8274  0.3756
   93MOL0     C12461   3.597   5.724   3.672  0.3571  0.6310  0.8559
   93MOL0     C12462   3.718   5.645   3.638 -0.2736 -0.4192  0.0373
   93MOL0     C12463   3.844   5.698   3.714 -0.1605 -0.8770 -1.2177
   93MOL0    Cl12464   4.002   5.627   3.658 -0.4041  0.4109  0.1772
   93MOL0     C12465   2.889   6.029   4.019  0.4661 -0.5940  0.2368
   93MOL0     C12466   2.784   6.049   4.109 -0.0252 -0.6049 -0.0973
   93MOL0     O12467   2.482   5.801   4.237  0.4241 -0.1550  0.2614
   93MOL0     C12468   2.300   5.896   4.434  0.1174  1.6046 -0.3861
   93MOL0     C12469   2.208   5.947   4.526  0.1249 -0.1252 -0.3116
   93MOL0     N12470   1.727   6.331   5.016 -0.3666  0.9727  0.4366
   93MOL0     N12471   1.689   6.214   5.073  0.0098 -0.0221  0.7387
   93MOL0     C12472   2.546   5.664   4.527 -0.9552 -0.3937  0.4447
   93MOL0     C12473   2.677   5.720   4.497  0.8025 -0.5234 -0.5517
   93MOL0     C12474   2.983   6.035   4.514  0.5704 -0.7401  0.0169
   93MOL0     C12475   3.019   6.153   4.587 -0.4776  0.2235 -0.6182
   93MOL0     C12476   3.145   6.209   4.574 -0.4678  1.3549 -0.2041
   93MOL0     C12477   3.232   6.170   4.466 -0.2000  0.1900  1.1152
   93MOL0     O12478   3.348   6.240   4.435  0.1103 -0.2444  0.4701
   93MOL0     C12479   3.320   6.368   4.365 -0.8610  0.4881  0.3755
   93MOL0     C12480   3.456   6.409   4.313 -0.0951 -1.0711  0.0769
   93MOL0     C12481   3.453   6.566   4.278 -0.0509  0.3735 -0.8365
   93MOL0     C12482   3.329   6.596   4.189  0.3536  0.5315  0.3446
   93MOL0     C12483   3.320   6.738   4.157 -0.6177  0.8130  0.7627
   93MOL0     C12484   3.331   6.856   4.147  0.2334  0.5848 -0.6307
   93MOL0     C12485   3.194   6.061   4.388  0.8955  0.1935 -0.2692
   93MOL0     C12486   3.073   5.988   4.422 -0.8737 -0.6412  0.5696
   93MOL0     C12487   3.039   5.863   4.341  0.5711  1.0711 -0.4452
   93MOL0     H12488   2.784   5.769   4.814  0.9637 -0.9793  0.3488
   93MOL0     H12489   2.574   5.657   4.871 -0.5609  3.7940  0.4868
   93MOL0     H12490   2.237   5.573   4.802 -0.6400  0.0968 -0.2279
   93MOL0     H12491   2.392   5.578   4.891  0.8883  3.1828  1.5032
   93MOL0     H12492   2.319   5.826   4.749  0.2143 -1.7102 -2.8850
   93MOL0     H12493   2.392   5.809   4.909 -1.8822  0.8634  0.4524
   93MOL0     H12494   2.134   5.706   4.944 -1.5318  1.1569 -1.6610
   93MOL0     H12495   2.118   5.853   4.826  1.3408  1.8371 -0.0445
   93MOL0     H12496   2.255   5.851   5.092  0.3096 -2.5389 -0.9269
   93MOL0     H12497   2.202   5.988   4.988 -0.1984 -0.0762  0.3996
   93MOL0     H12498   2.025   5.795   5.138 -0.0806 -0.7416 -2.6484
   93MOL0     H12499   2.049   5.970   5.181  1.3552  0.3551 -0.2181
   93MOL0     H12500   1.921   5.994   4.954 -0.3862 -0.1023 -0.0457
   93MOL0     H12501   1.883   5.816   4.960 -1.0452 -0.7960  0.2971
   93MOL0     H12502   1.812   6.022   5.171  2.4889 -0.3878 -0.3214
   93MOL0     H12503   1.764   5.848   5.174 -0.7315 -0.4266  0.1883
   93MOL0     H12504   1.656   5.923   4.928  1.1193 -2.1700  0.2377
   93MOL0     H12505   1.571   5.974   5.084 -1.1848 -0.2908 -0.8319
   93MOL0     H12506   1.660   6.118   4.762  0.4405 -0.2573 -0.0507
   93MOL0     H12507   1.662   6.427   4.702  1.4481 -1.2301 -1.3754
   93MOL0     H12508   1.785   6.493   4.810 -1.7822  0.8268  1.1680
   93MOL0     H12509   1.817   6.259   4.619  1.9205 -0.5476  0.6872
   93MOL0     H12510   1.872   6.415   4.595  0.6979  0.9291  1.0436
   93MOL0     H12511   1.970   6.218   4.816  0.3099  0.8172  2.0246
   93MOL0     H12512   2.007   6.386   4.820  2.1969 -0.5331 -0.0416
   93MOL0     H12513   2.183   6.301   4.727 -1.6886 -1.4344  2.1176
   93MOL0     H12514   2.101   6.329   4.569 -1.5773 -1.5782 -1.4710
   93MOL0     H12515   2.302   6.268   4.527 -0.0769 -1.2447  3.3599
   93MOL0     H12516   2.465   6.189   4.360 -1.3542  1.3516 -0.9340
   93MOL0     H12517   2.567   5.813   3.997 -0.6325  0.7179  0.0614
   93MOL0     H12518   2.741   5.803   3.821 -1.5012  0.1911 -0.4396
   93MOL0     H12519   3.139   5.871   3.882 -1.7194  0.3486  1.0538
   93MOL0     H12520   3.021   5.748   3.909 -0.1305  0.5223  0.9733
   93MOL0     H12521   3.033   5.685   3.655 -1.3275  1.7233 -0.6727
   93MOL0     H12522   3.133   5.815   3.622  1.6203 -3.2965 -1.7715
   93MOL0     H12523   3.225   5.614   3.816  1.8461 -1.0534 -1.3133
   93MOL0     H12524   3.213   5.584   3.644 -1.3594  0.5378  0.2026
   93MOL0     H12525   3.373   5.821   3.755  0.2920  1.4138 -0.8220
   93MOL0     H12526   3.355   5.762   3.589 -2.1902 -0.3798 -0.2218
   93MOL0     H12527   3.484   5.555   3.636  0.2124 -0.1708 -0.3942
   93MOL0     H12528   3.474   5.608   3.811 -0.4382  1.3882  1.0936
   93MOL0     H12529   3.576   5.782   3.581  1.8771 -0.2880 -0.1406
   93MOL0     H12530   3.625   5.793   3.753 -1.0272  0.9091  1.1175
   93MOL0     H12531   3.731   5.663   3.530 -1.8570  0.3027 -0.0616
   93MOL0     H12532   3.699   5.541   3.666 -1.5702  0.1733  1.4827
   93MOL0     H12533   3.847   5.805   3.694 -1.4636 -1.1968 -3.3631
   93MOL0     H12534   3.825   5.675   3.820 -1.9139  3.9390 -0.2211
   93MOL0     H12535   2.972   6.097   4.032 -0.2261  0.5768 -1.1243
   93MOL0     H12536   2.810   6.110   4.196 -0.5880 -1.7505  0.9101
   93MOL0     H12537   2.296   5.789   4.418 -2.0103  1.7414 -0.9602
   93MOL0     H12538   2.141   5.875   4.573 -0.6173  0.2934 -0.6986
   93MOL0     H12539   2.481   5.620   4.453 -0.9257  1.7720 -0.9596
   93MOL0     H12540   2.706   5.716   4.392 -2.6218 -2.4977 -1.5697
   93MOL0     H12541   2.958   6.200   4.664  1.6209 -1.1879  2.0750
   93MOL0     H12542   3.194   6.278   4.642  0.8675 -1.6568  2.1042
   93MOL0     H12543   3.292   6.443   4.439  1.2699 -2.0879  4.1336
   93MOL0     H12544   3.242   6.356   4.289 -1.8878 -0.1021  1.4725
   93MOL0     H12545   3.482   6.346   4.228 -0.5197 -2.2981  0.8395
   93MOL0     H12546   3.526   6.397   4.397  0.3771 -2.2806 -0.4776
   93MOL0     H12547   3.541   6.581   4.215 -0.1138  0.3754 -0.9236
   93MOL0     H12548   3.453   6.634   4.364  0.3723  1.9400 -2.0370
   93MOL0     H12549   3.337   6.552   4.090 -0.3333 -0.6847  0.7960
   93MOL0     H12550   3.241   6.572   4.250  3.0151 -2.1268  3.6037
   93MOL0     H12551   3.335   6.963   4.147 -1.3188  0.7167 -2.4531
   93MOL0     H12552   3.264   6.025   4.313 -0.5988 -1.8139 -0.7924
   93MOL0     H12553   2.950   5.875   4.278  0.6112 -0.3343 -0.7914
   93MOL0     H12554   3.125   5.840   4.278  0.1705 -1.1046 -0.2744
   93MOL0     H12555   3.007   5.778   4.401  0.3953  0.7890 -0.9293
   94MOL0     O12556   0.208   2.388   4.508 -0.9651 -0.5236  0.5171
   94MOL0     C12557   0.171   2.347   4.401  0.1190 -0.9123 -0.0640
   94MOL0     O12558   0.130   2.223   4.373 -0.1208  0.4514 -0.4256
   94MOL0     C12559   0.100   2.131   4.470 -0.5484  0.0727 -0.0674
   94MOL0     C12560   0.190   2.101   4.582  0.5803 -0.1087  1.2262
   94MOL0     C12561   0.163   2.014   4.682 -0.1628 -0.1426 -0.3131
   94MOL0     C12562   0.038   1.962   4.690 -0.8662 -0.3847 -0.2620
   94MOL0     O12563   0.006   1.891   4.807 -0.2253  0.4306 -0.0365
   94MOL0     C12564   0.072   1.897   4.935 -0.0503  0.0021  1.0243
   94MOL0     C12565   0.058   2.035   4.987 -0.0476  0.3992 -0.0843
   94MOL0     C12566  -0.096   2.074   4.995 -0.5706  0.6015  0.3988
   94MOL0     C12567  -0.131   2.179   5.099  0.0853 -0.2274  0.0898
   94MOL0     C12568  -0.278   2.201   5.103 -0.4740 -0.6473 -0.6241
   94MOL0     C12569  -0.323   2.315   5.194  0.2289  1.0569 -0.9195
   94MOL0     C12570  -0.250   2.446   5.178 -1.2120  0.1690  0.4460
   94MOL0     C12571  -0.263   2.513   5.040  0.2006  0.1443  0.6002
   94MOL0     N12572  -0.272   2.656   5.059  0.1303  1.1586  0.2242
   94MOL0     C12573  -0.167   2.737   5.025  0.3236  0.2872  0.5112
   94MOL0     C12574  -0.226   2.858   5.050 -0.7031  0.3334  0.5899
   94MOL0     C12575  -0.139   2.976   5.031  0.6289 -0.2152  0.3258
   94MOL0     C12576  -0.166   3.093   5.140  0.8687 -0.1619 -0.2278
   94MOL0     C12577  -0.139   3.038   5.284  0.2578  1.0160 -0.7409
   94MOL0     C12578  -0.006   2.990   5.324 -0.1726 -0.6894 -0.8278
   94MOL0     O12579   0.028   2.869   5.265 -0.2100  0.6050  0.0827
   94MOL0     C12580   0.151   2.825   5.283 -0.5450 -0.0963 -0.8604
   94MOL0     C12581   0.253   2.903   5.358  1.1214 -0.3891 -0.2787
   94MOL0     C12582   0.374   2.838   5.389  1.0126  0.2740 -0.1311
   94MOL0     C12583   0.407   2.705   5.340 -0.2658 -0.2068 -0.1460
   94MOL0     C12584   0.528   2.642   5.394 -0.4907  0.4429  0.8798
   94MOL0     O12585   0.525   2.505   5.373  0.7752  0.5036 -0.5618
   94MOL0     C12586   0.617   2.436   5.439  0.4730  0.3706 -0.2927
   94MOL0     C12587   0.732   2.408   5.374  0.1104  0.1314 -0.1645
   94MOL0     C12588   0.832   2.324   5.429  0.6376  0.0855 -0.3800
   94MOL0     C12589   0.801   2.271   5.549 -0.3553 -0.7939  0.0050
   94MOL0     O12590   0.895   2.189   5.605 -0.5559 -0.7218  0.2946
   94MOL0     C12591   0.878   2.131   5.740  0.4886  0.1838 -0.5121
   94MOL0     C12592   1.002   2.052   5.762 -0.5324 -0.2457  1.0004
   94MOL0     C12593   1.133   2.139   5.749  0.1667  0.8480 -0.1400
   94MOL0     C12594   1.251   2.042   5.727 -0.1097 -0.0476  0.3544
   94MOL0     C12595   1.371   2.121   5.684 -0.5148 -0.1294  0.1433
   94MOL0     C12596   1.487   2.028   5.628 -0.4052 -0.2625  0.0306
   94MOL0     C12597   1.610   2.117   5.602  0.5406  0.3208  0.0914
   94MOL0     C12598   1.732   2.021   5.576  0.5117  0.8523  0.5740
   94MOL0    Cl12599   1.874   2.108   5.539  0.2807 -0.6115 -0.3266
   94MOL0     C12600   0.693   2.316   5.619  1.0436 -0.1336  0.2169
   94MOL0     C12601   0.594   2.402   5.566  0.0149  0.6978 -0.5039
   94MOL0     O12602   0.625   2.706   5.434  0.6505 -0.7439 -0.3695
   94MOL0     C12603   0.316   2.645   5.261  0.9164  0.6219  0.7721
   94MOL0     C12604   0.188   2.701   5.230  0.4804  0.7860  0.4715
   94MOL0     N12605  -0.358   2.846   5.092 -0.2042  0.5484 -0.0408
   94MOL0     N12606  -0.381   2.716   5.112 -0.0263  0.7364  0.4889
   94MOL0     C12607  -0.063   2.004   4.596 -0.4598  0.1108 -0.7251
   94MOL0     C12608  -0.027   2.088   4.484 -0.0903  0.4523  0.3378
   94MOL0     C12609   0.163   2.443   4.285 -0.7632  0.1251  0.2898
   94MOL0     C12610   0.171   2.581   4.315 -0.0847 -0.1086 -0.6218
   94MOL0     C12611   0.189   2.678   4.219 -0.4827 -0.2536  0.7063
   94MOL0     C12612   0.209   2.643   4.084 -0.6723 -0.0793 -0.1614
   94MOL0     O12613   0.234   2.741   3.988 -0.6139  0.0970 -0.2651
   94MOL0     C12614   0.242   2.875   4.033 -0.4958 -0.0584  1.1702
   94MOL0     C12615   0.295   2.969   3.932  0.0368  0.0901  0.3357
   94MOL0     C12616   0.295   3.119   3.983  1.0935 -0.3457  0.0294
   94MOL0     C12617   0.331   3.215   3.869  0.0241 -0.0108  0.1463
   94MOL0     C12618   0.295   3.355   3.902 -1.1564 -0.3184 -0.8031
   94MOL0     C12619   0.274   3.471   3.931  0.3276 -0.0089  0.7520
   94MOL0     C12620   0.196   2.507   4.050  0.4989  0.1793 -0.7414
   94MOL0     C12621   0.178   2.405   4.150  0.0237 -0.7726  0.6627
   94MOL0     C12622   0.174   2.264   4.085 -0.0101  0.6596 -1.1309
   94MOL0     H12623   0.292   2.139   4.579 -0.0790  1.7676 -1.2046
   94MOL0     H12624   0.239   1.989   4.755  0.3257 -1.0306 -1.1080
   94MOL0     H12625   0.020   1.822   4.995  0.0948 -0.7059  0.2867
   94MOL0     H12626   0.175   1.861   4.923 -0.8472 -2.0992 -0.0016
   94MOL0     H12627   0.117   2.105   4.927  3.0126 -1.1121  1.0001
   94MOL0     H12628   0.116   2.044   5.079 -1.3198 -1.2168  0.9472
   94MOL0     H12629  -0.148   1.986   5.034 -0.1367  0.8365  1.5454
   94MOL0     H12630  -0.138   2.095   4.896 -2.5985  3.1230  1.6974
   94MOL0     H12631  -0.091   2.166   5.200  3.4968  3.6212 -0.4993
   94MOL0     H12632  -0.075   2.261   5.055 -0.5966 -1.1199 -2.6088
   94MOL0     H12633  -0.310   2.226   5.001  2.1417 -1.0784 -1.6456
   94MOL0     H12634  -0.327   2.109   5.136 -2.8231  1.0544  0.9794
   94MOL0     H12635  -0.429   2.329   5.171 -0.0197  5.5586  1.6604
   94MOL0     H12636  -0.307   2.282   5.297  1.2912  1.1962 -1.0208
   94MOL0     H12637  -0.143   2.426   5.180 -0.5455  3.0415 -1.1569
   94MOL0     H12638  -0.278   2.514   5.259 -2.0729  0.4456 -0.0747
   94MOL0     H12639  -0.172   2.492   4.982  1.3059 -0.6866  2.5250
   94MOL0     H12640  -0.352   2.470   4.992 -1.8179  1.9825  2.4914
   94MOL0     H12641  -0.066   2.718   4.990 -0.7959 -1.3275 -2.1346
   94MOL0     H12642  -0.032   2.954   5.027  0.2811 -1.8388 -1.7332
   94MOL0     H12643  -0.155   3.010   4.928  0.4306 -1.8287 -0.2059
   94MOL0     H12644  -0.108   3.185   5.130 -1.5183  1.4396 -0.0731
   94MOL0     H12645  -0.266   3.136   5.138  2.3952  3.7130 -1.0464
   94MOL0     H12646  -0.207   2.954   5.302  2.2458 -0.9203 -1.7985
   94MOL0     H12647  -0.151   3.124   5.351  1.1770  0.8221 -0.3086
   94MOL0     H12648  -0.004   2.982   5.433  1.1295 -0.0463 -0.7899
   94MOL0     H12649   0.047   3.076   5.284  0.8139 -0.5438  0.7297
   94MOL0     H12650   0.240   3.007   5.387  3.1456 -0.1954  0.1020
   94MOL0     H12651   0.444   2.886   5.457 -0.7599 -0.7534  2.5731
   94MOL0     H12652   0.739   2.455   5.276 -2.8454  1.0506 -0.0198
   94MOL0     H12653   0.918   2.274   5.385 -0.3321 -0.9060 -1.1882
   94MOL0     H12654   0.871   2.204   5.822  1.5325 -2.0114  1.6537
   94MOL0     H12655   0.786   2.072   5.733 -0.2922  1.4713 -1.5086
   94MOL0     H12656   1.006   2.021   5.867 -0.9394  1.2881  1.4936
   94MOL0     H12657   1.012   1.973   5.686 -1.0451 -0.5649  1.2532
   94MOL0     H12658   1.125   2.222   5.679  1.7437  1.0263 -0.1524
   94MOL0     H12659   1.171   2.185   5.841  2.0358 -0.0915 -0.3886
   94MOL0     H12660   1.226   1.974   5.645  2.4867 -0.3146 -0.3127
   94MOL0     H12661   1.279   1.970   5.805  0.9821 -0.1536 -0.1266
   94MOL0     H12662   1.406   2.180   5.768  2.6910  0.6346 -1.5697
   94MOL0     H12663   1.348   2.202   5.615  2.2473 -0.1875 -0.9861
   94MOL0     H12664   1.511   1.945   5.695  0.2925 -0.1465 -0.0742
   94MOL0     H12665   1.450   1.982   5.536 -0.2003  2.0546 -1.2822
   94MOL0     H12666   1.638   2.179   5.688  1.0538  1.3720 -0.8078
   94MOL0     H12667   1.599   2.189   5.520  0.1237  0.3065  0.1367
   94MOL0     H12668   1.743   1.955   5.663  0.2885  1.2417  0.9027
   94MOL0     H12669   1.702   1.955   5.494 -0.5119  1.9823  0.0165
   94MOL0     H12670   0.682   2.293   5.725 -1.8480  1.7054  0.4342
   94MOL0     H12671   0.507   2.435   5.622 -2.0357 -0.0911 -2.9944
   94MOL0     H12672   0.337   2.555   5.205 -2.3274  2.0379 -3.1896
   94MOL0     H12673   0.116   2.648   5.168 -0.1567 -0.3101  2.0843
   94MOL0     H12674  -0.169   1.984   4.610  0.1170 -1.7275  1.8759
   94MOL0     H12675  -0.086   2.111   4.396 -0.4297  1.4108  0.8067
   94MOL0     H12676   0.177   2.625   4.414  0.0258 -0.3687 -0.5117
   94MOL0     H12677   0.196   2.779   4.259 -1.0273 -1.0100  2.8333
   94MOL0     H12678   0.314   2.871   4.115  1.9036  1.3750 -0.7194
   94MOL0     H12679   0.146   2.908   4.074 -0.9425  1.4775 -0.9497
   94MOL0     H12680   0.238   2.965   3.839  1.1489  3.0487 -0.6034
   94MOL0     H12681   0.394   2.934   3.903 -0.3645  0.4624 -1.6629
   94MOL0     H12682   0.374   3.129   4.058  1.2345  0.8436 -0.2738
   94MOL0     H12683   0.191   3.133   4.017  0.6568 -1.4693 -0.7915
   94MOL0     H12684   0.437   3.197   3.845  1.0792  1.9602  2.9269
   94MOL0     H12685   0.282   3.180   3.778  1.5260 -3.3425  0.4607
   94MOL0     H12686   0.250   3.573   3.953 -0.6751 -0.4633  1.8547
   94MOL0     H12687   0.201   2.481   3.945 -0.3680 -1.3303 -0.4368
   94MOL0     H12688   0.068   2.235   4.089  0.2558 -0.2307  0.6916
   94MOL0     H12689   0.209   2.257   3.982  1.9585  2.9489 -0.6898
   94MOL0     H12690   0.232   2.189   4.140  0.6968  1.7471 -0.3508
   95MOL0     O12691   6.379  10.198   8.390  0.0127 -0.5609 -0.1169
   95MOL0     C12692   6.414  10.171   8.280 -0.6471 -0.7115  0.4219
   95MOL0     O12693   6.554  10.166   8.249  0.6677  0.5262  0.1426
   95MOL0     C12694   6.655  10.176   8.336  0.1433 -0.0728 -0.5217
   95MOL0     C12695   6.773  10.213   8.275  0.5948 -0.5087 -0.4019
   95MOL0     C12696   6.884  10.246   8.348  0.4990 -0.8219  0.0317
   95MOL0     C12697   6.884  10.231   8.488  0.7364 -0.0972 -0.0715
   95MOL0     O12698   7.000  10.233   8.557  0.4531 -0.7545 -0.1462
   95MOL0     C12699   7.082  10.119   8.540  0.5665  0.1372  0.5591
   95MOL0     C12700   7.223  10.137   8.597  0.2416  0.6377 -1.0151
   95MOL0     C12701   7.291  10.244   8.511 -0.1772  0.7924  0.2789
   95MOL0     C12702   7.447  10.234   8.515 -0.7539  0.1756 -0.7155
   95MOL0     C12703   7.536  10.331   8.439  0.5286 -0.4522 -0.4903
   95MOL0     C12704   7.537  10.328   8.287  0.0776 -0.3894 -1.0368
   95MOL0     C12705   7.619  10.450   8.235  0.2819  0.3502 -0.9762
   95MOL0     C12706   7.570  10.479   8.095 -0.6728 -0.4996 -0.0003
   95MOL0     N12707   7.639  10.604   8.039 -0.3053  0.1959  0.3114
   95MOL0     C12708   7.778  10.611   8.023  1.0814 -0.2981 -0.0261
   95MOL0     C12709   7.787  10.729   7.952 -1.0157  0.3659  0.2966
   95MOL0     C12710   7.906  10.766   7.860  0.3155 -0.1944 -0.5043
   95MOL0     C12711   8.030  10.800   7.925  0.8811  0.2765  1.1494
   95MOL0     C12712   8.036  10.927   8.004  1.3639 -0.3952  0.0309
   95MOL0     C12713   7.979  11.057   7.934 -1.0076 -0.0703  0.3511
   95MOL0     O12714   7.987  11.163   8.030  0.2613  0.2826  0.2951
   95MOL0     C12715   7.938  11.282   7.972 -0.4349  0.6873 -0.0724
   95MOL0     C12716   7.809  11.325   7.979  0.1322 -1.1764  0.0942
   95MOL0     C12717   7.780  11.463   7.951 -0.4751 -0.1139  0.1670
   95MOL0     C12718   7.883  11.544   7.890 -0.0857  0.1235  0.6804
   95MOL0     C12719   7.847  11.670   7.822 -0.4643 -0.6417 -0.2976
   95MOL0     O12720   7.738  11.696   7.744 -0.1870 -0.1450  0.1709
   95MOL0     C12721   7.657  11.803   7.782 -0.2229  0.1964  0.8391
   95MOL0     C12722   7.571  11.845   7.681 -0.7268  0.1389  0.0873
   95MOL0     C12723   7.464  11.934   7.707 -0.4978  0.6889 -0.2434
   95MOL0     C12724   7.446  11.993   7.830 -0.1721  0.7457 -0.0344
   95MOL0     O12725   7.335  12.080   7.844  0.1824  0.3630 -0.1253
   95MOL0     C12726   7.300  12.151   7.967  0.8803 -0.4698 -0.2025
   95MOL0     C12727   7.151  12.183   7.977  0.1104 -0.1790 -0.0308
   95MOL0     C12728   7.104  12.205   7.833 -0.3681 -0.0423  0.5068
   95MOL0     C12729   6.958  12.235   7.845 -0.6412  0.3052 -0.7189
   95MOL0     C12730   6.901  12.249   7.701 -0.7036 -0.5615  0.2775
   95MOL0     C12731   6.927  12.383   7.638 -0.9548 -0.2179 -0.0526
   95MOL0     C12732   6.881  12.388   7.485 -0.3896  1.6675  0.2067
   95MOL0     C12733   7.004  12.381   7.393  0.7497  0.1322 -0.6465
   95MOL0    Cl12734   6.956  12.392   7.215  0.2550  0.1644  0.3004
   95MOL0     C12735   7.538  11.943   7.935  0.2589 -0.5312  0.3764
   95MOL0     C12736   7.636  11.846   7.912  0.7229 -0.0341  0.7761
   95MOL0     O12737   7.939  11.752   7.826  0.1783 -0.2107  0.9030
   95MOL0     C12738   8.013  11.501   7.880  0.2488  0.5235  0.1490
   95MOL0     C12739   8.041  11.368   7.924 -0.4688 -0.4675 -0.1510
   95MOL0     N12740   7.661  10.786   7.921 -0.1875  0.4636 -1.2096
   95MOL0     N12741   7.576  10.709   7.983  0.6265  0.3655 -0.3759
   95MOL0     C12742   6.771  10.189   8.550  0.0754 -0.2820 -1.6599
   95MOL0     C12743   6.657  10.159   8.474 -0.0242  0.3195  0.6403
   95MOL0     C12744   6.320  10.165   8.167 -0.5072 -0.4714  1.0726
   95MOL0     C12745   6.369  10.162   8.037  0.4292 -0.3940  0.3096
   95MOL0     C12746   6.280  10.147   7.924  0.8831  0.2361 -0.4679
   95MOL0     C12747   6.139  10.144   7.944 -0.1567  0.2201 -0.1103
   95MOL0     O12748   6.061  10.133   7.835 -0.1529 -0.3259 -0.3411
   95MOL0     C12749   5.949  10.045   7.835  0.0403  0.3433  0.0666
   95MOL0     C12750   5.896  10.009   7.693  0.4908  0.1137 -0.8094
   95MOL0     C12751   5.875  10.136   7.599 -0.3254  0.7755  0.0946
   95MOL0     C12752   5.833  10.084   7.460 -0.2802 -0.2525  0.4013
   95MOL0     C12753   5.755  10.190   7.397 -0.0190 -0.3108  0.9562
   95MOL0     C12754   5.683  10.274   7.348 -0.9328 -0.2157 -0.0069
   95MOL0     C12755   6.087  10.147   8.079 -0.0541  0.4904  0.0432
   95MOL0     C12756   6.174  10.162   8.193 -0.0980 -0.2119  0.2072
   95MOL0     C12757   6.110  10.189   8.327  0.9013 -0.1283 -0.3410
   95MOL0     H12758   6.784  10.222   8.168 -0.3302 -2.2190 -0.6647
   95MOL0     H12759   6.978  10.269   8.298  1.2944 -1.8071  1.0174
   95MOL0     H12760   7.039  10.029   8.585 -1.3649 -1.8235 -4.4159
   95MOL0     H12761   7.095  10.086   8.436 -0.3164  0.7859  0.2328
   95MOL0     H12762   7.272  10.039   8.592  1.6473  1.3559 -2.5187
   95MOL0     H12763   7.224  10.171   8.700  0.0049 -2.2852  0.0584
   95MOL0     H12764   7.270  10.347   8.541  0.1829  1.5432 -1.9270
   95MOL0     H12765   7.266  10.221   8.407 -0.8786 -5.4330  1.4333
   95MOL0     H12766   7.481  10.236   8.619 -2.5698 -1.9017 -0.0046
   95MOL0     H12767   7.476  10.134   8.481  0.7994  0.0115  0.9275
   95MOL0     H12768   7.510  10.434   8.469 -1.6708 -0.7778 -1.0769
   95MOL0     H12769   7.640  10.311   8.463  0.5395 -0.8443 -0.8696
   95MOL0     H12770   7.585  10.234   8.258  0.7742 -0.2895 -0.2648
   95MOL0     H12771   7.433  10.337   8.255 -0.9205  3.3367  2.3493
   95MOL0     H12772   7.725  10.425   8.229  0.1223 -1.6026  2.0479
   95MOL0     H12773   7.596  10.535   8.301 -2.5809  2.2100 -4.0612
   95MOL0     H12774   7.600  10.394   8.033  0.8870  0.0726 -0.0755
   95MOL0     H12775   7.463  10.490   8.080 -1.1152 -1.7328  1.9234
   95MOL0     H12776   7.863  10.550   8.051  3.1538  2.3681 -0.0779
   95MOL0     H12777   7.924  10.685   7.789  0.5754 -0.6048  0.0225
   95MOL0     H12778   7.867  10.847   7.798 -2.5481  0.0081  1.3264
   95MOL0     H12779   8.050  10.721   7.997  2.6075  0.0855  0.5113
   95MOL0     H12780   8.114  10.795   7.854  0.6592  0.2632  0.8851
   95MOL0     H12781   8.137  10.950   8.037  1.2211  0.7455 -0.2884
   95MOL0     H12782   7.994  10.906   8.103 -0.9541  0.5764 -0.6698
   95MOL0     H12783   7.876  11.034   7.904 -0.5006 -1.8852 -0.0907
   95MOL0     H12784   8.042  11.082   7.849 -0.5499 -1.6870  0.1800
   95MOL0     H12785   7.736  11.259   8.025 -0.8689  0.1593  0.4812
   95MOL0     H12786   7.684  11.511   7.965 -1.1456 -1.2478 -0.4064
   95MOL0     H12787   7.599  11.793   7.590  4.1119  1.1059  0.7435
   95MOL0     H12788   7.402  11.961   7.622 -2.2731  2.9595  1.5975
   95MOL0     H12789   7.323  12.085   8.051 -0.8281 -0.2868  0.4557
   95MOL0     H12790   7.367  12.237   7.969  1.2129 -0.7326  1.3409
   95MOL0     H12791   7.099  12.101   8.027 -0.7266  1.1524  1.3616
   95MOL0     H12792   7.147  12.270   8.044  1.0714  0.0517 -0.2536
   95MOL0     H12793   7.167  12.280   7.785  1.8911 -3.4342 -2.3216
   95MOL0     H12794   7.116  12.117   7.769 -0.7113 -0.9261  1.6312
   95MOL0     H12795   6.952  12.322   7.910 -1.2138 -0.5048  0.3537
   95MOL0     H12796   6.905  12.153   7.894  0.4904  1.2827  2.3557
   95MOL0     H12797   6.792  12.239   7.708 -0.9219 -0.3343 -1.9871
   95MOL0     H12798   6.940  12.172   7.633  3.1517  0.7507  0.7284
   95MOL0     H12799   6.857  12.457   7.679 -0.9151 -0.0635 -0.2691
   95MOL0     H12800   7.031  12.413   7.626 -0.9812 -1.1099 -3.7523
   95MOL0     H12801   6.826  12.482   7.475 -2.7874  0.6533  2.5986
   95MOL0     H12802   6.804  12.315   7.457 -0.4530  1.6012  0.5506
   95MOL0     H12803   7.068  12.465   7.419 -1.0518  0.2134  4.6209
   95MOL0     H12804   7.054  12.284   7.405 -2.2666 -1.6715 -1.2265
   95MOL0     H12805   7.540  11.995   8.030 -0.0116 -0.8529  0.5586
   95MOL0     H12806   7.708  11.819   7.989  4.1123  2.2154 -1.3257
   95MOL0     H12807   8.098  11.550   7.833  0.4116 -0.5675 -0.7427
   95MOL0     H12808   8.138  11.322   7.908  0.3537  1.2796 -0.3527
   95MOL0     H12809   6.767  10.171   8.657  3.9644 -1.8708 -1.6579
   95MOL0     H12810   6.564  10.128   8.521 -0.8713  1.2504 -0.3664
   95MOL0     H12811   6.474  10.175   8.013  0.2089  0.5200 -0.1947
   95MOL0     H12812   6.322  10.144   7.824  1.9860  0.6108 -0.0392
   95MOL0     H12813   5.873  10.092   7.897 -0.6753  0.5711 -0.9541
   95MOL0     H12814   5.979   9.954   7.888  1.4345 -0.9553 -2.7306
   95MOL0     H12815   5.804   9.949   7.698  0.5958  0.0601  1.5162
   95MOL0     H12816   5.968   9.937   7.655 -1.2620 -2.6140  0.6999
   95MOL0     H12817   5.970  10.190   7.591 -1.0565  2.0355 -0.3742
   95MOL0     H12818   5.802  10.201   7.647 -0.6436 -0.8776  1.9725
   95MOL0     H12819   5.927  10.069   7.407 -0.2034 -0.1410  0.5069
   95MOL0     H12820   5.770   9.994   7.463 -2.7106  1.4106  2.6325
   95MOL0     H12821   5.621  10.356   7.316 -0.3679 -0.0202 -0.6180
   95MOL0     H12822   5.981  10.142   8.101 -0.3685 -0.9611 -1.5546
   95MOL0     H12823   6.137  10.292   8.351 -1.0329  0.1850  0.6622
   95MOL0     H12824   6.002  10.192   8.310  1.0833 -1.5328 -2.1848
   95MOL0     H12825   6.128  10.132   8.418 -2.0407 -2.0695 -0.8187
   96MOL0     O12826   7.399   3.783  10.734 -0.5938 -0.9593  0.3561
   96MOL0     C12827   7.295   3.833  10.781  0.3396 -0.2858  0.4718
   96MOL0     O12828   7.288   3.948  10.847 -0.4022 -0.2814 -0.0436
   96MOL0     C12829   7.401   3.987  10.911 -0.2353 -0.8619 -0.4147
   96MOL0     C12830   7.462   4.111  10.877 -0.0875 -0.5417 -0.6615
   96MOL0     C12831   7.595   4.144  10.936  0.7527 -1.1772 -0.9049
   96MOL0     C12832   7.657   4.060  11.027  0.3956 -0.0770  0.2681
   96MOL0     O12833   7.771   4.101  11.089 -0.5036 -0.2413 -0.2857
   96MOL0     C12834   7.860   4.188  11.018  0.1721  0.9598 -0.1603
   96MOL0     C12835   7.998   4.147  11.077  0.1633 -0.4286 -0.7519
   96MOL0     C12836   8.007   4.140  11.238  0.1653  0.2024  0.6800
   96MOL0     C12837   7.972   4.272  11.301  0.4771  0.7253  0.5065
   96MOL0     C12838   7.953   4.269  11.450 -0.3983  0.0455 -0.5972
   96MOL0     C12839   8.093   4.287  11.528  1.1609  0.4090  0.2117
   96MOL0     C12840   8.146   4.426  11.541  0.4465  0.6232 -0.2842
   96MOL0     C12841   8.284   4.433  11.602 -0.0810 -1.1274 -0.1090
   96MOL0     N12842   8.384   4.362  11.520  0.1977  0.1875 -0.1411
   96MOL0     C12843   8.478   4.274  11.553 -0.1690  0.0273 -0.8170
   96MOL0     C12844   8.528   4.232  11.435  0.1502  0.5723  0.0198
   96MOL0     C12845   8.635   4.127  11.403  0.3257  0.3623  0.2101
   96MOL0     C12846   8.618   3.997  11.492  1.2281  0.3742  1.0802
   96MOL0     C12847   8.686   3.893  11.408  1.4596  0.5498 -0.5487
   96MOL0     C12848   8.714   3.768  11.495  0.4272 -0.2504 -0.5388
   96MOL0     O12849   8.827   3.792  11.574  0.7258 -0.0520  0.4957
   96MOL0     C12850   8.935   3.708  11.559  0.8182 -0.4288 -0.9306
   96MOL0     C12851   9.055   3.763  11.584 -0.1595  0.1257  0.3207
   96MOL0     C12852   9.174   3.691  11.561 -0.3490  0.4385 -0.2961
   96MOL0     C12853   9.167   3.553  11.523 -0.0544  0.2928  0.4742
   96MOL0     C12854   9.277   3.460  11.506  0.1519 -0.5920 -0.1056
   96MOL0     O12855   9.400   3.521  11.501  0.2711  0.4202 -0.6280
   96MOL0     C12856   9.517   3.448  11.510  0.6655  0.7474 -0.9032
   96MOL0     C12857   9.574   3.390  11.627 -0.0955  0.5459  0.1949
   96MOL0     C12858   9.708   3.340  11.625  0.3083  0.2181 -0.4552
   96MOL0     C12859   9.784   3.327  11.505  0.6354 -0.4137  0.0564
   96MOL0     O12860   9.904   3.264  11.508  0.3352 -0.4274  0.4019
   96MOL0     C12861   9.997   3.292  11.403 -0.3318  0.5239 -0.1753
   96MOL0     C12862  10.124   3.200  11.418 -0.2085 -0.2207  0.3806
   96MOL0     C12863  10.231   3.230  11.303  0.3327 -0.2129  1.1890
   96MOL0     C12864  10.333   3.109  11.274  0.2677 -0.4127  0.6378
   96MOL0     C12865  10.422   3.139  11.140  0.2517  0.6800 -0.1765
   96MOL0     C12866  10.458   3.011  11.071 -0.3883 -0.2105  0.6423
   96MOL0     C12867  10.524   2.903  11.158  0.0956 -0.4679  0.3799
   96MOL0     C12868  10.669   2.931  11.180 -0.3176 -0.7294 -0.9880
   96MOL0    Cl12869  10.702   3.026  11.319  0.5121  0.1942 -0.2637
   96MOL0     C12870   9.722   3.385  11.394  0.2330 -0.3693  0.9607
   96MOL0     C12871   9.592   3.441  11.391 -0.2031 -0.9057  0.7907
   96MOL0     O12872   9.251   3.342  11.536  0.7644  0.0544  0.0146
   96MOL0     C12873   9.039   3.501  11.507  0.0764  0.6757 -0.2308
   96MOL0     C12874   8.929   3.580  11.519  0.2821 -0.2685 -0.5795
   96MOL0     N12875   8.464   4.303  11.332 -0.6687 -0.3478 -0.4651
   96MOL0     N12876   8.400   4.395  11.389 -0.0773 -0.7255 -0.6302
   96MOL0     C12877   7.591   3.935  11.057  0.0067 -0.2750  0.1731
   96MOL0     C12878   7.473   3.902  11.000  0.1769 -0.4731  0.9928
   96MOL0     C12879   7.168   3.772  10.740 -0.6184 -0.1693  0.3263
   96MOL0     C12880   7.061   3.857  10.706  0.2143 -0.2916  0.0957
   96MOL0     C12881   6.940   3.805  10.647 -0.4215  0.2055 -0.3550
   96MOL0     C12882   6.929   3.673  10.620  0.3513 -0.0744  0.1991
   96MOL0     O12883   6.820   3.613  10.557 -0.0365  0.5115 -0.3590
   96MOL0     C12884   6.688   3.654  10.600 -0.1969 -0.8977 -1.5513
   96MOL0     C12885   6.584   3.558  10.540  0.4753 -0.1266 -0.3081
   96MOL0     C12886   6.537   3.608  10.402 -0.0211  0.4139  0.6432
   96MOL0     C12887   6.466   3.482  10.342  0.0742 -0.8678 -0.1592
   96MOL0     C12888   6.333   3.445  10.387 -0.7975 -0.1770  0.2375
   96MOL0     C12889   6.225   3.435  10.428  0.3230  0.5817 -0.3041
   96MOL0     C12890   7.036   3.592  10.648  0.0545  0.0775 -0.1015
   96MOL0     C12891   7.153   3.631  10.714  0.1499 -0.1848 -0.0156
   96MOL0     C12892   7.247   3.521  10.761 -0.3112  0.6685  0.7790
   96MOL0     H12893   7.404   4.172  10.808  0.3777  0.9660  0.2139
   96MOL0     H12894   7.622   4.247  10.913 -2.6385  0.3283  1.0487
   96MOL0     H12895   7.852   4.182  10.909 -0.6346 -0.9152 -0.0441
   96MOL0     H12896   7.845   4.292  11.048  2.2847  0.8969  1.3054
   96MOL0     H12897   8.075   4.214  11.037  0.3355  0.1822  0.5553
   96MOL0     H12898   8.030   4.048  11.044 -0.2551 -0.6665 -0.4594
   96MOL0     H12899   8.110   4.107  11.257  1.3888  4.0619  1.5973
   96MOL0     H12900   7.944   4.057  11.274 -1.4894  0.8364 -0.6230
   96MOL0     H12901   8.033   4.350  11.256  0.8784 -1.4456 -3.1060
   96MOL0     H12902   7.870   4.296  11.267  0.3480  0.7854  0.9279
   96MOL0     H12903   7.894   4.355  11.483  2.4477  2.7310 -2.0889
   96MOL0     H12904   7.908   4.175  11.483  0.4952 -0.5544 -1.0467
   96MOL0     H12905   8.090   4.236  11.625  0.2078 -0.2849 -0.1667
   96MOL0     H12906   8.165   4.228  11.470  1.8183  0.4944  0.9203
   96MOL0     H12907   8.076   4.479  11.607  1.0750  2.1135 -0.7823
   96MOL0     H12908   8.143   4.467  11.440 -1.1019  0.0802 -0.4888
   96MOL0     H12909   8.324   4.535  11.605 -1.9667 -0.3577  3.1088
   96MOL0     H12910   8.283   4.394  11.704  1.0012  1.3502  0.9363
   96MOL0     H12911   8.510   4.241  11.652 -0.6980  0.9265 -0.3332
   96MOL0     H12912   8.615   4.111  11.296  0.9096 -0.3092  0.1956
   96MOL0     H12913   8.738   4.161  11.413  0.3658  1.0109 -1.8858
   96MOL0     H12914   8.670   4.021  11.585  0.3951  0.3269  1.5658
   96MOL0     H12915   8.511   3.979  11.511  0.9159 -0.3877 -1.0933
   96MOL0     H12916   8.779   3.933  11.365  1.6553 -1.7521 -2.4929
   96MOL0     H12917   8.618   3.855  11.331 -2.0252  0.3540  2.3904
   96MOL0     H12918   8.717   3.690  11.419 -2.5766  0.7796 -1.8413
   96MOL0     H12919   8.633   3.749  11.567  1.0027 -0.5137  0.0568
   96MOL0     H12920   9.060   3.870  11.604 -1.0690  0.0111  1.2061
   96MOL0     H12921   9.270   3.740  11.572  0.6015 -1.3553 -0.0825
   96MOL0     H12922   9.514   3.377  11.716  1.7979 -2.5375  1.1655
   96MOL0     H12923   9.758   3.291  11.708  1.7453  1.5754 -0.4692
   96MOL0     H12924   9.951   3.278  11.305 -1.3525 -2.0100  0.5813
   96MOL0     H12925  10.030   3.395  11.420 -0.4141  0.0449  3.9621
   96MOL0     H12926  10.168   3.221  11.516 -3.7734  0.4425  2.0130
   96MOL0     H12927  10.096   3.095  11.407  0.8816 -0.4266 -0.6315
   96MOL0     H12928  10.184   3.246  11.205  0.8974 -0.8313  0.8071
   96MOL0     H12929  10.281   3.321  11.337  2.6438 -0.2545 -1.7134
   96MOL0     H12930  10.280   3.015  11.258  0.8745 -0.3762 -2.1123
   96MOL0     H12931  10.388   3.118  11.368 -0.3930 -1.4019  1.1303
   96MOL0     H12932  10.499   3.215  11.158 -1.9249  2.7571  0.9368
   96MOL0     H12933  10.366   3.197  11.067  1.0562  1.6562 -0.0344
   96MOL0     H12934  10.365   2.972  11.027  0.5300 -0.3456 -1.2921
   96MOL0     H12935  10.508   3.033  10.976  0.2176 -0.6302  0.8552
   96MOL0     H12936  10.507   2.803  11.118  2.2762 -1.2187  1.1718
   96MOL0     H12937  10.488   2.901  11.261  2.7365 -1.1821  1.3868
   96MOL0     H12938  10.720   2.837  11.200 -3.6474 -2.1922  1.6841
   96MOL0     H12939  10.702   2.976  11.086  2.6589  3.5921  1.8057
   96MOL0     H12940   9.775   3.386  11.299  2.2257  0.4814  2.0211
   96MOL0     H12941   9.550   3.484  11.300  2.8951  1.3778  0.2727
   96MOL0     H12942   9.018   3.396  11.488  4.5795 -0.5976  0.6049
   96MOL0     H12943   8.838   3.526  11.495 -0.6488 -0.6838  3.2065
   96MOL0     H12944   7.620   3.874  11.142 -1.2912 -2.3837 -0.8332
   96MOL0     H12945   7.419   3.812  11.025 -0.0854 -1.2448 -1.9268
   96MOL0     H12946   7.066   3.961  10.737  1.6967 -1.1800  3.2537
   96MOL0     H12947   6.861   3.878  10.634 -0.1934  0.2993 -1.2702
   96MOL0     H12948   6.666   3.757  10.570  1.1809 -0.1405 -0.1049
   96MOL0     H12949   6.694   3.642  10.708  1.2334  2.5998 -1.1133
   96MOL0     H12950   6.496   3.587  10.598  0.6741  2.6388 -1.1961
   96MOL0     H12951   6.611   3.452  10.545  3.2132  0.3436 -2.5714
   96MOL0     H12952   6.626   3.631  10.342  0.7687 -0.8387  1.2839
   96MOL0     H12953   6.473   3.694  10.423  0.0391  0.4070  0.8614
   96MOL0     H12954   6.479   3.481  10.234  1.2895  0.3008 -0.0439
   96MOL0     H12955   6.524   3.395  10.375  3.8520  0.8184 -1.7717
   96MOL0     H12956   6.129   3.444  10.475  0.9753  3.6590  0.6789
   96MOL0     H12957   7.028   3.489  10.614  1.3134  0.0339 -0.3005
   96MOL0     H12958   7.197   3.440  10.815 -0.8636  0.2798 -0.2876
   96MOL0     H12959   7.314   3.483  10.684  1.5310  0.8259  2.2491
   96MOL0     H12960   7.319   3.559  10.833 -0.5304 -0.3701  1.5825
   97MOL0     O12961   6.267   4.588   1.447  0.7695  0.8527  0.1359
   97MOL0     C12962   6.290   4.676   1.526  0.6180  0.2195 -0.7284
   97MOL0     O12963   6.406   4.745   1.530 -0.1452 -0.2230 -0.3908
   97MOL0     C12964   6.509   4.684   1.454 -1.2799  0.4037  0.5076
   97MOL0     C12965   6.601   4.602   1.513 -0.3647  0.9512 -0.0677
   97MOL0     C12966   6.718   4.546   1.444  0.7352  0.6805 -0.7172
   97MOL0     C12967   6.721   4.569   1.307  0.7084  0.1661  0.4593
   97MOL0     O12968   6.801   4.518   1.211 -0.3422 -0.1026 -0.8372
   97MOL0     C12969   6.913   4.441   1.272  0.2918  0.0053 -0.3879
   97MOL0     C12970   7.019   4.409   1.165  0.3356  0.2881  0.1891
   97MOL0     C12971   7.123   4.522   1.149 -0.4720 -0.2593 -0.2599
   97MOL0     C12972   7.254   4.457   1.095 -0.0278 -0.4680 -0.2736
   97MOL0     C12973   7.354   4.564   1.047 -0.0326 -0.7463 -0.2809
   97MOL0     C12974   7.329   4.604   0.902 -0.4699 -0.0712  0.4652
   97MOL0     C12975   7.397   4.735   0.850 -0.0721  0.0209  0.3093
   97MOL0     C12976   7.408   4.730   0.695  0.2352  0.4773 -0.1250
   97MOL0     N12977   7.513   4.818   0.647 -0.4876  0.3511 -0.4258
   97MOL0     C12978   7.533   4.946   0.690 -0.8853  1.1894 -0.6292
   97MOL0     C12979   7.660   4.982   0.657  0.2127 -0.5867  0.5746
   97MOL0     C12980   7.738   5.105   0.713  0.1332 -0.2245  0.0079
   97MOL0     C12981   7.860   5.060   0.801  0.4538 -0.5368  0.0610
   97MOL0     C12982   7.826   4.953   0.915  0.1434  0.6807 -0.7628
   97MOL0     C12983   7.931   4.950   1.021  0.2569 -0.5568  0.7822
   97MOL0     O12984   7.912   4.831   1.098  0.3378 -0.2328  0.6808
   97MOL0     C12985   7.795   4.823   1.167 -0.2936 -0.4564  0.6312
   97MOL0     C12986   7.691   4.911   1.197  0.3082 -0.2181  0.4515
   97MOL0     C12987   7.577   4.864   1.266  0.7279  0.0283 -0.4034
   97MOL0     C12988   7.570   4.729   1.308 -0.8072 -0.3511  0.2456
   97MOL0     C12989   7.444   4.692   1.371 -0.0583  0.9366  0.5224
   97MOL0     O12990   7.458   4.575   1.445  0.3735 -0.8434  0.0564
   97MOL0     C12991   7.341   4.519   1.493  0.2606  0.0812  0.4519
   97MOL0     C12992   7.327   4.385   1.449  0.4502 -0.3727 -0.0767
   97MOL0     C12993   7.211   4.316   1.472  0.0278  0.1310 -0.7985
   97MOL0     C12994   7.108   4.369   1.554  0.0753  0.7431 -0.3461
   97MOL0     O12995   6.982   4.308   1.563 -0.4301  0.7220 -0.5445
   97MOL0     C12996   6.970   4.173   1.627 -0.1903  0.4665 -0.3146
   97MOL0     C12997   6.835   4.123   1.583 -0.1125 -0.3152  0.5522
   97MOL0     C12998   6.766   4.029   1.683 -0.3192 -0.3052  0.5037
   97MOL0     C12999   6.638   3.975   1.629  0.1254  0.1982 -0.5453
   97MOL0     C13000   6.545   3.899   1.731  0.4792 -0.0133 -0.5382
   97MOL0     C13001   6.422   3.854   1.662  0.5702  0.5320  0.1430
   97MOL0     C13002   6.362   3.727   1.730 -0.5648 -0.1367 -1.2446
   97MOL0     C13003   6.216   3.697   1.701  0.0161  0.2275 -0.4067
   97MOL0    Cl13004   6.193   3.532   1.772  0.4745  0.0828  0.1753
   97MOL0     C13005   7.119   4.505   1.601 -0.1075  0.0925  0.5320
   97MOL0     C13006   7.243   4.576   1.579  1.2238  0.7566 -0.2015
   97MOL0     O13007   7.338   4.753   1.359  0.3921  0.5136  0.4145
   97MOL0     C13008   7.671   4.639   1.277 -0.9159 -0.3823 -0.8673
   97MOL0     C13009   7.782   4.688   1.211 -0.1233  0.0185  0.8239
   97MOL0     N13010   7.711   4.875   0.587  0.3723 -0.7989 -0.5743
   97MOL0     N13011   7.621   4.782   0.582  0.4515  0.9285 -0.4173
   97MOL0     C13012   6.629   4.665   1.247 -0.4962 -0.1992 -0.4066
   97MOL0     C13013   6.525   4.723   1.320 -0.4096  0.2043  0.5429
   97MOL0     C13014   6.186   4.713   1.617 -0.1063  0.4890 -0.0094
   97MOL0     C13015   6.146   4.844   1.624 -0.4296  0.0405  0.0288
   97MOL0     C13016   6.063   4.887   1.720  0.7293 -0.5916 -1.2022
   97MOL0     C13017   5.991   4.803   1.803 -0.2809  0.4026 -0.2450
   97MOL0     O13018   5.902   4.851   1.899 -0.3428 -0.3691 -0.1311
   97MOL0     C13019   5.901   4.802   2.032 -0.0033  0.3651  0.4661
   97MOL0     C13020   6.032   4.840   2.111  0.2406 -0.3605  0.5957
   97MOL0     C13021   6.078   4.746   2.224 -0.4217  0.7308 -0.7586
   97MOL0     C13022   6.141   4.612   2.180  0.2824  0.2847  0.2109
   97MOL0     C13023   6.212   4.523   2.279  0.3346 -0.0445 -1.0876
   97MOL0     C13024   6.258   4.455   2.367 -0.1594  0.6226 -0.8128
   97MOL0     C13025   6.016   4.674   1.793  0.3116  0.0905  0.2525
   97MOL0     C13026   6.113   4.622   1.700  1.1863 -0.0079 -0.8248
   97MOL0     C13027   6.131   4.473   1.691 -0.9386 -0.5769 -0.1496
   97MOL0     H13028   6.584   4.569   1.615  0.2762 -2.4160 -0.9369
   97MOL0     H13029   6.782   4.473   1.493  1.1497  2.5210  1.6668
   97MOL0     H13030   6.958   4.499   1.353 -1.2994  1.9659 -0.8258
   97MOL0     H13031   6.879   4.350   1.320  3.2835  0.4842  3.1089
   97MOL0     H13032   6.970   4.384   1.070 -0.6633 -1.6969  1.1510
   97MOL0     H13033   7.071   4.329   1.218 -3.0799 -0.9298  2.0423
   97MOL0     H13034   7.139   4.575   1.243  0.1466  1.4178 -1.2600
   97MOL0     H13035   7.083   4.598   1.081  1.6922  0.5895 -0.6652
   97MOL0     H13036   7.301   4.411   1.183 -0.2990  3.4987  2.2260
   97MOL0     H13037   7.241   4.394   1.006 -2.4661  2.2511 -2.0181
   97MOL0     H13038   7.371   4.647   1.116  1.0432 -1.5572  0.4538
   97MOL0     H13039   7.449   4.510   1.042  1.7378  2.2823 -1.9383
   97MOL0     H13040   7.352   4.522   0.833  2.0984  0.5379  0.4796
   97MOL0     H13041   7.220   4.612   0.904 -0.5902 -1.3940  2.6767
   97MOL0     H13042   7.498   4.744   0.890 -0.6275  2.1099  1.3993
   97MOL0     H13043   7.342   4.818   0.896  2.0893  1.4317  0.5291
   97MOL0     H13044   7.432   4.627   0.667 -0.4324 -0.3232  2.0986
   97MOL0     H13045   7.314   4.747   0.642  0.3829 -2.6630 -1.5876
   97MOL0     H13046   7.468   5.003   0.756 -1.6877 -0.7547  0.3512
   97MOL0     H13047   7.783   5.154   0.626 -1.3897 -2.1595 -1.9876
   97MOL0     H13048   7.675   5.176   0.766  1.6522  0.9734  0.2885
   97MOL0     H13049   7.938   5.012   0.741  1.5722 -0.0536  1.0741
   97MOL0     H13050   7.894   5.156   0.843  0.6426 -0.1835 -0.8687
   97MOL0     H13051   7.801   4.858   0.867 -0.8369  1.9556 -2.9196
   97MOL0     H13052   7.731   4.986   0.957  0.5100  2.1793 -1.0700
   97MOL0     H13053   7.933   5.042   1.080  2.1088  0.3940 -0.6639
   97MOL0     H13054   8.026   4.934   0.969  0.0056  0.6346 -0.0949
   97MOL0     H13055   7.682   5.017   1.177  2.3934  0.1424  1.2121
   97MOL0     H13056   7.481   4.914   1.273  1.8508  2.5381 -1.7598
   97MOL0     H13057   7.408   4.336   1.395 -0.5551 -0.2405 -1.8009
   97MOL0     H13058   7.185   4.220   1.429  0.2325  0.2212 -1.1237
   97MOL0     H13059   7.043   4.113   1.572 -0.1275  1.5466 -1.4441
   97MOL0     H13060   6.984   4.183   1.736 -0.7689  3.3401 -0.4140
   97MOL0     H13061   6.759   4.197   1.558  0.9745  0.6395 -0.0382
   97MOL0     H13062   6.853   4.079   1.484 -1.6469 -1.1377  0.6115
   97MOL0     H13063   6.823   3.937   1.699  2.1132  0.1958 -3.7911
   97MOL0     H13064   6.755   4.096   1.769  0.1975  1.2610 -0.5969
   97MOL0     H13065   6.663   3.909   1.545  2.2893  0.6019 -0.2603
   97MOL0     H13066   6.571   4.055   1.596  0.0886  0.5032  0.2421
   97MOL0     H13067   6.527   3.957   1.821 -0.7689 -0.2159 -0.6399
   97MOL0     H13068   6.593   3.803   1.751  0.3883  0.2639  1.0899
   97MOL0     H13069   6.356   3.940   1.650  2.8450  2.2971 -0.4330
   97MOL0     H13070   6.452   3.831   1.560 -0.1415  1.6127 -0.3194
   97MOL0     H13071   6.373   3.734   1.839 -0.3991 -0.9829 -1.2014
   97MOL0     H13072   6.425   3.645   1.695  0.2678 -0.7457  1.4234
   97MOL0     H13073   6.142   3.771   1.733 -2.4323 -1.5486 -1.5836
   97MOL0     H13074   6.211   3.686   1.592  0.8618 -2.9280 -0.2315
   97MOL0     H13075   7.031   4.552   1.644 -0.9474  1.7460 -2.7007
   97MOL0     H13076   7.252   4.683   1.596  0.5714  0.5140  1.9935
   97MOL0     H13077   7.651   4.535   1.301 -4.7340 -0.5492 -3.7803
   97MOL0     H13078   7.862   4.618   1.194  0.8078  1.1559  0.3467
   97MOL0     H13079   6.630   4.697   1.143  1.0929  2.7023  0.3904
   97MOL0     H13080   6.452   4.795   1.282  1.4964  2.2461  0.5399
   97MOL0     H13081   6.200   4.926   1.578  0.3969  0.9049  2.3841
   97MOL0     H13082   6.046   4.993   1.733 -0.3540 -0.7787 -0.9676
   97MOL0     H13083   5.890   4.694   2.026  0.1060  0.3879 -0.3502
   97MOL0     H13084   5.818   4.840   2.092 -1.0875 -1.0478 -0.0772
   97MOL0     H13085   6.025   4.936   2.161  2.1677 -0.2818  0.8085
   97MOL0     H13086   6.119   4.840   2.044 -0.5158  0.4111 -0.4194
   97MOL0     H13087   5.992   4.721   2.287  0.7430 -2.5191 -0.2615
   97MOL0     H13088   6.153   4.787   2.293 -0.7779  0.0775  0.0442
   97MOL0     H13089   6.066   4.556   2.124  0.1807  0.2404  0.3912
   97MOL0     H13090   6.226   4.637   2.115  1.2579  0.2569  1.4262
   97MOL0     H13091   6.301   4.384   2.435  2.3617  4.5757  2.1512
   97MOL0     H13092   5.947   4.610   1.845  0.8509 -2.0335 -1.5087
   97MOL0     H13093   6.069   4.433   1.610  1.3912  0.2556 -2.4973
   97MOL0     H13094   6.236   4.452   1.667 -1.0215  0.0129 -1.0563
   97MOL0     H13095   6.112   4.426   1.788  0.0395 -0.7537 -0.0327
   98MOL0     O13096   8.119   2.240   5.770 -0.5824  0.4108 -0.3173
   98MOL0     C13097   8.196   2.328   5.737  1.2151 -0.4662 -0.4028
   98MOL0     O13098   8.212   2.446   5.804 -0.3541 -0.1347  0.8979
   98MOL0     C13099   8.136   2.486   5.914  0.0603 -0.4650  0.1366
   98MOL0     C13100   8.014   2.437   5.958 -0.7195  0.2773  0.0605
   98MOL0     C13101   7.945   2.492   6.072  0.0482 -0.6635 -0.5482
   98MOL0     C13102   8.006   2.593   6.141 -0.1704 -0.6672  0.1961
   98MOL0     O13103   7.940   2.651   6.244 -0.1427  0.1573 -0.4815
   98MOL0     C13104   7.813   2.704   6.215 -0.1176 -0.0534 -0.0525
   98MOL0     C13105   7.731   2.713   6.346  0.0429 -0.2018  0.6337
   98MOL0     C13106   7.657   2.586   6.385 -0.4634 -0.3818  0.5381
   98MOL0     C13107   7.566   2.608   6.510 -0.3596 -0.3307  0.1346
   98MOL0     C13108   7.480   2.485   6.545 -0.2120  0.1303  0.6252
   98MOL0     C13109   7.554   2.358   6.574 -0.3039  0.4411  0.5004
   98MOL0     C13110   7.458   2.255   6.626  0.1583 -0.3003  0.3816
   98MOL0     C13111   7.486   2.109   6.585  0.6856 -0.3048  0.3915
   98MOL0     N13112   7.475   2.010   6.697  0.1175 -0.4089 -0.7135
   98MOL0     C13113   7.534   2.009   6.818 -0.5394 -0.5535  0.5406
   98MOL0     C13114   7.484   1.911   6.895  0.2088  0.0222 -0.8024
   98MOL0     C13115   7.506   1.875   7.040  0.1472 -0.3484 -0.1040
   98MOL0     C13116   7.444   1.984   7.122  0.8563 -0.0227 -0.7087
   98MOL0     C13117   7.296   1.946   7.106 -0.4621 -1.4814 -0.1214
   98MOL0     C13118   7.218   1.981   7.230 -0.6254  0.4424  0.1716
   98MOL0     O13119   7.256   2.116   7.258 -0.0540  0.2491  0.5621
   98MOL0     C13120   7.209   2.154   7.383 -0.8904  0.5464 -0.2554
   98MOL0     C13121   7.078   2.184   7.414 -0.0163  0.1859 -0.0264
   98MOL0     C13122   7.040   2.240   7.534  0.9189  0.2974 -0.4524
   98MOL0     C13123   7.131   2.248   7.640 -0.2932 -0.9723 -0.6771
   98MOL0     C13124   7.094   2.290   7.777 -0.5658 -0.8441 -0.7033
   98MOL0     O13125   6.960   2.304   7.799 -0.1091 -0.5250  0.4773
   98MOL0     C13126   6.918   2.338   7.924 -0.1418 -0.6689 -0.2975
   98MOL0     C13127   6.954   2.274   8.038 -0.0283 -0.3409  0.2054
   98MOL0     C13128   6.899   2.309   8.167 -0.3441 -0.7654 -0.0964
   98MOL0     C13129   6.813   2.419   8.174 -0.2663  1.0282 -0.2257
   98MOL0     O13130   6.762   2.459   8.290 -0.6704  0.8853 -0.0664
   98MOL0     C13131   6.798   2.593   8.330 -0.2852  0.7562 -0.2456
   98MOL0     C13132   6.727   2.652   8.460  0.9911  0.1072 -0.5224
   98MOL0     C13133   6.573   2.641   8.447  0.1714 -0.5137  0.9809
   98MOL0     C13134   6.483   2.619   8.571 -0.5226  0.7482  0.5485
   98MOL0     C13135   6.462   2.738   8.666  0.2076 -0.1662  0.5767
   98MOL0     C13136   6.375   2.847   8.595 -0.0242  0.7037  0.0711
   98MOL0     C13137   6.230   2.820   8.605 -0.3815 -0.0411  0.3708
   98MOL0     C13138   6.136   2.936   8.568 -0.2999  0.6804  0.2012
   98MOL0    Cl13139   6.190   3.090   8.614  0.0442  0.1659 -0.5419
   98MOL0     C13140   6.766   2.474   8.055  0.1940 -0.2499 -0.8221
   98MOL0     C13141   6.824   2.440   7.928  0.5703 -0.6048  0.4619
   98MOL0     O13142   7.182   2.324   7.853 -0.5680 -0.2459 -0.2479
   98MOL0     C13143   7.264   2.214   7.608  0.1249 -0.3425  0.3124
   98MOL0     C13144   7.302   2.174   7.487 -0.2863  0.4902  0.0265
   98MOL0     N13145   7.386   1.848   6.823 -0.1029  0.8970  0.8596
   98MOL0     N13146   7.379   1.910   6.710  0.5845  0.1531 -0.2422
   98MOL0     C13147   8.132   2.643   6.101  0.0349 -0.6321 -1.1168
   98MOL0     C13148   8.192   2.592   5.988  0.0177 -0.5333  1.1425
   98MOL0     C13149   8.295   2.301   5.634  0.3634  0.0260 -0.3035
   98MOL0     C13150   8.421   2.366   5.635  1.3368  0.2900 -0.5996
   98MOL0     C13151   8.519   2.333   5.548 -0.5146 -0.0125 -0.3981
   98MOL0     C13152   8.497   2.226   5.455  0.3366  0.4301 -0.1372
   98MOL0     O13153   8.604   2.196   5.376  0.3669  0.4268 -0.8506
   98MOL0     C13154   8.641   2.063   5.375 -0.2839  0.4204  0.0127
   98MOL0     C13155   8.660   2.039   5.227 -0.0845 -0.5952 -0.7278
   98MOL0     C13156   8.530   2.032   5.151  0.3335 -1.5213 -0.2830
   98MOL0     C13157   8.551   2.014   5.003  0.6240 -0.5638  0.1554
   98MOL0     C13158   8.647   1.908   4.965 -0.3444 -0.0621  0.8461
   98MOL0     C13159   8.730   1.826   4.931 -0.2979  0.4801  0.2671
   98MOL0     C13160   8.366   2.173   5.437 -0.3838 -0.7862  0.2086
   98MOL0     C13161   8.266   2.209   5.526  0.8018  0.5070 -0.3414
   98MOL0     C13162   8.139   2.135   5.505  0.1600 -0.2588  0.5414
   98MOL0     H13163   7.970   2.357   5.899 -0.2330 -0.5775  0.8222
   98MOL0     H13164   7.847   2.454   6.099 -0.6089  0.0515 -1.8486
   98MOL0     H13165   7.820   2.805   6.174 -0.8625 -0.0174 -0.0923
   98MOL0     H13166   7.767   2.644   6.137  2.3055  0.6206 -2.1335
   98MOL0     H13167   7.656   2.789   6.322 -2.4771 -2.9553 -0.7092
   98MOL0     H13168   7.796   2.742   6.429  0.1108 -0.4512  0.6677
   98MOL0     H13169   7.724   2.500   6.384 -0.6656 -0.5430  1.0036
   98MOL0     H13170   7.600   2.570   6.293  1.5444 -3.4863 -0.3017
   98MOL0     H13171   7.631   2.626   6.596  1.6946  0.4779 -1.5197
   98MOL0     H13172   7.499   2.694   6.500 -0.3287  0.0145  2.3721
   98MOL0     H13173   7.409   2.510   6.625  0.6896  1.1714  1.1229
   98MOL0     H13174   7.411   2.470   6.462  0.4408  1.6778 -0.2428
   98MOL0     H13175   7.612   2.322   6.489  3.3662  1.5674  2.3355
   98MOL0     H13176   7.625   2.372   6.656 -0.0248  0.2143  0.2990
   98MOL0     H13177   7.355   2.274   6.592  0.2938 -1.1391 -0.5389
   98MOL0     H13178   7.456   2.271   6.735  1.4552 -0.4758  0.4388
   98MOL0     H13179   7.410   2.079   6.512  0.2441 -0.0109  0.7288
   98MOL0     H13180   7.584   2.094   6.540 -0.2875 -3.3753 -1.0005
   98MOL0     H13181   7.604   2.085   6.849  0.5778 -1.4663  0.3031
   98MOL0     H13182   7.464   1.779   7.072 -1.9734 -0.2941 -2.4140
   98MOL0     H13183   7.613   1.871   7.064  0.1068 -2.6783 -0.0554
   98MOL0     H13184   7.476   1.988   7.227 -1.1950 -1.0370 -0.0089
   98MOL0     H13185   7.474   2.085   7.091  0.4855  0.3239  0.0283
   98MOL0     H13186   7.293   1.837   7.112  3.1141 -1.6271  3.0226
   98MOL0     H13187   7.247   1.982   7.015 -2.3578  0.3557  1.5410
   98MOL0     H13188   7.243   1.911   7.311  0.4442 -1.9177 -2.0687
   98MOL0     H13189   7.111   1.981   7.208 -0.9964  2.2481  1.6690
   98MOL0     H13190   7.012   2.167   7.330 -0.3284  2.2118 -0.2470
   98MOL0     H13191   6.934   2.250   7.554  0.3657 -5.6543  1.5061
   98MOL0     H13192   7.016   2.186   8.026 -0.6586 -1.0089  1.5412
   98MOL0     H13193   6.914   2.238   8.248 -2.8555 -0.9863  0.2701
   98MOL0     H13194   6.903   2.591   8.361  0.0260 -0.7074 -1.2812
   98MOL0     H13195   6.788   2.664   8.247  0.0450  3.4917  1.8941
   98MOL0     H13196   6.756   2.595   8.548 -0.0054 -2.1306 -1.5839
   98MOL0     H13197   6.750   2.756   8.486  0.8697 -0.2298  0.9999
   98MOL0     H13198   6.537   2.729   8.393  0.9020 -0.6556  0.2481
   98MOL0     H13199   6.550   2.559   8.378  1.8036 -1.5531  1.6133
   98MOL0     H13200   6.535   2.535   8.617  1.5313 -0.1630 -3.0219
   98MOL0     H13201   6.381   2.589   8.544 -0.9220  2.7119 -0.2746
   98MOL0     H13202   6.562   2.773   8.695  0.4801  2.9498 -3.3524
   98MOL0     H13203   6.410   2.705   8.757  1.0463  1.5469  1.7352
   98MOL0     H13204   6.388   2.940   8.652  1.2338  0.4246  0.2622
   98MOL0     H13205   6.406   2.864   8.491  1.0074  2.6644  0.6471
   98MOL0     H13206   6.210   2.794   8.709  2.2679  1.6593  1.4076
   98MOL0     H13207   6.204   2.739   8.536  0.6315  1.0827 -1.4020
   98MOL0     H13208   6.101   2.940   8.465  1.1855  1.9878 -0.2813
   98MOL0     H13209   6.048   2.921   8.632  0.7385 -0.9571  1.3200
   98MOL0     H13210   6.698   2.558   8.069  0.0526 -0.2971 -1.1937
   98MOL0     H13211   6.789   2.487   7.838  0.0389 -0.6523  0.6422
   98MOL0     H13212   7.344   2.222   7.681 -0.9689 -1.1509  1.6348
   98MOL0     H13213   7.403   2.141   7.466 -0.2086  0.7840 -0.0627
   98MOL0     H13214   8.178   2.717   6.165 -2.9390  0.3371  0.1128
   98MOL0     H13215   8.293   2.628   5.968 -0.7668  0.6781 -0.9207
   98MOL0     H13216   8.446   2.443   5.708 -2.8986  3.3344 -1.9554
   98MOL0     H13217   8.617   2.378   5.556  0.4229 -2.2405  1.8682
   98MOL0     H13218   8.564   1.998   5.417  1.4917 -1.1090  1.0987
   98MOL0     H13219   8.730   2.043   5.436  0.6095 -2.5200 -2.0206
   98MOL0     H13220   8.710   1.942   5.228 -2.1674 -1.7157 -1.0621
   98MOL0     H13221   8.727   2.118   5.190  2.3574 -2.4033 -0.4296
   98MOL0     H13222   8.481   2.129   5.149 -1.0811 -2.2214 -2.2660
   98MOL0     H13223   8.457   1.954   5.174 -0.0209 -1.6298 -1.6716
   98MOL0     H13224   8.458   1.996   4.948  1.4309  1.2000 -1.9441
   98MOL0     H13225   8.590   2.108   4.963  2.8798 -1.8118 -0.7752
   98MOL0     H13226   8.805   1.757   4.899 -0.1117  0.3829  0.8952
   98MOL0     H13227   8.358   2.098   5.359 -1.2980  1.5241 -2.0545
   98MOL0     H13228   8.054   2.204   5.510 -1.0250 -1.3989 -2.1140
   98MOL0     H13229   8.116   2.094   5.406 -0.2911  0.6353  0.2688
   98MOL0     H13230   8.117   2.057   5.579 -2.4879 -1.3180 -1.1800
   99MOL0     O13231   5.544   2.422   7.079  0.4330  0.4676 -0.4109
   99MOL0     C13232   5.471   2.344   7.032  0.1766  0.0805  0.4973
   99MOL0     O13233   5.448   2.332   6.896  0.2641 -1.1189 -0.0911
   99MOL0     C13234   5.540   2.376   6.810 -0.4124 -0.8411  0.2115
   99MOL0     C13235   5.626   2.290   6.732  0.2009 -1.3151 -0.3234
   99MOL0     C13236   5.703   2.347   6.629 -0.1675  0.6855  0.6190
   99MOL0     C13237   5.693   2.485   6.602 -0.3333  0.6931  0.6557
   99MOL0     O13238   5.769   2.538   6.499 -0.4732 -0.1432 -0.0451
   99MOL0     C13239   5.720   2.663   6.434 -0.3283 -0.4033 -0.8587
   99MOL0     C13240   5.827   2.720   6.325 -0.4146 -0.2757  0.0571
   99MOL0     C13241   5.781   2.867   6.269 -0.4173  0.1829 -0.5880
   99MOL0     C13242   5.893   2.929   6.192 -0.1690 -0.1122 -0.2208
   99MOL0     C13243   5.841   3.053   6.110 -0.2662  0.3773  0.5549
   99MOL0     C13244   5.952   3.136   6.035  0.1304  0.2723 -0.7334
   99MOL0     C13245   6.017   3.055   5.928 -0.2331 -0.3780  1.3440
   99MOL0     C13246   6.128   3.134   5.852  0.6502  0.1779 -0.9832
   99MOL0     N13247   6.088   3.259   5.791  0.1620 -0.1705  0.0722
   99MOL0     C13248   6.003   3.272   5.681  0.5733 -0.1071 -0.3955
   99MOL0     C13249   5.967   3.406   5.702 -0.2831 -0.5656 -0.8557
   99MOL0     C13250   5.858   3.482   5.635 -1.3034 -0.0662  0.1644
   99MOL0     C13251   5.749   3.508   5.736  0.2518 -0.2067  0.3657
   99MOL0     C13252   5.695   3.377   5.795 -0.1038 -0.4709 -0.3125
   99MOL0     C13253   5.566   3.394   5.880 -0.3238 -0.2004  0.8259
   99MOL0     O13254   5.453   3.404   5.784 -0.8093 -0.1359 -0.2913
   99MOL0     C13255   5.319   3.408   5.822 -0.3121 -0.6549 -1.0436
   99MOL0     C13256   5.235   3.412   5.713 -0.5178  0.4679  0.3639
   99MOL0     C13257   5.105   3.412   5.710  0.2551  0.6963 -0.2992
   99MOL0     C13258   5.042   3.422   5.839  0.4572 -0.6040  0.6849
   99MOL0     C13259   4.902   3.445   5.853 -0.3719 -0.0957 -0.0811
   99MOL0     O13260   4.859   3.448   5.983  0.3294 -0.0973 -0.5234
   99MOL0     C13261   4.730   3.459   6.030  0.1141 -0.4487 -0.9546
   99MOL0     C13262   4.716   3.538   6.144  0.3745  0.2986 -0.6110
   99MOL0     C13263   4.594   3.553   6.215 -0.2965 -0.2304  0.3377
   99MOL0     C13264   4.474   3.501   6.165  0.2388  0.7228 -0.2688
   99MOL0     O13265   4.362   3.507   6.245  0.4135 -0.0115 -0.0743
   99MOL0     C13266   4.230   3.486   6.188 -0.5438 -1.5961  0.4154
   99MOL0     C13267   4.182   3.350   6.250 -0.2859  0.8080 -0.1590
   99MOL0     C13268   4.028   3.334   6.224 -0.1141  0.1119 -0.4761
   99MOL0     C13269   3.936   3.424   6.307 -0.3671 -0.8478  0.0607
   99MOL0     C13270   3.788   3.419   6.276 -1.3242  0.6843 -0.4149
   99MOL0     C13271   3.740   3.452   6.140  0.4804 -0.1665  0.6198
   99MOL0     C13272   3.598   3.417   6.109 -0.0511  0.2255  0.2642
   99MOL0     C13273   3.485   3.519   6.150  0.7746  0.9933  0.1129
   99MOL0    Cl13274   3.478   3.655   6.035  0.5596 -0.3492  0.1588
   99MOL0     C13275   4.482   3.451   6.037  0.3923 -0.0874 -0.4044
   99MOL0     C13276   4.610   3.423   5.975  0.1402 -0.2217  0.6355
   99MOL0     O13277   4.841   3.475   5.745  0.6428  0.5887 -0.1555
   99MOL0     C13278   5.124   3.419   5.956  0.4487  0.4991 -0.0950
   99MOL0     C13279   5.261   3.407   5.946 -0.0337 -0.0486  0.0623
   99MOL0     N13280   6.037   3.464   5.805  0.1624 -0.2512 -0.1106
   99MOL0     N13281   6.117   3.378   5.849  0.1295  0.2343  0.0179
   99MOL0     C13282   5.616   2.565   6.676  0.1938 -0.4167  0.5102
   99MOL0     C13283   5.552   2.514   6.790 -0.2068  0.1925  0.4993
   99MOL0     C13284   5.395   2.247   7.120 -0.4751  1.0890 -0.1934
   99MOL0     C13285   5.278   2.189   7.058  0.0652  0.7709 -1.2932
   99MOL0     C13286   5.189   2.114   7.136  0.0805 -0.4760 -0.5668
   99MOL0     C13287   5.217   2.093   7.271 -0.2794 -0.1042  0.2665
   99MOL0     O13288   5.121   2.013   7.337 -0.1569 -0.1703 -0.9071
   99MOL0     C13289   5.117   1.870   7.314 -0.0975  0.0968 -0.5815
   99MOL0     C13290   4.981   1.824   7.350  0.0421  0.6082 -0.7698
   99MOL0     C13291   4.866   1.895   7.286  0.6875 -0.3494 -0.2103
   99MOL0     C13292   4.741   1.809   7.300  0.0697  0.0436  0.0278
   99MOL0     C13293   4.742   1.694   7.206  0.7871  0.6305 -0.2243
   99MOL0     C13294   4.736   1.592   7.147 -0.2041 -0.1633  0.5680
   99MOL0     C13295   5.324   2.146   7.326 -0.3507 -0.2287  0.1474
   99MOL0     C13296   5.425   2.222   7.259  0.0770  0.2816 -0.2357
   99MOL0     C13297   5.546   2.273   7.330 -0.0452 -0.0981 -0.6351
   99MOL0     H13298   5.646   2.187   6.758  3.5685 -0.4792  0.8676
   99MOL0     H13299   5.770   2.284   6.572 -0.8076 -0.3571  0.9809
   99MOL0     H13300   5.630   2.642   6.377 -1.4808 -3.8299  1.9430
   99MOL0     H13301   5.701   2.745   6.504 -2.1149  0.4266 -2.2332
   99MOL0     H13302   5.836   2.648   6.243  0.8220  0.6737 -0.6588
   99MOL0     H13303   5.923   2.724   6.377  1.0073  0.4366 -2.4728
   99MOL0     H13304   5.753   2.924   6.357 -1.5790  0.0554 -0.8681
   99MOL0     H13305   5.698   2.854   6.199 -0.6364  0.2552 -0.3421
   99MOL0     H13306   5.959   2.970   6.268 -0.3643  0.2932 -0.2677
   99MOL0     H13307   5.940   2.853   6.129  0.7704 -0.5185  0.9272
   99MOL0     H13308   5.760   3.025   6.043 -0.9641 -0.6527  1.7886
   99MOL0     H13309   5.794   3.120   6.183 -0.5571  1.2197 -0.3875
   99MOL0     H13310   5.919   3.231   5.992  3.3037  0.9462 -1.9429
   99MOL0     H13311   6.031   3.147   6.109  1.4236 -1.2387 -1.8266
   99MOL0     H13312   5.944   3.037   5.849 -0.4490  0.3374  1.3751
   99MOL0     H13313   6.059   2.962   5.969  0.0629 -0.8867 -0.0471
   99MOL0     H13314   6.204   3.155   5.928 -0.8669  2.6616  0.0070
   99MOL0     H13315   6.176   3.067   5.780  1.1928 -1.7688  1.0862
   99MOL0     H13316   5.971   3.208   5.599  0.8075  0.3852 -0.8753
   99MOL0     H13317   5.898   3.581   5.612  1.1434 -0.8470  0.7914
   99MOL0     H13318   5.822   3.424   5.549 -0.7703 -0.8347  0.4453
   99MOL0     H13319   5.781   3.574   5.817 -1.6546 -1.0724  1.9401
   99MOL0     H13320   5.675   3.571   5.685 -1.0300 -1.9594 -0.0158
   99MOL0     H13321   5.779   3.355   5.863  1.3436 -2.2078 -2.5165
   99MOL0     H13322   5.689   3.296   5.721  0.6353 -0.9894  0.1699
   99MOL0     H13323   5.579   3.473   5.954  3.6693 -0.9779  1.1714
   99MOL0     H13324   5.551   3.308   5.945 -0.6830 -1.2556 -0.6095
   99MOL0     H13325   5.284   3.430   5.618 -0.7560  1.4129  0.4107
   99MOL0     H13326   5.058   3.412   5.612  0.6194 -2.5688 -0.5932
   99MOL0     H13327   4.810   3.578   6.182  0.1356 -2.3354  3.3994
   99MOL0     H13328   4.594   3.602   6.312  0.9193  0.8954 -0.2056
   99MOL0     H13329   4.181   3.571   6.234  5.9952  3.5057 -0.5747
   99MOL0     H13330   4.209   3.517   6.085  3.5830  2.0729  0.3707
   99MOL0     H13331   4.229   3.267   6.197  0.5091  0.7974  0.5449
   99MOL0     H13332   4.207   3.353   6.356 -2.0627  2.7243  0.2857
   99MOL0     H13333   4.008   3.368   6.122  0.2333 -0.4438 -0.7340
   99MOL0     H13334   4.008   3.229   6.245 -3.3610  0.6386 -0.4620
   99MOL0     H13335   3.961   3.529   6.292 -0.5190 -1.0204 -1.6096
   99MOL0     H13336   3.945   3.402   6.414  0.7043 -1.0379 -0.0544
   99MOL0     H13337   3.741   3.487   6.347 -2.4718 -0.8086  0.3047
   99MOL0     H13338   3.761   3.317   6.304  0.3434  0.1537 -0.6363
   99MOL0     H13339   3.758   3.558   6.119 -3.2173  0.8591  1.7741
   99MOL0     H13340   3.799   3.389   6.073 -2.0534 -1.8281 -0.2322
   99MOL0     H13341   3.578   3.317   6.148 -0.4709  0.2685  0.1612
   99MOL0     H13342   3.585   3.415   6.000  0.0398  1.5719  0.2035
   99MOL0     H13343   3.386   3.472   6.148  1.2908 -0.1674  0.5805
   99MOL0     H13344   3.502   3.560   6.249 -2.5836 -1.9395  2.1474
   99MOL0     H13345   4.389   3.412   5.995 -1.3090  3.2296 -0.0570
   99MOL0     H13346   4.630   3.368   5.883  0.5944  0.7659  0.1346
   99MOL0     H13347   5.074   3.424   6.052 -2.1127 -2.7584 -1.1000
   99MOL0     H13348   5.307   3.416   6.044  1.2431  1.7265 -0.6453
   99MOL0     H13349   5.631   2.672   6.666  1.5183 -0.4413  1.8650
   99MOL0     H13350   5.493   2.582   6.851 -1.2615  0.4698 -0.7927
   99MOL0     H13351   5.241   2.206   6.957 -1.7540 -1.2713 -1.0499
   99MOL0     H13352   5.094   2.089   7.089 -0.4611  0.1412  0.1680
   99MOL0     H13353   5.189   1.830   7.386 -2.3672 -1.4580  0.9634
   99MOL0     H13354   5.142   1.842   7.212  0.6938 -0.9909 -0.0977
   99MOL0     H13355   4.982   1.837   7.459  1.4743 -1.8134 -0.4089
   99MOL0     H13356   4.973   1.715   7.343 -2.7600  0.8564 -3.1439
   99MOL0     H13357   4.873   1.923   7.181  0.7567  0.0393 -0.1051
   99MOL0     H13358   4.843   1.985   7.345  2.3712  2.2483 -3.1686
   99MOL0     H13359   4.732   1.764   7.399 -2.4973  0.4128  0.0218
   99MOL0     H13360   4.652   1.871   7.290  1.4227  1.8415 -2.0493
   99MOL0     H13361   4.730   1.509   7.080 -0.3401  0.1731  0.1591
   99MOL0     H13362   5.345   2.138   7.432  0.5277  0.0567  0.0076
   99MOL0     H13363   5.543   2.242   7.435  2.4518  1.7498  0.1026
   99MOL0     H13364   5.633   2.224   7.285  0.8803  1.2974 -0.4404
   99MOL0     H13365   5.562   2.381   7.321  1.5204 -0.2213  0.2547
  100MOL0     O13366   5.376  11.216   7.218 -0.3399 -0.6204  0.7496
  100MOL0     C13367   5.328  11.109   7.190  0.1604 -0.0509  0.1886
  100MOL0     O13368   5.400  10.993   7.184  0.5279 -0.1502  0.0231
  100MOL0     C13369   5.532  11.004   7.238 -0.2200  0.1736 -1.0551
  100MOL0     C13370   5.628  11.025   7.148 -0.7515  1.0001  0.0257
  100MOL0     C13371   5.761  11.051   7.197  0.5514  1.1880  0.4234
  100MOL0     C13372   5.780  11.063   7.331 -0.6975  0.1920  0.3444
  100MOL0     O13373   5.911  11.085   7.378  0.3188  0.7868  0.3870
  100MOL0     C13374   6.015  11.113   7.275 -0.6877 -0.0387  0.1394
  100MOL0     C13375   6.150  11.165   7.343  0.5240 -0.0535  1.1134
  100MOL0     C13376   6.209  11.062   7.433  0.0415 -0.7149 -0.7081
  100MOL0     C13377   6.253  10.936   7.354 -0.4320  0.7891 -0.4592
  100MOL0     C13378   6.335  10.834   7.437  1.2220  0.0948  0.2147
  100MOL0     C13379   6.388  10.707   7.373 -0.4900 -0.3192 -0.3895
  100MOL0     C13380   6.458  10.622   7.486 -0.6211  0.1033  0.0195
  100MOL0     C13381   6.532  10.498   7.430  0.2305 -0.6096  0.2587
  100MOL0     N13382   6.585  10.426   7.549  0.5837  0.3118 -0.4936
  100MOL0     C13383   6.706  10.450   7.618 -0.1304  1.2450 -0.1286
  100MOL0     C13384   6.707  10.362   7.719  0.4921 -1.0105  0.1790
  100MOL0     C13385   6.810  10.329   7.817 -0.7265 -0.5270  0.1843
  100MOL0     C13386   6.798  10.381   7.965  0.5788 -0.0305  1.1658
  100MOL0     C13387   6.791  10.531   7.968 -0.2254 -0.5901 -0.3675
  100MOL0     C13388   6.928  10.591   7.963 -0.1475  0.1022 -0.2378
  100MOL0     O13389   6.987  10.561   8.092 -0.0953 -0.2788 -0.4004
  100MOL0     C13390   7.094  10.641   8.124 -0.5755  0.8500 -0.3475
  100MOL0     C13391   7.136  10.623   8.258 -0.5999 -0.5883  0.2468
  100MOL0     C13392   7.233  10.697   8.327 -0.2629 -0.3664  0.7300
  100MOL0     C13393   7.299  10.795   8.249  0.4897 -0.5228  0.2018
  100MOL0     C13394   7.404  10.877   8.311  0.0464  0.2605 -0.8587
  100MOL0     O13395   7.434  10.998   8.250 -0.4372 -0.0242 -0.6977
  100MOL0     C13396   7.525  11.072   8.317  0.7743 -0.1505 -0.7858
  100MOL0     C13397   7.496  11.180   8.400  0.2112 -0.1488 -0.6280
  100MOL0     C13398   7.585  11.278   8.432 -0.5124  0.1612  0.4194
  100MOL0     C13399   7.717  11.266   8.379  1.2818 -0.0012 -0.3762
  100MOL0     O13400   7.804  11.370   8.415  0.2054 -0.3513 -0.0968
  100MOL0     C13401   7.813  11.478   8.324 -0.9586  0.2743 -0.1687
  100MOL0     C13402   7.951  11.529   8.322  1.2397  0.7251 -1.4472
  100MOL0     C13403   7.966  11.657   8.240  0.5599 -0.3262 -0.1211
  100MOL0     C13404   7.928  11.784   8.317 -0.4104 -0.9254  0.0025
  100MOL0     C13405   7.932  11.898   8.205 -0.2281 -0.8799 -0.2405
  100MOL0     C13406   7.866  12.023   8.251  0.7032 -0.1407  0.1748
  100MOL0     C13407   7.724  12.009   8.314  0.0277 -0.6823 -0.5749
  100MOL0     C13408   7.646  12.140   8.299  0.5882 -0.2763  0.2288
  100MOL0    Cl13409   7.471  12.103   8.347 -0.2757 -0.5118  0.4960
  100MOL0     C13410   7.758  11.155   8.305 -1.1126 -0.8147  0.0932
  100MOL0     C13411   7.664  11.060   8.277  0.0020  0.2726 -0.2552
  100MOL0     O13412   7.439  10.849   8.422 -0.3817 -1.1958 -0.4215
  100MOL0     C13413   7.269  10.816   8.113  0.2539  0.3378 -0.2202
  100MOL0     C13414   7.170  10.730   8.048 -0.2498  0.7801  1.2877
  100MOL0     N13415   6.584  10.296   7.725  0.4155  0.6268 -0.2373
  100MOL0     N13416   6.518  10.331   7.625  0.4660  0.1279  0.5379
  100MOL0     C13417   5.674  11.041   7.415  0.1043 -0.8751 -0.1211
  100MOL0     C13418   5.546  11.009   7.377 -0.5871  1.3166  1.0911
  100MOL0     C13419   5.177  11.096   7.152  0.5452  0.3392  0.5520
  100MOL0     C13420   5.126  10.974   7.107  0.6083 -0.7349 -0.8498
  100MOL0     C13421   4.989  10.956   7.086  0.5156 -0.2203 -0.2979
  100MOL0     C13422   4.899  11.057   7.109 -0.0219  0.2052  0.3835
  100MOL0     O13423   4.763  11.036   7.095  0.9123  0.3624  0.1351
  100MOL0     C13424   4.671  11.097   7.195  0.3992 -0.0648  0.1913
  100MOL0     C13425   4.606  10.984   7.284  0.2727  0.4016 -0.4450
  100MOL0     C13426   4.689  10.925   7.394 -0.0395 -0.5140  0.4181
  100MOL0     C13427   4.623  10.831   7.489 -0.6988 -0.1859 -0.5581
  100MOL0     C13428   4.556  10.720   7.422  0.4813 -0.2293  1.3822
  100MOL0     C13429   4.502  10.640   7.352  0.1509  0.4900  0.7071
  100MOL0     C13430   4.956  11.182   7.140 -0.0767 -0.5740  0.3673
  100MOL0     C13431   5.093  11.202   7.153 -0.1517 -0.6962  0.2870
  100MOL0     C13432   5.134  11.346   7.191 -0.3800  0.0253 -0.4509
  100MOL0     H13433   5.608  11.015   7.042  0.0940 -1.5484  0.0553
  100MOL0     H13434   5.837  11.049   7.120 -0.0757 -0.2924 -0.1971
  100MOL0     H13435   6.044  11.026   7.216  0.6747 -1.4164  2.6567
  100MOL0     H13436   5.977  11.192   7.211  1.7056 -1.3806 -3.2058
  100MOL0     H13437   6.129  11.263   7.388 -3.0493 -0.5049  0.7556
  100MOL0     H13438   6.217  11.171   7.257 -1.3962 -0.7072 -0.5076
  100MOL0     H13439   6.138  11.035   7.511 -0.4584 -4.9046 -2.3408
  100MOL0     H13440   6.293  11.115   7.479 -0.0966 -2.0310  1.1525
  100MOL0     H13441   6.178  10.882   7.294 -1.2711 -1.4185  2.3747
  100MOL0     H13442   6.323  10.971   7.277 -0.4059  0.4726 -0.5834
  100MOL0     H13443   6.422  10.883   7.480  1.0640 -0.3242  1.0269
  100MOL0     H13444   6.278  10.799   7.523 -0.7549  1.4922 -0.4330
  100MOL0     H13445   6.320  10.644   7.316  0.5806 -3.6396  1.7022
  100MOL0     H13446   6.470  10.740   7.309  0.0848  1.2413  1.0740
  100MOL0     H13447   6.380  10.580   7.552 -0.4890 -0.6141 -0.2662
  100MOL0     H13448   6.516  10.677   7.561 -1.0575  0.5630  0.0255
  100MOL0     H13449   6.452  10.446   7.376 -2.9825  3.0802  1.0169
  100MOL0     H13450   6.620  10.528   7.372 -0.1741 -0.4384 -0.2761
  100MOL0     H13451   6.790  10.509   7.582  1.5056 -0.3629  0.9045
  100MOL0     H13452   6.793  10.221   7.820 -1.0956 -0.4824  3.6835
  100MOL0     H13453   6.909  10.356   7.777  0.5354 -0.8095  2.9071
  100MOL0     H13454   6.705  10.354   8.015 -1.5232  2.4853 -1.0588
  100MOL0     H13455   6.888  10.343   8.014  2.4931  4.2939  1.5135
  100MOL0     H13456   6.747  10.568   8.061  1.2488 -2.1945  1.0620
  100MOL0     H13457   6.736  10.569   7.882 -2.5128  0.4255  1.4491
  100MOL0     H13458   6.908  10.699   7.957  0.2044  0.2114  0.5156
  100MOL0     H13459   6.989  10.540   7.889 -0.2344 -3.1295  1.7407
  100MOL0     H13460   7.070  10.557   8.314 -0.5970  1.5704  2.9940
  100MOL0     H13461   7.257  10.675   8.431  1.0000  2.0752  1.0433
  100MOL0     H13462   7.392  11.200   8.422 -0.0844 -0.4071 -1.7345
  100MOL0     H13463   7.566  11.360   8.500  2.3049  0.1360  1.3478
  100MOL0     H13464   7.799  11.446   8.220  0.5558  0.9516 -0.6047
  100MOL0     H13465   7.745  11.553   8.366 -1.1829 -0.9618  1.7833
  100MOL0     H13466   7.998  11.539   8.420  2.1740  0.4994 -1.8648
  100MOL0     H13467   8.001  11.452   8.263 -1.3253 -1.0564 -1.5022
  100MOL0     H13468   8.069  11.672   8.207  0.9721 -3.4346 -0.5495
  100MOL0     H13469   7.905  11.652   8.149 -1.8890  4.2159  0.9518
  100MOL0     H13470   7.993  11.795   8.404 -0.4625  0.6360 -0.1219
  100MOL0     H13471   7.837  11.781   8.377  0.0921 -0.8896  0.7815
  100MOL0     H13472   7.906  11.870   8.103  1.8205  0.3957 -1.1738
  100MOL0     H13473   8.040  11.909   8.193  0.2270 -2.4891  1.7218
  100MOL0     H13474   7.924  12.082   8.323 -0.4819  1.6283 -0.2760
  100MOL0     H13475   7.847  12.085   8.163 -2.1270  0.6042  1.2049
  100MOL0     H13476   7.723  11.972   8.417  0.9386 -1.2002 -0.7459
  100MOL0     H13477   7.653  11.944   8.262 -3.1139 -2.1639  4.7752
  100MOL0     H13478   7.679  12.225   8.359 -0.4701  1.1731 -1.1540
  100MOL0     H13479   7.642  12.175   8.195 -0.2142  0.4880  0.5029
  100MOL0     H13480   7.857  11.142   8.263 -1.2135 -0.1676 -0.3508
  100MOL0     H13481   7.689  10.975   8.214 -3.4072  0.4260 -2.0458
  100MOL0     H13482   7.330  10.887   8.057  1.4524 -0.9548 -0.5967
  100MOL0     H13483   7.144  10.759   7.947 -0.3885  1.7584  1.5923
  100MOL0     H13484   5.697  11.046   7.521 -1.3170  0.0124  0.1789
  100MOL0     H13485   5.478  10.980   7.457  1.0873  0.2421  2.1959
  100MOL0     H13486   5.183  10.882   7.091  0.2254 -1.6565  2.2809
  100MOL0     H13487   4.954  10.864   7.041  1.0051 -0.4108 -0.2925
  100MOL0     H13488   4.591  11.147   7.140  0.6830  0.3103  0.1147
  100MOL0     H13489   4.714  11.172   7.262  2.2129 -1.0178  0.1370
  100MOL0     H13490   4.575  10.900   7.221  1.5740 -0.7685  0.4365
  100MOL0     H13491   4.514  11.017   7.334  0.5870 -0.8250  1.0036
  100MOL0     H13492   4.737  11.008   7.446 -1.7324  2.6983 -2.6848
  100MOL0     H13493   4.775  10.875   7.348  1.2178  1.2728  0.7395
  100MOL0     H13494   4.710  10.797   7.545 -0.1651  1.8775 -0.0583
  100MOL0     H13495   4.556  10.871   7.566  1.4657 -2.1064  2.5721
  100MOL0     H13496   4.448  10.567   7.294 -1.2867  0.7684  1.6268
  100MOL0     H13497   4.885  11.260   7.166 -0.1823 -0.6611  0.3390
  100MOL0     H13498   5.172  11.363   7.292 -0.4503 -2.3372  0.0372
  100MOL0     H13499   5.201  11.391   7.117 -0.4958  1.1331  0.0921
  100MOL0     H13500   5.050  11.414   7.175 -0.2522  0.3525  0.2541
  101MOL0     O13501   9.017   6.651   6.834  0.7538 -0.1124  0.6477
  101MOL0     C13502   9.081   6.749   6.880  0.6368 -0.1221 -0.4001
  101MOL0     O13503   9.025   6.869   6.915 -0.1566  0.1875 -0.7386
  101MOL0     C13504   8.895   6.907   6.866  0.0086 -1.1812  0.0142
  101MOL0     C13505   8.886   7.034   6.812 -0.1300  0.6689  0.2828
  101MOL0     C13506   8.767   7.093   6.784  0.7925  0.0290  0.3931
  101MOL0     C13507   8.651   7.020   6.794  0.9597  0.3819  0.1382
  101MOL0     O13508   8.541   7.086   6.758  0.7355  0.0081 -0.8860
  101MOL0     C13509   8.420   7.026   6.812  0.6970 -0.0468 -0.1002
  101MOL0     C13510   8.304   7.080   6.731  0.3321  0.5106 -0.3860
  101MOL0     C13511   8.290   7.228   6.767 -0.4282 -0.4868 -0.2081
  101MOL0     C13512   8.153   7.265   6.718  0.3477  0.3284  0.8404
  101MOL0     C13513   8.105   7.408   6.763 -0.0899  0.8630  0.2619
  101MOL0     C13514   7.955   7.434   6.750 -1.4297  0.4670 -0.1793
  101MOL0     C13515   7.924   7.582   6.764 -0.0360 -0.4204 -0.7145
  101MOL0     C13516   7.985   7.661   6.886  0.7845  0.0859 -0.5298
  101MOL0     N13517   7.896   7.769   6.926 -0.2856  0.8169 -0.1449
  101MOL0     C13518   7.842   7.865   6.848  0.6694  1.0012  0.0821
  101MOL0     C13519   7.761   7.941   6.924 -0.1475 -0.7234 -1.0230
  101MOL0     C13520   7.684   8.067   6.888 -1.1572  0.3421 -0.1875
  101MOL0     C13521   7.697   8.120   6.752  0.6848  0.0346  0.1640
  101MOL0     C13522   7.824   8.183   6.707  0.8350  0.5267 -0.4861
  101MOL0     C13523   7.807   8.246   6.568 -0.0691  0.6554  0.7082
  101MOL0     O13524   7.725   8.361   6.566  0.1934  0.4137 -0.6433
  101MOL0     C13525   7.707   8.422   6.445  0.2230 -0.1396  0.3941
  101MOL0     C13526   7.616   8.517   6.441 -0.7949  0.4226 -0.1237
  101MOL0     C13527   7.581   8.594   6.321 -0.4032  0.0715 -0.4681
  101MOL0     C13528   7.640   8.562   6.204  0.2374  1.3486 -0.0360
  101MOL0     C13529   7.615   8.634   6.079  0.9993  0.9251 -0.0907
  101MOL0     O13530   7.566   8.769   6.088 -0.5853  0.4557  0.0137
  101MOL0     C13531   7.530   8.829   5.974  0.4362  0.2789  0.0110
  101MOL0     C13532   7.602   8.951   5.949  0.6482  0.0429  0.0250
  101MOL0     C13533   7.571   9.024   5.827  1.1627  0.3896 -0.0324
  101MOL0     C13534   7.475   8.981   5.742  0.2246  0.1369 -0.3817
  101MOL0     O13535   7.433   9.044   5.630  0.8003 -0.3328 -0.1302
  101MOL0     C13536   7.467   9.178   5.612 -0.4628 -0.2874 -0.6362
  101MOL0     C13537   7.392   9.238   5.494 -0.0883  0.6302  0.5894
  101MOL0     C13538   7.384   9.137   5.382  0.4472 -0.0104  1.1978
  101MOL0     C13539   7.303   9.209   5.256 -1.1296 -0.3895 -0.6045
  101MOL0     C13540   7.323   9.128   5.127 -0.1753  0.4914  0.3524
  101MOL0     C13541   7.220   9.173   5.029  0.1021 -0.0311 -1.2462
  101MOL0     C13542   7.251   9.132   4.886  0.8317 -0.2411 -0.5010
  101MOL0     C13543   7.241   8.979   4.866  0.5523 -0.0745  1.1136
  101MOL0    Cl13544   7.316   8.931   4.705  0.1136 -0.4318 -0.2350
  101MOL0     C13545   7.405   8.864   5.770 -0.3035 -0.4466 -0.4393
  101MOL0     C13546   7.437   8.786   5.885  0.6076 -0.0687 -0.0985
  101MOL0     O13547   7.640   8.575   5.973 -0.2327  0.4386  0.3732
  101MOL0     C13548   7.717   8.447   6.206 -0.3829 -0.7162  0.6422
  101MOL0     C13549   7.754   8.384   6.321  1.1712  0.7566  0.6610
  101MOL0     N13550   7.780   7.896   7.054 -0.7078 -0.1186  0.1198
  101MOL0     N13551   7.849   7.793   7.048 -0.1867  0.2300 -0.4511
  101MOL0     C13552   8.660   6.879   6.835  0.1082 -0.6123 -1.3503
  101MOL0     C13553   8.782   6.830   6.889  0.2333  0.3139 -0.1280
  101MOL0     C13554   9.214   6.749   6.931 -0.5971  0.5995  0.0888
  101MOL0     C13555   9.224   6.671   7.049  0.4375 -1.2081 -0.1500
  101MOL0     C13556   9.343   6.665   7.123  0.2367 -0.0068 -0.7578
  101MOL0     C13557   9.457   6.727   7.065  0.6634 -0.3537  0.9670
  101MOL0     O13558   9.579   6.694   7.125 -0.3288  0.3408 -0.6508
  101MOL0     C13559   9.699   6.721   7.058 -1.1491  0.1551  0.1841
  101MOL0     C13560   9.808   6.657   7.144 -0.7454  0.3909 -0.7512
  101MOL0     C13561   9.841   6.753   7.253 -0.0104  0.0306 -0.3191
  101MOL0     C13562   9.967   6.837   7.219  0.2060  0.3560 -0.1206
  101MOL0     C13563  10.013   6.932   7.317  0.2054  1.2187  0.1399
  101MOL0     C13564  10.065   7.014   7.398 -0.1415 -0.1455  0.6367
  101MOL0     C13565   9.443   6.797   6.939 -0.7682  0.8140 -0.4961
  101MOL0     C13566   9.325   6.808   6.868  0.5252  0.9377  0.1848
  101MOL0     C13567   9.320   6.884   6.732 -0.4382  0.8654 -0.2546
  101MOL0     H13568   8.979   7.086   6.792  0.4924 -0.2758  0.6387
  101MOL0     H13569   8.762   7.196   6.751 -3.6495  0.2100  1.0659
  101MOL0     H13570   8.423   6.921   6.781 -1.3460  0.0239 -0.6757
  101MOL0     H13571   8.410   7.037   6.921  2.4877 -2.2489  0.3571
  101MOL0     H13572   8.218   7.020   6.764 -0.4025 -0.0256 -3.0054
  101MOL0     H13573   8.318   7.071   6.623  2.5366 -3.5371  0.0464
  101MOL0     H13574   8.366   7.288   6.718 -0.8829 -1.6097 -2.4030
  101MOL0     H13575   8.298   7.236   6.876  0.5236 -1.7661 -0.1624
  101MOL0     H13576   8.158   7.253   6.610  0.3834  1.7011  0.6717
  101MOL0     H13577   8.080   7.194   6.756 -0.2062  0.7243  0.5370
  101MOL0     H13578   8.133   7.429   6.866  2.9904 -0.6237 -0.1606
  101MOL0     H13579   8.158   7.481   6.701 -0.3231  0.7912 -0.0229
  101MOL0     H13580   7.907   7.405   6.656 -1.6839  2.1360 -0.6076
  101MOL0     H13581   7.896   7.380   6.825  0.1730 -1.0081  0.0798
  101MOL0     H13582   7.816   7.597   6.774 -0.1009 -0.6705 -1.0456
  101MOL0     H13583   7.945   7.631   6.668 -2.3906 -2.7155 -2.5492
  101MOL0     H13584   8.002   7.589   6.966 -2.2298  0.9534  1.0205
  101MOL0     H13585   8.084   7.698   6.858  0.5241  0.3024 -1.1930
  101MOL0     H13586   7.857   7.882   6.742 -3.8475  0.3299 -0.8752
  101MOL0     H13587   7.577   8.055   6.908 -1.8614  4.4213 -0.6322
  101MOL0     H13588   7.717   8.152   6.949  1.0847 -0.1353 -0.6425
  101MOL0     H13589   7.682   8.036   6.684 -0.4061  0.1146  0.2848
  101MOL0     H13590   7.619   8.197   6.742  0.1731 -0.2143  1.8944
  101MOL0     H13591   7.898   8.103   6.700 -2.6442 -3.1339  1.1116
  101MOL0     H13592   7.848   8.258   6.783 -3.2673  0.5890  0.9415
  101MOL0     H13593   7.764   8.177   6.495  0.2954  0.5400  0.6003
  101MOL0     H13594   7.906   8.269   6.526  0.0075 -1.0490 -0.1408
  101MOL0     H13595   7.553   8.524   6.529 -1.8238 -4.9547 -0.1297
  101MOL0     H13596   7.522   8.683   6.340  0.6252  0.7145 -0.1588
  101MOL0     H13597   7.680   8.976   6.020 -0.7372 -0.5648  1.8247
  101MOL0     H13598   7.627   9.112   5.794  0.4919  0.1456 -1.9789
  101MOL0     H13599   7.433   9.246   5.691 -3.1321 -0.1446 -1.8025
  101MOL0     H13600   7.575   9.189   5.595 -0.6290 -1.5654 -2.7808
  101MOL0     H13601   7.296   9.263   5.540 -0.9826 -0.1504 -0.7829
  101MOL0     H13602   7.432   9.335   5.462 -0.6753 -0.0434 -2.4744
  101MOL0     H13603   7.486   9.112   5.351  1.0466  3.8590 -0.4917
  101MOL0     H13604   7.339   9.040   5.405 -1.4853  0.3404 -0.7146
  101MOL0     H13605   7.359   9.303   5.243  1.8507 -2.1077 -1.2745
  101MOL0     H13606   7.200   9.230   5.286 -0.6225  2.0352 -0.2932
  101MOL0     H13607   7.324   9.019   5.133 -1.0037  0.2356 -2.7645
  101MOL0     H13608   7.424   9.162   5.101  0.1830 -0.9396 -0.1734
  101MOL0     H13609   7.122   9.131   5.052 -0.8195  1.4865 -2.1904
  101MOL0     H13610   7.213   9.282   5.024  2.3586  0.3898  1.6924
  101MOL0     H13611   7.354   9.158   4.860  0.2884  0.6798 -1.8210
  101MOL0     H13612   7.175   9.169   4.818 -2.1919  0.1229  2.7976
  101MOL0     H13613   7.284   8.925   4.951  0.0490 -0.0155  1.4081
  101MOL0     H13614   7.132   8.970   4.867  0.4813  0.7057  0.9655
  101MOL0     H13615   7.333   8.824   5.698 -0.8211 -2.1946  0.9529
  101MOL0     H13616   7.385   8.691   5.888  2.2795 -1.0707 -1.2055
  101MOL0     H13617   7.768   8.405   6.119 -2.7220  0.6671 -1.5393
  101MOL0     H13618   7.837   8.314   6.316  0.9733  0.5452  0.3545
  101MOL0     H13619   8.571   6.820   6.857  0.5614 -0.6510  0.5130
  101MOL0     H13620   8.796   6.731   6.930 -2.7165  0.3911  1.2851
  101MOL0     H13621   9.132   6.637   7.094 -1.8994  0.5003 -3.2489
  101MOL0     H13622   9.360   6.609   7.215 -1.4735 -1.2511 -1.1395
  101MOL0     H13623   9.720   6.827   7.040 -0.7226 -0.0167 -0.3553
  101MOL0     H13624   9.707   6.668   6.963 -0.6816  2.4947 -1.1730
  101MOL0     H13625   9.890   6.632   7.075 -1.2359 -0.2959 -1.0955
  101MOL0     H13626   9.780   6.556   7.177  4.5260 -1.2275 -0.2347
  101MOL0     H13627   9.870   6.711   7.350  2.1457 -0.8894 -1.2824
  101MOL0     H13628   9.758   6.820   7.274  1.9124  2.6172 -0.4088
  101MOL0     H13629  10.051   6.767   7.212  0.5070  0.5129  1.5472
  101MOL0     H13630   9.943   6.887   7.124 -2.6111  0.1235  0.4034
  101MOL0     H13631  10.078   7.088   7.475  1.1681 -0.0901  0.3874
  101MOL0     H13632   9.527   6.833   6.881 -0.0746 -1.0034 -0.6693
  101MOL0     H13633   9.317   6.799   6.663  0.4432 -1.2791  2.1604
  101MOL0     H13634   9.231   6.948   6.734 -4.0108 -3.5293  1.5478
  101MOL0     H13635   9.404   6.945   6.699  2.5641 -1.1556  2.8966
  102MOL0     O13636   0.120   8.889  10.214 -0.0259  0.9170  0.9567
  102MOL0     C13637   0.136   9.005  10.230  0.6344 -0.5529  0.4239
  102MOL0     O13638   0.259   9.061  10.235 -0.3391 -0.6355 -0.6838
  102MOL0     C13639   0.385   9.003  10.206 -0.2040  0.0801  0.8690
  102MOL0     C13640   0.402   8.899  10.110 -0.2204  0.1214 -0.6279
  102MOL0     C13641   0.532   8.858  10.074 -0.2259 -0.2433 -0.3944
  102MOL0     C13642   0.645   8.899  10.150  0.1368  0.0896 -0.0698
  102MOL0     O13643   0.765   8.854  10.126 -0.1669 -0.2590 -0.6608
  102MOL0     C13644   0.777   8.716  10.127  0.0743  0.2078  0.7682
  102MOL0     C13645   0.916   8.673  10.196  0.0512  0.6656  0.0141
  102MOL0     C13646   0.958   8.534  10.155 -0.5916 -0.1621 -0.6725
  102MOL0     C13647   0.872   8.427  10.207  0.0106 -0.3876 -0.2810
  102MOL0     C13648   0.885   8.390  10.355 -0.5549 -0.9584 -0.0131
  102MOL0     C13649   0.818   8.259  10.397  0.4845 -1.2472  0.2973
  102MOL0     C13650   0.872   8.208  10.534 -0.5146 -0.7197 -0.8836
  102MOL0     C13651   0.893   8.066  10.545  0.0767  0.6011 -1.0313
  102MOL0     N13652   0.995   8.036  10.651 -0.0741 -0.2495  1.0280
  102MOL0     C13653   0.963   8.007  10.782 -0.1548  0.7662  0.2135
  102MOL0     C13654   1.091   7.989  10.840  0.6494 -1.1128  0.2178
  102MOL0     C13655   1.113   7.964  10.982  0.4116 -0.6298  0.1923
  102MOL0     C13656   1.143   7.811  11.006 -0.0940 -0.3218  0.3237
  102MOL0     C13657   1.187   7.790  11.147 -0.6491 -0.8811 -0.4366
  102MOL0     C13658   1.259   7.653  11.151  0.0266 -0.1561 -0.3342
  102MOL0     O13659   1.293   7.636  11.293  0.2308  0.5859  0.3309
  102MOL0     C13660   1.364   7.528  11.334  0.2020  0.9023  0.1098
  102MOL0     C13661   1.378   7.411  11.256  0.4014 -0.2094  0.3098
  102MOL0     C13662   1.445   7.300  11.304  0.1395 -0.4454 -0.1925
  102MOL0     C13663   1.484   7.291  11.438  0.0496  0.6651  0.3605
  102MOL0     C13664   1.544   7.161  11.493 -0.2292 -0.5560 -0.4230
  102MOL0     O13665   1.581   7.150  11.624  0.3727  0.6340  0.0311
  102MOL0     C13666   1.621   7.032  11.673  0.0783  0.9650  0.0180
  102MOL0     C13667   1.723   7.035  11.777  0.3236 -0.3191 -0.4351
  102MOL0     C13668   1.773   6.920  11.833 -0.2847 -0.7111 -0.9772
  102MOL0     C13669   1.724   6.787  11.796  0.2657  0.0881  0.4657
  102MOL0     O13670   1.764   6.675  11.855  0.3781  0.4640  0.6109
  102MOL0     C13671   1.859   6.675  11.955 -0.5647 -0.1593  0.2086
  102MOL0     C13672   1.887   6.541  12.019  0.3004 -1.2404  0.5918
  102MOL0     C13673   1.911   6.432  11.921  0.0578 -0.1228  0.2283
  102MOL0     C13674   1.942   6.301  11.992 -0.3325  1.2283 -0.2249
  102MOL0     C13675   1.968   6.184  11.900  0.5273  0.6326  0.4264
  102MOL0     C13676   1.991   6.052  11.954 -0.2587 -0.1218  0.6625
  102MOL0     C13677   2.090   6.052  12.070 -0.8544 -0.2054  0.4791
  102MOL0     C13678   2.095   5.911  12.134  0.5064 -0.8442 -0.2001
  102MOL0    Cl13679   2.162   5.790  12.021 -0.2923 -0.2582 -0.1872
  102MOL0     C13680   1.629   6.787  11.691 -0.0755  0.1778 -0.3347
  102MOL0     C13681   1.573   6.904  11.629 -0.3847  0.5202 -0.1673
  102MOL0     O13682   1.556   7.079  11.406 -0.8656  0.6327 -0.4139
  102MOL0     C13683   1.474   7.416  11.508  0.4055 -0.0512 -0.5035
  102MOL0     C13684   1.407   7.526  11.462 -0.1487  0.1201  0.7604
  102MOL0     N13685   1.181   8.000  10.733  0.6327  0.3348  0.4511
  102MOL0     N13686   1.122   8.013  10.621  0.7910 -0.3957  0.6234
  102MOL0     C13687   0.632   9.000  10.254 -0.2623 -0.1874  0.4524
  102MOL0     C13688   0.497   9.051  10.266 -0.6283  0.4050  0.6774
  102MOL0     C13689   0.011   9.084  10.271 -0.1467 -0.1656  0.1681
  102MOL0     C13690  -0.120   9.036  10.230 -0.1538  0.2966 -0.3431
  102MOL0     C13691  -0.230   9.112  10.262 -0.0510  1.2911 -0.0423
  102MOL0     C13692  -0.230   9.230  10.341  0.8709  0.5828 -0.7622
  102MOL0     O13693  -0.328   9.309  10.381 -0.1162  0.8635  0.0957
  102MOL0     C13694  -0.467   9.260  10.388  0.5593  0.5185  0.0403
  102MOL0     C13695  -0.492   9.158  10.502 -0.0740 -0.2723  0.0969
  102MOL0     C13696  -0.508   9.224  10.639 -0.8047 -0.4006 -0.3723
  102MOL0     C13697  -0.644   9.200  10.693 -0.1392  0.7441 -0.0822
  102MOL0     C13698  -0.664   9.065  10.748  0.2720  0.2643  0.1911
  102MOL0     C13699  -0.680   8.953  10.789 -0.4813 -1.0518 -0.4528
  102MOL0     C13700  -0.102   9.268  10.372  0.2579 -0.2729 -0.4883
  102MOL0     C13701   0.019   9.203  10.346 -0.2883  0.2996  0.2380
  102MOL0     C13702   0.137   9.281  10.375 -0.1696 -0.3803 -1.4718
  102MOL0     H13703   0.324   8.861  10.045  1.0669 -1.1906 -1.4920
  102MOL0     H13704   0.554   8.786   9.996  1.1225 -2.3870  1.8114
  102MOL0     H13705   0.691   8.677  10.183 -1.3800  3.2769  0.8769
  102MOL0     H13706   0.788   8.681  10.024  1.1232  0.0552  0.9212
  102MOL0     H13707   0.916   8.688  10.305 -0.9077 -3.4200  0.7305
  102MOL0     H13708   0.998   8.736  10.162  2.0577 -1.1804  1.1840
  102MOL0     H13709   1.062   8.526  10.188 -0.5327 -1.8947 -1.1862
  102MOL0     H13710   0.962   8.532  10.046  0.0820 -2.1856 -0.6598
  102MOL0     H13711   0.767   8.439  10.181  0.7796 -0.5885 -4.1531
  102MOL0     H13712   0.908   8.336  10.157 -2.2117 -1.6526  0.2758
  102MOL0     H13713   0.990   8.375  10.384  0.0161 -0.4418 -1.7321
  102MOL0     H13714   0.840   8.474  10.409 -0.3399 -0.1410 -1.0763
  102MOL0     H13715   0.710   8.278  10.400  0.5207 -0.6727 -1.2275
  102MOL0     H13716   0.834   8.183  10.320  1.3827 -0.8837  0.1196
  102MOL0     H13717   0.812   8.236  10.621 -1.5622 -0.1364 -1.7645
  102MOL0     H13718   0.971   8.253  10.542 -0.8131  0.2785 -2.4030
  102MOL0     H13719   0.803   8.012  10.574  0.7859 -0.1656 -0.1965
  102MOL0     H13720   0.914   8.033  10.443 -1.5329 -2.0204 -0.5858
  102MOL0     H13721   0.870   8.011  10.838 -0.4081  0.5545 -0.1780
  102MOL0     H13722   1.196   8.026  11.017 -1.5234  0.5327  3.1704
  102MOL0     H13723   1.021   7.982  11.039 -0.3494 -3.2354 -0.0573
  102MOL0     H13724   1.053   7.757  10.973 -1.1644  0.0654  2.4488
  102MOL0     H13725   1.229   7.785  10.944 -0.4117 -0.8013  0.0696
  102MOL0     H13726   1.107   7.790  11.221  1.4982 -1.4879  2.0361
  102MOL0     H13727   1.269   7.857  11.176  0.0814 -1.8444 -0.2104
  102MOL0     H13728   1.345   7.644  11.084  0.9626 -1.3841  0.9697
  102MOL0     H13729   1.186   7.579  11.115  0.3551 -1.2487  1.1340
  102MOL0     H13730   1.338   7.400  11.156 -0.2943  1.9073  0.3012
  102MOL0     H13731   1.452   7.209  11.244 -1.4957  0.1979 -1.4475
  102MOL0     H13732   1.754   7.132  11.813  1.3392 -1.4120  1.8141
  102MOL0     H13733   1.846   6.935  11.912  0.6873 -3.6576 -1.2162
  102MOL0     H13734   1.955   6.709  11.917 -1.9286  1.1394 -2.4016
  102MOL0     H13735   1.826   6.742  12.035  0.7347  0.7397  0.0271
  102MOL0     H13736   1.973   6.551  12.086  1.9232 -3.7082 -0.9641
  102MOL0     H13737   1.791   6.509  12.061 -0.8834 -0.4674 -1.3356
  102MOL0     H13738   1.820   6.410  11.865  0.4036 -0.3879 -0.2346
  102MOL0     H13739   1.983   6.463  11.845 -0.0812  0.2918  0.2681
  102MOL0     H13740   1.872   6.279  12.073  0.6735  1.2038  0.6618
  102MOL0     H13741   2.031   6.319  12.054 -1.3746  1.6615  1.1884
  102MOL0     H13742   2.046   6.218  11.831 -0.7408  1.6074 -0.5834
  102MOL0     H13743   1.882   6.187  11.832  0.2787  2.5407  0.7455
  102MOL0     H13744   1.896   6.020  11.997  0.3425 -1.3205  1.1446
  102MOL0     H13745   2.025   5.976  11.884  1.1486 -0.8366  2.0595
  102MOL0     H13746   2.063   6.126  12.145  2.3869 -2.3929  4.1694
  102MOL0     H13747   2.182   6.100  12.037  0.1893 -1.7044  1.0805
  102MOL0     H13748   2.161   5.911  12.221  1.9125 -3.8872 -1.1434
  102MOL0     H13749   1.994   5.874  12.157  0.6685 -1.3588 -0.3093
  102MOL0     H13750   1.590   6.693  11.654 -0.4793  1.2457 -2.8354
  102MOL0     H13751   1.488   6.898  11.562  0.5399  1.3976 -1.4669
  102MOL0     H13752   1.516   7.423  11.608 -2.0980  2.6736  0.4855
  102MOL0     H13753   1.385   7.612  11.526 -1.3608 -1.9097  3.2582
  102MOL0     H13754   0.728   9.036  10.288 -0.7551  0.8909  0.7389
  102MOL0     H13755   0.488   9.145  10.320  1.6634  0.2041  1.5173
  102MOL0     H13756  -0.133   8.945  10.172  1.4712 -1.1973  1.4759
  102MOL0     H13757  -0.324   9.084  10.216  0.2849  1.6959 -1.0260
  102MOL0     H13758  -0.491   9.196  10.303  0.9307  0.0608  0.2745
  102MOL0     H13759  -0.536   9.345  10.394 -0.8814 -0.3539 -2.6915
  102MOL0     H13760  -0.414   9.082  10.510  0.7292  0.6486  1.3714
  102MOL0     H13761  -0.583   9.109  10.465 -1.5940 -0.3306  3.5248
  102MOL0     H13762  -0.494   9.332  10.623  2.1423 -0.7754 -0.9980
  102MOL0     H13763  -0.431   9.203  10.714 -0.6371  3.1571  0.6319
  102MOL0     H13764  -0.667   9.267  10.776  3.0527 -0.5052  2.0299
  102MOL0     H13765  -0.718   9.209  10.613 -0.1738  0.2089 -0.1143
  102MOL0     H13766  -0.720   8.853  10.795 -1.2391 -0.8992 -2.3064
  102MOL0     H13767  -0.090   9.367  10.413 -0.9680 -0.3528  0.0841
  102MOL0     H13768   0.179   9.354  10.305  2.3500 -1.0989 -0.8295
  102MOL0     H13769   0.122   9.348  10.460 -0.3545 -3.2834  0.9453
  102MOL0     H13770   0.220   9.213  10.397  0.6110  0.6434 -1.1606
  103MOL0     O13771  10.875   1.997   6.384  0.2094  0.2105  0.5866
  103MOL0     C13772  10.842   1.962   6.499  0.0144  0.8999  0.3892
  103MOL0     O13773  10.887   1.851   6.575  0.0129  0.1660  0.1578
  103MOL0     C13774  11.003   1.793   6.556 -0.1222  0.2270  0.1824
  103MOL0     C13775  11.007   1.650   6.542  1.4583 -0.7024  0.1312
  103MOL0     C13776  11.132   1.587   6.541  0.4159 -0.0975  0.4776
  103MOL0     C13777  11.258   1.656   6.521 -0.3220  0.7190 -0.0510
  103MOL0     O13778  11.381   1.597   6.532  0.9472 -0.6912  0.3855
  103MOL0     C13779  11.396   1.462   6.481  0.0951 -0.1060  0.2790
  103MOL0     C13780  11.538   1.399   6.501 -0.9968 -0.1669  0.0389
  103MOL0     C13781  11.577   1.401   6.656  1.0635  0.0887  0.1859
  103MOL0     C13782  11.704   1.326   6.691 -1.4157 -1.0796 -0.2389
  103MOL0     C13783  11.763   1.359   6.822  0.6721 -0.0128  0.2162
  103MOL0     C13784  11.862   1.481   6.819  0.0951  0.7273  0.2970
  103MOL0     C13785  11.904   1.517   6.962  1.1155  0.4854 -0.7236
  103MOL0     C13786  12.024   1.442   7.014  0.7946  0.6923 -0.7344
  103MOL0     N13787  12.067   1.486   7.152  1.1065  0.1866 -0.0339
  103MOL0     C13788  12.190   1.532   7.171 -0.5083  0.1784 -0.5217
  103MOL0     C13789  12.197   1.533   7.300  0.0219  0.0368 -0.4441
  103MOL0     C13790  12.319   1.594   7.371  0.3935  0.1316  0.9654
  103MOL0     C13791  12.316   1.751   7.359  0.2169  0.6187 -0.6238
  103MOL0     C13792  12.321   1.795   7.220  0.0815  0.3490  0.4812
  103MOL0     C13793  12.359   1.940   7.227 -0.9684  0.1090 -0.5416
  103MOL0     O13794  12.375   1.983   7.091 -0.4278  0.2230  0.6583
  103MOL0     C13795  12.388   2.116   7.072  0.4025  0.6058  0.2304
  103MOL0     C13796  12.395   2.209   7.184  0.2584  1.0091  0.2327
  103MOL0     C13797  12.400   2.346   7.158  0.0123  0.1025 -0.4363
  103MOL0     C13798  12.385   2.396   7.030 -0.0958  0.4172  0.3310
  103MOL0     C13799  12.379   2.528   7.008  0.9781 -1.5821  0.0422
  103MOL0     O13800  12.395   2.571   6.881  0.7342 -0.4459  0.8454
  103MOL0     C13801  12.379   2.699   6.841 -0.5600  1.1663 -0.1375
  103MOL0     C13802  12.287   2.790   6.886 -0.1079  0.5440 -0.1471
  103MOL0     C13803  12.283   2.930   6.850 -0.5833  0.2001 -0.7216
  103MOL0     C13804  12.385   2.983   6.769  0.7540  0.0646  0.3104
  103MOL0     O13805  12.401   3.112   6.719  0.2876  0.0440 -0.2943
  103MOL0     C13806  12.319   3.209   6.783 -0.0576  0.3287 -0.1009
  103MOL0     C13807  12.332   3.329   6.694  0.2406  0.0775  0.1227
  103MOL0     C13808  12.227   3.447   6.716 -0.1662 -0.2408 -0.0249
  103MOL0     C13809  12.275   3.597   6.678 -1.1333 -0.4631 -0.2238
  103MOL0     C13810  12.351   3.647   6.797 -0.5780 -1.3375 -0.4307
  103MOL0     C13811  12.419   3.773   6.749  0.1771  0.9295 -0.2067
  103MOL0     C13812  12.524   3.831   6.855  0.6318  0.4673 -0.0672
  103MOL0     C13813  12.643   3.901   6.793  1.9524 -1.0767  0.4911
  103MOL0    Cl13814  12.784   3.947   6.891 -0.0381 -0.1658  0.0881
  103MOL0     C13815  12.486   2.888   6.728  0.0436  0.2590  1.2847
  103MOL0     C13816  12.491   2.752   6.767  0.2671 -0.3889 -0.6419
  103MOL0     O13817  12.342   2.599   7.097 -0.0379 -0.4949 -0.0733
  103MOL0     C13818  12.381   2.304   6.921  0.9446 -0.5195 -0.9734
  103MOL0     C13819  12.379   2.169   6.944 -0.4309  0.0959  0.3579
  103MOL0     N13820  12.082   1.488   7.368  0.6421  1.1381  0.5952
  103MOL0     N13821  12.001   1.465   7.271 -0.2866  0.2945 -0.5817
  103MOL0     C13822  11.247   1.793   6.532  0.2371 -1.2878 -0.0330
  103MOL0     C13823  11.124   1.863   6.559 -0.5085 -0.4609  0.3723
  103MOL0     C13824  10.733   2.045   6.558  0.0937 -0.0021  0.1024
  103MOL0     C13825  10.681   1.996   6.679 -0.4482 -0.0036  0.1850
  103MOL0     C13826  10.559   2.044   6.725 -0.4074  0.5040 -0.1607
  103MOL0     C13827  10.491   2.144   6.651 -0.4788  0.1416  0.8451
  103MOL0     O13828  10.369   2.195   6.689 -0.5801 -0.4315 -0.1537
  103MOL0     C13829  10.347   2.339   6.675  0.0870  0.6859  0.5236
  103MOL0     C13830  10.210   2.384   6.722  0.4392 -0.1908 -0.1718
  103MOL0     C13831  10.128   2.470   6.628 -0.2814 -0.3020 -0.6554
  103MOL0     C13832  10.019   2.549   6.702  0.0021 -0.7182 -0.2288
  103MOL0     C13833   9.971   2.644   6.608 -0.9653 -0.9087 -0.2920
  103MOL0     C13834   9.903   2.720   6.540  0.6536  0.1308 -1.0482
  103MOL0     C13835  10.549   2.199   6.531  0.7166  1.0230  0.5589
  103MOL0     C13836  10.674   2.155   6.491 -0.0395  0.3791  0.5678
  103MOL0     C13837  10.734   2.224   6.366 -0.0089  0.0550  0.2237
  103MOL0     H13838  10.914   1.597   6.557  0.7219  0.4369 -0.2584
  103MOL0     H13839  11.136   1.479   6.550 -1.7867 -0.4630 -1.8146
  103MOL0     H13840  11.328   1.401   6.542 -1.0290 -0.4482 -1.2435
  103MOL0     H13841  11.362   1.451   6.378  2.2269 -1.3614 -0.3461
  103MOL0     H13842  11.605   1.452   6.433 -1.3785  0.1444 -0.0971
  103MOL0     H13843  11.532   1.296   6.465  0.9897 -1.0796  2.0279
  103MOL0     H13844  11.506   1.340   6.713 -0.2731  1.4003 -0.0313
  103MOL0     H13845  11.580   1.506   6.684 -0.8256 -0.7014  3.9232
  103MOL0     H13846  11.670   1.222   6.687 -0.6820 -1.3660  0.5448
  103MOL0     H13847  11.788   1.343   6.623  1.9083  2.5318  4.0983
  103MOL0     H13848  11.684   1.367   6.897  0.1364  1.3447 -0.4786
  103MOL0     H13849  11.815   1.263   6.837  0.0397 -0.2646  0.8239
  103MOL0     H13850  11.956   1.464   6.765 -0.3116  2.1765 -0.9308
  103MOL0     H13851  11.820   1.562   6.759 -1.8235 -1.1249 -1.0075
  103MOL0     H13852  11.818   1.483   7.020  0.7030 -1.0485 -2.1485
  103MOL0     H13853  11.906   1.624   6.984  2.1232  0.3658 -0.1551
  103MOL0     H13854  11.986   1.340   7.030  2.5853  0.0269 -0.4376
  103MOL0     H13855  12.104   1.435   6.941  1.5194 -0.8499  0.1499
  103MOL0     H13856  12.259   1.571   7.096  0.8208  0.3267  0.7285
  103MOL0     H13857  12.302   1.565   7.475  1.4245 -1.8287  0.6526
  103MOL0     H13858  12.408   1.547   7.327 -0.7482 -0.0467 -1.2813
  103MOL0     H13859  12.214   1.783   7.383  0.1472  0.3267 -0.5308
  103MOL0     H13860  12.386   1.801   7.427  0.1558 -0.8104  0.5387
  103MOL0     H13861  12.225   1.778   7.170  0.2921  0.2092  0.1201
  103MOL0     H13862  12.398   1.744   7.161 -0.6177  0.5214 -0.5936
  103MOL0     H13863  12.449   1.968   7.283 -0.6251  0.3064 -1.1828
  103MOL0     H13864  12.277   1.988   7.282  0.6855  1.2679  1.0605
  103MOL0     H13865  12.392   2.181   7.289  2.1937 -1.3357 -0.2445
  103MOL0     H13866  12.392   2.411   7.245 -4.3306 -0.5662 -0.1106
  103MOL0     H13867  12.205   2.752   6.945  0.7261 -0.2326  0.5407
  103MOL0     H13868  12.202   2.989   6.890 -1.2793 -2.6886  2.5005
  103MOL0     H13869  12.217   3.170   6.785  0.2371 -0.4306  1.0868
  103MOL0     H13870  12.346   3.237   6.886  0.6248 -1.4335  0.2350
  103MOL0     H13871  12.432   3.370   6.705 -0.1931  1.4948 -0.9326
  103MOL0     H13872  12.331   3.293   6.590  2.1812  3.8835 -1.3740
  103MOL0     H13873  12.128   3.427   6.673 -0.7735  1.2015  0.6431
  103MOL0     H13874  12.199   3.448   6.821  3.0982  3.1741  1.0469
  103MOL0     H13875  12.190   3.664   6.662 -1.0474 -0.3605 -0.2516
  103MOL0     H13876  12.336   3.584   6.587  0.7877 -2.9100  1.2638
  103MOL0     H13877  12.433   3.581   6.825  1.5377  1.8413  1.6471
  103MOL0     H13878  12.291   3.665   6.886 -1.8261 -0.2884 -1.4461
  103MOL0     H13879  12.464   3.747   6.653 -2.0039  0.5585 -1.1728
  103MOL0     H13880  12.351   3.857   6.734  1.3297  2.5051  2.4625
  103MOL0     H13881  12.563   3.740   6.903  1.2026  0.7016 -0.0737
  103MOL0     H13882  12.477   3.901   6.924  0.1170  1.7471 -1.6683
  103MOL0     H13883  12.680   3.850   6.703  0.2215 -0.2427 -0.7604
  103MOL0     H13884  12.603   4.000   6.767  1.4889 -0.8178  2.1106
  103MOL0     H13885  12.567   2.912   6.661  0.2906 -0.3183  1.3702
  103MOL0     H13886  12.584   2.702   6.742  1.4916  1.8649 -0.8584
  103MOL0     H13887  12.377   2.335   6.817 -0.7209  0.8400 -0.5344
  103MOL0     H13888  12.380   2.114   6.850 -0.5343 -0.9169  0.9411
  103MOL0     H13889  11.339   1.850   6.543 -0.3644 -0.3700  0.3160
  103MOL0     H13890  11.131   1.970   6.569 -1.3107 -0.1157 -2.0069
  103MOL0     H13891  10.715   1.906   6.728 -3.4634  0.1863  2.9453
  103MOL0     H13892  10.518   2.005   6.817 -1.6234 -1.0314 -1.3093
  103MOL0     H13893  10.354   2.366   6.569 -2.2063  1.0318  0.4044
  103MOL0     H13894  10.431   2.393   6.719  1.1821 -1.7062  1.5176
  103MOL0     H13895  10.226   2.434   6.818  0.3126  1.2866 -0.9040
  103MOL0     H13896  10.151   2.295   6.747  0.7662 -0.2833  0.2848
  103MOL0     H13897  10.097   2.406   6.544  0.0525 -1.4787  0.0936
  103MOL0     H13898  10.200   2.542   6.586  1.4860 -0.5620  1.7383
  103MOL0     H13899   9.948   2.470   6.728  0.2684 -0.4163  1.5242
  103MOL0     H13900  10.055   2.595   6.794 -0.4207  0.4575 -0.6381
  103MOL0     H13901   9.843   2.797   6.496  0.2235  0.3035 -0.1752
  103MOL0     H13902  10.501   2.267   6.461  1.5319 -2.6389 -4.0122
  103MOL0     H13903  10.843   2.238   6.369  0.2334 -1.7375  0.6206
  103MOL0     H13904  10.690   2.183   6.275  0.5577 -0.1023  0.0146
  103MOL0     H13905  10.691   2.325   6.361 -0.6846 -0.2983 -2.8508
  104MOL0     O13906   3.318   6.714   8.970  0.1601 -0.4365  0.4262
  104MOL0     C13907   3.316   6.650   9.072 -0.9256 -0.5472 -0.1820
  104MOL0     O13908   3.215   6.567   9.111 -0.7292  0.3172 -0.7322
  104MOL0     C13909   3.094   6.575   9.058  0.3680  0.5205  0.0991
  104MOL0     C13910   3.001   6.664   9.119 -0.7825  0.2330  0.1517
  104MOL0     C13911   2.889   6.697   9.044 -0.7642  0.7066 -0.9234
  104MOL0     C13912   2.852   6.625   8.927  1.1930 -0.5042  0.1664
  104MOL0     O13913   2.741   6.654   8.845 -0.5268  0.4777 -0.5459
  104MOL0     C13914   2.624   6.704   8.917  0.1810 -0.3574 -0.4552
  104MOL0     C13915   2.491   6.687   8.838 -0.1314 -0.6696 -1.1142
  104MOL0     C13916   2.475   6.788   8.729 -0.0503  0.0151 -0.6713
  104MOL0     C13917   2.324   6.827   8.712  0.2181 -0.0520  0.1284
  104MOL0     C13918   2.298   6.893   8.583 -0.2764 -0.0773 -0.4620
  104MOL0     C13919   2.164   6.976   8.597 -0.5812  1.0917  0.0841
  104MOL0     C13920   2.109   7.019   8.456 -0.9107  1.1013  0.9220
  104MOL0     C13921   1.974   7.087   8.457 -0.0885 -0.3048 -0.0047
  104MOL0     N13922   1.973   7.229   8.495  0.2104 -1.4452 -0.8436
  104MOL0     C13923   2.018   7.278   8.616 -0.1674  0.1078  0.1297
  104MOL0     C13924   1.993   7.419   8.609 -0.1910 -0.2781 -0.0706
  104MOL0     C13925   2.020   7.509   8.718 -0.8496 -0.1294  0.7586
  104MOL0     C13926   1.966   7.657   8.690 -0.2613 -0.1855 -0.4990
  104MOL0     C13927   1.985   7.739   8.823  0.2978 -0.4287 -0.0278
  104MOL0     C13928   1.878   7.701   8.938  0.8522 -0.7337  0.5318
  104MOL0     O13929   1.743   7.721   8.895 -0.0110 -0.7445 -0.3832
  104MOL0     C13930   1.697   7.844   8.856 -0.1276 -0.2096  0.1547
  104MOL0     C13931   1.725   7.958   8.928 -0.6249 -0.2009  0.7800
  104MOL0     C13932   1.676   8.081   8.878 -0.9846  0.6384 -0.1993
  104MOL0     C13933   1.601   8.087   8.762  0.3758 -0.0037  0.0105
  104MOL0     C13934   1.566   8.218   8.707 -0.1657 -0.1462 -0.7105
  104MOL0     O13935   1.650   8.320   8.737 -0.2324 -0.5283  0.2613
  104MOL0     C13936   1.613   8.436   8.687  0.2366  0.6817  0.2596
  104MOL0     C13937   1.638   8.548   8.773  0.6610 -0.0800  0.0293
  104MOL0     C13938   1.606   8.684   8.745  0.2179 -0.5679 -0.0929
  104MOL0     C13939   1.554   8.713   8.619 -0.5090 -0.3454  0.0640
  104MOL0     O13940   1.527   8.846   8.594 -0.0141 -1.0230  0.4957
  104MOL0     C13941   1.389   8.887   8.574 -0.1186 -0.1525  0.4678
  104MOL0     C13942   1.338   8.938   8.706  0.1604  0.7671 -0.1190
  104MOL0     C13943   1.189   8.944   8.731 -0.0270  0.1268  0.5996
  104MOL0     C13944   1.100   8.961   8.602 -0.2244 -0.0787 -0.3169
  104MOL0     C13945   0.953   8.973   8.648  0.3782 -0.9816 -0.4473
  104MOL0     C13946   0.853   8.977   8.537  0.9825  0.2444 -0.3259
  104MOL0     C13947   0.700   8.984   8.597 -0.3172  0.4116 -1.8152
  104MOL0     C13948   0.629   9.115   8.588 -0.1463  0.0244 -0.0601
  104MOL0    Cl13949   0.492   9.122   8.691  0.5068 -0.6004 -0.4139
  104MOL0     C13950   1.527   8.608   8.521 -0.4863  0.2494 -0.1252
  104MOL0     C13951   1.556   8.470   8.559  1.0761  0.3733 -0.5722
  104MOL0     O13952   1.470   8.226   8.631 -0.7067 -0.1543 -0.4548
  104MOL0     C13953   1.560   7.966   8.703 -0.6564 -0.6287 -1.0012
  104MOL0     C13954   1.610   7.849   8.751 -1.3438 -1.0521 -0.4307
  104MOL0     N13955   1.927   7.445   8.492 -0.7000  0.5398 -0.5006
  104MOL0     N13956   1.910   7.333   8.427 -0.3095  0.5428 -0.1427
  104MOL0     C13957   2.951   6.539   8.875  0.4554 -0.3585 -0.0592
  104MOL0     C13958   3.066   6.521   8.933 -0.7611  0.5142  0.0852
  104MOL0     C13959   3.454   6.624   9.137  0.2064  0.5658  0.1526
  104MOL0     C13960   3.481   6.498   9.179  0.1489 -0.2840  0.2116
  104MOL0     C13961   3.614   6.463   9.219 -0.1291  0.6701 -0.5942
  104MOL0     C13962   3.715   6.560   9.213  0.2579  0.5776  0.0422
  104MOL0     O13963   3.831   6.513   9.253 -0.3786  1.5029 -0.1624
  104MOL0     C13964   3.961   6.581   9.251 -0.1495 -0.2294  0.0890
  104MOL0     C13965   3.984   6.649   9.386 -0.1750 -0.5455 -0.9600
  104MOL0     C13966   4.056   6.563   9.494  0.2212 -0.8405 -0.5449
  104MOL0     C13967   3.982   6.569   9.637 -0.6194  0.1465  0.2653
  104MOL0     C13968   4.073   6.544   9.744 -0.0949  0.4633  0.7688
  104MOL0     C13969   4.153   6.520   9.838 -0.3436 -0.2147  0.2357
  104MOL0     C13970   3.686   6.691   9.180  0.4593 -0.0641  0.4030
  104MOL0     C13971   3.554   6.722   9.142 -0.0896 -0.2797  0.3344
  104MOL0     C13972   3.544   6.862   9.088  0.0697  0.7796  0.0936
  104MOL0     H13973   3.031   6.712   9.211 -0.8712 -0.4996  0.5685
  104MOL0     H13974   2.822   6.777   9.073 -2.2819 -0.3739 -1.3274
  104MOL0     H13975   2.623   6.656   9.015  2.3746  0.6029  0.0963
  104MOL0     H13976   2.627   6.808   8.952 -2.2840 -0.9248  1.8334
  104MOL0     H13977   2.411   6.694   8.912  1.1651 -1.8231  0.4889
  104MOL0     H13978   2.491   6.582   8.806 -2.3554 -1.7540  1.9371
  104MOL0     H13979   2.515   6.753   8.633  1.6447 -0.9228  0.3333
  104MOL0     H13980   2.529   6.880   8.755 -0.8082 -0.0526  1.3051
  104MOL0     H13981   2.258   6.740   8.710  1.6694 -1.2299 -2.5366
  104MOL0     H13982   2.300   6.893   8.795 -2.5793 -1.0303  0.2041
  104MOL0     H13983   2.378   6.961   8.554 -1.1460  0.4315 -1.7679
  104MOL0     H13984   2.296   6.823   8.498 -0.2091  1.2959 -1.6340
  104MOL0     H13985   2.087   6.915   8.645  1.5964 -2.4640 -0.5008
  104MOL0     H13986   2.196   7.051   8.669  0.0358 -0.2426  1.2614
  104MOL0     H13987   2.103   6.921   8.407 -1.2046  1.2798  0.5879
  104MOL0     H13988   2.181   7.077   8.398  0.7986 -0.5251  1.3467
  104MOL0     H13989   1.943   7.073   8.353  2.5718 -1.8105 -0.6936
  104MOL0     H13990   1.900   7.036   8.519  0.1369  0.4743  0.9240
  104MOL0     H13991   2.060   7.215   8.694 -1.7375  1.2512  1.9511
  104MOL0     H13992   1.977   7.457   8.803 -0.0014 -4.1271 -1.0360
  104MOL0     H13993   2.127   7.505   8.743 -0.2431  1.1109 -1.3523
  104MOL0     H13994   2.014   7.710   8.607 -1.1400  1.5661  0.0616
  104MOL0     H13995   1.857   7.658   8.679 -0.3771 -0.2941  0.5171
  104MOL0     H13996   1.997   7.847   8.818  3.9776 -0.7060  0.0644
  104MOL0     H13997   2.081   7.707   8.865  0.2350  1.6865  1.9032
  104MOL0     H13998   1.913   7.765   9.020 -1.5175 -1.3512  2.1232
  104MOL0     H13999   1.901   7.599   8.969  2.5193 -1.1416 -1.7382
  104MOL0     H14000   1.789   7.960   9.016  1.2899  0.6798 -0.5603
  104MOL0     H14001   1.692   8.179   8.923 -2.6013  1.4739 -1.3473
  104MOL0     H14002   1.678   8.528   8.872 -1.2473 -2.1832  0.4546
  104MOL0     H14003   1.632   8.770   8.806  3.0705 -0.5874 -1.0905
  104MOL0     H14004   1.385   8.966   8.499  1.5629  0.2313  0.7295
  104MOL0     H14005   1.331   8.800   8.544 -2.4817  1.9374 -1.4164
  104MOL0     H14006   1.384   8.884   8.789 -0.6545 -1.1108 -0.8394
  104MOL0     H14007   1.358   9.046   8.708 -2.3700  1.2871  1.5375
  104MOL0     H14008   1.162   8.847   8.773 -1.6430  0.7956  1.1839
  104MOL0     H14009   1.164   9.020   8.804 -0.5005 -0.1305  0.7075
  104MOL0     H14010   1.128   8.874   8.544  1.2165 -0.2575  0.6085
  104MOL0     H14011   1.127   9.044   8.537 -2.7679 -0.1606 -1.5870
  104MOL0     H14012   0.949   9.062   8.711 -1.9295 -2.2318  1.3756
  104MOL0     H14013   0.929   8.889   8.713 -1.6225  1.1410  1.7525
  104MOL0     H14014   0.878   9.062   8.472 -1.9940 -0.8935 -3.2186
  104MOL0     H14015   0.854   8.889   8.472 -2.5083 -1.6743  1.8852
  104MOL0     H14016   0.710   8.951   8.700 -0.4140  1.8543 -1.3252
  104MOL0     H14017   0.654   8.902   8.539 -2.3686 -0.6385  1.0786
  104MOL0     H14018   0.697   9.193   8.622  0.4998 -1.4950  2.4202
  104MOL0     H14019   0.599   9.131   8.484  0.5309  1.0232 -0.1142
  104MOL0     H14020   1.504   8.630   8.417  2.0021  2.0426 -0.3822
  104MOL0     H14021   1.532   8.404   8.476 -0.7305 -0.5764  0.6496
  104MOL0     H14022   1.515   7.972   8.605 -1.0034 -3.0052 -1.0375
  104MOL0     H14023   1.586   7.758   8.697 -0.2764 -0.6039 -1.6946
  104MOL0     H14024   2.931   6.491   8.780 -2.7653  0.5625  0.0487
  104MOL0     H14025   3.133   6.448   8.888  0.3139  1.5529 -0.0559
  104MOL0     H14026   3.411   6.418   9.159 -0.5999  0.9587 -2.6869
  104MOL0     H14027   3.641   6.366   9.261  0.7549  1.5767  0.9876
  104MOL0     H14028   3.958   6.655   9.170 -1.9471 -3.7046 -3.3475
  104MOL0     H14029   4.031   6.501   9.226  0.4595  0.6511 -1.1503
  104MOL0     H14030   3.898   6.703   9.427  0.1048 -1.5073  1.0060
  104MOL0     H14031   4.054   6.729   9.362  1.5500 -2.1840 -1.6074
  104MOL0     H14032   4.157   6.603   9.508  2.4232 -5.5902 -0.7562
  104MOL0     H14033   4.079   6.461   9.462  2.0977 -0.1451 -1.5705
  104MOL0     H14034   3.946   6.671   9.654  0.3961  1.0282 -2.3412
  104MOL0     H14035   3.897   6.500   9.645 -3.0150  2.8831 -0.0180
  104MOL0     H14036   4.223   6.494   9.914  0.7687 -2.1656 -1.3454
  104MOL0     H14037   3.772   6.757   9.177  1.8891 -1.8565 -0.1004
  104MOL0     H14038   3.465   6.927   9.129 -0.3563 -0.9744  2.2970
  104MOL0     H14039   3.638   6.918   9.094  0.3145  0.3175  0.8459
  104MOL0     H14040   3.527   6.840   8.983  3.2277 -2.3963  0.0966
  105MOL0     O14041   9.842   4.140   5.208 -0.5581 -0.7202  0.9748
  105MOL0     C14042   9.897   4.174   5.314 -0.0507  0.5164  0.5139
  105MOL0     O14043   9.967   4.090   5.384  0.1995  0.1514 -0.6153
  105MOL0     C14044  10.018   3.973   5.336  0.5059  0.2603  1.0655
  105MOL0     C14045  10.067   3.951   5.206 -0.5692 -1.2003 -0.2689
  105MOL0     C14046  10.127   3.829   5.166  0.6694  0.0309  0.3973
  105MOL0     C14047  10.133   3.720   5.248 -0.3228 -0.7059 -1.0331
  105MOL0     O14048  10.171   3.596   5.199  0.3348  0.1026  0.3803
  105MOL0     C14049  10.117   3.477   5.256  0.7649 -0.6740 -0.2559
  105MOL0     C14050  10.154   3.359   5.182 -0.2527  0.9918  0.6924
  105MOL0     C14051  10.102   3.228   5.248  1.4294  0.4102 -0.1796
  105MOL0     C14052  10.132   3.105   5.166  0.0662  0.7260 -0.9855
  105MOL0     C14053  10.281   3.066   5.146 -0.2074  0.0250 -1.1651
  105MOL0     C14054  10.285   2.921   5.098 -1.2545  1.0322  0.5383
  105MOL0     C14055  10.427   2.869   5.063  0.1582 -0.6186 -0.0779
  105MOL0     C14056  10.488   2.787   5.184 -0.0222  0.7840 -1.5170
  105MOL0     N14057  10.542   2.870   5.294  0.3082 -0.5812 -0.4504
  105MOL0     C14058  10.467   2.911   5.400  1.0710  0.9287 -0.4749
  105MOL0     C14059  10.548   2.995   5.475 -0.3218 -0.3606 -0.5126
  105MOL0     C14060  10.510   3.087   5.598  0.7901  1.0896 -0.4043
  105MOL0     C14061  10.520   3.240   5.582  0.7072 -0.1841  1.1984
  105MOL0     C14062  10.447   3.272   5.442  0.8709  0.1825 -0.0680
  105MOL0     C14063  10.444   3.413   5.397  0.2306  0.3197  0.1506
  105MOL0     O14064  10.379   3.492   5.497 -0.7561 -0.4907  0.1415
  105MOL0     C14065  10.385   3.626   5.495  1.3377 -0.3788 -0.2665
  105MOL0     C14066  10.445   3.696   5.395  0.2985 -0.1447 -0.0662
  105MOL0     C14067  10.428   3.833   5.377  0.3155  0.1556 -0.2912
  105MOL0     C14068  10.368   3.905   5.472 -0.2393  0.3596 -0.0221
  105MOL0     C14069  10.351   4.049   5.449 -0.3148 -0.0490  0.8400
  105MOL0     O14070  10.374   4.097   5.325  0.0445 -0.2780 -0.5668
  105MOL0     C14071  10.314   4.203   5.278  0.1148  0.7250 -0.5423
  105MOL0     C14072  10.270   4.313   5.358  0.5332  0.3443  0.5173
  105MOL0     C14073  10.187   4.408   5.297  0.3680 -0.0859  1.0024
  105MOL0     C14074  10.135   4.402   5.166 -0.5739 -1.1488 -0.1787
  105MOL0     O14075  10.056   4.502   5.115  0.3341 -0.4311 -0.1194
  105MOL0     C14076  10.073   4.635   5.164 -0.0894 -1.0590 -0.2459
  105MOL0     C14077   9.959   4.725   5.114 -0.0944  0.2643  0.1084
  105MOL0     C14078   9.990   4.759   4.965  0.6056  0.3835  0.2056
  105MOL0     C14079   9.882   4.847   4.918 -0.2221  0.0330  0.4854
  105MOL0     C14080   9.857   4.843   4.763  0.4576 -0.5760  0.1148
  105MOL0     C14081   9.771   4.960   4.732  0.0016 -0.4549  0.8682
  105MOL0     C14082   9.756   4.951   4.578  0.5495 -0.6507 -0.6336
  105MOL0     C14083   9.634   5.036   4.537 -0.2093 -0.6703  1.4102
  105MOL0    Cl14084   9.668   5.199   4.577 -0.5332  0.2419  0.5266
  105MOL0     C14085  10.178   4.299   5.092 -0.4582  0.1980 -0.0017
  105MOL0     C14086  10.271   4.192   5.142  0.2749 -0.0995  1.4127
  105MOL0     O14087  10.323   4.116   5.547 -0.2238 -0.0303  0.1412
  105MOL0     C14088  10.315   3.839   5.592  0.0450 -0.3131  0.2584
  105MOL0     C14089  10.323   3.699   5.598  0.9850  0.2578 -0.9969
  105MOL0     N14090  10.666   2.992   5.416 -0.6409 -0.0700  0.2520
  105MOL0     N14091  10.665   2.919   5.304 -0.6697 -0.0077  0.2592
  105MOL0     C14092  10.091   3.740   5.384  0.9153 -0.2394  0.2980
  105MOL0     C14093  10.027   3.863   5.423 -0.0405  0.5780  0.7648
  105MOL0     C14094   9.859   4.304   5.373 -0.2084 -0.4218  0.2606
  105MOL0     C14095   9.903   4.332   5.500  0.2846  0.1589 -0.1069
  105MOL0     C14096   9.878   4.452   5.559  0.9303  0.6713  0.6485
  105MOL0     C14097   9.816   4.552   5.480  0.5896  0.1537 -0.4598
  105MOL0     O14098   9.778   4.675   5.533  0.5664  0.6279  0.1860
  105MOL0     C14099   9.861   4.747   5.622  0.0531 -0.5087  0.2130
  105MOL0     C14100   9.941   4.858   5.553 -1.0379 -0.8007 -0.4364
  105MOL0     C14101   9.850   4.975   5.492  0.3436  0.6107 -0.3216
  105MOL0     C14102   9.702   4.939   5.444 -0.7860  0.2949 -0.9482
  105MOL0     C14103   9.639   5.055   5.398 -0.5122  0.7310 -0.1716
  105MOL0     C14104   9.575   5.142   5.337 -0.5421 -0.9074  0.7571
  105MOL0     C14105   9.769   4.523   5.352 -0.1535 -0.0369 -0.5174
  105MOL0     C14106   9.794   4.402   5.301  0.6499 -0.6751  1.5124
  105MOL0     C14107   9.745   4.394   5.152 -0.1472 -0.2604  0.1972
  105MOL0     H14108  10.067   4.030   5.132  1.5343 -0.8110  0.0724
  105MOL0     H14109  10.169   3.822   5.066 -0.5463  0.0153 -0.1363
  105MOL0     H14110  10.153   3.485   5.359  0.3668  3.6997 -0.2394
  105MOL0     H14111  10.008   3.479   5.259  0.7855  0.3163  1.4574
  105MOL0     H14112  10.263   3.347   5.174  0.1911  3.1499  2.3332
  105MOL0     H14113  10.119   3.367   5.079 -0.8349  1.5008  0.9236
  105MOL0     H14114   9.996   3.216   5.272  0.9358  1.1914 -1.8357
  105MOL0     H14115  10.154   3.206   5.342  2.0530 -1.3653 -0.8843
  105MOL0     H14116  10.066   3.025   5.202 -2.1208 -0.0364 -5.7541
  105MOL0     H14117  10.103   3.120   5.061 -0.2632 -0.6688 -1.1221
  105MOL0     H14118  10.324   3.124   5.064 -0.4069 -0.7325 -1.8212
  105MOL0     H14119  10.329   3.075   5.243 -0.1411 -2.6095 -0.8774
  105MOL0     H14120  10.241   2.848   5.167  1.3869 -1.3795 -0.1456
  105MOL0     H14121  10.229   2.910   5.005  1.9048  1.1252 -1.5223
  105MOL0     H14122  10.498   2.948   5.035 -0.2337  0.6524  2.2067
  105MOL0     H14123  10.410   2.794   4.986  0.2716 -2.8723  1.9926
  105MOL0     H14124  10.410   2.721   5.223 -0.0314  1.7014  0.0892
  105MOL0     H14125  10.572   2.726   5.150 -0.8645 -2.7748  2.0506
  105MOL0     H14126  10.362   2.890   5.418  1.7449 -2.3940  0.1592
  105MOL0     H14127  10.405   3.069   5.625  1.5216 -0.6863  1.5103
  105MOL0     H14128  10.566   3.044   5.681 -1.0791 -1.9691 -0.5773
  105MOL0     H14129  10.475   3.293   5.667  0.0877 -1.3471  1.6160
  105MOL0     H14130  10.626   3.266   5.581  0.6284  0.1628 -0.0795
  105MOL0     H14131  10.347   3.231   5.456 -0.1281  2.4668 -0.0125
  105MOL0     H14132  10.506   3.220   5.366  0.7702  0.3535 -0.2620
  105MOL0     H14133  10.377   3.417   5.310 -0.7217 -0.0068  0.8557
  105MOL0     H14134  10.545   3.453   5.383 -0.6322  2.4253 -0.4158
  105MOL0     H14135  10.492   3.644   5.312  3.6450  1.3904  0.6982
  105MOL0     H14136  10.449   3.881   5.282  2.6850  4.5296  2.1473
  105MOL0     H14137  10.290   4.342   5.461  0.2690  2.3718  0.0436
  105MOL0     H14138  10.160   4.493   5.360 -2.2511  1.8874 -2.3960
  105MOL0     H14139  10.062   4.636   5.273 -0.3523  0.0863 -0.2724
  105MOL0     H14140  10.175   4.661   5.136  0.3125 -1.7083  0.5942
  105MOL0     H14141   9.862   4.678   5.127 -0.1267 -1.1912 -4.0495
  105MOL0     H14142   9.960   4.824   5.162 -0.5733  1.4335 -2.1549
  105MOL0     H14143  10.087   4.806   4.945 -0.6002  3.3470  0.7085
  105MOL0     H14144   9.984   4.661   4.917  1.3281 -0.1990  1.2782
  105MOL0     H14145   9.907   4.949   4.947 -2.0794  0.9145 -0.7652
  105MOL0     H14146   9.792   4.811   4.969 -0.2668 -0.9490 -0.2386
  105MOL0     H14147   9.815   4.746   4.736 -0.0407  0.4605 -3.3395
  105MOL0     H14148   9.953   4.857   4.712  1.5441 -2.0820  1.6581
  105MOL0     H14149   9.676   4.971   4.787  0.0376  2.1210  0.5168
  105MOL0     H14150   9.834   5.047   4.751  2.5064 -2.2969  1.6705
  105MOL0     H14151   9.751   4.846   4.548 -0.7510 -0.9092  0.4013
  105MOL0     H14152   9.851   4.989   4.540  0.1182  1.2468  0.0479
  105MOL0     H14153   9.634   5.022   4.429  0.8860 -0.3916  1.3591
  105MOL0     H14154   9.536   5.002   4.570 -2.1784  2.9399 -0.2230
  105MOL0     H14155  10.152   4.282   4.988 -0.4296 -1.0399  0.1725
  105MOL0     H14156  10.294   4.102   5.087 -3.4894 -0.4966  0.2149
  105MOL0     H14157  10.272   3.893   5.676 -2.4558 -3.2305  1.0658
  105MOL0     H14158  10.272   3.641   5.674  0.9977  0.1044 -1.1049
  105MOL0     H14159  10.080   3.662   5.458 -1.5262  2.7610  3.4568
  105MOL0     H14160  10.001   3.877   5.527  1.2159  0.1883  1.1421
  105MOL0     H14161   9.949   4.257   5.563 -0.4813 -1.1640 -1.0426
  105MOL0     H14162   9.919   4.474   5.657 -1.2704 -0.9862  2.0483
  105MOL0     H14163   9.931   4.684   5.679  2.1468  1.1071 -0.4227
  105MOL0     H14164   9.791   4.801   5.686 -0.9764 -2.0807  0.4509
  105MOL0     H14165   9.993   4.811   5.469  1.4134 -2.8304  2.0494
  105MOL0     H14166  10.011   4.900   5.626 -1.8200  0.1244 -0.1980
  105MOL0     H14167   9.904   5.008   5.403 -0.2706 -2.6153 -2.0347
  105MOL0     H14168   9.847   5.059   5.562  1.1577  0.5378 -0.1876
  105MOL0     H14169   9.705   4.869   5.360 -0.6423  1.9397 -2.3479
  105MOL0     H14170   9.635   4.904   5.523 -0.3652  0.3239 -0.5685
  105MOL0     H14171   9.524   5.215   5.277  2.5818 -0.6118 -1.8630
  105MOL0     H14172   9.719   4.606   5.302  1.2027  1.7567  0.9493
  105MOL0     H14173   9.737   4.494   5.108 -0.0998 -1.3673 -2.4732
  105MOL0     H14174   9.823   4.343   5.095  0.7959 -0.1794  1.3552
  105MOL0     H14175   9.642   4.360   5.146 -0.8926  1.9897 -0.8438
  106MOL0     O14176   9.683   3.964   3.180  0.1422 -0.1483 -0.6989
  106MOL0     C14177   9.696   3.846   3.214 -0.0529 -0.7609 -0.5590
  106MOL0     O14178   9.615   3.752   3.163  0.1439  0.3463 -0.7116
  106MOL0     C14179   9.477   3.776   3.114 -0.4432 -0.0996 -0.5229
  106MOL0     C14180   9.409   3.668   3.055 -0.1975  0.0688  0.4639
  106MOL0     C14181   9.282   3.681   3.005 -0.2663  0.0155 -0.1062
  106MOL0     C14182   9.213   3.804   3.032  0.2209 -0.2947  0.2615
  106MOL0     O14183   9.081   3.823   3.008 -0.0922 -0.6189 -0.0245
  106MOL0     C14184   9.005   3.737   2.931  0.7066 -0.5355 -0.4938
  106MOL0     C14185   8.874   3.798   2.879  0.3636  0.0947 -0.8048
  106MOL0     C14186   8.758   3.823   2.981  0.6094  0.7555  0.6578
  106MOL0     C14187   8.788   3.909   3.106  0.5680 -0.5320  0.8483
  106MOL0     C14188   8.833   4.052   3.072  0.1545  0.6865  0.2207
  106MOL0     C14189   8.897   4.123   3.187 -0.3826 -0.7320 -0.1614
  106MOL0     C14190   8.793   4.161   3.300 -0.0490 -0.5683 -0.2893
  106MOL0     C14191   8.859   4.264   3.393 -0.0327  0.8770 -0.1036
  106MOL0     N14192   8.987   4.217   3.460 -0.3845  0.6213  0.4987
  106MOL0     C14193   9.111   4.257   3.434 -0.5565  0.4508 -0.8182
  106MOL0     C14194   9.183   4.190   3.526 -0.3475 -0.4416  1.0807
  106MOL0     C14195   9.336   4.225   3.548  0.1332  0.3092  0.6187
  106MOL0     C14196   9.427   4.156   3.444  0.2450  0.4726  0.8864
  106MOL0     C14197   9.576   4.183   3.466  0.0617  0.2283 -0.2062
  106MOL0     C14198   9.629   4.102   3.584 -0.0903  0.3808 -0.0133
  106MOL0     O14199   9.764   4.138   3.614  0.2318  0.2470  0.5162
  106MOL0     C14200   9.850   4.058   3.689 -0.4665 -0.2562 -0.2429
  106MOL0     C14201   9.818   3.940   3.761  0.5830  1.1897 -0.0279
  106MOL0     C14202   9.908   3.864   3.831 -0.4038  1.2410  0.2571
  106MOL0     C14203  10.043   3.898   3.837  1.1015 -0.1405 -0.9125
  106MOL0     C14204  10.152   3.815   3.896  0.0473  0.6317 -0.0471
  106MOL0     O14205  10.281   3.852   3.865  0.5142 -0.4806  0.3644
  106MOL0     C14206  10.386   3.786   3.931 -0.0722  0.0798  0.1495
  106MOL0     C14207  10.393   3.746   4.071 -0.6258 -0.0982  0.7043
  106MOL0     C14208  10.506   3.698   4.131 -0.3813  0.2590  0.2011
  106MOL0     C14209  10.623   3.689   4.066 -0.0636 -0.4452 -0.1573
  106MOL0     O14210  10.747   3.663   4.120  0.4122 -0.2358 -0.5903
  106MOL0     C14211  10.752   3.543   4.199  0.1711 -0.0925  0.3203
  106MOL0     C14212  10.894   3.517   4.249 -0.6939  0.2734  0.3492
  106MOL0     C14213  10.944   3.364   4.283  0.2491 -0.1685 -0.2606
  106MOL0     C14214  10.946   3.255   4.171  0.5805 -0.5410 -0.0291
  106MOL0     C14215  10.930   3.112   4.228  0.0532 -0.8274  0.0703
  106MOL0     C14216  10.779   3.070   4.262  0.2460 -0.3705 -0.2364
  106MOL0     C14217  10.776   2.925   4.293 -0.2697 -0.8814  0.2834
  106MOL0     C14218  10.633   2.880   4.321 -0.1306  0.6115  1.1501
  106MOL0    Cl14219  10.610   2.699   4.305  0.0276 -0.2841  0.0232
  106MOL0     C14220  10.628   3.742   3.935  0.1581  0.5204 -0.3804
  106MOL0     C14221  10.513   3.786   3.867  0.6280  0.1888 -0.0088
  106MOL0     O14222  10.114   3.717   3.965 -0.3080 -0.0963 -0.2605
  106MOL0     C14223  10.076   4.015   3.759 -0.7642 -0.3414 -0.6701
  106MOL0     C14224   9.983   4.092   3.692  0.2820 -0.2414 -0.4329
  106MOL0     N14225   9.107   4.095   3.592 -0.1446  0.3073 -1.3138
  106MOL0     N14226   8.982   4.119   3.559  0.1347 -0.0840 -0.3618
  106MOL0     C14227   9.280   3.909   3.091 -1.0220 -0.7927 -0.5802
  106MOL0     C14228   9.412   3.899   3.140 -1.2247  0.4755  0.0476
  106MOL0     C14229   9.807   3.802   3.300 -0.5103  0.7887 -0.4768
  106MOL0     C14230   9.807   3.663   3.328  0.0799 -0.1236 -0.7669
  106MOL0     C14231   9.904   3.605   3.412 -0.3089 -0.7004  0.1940
  106MOL0     C14232  10.016   3.684   3.460  0.0057  0.0853  0.0155
  106MOL0     O14233  10.123   3.644   3.532 -0.5801 -0.1138 -0.3085
  106MOL0     C14234  10.136   3.500   3.547  0.2312 -0.2202 -0.3267
  106MOL0     C14235  10.288   3.468   3.574 -0.4082 -0.3878  0.1390
  106MOL0     C14236  10.328   3.482   3.721  0.5471 -0.1673  0.3176
  106MOL0     C14237  10.267   3.375   3.809  0.0579 -0.6076  1.2923
  106MOL0     C14238  10.322   3.382   3.947  0.0778  0.5286 -0.0611
  106MOL0     C14239  10.346   3.390   4.061  0.5557  0.3219 -0.0303
  106MOL0     C14240  10.012   3.816   3.425 -0.1363 -0.1796  0.4839
  106MOL0     C14241   9.911   3.885   3.356 -0.4636  0.7543 -0.0609
  106MOL0     C14242   9.941   4.032   3.322  0.1338 -0.0444  0.4099
  106MOL0     H14243   9.454   3.573   3.028 -0.0592  1.0925 -3.4937
  106MOL0     H14244   9.238   3.589   2.966  0.1314 -0.1025 -0.2785
  106MOL0     H14245   9.054   3.699   2.841 -1.1779 -2.8766 -0.6371
  106MOL0     H14246   8.977   3.653   2.995  3.1197 -0.2595  1.0543
  106MOL0     H14247   8.832   3.716   2.820 -1.9266 -2.3161  3.6352
  106MOL0     H14248   8.892   3.889   2.821 -0.3643  2.9530  3.0627
  106MOL0     H14249   8.724   3.725   3.015 -1.1134  1.1897  0.2803
  106MOL0     H14250   8.675   3.866   2.924  0.1821 -0.4076  0.3749
  106MOL0     H14251   8.703   3.886   3.171 -0.6462 -0.8756 -0.8173
  106MOL0     H14252   8.871   3.855   3.152  0.7481 -1.5420 -0.5866
  106MOL0     H14253   8.904   4.054   2.989 -1.3301  1.6447 -1.1001
  106MOL0     H14254   8.746   4.106   3.033 -0.4303 -1.0634 -1.0534
  106MOL0     H14255   8.981   4.065   3.226  0.0777 -0.0878 -0.1760
  106MOL0     H14256   8.950   4.212   3.152  1.3190 -1.2790  0.9114
  106MOL0     H14257   8.761   4.076   3.360 -0.3728 -0.8704 -0.8897
  106MOL0     H14258   8.705   4.214   3.261  1.0057 -0.1301 -2.2013
  106MOL0     H14259   8.878   4.356   3.338 -1.8993  0.0328 -2.3481
  106MOL0     H14260   8.781   4.283   3.468 -0.5990 -1.3195 -0.0612
  106MOL0     H14261   9.147   4.322   3.355  1.3289 -0.8210 -1.0862
  106MOL0     H14262   9.341   4.334   3.539 -1.6581  0.2522 -2.7470
  106MOL0     H14263   9.365   4.204   3.651 -1.2425 -2.6190  0.5018
  106MOL0     H14264   9.409   4.048   3.433  0.8053  0.4952 -0.5374
  106MOL0     H14265   9.399   4.201   3.348  0.0405  2.9247  2.0139
  106MOL0     H14266   9.606   4.287   3.473  0.5405 -0.0019  1.8814
  106MOL0     H14267   9.632   4.157   3.376  3.5218  0.3611  1.7433
  106MOL0     H14268   9.616   3.995   3.568 -0.7228  0.1911  1.5176
  106MOL0     H14269   9.575   4.112   3.679  0.9727 -5.6297  1.6602
  106MOL0     H14270   9.720   3.894   3.763  0.4475  1.0993 -3.5403
  106MOL0     H14271   9.876   3.768   3.870  0.3616  1.9031  2.6588
  106MOL0     H14272  10.307   3.759   4.136  2.4763 -0.0727  5.2314
  106MOL0     H14273  10.501   3.667   4.235 -1.1376  2.8004  1.0185
  106MOL0     H14274  10.685   3.544   4.286  0.0062 -1.8465  0.2558
  106MOL0     H14275  10.727   3.451   4.147  2.8153  0.0002 -1.2869
  106MOL0     H14276  10.966   3.538   4.169  1.7802 -3.0604  1.4718
  106MOL0     H14277  10.923   3.585   4.329 -1.1633 -2.0775  2.6462
  106MOL0     H14278  11.047   3.363   4.321  0.7910 -0.9895 -1.6558
  106MOL0     H14279  10.879   3.325   4.361 -0.8475  1.7111 -0.1678
  106MOL0     H14280  11.041   3.264   4.117 -0.3487 -1.0529 -1.8395
  106MOL0     H14281  10.873   3.286   4.097 -1.0913  2.5559  2.6674
  106MOL0     H14282  10.998   3.090   4.311  0.7642 -2.7461 -0.9517
  106MOL0     H14283  10.970   3.043   4.152  2.1048 -0.5943  0.8611
  106MOL0     H14284  10.730   3.129   4.341 -1.1049  0.0716 -1.3658
  106MOL0     H14285  10.726   3.080   4.167  0.6010  1.3982 -0.2847
  106MOL0     H14286  10.826   2.905   4.388  0.1482 -0.1410  0.2312
  106MOL0     H14287  10.823   2.868   4.212  3.5967 -0.3530  1.9216
  106MOL0     H14288  10.588   2.928   4.409 -1.9745 -1.4399  1.4112
  106MOL0     H14289  10.573   2.919   4.238  2.7197 -0.2207 -1.5010
  106MOL0     H14290  10.724   3.755   3.886 -0.9273  1.2447 -2.4472
  106MOL0     H14291  10.523   3.823   3.766  3.6700 -3.3970 -1.2647
  106MOL0     H14292  10.179   4.041   3.735  0.2408 -1.2793  2.1960
  106MOL0     H14293  10.002   4.177   3.628  1.7685 -0.0246  0.2456
  106MOL0     H14294   9.220   3.993   3.123 -0.6696 -1.5843  2.4675
  106MOL0     H14295   9.460   3.979   3.196  0.2092  0.3236 -0.9221
  106MOL0     H14296   9.723   3.600   3.300 -2.8179  1.9681  2.4157
  106MOL0     H14297   9.893   3.499   3.426 -2.4206 -0.7754 -1.4779
  106MOL0     H14298  10.112   3.448   3.454 -1.4392 -2.3348  1.1939
  106MOL0     H14299  10.077   3.458   3.629  0.9420 -0.9467 -0.1694
  106MOL0     H14300  10.355   3.537   3.522 -1.2272  1.6305  1.6070
  106MOL0     H14301  10.322   3.374   3.531  1.5486 -1.5985  3.8801
  106MOL0     H14302  10.278   3.574   3.751 -0.3918  0.7752 -3.6406
  106MOL0     H14303  10.438   3.482   3.728  0.5485 -1.4340  0.6892
  106MOL0     H14304  10.158   3.376   3.813  0.0159 -2.9757  2.8040
  106MOL0     H14305  10.307   3.280   3.772  1.7784  0.9207 -1.0318
  106MOL0     H14306  10.362   3.408   4.166 -3.3789 -1.4769  1.0641
  106MOL0     H14307  10.085   3.879   3.476 -1.4878 -0.1067  2.4132
  106MOL0     H14308  10.035   4.073   3.360  0.0860  1.3391 -0.8748
  106MOL0     H14309   9.925   4.057   3.217 -1.7915 -1.2491  0.3725
  106MOL0     H14310   9.851   4.070   3.372 -2.0377 -3.2842 -0.7506
  107MOL0     O14311   3.421   1.445   2.334  0.2368  0.8216  0.9288
  107MOL0     C14312   3.320   1.491   2.274  0.1678 -0.5161 -0.3573
  107MOL0     O14313   3.315   1.507   2.133  0.3367 -0.0324 -0.7056
  107MOL0     C14314   3.428   1.496   2.054  0.3896 -0.9216 -0.2101
  107MOL0     C14315   3.557   1.539   2.090 -0.5023  0.2253  0.1099
  107MOL0     C14316   3.669   1.502   2.017 -0.4583  0.0496 -0.4659
  107MOL0     C14317   3.657   1.431   1.896 -0.6039 -0.2748  0.0378
  107MOL0     O14318   3.760   1.422   1.802 -0.4011  0.3856  0.0580
  107MOL0     C14319   3.879   1.350   1.857  0.8967 -0.6936 -0.3410
  107MOL0     C14320   3.864   1.200   1.876 -0.2024  0.4328  0.0608
  107MOL0     C14321   3.892   1.144   1.730  0.0441 -0.0426  0.2538
  107MOL0     C14322   3.874   0.990   1.725 -0.6340 -0.1437  0.4162
  107MOL0     C14323   3.938   0.932   1.594  0.0201  0.7045 -0.0317
  107MOL0     C14324   4.088   0.917   1.614 -0.1852 -0.2933 -0.6420
  107MOL0     C14325   4.150   0.842   1.491 -0.1908  0.0897  0.4744
  107MOL0     C14326   4.185   0.941   1.381  0.2317  0.5950  0.4185
  107MOL0     N14327   4.305   1.023   1.400 -0.2865 -0.3501 -0.4802
  107MOL0     C14328   4.318   1.164   1.384  0.4262  0.4406 -0.8082
  107MOL0     C14329   4.449   1.181   1.425 -0.5299  0.5294  0.4447
  107MOL0     C14330   4.523   1.315   1.439  0.2029 -1.2238 -1.2053
  107MOL0     C14331   4.435   1.439   1.479 -0.0150  0.2309 -0.0060
  107MOL0     C14332   4.370   1.413   1.618 -0.4054 -0.0700  0.5441
  107MOL0     C14333   4.242   1.493   1.633 -0.6872 -0.0439  0.2541
  107MOL0     O14334   4.285   1.628   1.647  0.3168  0.0637 -0.4733
  107MOL0     C14335   4.193   1.726   1.676  0.5606 -0.3297  0.0217
  107MOL0     C14336   4.060   1.691   1.713  0.7733  0.1809 -0.0607
  107MOL0     C14337   3.954   1.790   1.738 -0.4649  0.7761  0.2302
  107MOL0     C14338   3.993   1.927   1.722  1.1489 -0.1095 -0.7052
  107MOL0     C14339   3.892   2.027   1.770  0.5751 -0.4754 -0.0997
  107MOL0     O14340   3.912   2.158   1.755 -1.0591  0.7171  0.9978
  107MOL0     C14341   3.832   2.265   1.795  0.4148  0.7321 -0.0581
  107MOL0     C14342   3.791   2.359   1.704 -0.2240  0.4245 -0.8474
  107MOL0     C14343   3.709   2.467   1.743 -0.2949 -0.0598 -0.0628
  107MOL0     C14344   3.689   2.494   1.884 -0.2617  0.0897  0.7323
  107MOL0     O14345   3.630   2.608   1.928  0.9871  0.0901  0.7192
  107MOL0     C14346   3.614   2.733   1.848 -0.2793 -0.0570  0.5636
  107MOL0     C14347   3.495   2.731   1.760 -0.2166 -0.5493 -0.6043
  107MOL0     C14348   3.362   2.781   1.819  0.5312  0.3403 -0.4870
  107MOL0     C14349   3.248   2.765   1.724  0.1931  0.2792 -0.2808
  107MOL0     C14350   3.126   2.680   1.779 -0.4239 -0.0970  0.4008
  107MOL0     C14351   2.987   2.712   1.724  0.5190 -0.2280  0.9908
  107MOL0     C14352   2.881   2.623   1.792  0.0329 -0.0865 -0.0466
  107MOL0     C14353   2.739   2.613   1.728 -0.3575  0.3094  0.3998
  107MOL0    Cl14354   2.634   2.494   1.822 -0.5007  0.1513 -0.2749
  107MOL0     C14355   3.754   2.413   1.973 -0.1179  0.0816  0.4939
  107MOL0     C14356   3.822   2.294   1.931 -0.3490  0.0423 -0.0638
  107MOL0     O14357   3.794   1.985   1.839  0.2961  0.8821  0.1298
  107MOL0     C14358   4.124   1.961   1.683 -0.6124  0.1857  0.2978
  107MOL0     C14359   4.223   1.861   1.658  0.2080  0.3973  0.2761
  107MOL0     N14360   4.506   1.055   1.450 -0.6004  0.0070  0.1525
  107MOL0     N14361   4.424   0.967   1.431  0.8534 -0.1488 -0.4392
  107MOL0     C14362   3.525   1.388   1.863 -0.3034  0.9955  0.0521
  107MOL0     C14363   3.420   1.418   1.942  0.2205 -0.2918 -0.4972
  107MOL0     C14364   3.197   1.536   2.342  0.2776  0.8119  0.5223
  107MOL0     C14365   3.207   1.540   2.490 -0.7264  0.1316  0.1499
  107MOL0     C14366   3.114   1.602   2.568  0.3506 -0.6410 -0.9486
  107MOL0     C14367   3.003   1.663   2.519 -0.0649  1.0610 -0.0773
  107MOL0     O14368   2.913   1.741   2.592 -0.8391 -0.2692 -0.7282
  107MOL0     C14369   2.941   1.767   2.735 -1.0146 -0.1939  0.3558
  107MOL0     C14370   2.884   1.655   2.824 -0.2572 -0.2756  0.2527
  107MOL0     C14371   2.733   1.632   2.799  0.1127  0.3487  0.0168
  107MOL0     C14372   2.687   1.504   2.885  0.5050 -0.5166 -0.1067
  107MOL0     C14373   2.762   1.373   2.857 -0.2741  0.4264  0.6099
  107MOL0     C14374   2.819   1.275   2.811  0.8991  0.0004  0.2264
  107MOL0     C14375   2.982   1.649   2.386 -0.1024 -0.1276  0.9340
  107MOL0     C14376   3.073   1.588   2.293 -1.0358  0.5870  0.7912
  107MOL0     C14377   3.035   1.603   2.145 -0.1886 -0.0295 -0.4219
  107MOL0     H14378   3.559   1.586   2.188 -1.1873 -3.1599  1.8821
  107MOL0     H14379   3.756   1.544   2.067 -2.7062  4.5587  0.1148
  107MOL0     H14380   3.957   1.373   1.784 -0.2956  1.0841 -1.1315
  107MOL0     H14381   3.910   1.398   1.951 -0.7307 -1.9234  0.8905
  107MOL0     H14382   3.774   1.163   1.926  2.1793 -3.3023  2.0263
  107MOL0     H14383   3.952   1.169   1.933 -1.4733 -1.5586  1.0368
  107MOL0     H14384   3.997   1.173   1.719  0.3046 -0.7636  0.7281
  107MOL0     H14385   3.819   1.184   1.659  1.9330  0.8452 -1.2847
  107MOL0     H14386   3.930   0.952   1.811 -1.3740 -0.2305  0.8691
  107MOL0     H14387   3.777   0.943   1.746  0.7572 -2.4824  2.1020
  107MOL0     H14388   3.900   0.833   1.567 -2.0687  1.1522  1.0146
  107MOL0     H14389   3.916   0.994   1.507  2.0659  0.8451 -0.4850
  107MOL0     H14390   4.136   1.012   1.638 -1.4391 -0.1978  1.7801
  107MOL0     H14391   4.106   0.843   1.692  0.6838  0.7384  0.1576
  107MOL0     H14392   4.076   0.771   1.452 -0.5301  0.9407 -0.4984
  107MOL0     H14393   4.236   0.779   1.513  0.3188  0.4051 -0.5699
  107MOL0     H14394   4.195   0.873   1.296 -3.3987  0.7383 -0.2888
  107MOL0     H14395   4.102   0.999   1.340  0.1732 -1.7033 -3.1983
  107MOL0     H14396   4.252   1.242   1.347  1.3468  2.6032  1.7953
  107MOL0     H14397   4.595   1.296   1.518 -2.4731 -0.2752  1.6780
  107MOL0     H14398   4.590   1.337   1.355  3.6179  0.2020  1.6450
  107MOL0     H14399   4.505   1.523   1.476  3.1980 -2.2775 -0.7953
  107MOL0     H14400   4.364   1.447   1.397 -1.7396 -1.3658  1.2580
  107MOL0     H14401   4.438   1.451   1.695 -3.2735  2.8387  1.8974
  107MOL0     H14402   4.343   1.309   1.639  0.4352  0.1720  3.1488
  107MOL0     H14403   4.204   1.451   1.726  0.1661 -1.5437 -0.0485
  107MOL0     H14404   4.175   1.482   1.547  1.0296 -0.1500 -1.1238
  107MOL0     H14405   4.035   1.589   1.740  2.9743 -0.0625  1.2753
  107MOL0     H14406   3.856   1.756   1.770  0.2946 -1.6340  0.1387
  107MOL0     H14407   3.807   2.344   1.598  3.2195  0.5121 -0.4508
  107MOL0     H14408   3.677   2.540   1.669 -1.4348 -1.6720 -1.2148
  107MOL0     H14409   3.609   2.813   1.923  0.8559  0.1968  0.3820
  107MOL0     H14410   3.707   2.754   1.795  0.0865 -3.2429 -0.2622
  107MOL0     H14411   3.521   2.795   1.676  0.4661  2.9638  2.0513
  107MOL0     H14412   3.476   2.630   1.723  3.0639 -1.1125 -1.1173
  107MOL0     H14413   3.345   2.736   1.918  3.4879 -2.6985 -1.1793
  107MOL0     H14414   3.365   2.889   1.836 -0.3471  0.3095 -0.0384
  107MOL0     H14415   3.274   2.719   1.628 -2.4342 -0.5607 -0.6730
  107MOL0     H14416   3.214   2.864   1.692  0.9304  0.7514  0.3758
  107MOL0     H14417   3.116   2.696   1.887 -1.5922 -0.3549  0.3377
  107MOL0     H14418   3.152   2.575   1.760  1.4593  0.2143  0.9891
  107MOL0     H14419   2.965   2.819   1.737  1.1578  0.1731 -0.9375
  107MOL0     H14420   2.990   2.699   1.615  1.1276 -0.5450  1.0439
  107MOL0     H14421   2.872   2.662   1.894 -0.2530 -1.5080  0.4957
  107MOL0     H14422   2.927   2.527   1.815  1.6852  0.8102  0.5483
  107MOL0     H14423   2.695   2.714   1.729 -0.9441  0.0637  0.2165
  107MOL0     H14424   2.752   2.585   1.623 -0.1463  3.4331 -0.4996
  107MOL0     H14425   3.743   2.445   2.076  0.2030 -0.2015  0.6149
  107MOL0     H14426   3.867   2.232   2.008 -1.0480  2.4518  2.4612
  107MOL0     H14427   4.150   2.066   1.682  0.7726 -0.1228  0.8847
  107MOL0     H14428   4.323   1.896   1.633  1.0967 -1.2411  1.3505
  107MOL0     H14429   3.516   1.335   1.768  2.0899 -2.9526  1.7993
  107MOL0     H14430   3.322   1.381   1.915 -0.1040  1.6087 -2.1291
  107MOL0     H14431   3.295   1.501   2.539  0.2821 -0.5029 -2.0269
  107MOL0     H14432   3.141   1.600   2.674 -2.5168 -0.7386 -0.1350
  107MOL0     H14433   2.882   1.856   2.762  0.4229  0.7353  0.5903
  107MOL0     H14434   3.046   1.785   2.762 -0.1912 -0.2558 -2.4795
  107MOL0     H14435   2.896   1.681   2.930 -4.5945  1.5351  0.5321
  107MOL0     H14436   2.943   1.568   2.796  2.7181  0.7571  2.6711
  107MOL0     H14437   2.731   1.600   2.694 -0.8949  0.0185  0.1251
  107MOL0     H14438   2.675   1.724   2.809 -2.1368 -0.4872 -3.5337
  107MOL0     H14439   2.690   1.524   2.992  1.6040 -0.1351 -0.1933
  107MOL0     H14440   2.586   1.469   2.864  0.6434 -1.7020  1.1101
  107MOL0     H14441   2.870   1.186   2.782  0.1543 -0.7337  1.1148
  107MOL0     H14442   2.899   1.697   2.334  0.2746 -1.0284 -0.5607
  107MOL0     H14443   3.116   1.625   2.075  0.2556  1.3493  0.4787
  107MOL0     H14444   3.008   1.498   2.129 -0.6376  0.2182 -1.3410
  107MOL0     H14445   2.953   1.674   2.131 -0.1376  1.2521  4.0954
  108MOL0     O14446   3.313  10.796   1.315 -0.0263  0.3586 -0.4478
  108MOL0     C14447   3.216  10.715   1.304  1.1497 -0.2057  0.2143
  108MOL0     O14448   3.136  10.679   1.410  0.2334  0.0433 -0.3184
  108MOL0     C14449   3.162  10.737   1.532 -0.5353  1.3685 -0.3551
  108MOL0     C14450   3.263  10.694   1.612 -0.4506 -0.7674 -0.5010
  108MOL0     C14451   3.279  10.744   1.739 -0.6610 -0.2102  0.9931
  108MOL0     C14452   3.201  10.843   1.779 -0.0549 -0.2749  0.3156
  108MOL0     O14453   3.208  10.899   1.899  0.4753 -0.1934 -0.1091
  108MOL0     C14454   3.340  10.907   1.960 -0.1537 -1.0061  0.2727
  108MOL0     C14455   3.323  10.999   2.085 -0.3887 -0.2874  0.0633
  108MOL0     C14456   3.456  11.035   2.135 -0.1152  0.3000  0.4510
  108MOL0     C14457   3.498  10.945   2.256  0.5572 -0.2732  0.7945
  108MOL0     C14458   3.627  10.998   2.331  1.0670 -0.4876 -0.3838
  108MOL0     C14459   3.765  10.970   2.277  0.2448 -0.5457  0.5019
  108MOL0     C14460   3.874  11.023   2.364 -1.0569 -0.5174  0.1646
  108MOL0     C14461   3.854  10.970   2.512 -0.2631 -0.0923  0.6477
  108MOL0     N14462   3.972  10.999   2.598 -0.6410  0.2177  0.8193
  108MOL0     C14463   4.079  10.904   2.619 -0.0817  0.7090  0.4491
  108MOL0     C14464   4.173  10.995   2.664 -0.4600  2.0972  0.4524
  108MOL0     C14465   4.323  10.945   2.695 -1.0055 -1.1143  0.1092
  108MOL0     C14466   4.338  10.893   2.833  1.0287 -0.1361  0.0116
  108MOL0     C14467   4.248  10.773   2.853 -0.0639 -0.3350 -0.6748
  108MOL0     C14468   4.260  10.725   3.004  0.4011  0.0632  0.5907
  108MOL0     O14469   4.186  10.810   3.088  0.3753  0.2873 -0.1317
  108MOL0     C14470   4.249  10.840   3.208 -0.2664 -0.5947  0.4504
  108MOL0     C14471   4.330  10.757   3.283 -0.4383  0.8717 -0.3778
  108MOL0     C14472   4.419  10.795   3.390 -1.1690 -0.6020 -0.2072
  108MOL0     C14473   4.420  10.931   3.426  0.2579  0.6433 -0.9904
  108MOL0     C14474   4.506  10.979   3.528 -0.0392 -0.3057 -0.5791
  108MOL0     O14475   4.501  11.111   3.551 -0.5801 -0.3432 -0.4488
  108MOL0     C14476   4.600  11.176   3.632  0.5964  1.4020 -0.3623
  108MOL0     C14477   4.553  11.289   3.704  0.0230 -0.0323 -0.2973
  108MOL0     C14478   4.646  11.362   3.785 -0.6393  0.0701  0.1778
  108MOL0     C14479   4.786  11.327   3.784  0.0420 -0.5037  0.5086
  108MOL0     O14480   4.864  11.411   3.847  0.1063 -0.9127  0.0711
  108MOL0     C14481   5.003  11.399   3.817  0.0929 -1.0987 -0.7723
  108MOL0     C14482   5.088  11.509   3.881 -0.9312  0.8943  0.4349
  108MOL0     C14483   5.008  11.631   3.927  0.1436  0.4406  0.3449
  108MOL0     C14484   5.091  11.742   3.993  0.6789  0.3029  0.2168
  108MOL0     C14485   5.142  11.727   4.132  0.1528  0.3611 -0.6454
  108MOL0     C14486   5.046  11.644   4.216 -0.4952 -0.6735  0.3296
  108MOL0     C14487   5.094  11.648   4.358  0.2086 -0.5060  0.8616
  108MOL0     C14488   5.011  11.552   4.443  0.1894 -0.2444 -0.3058
  108MOL0    Cl14489   5.059  11.575   4.616  0.1102 -0.1079  0.3845
  108MOL0     C14490   4.827  11.208   3.717 -0.5673  0.1580  1.4025
  108MOL0     C14491   4.734  11.136   3.635 -1.1458 -0.0019 -0.2425
  108MOL0     O14492   4.573  10.902   3.595 -0.5606 -0.2976  0.2507
  108MOL0     C14493   4.340  11.014   3.354 -0.2516 -0.6399 -0.4319
  108MOL0     C14494   4.243  10.968   3.259  0.1162 -0.0455 -0.0952
  108MOL0     N14495   4.127  11.113   2.679 -0.1331  0.7054 -0.2951
  108MOL0     N14496   4.015  11.130   2.629 -0.3084 -0.1413 -0.1354
  108MOL0     C14497   3.096  10.895   1.701  0.7731  0.7522 -0.4665
  108MOL0     C14498   3.083  10.843   1.573  0.3951  0.4398 -0.3817
  108MOL0     C14499   3.163  10.665   1.174 -0.2623  0.2910 -0.5642
  108MOL0     C14500   3.032  10.620   1.165 -0.3309 -0.1331  0.2657
  108MOL0     C14501   2.981  10.570   1.046  1.0548  0.2768 -0.2609
  108MOL0     C14502   3.062  10.554   0.937  0.0257  0.3299  0.4597
  108MOL0     O14503   2.993  10.508   0.818 -0.4856  0.1191  0.5698
  108MOL0     C14504   3.043  10.545   0.691  0.6949  0.0125 -0.0426
  108MOL0     C14505   2.939  10.483   0.605 -0.7680  0.2733 -0.1170
  108MOL0     C14506   2.816  10.566   0.629 -0.7462 -0.3796 -0.1406
  108MOL0     C14507   2.727  10.580   0.512  0.6179  0.7177 -0.4034
  108MOL0     C14508   2.697  10.446   0.457 -0.8567 -1.0577  0.2408
  108MOL0     C14509   2.688  10.345   0.387 -0.6905  0.5138  0.6645
  108MOL0     C14510   3.198  10.598   0.941 -0.7620 -0.7105  0.2357
  108MOL0     C14511   3.248  10.660   1.063 -0.1124  0.4983 -0.1496
  108MOL0     C14512   3.398  10.700   1.059  0.0731 -1.1673 -0.3322
  108MOL0     H14513   3.312  10.604   1.576  1.1536 -0.7961  1.5389
  108MOL0     H14514   3.362  10.703   1.796  0.0470 -0.1073  0.0547
  108MOL0     H14515   3.384  10.808   1.975 -3.4728 -2.7558 -0.5617
  108MOL0     H14516   3.406  10.951   1.885 -1.0626 -2.9592 -1.7851
  108MOL0     H14517   3.275  10.943   2.166  0.8564 -0.0341  1.0197
  108MOL0     H14518   3.276  11.091   2.050  1.8362  0.1214 -2.1453
  108MOL0     H14519   3.468  11.141   2.158 -0.2557  0.6048 -0.8420
  108MOL0     H14520   3.535  11.016   2.062 -1.6822 -0.6294 -1.0893
  108MOL0     H14521   3.418  10.949   2.331 -1.9324 -2.4277 -1.5211
  108MOL0     H14522   3.496  10.839   2.231 -3.8001 -0.1201 -0.4590
  108MOL0     H14523   3.617  11.104   2.355  0.6278 -0.3708 -1.0445
  108MOL0     H14524   3.613  10.944   2.425 -3.4835 -1.3358 -1.2848
  108MOL0     H14525   3.775  10.862   2.263  0.5267 -0.7302  1.9370
  108MOL0     H14526   3.779  11.023   2.182 -0.3338 -2.0443 -0.4531
  108MOL0     H14527   3.875  11.132   2.348 -0.9872 -0.4289  0.7489
  108MOL0     H14528   3.969  10.987   2.325 -0.8829  0.3262 -0.2054
  108MOL0     H14529   3.777  11.031   2.561  0.2789  1.5139 -0.4088
  108MOL0     H14530   3.814  10.868   2.509  2.3580 -1.1876 -1.3074
  108MOL0     H14531   4.094  10.797   2.612  0.2077  0.4900  3.2198
  108MOL0     H14532   4.367  10.873   2.625  1.1683 -1.1918  1.4949
  108MOL0     H14533   4.382  11.037   2.697 -1.6238 -0.6871  3.0371
  108MOL0     H14534   4.442  10.866   2.850  0.5127 -2.0433  0.3708
  108MOL0     H14535   4.316  10.967   2.911  0.9930 -2.9682  2.9238
  108MOL0     H14536   4.286  10.697   2.783  1.6000  1.6000 -2.0117
  108MOL0     H14537   4.140  10.786   2.839  0.3277  1.5619 -2.4089
  108MOL0     H14538   4.364  10.722   3.037  0.7003  1.8760 -0.0885
  108MOL0     H14539   4.223  10.622   3.009 -1.8528  0.8595  2.0002
  108MOL0     H14540   4.342  10.655   3.250 -0.8486  0.5190  0.5203
  108MOL0     H14541   4.462  10.715   3.449 -1.5113 -1.3334 -0.9373
  108MOL0     H14542   4.452  11.327   3.705  0.6152  1.6532 -0.8933
  108MOL0     H14543   4.616  11.455   3.831  0.6329  0.4757  0.2247
  108MOL0     H14544   5.052  11.308   3.853  0.5442 -0.6765 -0.3006
  108MOL0     H14545   5.014  11.389   3.709  0.9343 -3.9596 -0.4967
  108MOL0     H14546   5.134  11.463   3.970  2.7412 -2.4178 -2.7971
  108MOL0     H14547   5.173  11.532   3.816 -0.4281  1.1055  1.1556
  108MOL0     H14548   4.975  11.680   3.835  3.3282 -1.4455 -2.0186
  108MOL0     H14549   4.917  11.614   3.984 -1.4463  0.0611 -2.1523
  108MOL0     H14550   5.017  11.823   3.983 -2.6517 -2.5646 -0.0895
  108MOL0     H14551   5.167  11.760   3.916 -1.5908  1.3714 -1.9567
  108MOL0     H14552   5.180  11.824   4.165  2.4028 -0.0211 -1.9142
  108MOL0     H14553   5.226  11.662   4.104 -2.2843 -1.4148 -4.8074
  108MOL0     H14554   4.950  11.698   4.214 -1.5763 -2.4476 -2.5220
  108MOL0     H14555   5.041  11.540   4.183  0.7182 -0.1824 -1.6076
  108MOL0     H14556   5.115  11.744   4.407  1.7445 -1.5624  2.3983
  108MOL0     H14557   5.190  11.596   4.352  0.7306  0.5366 -0.3278
  108MOL0     H14558   4.904  11.569   4.432 -0.6241 -2.3597  3.0450
  108MOL0     H14559   5.033  11.455   4.398 -0.6723 -0.8054  0.4582
  108MOL0     H14560   4.932  11.185   3.710  0.1464  3.2193  0.8013
  108MOL0     H14561   4.772  11.049   3.584  1.4160  0.7329  0.2929
  108MOL0     H14562   4.324  11.117   3.385  1.5163 -1.0453  2.1245
  108MOL0     H14563   4.182  11.044   3.212  0.4335 -0.1828 -0.7551
  108MOL0     H14564   3.033  10.980   1.726 -0.4634  0.2228 -1.6457
  108MOL0     H14565   3.016  10.878   1.496  0.8981 -1.6175 -1.8276
  108MOL0     H14566   2.960  10.628   1.246  1.9650  0.9138  2.3251
  108MOL0     H14567   2.880  10.532   1.042  0.4802  1.5870  0.9440
  108MOL0     H14568   3.135  10.499   0.653 -0.2350 -1.2933 -0.8203
  108MOL0     H14569   3.052  10.653   0.676 -0.2687  0.3267  1.4423
  108MOL0     H14570   2.921  10.377   0.626  0.2199  0.0892 -0.1546
  108MOL0     H14571   2.969  10.472   0.501  0.0185 -3.1176  0.3537
  108MOL0     H14572   2.847  10.669   0.648 -1.0922 -0.6941  2.4465
  108MOL0     H14573   2.749  10.518   0.701 -0.2699 -1.4750 -0.4080
  108MOL0     H14574   2.640  10.633   0.553 -0.2158  0.1265 -1.3698
  108MOL0     H14575   2.783  10.637   0.437 -1.2109  3.6215  0.2495
  108MOL0     H14576   2.684  10.247   0.345 -1.3634  0.3948  0.9813
  108MOL0     H14577   3.254  10.595   0.848  0.7121 -0.3641  1.0729
  108MOL0     H14578   3.407  10.807   1.080 -0.2868 -1.3106  0.6216
  108MOL0     H14579   3.448  10.638   1.134 -2.4483 -0.9862  1.6441
  108MOL0     H14580   3.443  10.674   0.963  0.0932 -1.7623 -0.1671
  109MOL0     O14581   7.390   7.310  10.764 -0.0121  0.5522 -0.4290
  109MOL0     C14582   7.294   7.264  10.698  0.0552  0.3890 -0.0101
  109MOL0     O14583   7.210   7.341  10.631 -0.2586  0.0084 -0.1300
  109MOL0     C14584   7.210   7.476  10.653 -0.1093 -0.0231  0.4950
  109MOL0     C14585   7.163   7.553  10.544  0.1918  0.3207 -1.9388
  109MOL0     C14586   7.126   7.688  10.567  0.6282  0.2895  0.8774
  109MOL0     C14587   7.137   7.749  10.695 -0.1331  0.4765  1.0931
  109MOL0     O14588   7.106   7.881  10.699  0.7035 -0.3260  0.3708
  109MOL0     C14589   7.022   7.907  10.809 -0.4825  0.0534  0.2307
  109MOL0     C14590   6.936   8.023  10.778  0.8139  0.4969 -0.3780
  109MOL0     C14591   6.828   7.999  10.669 -0.5519 -0.1280 -0.5422
  109MOL0     C14592   6.716   7.896  10.703 -0.0687  0.9455 -0.3404
  109MOL0     C14593   6.611   7.898  10.595  0.0376  0.1514  0.2139
  109MOL0     C14594   6.507   7.786  10.588 -0.2157  0.0511  0.3876
  109MOL0     C14595   6.397   7.809  10.474 -0.5764  0.5437 -0.4387
  109MOL0     C14596   6.438   7.704  10.366 -0.0941 -0.0978  0.0237
  109MOL0     N14597   6.414   7.565  10.381  0.5163 -0.9165 -1.2083
  109MOL0     C14598   6.291   7.508  10.421 -0.0077  0.2222 -0.1092
  109MOL0     C14599   6.319   7.384  10.459 -0.6583 -0.0776  0.6883
  109MOL0     C14600   6.220   7.278  10.500  1.2987 -0.4909 -0.8085
  109MOL0     C14601   6.229   7.156  10.412  0.2263 -0.3072 -0.3842
  109MOL0     C14602   6.185   7.161  10.258 -1.0682 -0.3779  0.2445
  109MOL0     C14603   6.035   7.196  10.256  0.0372 -0.0646 -0.2726
  109MOL0     O14604   5.948   7.082  10.301 -0.2679 -0.3497  0.4413
  109MOL0     C14605   5.815   7.111  10.302 -0.3501  0.1733 -0.3341
  109MOL0     C14606   5.748   7.135  10.421 -0.5134 -0.8590  0.3836
  109MOL0     C14607   5.608   7.117  10.429  0.9724 -0.4617 -0.1632
  109MOL0     C14608   5.530   7.109  10.307  1.2337  0.0266  1.2373
  109MOL0     C14609   5.380   7.090  10.319 -0.4247 -0.6723 -0.7162
  109MOL0     O14610   5.331   7.068  10.443 -0.2747 -0.4883 -0.4208
  109MOL0     C14611   5.192   7.041  10.478  0.8261  0.2712  0.4435
  109MOL0     C14612   5.084   7.014  10.388  0.3011  0.8776 -0.1969
  109MOL0     C14613   4.947   6.988  10.427 -0.1364  1.0053  0.2238
  109MOL0     C14614   4.907   7.001  10.561 -0.1386  0.9615  0.0256
  109MOL0     O14615   4.777   6.990  10.614  0.0109 -0.5486  0.3296
  109MOL0     C14616   4.681   6.917  10.538 -0.4683  0.8831 -0.0719
  109MOL0     C14617   4.548   6.911  10.611  0.3298 -0.5364  0.0870
  109MOL0     C14618   4.534   6.813  10.722  0.0010  0.2422  0.5917
  109MOL0     C14619   4.392   6.827  10.774 -0.3276 -1.0428  0.4285
  109MOL0     C14620   4.375   6.777  10.916  0.2018  0.7009  0.2717
  109MOL0     C14621   4.467   6.847  11.013 -0.0536  0.1658 -0.2942
  109MOL0     C14622   4.416   6.882  11.158  1.0858  0.3046 -0.0058
  109MOL0     C14623   4.395   6.753  11.237 -0.4859  0.1650 -0.7822
  109MOL0    Cl14624   4.271   6.634  11.179 -0.2141 -0.1775 -0.0250
  109MOL0     C14625   5.010   7.041  10.646 -1.3779 -0.2684 -0.1877
  109MOL0     C14626   5.150   7.051  10.611 -0.4695 -0.1601 -0.9011
  109MOL0     O14627   5.311   7.097  10.218 -0.1375 -0.0079  0.2035
  109MOL0     C14628   5.603   7.093  10.187 -0.2183  0.3050 -0.7412
  109MOL0     C14629   5.742   7.090  10.188 -0.4402 -0.4171  0.3177
  109MOL0     N14630   6.453   7.374  10.458 -0.2460  0.0763 -0.5418
  109MOL0     N14631   6.513   7.475  10.400 -0.5727  0.0496 -0.2643
  109MOL0     C14632   7.198   7.679  10.797  0.0587 -0.7005 -0.1567
  109MOL0     C14633   7.230   7.541  10.779  0.3274  0.4120  0.2440
  109MOL0     C14634   7.281   7.118  10.680 -1.0075  0.4090  0.1376
  109MOL0     C14635   7.270   7.068  10.553  0.3131  0.2707  0.2652
  109MOL0     C14636   7.271   6.926  10.517 -0.1829 -0.5602 -0.4810
  109MOL0     C14637   7.303   6.841  10.622  1.4058  0.1955  0.5734
  109MOL0     O14638   7.309   6.711  10.611  0.0021  0.9669  0.4209
  109MOL0     C14639   7.267   6.651  10.493  0.1808 -0.5309 -0.5346
  109MOL0     C14640   7.194   6.516  10.523  0.1099 -0.9446  1.1966
  109MOL0     C14641   7.286   6.400  10.531  0.0865  0.3368  0.4340
  109MOL0     C14642   7.221   6.261  10.488  0.8095 -0.1383  0.5467
  109MOL0     C14643   7.316   6.155  10.505 -0.3847 -0.2581 -0.3001
  109MOL0     C14644   7.388   6.058  10.521  0.7100 -0.0460  0.2429
  109MOL0     C14645   7.307   6.890  10.755  0.7773 -0.1542  1.0303
  109MOL0     C14646   7.299   7.030  10.787 -0.2245  0.1300  0.5570
  109MOL0     C14647   7.318   7.067  10.930  0.0056  0.8298 -0.8201
  109MOL0     H14648   7.144   7.487  10.460  0.7408 -0.8723 -1.1484
  109MOL0     H14649   7.087   7.747  10.485  1.2462 -2.1564 -1.3363
  109MOL0     H14650   6.961   7.818  10.829  0.5196 -0.9869 -1.1709
  109MOL0     H14651   7.071   7.943  10.900 -1.0098 -0.3675  0.6893
  109MOL0     H14652   6.988   8.114  10.748  1.6731  0.1631  0.0612
  109MOL0     H14653   6.894   8.053  10.875  1.3193  0.6155 -0.1904
  109MOL0     H14654   6.885   7.952  10.589  0.6476  0.5722 -0.1280
  109MOL0     H14655   6.785   8.092  10.628  3.3632  1.0762 -2.3453
  109MOL0     H14656   6.751   7.793  10.720 -2.5514  0.5572  3.9981
  109MOL0     H14657   6.669   7.913  10.800 -0.5817 -0.0202 -0.4033
  109MOL0     H14658   6.561   7.994  10.612  0.4721  0.2198  1.1420
  109MOL0     H14659   6.675   7.902  10.507 -0.0800  1.4627  0.1682
  109MOL0     H14660   6.565   7.694  10.585  3.4454  2.1130  1.9292
  109MOL0     H14661   6.458   7.783  10.685  1.1506 -3.8286  1.1462
  109MOL0     H14662   6.394   7.911  10.434  1.2081  0.3078 -1.2406
  109MOL0     H14663   6.295   7.778  10.501 -0.7316 -0.0621 -1.6643
  109MOL0     H14664   6.383   7.729  10.275  2.8559  1.5022 -1.4940
  109MOL0     H14665   6.542   7.724  10.336 -0.2900  2.3019  0.7555
  109MOL0     H14666   6.195   7.558  10.411  1.5363  3.9124  1.5115
  109MOL0     H14667   6.245   7.246  10.602  2.9755  3.0410  0.0266
  109MOL0     H14668   6.116   7.310  10.491  1.5877  0.0490 -2.8957
  109MOL0     H14669   6.331   7.118  10.419  0.8235  0.9560 -1.7750
  109MOL0     H14670   6.164   7.077  10.451 -0.7138  1.0513  0.8863
  109MOL0     H14671   6.203   7.062  10.215 -1.1172  0.0427 -0.7597
  109MOL0     H14672   6.236   7.241  10.202  1.3368  1.5193  4.6238
  109MOL0     H14673   6.006   7.213  10.152 -0.6190  1.3801  0.1167
  109MOL0     H14674   6.009   7.287  10.310 -1.1937  0.4258 -1.6223
  109MOL0     H14675   5.805   7.152  10.512 -0.0805  3.6096 -0.5012
  109MOL0     H14676   5.571   7.132  10.530  0.1232 -0.7766 -0.4223
  109MOL0     H14677   5.108   7.000  10.283  1.6211  0.0098  0.1871
  109MOL0     H14678   4.866   6.957  10.361 -0.4714 -0.9593  1.4524
  109MOL0     H14679   4.658   6.970  10.445  0.6930  1.6068  0.0331
  109MOL0     H14680   4.709   6.816  10.507 -2.6464  0.6076 -1.3498
  109MOL0     H14681   4.536   7.009  10.658 -0.3631 -0.4411 -0.2796
  109MOL0     H14682   4.466   6.894  10.541 -0.6698  0.7573  0.9041
  109MOL0     H14683   4.542   6.716  10.672 -3.4400 -1.5264  3.0916
  109MOL0     H14684   4.621   6.829  10.787  1.7018 -1.8865 -0.9730
  109MOL0     H14685   4.325   6.774  10.704 -0.5359 -1.8563  1.2207
  109MOL0     H14686   4.360   6.931  10.766 -1.4428 -1.3460  0.6739
  109MOL0     H14687   4.387   6.669  10.927  0.1225  0.4814 -1.5645
  109MOL0     H14688   4.273   6.804  10.947 -0.5015 -0.0040 -1.3052
  109MOL0     H14689   4.555   6.783  11.025  1.1845  1.9280  0.3238
  109MOL0     H14690   4.504   6.940  10.970  2.8970  0.8223  3.2151
  109MOL0     H14691   4.327   6.945  11.158  0.2932 -0.7402 -1.8801
  109MOL0     H14692   4.490   6.954  11.196  0.0947  3.2900 -3.1850
  109MOL0     H14693   4.490   6.702  11.253 -1.0207 -1.0111 -1.2017
  109MOL0     H14694   4.353   6.787  11.333 -2.7336  0.7450 -1.8859
  109MOL0     H14695   4.978   7.043  10.749 -2.9179 -1.0759 -0.6170
  109MOL0     H14696   5.238   7.059  10.675 -0.8008  2.7341 -0.6662
  109MOL0     H14697   5.551   7.073  10.094  1.7267  3.3965 -2.6380
  109MOL0     H14698   5.793   7.078  10.093  1.4876  3.2207  0.7156
  109MOL0     H14699   7.234   7.724  10.889  0.2773  1.8439 -1.3987
  109MOL0     H14700   7.275   7.484  10.861 -0.8583  1.2236  1.4998
  109MOL0     H14701   7.267   7.123  10.460  6.2951 -0.8700 -1.0182
  109MOL0     H14702   7.252   6.896  10.415 -3.1111 -1.8737  0.3557
  109MOL0     H14703   7.339   6.649  10.412 -0.6368  2.7645 -1.5158
  109MOL0     H14704   7.180   6.708  10.458  0.0553 -0.2499  0.2079
  109MOL0     H14705   7.120   6.507  10.443  1.9706  0.6530 -0.8237
  109MOL0     H14706   7.136   6.523  10.616 -1.3380 -2.2221  0.4369
  109MOL0     H14707   7.324   6.389  10.633 -0.8101 -1.4363  0.6263
  109MOL0     H14708   7.371   6.422  10.465 -0.2465  3.3662  0.8872
  109MOL0     H14709   7.130   6.243  10.546  0.4940 -0.4242 -0.0264
  109MOL0     H14710   7.185   6.264  10.384 -0.8459 -0.6464  1.0662
  109MOL0     H14711   7.448   5.970  10.538  1.3970  0.4915  0.6430
  109MOL0     H14712   7.334   6.821  10.834  1.8836  1.1242  1.8071
  109MOL0     H14713   7.283   6.991  11.001 -2.0375  2.0654 -0.4416
  109MOL0     H14714   7.422   7.082  10.960  0.3691 -0.9490 -1.0634
  109MOL0     H14715   7.273   7.164  10.950 -1.0485  0.6459 -2.1772
  110MOL0     O14716   3.083  11.175   1.530  0.5107 -0.2608  0.3185
  110MOL0     C14717   3.178  11.251   1.565  0.5203 -0.4733  1.1348
  110MOL0     O14718   3.179  11.387   1.564  0.0817  0.1716  0.5961
  110MOL0     C14719   3.063  11.451   1.519 -0.3448 -1.0599 -0.7162
  110MOL0     C14720   3.019  11.560   1.591  0.2166 -0.3906 -0.0703
  110MOL0     C14721   2.928  11.656   1.529 -0.4077  0.3614  0.0566
  110MOL0     C14722   2.874  11.625   1.404  1.3176  0.3820 -0.7436
  110MOL0     O14723   2.763  11.689   1.359  0.2169 -0.2101 -0.8459
  110MOL0     C14724   2.788  11.779   1.244 -0.4670  0.0499  1.1280
  110MOL0     C14725   2.789  11.928   1.276 -0.6496 -0.8345 -0.3228
  110MOL0     C14726   2.822  12.025   1.158  0.8347 -0.4553  0.5719
  110MOL0     C14727   2.765  12.163   1.193  0.0376 -0.0001  0.3952
  110MOL0     C14728   2.835  12.274   1.116  0.7666  0.8735  0.2305
  110MOL0     C14729   2.998  12.296   1.134 -0.1646  0.3149  0.3743
  110MOL0     C14730   3.063  12.428   1.104 -0.5304  1.1406 -0.7432
  110MOL0     C14731   3.041  12.483   0.970 -0.6358 -0.4949  0.6895
  110MOL0     N14732   3.102  12.615   0.956 -0.4662 -0.3866 -0.2672
  110MOL0     C14733   3.239  12.642   0.953 -0.4996 -0.7553 -0.0147
  110MOL0     C14734   3.254  12.766   0.900 -0.6598 -1.0971  0.3324
  110MOL0     C14735   3.381  12.833   0.869 -0.1812 -0.5847  0.0378
  110MOL0     C14736   3.373  12.965   0.947 -0.2423  0.3792 -0.6187
  110MOL0     C14737   3.494  13.046   0.910 -0.3510 -0.2940  0.5884
  110MOL0     C14738   3.517  13.168   1.000 -0.0503  0.0963  0.4209
  110MOL0     O14739   3.634  13.226   0.944  0.0017 -0.4647  0.1299
  110MOL0     C14740   3.666  13.357   0.968 -0.7579  0.0837  0.0110
  110MOL0     C14741   3.603  13.442   1.058 -0.4054  0.2018 -0.8858
  110MOL0     C14742   3.646  13.576   1.072 -0.2673  0.8583  0.2275
  110MOL0     C14743   3.743  13.631   0.984  0.7196  0.0829  0.5349
  110MOL0     C14744   3.783  13.773   0.980 -0.8680 -0.5530 -0.0962
  110MOL0     O14745   3.780  13.839   1.102 -1.0703 -0.4217 -0.8647
  110MOL0     C14746   3.854  13.954   1.112  0.0483 -0.4767  1.0410
  110MOL0     C14747   3.806  14.065   1.044  1.1170 -0.5250 -0.3703
  110MOL0     C14748   3.868  14.183   1.049 -0.7348 -0.2189 -0.1150
  110MOL0     C14749   3.998  14.197   1.110 -0.1572  0.4457  0.0891
  110MOL0     O14750   4.072  14.305   1.126 -0.3648  0.5005 -0.7155
  110MOL0     C14751   4.013  14.428   1.084 -0.0411 -0.0150  0.1062
  110MOL0     C14752   3.901  14.472   1.177 -0.0860 -0.3016  0.0018
  110MOL0     C14753   3.900  14.625   1.204 -0.3981  0.2182  0.4233
  110MOL0     C14754   3.862  14.708   1.082 -0.6716 -0.0063 -0.4295
  110MOL0     C14755   3.838  14.851   1.113 -0.5964 -0.4901 -0.8135
  110MOL0     C14756   3.855  14.938   0.994  0.9841  0.0611 -0.2129
  110MOL0     C14757   3.876  15.089   1.025 -0.3417 -0.3013 -0.1954
  110MOL0     C14758   3.916  15.190   0.920  0.1728 -0.1957 -0.0699
  110MOL0    Cl14759   3.846  15.127   0.757  0.3633  0.0176 -0.4709
  110MOL0     C14760   4.035  14.088   1.192  0.2405 -0.7297 -0.1261
  110MOL0     C14761   3.966  13.967   1.197  0.7513 -0.5317  0.1292
  110MOL0     O14762   3.850  13.810   0.879 -0.5922 -1.0761  1.2085
  110MOL0     C14763   3.822  13.546   0.914 -0.0374  1.1004  0.3282
  110MOL0     C14764   3.779  13.409   0.903 -0.2607  0.1448 -0.2503
  110MOL0     N14765   3.130  12.802   0.857  0.2203  0.1677  0.6443
  110MOL0     N14766   3.037  12.719   0.894 -0.4485 -0.1977  1.2894
  110MOL0     C14767   2.907  11.509   1.341 -0.5849 -0.5952  0.8692
  110MOL0     C14768   3.012  11.426   1.388  1.0472  0.1705  0.8514
  110MOL0     C14769   3.293  11.178   1.626  0.3748 -0.6417 -0.5116
  110MOL0     C14770   3.334  11.062   1.563  0.0797  0.2897  0.2176
  110MOL0     C14771   3.464  11.003   1.596  0.2258 -0.5809  0.0064
  110MOL0     C14772   3.540  11.052   1.706 -0.4049  0.6355 -0.0496
  110MOL0     O14773   3.648  10.994   1.769  0.1466 -0.1874  0.4001
  110MOL0     C14774   3.730  10.906   1.694  1.1093 -0.5699  0.3661
  110MOL0     C14775   3.781  10.787   1.775  0.4208  0.3633 -0.3898
  110MOL0     C14776   3.667  10.695   1.835  0.4199 -0.0994 -0.6217
  110MOL0     C14777   3.630  10.583   1.732  0.2921  0.4980 -0.3136
  110MOL0     C14778   3.529  10.500   1.794  0.2941  0.3714 -0.2203
  110MOL0     C14779   3.442  10.435   1.855 -0.0968  1.7277  0.7412
  110MOL0     C14780   3.498  11.162   1.759  0.2450 -1.0448  0.4732
  110MOL0     C14781   3.378  11.226   1.721  0.5002 -0.4081 -0.7699
  110MOL0     C14782   3.333  11.337   1.808 -0.8672 -0.0282  0.1827
  110MOL0     H14783   3.063  11.577   1.689  0.3268 -2.5351  0.2929
  110MOL0     H14784   2.885  11.742   1.579 -0.2617  0.8395 -0.6337
  110MOL0     H14785   2.891  11.762   1.210 -0.9468 -1.3547  0.2937
  110MOL0     H14786   2.710  11.750   1.174  0.2360  0.0924  0.3099
  110MOL0     H14787   2.876  11.943   1.339  0.6212  1.7712 -2.4678
  110MOL0     H14788   2.693  11.946   1.326 -0.2478 -0.6231  0.3785
  110MOL0     H14789   2.778  11.994   1.063 -0.5838  1.9306  0.3840
  110MOL0     H14790   2.928  12.036   1.134  0.5862 -0.2052 -0.4212
  110MOL0     H14791   2.662  12.171   1.158  0.5560  4.9909 -0.6478
  110MOL0     H14792   2.773  12.184   1.300 -1.8300 -1.2047  0.8138
  110MOL0     H14793   2.803  12.274   1.012 -0.0616  1.6777  0.4772
  110MOL0     H14794   2.797  12.367   1.159 -0.8799 -0.1421  1.0697
  110MOL0     H14795   3.018  12.280   1.240  0.0173  0.8372  0.4213
  110MOL0     H14796   3.049  12.224   1.069  1.0564  0.7037  0.8748
  110MOL0     H14797   3.171  12.424   1.122 -0.8449  1.4276  1.5122
  110MOL0     H14798   3.027  12.501   1.178  2.4965  0.8764  1.1857
  110MOL0     H14799   3.091  12.421   0.895  0.9028 -0.9323  2.0119
  110MOL0     H14800   2.933  12.491   0.953 -0.6088  0.0450  0.7644
  110MOL0     H14801   3.320  12.583   0.995  0.1877  0.7908  0.9485
  110MOL0     H14802   3.453  12.765   0.916  0.6840  0.6501  0.5593
  110MOL0     H14803   3.398  12.846   0.762 -1.1651  0.2537 -0.0312
  110MOL0     H14804   3.280  13.007   0.909 -0.1171  2.1912  0.9514
  110MOL0     H14805   3.373  12.936   1.053  0.2945  2.8764  0.1200
  110MOL0     H14806   3.477  13.064   0.804 -1.9498 -0.1670  0.8477
  110MOL0     H14807   3.586  12.986   0.913  0.9759  1.5127 -1.2052
  110MOL0     H14808   3.531  13.137   1.104 -4.3974 -0.7462  0.9235
  110MOL0     H14809   3.429  13.232   0.990 -0.7293 -1.1737 -2.4630
  110MOL0     H14810   3.517  13.404   1.111 -0.5788 -0.4295 -1.5884
  110MOL0     H14811   3.588  13.646   1.131 -0.9310  0.7999 -0.3460
  110MOL0     H14812   3.711  14.072   0.992  1.3174  3.2988 -0.5256
  110MOL0     H14813   3.812  14.268   1.012  0.7555  0.9621  0.2386
  110MOL0     H14814   4.087  14.509   1.086  0.3789 -0.2114 -3.0135
  110MOL0     H14815   3.989  14.429   0.977  1.8947 -0.3021 -0.3518
  110MOL0     H14816   3.809  14.451   1.121 -0.9479  1.7057  0.5814
  110MOL0     H14817   3.912  14.414   1.269  1.4026 -1.4587 -0.8661
  110MOL0     H14818   3.818  14.632   1.277  0.0864  0.5066  0.9503
  110MOL0     H14819   3.982  14.664   1.265 -0.3715  1.7806 -0.5548
  110MOL0     H14820   3.781  14.654   1.031  0.4707 -2.0877 -0.1519
  110MOL0     H14821   3.943  14.713   1.008 -1.5180  0.4559 -1.3501
  110MOL0     H14822   3.896  14.903   1.189 -2.4044 -0.2140  0.4317
  110MOL0     H14823   3.736  14.866   1.149 -0.6569 -0.5749 -0.9459
  110MOL0     H14824   3.935  14.901   0.928 -1.6110 -1.2153 -2.8552
  110MOL0     H14825   3.764  14.919   0.938 -0.6956  0.9421  2.0548
  110MOL0     H14826   3.958  15.100   1.097 -0.2357  1.8469 -0.5703
  110MOL0     H14827   3.788  15.129   1.075  1.1482 -0.4559  2.7531
  110MOL0     H14828   3.883  15.287   0.956 -0.6973  0.8786 -3.3864
  110MOL0     H14829   4.024  15.205   0.912  0.5450  1.2387  4.6983
  110MOL0     H14830   4.127  14.113   1.244  0.2548  0.1852 -0.5596
  110MOL0     H14831   3.999  13.872   1.239  0.1782 -0.6188  0.4032
  110MOL0     H14832   3.906  13.579   0.853 -0.0430  0.3504 -0.1032
  110MOL0     H14833   3.833  13.349   0.831 -1.2835 -2.8352  1.2900
  110MOL0     H14834   2.866  11.486   1.243  1.3987  1.7919 -0.6447
  110MOL0     H14835   3.049  11.345   1.326 -1.2815  0.3000 -0.8387
  110MOL0     H14836   3.266  11.012   1.496  1.0144 -2.0352  0.9035
  110MOL0     H14837   3.493  10.911   1.546 -1.6397 -0.8414 -0.6598
  110MOL0     H14838   3.824  10.955   1.665  0.8088  0.0809  0.4732
  110MOL0     H14839   3.677  10.855   1.614  0.1695 -0.3367  0.8202
  110MOL0     H14840   3.834  10.818   1.866  2.6470  1.3575 -1.9129
  110MOL0     H14841   3.843  10.722   1.712 -1.1117 -4.1839  2.2956
  110MOL0     H14842   3.582  10.761   1.855  0.5854 -0.1989  0.4946
  110MOL0     H14843   3.696  10.654   1.932  2.0396 -0.2409 -1.1331
  110MOL0     H14844   3.584  10.630   1.645 -2.9164 -1.8626 -0.0591
  110MOL0     H14845   3.720  10.525   1.706 -1.7993 -2.8502 -0.6980
  110MOL0     H14846   3.367  10.396   1.921  0.1172  2.2636  1.3160
  110MOL0     H14847   3.542  11.211   1.846 -2.0268  3.0357 -0.4447
  110MOL0     H14848   3.256  11.302   1.877 -0.0791  0.8925  1.5581
  110MOL0     H14849   3.419  11.369   1.868 -0.4742 -1.4186  0.4073
  110MOL0     H14850   3.295  11.425   1.755 -2.0336  0.0869  1.1749
  111MOL0     O14851   1.447  10.809  10.132 -0.2343 -0.7505 -0.3863
  111MOL0     C14852   1.483  10.710  10.079 -0.3573  0.4032  0.3115
  111MOL0     O14853   1.607  10.698  10.025  0.6188  0.4787  0.3025
  111MOL0     C14854   1.694  10.796  10.028  0.1506 -0.7106  0.6382
  111MOL0     C14855   1.673  10.910   9.946  0.1475 -0.0572 -0.1275
  111MOL0     C14856   1.762  11.022   9.952  0.3449 -0.3654  0.5675
  111MOL0     C14857   1.872  11.017  10.043 -0.7408  1.1479  0.4111
  111MOL0     O14858   1.969  11.109  10.061 -0.0733 -0.9113 -0.9804
  111MOL0     C14859   1.943  11.250  10.033  0.2105  0.5569  0.2794
  111MOL0     C14860   2.084  11.306  10.037  0.6407  0.0761  1.6038
  111MOL0     C14861   2.083  11.452   9.988 -0.1367 -1.3137  0.5851
  111MOL0     C14862   2.110  11.439   9.838  0.2889 -0.8992 -0.1891
  111MOL0     C14863   2.124  11.581   9.774 -0.7784  0.5870  0.4693
  111MOL0     C14864   1.995  11.676   9.758 -0.4562  0.4409  0.3514
  111MOL0     C14865   2.043  11.830   9.741 -0.0414  1.1050 -0.4686
  111MOL0     C14866   1.937  11.933   9.690  0.0364 -0.0123 -0.8079
  111MOL0     N14867   2.006  12.057   9.660 -0.8330 -0.3015  0.2779
  111MOL0     C14868   2.071  12.079   9.537 -0.4520  0.0910  0.9945
  111MOL0     C14869   2.106  12.214   9.548  0.6398 -0.3274 -1.2668
  111MOL0     C14870   2.180  12.303   9.450 -0.9859 -1.9619 -0.2238
  111MOL0     C14871   2.254  12.226   9.342 -0.0174  0.1594 -0.6904
  111MOL0     C14872   2.343  12.320   9.247  0.3902 -0.2728  0.7356
  111MOL0     C14873   2.258  12.406   9.144  0.3212 -0.5599 -0.2091
  111MOL0     O14874   2.346  12.502   9.095  0.6066  0.0154  0.3425
  111MOL0     C14875   2.354  12.619   9.165 -0.2386  1.1670 -0.1206
  111MOL0     C14876   2.309  12.641   9.294  0.8664  1.4233  0.6799
  111MOL0     C14877   2.322  12.765   9.363 -0.0261 -0.3606 -0.2731
  111MOL0     C14878   2.395  12.865   9.304  0.0254 -0.0780  0.1954
  111MOL0     C14879   2.423  12.994   9.373  0.1283  0.3475 -0.0122
  111MOL0     O14880   2.410  12.992   9.508  0.2475 -0.0152  0.0245
  111MOL0     C14881   2.454  13.105   9.569 -0.2661  0.5319  0.5877
  111MOL0     C14882   2.369  13.222   9.583  0.8126 -0.2183  0.3841
  111MOL0     C14883   2.415  13.340   9.648 -0.8979 -0.2753  0.4863
  111MOL0     C14884   2.543  13.340   9.703 -0.9297  0.4574  0.3633
  111MOL0     O14885   2.604  13.454   9.758 -0.1424 -0.9633 -0.8045
  111MOL0     C14886   2.550  13.497   9.880 -0.0669 -0.7356 -0.7140
  111MOL0     C14887   2.599  13.638   9.912 -0.2095 -0.3512 -0.0143
  111MOL0     C14888   2.542  13.698  10.041 -0.5580 -0.6981  0.2326
  111MOL0     C14889   2.638  13.693  10.158  0.2316 -0.6422  0.2567
  111MOL0     C14890   2.592  13.793  10.266 -0.0368 -0.0467  0.0851
  111MOL0     C14891   2.618  13.745  10.408  0.4518 -0.2739  0.0638
  111MOL0     C14892   2.769  13.735  10.447  0.4192  0.2189 -0.1011
  111MOL0     C14893   2.823  13.595  10.485 -0.0449  0.2726 -0.3974
  111MOL0    Cl14894   2.984  13.616  10.550 -0.4282  0.0899 -0.1917
  111MOL0     C14895   2.619  13.225   9.691  0.4611  0.8491  0.8834
  111MOL0     C14896   2.578  13.106   9.634  1.0100  0.1993 -0.6618
  111MOL0     O14897   2.473  13.085   9.310  0.7895  0.5738 -0.2565
  111MOL0     C14898   2.449  12.839   9.177 -0.5651  0.0832 -0.2556
  111MOL0     C14899   2.421  12.721   9.106 -1.3489  0.2912  0.0607
  111MOL0     N14900   2.045  12.268   9.668  0.6838 -0.7110  0.3711
  111MOL0     N14901   1.999  12.171   9.733  0.4596  0.3354  0.0336
  111MOL0     C14902   1.901  10.901  10.123  0.1421  0.6311 -0.0136
  111MOL0     C14903   1.797  10.798  10.119 -0.3695  0.3502  0.3763
  111MOL0     C14904   1.397  10.590  10.069  0.1235 -0.8036  0.2690
  111MOL0     C14905   1.433  10.491   9.970  0.9274 -0.0303  0.1956
  111MOL0     C14906   1.333  10.392   9.936  0.0955 -0.1041 -0.1948
  111MOL0     C14907   1.211  10.374  10.008  0.0573  0.1847 -0.9286
  111MOL0     O14908   1.110  10.291   9.963 -0.6313 -0.3279 -0.1091
  111MOL0     C14909   0.975  10.321  10.002 -1.2347 -0.1345 -0.3566
  111MOL0     C14910   0.915  10.450   9.940 -0.1547 -0.2451 -0.7474
  111MOL0     C14911   0.815  10.509  10.047  0.6447  0.7144 -0.1657
  111MOL0     C14912   0.781  10.652  10.005  0.0941  0.5314 -0.3191
  111MOL0     C14913   0.831  10.750  10.102  0.5219  0.2036 -0.1160
  111MOL0     C14914   0.870  10.820  10.193  0.8405 -0.4213  1.0129
  111MOL0     C14915   1.192  10.469  10.116 -0.2864  0.3496 -1.0073
  111MOL0     C14916   1.276  10.576  10.146 -0.0670  0.9341  0.5875
  111MOL0     C14917   1.223  10.662  10.249 -0.7540 -0.8080 -0.7230
  111MOL0     H14918   1.594  10.925   9.874 -0.9568 -0.5289  0.9486
  111MOL0     H14919   1.744  11.101   9.881 -0.5289 -0.9349  0.1434
  111MOL0     H14920   1.887  11.260   9.940 -1.9404 -3.9986  0.8040
  111MOL0     H14921   1.880  11.290  10.113  0.6021  0.9457  0.4024
  111MOL0     H14922   2.144  11.239   9.974 -1.0755 -1.3433  1.4053
  111MOL0     H14923   2.135  11.298  10.133  1.9326 -0.6467  0.8891
  111MOL0     H14924   2.158  11.518  10.035 -3.6168  1.6213  2.5486
  111MOL0     H14925   1.987  11.501  10.003  0.0964 -0.3974 -0.7063
  111MOL0     H14926   2.200  11.382   9.811  1.7604  1.7380 -1.1892
  111MOL0     H14927   2.017  11.404   9.793 -0.0806 -1.9331  1.2803
  111MOL0     H14928   2.207  11.635   9.820  0.9127 -0.3682 -1.3087
  111MOL0     H14929   2.152  11.563   9.669 -0.6780 -0.0062  0.5966
  111MOL0     H14930   1.916  11.650   9.688  0.3017 -0.6089 -0.1296
  111MOL0     H14931   1.937  11.672   9.851 -0.4287 -1.3198  0.3255
  111MOL0     H14932   2.135  11.830   9.681  0.2137 -0.8897 -0.1588
  111MOL0     H14933   2.085  11.867   9.835  0.3059  1.1867 -0.6556
  111MOL0     H14934   1.886  11.891   9.602 -1.2598 -0.6398  0.2108
  111MOL0     H14935   1.866  11.951   9.771  2.0921 -0.1799  1.1271
  111MOL0     H14936   2.094  12.009   9.458 -2.4175  2.7140 -2.1378
  111MOL0     H14937   2.110  12.370   9.400 -0.6640 -1.6654 -0.2776
  111MOL0     H14938   2.254  12.352   9.514 -1.9481 -1.2851  0.3870
  111MOL0     H14939   2.322  12.155   9.391 -2.2306 -1.9104 -0.3868
  111MOL0     H14940   2.189  12.159   9.286 -0.3796 -0.4400  0.4042
  111MOL0     H14941   2.414  12.257   9.191  0.8118  1.1512 -0.3840
  111MOL0     H14942   2.409  12.383   9.307  2.8932 -1.3587 -0.6961
  111MOL0     H14943   2.172  12.450   9.195  1.3744  0.7750  0.4921
  111MOL0     H14944   2.220  12.345   9.062  0.0245 -0.0430 -0.4644
  111MOL0     H14945   2.267  12.554   9.344 -1.0426  1.6022 -0.5000
  111MOL0     H14946   2.286  12.778   9.465  0.6951  0.3552 -0.1015
  111MOL0     H14947   2.263  13.222   9.562  0.2400  0.7628  2.9579
  111MOL0     H14948   2.348  13.423   9.665  0.6560  1.7549 -2.3566
  111MOL0     H14949   2.441  13.490   9.884 -0.0399 -1.0767 -0.5370
  111MOL0     H14950   2.585  13.425   9.954 -0.0461 -0.3143 -0.3061
  111MOL0     H14951   2.708  13.640   9.905 -0.2920 -0.6130 -1.8296
  111MOL0     H14952   2.567  13.695   9.824 -2.2097 -3.4659 -1.4928
  111MOL0     H14953   2.508  13.801  10.024  0.5161 -0.6234 -1.8016
  111MOL0     H14954   2.444  13.658  10.066 -1.1927  1.6856  1.9199
  111MOL0     H14955   2.743  13.712  10.135  0.7281  0.6489  3.1876
  111MOL0     H14956   2.637  13.591  10.199  0.1652 -1.1106 -0.8662
  111MOL0     H14957   2.486  13.818  10.264 -0.6432 -1.6082  3.8137
  111MOL0     H14958   2.642  13.888  10.249  0.4166 -0.5901 -1.8230
  111MOL0     H14959   2.585  13.820  10.480  1.4110 -2.7756  3.3325
  111MOL0     H14960   2.568  13.652  10.434  0.9211 -0.5395  0.0375
  111MOL0     H14961   2.775  13.799  10.536  0.7125 -0.6251  0.4979
  111MOL0     H14962   2.829  13.764  10.360 -0.6171  0.9768 -0.5985
  111MOL0     H14963   2.759  13.543  10.557  0.4119 -2.0989 -1.6095
  111MOL0     H14964   2.808  13.530  10.399  0.9438 -0.1295 -0.2876
  111MOL0     H14965   2.720  13.242   9.725  1.1393 -0.5430 -0.3235
  111MOL0     H14966   2.652  13.027   9.643  0.1764 -0.6112 -0.8404
  111MOL0     H14967   2.511  12.913   9.128 -1.6423  0.5959 -0.8551
  111MOL0     H14968   2.453  12.706   9.003 -2.0336  0.5881 -0.2033
  111MOL0     H14969   1.991  10.889  10.183 -0.7367 -0.2271  1.1680
  111MOL0     H14970   1.807  10.702  10.169 -4.8901  0.3229  1.7022
  111MOL0     H14971   1.514  10.496   9.898  0.7465 -1.4389 -0.1314
  111MOL0     H14972   1.359  10.328   9.852  0.3808  0.0714 -0.2411
  111MOL0     H14973   0.965  10.314  10.110 -1.1802  3.9264  0.0323
  111MOL0     H14974   0.907  10.241   9.972 -2.9163  1.3491 -0.6362
  111MOL0     H14975   0.871  10.436   9.841  1.5153 -0.0025 -1.5578
  111MOL0     H14976   0.989  10.527   9.918 -2.4253  2.4092  0.2510
  111MOL0     H14977   0.852  10.507  10.150 -3.1606 -3.1966  1.4350
  111MOL0     H14978   0.725  10.447  10.061  1.3014  0.1130  1.5790
  111MOL0     H14979   0.818  10.671   9.904 -1.3069 -0.4847 -1.0665
  111MOL0     H14980   0.672  10.662  10.015 -0.2781 -1.8748 -1.2365
  111MOL0     H14981   0.919  10.880  10.267  1.6295  1.2637 -0.7589
  111MOL0     H14982   1.098  10.455  10.168 -0.5578 -0.2489 -1.6514
  111MOL0     H14983   1.122  10.631  10.280 -0.0125 -0.4851  2.3130
  111MOL0     H14984   1.284  10.640  10.338  0.9174  0.5670 -1.4859
  111MOL0     H14985   1.230  10.767  10.222  1.5085 -0.8773 -0.6211
  112MOL0     O14986   4.965  10.330   0.076  0.6435 -0.9176  0.0963
  112MOL0     C14987   4.846  10.338   0.104  0.2163  0.5170 -0.2283
  112MOL0     O14988   4.748  10.356   0.017 -0.1595 -0.3195 -0.0823
  112MOL0     C14989   4.739  10.306  -0.109 -0.4335 -0.0328 -0.1441
  112MOL0     C14990   4.625  10.349  -0.176 -0.4603  0.4556  0.5589
  112MOL0     C14991   4.604  10.306  -0.308  0.6421  0.8424 -0.4148
  112MOL0     C14992   4.697  10.223  -0.381  0.3390  0.0697 -0.0268
  112MOL0     O14993   4.682  10.177  -0.507  0.0674  0.2112  0.5561
  112MOL0     C14994   4.656  10.276  -0.603 -0.1793  0.3911  0.3913
  112MOL0     C14995   4.665  10.185  -0.733 -0.1396 -0.4646  0.3029
  112MOL0     C14996   4.542  10.094  -0.745  0.3468 -0.2028  0.5012
  112MOL0     C14997   4.547  10.004  -0.868  0.0007  0.0761  0.3771
  112MOL0     C14998   4.424   9.902  -0.872 -0.2179  0.2865 -0.1229
  112MOL0     C14999   4.408   9.823  -0.739  0.1415 -0.4513 -0.0919
  112MOL0     C15000   4.532   9.734  -0.706  0.1680 -0.5134  0.3117
  112MOL0     C15001   4.520   9.637  -0.577 -0.3438  0.7899  0.1492
  112MOL0     N15002   4.493   9.704  -0.450 -0.3512  0.0421  0.0214
  112MOL0     C15003   4.545   9.833  -0.412 -0.2220  0.1213 -0.2497
  112MOL0     C15004   4.533   9.836  -0.280  0.6719  0.5326  0.3615
  112MOL0     C15005   4.570   9.953  -0.193  0.0724 -0.2853  0.5117
  112MOL0     C15006   4.496   9.936  -0.056  0.4856 -0.2181  0.1425
  112MOL0     C15007   4.509  10.064   0.040  0.2493  0.4821 -0.3200
  112MOL0     C15008   4.472  10.037   0.190 -0.5739  0.3618  0.0984
  112MOL0     O15009   4.570   9.951   0.248 -1.0059  0.4780 -0.3588
  112MOL0     C15010   4.537   9.850   0.331  1.0407 -0.4347  0.4830
  112MOL0     C15011   4.604   9.733   0.322  0.0316  0.1776  0.2240
  112MOL0     C15012   4.575   9.627   0.403  0.4226 -0.1945 -0.2197
  112MOL0     C15013   4.496   9.646   0.510  0.4627 -0.2348 -0.6760
  112MOL0     C15014   4.473   9.527   0.600  0.7159  0.3992  0.8202
  112MOL0     O15015   4.555   9.421   0.614  1.4215 -0.0761  0.3147
  112MOL0     C15016   4.544   9.355   0.731 -0.2243  0.4155  0.5317
  112MOL0     C15017   4.448   9.256   0.751 -0.4334 -0.4454 -1.0097
  112MOL0     C15018   4.434   9.192   0.877 -0.0784 -0.1108 -0.3454
  112MOL0     C15019   4.527   9.233   0.980 -0.6522  0.7731  0.1936
  112MOL0     O15020   4.504   9.170   1.095 -0.5960  0.7148  0.8448
  112MOL0     C15021   4.619   9.102   1.137 -1.2158  0.6254 -0.2224
  112MOL0     C15022   4.596   9.056   1.278 -0.7280  0.5905 -0.3584
  112MOL0     C15023   4.721   8.975   1.317 -0.7370  0.8935 -0.4620
  112MOL0     C15024   4.711   8.877   1.437 -0.0891  0.8298 -0.9047
  112MOL0     C15025   4.683   8.948   1.572  1.1896  0.1829 -0.1145
  112MOL0     C15026   4.670   8.859   1.695 -0.5458 -0.3872 -0.3378
  112MOL0     C15027   4.579   8.744   1.698 -0.1129 -0.3336 -0.5964
  112MOL0     C15028   4.438   8.781   1.669  0.7212  0.0995  0.2071
  112MOL0    Cl15029   4.358   8.643   1.585 -0.0207  0.0321  0.3303
  112MOL0     C15030   4.625   9.324   0.957  0.5954  0.4445  0.2443
  112MOL0     C15031   4.634   9.381   0.832 -0.2308 -0.2652 -0.5445
  112MOL0     O15032   4.366   9.534   0.658  0.5906  0.0135 -0.2909
  112MOL0     C15033   4.429   9.772   0.527  0.0106  0.4640 -0.0790
  112MOL0     C15034   4.442   9.868   0.428 -0.1844 -0.7078  0.2075
  112MOL0     N15035   4.473   9.714  -0.241  0.5426 -0.2925 -0.3358
  112MOL0     N15036   4.456   9.638  -0.337  0.5086 -0.2156 -0.3321
  112MOL0     C15037   4.803  10.165  -0.305 -0.2989 -0.2725 -0.3877
  112MOL0     C15038   4.816  10.208  -0.171  0.1694 -0.6702  0.0182
  112MOL0     C15039   4.812  10.316   0.251  0.0424  0.4098  0.0646
  112MOL0     C15040   4.746  10.196   0.288 -0.1737 -0.1888 -0.5414
  112MOL0     C15041   4.737  10.175   0.433  0.9827 -0.0889  0.5392
  112MOL0     C15042   4.769  10.265   0.533  0.9812  0.1873 -0.4350
  112MOL0     O15043   4.757  10.213   0.662 -0.1060  0.2784  0.7106
  112MOL0     C15044   4.823  10.291   0.761 -0.7619  0.9107 -0.3341
  112MOL0     C15045   4.749  10.426   0.795 -1.4130 -0.1235  0.7961
  112MOL0     C15046   4.606  10.414   0.843 -0.8207 -0.4882 -0.1081
  112MOL0     C15047   4.599  10.354   0.986 -0.1281 -0.4448 -0.1785
  112MOL0     C15048   4.474  10.388   1.058  0.6983  0.3433 -0.6510
  112MOL0     C15049   4.382  10.412   1.135 -0.3172  0.3508  0.1239
  112MOL0     C15050   4.825  10.387   0.480  1.4977 -0.2116 -0.6878
  112MOL0     C15051   4.855  10.409   0.346  0.0903  0.6329 -0.5748
  112MOL0     C15052   4.925  10.536   0.320 -0.0751  0.8093  0.1078
  112MOL0     H15053   4.559  10.422  -0.130  0.3270  1.1659  0.5804
  112MOL0     H15054   4.510  10.337  -0.354 -0.9577  0.9850  2.6968
  112MOL0     H15055   4.558  10.322  -0.592 -1.2936 -0.6303 -3.6126
  112MOL0     H15056   4.737  10.350  -0.607  2.2229 -1.8951  2.7006
  112MOL0     H15057   4.758  10.128  -0.743  1.5782  2.3999 -1.9489
  112MOL0     H15058   4.666  10.257  -0.816  1.0039  1.4061  1.8521
  112MOL0     H15059   4.450  10.152  -0.754 -0.0176 -1.0523 -1.9393
  112MOL0     H15060   4.533  10.037  -0.652 -1.4201 -0.4220  0.2305
  112MOL0     H15061   4.535  10.071  -0.953 -2.0336 -2.2155 -1.2623
  112MOL0     H15062   4.643   9.957  -0.887  0.3600  0.4873  1.1121
  112MOL0     H15063   4.326   9.947  -0.891 -2.1459 -2.3611  2.6505
  112MOL0     H15064   4.446   9.824  -0.946  1.7417  0.3364  0.3623
  112MOL0     H15065   4.366   9.882  -0.657  1.9019  2.8537 -1.3739
  112MOL0     H15066   4.330   9.750  -0.764  1.8531 -3.8007  3.3678
  112MOL0     H15067   4.618   9.796  -0.679 -1.8861  1.9246  1.6525
  112MOL0     H15068   4.560   9.674  -0.793  2.5859 -1.2074  1.4710
  112MOL0     H15069   4.429   9.581  -0.600  0.9983 -2.2517  1.7404
  112MOL0     H15070   4.608   9.574  -0.565 -0.6543  0.8048  3.5911
  112MOL0     H15071   4.579   9.908  -0.482 -2.0071  0.4017 -0.8546
  112MOL0     H15072   4.679   9.950  -0.178  0.5203 -0.8508 -2.2973
  112MOL0     H15073   4.534  10.046  -0.235 -0.2960  0.1093  1.6578
  112MOL0     H15074   4.393   9.904  -0.074  0.6099 -1.5687  1.6540
  112MOL0     H15075   4.537   9.849  -0.004  2.3413  0.1917 -0.5705
  112MOL0     H15076   4.444  10.145   0.006 -1.6545  0.0449  1.9849
  112MOL0     H15077   4.616  10.086   0.041  0.2714  0.4904  1.5921
  112MOL0     H15078   4.376   9.985   0.198 -1.4353  1.8393 -0.2010
  112MOL0     H15079   4.448  10.130   0.243 -1.4191 -1.3562  2.9252
  112MOL0     H15080   4.683   9.711   0.251 -2.4403 -2.5437 -1.8725
  112MOL0     H15081   4.642   9.545   0.383  1.4566  0.0871  1.7831
  112MOL0     H15082   4.383   9.214   0.674 -0.9342  0.0849 -0.8798
  112MOL0     H15083   4.366   9.110   0.897 -0.1721  0.4738  2.0378
  112MOL0     H15084   4.634   9.029   1.057 -2.1309  2.5760 -2.2900
  112MOL0     H15085   4.713   9.159   1.133 -1.7650  1.5037 -1.2037
  112MOL0     H15086   4.598   9.138   1.350  0.3066  1.8565 -1.7597
  112MOL0     H15087   4.501   9.005   1.291 -0.9534  1.4939  2.0700
  112MOL0     H15088   4.766   8.922   1.232 -0.6393  0.8484 -0.3825
  112MOL0     H15089   4.804   9.043   1.338 -0.7210  0.1508  2.1810
  112MOL0     H15090   4.793   8.806   1.452 -1.2287 -0.2034  0.8008
  112MOL0     H15091   4.628   8.809   1.419  2.3506 -1.8693 -2.9255
  112MOL0     H15092   4.585   8.990   1.552  0.7829 -0.3026  0.8039
  112MOL0     H15093   4.757   9.027   1.589  1.1724  0.1303  0.2133
  112MOL0     H15094   4.772   8.826   1.718 -0.4443  1.2452  1.7951
  112MOL0     H15095   4.642   8.929   1.774  2.0467  1.0221 -0.5544
  112MOL0     H15096   4.582   8.696   1.796  2.5006  0.3396 -0.2656
  112MOL0     H15097   4.623   8.670   1.629  0.7462 -1.0042  0.6168
  112MOL0     H15098   4.401   8.819   1.764  1.9470  1.9015  0.0054
  112MOL0     H15099   4.443   8.858   1.591  1.8244  2.7233  2.6964
  112MOL0     H15100   4.714   9.348   1.015  0.8909  2.1226 -0.8466
  112MOL0     H15101   4.713   9.455   0.830 -0.4720  0.1612  2.2695
  112MOL0     H15102   4.366   9.782   0.614 -0.1477  0.3428 -0.1803
  112MOL0     H15103   4.405   9.969   0.444 -2.0851 -1.1063 -1.2647
  112MOL0     H15104   4.883  10.108  -0.351  0.1950  0.7667 -0.8455
  112MOL0     H15105   4.904  10.179  -0.115  0.6718  0.8731  0.0959
  112MOL0     H15106   4.718  10.117   0.220 -0.5578 -1.2490  0.8031
  112MOL0     H15107   4.701  10.078   0.465  1.0209  0.5200  2.6261
  112MOL0     H15108   4.921  10.316   0.720  0.6240 -2.7211  0.3726
  112MOL0     H15109   4.854  10.233   0.849  0.6666  1.9700 -0.1009
  112MOL0     H15110   4.751  10.488   0.705 -0.3897  1.7521  2.0296
  112MOL0     H15111   4.821  10.474   0.863 -2.7743 -1.1338  3.0689
  112MOL0     H15112   4.549  10.351   0.775  1.5448 -0.2645 -2.4412
  112MOL0     H15113   4.548  10.506   0.841  1.0005  0.7647  1.3502
  112MOL0     H15114   4.597  10.245   0.980  1.1678 -0.4052 -2.8008
  112MOL0     H15115   4.690  10.378   1.041  0.9431 -0.6152 -1.8223
  112MOL0     H15116   4.294  10.440   1.191 -0.5379 -0.4803  0.2036
  112MOL0     H15117   4.867  10.467   0.540  0.9447 -0.2961 -0.1741
  112MOL0     H15118   4.969  10.581   0.410 -2.3346  0.3304  1.5167
  112MOL0     H15119   5.011  10.524   0.253  0.5913  0.2496  1.0329
  112MOL0     H15120   4.861  10.617   0.283 -0.3070  0.7106  0.2960
  113MOL0     O15121   1.317  10.842   3.368 -0.0730  0.3141  0.1587
  113MOL0     C15122   1.310  10.718   3.376  0.6375 -0.5880 -0.7712
  113MOL0     O15123   1.256  10.630   3.294 -0.0151  0.2434  0.0198
  113MOL0     C15124   1.206  10.690   3.184 -0.0733 -0.6005 -0.0669
  113MOL0     C15125   1.283  10.689   3.065 -0.4058 -0.9602  0.1105
  113MOL0     C15126   1.235  10.739   2.935 -1.2267 -1.2847  0.1299
  113MOL0     C15127   1.104  10.783   2.929 -0.1236  0.3122 -0.0930
  113MOL0     O15128   1.036  10.822   2.814  0.4819  0.6731 -0.4042
  113MOL0     C15129   1.124  10.847   2.704  0.4396 -0.1209 -0.0767
  113MOL0     C15130   1.041  10.915   2.605  0.0383  0.2993  0.5641
  113MOL0     C15131   0.973  10.815   2.512 -0.1603  0.2904  0.3182
  113MOL0     C15132   0.873  10.868   2.402  0.3708  0.4912  0.6511
  113MOL0     C15133   0.918  10.989   2.331 -0.5030 -0.0392 -0.1056
  113MOL0     C15134   0.790  11.049   2.266  0.0224  0.8941  0.3036
  113MOL0     C15135   0.764  11.171   2.357  0.2966  0.1545 -0.4496
  113MOL0     C15136   0.862  11.288   2.329 -0.1582 -0.0021 -0.6644
  113MOL0     N15137   0.806  11.418   2.380  0.3033  0.2319  0.6604
  113MOL0     C15138   0.742  11.441   2.498  0.8812 -0.8018 -0.5247
  113MOL0     C15139   0.676  11.555   2.480 -0.1464  0.0463 -0.1218
  113MOL0     C15140   0.604  11.622   2.589 -0.1134 -0.1149 -0.4045
  113MOL0     C15141   0.450  11.639   2.566 -0.3311 -0.7217 -0.9147
  113MOL0     C15142   0.414  11.753   2.464  1.1811  0.6201  0.4273
  113MOL0     C15143   0.483  11.887   2.486 -0.1290  0.4992 -0.2528
  113MOL0     O15144   0.425  11.951   2.604 -0.5589 -0.4287 -0.0740
  113MOL0     C15145   0.499  12.012   2.702 -0.0444  0.3669  0.0671
  113MOL0     C15146   0.438  12.036   2.828  0.7969 -0.3871  0.7344
  113MOL0     C15147   0.504  12.075   2.946 -0.6783 -0.4036 -0.3080
  113MOL0     C15148   0.639  12.115   2.934 -0.1904 -0.7423 -0.0694
  113MOL0     C15149   0.712  12.151   3.058 -0.0776  0.9289  0.1239
  113MOL0     O15150   0.641  12.161   3.177  0.8887 -0.0306  0.2815
  113MOL0     C15151   0.684  12.251   3.271  0.1573  0.3696  0.5239
  113MOL0     C15152   0.578  12.335   3.313  1.0003 -0.0024  0.1969
  113MOL0     C15153   0.594  12.422   3.418  0.7348  0.6593  0.0515
  113MOL0     C15154   0.716  12.438   3.481  0.4736 -0.6302  0.0103
  113MOL0     O15155   0.714  12.535   3.579  0.7692  0.3541  0.3945
  113MOL0     C15156   0.840  12.599   3.603 -0.0344  0.2315 -0.3439
  113MOL0     C15157   0.821  12.717   3.697  0.8281  0.8777 -0.5464
  113MOL0     C15158   0.951  12.784   3.737 -0.5271 -0.2138  0.1465
  113MOL0     C15159   1.033  12.711   3.831 -0.2802  0.0961  0.2935
  113MOL0     C15160   1.155  12.788   3.894  0.0887 -0.8604 -0.6492
  113MOL0     C15161   1.104  12.882   4.012  0.4620 -0.0457 -0.3817
  113MOL0     C15162   1.224  12.973   4.047 -0.2617 -0.5661 -0.4583
  113MOL0     C15163   1.320  12.900   4.141  0.5838 -0.0948 -1.0264
  113MOL0    Cl15164   1.475  12.991   4.126  0.1568  0.6032 -0.3509
  113MOL0     C15165   0.826  12.361   3.437  0.0815  0.0492 -0.0173
  113MOL0     C15166   0.813  12.269   3.324  0.4525 -0.6247  0.0249
  113MOL0     O15167   0.831  12.179   3.042 -0.8162 -0.1964 -0.8774
  113MOL0     C15168   0.710  12.085   2.814 -0.1897  0.7760  0.2893
  113MOL0     C15169   0.637  12.043   2.706  0.3394  0.8934 -0.0102
  113MOL0     N15170   0.695  11.602   2.355 -0.7139  0.0633  0.2596
  113MOL0     N15171   0.779  11.517   2.288 -0.0598 -0.5913  0.5072
  113MOL0     C15172   1.029  10.774   3.048  0.4981 -0.6397  0.0096
  113MOL0     C15173   1.075  10.731   3.169 -0.5234  0.3998 -0.0124
  113MOL0     C15174   1.374  10.650   3.501  0.5213 -0.1878  0.0011
  113MOL0     C15175   1.371  10.513   3.499 -0.5477  0.9720 -0.3834
  113MOL0     C15176   1.414  10.438   3.603  0.1421 -0.2435 -0.2702
  113MOL0     C15177   1.462  10.500   3.721  0.1069  0.5348 -0.4583
  113MOL0     O15178   1.519  10.432   3.819  1.0038 -0.2071  0.1750
  113MOL0     C15179   1.433  10.418   3.938 -0.2686 -0.5802 -0.5202
  113MOL0     C15180   1.424  10.274   3.991  1.2141 -0.6002 -0.2934
  113MOL0     C15181   1.540  10.176   3.949 -0.5366 -0.2120  0.6089
  113MOL0     C15182   1.546  10.044   4.028 -0.2122 -0.4005 -0.1557
  113MOL0     C15183   1.420   9.983   4.041 -0.0376  0.4833 -0.2924
  113MOL0     C15184   1.315   9.929   4.071 -0.6105  1.2506  0.2429
  113MOL0     C15185   1.470  10.637   3.724 -0.8389  0.1379  0.9305
  113MOL0     C15186   1.421  10.712   3.615 -0.6463 -1.0672  0.1893
  113MOL0     C15187   1.452  10.865   3.619 -0.4467 -0.4723  0.0155
  113MOL0     H15188   1.385  10.660   3.084  0.2307  1.8241  1.3894
  113MOL0     H15189   1.300  10.737   2.848 -1.1264  0.4393  0.1295
  113MOL0     H15190   1.208  10.903   2.746 -0.4630 -0.4346  2.2896
  113MOL0     H15191   1.161  10.756   2.657 -0.2094 -0.3317 -0.2004
  113MOL0     H15192   1.109  10.983   2.552 -1.8411  0.8052 -1.3285
  113MOL0     H15193   0.974  10.985   2.657 -1.3067  0.4535 -1.2511
  113MOL0     H15194   0.920  10.740   2.571 -0.2195  1.2863  1.5565
  113MOL0     H15195   1.051  10.756   2.462 -1.1062  1.7804 -3.1984
  113MOL0     H15196   0.851  10.788   2.331  3.9119  1.1735 -1.5076
  113MOL0     H15197   0.777  10.882   2.452  0.0263 -1.6009  0.6741
  113MOL0     H15198   0.969  11.059   2.398 -0.3262  0.4517 -0.7418
  113MOL0     H15199   0.995  10.964   2.257 -0.6620 -4.4710  0.9162
  113MOL0     H15200   0.791  11.081   2.161  1.6562  1.4786  0.4710
  113MOL0     H15201   0.705  10.980   2.273  0.3925  0.0337 -2.3221
  113MOL0     H15202   0.758  11.143   2.462 -0.1843 -1.7977 -0.9542
  113MOL0     H15203   0.668  11.219   2.334  1.8764  3.5607 -0.4566
  113MOL0     H15204   0.961  11.280   2.376 -0.1220  1.5438 -0.4128
  113MOL0     H15205   0.885  11.292   2.222  0.2598 -0.3624 -0.5919
  113MOL0     H15206   0.744  11.393   2.596  0.5214  1.3237  0.5864
  113MOL0     H15207   0.615  11.567   2.683 -1.2642  3.2050  1.8536
  113MOL0     H15208   0.664  11.713   2.599  4.0474 -2.0552 -4.4394
  113MOL0     H15209   0.420  11.541   2.529  0.3150 -0.6966 -1.5438
  113MOL0     H15210   0.412  11.672   2.663  0.7819  2.6999 -1.4917
  113MOL0     H15211   0.307  11.771   2.454  0.9305  1.2604  3.2682
  113MOL0     H15212   0.439  11.712   2.366  0.5112  3.0730 -0.8445
  113MOL0     H15213   0.464  11.954   2.401 -1.0959  1.4808  0.7081
  113MOL0     H15214   0.593  11.883   2.486 -0.1216  0.6799 -0.0093
  113MOL0     H15215   0.330  12.028   2.830  0.6901  0.2423 -0.8639
  113MOL0     H15216   0.451  12.081   3.041  0.6468  0.6877  0.4003
  113MOL0     H15217   0.477  12.320   3.276  1.9456 -2.8277 -1.5187
  113MOL0     H15218   0.510  12.487   3.439 -1.7859 -2.2330 -0.5411
  113MOL0     H15219   0.917  12.529   3.639 -0.7755 -1.4279 -1.7900
  113MOL0     H15220   0.876  12.646   3.511  0.9402 -0.7921 -0.5219
  113MOL0     H15221   0.751  12.790   3.655  0.3550  2.2890  2.4179
  113MOL0     H15222   0.774  12.685   3.791 -2.2039  3.4287 -1.0045
  113MOL0     H15223   1.014  12.819   3.655  1.4240 -1.1501  1.1765
  113MOL0     H15224   0.925  12.875   3.793  1.6085 -0.2815  1.3265
  113MOL0     H15225   1.069  12.631   3.766  0.4013  1.0906 -0.5995
  113MOL0     H15226   0.983  12.665   3.917  3.3629 -1.6747  1.6890
  113MOL0     H15227   1.191  12.868   3.829 -0.4803  1.9498  2.2537
  113MOL0     H15228   1.228  12.719   3.937  3.2832  3.3854  1.4727
  113MOL0     H15229   1.025  12.947   3.971  0.0321 -0.3764 -0.0849
  113MOL0     H15230   1.061  12.825   4.094 -0.6712 -0.3966 -1.1850
  113MOL0     H15231   1.183  13.067   4.084 -2.9653 -2.0466  0.5877
  113MOL0     H15232   1.279  13.000   3.956  1.7796  1.6419  1.3090
  113MOL0     H15233   1.281  12.911   4.243 -0.5998  1.2357 -1.5873
  113MOL0     H15234   1.329  12.796   4.109 -0.6437  0.1734 -2.3667
  113MOL0     H15235   0.920  12.381   3.487  0.2254 -0.7517  0.0391
  113MOL0     H15236   0.904  12.222   3.290  1.2583  1.9226 -1.6781
  113MOL0     H15237   0.818  12.090   2.810 -0.0281 -1.3164  0.8438
  113MOL0     H15238   0.699  12.017   2.621  0.9052 -1.1117  0.9436
  113MOL0     H15239   0.923  10.796   3.037  0.9363  0.9302 -1.5379
  113MOL0     H15240   1.003  10.706   3.247 -0.9383 -0.4630 -0.6509
  113MOL0     H15241   1.327  10.452   3.420 -0.4994  0.4735 -0.0246
  113MOL0     H15242   1.406  10.330   3.600 -0.9360 -0.2467  1.6197
  113MOL0     H15243   1.331  10.450   3.917 -0.7643 -1.1425  0.9206
  113MOL0     H15244   1.483  10.478   4.015  0.9384 -3.3763  1.0318
  113MOL0     H15245   1.334  10.233   3.942  1.2402 -1.7093  0.5425
  113MOL0     H15246   1.407  10.275   4.099 -2.3591  4.0131 -0.6137
  113MOL0     H15247   1.634  10.230   3.962  1.2495 -2.6916 -1.0379
  113MOL0     H15248   1.533  10.152   3.842  1.7716  0.1409  0.3424
  113MOL0     H15249   1.603   9.966   3.977 -1.9656 -0.6443 -1.8843
  113MOL0     H15250   1.585  10.067   4.127  1.6276  0.4650 -1.0244
  113MOL0     H15251   1.234   9.873   4.115  0.5105 -1.5886 -1.0834
  113MOL0     H15252   1.504  10.691   3.812 -2.1940  1.0422  0.9221
  113MOL0     H15253   1.364  10.930   3.612  0.1432  0.2768 -0.6648
  113MOL0     H15254   1.495  10.887   3.717 -3.3017 -0.4117  1.3535
  113MOL0     H15255   1.521  10.899   3.542  1.0153  1.4608  2.0444
  114MOL0     O15256   7.809   4.460   6.676 -0.2712 -0.0169  0.8545
  114MOL0     C15257   7.789   4.358   6.743  0.5919  0.3583  0.4931
  114MOL0     O15258   7.800   4.233   6.704 -0.3860  1.0759 -0.3414
  114MOL0     C15259   7.882   4.205   6.599  0.2286  0.1361  0.8363
  114MOL0     C15260   7.981   4.106   6.622  1.4528  0.6397  0.4900
  114MOL0     C15261   8.074   4.079   6.521 -0.2707  0.5885  1.2092
  114MOL0     C15262   8.070   4.143   6.390 -0.5450 -0.3144 -0.4383
  114MOL0     O15263   8.159   4.117   6.290  0.5138  0.9145 -0.3039
  114MOL0     C15264   8.211   3.984   6.288  0.3013 -0.4152 -0.0450
  114MOL0     C15265   8.264   3.954   6.150  0.3780 -0.3989 -0.5270
  114MOL0     C15266   8.373   3.851   6.155 -0.2504 -0.4492  0.0327
  114MOL0     C15267   8.321   3.704   6.172 -0.1752  0.8315 -0.3410
  114MOL0     C15268   8.390   3.594   6.073  0.1236  0.0832 -0.5027
  114MOL0     C15269   8.358   3.612   5.927 -0.1421  0.2579  0.0401
  114MOL0     C15270   8.401   3.491   5.847  0.7730  0.0603  0.2055
  114MOL0     C15271   8.342   3.522   5.698  0.8523 -0.5926  0.5110
  114MOL0     N15272   8.367   3.399   5.612 -0.0078  0.0813 -0.6630
  114MOL0     C15273   8.281   3.348   5.524 -0.2525 -1.3169 -0.4949
  114MOL0     C15274   8.327   3.220   5.490  0.5790 -0.6185  0.3698
  114MOL0     C15275   8.256   3.126   5.392  0.2278 -0.3699 -0.8186
  114MOL0     C15276   8.314   3.087   5.251  0.0100 -0.0313  0.7121
  114MOL0     C15277   8.445   3.020   5.256 -0.6562 -0.1835 -0.1065
  114MOL0     C15278   8.481   2.945   5.133  0.4800  0.8761  0.3245
  114MOL0     O15279   8.465   3.029   5.021 -0.3438 -0.7789  0.1608
  114MOL0     C15280   8.509   2.985   4.902  0.6588 -0.1533 -0.4540
  114MOL0     C15281   8.501   3.072   4.796  0.1962  0.0891  0.1129
  114MOL0     C15282   8.542   3.034   4.667 -0.1998 -0.1234 -0.5133
  114MOL0     C15283   8.617   2.915   4.648 -0.6187 -1.1022  1.1370
  114MOL0     C15284   8.676   2.879   4.514 -0.5136 -0.4860 -0.1499
  114MOL0     O15285   8.646   2.972   4.417  0.4361  0.8271  0.2515
  114MOL0     C15286   8.719   2.979   4.296 -0.4835 -1.1719 -0.4047
  114MOL0     C15287   8.851   2.945   4.269  0.9259  0.4742  0.0365
  114MOL0     C15288   8.910   2.985   4.157 -0.0891 -0.4498 -0.0704
  114MOL0     C15289   8.842   3.061   4.060 -0.0563 -0.0811 -0.1506
  114MOL0     O15290   8.924   3.112   3.956  0.2708  0.7685  0.1199
  114MOL0     C15291   8.868   3.208   3.868  0.0629  0.1540 -0.5889
  114MOL0     C15292   8.965   3.296   3.796  0.2255 -0.5791  0.2879
  114MOL0     C15293   9.051   3.233   3.690 -0.5592 -0.7177  0.2116
  114MOL0     C15294   8.968   3.223   3.562 -0.5036 -0.0901  1.0054
  114MOL0     C15295   9.037   3.120   3.469  0.0737 -0.5671 -0.7032
  114MOL0     C15296   8.948   3.097   3.349 -0.3094  0.4764  0.2200
  114MOL0     C15297   8.996   2.982   3.261  0.0570  0.2959 -0.1586
  114MOL0     C15298   8.876   2.935   3.178  0.6817 -0.9499 -0.8218
  114MOL0    Cl15299   8.932   2.815   3.054 -0.2861 -0.5244 -0.1384
  114MOL0     C15300   8.698   3.073   4.066  0.8627  0.5477 -0.7183
  114MOL0     C15301   8.644   3.022   4.183  1.2348 -1.0170  0.2218
  114MOL0     O15302   8.755   2.786   4.503 -0.0654 -0.6458  0.3059
  114MOL0     C15303   8.626   2.829   4.764  0.0300 -0.6607  0.2456
  114MOL0     C15304   8.580   2.868   4.883 -0.6341  1.2281 -0.4647
  114MOL0     N15305   8.447   3.200   5.556 -0.2794 -0.0356  0.1731
  114MOL0     N15306   8.469   3.312   5.632 -0.1635 -0.1260  0.7418
  114MOL0     C15307   7.966   4.234   6.376 -0.5482  0.4444 -0.7848
  114MOL0     C15308   7.875   4.271   6.476  0.4664  0.2890  1.1388
  114MOL0     C15309   7.745   4.363   6.885  0.0506 -0.2924 -0.7065
  114MOL0     C15310   7.812   4.285   6.983 -1.1064 -0.2426 -0.8522
  114MOL0     C15311   7.757   4.270   7.110  0.2111  0.0010 -0.3535
  114MOL0     C15312   7.636   4.329   7.141  0.1202 -0.8080  0.5739
  114MOL0     O15313   7.573   4.331   7.256  0.0319 -0.1134 -0.1576
  114MOL0     C15314   7.617   4.263   7.364 -0.1767  0.5188 -0.1768
  114MOL0     C15315   7.761   4.312   7.419  0.1442 -1.0925 -0.5355
  114MOL0     C15316   7.773   4.471   7.426 -0.3818 -0.0739 -0.3843
  114MOL0     C15317   7.649   4.548   7.462  0.7500  0.3100 -0.1863
  114MOL0     C15318   7.697   4.680   7.508 -0.4117 -0.9180 -0.9846
  114MOL0     C15319   7.740   4.786   7.556 -0.7261 -0.1383 -0.0592
  114MOL0     C15320   7.579   4.418   7.048  0.2103 -0.7569  0.1360
  114MOL0     C15321   7.635   4.436   6.925 -0.7228  0.1071 -0.3293
  114MOL0     C15322   7.587   4.553   6.846  0.5627  0.1554 -0.2799
  114MOL0     H15323   7.978   4.066   6.723 -1.6477  2.1676  1.1318
  114MOL0     H15324   8.168   4.027   6.539  0.1317  0.3368 -1.2781
  114MOL0     H15325   8.289   3.980   6.365 -1.4818  0.4469  1.9124
  114MOL0     H15326   8.145   3.904   6.322 -1.4473  1.2796  0.7489
  114MOL0     H15327   8.311   4.045   6.112 -0.1354 -1.0508 -2.9277
  114MOL0     H15328   8.174   3.924   6.096 -1.0408  1.2571  0.7873
  114MOL0     H15329   8.445   3.878   6.234  0.1517 -1.3302 -0.0242
  114MOL0     H15330   8.437   3.862   6.067 -2.2524  1.4677 -1.2762
  114MOL0     H15331   8.321   3.685   6.280  0.1519  1.4062 -0.2342
  114MOL0     H15332   8.220   3.707   6.131 -0.2250  4.3248 -0.2145
  114MOL0     H15333   8.496   3.581   6.093  0.1127 -0.6100 -0.8766
  114MOL0     H15334   8.344   3.501   6.108 -0.1605  1.2755  2.6442
  114MOL0     H15335   8.252   3.638   5.923 -0.0523  0.8951  1.2986
  114MOL0     H15336   8.413   3.696   5.884  1.8506 -0.1647  1.5867
  114MOL0     H15337   8.351   3.404   5.891 -1.1948  1.8120  1.6454
  114MOL0     H15338   8.509   3.491   5.865  0.4866 -3.5526  2.9959
  114MOL0     H15339   8.234   3.541   5.705  1.0893  2.6480 -2.3300
  114MOL0     H15340   8.382   3.615   5.657 -0.4491 -0.0498  0.4067
  114MOL0     H15341   8.192   3.398   5.488 -0.4429 -2.1058 -1.1487
  114MOL0     H15342   8.241   3.036   5.452  1.5072 -0.9956 -1.3939
  114MOL0     H15343   8.160   3.175   5.374  0.3324 -0.8345 -2.7715
  114MOL0     H15344   8.242   3.023   5.198 -1.3789  2.1616 -0.1648
  114MOL0     H15345   8.324   3.177   5.191 -2.1571 -2.0519 -3.0471
  114MOL0     H15346   8.436   2.950   5.339 -2.1893 -0.5120 -0.5005
  114MOL0     H15347   8.526   3.086   5.288 -0.1339 -2.0347  2.7015
  114MOL0     H15348   8.421   2.854   5.128  0.4730  0.9304 -1.1448
  114MOL0     H15349   8.582   2.908   5.152  0.6433  2.1431  2.1327
  114MOL0     H15350   8.446   3.165   4.797 -1.1372 -0.6690  0.7256
  114MOL0     H15351   8.511   3.099   4.586  0.3598  0.4182 -0.3046
  114MOL0     H15352   8.907   2.906   4.353  2.2192  1.7481 -0.2089
  114MOL0     H15353   9.011   2.958   4.129  0.3081 -0.3876  1.2455
  114MOL0     H15354   8.826   3.137   3.796  4.9639 -3.0653 -0.7707
  114MOL0     H15355   8.795   3.264   3.927 -1.4316 -0.7453 -1.5232
  114MOL0     H15356   8.914   3.377   3.743  1.8109  0.4840  0.3283
  114MOL0     H15357   9.034   3.336   3.871  1.2104  1.9323 -1.8175
  114MOL0     H15358   9.141   3.290   3.666  0.5242 -3.1213 -1.9518
  114MOL0     H15359   9.079   3.132   3.722 -1.0681 -0.7582  0.5395
  114MOL0     H15360   8.958   3.320   3.512 -0.4503 -0.2134  0.7572
  114MOL0     H15361   8.871   3.181   3.590 -0.5697 -0.3353  0.4204
  114MOL0     H15362   9.041   3.027   3.526 -1.0588 -0.0061  0.3409
  114MOL0     H15363   9.132   3.164   3.439  0.0672  0.8641  1.1850
  114MOL0     H15364   8.845   3.073   3.377  0.0356 -2.2596 -0.5905
  114MOL0     H15365   8.931   3.183   3.283 -3.9184  0.6359  1.1217
  114MOL0     H15366   9.033   2.891   3.307 -0.0152  0.7283  0.7804
  114MOL0     H15367   9.087   3.020   3.212  1.0019  0.3542  1.5789
  114MOL0     H15368   8.812   2.879   3.246 -0.8844  1.9438  0.2346
  114MOL0     H15369   8.825   3.019   3.129  2.1180 -1.1220 -2.7664
  114MOL0     H15370   8.649   3.125   3.984  0.3848  2.6342  0.8239
  114MOL0     H15371   8.537   3.007   4.177  1.4585 -2.1837 -2.6125
  114MOL0     H15372   8.680   2.735   4.759  0.0866 -0.7013  1.4361
  114MOL0     H15373   8.590   2.800   4.967 -2.1698  0.0722 -1.1578
  114MOL0     H15374   7.943   4.274   6.277  1.1772 -2.6861 -2.6152
  114MOL0     H15375   7.808   4.351   6.445  0.9008  0.1114 -0.3180
  114MOL0     H15376   7.896   4.220   6.963 -2.1159 -2.8042  2.3740
  114MOL0     H15377   7.821   4.215   7.179  0.3284  2.3463  1.5352
  114MOL0     H15378   7.625   4.157   7.341  0.3882 -0.5883  4.1950
  114MOL0     H15379   7.535   4.272   7.436 -1.0811  3.0246 -1.3945
  114MOL0     H15380   7.851   4.276   7.368  1.3372  3.8118 -2.5095
  114MOL0     H15381   7.765   4.289   7.525  3.8117 -0.3326 -0.3786
  114MOL0     H15382   7.818   4.518   7.338 -0.9638  2.3192  0.5396
  114MOL0     H15383   7.854   4.491   7.498  1.2975 -0.2584 -2.1352
  114MOL0     H15384   7.583   4.559   7.375 -1.2633  0.0068  1.2391
  114MOL0     H15385   7.581   4.505   7.537 -1.2426  0.9102 -1.5526
  114MOL0     H15386   7.785   4.880   7.584  0.1812 -0.1860 -1.2378
  114MOL0     H15387   7.493   4.477   7.079 -0.7214 -1.4070 -1.1140
  114MOL0     H15388   7.501   4.604   6.891 -0.9162  0.7044 -3.4188
  114MOL0     H15389   7.669   4.624   6.836  0.2315  0.6133  0.2237
  114MOL0     H15390   7.554   4.513   6.750  0.8082 -2.0882  0.5057
  115MOL0     O15391   8.479   2.935   1.621  0.1508 -0.2196 -0.2053
  115MOL0     C15392   8.531   2.843   1.679 -0.8442 -0.3335 -0.7557
  115MOL0     O15393   8.508   2.721   1.656  0.1049  0.4453 -0.2658
  115MOL0     C15394   8.380   2.674   1.614 -0.6785  0.5530 -0.3060
  115MOL0     C15395   8.259   2.741   1.623  0.1338 -1.1330  0.1654
  115MOL0     C15396   8.138   2.673   1.603 -0.4131  1.5943 -0.4558
  115MOL0     C15397   8.125   2.535   1.576  0.7590  0.1216  0.1033
  115MOL0     O15398   8.005   2.465   1.563 -0.0236  0.1772 -0.2675
  115MOL0     C15399   7.903   2.494   1.659 -0.4530  0.6875  0.1543
  115MOL0     C15400   7.812   2.370   1.667  0.9613  0.4332  0.8686
  115MOL0     C15401   7.718   2.355   1.550 -0.6136  0.0770 -0.0111
  115MOL0     C15402   7.787   2.325   1.414 -0.4223 -0.7371 -0.4380
  115MOL0     C15403   7.665   2.288   1.318 -1.3098  0.1393  0.3647
  115MOL0     C15404   7.707   2.292   1.155 -0.1519 -0.0677 -0.9294
  115MOL0     C15405   7.602   2.223   1.070 -0.0221 -0.2365 -0.1394
  115MOL0     C15406   7.652   2.177   0.936  0.1824 -0.2070 -0.6845
  115MOL0     N15407   7.704   2.294   0.858  0.4305 -0.0608 -0.1039
  115MOL0     C15408   7.630   2.404   0.817 -0.6801 -0.2916 -0.0612
  115MOL0     C15409   7.713   2.467   0.733  0.3714 -0.7549 -0.6892
  115MOL0     C15410   7.660   2.584   0.645  0.2412  0.0313  0.4835
  115MOL0     C15411   7.761   2.603   0.538  0.0374  0.3872  0.3429
  115MOL0     C15412   7.713   2.720   0.444 -0.1120  0.6977 -0.6364
  115MOL0     C15413   7.814   2.751   0.337 -0.4288  1.0064 -0.1204
  115MOL0     O15414   7.829   2.656   0.232 -0.1824  0.6674  0.3376
  115MOL0     C15415   7.947   2.662   0.152 -0.2023  0.7410 -0.0354
  115MOL0     C15416   8.017   2.549   0.124  0.0293  0.6970 -0.0810
  115MOL0     C15417   8.119   2.553   0.033  0.6735  1.2156  0.8323
  115MOL0     C15418   8.165   2.681  -0.019  0.3806  0.1938  0.7657
  115MOL0     C15419   8.287   2.684  -0.102  0.4269  0.2488  0.4533
  115MOL0     O15420   8.291   2.799  -0.176 -0.6090  0.2017 -0.1092
  115MOL0     C15421   8.413   2.845  -0.224 -0.3525 -0.1677  0.1559
  115MOL0     C15422   8.432   2.865  -0.365  0.2859  0.2187 -0.4078
  115MOL0     C15423   8.561   2.905  -0.405 -0.1225  0.3448 -0.9355
  115MOL0     C15424   8.665   2.928  -0.320 -0.3017 -0.5715  0.5236
  115MOL0     O15425   8.783   2.986  -0.359  0.4577  0.3635  0.3233
  115MOL0     C15426   8.795   3.048  -0.490  0.4238  0.1766 -0.0802
  115MOL0     C15427   8.858   2.961  -0.593 -0.2018  0.4584 -0.0871
  115MOL0     C15428   8.993   2.899  -0.559 -0.3358 -0.6124 -0.7218
  115MOL0     C15429   9.019   2.776  -0.647  0.5807 -0.4409 -0.2556
  115MOL0     C15430   8.992   2.635  -0.585  0.2966  0.6189 -0.0920
  115MOL0     C15431   9.106   2.579  -0.505  0.1059  0.3935 -0.1649
  115MOL0     C15432   9.076   2.435  -0.475 -0.3801 -0.2591 -0.5386
  115MOL0     C15433   9.175   2.368  -0.376  0.5208 -0.1806  0.1228
  115MOL0    Cl15434   9.152   2.436  -0.193 -0.1971  0.2770  0.6205
  115MOL0     C15435   8.641   2.902  -0.188  0.4501 -0.3961  0.8803
  115MOL0     C15436   8.513   2.865  -0.138 -0.6306 -0.3708 -0.2910
  115MOL0     O15437   8.372   2.592  -0.096 -0.6051  0.1453 -0.1633
  115MOL0     C15438   8.100   2.792   0.029 -0.0458 -0.7465  0.9073
  115MOL0     C15439   7.994   2.786   0.114 -0.2882 -0.4427  0.7347
  115MOL0     N15440   7.841   2.407   0.745 -0.2772 -0.0094  0.0529
  115MOL0     N15441   7.836   2.310   0.820  0.3215  0.0888  0.1901
  115MOL0     C15442   8.247   2.468   1.548  0.6641 -1.1707 -1.1484
  115MOL0     C15443   8.370   2.539   1.581 -0.5635 -0.4371 -0.5261
  115MOL0     C15444   8.651   2.879   1.757 -0.2435  0.0437  0.4453
  115MOL0     C15445   8.687   3.014   1.774  0.9922 -0.5893 -0.0060
  115MOL0     C15446   8.789   3.060   1.868  0.5512 -0.2542  0.3397
  115MOL0     C15447   8.851   2.962   1.951  0.2443 -0.1767 -0.3309
  115MOL0     O15448   8.928   3.002   2.057  0.3217 -0.0647  0.8118
  115MOL0     C15449   9.049   2.926   2.079  0.5534  0.5461  0.8626
  115MOL0     C15450   9.163   3.017   2.118 -0.3131  0.4231  0.8450
  115MOL0     C15451   9.133   3.125   2.223  0.7133 -0.1170  0.2716
  115MOL0     C15452   9.262   3.204   2.272 -0.6528  0.0370  0.0728
  115MOL0     C15453   9.375   3.123   2.321  0.5794  0.6843 -0.2643
  115MOL0     C15454   9.482   3.085   2.350  0.4415  0.7554 -0.2117
  115MOL0     C15455   8.821   2.830   1.924 -0.2762  1.1435 -0.2789
  115MOL0     C15456   8.720   2.788   1.836 -0.2101  0.5024  0.0591
  115MOL0     C15457   8.704   2.636   1.837  1.5567  0.6554  0.4581
  115MOL0     H15458   8.262   2.848   1.640  1.2350 -1.6375  3.8567
  115MOL0     H15459   8.055   2.741   1.621 -1.6203  0.4807 -1.6586
  115MOL0     H15460   7.949   2.503   1.758  0.3117  1.5356 -0.2553
  115MOL0     H15461   7.860   2.592   1.636 -2.6078 -0.0207  0.9018
  115MOL0     H15462   7.743   2.376   1.752 -1.9920 -1.8307 -1.1292
  115MOL0     H15463   7.871   2.279   1.684 -1.3608 -1.6932 -1.5371
  115MOL0     H15464   7.658   2.445   1.539  0.1456  0.7966  1.4510
  115MOL0     H15465   7.646   2.275   1.568  0.7806 -1.1717  0.3065
  115MOL0     H15466   7.840   2.415   1.384 -1.3744  1.3821  3.4623
  115MOL0     H15467   7.857   2.241   1.425 -0.1197 -1.0900 -4.0262
  115MOL0     H15468   7.629   2.189   1.345 -5.0565  1.0422 -0.6823
  115MOL0     H15469   7.580   2.353   1.342 -0.8994  0.6180  0.5557
  115MOL0     H15470   7.725   2.393   1.119  1.9313 -0.1692 -0.3159
  115MOL0     H15471   7.803   2.242   1.141 -1.0557 -1.9051 -0.9028
  115MOL0     H15472   7.521   2.292   1.045  0.5575 -0.7284 -4.1041
  115MOL0     H15473   7.568   2.136   1.126  3.1540 -1.3704  0.2718
  115MOL0     H15474   7.722   2.094   0.943 -1.1620 -1.5408 -2.2071
  115MOL0     H15475   7.556   2.151   0.889 -2.6092  2.2542  3.0151
  115MOL0     H15476   7.526   2.425   0.841 -0.5562  0.6814 -0.3181
  115MOL0     H15477   7.562   2.555   0.605 -0.3566  0.0362  1.9061
  115MOL0     H15478   7.649   2.675   0.705  1.0182 -0.1167  0.8614
  115MOL0     H15479   7.860   2.629   0.576 -1.2746  1.1893  3.5028
  115MOL0     H15480   7.768   2.506   0.486  1.3346  0.6120  0.0641
  115MOL0     H15481   7.699   2.800   0.517 -1.3445  1.4337 -1.6424
  115MOL0     H15482   7.617   2.713   0.392  1.1081  0.4221 -2.9643
  115MOL0     H15483   7.912   2.764   0.385 -0.7458 -1.3341  1.2808
  115MOL0     H15484   7.781   2.848   0.298 -0.3964  1.3213  0.6135
  115MOL0     H15485   7.991   2.456   0.174 -1.4075  0.8022 -0.6005
  115MOL0     H15486   8.175   2.463   0.009 -0.5454  0.9575 -1.3841
  115MOL0     H15487   8.366   2.862  -0.451  1.1559  1.9479 -1.1945
  115MOL0     H15488   8.564   2.910  -0.513 -4.0109 -0.5910 -1.2382
  115MOL0     H15489   8.697   3.080  -0.528 -0.4943 -0.8266  1.3603
  115MOL0     H15490   8.857   3.138  -0.485  0.5528  0.2729 -2.1717
  115MOL0     H15491   8.802   2.867  -0.598  2.5059 -1.2159 -1.1749
  115MOL0     H15492   8.852   3.014  -0.689  0.6582  1.5808  0.4600
  115MOL0     H15493   9.071   2.972  -0.579 -1.3811  0.3812 -1.3190
  115MOL0     H15494   9.000   2.866  -0.454  1.0695  2.6338  0.3164
  115MOL0     H15495   9.126   2.772  -0.671  0.0335  0.8068 -3.4203
  115MOL0     H15496   8.964   2.783  -0.741  1.2589 -4.3339 -1.0892
  115MOL0     H15497   8.964   2.566  -0.664 -0.8987 -0.0894  0.9140
  115MOL0     H15498   8.909   2.644  -0.514  0.5036  0.0390  0.2270
  115MOL0     H15499   9.196   2.588  -0.567  0.8271  0.3520  0.8556
  115MOL0     H15500   9.119   2.625  -0.407  0.2251 -0.1687  0.0819
  115MOL0     H15501   9.064   2.372  -0.563 -1.8995 -1.5914  0.5613
  115MOL0     H15502   8.978   2.439  -0.427  0.9419 -0.2766  2.3685
  115MOL0     H15503   9.164   2.259  -0.373 -2.2745 -0.0077 -0.5512
  115MOL0     H15504   9.276   2.383  -0.416 -0.8890 -0.1378 -3.9522
  115MOL0     H15505   8.728   2.914  -0.123  2.1864 -3.0909 -0.7509
  115MOL0     H15506   8.503   2.846  -0.032 -2.3954  2.5099  0.1549
  115MOL0     H15507   8.134   2.893   0.007  1.3391 -0.7276  2.8584
  115MOL0     H15508   7.956   2.886   0.132  0.6811  0.6993 -2.8615
  115MOL0     H15509   8.259   2.364   1.520  6.9208 -0.3944 -2.8267
  115MOL0     H15510   8.458   2.477   1.569 -0.6261 -0.0652 -3.7907
  115MOL0     H15511   8.642   3.085   1.705  4.1939 -0.2245 -1.9030
  115MOL0     H15512   8.817   3.164   1.876  4.4311 -0.9161 -2.1985
  115MOL0     H15513   9.078   2.869   1.989 -2.2632  1.4445 -0.7382
  115MOL0     H15514   9.022   2.863   2.164  0.0364  3.1955  2.7512
  115MOL0     H15515   9.184   3.071   2.026 -0.4482 -2.2528 -0.8835
  115MOL0     H15516   9.257   2.968   2.146  0.0136  0.9138  0.6044
  115MOL0     H15517   9.079   3.078   2.306  0.3836  1.2163  0.8366
  115MOL0     H15518   9.065   3.193   2.171 -0.6840 -1.6599  0.0056
  115MOL0     H15519   9.309   3.260   2.191 -1.8148  1.1401  0.1310
  115MOL0     H15520   9.246   3.285   2.344  0.7466  0.7551 -0.3808
  115MOL0     H15521   9.578   3.078   2.396  0.5722  3.3205  0.0466
  115MOL0     H15522   8.870   2.753   1.984 -0.6814  2.5656  1.9768
  115MOL0     H15523   8.763   2.587   1.759 -1.2485 -0.7628 -0.9577
  115MOL0     H15524   8.741   2.585   1.926  0.1721 -0.2534  0.5515
  115MOL0     H15525   8.599   2.607   1.824  1.7174  1.3922 -4.3295
  116MOL0     O15526   8.151  11.431   4.325  0.0106  0.7671 -0.5180
  116MOL0     C15527   8.244  11.459   4.249 -1.1475  0.1999  1.0339
  116MOL0     O15528   8.369  11.405   4.262 -0.2832 -0.5294  0.4597
  116MOL0     C15529   8.384  11.278   4.314 -0.4138  0.2177 -1.1072
  116MOL0     C15530   8.322  11.168   4.243  0.7709 -0.3058 -0.1228
  116MOL0     C15531   8.337  11.041   4.294  0.4541  0.1023 -0.5920
  116MOL0     C15532   8.408  11.022   4.422  0.2480  0.3769  0.2084
  116MOL0     O15533   8.461  10.906   4.463  0.4774  0.3503 -0.3078
  116MOL0     C15534   8.398  10.785   4.414  0.0942  0.3373 -0.0871
  116MOL0     C15535   8.442  10.662   4.492 -0.8390 -0.0785 -0.6909
  116MOL0     C15536   8.348  10.538   4.478 -0.2137 -0.0048 -0.5281
  116MOL0     C15537   8.434  10.428   4.408 -0.4358  0.1660  0.2870
  116MOL0     C15538   8.384  10.287   4.426  0.0302  0.4189  0.1347
  116MOL0     C15539   8.480  10.196   4.520  0.0614  0.5435  0.5663
  116MOL0     C15540   8.460  10.053   4.501 -0.4103  0.7461  1.2161
  116MOL0     C15541   8.559   9.978   4.596 -0.2435 -0.4107 -1.0234
  116MOL0     N15542   8.520   9.837   4.610 -0.2795 -0.1617 -0.6951
  116MOL0     C15543   8.551   9.751   4.507 -0.3875  0.1358  0.1274
  116MOL0     C15544   8.504   9.634   4.556 -0.1699  0.4618  0.1829
  116MOL0     C15545   8.521   9.505   4.484 -0.9052 -0.8291  0.3997
  116MOL0     C15546   8.665   9.435   4.510  0.0889 -0.4439  0.1399
  116MOL0     C15547   8.665   9.287   4.451  1.3892  0.4996 -0.2579
  116MOL0     C15548   8.548   9.198   4.494  0.3851  0.1573 -0.5415
  116MOL0     O15549   8.522   9.181   4.633 -0.7999 -0.0263  0.1177
  116MOL0     C15550   8.635   9.145   4.701  1.3213  0.3761 -0.2264
  116MOL0     C15551   8.696   9.234   4.796 -1.0283  0.2731  0.5038
  116MOL0     C15552   8.799   9.174   4.870  0.1941 -0.2636 -0.4460
  116MOL0     C15553   8.847   9.044   4.862  0.0731  0.4420  0.8969
  116MOL0     C15554   8.954   8.996   4.945 -0.8359  0.4527 -0.7334
  116MOL0     O15555   8.980   9.064   5.062  0.4704 -0.0749 -0.3676
  116MOL0     C15556   9.058   9.018   5.166 -0.1208  1.2939 -0.1582
  116MOL0     C15557   9.060   8.882   5.199 -0.6901  0.5780  0.6384
  116MOL0     C15558   9.144   8.829   5.303  0.5420 -0.8901  0.4222
  116MOL0     C15559   9.215   8.924   5.382  0.0599 -0.0156  0.5778
  116MOL0     O15560   9.295   8.868   5.472 -0.4487 -0.5279 -0.8062
  116MOL0     C15561   9.402   8.947   5.534 -0.5599  0.4991  0.2646
  116MOL0     C15562   9.482   8.870   5.637  0.6085  0.5376  0.0702
  116MOL0     C15563   9.528   8.733   5.594 -0.7283  0.6735 -0.7392
  116MOL0     C15564   9.611   8.734   5.465 -0.5128 -0.6336  0.4441
  116MOL0     C15565   9.736   8.809   5.482  0.1375 -0.2736  0.5443
  116MOL0     C15566   9.841   8.777   5.367  0.2543 -0.8811 -0.2149
  116MOL0     C15567   9.885   8.916   5.306  0.6414  0.1880  0.1442
  116MOL0     C15568  10.010   8.910   5.215 -0.6789  0.6989 -1.4310
  116MOL0    Cl15569  10.157   8.903   5.336  0.1295 -0.3621  0.0801
  116MOL0     C15570   9.219   9.056   5.350  0.2992  0.6393 -0.5911
  116MOL0     C15571   9.141   9.099   5.247  0.1351 -0.3986  0.3800
  116MOL0     O15572   9.020   8.899   4.909  0.8945 -0.3079 -0.7977
  116MOL0     C15573   8.796   8.970   4.763  0.8008 -0.4435  0.6880
  116MOL0     C15574   8.687   9.020   4.690 -0.8284 -0.1112  0.6623
  116MOL0     N15575   8.447   9.642   4.683  0.3237 -0.0589 -0.0337
  116MOL0     N15576   8.447   9.769   4.708 -0.2292 -0.0577  0.5055
  116MOL0     C15577   8.474  11.128   4.486  0.0073 -0.7469  0.0386
  116MOL0     C15578   8.447  11.260   4.435  0.1876  0.4845 -0.8086
  116MOL0     C15579   8.229  11.559   4.138  0.5048 -0.5451  0.4205
  116MOL0     C15580   8.343  11.602   4.080 -0.5670 -0.1804 -0.1393
  116MOL0     C15581   8.345  11.676   3.966  0.6183  0.5382 -0.3427
  116MOL0     C15582   8.224  11.713   3.901  0.9964 -0.2414  0.3210
  116MOL0     O15583   8.219  11.795   3.797  0.1104 -0.1869  0.6221
  116MOL0     C15584   8.329  11.799   3.709  0.4482  0.2690  0.2865
  116MOL0     C15585   8.367  11.662   3.647  0.0745  0.3204  0.6448
  116MOL0     C15586   8.445  11.685   3.512 -0.8398 -0.5213 -0.3628
  116MOL0     C15587   8.595  11.714   3.525 -0.2407  0.7924 -0.5685
  116MOL0     C15588   8.625  11.850   3.576  0.7355  0.0354  0.0093
  116MOL0     C15589   8.635  11.969   3.616  0.8155 -0.8357  0.1163
  116MOL0     C15590   8.106  11.682   3.964  0.1777  0.8896  0.3654
  116MOL0     C15591   8.107  11.609   4.086 -1.1817  0.2045  0.5951
  116MOL0     C15592   7.973  11.588   4.152 -0.8300 -0.0468  0.8868
  116MOL0     H15593   8.261  11.179   4.154 -0.9721  1.2326  1.1618
  116MOL0     H15594   8.321  10.951   4.236 -0.6221  0.3943 -0.7649
  116MOL0     H15595   8.290  10.783   4.434 -0.0119 -6.0706  0.7968
  116MOL0     H15596   8.414  10.779   4.306 -2.6572  0.2059 -0.5672
  116MOL0     H15597   8.449  10.691   4.597 -0.0049  0.2837 -0.8400
  116MOL0     H15598   8.546  10.645   4.460 -0.5279  1.0265 -0.3253
  116MOL0     H15599   8.269  10.561   4.406 -0.4663 -1.0956 -0.6185
  116MOL0     H15600   8.293  10.499   4.565  2.5522  0.1436  1.4139
  116MOL0     H15601   8.452  10.460   4.305  3.4364  0.6095  0.9512
  116MOL0     H15602   8.534  10.432   4.452  0.1230 -1.8140 -0.7102
  116MOL0     H15603   8.282  10.291   4.464  0.2478  3.0992  0.5986
  116MOL0     H15604   8.388  10.251   4.323 -1.1204 -0.6394  0.4443
  116MOL0     H15605   8.580  10.227   4.489 -0.2525  1.6394  0.6063
  116MOL0     H15606   8.464  10.228   4.624 -4.9041 -0.5234  0.3813
  116MOL0     H15607   8.471  10.021   4.397 -0.1268 -0.4197  1.5782
  116MOL0     H15608   8.362  10.026   4.540  0.0058 -1.8062  0.7243
  116MOL0     H15609   8.663   9.972   4.562 -0.8983 -0.2370 -3.2287
  116MOL0     H15610   8.560  10.026   4.694 -0.0614 -2.0409 -0.2040
  116MOL0     H15611   8.611   9.781   4.422 -3.5014  0.7135 -2.0246
  116MOL0     H15612   8.440   9.438   4.516 -0.2009 -2.4513 -1.0814
  116MOL0     H15613   8.511   9.514   4.376  0.1983 -1.4249  0.2384
  116MOL0     H15614   8.751   9.479   4.460  1.6282 -1.8381  1.4747
  116MOL0     H15615   8.667   9.452   4.618 -6.2425  3.3656  0.1761
  116MOL0     H15616   8.758   9.237   4.483  1.2778 -1.4304 -2.6226
  116MOL0     H15617   8.670   9.286   4.342 -0.3794  0.0496 -0.3540
  116MOL0     H15618   8.560   9.103   4.442 -0.0307  1.0455 -2.3728
  116MOL0     H15619   8.460   9.241   4.444 -0.7043 -1.4938 -0.1120
  116MOL0     H15620   8.666   9.338   4.803  2.5995  1.5256 -0.2382
  116MOL0     H15621   8.838   9.235   4.952  0.1108 -1.6696  0.6768
  116MOL0     H15622   8.993   8.809   5.154 -1.7219 -1.9634  5.5604
  116MOL0     H15623   9.150   8.721   5.313  1.8502 -1.3566 -3.5392
  116MOL0     H15624   9.477   8.977   5.460 -2.1370 -0.1260 -1.6786
  116MOL0     H15625   9.364   9.031   5.592  1.7402  0.4024  2.0837
  116MOL0     H15626   9.572   8.925   5.667  1.7715 -0.4530 -1.3800
  116MOL0     H15627   9.416   8.856   5.723 -0.6051  2.6244 -0.4531
  116MOL0     H15628   9.578   8.689   5.680  2.3076  2.1801 -1.5955
  116MOL0     H15629   9.449   8.659   5.579  1.3903 -1.2307 -3.5897
  116MOL0     H15630   9.553   8.759   5.376  1.4705 -1.3222 -1.1360
  116MOL0     H15631   9.638   8.631   5.441  0.6021 -0.2111 -0.2233
  116MOL0     H15632   9.780   8.790   5.580  0.3143  0.6446  0.6547
  116MOL0     H15633   9.722   8.918   5.479  1.4256 -0.0473  1.6975
  116MOL0     H15634   9.930   8.728   5.408  0.3425 -1.8769 -1.5151
  116MOL0     H15635   9.803   8.705   5.293  2.6198 -2.3832 -0.0566
  116MOL0     H15636   9.900   8.991   5.384  3.2512 -1.6192  1.5243
  116MOL0     H15637   9.797   8.938   5.244 -1.4014 -2.7841  1.7304
  116MOL0     H15638  10.005   8.823   5.149  1.6534  1.7029 -3.0570
  116MOL0     H15639  10.018   8.998   5.150 -1.8027  0.6304 -1.6864
  116MOL0     H15640   9.284   9.127   5.400  4.8739 -4.8114  2.3536
  116MOL0     H15641   9.142   9.206   5.233  0.4513 -0.3955  0.4281
  116MOL0     H15642   8.828   8.867   4.759 -0.8428 -1.0445  1.7389
  116MOL0     H15643   8.643   8.969   4.604  3.0860 -0.2495 -1.4895
  116MOL0     H15644   8.550  11.118   4.562  1.1441 -0.4495 -1.0185
  116MOL0     H15645   8.511  11.338   4.476 -0.8344 -0.3328  2.6794
  116MOL0     H15646   8.441  11.575   4.117  0.1578 -2.0992 -3.0554
  116MOL0     H15647   8.440  11.706   3.921  0.9697  1.9652  1.2587
  116MOL0     H15648   8.409  11.858   3.754  0.5895  0.1580  0.1824
  116MOL0     H15649   8.299  11.863   3.626 -0.6740  2.9954  2.6393
  116MOL0     H15650   8.279  11.609   3.609  1.3255 -1.8545  0.6439
  116MOL0     H15651   8.432  11.601   3.711  1.7149  1.0521 -0.2599
  116MOL0     H15652   8.394  11.765   3.456 -1.1438  2.8028  4.0997
  116MOL0     H15653   8.442  11.590   3.457  1.6836 -2.5152  2.6177
  116MOL0     H15654   8.627  11.645   3.603 -0.8151 -0.5192 -1.4596
  116MOL0     H15655   8.658  11.693   3.438  0.7660 -0.9593  0.5339
  116MOL0     H15656   8.628  12.073   3.641  2.0800 -0.1053 -2.2506
  116MOL0     H15657   8.010  11.697   3.916  0.2423 -2.6418 -1.1821
  116MOL0     H15658   7.933  11.489   4.128 -1.8387  0.1865  1.5563
  116MOL0     H15659   7.974  11.598   4.261  1.2431 -0.8945  1.0054
  116MOL0     H15660   7.900  11.655   4.107 -1.5752 -1.1628  0.4080
  117MOL0     O15661   6.398   2.797   5.504 -0.0662  0.4581  0.1512
  117MOL0     C15662   6.318   2.837   5.421 -0.1391  0.1087  0.5054
  117MOL0     O15663   6.177   2.843   5.451 -0.4767 -0.8186 -0.3261
  117MOL0     C15664   6.143   2.753   5.547 -0.5941 -0.7190  0.1074
  117MOL0     C15665   6.144   2.617   5.523 -1.0000 -1.1379  0.1436
  117MOL0     C15666   6.099   2.522   5.614 -0.2735  0.8612  0.1986
  117MOL0     C15667   6.042   2.558   5.739  0.7032  0.2370  0.0520
  117MOL0     O15668   6.009   2.457   5.819 -0.1415 -0.1216 -0.1305
  117MOL0     C15669   5.880   2.480   5.876  0.7867 -0.0217  0.5234
  117MOL0     C15670   5.830   2.365   5.969  0.5552 -0.3735  0.5928
  117MOL0     C15671   5.730   2.417   6.073  0.5127  0.0636 -0.1723
  117MOL0     C15672   5.589   2.438   6.024 -0.0998 -0.4178 -0.8691
  117MOL0     C15673   5.515   2.515   6.137 -0.0323  0.3842 -0.0586
  117MOL0     C15674   5.368   2.527   6.112  0.3049  0.2422  0.0304
  117MOL0     C15675   5.291   2.604   6.223 -0.7766  0.4558 -0.2083
  117MOL0     C15676   5.174   2.686   6.168 -0.0470 -0.0713  0.3977
  117MOL0     N15677   5.200   2.800   6.073 -0.3309  0.3674 -0.2143
  117MOL0     C15678   5.319   2.873   6.052  0.2150 -0.1666 -0.0111
  117MOL0     C15679   5.294   2.956   5.949 -0.1302  1.0265  0.6014
  117MOL0     C15680   5.395   3.054   5.901  0.0659 -0.6082 -0.9483
  117MOL0     C15681   5.484   2.999   5.792 -0.6892  0.5102  0.0219
  117MOL0     C15682   5.423   3.005   5.651  0.0657 -0.5961 -0.5977
  117MOL0     C15683   5.503   3.093   5.554  1.1561 -0.2013 -0.4121
  117MOL0     O15684   5.621   3.025   5.516  0.1922  0.6148 -0.4876
  117MOL0     C15685   5.685   3.104   5.425  0.1755 -0.5788  0.4543
  117MOL0     C15686   5.690   3.245   5.418 -1.1321 -0.3311 -0.2094
  117MOL0     C15687   5.766   3.306   5.313  0.8737 -1.0592 -0.1919
  117MOL0     C15688   5.829   3.229   5.220 -0.5097  0.6439  0.5985
  117MOL0     C15689   5.895   3.292   5.106  0.5373  0.9703  0.3713
  117MOL0     O15690   5.992   3.229   5.043  0.4454  0.1747  0.2114
  117MOL0     C15691   6.082   3.296   4.954 -0.6553  0.2957 -0.2117
  117MOL0     C15692   6.164   3.395   5.008 -0.1714 -0.0277 -0.8970
  117MOL0     C15693   6.263   3.463   4.930  0.2941 -0.3480 -0.0875
  117MOL0     C15694   6.277   3.418   4.800  0.2173 -0.2497 -0.3047
  117MOL0     O15695   6.373   3.479   4.727  0.2458  0.2342  0.4549
  117MOL0     C15696   6.319   3.544   4.614  0.0906  0.1106  0.1214
  117MOL0     C15697   6.439   3.627   4.553  0.8138  0.4120  0.5264
  117MOL0     C15698   6.541   3.533   4.497 -0.7603 -0.2423  0.7512
  117MOL0     C15699   6.670   3.621   4.472  0.2477 -0.0792  0.3764
  117MOL0     C15700   6.760   3.559   4.367 -0.3375 -0.6551  0.2662
  117MOL0     C15701   6.834   3.426   4.396  0.8750  0.2681 -1.1635
  117MOL0     C15702   6.838   3.328   4.282  0.3816 -0.7848 -0.8263
  117MOL0     C15703   6.903   3.386   4.155 -0.0219  1.5966 -0.4988
  117MOL0    Cl15704   6.809   3.500   4.057  0.6564 -0.1329 -0.0515
  117MOL0     C15705   6.203   3.316   4.745 -0.3562 -0.1100 -0.6876
  117MOL0     C15706   6.104   3.255   4.824  0.4468  0.2695 -0.0615
  117MOL0     O15707   5.853   3.408   5.080  0.4282  0.1547  0.7052
  117MOL0     C15708   5.836   3.092   5.237 -0.8815 -0.2632 -1.0875
  117MOL0     C15709   5.772   3.035   5.345  0.0686  0.1075  0.0222
  117MOL0     N15710   5.154   2.952   5.917  0.1122 -0.9978 -0.4051
  117MOL0     N15711   5.105   2.844   5.984 -0.6027  0.3235  0.4961
  117MOL0     C15712   6.046   2.705   5.770  0.6463 -0.6021  0.3224
  117MOL0     C15713   6.097   2.793   5.671 -0.4393 -0.0158 -0.1998
  117MOL0     C15714   6.364   2.905   5.301  0.0523 -0.3175  0.2684
  117MOL0     C15715   6.274   2.993   5.227 -1.1749  1.2634 -0.7591
  117MOL0     C15716   6.323   3.062   5.117 -0.5288  0.0534  0.3306
  117MOL0     C15717   6.451   3.033   5.061 -0.2140  0.2354  0.4807
  117MOL0     O15718   6.483   3.096   4.945 -0.1490 -0.3190 -0.1014
  117MOL0     C15719   6.622   3.138   4.933  0.4967  0.7078 -0.3484
  117MOL0     C15720   6.621   3.259   4.837 -0.3649 -1.1556  0.3872
  117MOL0     C15721   6.761   3.305   4.799  0.9025  0.1643 -0.0523
  117MOL0     C15722   6.839   3.191   4.733 -0.3108  0.5981  0.2306
  117MOL0     C15723   6.956   3.232   4.666  0.0867  0.2199 -0.0974
  117MOL0     C15724   7.057   3.280   4.608  0.2487  0.8832  0.4840
  117MOL0     C15725   6.531   2.946   5.129 -0.1425  0.4863 -0.5530
  117MOL0     C15726   6.491   2.878   5.246  0.5906  0.0662 -0.0891
  117MOL0     C15727   6.593   2.789   5.304  0.4695 -0.2532 -0.3093
  117MOL0     H15728   6.193   2.592   5.430 -0.3945  0.5052 -0.0143
  117MOL0     H15729   6.080   2.419   5.587  1.4319 -0.1397  2.4291
  117MOL0     H15730   5.878   2.579   5.924 -0.1229  0.9203 -1.3660
  117MOL0     H15731   5.795   2.473   5.808 -2.6542 -2.0643  4.5171
  117MOL0     H15732   5.921   2.339   6.024  1.4787  1.2501 -0.0818
  117MOL0     H15733   5.797   2.281   5.908  1.3954  0.6462 -1.3624
  117MOL0     H15734   5.760   2.507   6.127 -2.2398  0.8190  0.2927
  117MOL0     H15735   5.728   2.332   6.142  0.6963 -2.0509 -2.6317
  117MOL0     H15736   5.599   2.507   5.940  1.9443  0.5668  0.0960
  117MOL0     H15737   5.550   2.342   5.992 -1.7811  0.6716 -2.2946
  117MOL0     H15738   5.540   2.459   6.228  4.8821  2.5698  0.2704
  117MOL0     H15739   5.552   2.618   6.146 -2.8021  1.5715 -1.2608
  117MOL0     H15740   5.367   2.582   6.017  1.7630 -3.0639 -2.0737
  117MOL0     H15741   5.320   2.430   6.100  0.4767  0.1739 -0.1059
  117MOL0     H15742   5.356   2.681   6.265 -1.3797  1.9844 -1.9384
  117MOL0     H15743   5.266   2.533   6.303  0.6657  0.9931  0.7691
  117MOL0     H15744   5.102   2.619   6.121  1.2848 -2.0624  1.0309
  117MOL0     H15745   5.132   2.727   6.260  0.4100 -0.2980  0.7135
  117MOL0     H15746   5.415   2.870   6.103  1.1168  4.7312 -1.0001
  117MOL0     H15747   5.336   3.141   5.872  0.4082  0.9272  2.5253
  117MOL0     H15748   5.459   3.079   5.986  0.7456 -2.3082 -0.9128
  117MOL0     H15749   5.576   3.056   5.803 -1.6787  2.3676 -0.8842
  117MOL0     H15750   5.500   2.894   5.820  2.0814  1.6532  3.4370
  117MOL0     H15751   5.324   3.052   5.658  0.0864 -0.3971 -1.5358
  117MOL0     H15752   5.410   2.906   5.607  0.2344  0.9324 -4.4927
  117MOL0     H15753   5.511   3.191   5.602  1.4590  1.9776 -4.4995
  117MOL0     H15754   5.453   3.101   5.457  4.1323 -2.7001 -2.3713
  117MOL0     H15755   5.650   3.298   5.504  1.1175 -0.4906  1.0128
  117MOL0     H15756   5.757   3.414   5.314 -0.1238 -1.1321  0.9718
  117MOL0     H15757   6.140   3.421   5.111  1.4579  0.6470 -0.6625
  117MOL0     H15758   6.308   3.550   4.977 -0.8167  1.0955 -1.5664
  117MOL0     H15759   6.288   3.478   4.532 -1.3810  1.5357 -0.5262
  117MOL0     H15760   6.238   3.610   4.645  2.8194  3.1320  1.3984
  117MOL0     H15761   6.401   3.706   4.488 -0.1151 -1.8315 -1.8154
  117MOL0     H15762   6.481   3.676   4.641 -0.7905 -1.5374  2.5008
  117MOL0     H15763   6.565   3.451   4.565 -0.4465 -0.0407  0.8889
  117MOL0     H15764   6.511   3.485   4.403  1.9364  0.1286 -0.4013
  117MOL0     H15765   6.721   3.635   4.568  1.4258  2.7926 -0.5674
  117MOL0     H15766   6.638   3.719   4.435 -1.0003 -0.0714  1.3880
  117MOL0     H15767   6.827   3.641   4.342  0.7688 -0.4937  3.3334
  117MOL0     H15768   6.695   3.553   4.279  0.7433  2.2858 -0.8401
  117MOL0     H15769   6.928   3.446   4.447 -0.7145  0.5964  1.9116
  117MOL0     H15770   6.772   3.368   4.465 -2.3814  1.0131 -3.2222
  117MOL0     H15771   6.738   3.295   4.253  2.0112 -2.8925 -4.6489
  117MOL0     H15772   6.887   3.236   4.316 -0.6501 -0.0493  3.1401
  117MOL0     H15773   6.989   3.445   4.189  1.7782 -0.3438 -1.4883
  117MOL0     H15774   6.919   3.301   4.089 -0.1904 -0.7561  2.2828
  117MOL0     H15775   6.235   3.278   4.649  2.7790 -2.1602  1.0159
  117MOL0     H15776   6.044   3.170   4.793 -0.0427  0.5273  0.1792
  117MOL0     H15777   5.887   3.031   5.163  4.1984 -0.3046  1.9455
  117MOL0     H15778   5.797   2.933   5.370  0.7660  0.9897  3.3510
  117MOL0     H15779   6.018   2.742   5.868 -0.0669  0.4404 -0.2576
  117MOL0     H15780   6.108   2.896   5.703 -0.3386 -0.2881  0.6793
  117MOL0     H15781   6.182   3.012   5.281  0.1295  1.2456  1.6032
  117MOL0     H15782   6.271   3.141   5.064  0.1601 -0.6442 -1.4463
  117MOL0     H15783   6.675   3.051   4.892 -1.8391 -2.0703  1.9956
  117MOL0     H15784   6.669   3.166   5.028  0.3886  2.8427 -0.8838
  117MOL0     H15785   6.573   3.347   4.880 -1.7493 -0.5734 -2.1770
  117MOL0     H15786   6.572   3.239   4.741 -1.5966 -3.5347  1.4267
  117MOL0     H15787   6.804   3.338   4.894  1.8722  0.6937 -0.6692
  117MOL0     H15788   6.759   3.389   4.730 -1.1192 -2.7781 -3.9297
  117MOL0     H15789   6.880   3.113   4.799  0.8998  0.9231 -0.1060
  117MOL0     H15790   6.784   3.148   4.649  1.4232  4.7202 -3.3996
  117MOL0     H15791   7.144   3.324   4.566  0.4612 -0.5733 -0.6815
  117MOL0     H15792   6.623   2.920   5.078 -1.1155 -0.9557 -1.6333
  117MOL0     H15793   6.646   2.837   5.387  1.3099  2.4030 -2.2174
  117MOL0     H15794   6.544   2.696   5.334  0.5257 -0.3064 -0.3808
  117MOL0     H15795   6.664   2.754   5.229 -2.6344 -0.5942 -3.3319
  118MOL0     O15796   6.404   5.059   8.554  0.5964 -0.1840  0.8348
  118MOL0     C15797   6.393   5.163   8.620  0.7422  0.3718  0.5231
  118MOL0     O15798   6.401   5.289   8.565 -0.2487  0.2189 -0.3933
  118MOL0     C15799   6.470   5.310   8.444  0.4937 -0.3230 -0.2700
  118MOL0     C15800   6.431   5.310   8.312  0.4582 -0.1843  0.3833
  118MOL0     C15801   6.525   5.323   8.205 -0.2173 -0.5383 -0.0672
  118MOL0     C15802   6.657   5.354   8.236  0.3209 -0.1679  0.0362
  118MOL0     O15803   6.753   5.389   8.141  0.0376  0.2814 -0.2859
  118MOL0     C15804   6.886   5.344   8.159 -0.6187 -0.1309 -0.0044
  118MOL0     C15805   6.950   5.338   8.026 -0.3689 -0.8198 -0.7978
  118MOL0     C15806   7.105   5.318   8.043 -0.3574  0.0328  0.2850
  118MOL0     C15807   7.169   5.347   7.904 -0.3436  0.3841 -0.7183
  118MOL0     C15808   7.308   5.288   7.898 -0.3748  0.0881  0.2782
  118MOL0     C15809   7.376   5.319   7.762 -0.4224 -0.4293  0.3517
  118MOL0     C15810   7.492   5.224   7.734  0.2971  0.3175  0.4138
  118MOL0     C15811   7.614   5.250   7.810  0.0327  0.1244 -0.6903
  118MOL0     N15812   7.721   5.144   7.809  0.3227 -0.1837  0.3275
  118MOL0     C15813   7.756   5.069   7.909 -1.3824 -0.3276 -0.6548
  118MOL0     C15814   7.860   4.997   7.864 -0.8227  0.5682 -0.2222
  118MOL0     C15815   7.929   4.901   7.957  0.3797  0.0442  0.4137
  118MOL0     C15816   7.902   4.752   7.912  0.6380 -0.1983  0.8577
  118MOL0     C15817   7.753   4.700   7.939  0.5362 -0.0728  1.1814
  118MOL0     C15818   7.703   4.704   8.087 -0.6767 -0.1765  0.2646
  118MOL0     O15819   7.692   4.842   8.137 -0.3158  0.4258  0.3948
  118MOL0     C15820   7.568   4.886   8.172 -0.0375  0.6819 -0.7425
  118MOL0     C15821   7.458   4.875   8.096 -0.2116  0.3919  0.4680
  118MOL0     C15822   7.339   4.932   8.143  0.9206 -1.0259  1.3695
  118MOL0     C15823   7.343   4.993   8.266  0.5846 -0.1869  0.2040
  118MOL0     C15824   7.213   5.035   8.336 -0.6518  0.2510 -0.4335
  118MOL0     O15825   7.227   5.090   8.462  0.0248  0.3617  0.4525
  118MOL0     C15826   7.115   5.132   8.537 -1.5580 -0.2229  0.0200
  118MOL0     C15827   6.978   5.086   8.540  0.5462 -1.2322  0.1658
  118MOL0     C15828   6.892   5.138   8.645  0.7175 -0.5428 -0.4590
  118MOL0     C15829   6.940   5.218   8.750 -0.2325 -0.4312 -0.6623
  118MOL0     O15830   6.865   5.280   8.842 -0.5454  0.3396 -0.2788
  118MOL0     C15831   6.754   5.209   8.896 -0.1001 -0.4491 -0.3292
  118MOL0     C15832   6.806   5.102   8.996  0.2300 -0.2562 -1.1928
  118MOL0     C15833   6.748   4.961   8.980 -0.7387 -0.6741  0.3087
  118MOL0     C15834   6.606   4.939   9.030 -0.3335  0.3011  0.2254
  118MOL0     C15835   6.570   4.788   9.038 -0.4749  0.3173 -0.6119
  118MOL0     C15836   6.455   4.770   9.135 -0.8260  0.8560  0.2891
  118MOL0     C15837   6.406   4.626   9.149 -0.3548  0.9335 -0.6391
  118MOL0     C15838   6.261   4.609   9.208 -0.3904  0.2681 -0.2718
  118MOL0    Cl15839   6.149   4.698   9.111  0.1723 -0.4437  0.4347
  118MOL0     C15840   7.072   5.255   8.746 -0.7890 -0.2816  0.4802
  118MOL0     C15841   7.151   5.226   8.633  1.0216 -0.2699 -0.6526
  118MOL0     O15842   7.109   5.015   8.287  0.3361 -0.0541  1.0372
  118MOL0     C15843   7.460   5.019   8.335  0.1753  0.2223 -0.0953
  118MOL0     C15844   7.569   4.963   8.287  0.4043 -1.3997  0.1862
  118MOL0     N15845   7.897   5.039   7.738 -0.8024  0.1468 -1.4116
  118MOL0     N15846   7.806   5.121   7.709  0.0306  0.5545 -0.2436
  118MOL0     C15847   6.687   5.363   8.373 -1.0731  0.5675  1.0073
  118MOL0     C15848   6.598   5.342   8.473 -0.5198  0.2338  0.3274
  118MOL0     C15849   6.346   5.147   8.759  0.2436 -0.3628  0.1725
  118MOL0     C15850   6.286   5.028   8.804  0.3215  0.7909 -0.7268
  118MOL0     C15851   6.252   4.996   8.934  0.7019  0.4288 -0.0521
  118MOL0     C15852   6.273   5.091   9.027 -0.4309  0.2262 -0.6769
  118MOL0     O15853   6.249   5.052   9.163  0.2645 -0.8181 -0.4411
  118MOL0     C15854   6.152   5.135   9.225  1.1647 -0.4151  0.1452
  118MOL0     C15855   6.020   5.058   9.267  1.2091 -0.2259  0.1332
  118MOL0     C15856   5.945   4.985   9.156  0.5294  0.0070 -0.8458
  118MOL0     C15857   5.891   5.069   9.046  0.3724 -0.3051  0.5556
  118MOL0     C15858   5.806   4.981   8.963  0.2425 -1.0091 -0.5054
  118MOL0     C15859   5.733   4.928   8.882 -0.1566 -0.0689 -0.5142
  118MOL0     C15860   6.332   5.214   8.995  0.4827  0.0532  0.8794
  118MOL0     C15861   6.367   5.245   8.861 -0.3193  0.3705  0.1656
  118MOL0     C15862   6.428   5.385   8.841 -0.9424  0.7109 -0.5379
  118MOL0     H15863   6.331   5.280   8.283  0.1972 -0.4081  1.4745
  118MOL0     H15864   6.495   5.314   8.101  0.2006  0.9803 -0.3331
  118MOL0     H15865   6.946   5.411   8.221  1.2967 -1.1287 -0.6665
  118MOL0     H15866   6.904   5.246   8.205  0.6051 -0.8765 -1.9265
  118MOL0     H15867   6.936   5.435   7.978  3.8651 -0.0919 -0.9027
  118MOL0     H15868   6.897   5.260   7.972 -1.1927 -0.3650 -0.6641
  118MOL0     H15869   7.131   5.219   8.083  0.7924 -0.1627 -0.8754
  118MOL0     H15870   7.147   5.394   8.109 -1.7883  3.1691 -2.1751
  118MOL0     H15871   7.106   5.293   7.834  0.5565  0.5512 -1.6906
  118MOL0     H15872   7.191   5.452   7.880  0.5877  0.4973  0.4762
  118MOL0     H15873   7.352   5.334   7.987 -0.3902 -1.2579  1.0102
  118MOL0     H15874   7.309   5.179   7.905 -1.7692  0.1597  2.5971
  118MOL0     H15875   7.302   5.309   7.682 -0.1268  2.2557 -0.3428
  118MOL0     H15876   7.400   5.424   7.747  1.9410 -0.6294  2.2572
  118MOL0     H15877   7.505   5.225   7.625 -2.3586 -2.6687 -0.0574
  118MOL0     H15878   7.464   5.120   7.750  1.2491  0.2621  1.9779
  118MOL0     H15879   7.645   5.338   7.753  1.1612 -1.2074 -2.2361
  118MOL0     H15880   7.587   5.260   7.915 -1.1852 -1.9199 -0.7520
  118MOL0     H15881   7.723   5.068   8.013  2.1162 -0.1161  0.5777
  118MOL0     H15882   8.036   4.913   7.941  0.2668 -1.4957 -2.0210
  118MOL0     H15883   7.897   4.917   8.061  0.2560 -2.6688  0.8726
  118MOL0     H15884   7.930   4.743   7.807 -1.8887 -2.7655  0.2871
  118MOL0     H15885   7.962   4.676   7.964 -0.0981 -1.2665  0.1715
  118MOL0     H15886   7.760   4.593   7.917  2.2362 -0.3231  2.7347
  118MOL0     H15887   7.674   4.738   7.874 -0.1821 -3.4919 -0.1692
  118MOL0     H15888   7.770   4.647   8.152 -0.5991 -0.7835 -0.3384
  118MOL0     H15889   7.608   4.650   8.096 -1.6430  1.0750 -1.7404
  118MOL0     H15890   7.448   4.829   7.997 -3.6571  1.9050 -0.0437
  118MOL0     H15891   7.249   4.924   8.083  1.7202  2.0069 -0.4586
  118MOL0     H15892   6.954   5.009   8.467 -1.9475 -0.0893 -0.3185
  118MOL0     H15893   6.793   5.093   8.646  0.1180  0.7337 -0.4566
  118MOL0     H15894   6.707   5.284   8.960  2.2106  2.0661 -1.3812
  118MOL0     H15895   6.672   5.176   8.832 -2.6351 -0.0665  2.4915
  118MOL0     H15896   6.914   5.092   9.007  0.1013 -1.0665 -0.5727
  118MOL0     H15897   6.779   5.135   9.097 -0.3148 -0.2377 -1.3426
  118MOL0     H15898   6.750   4.947   8.871  0.9422  2.0561 -0.0836
  118MOL0     H15899   6.825   4.898   9.026  2.3319  3.0630  0.8018
  118MOL0     H15900   6.535   4.997   8.970  0.4159  1.2856  0.2631
  118MOL0     H15901   6.601   4.978   9.132 -2.5611  0.8519 -0.0322
  118MOL0     H15902   6.655   4.720   9.049 -1.3821 -1.0189 -1.4950
  118MOL0     H15903   6.529   4.753   8.943 -2.0846  0.5144 -0.0243
  118MOL0     H15904   6.496   4.812   9.228  1.0981 -0.1529 -0.0463
  118MOL0     H15905   6.369   4.836   9.124 -1.6228  0.6183  3.8739
  118MOL0     H15906   6.465   4.565   9.219 -1.6572 -2.3531 -2.1836
  118MOL0     H15907   6.416   4.575   9.053  1.8077  0.2175 -0.1091
  118MOL0     H15908   6.235   4.503   9.203  0.2599  0.0296  0.9618
  118MOL0     H15909   6.262   4.650   9.309  1.7281 -0.3528 -0.0013
  118MOL0     H15910   7.123   5.321   8.815  1.2352 -2.5099  1.2674
  118MOL0     H15911   7.251   5.264   8.647  0.3399  1.0149  1.1010
  118MOL0     H15912   7.457   5.057   8.436  2.3362  0.8249 -0.2071
  118MOL0     H15913   7.663   4.964   8.341 -1.6047 -1.2904  4.0145
  118MOL0     H15914   6.785   5.400   8.400  2.3288 -5.3662 -1.2130
  118MOL0     H15915   6.625   5.356   8.577  1.2730  4.5691 -0.5043
  118MOL0     H15916   6.256   4.954   8.730 -1.5848  2.4741 -1.7397
  118MOL0     H15917   6.189   4.913   8.964 -2.2165  2.0277 -1.2774
  118MOL0     H15918   6.124   5.221   9.165  1.3722 -0.2444  0.2903
  118MOL0     H15919   6.193   5.181   9.316 -0.1937  0.8277  0.1558
  118MOL0     H15920   5.946   5.133   9.295  3.1340  2.4487 -1.4991
  118MOL0     H15921   6.045   5.001   9.357  0.3228 -0.1119  0.4586
  118MOL0     H15922   5.855   4.942   9.199  1.2652 -0.2717  0.4842
  118MOL0     H15923   6.011   4.899   9.140 -2.0877 -1.7891 -2.7707
  118MOL0     H15924   5.833   5.155   9.080 -2.8962 -1.3426 -1.9364
  118MOL0     H15925   5.968   5.101   8.976 -0.5458 -1.5334 -1.0708
  118MOL0     H15926   5.658   4.871   8.831  0.1106 -0.7350 -0.1770
  118MOL0     H15927   6.343   5.288   9.073 -3.9182  2.1371 -0.1421
  118MOL0     H15928   6.362   5.456   8.790 -0.1212  1.5610 -0.4617
  118MOL0     H15929   6.438   5.431   8.940 -1.5348 -1.3402  0.5214
  118MOL0     H15930   6.527   5.379   8.794 -1.2370  1.1161 -1.2151
  119MOL0     O15931  10.089   1.027   5.365 -0.3101  0.1498  0.9343
  119MOL0     C15932  10.196   1.026   5.312 -0.0472  0.2029  0.0100
  119MOL0     O15933  10.259   1.141   5.283  0.5273 -0.0837  0.6459
  119MOL0     C15934  10.189   1.256   5.319 -0.6033 -0.5903  0.7705
  119MOL0     C15935  10.242   1.343   5.414  0.1442 -0.1088 -0.5542
  119MOL0     C15936  10.185   1.466   5.441  0.0321  0.4053 -0.7689
  119MOL0     C15937  10.068   1.509   5.369  0.1975 -0.7696 -0.5132
  119MOL0     O15938  10.031   1.639   5.363 -0.7885  0.5174 -0.0301
  119MOL0     C15939  10.105   1.739   5.445 -0.4621  0.6614 -1.2886
  119MOL0     C15940  10.075   1.886   5.423 -0.8050  0.5522  0.3699
  119MOL0     C15941   9.931   1.921   5.409  0.2751 -0.9445 -0.4518
  119MOL0     C15942   9.835   1.902   5.527 -0.4035  0.2489  0.0778
  119MOL0     C15943   9.704   1.998   5.539 -0.1919  0.0449 -0.6646
  119MOL0     C15944   9.626   1.981   5.412  0.4245  0.4837  0.6517
  119MOL0     C15945   9.483   2.037   5.405  0.2980 -0.9681  0.2579
  119MOL0     C15946   9.428   2.052   5.266  0.0478 -0.7727  1.0859
  119MOL0     N15947   9.289   2.102   5.275  0.6246 -0.0679 -0.2969
  119MOL0     C15948   9.239   2.230   5.319  0.3185  0.4594  0.1810
  119MOL0     C15949   9.114   2.235   5.274 -0.3719 -0.3218  0.4746
  119MOL0     C15950   9.013   2.341   5.280 -1.6925  0.2013 -1.3567
  119MOL0     C15951   9.011   2.429   5.156  0.5091 -0.7071 -0.2431
  119MOL0     C15952   8.903   2.537   5.175 -0.5392 -0.0065  0.2580
  119MOL0     C15953   8.893   2.654   5.075  0.2074 -0.0399  0.3612
  119MOL0     O15954   9.018   2.721   5.059  0.4034  1.1121  0.6805
  119MOL0     C15955   9.050   2.789   4.943 -0.4672  0.1041 -0.2512
  119MOL0     C15956   8.992   2.796   4.820 -0.2055  0.0379  0.7520
  119MOL0     C15957   9.043   2.877   4.725 -0.3122 -0.6780  0.5078
  119MOL0     C15958   9.173   2.945   4.731  0.4556  0.0600 -0.3516
  119MOL0     C15959   9.227   3.032   4.629 -0.8555 -0.6749  0.3841
  119MOL0     O15960   9.339   3.099   4.654  0.0252  0.6749  1.0447
  119MOL0     C15961   9.409   3.139   4.543  0.0772  0.0284 -1.7975
  119MOL0     C15962   9.465   3.262   4.559 -0.5825 -1.2314 -0.3871
  119MOL0     C15963   9.556   3.316   4.462 -0.6486  0.4795 -0.3543
  119MOL0     C15964   9.593   3.234   4.352  0.7368 -0.5177  0.2977
  119MOL0     O15965   9.674   3.287   4.249 -0.3612  0.4937  1.2061
  119MOL0     C15966   9.649   3.245   4.116  0.5408  0.2414 -1.0903
  119MOL0     C15967   9.711   3.347   4.021 -0.5356 -0.2111  0.1751
  119MOL0     C15968   9.685   3.311   3.879  0.4748 -0.3591 -0.3226
  119MOL0     C15969   9.805   3.283   3.788 -0.9124 -0.1863  0.9494
  119MOL0     C15970   9.757   3.215   3.658 -0.5376 -0.5991  0.6479
  119MOL0     C15971   9.875   3.206   3.554 -0.2601 -0.3550  0.5273
  119MOL0     C15972   9.831   3.129   3.434  0.4636  0.1246  0.0592
  119MOL0     C15973   9.929   3.118   3.320  0.0324  0.1097  0.1294
  119MOL0    Cl15974  10.079   3.022   3.346  0.1250 -0.1259 -0.2618
  119MOL0     C15975   9.537   3.109   4.340  0.1625 -0.7100  0.4068
  119MOL0     C15976   9.447   3.058   4.432  0.6549  0.5005  0.0084
  119MOL0     O15977   9.170   3.021   4.519  0.9897 -0.0248 -0.4894
  119MOL0     C15978   9.241   2.922   4.850 -0.0916  1.0284 -0.2552
  119MOL0     C15979   9.180   2.843   4.946  0.9312 -0.2609  0.2168
  119MOL0     N15980   9.092   2.112   5.213  0.5387 -0.8565 -0.2050
  119MOL0     N15981   9.186   2.031   5.228  0.5378  0.3216  0.2031
  119MOL0     C15982  10.018   1.425   5.270  0.4987 -0.3275 -0.6778
  119MOL0     C15983  10.070   1.298   5.253  0.5846  0.2285  0.2538
  119MOL0     C15984  10.255   0.893   5.285 -0.0483 -0.7365 -0.7288
  119MOL0     C15985  10.170   0.778   5.279  0.6909 -0.5329  0.3852
  119MOL0     C15986  10.217   0.659   5.256 -0.2201  0.9889  0.8279
  119MOL0     C15987  10.351   0.638   5.227  0.5679 -0.0519 -0.3735
  119MOL0     O15988  10.410   0.523   5.183  0.6946 -0.2266 -0.2767
  119MOL0     C15989  10.334   0.442   5.096 -0.5630  1.1710 -0.2393
  119MOL0     C15990  10.338   0.493   4.944  1.1562 -0.0630  1.1915
  119MOL0     C15991  10.477   0.549   4.898  0.7552  0.4157 -0.4298
  119MOL0     C15992  10.483   0.534   4.751  0.1787 -0.2235  1.5254
  119MOL0     C15993  10.615   0.551   4.702  0.5241  0.6750  0.7656
  119MOL0     C15994  10.708   0.541   4.626 -0.5909  0.2492  0.4214
  119MOL0     C15995  10.438   0.744   5.235  1.3236  0.9972 -1.1050
  119MOL0     C15996  10.395   0.872   5.275  0.0158  0.4726  0.8836
  119MOL0     C15997  10.498   0.988   5.283  0.8186  0.2566  0.3160
  119MOL0     H15998  10.333   1.318   5.468  0.6801 -1.5563 -2.0428
  119MOL0     H15999  10.241   1.519   5.517 -2.0959 -0.1196  1.3057
  119MOL0     H16000  10.085   1.729   5.552  1.2996 -1.0737 -1.0629
  119MOL0     H16001  10.214   1.739   5.433 -0.2903  2.0919  0.0278
  119MOL0     H16002  10.118   1.912   5.326 -0.7937 -0.4236  0.1038
  119MOL0     H16003  10.127   1.941   5.503 -0.2995 -2.2254  2.1046
  119MOL0     H16004   9.876   1.879   5.324 -1.7208  0.3734  0.1084
  119MOL0     H16005   9.922   2.025   5.375  0.9920 -1.3836 -2.0907
  119MOL0     H16006   9.799   1.799   5.535  0.0249 -0.2815 -3.4524
  119MOL0     H16007   9.895   1.928   5.615  2.6711 -0.2444 -1.7308
  119MOL0     H16008   9.642   1.968   5.624  0.0520 -2.7704 -1.3968
  119MOL0     H16009   9.741   2.100   5.555  0.7665 -0.6527  1.9951
  119MOL0     H16010   9.683   2.025   5.330  0.3764  1.0672  0.9315
  119MOL0     H16011   9.607   1.877   5.382  0.4485  1.1137 -1.8142
  119MOL0     H16012   9.478   2.134   5.456 -1.7191 -1.5606  1.3337
  119MOL0     H16013   9.412   1.975   5.461  2.5305 -2.3118  1.7385
  119MOL0     H16014   9.487   2.124   5.208 -0.2672  0.5322  2.3216
  119MOL0     H16015   9.425   1.953   5.219  0.7798  0.7117 -2.4313
  119MOL0     H16016   9.288   2.313   5.368 -0.5324  0.5682  0.8608
  119MOL0     H16017   8.915   2.295   5.294 -1.4684 -0.1104 -0.7646
  119MOL0     H16018   9.032   2.390   5.377 -1.5386 -1.5738 -0.4554
  119MOL0     H16019   9.112   2.467   5.133  1.2024 -2.3149 -0.0103
  119MOL0     H16020   8.983   2.356   5.079 -0.2642 -1.1139  0.4129
  119MOL0     H16021   8.929   2.595   5.264 -3.6260  1.8167  0.0795
  119MOL0     H16022   8.806   2.490   5.191 -0.0813 -0.5383  1.6252
  119MOL0     H16023   8.825   2.729   5.116  0.9048 -0.5980  2.7305
  119MOL0     H16024   8.855   2.623   4.978 -0.3833  0.8691  0.2975
  119MOL0     H16025   8.895   2.748   4.807  0.6909 -1.9038  0.8841
  119MOL0     H16026   8.991   2.879   4.629  0.5641 -0.8856  0.0189
  119MOL0     H16027   9.437   3.330   4.639 -1.0241 -2.6926  0.7485
  119MOL0     H16028   9.608   3.411   4.462 -0.3374  0.3116 -0.2324
  119MOL0     H16029   9.673   3.140   4.097  0.1629  0.2834 -1.8444
  119MOL0     H16030   9.543   3.253   4.091  0.8626  1.9496 -2.1065
  119MOL0     H16031   9.676   3.449   4.041  2.6430  1.7861 -3.1706
  119MOL0     H16032   9.820   3.356   4.032  0.1584 -1.1642 -4.1834
  119MOL0     H16033   9.629   3.218   3.872  0.8480 -0.4950 -1.8159
  119MOL0     H16034   9.642   3.404   3.838  0.9133  0.6914  1.4964
  119MOL0     H16035   9.876   3.208   3.826  0.8985  0.0087 -1.7718
  119MOL0     H16036   9.866   3.373   3.777  1.4410 -1.7972  0.0583
  119MOL0     H16037   9.684   3.280   3.609  1.5456  2.1129  0.8708
  119MOL0     H16038   9.721   3.116   3.688 -0.0834 -0.8671  0.3180
  119MOL0     H16039   9.891   3.309   3.522 -0.2416 -0.3002  0.7129
  119MOL0     H16040   9.971   3.167   3.588  1.6920  3.3497 -0.2134
  119MOL0     H16041   9.742   3.174   3.390  1.0069  0.4866 -0.7071
  119MOL0     H16042   9.806   3.027   3.464  0.0312  0.0204 -0.6483
  119MOL0     H16043   9.876   3.068   3.238  0.5843 -2.0514  1.0253
  119MOL0     H16044   9.955   3.224   3.310 -0.2736  0.2998  1.2030
  119MOL0     H16045   9.558   3.056   4.248 -1.0499 -1.8500  0.7576
  119MOL0     H16046   9.390   2.971   4.401 -0.2724  0.1303  2.5550
  119MOL0     H16047   9.334   2.971   4.876  1.6811 -2.5115  0.6851
  119MOL0     H16048   9.245   2.849   5.033 -1.1878  0.0629  1.8611
  119MOL0     H16049   9.923   1.449   5.223  0.4273  0.8630  0.0379
  119MOL0     H16050  10.023   1.240   5.174 -2.2353 -0.0451  1.9904
  119MOL0     H16051  10.065   0.792   5.303  0.9596  1.2004  0.6410
  119MOL0     H16052  10.150   0.573   5.248  2.3190 -1.0492 -0.2922
  119MOL0     H16053  10.233   0.421   5.133  0.7963 -0.9171  2.6395
  119MOL0     H16054  10.379   0.342   5.100 -0.1977  1.1617 -2.6977
  119MOL0     H16055  10.263   0.571   4.932  0.7535 -0.6578 -0.5483
  119MOL0     H16056  10.316   0.406   4.881 -0.6455  1.8004 -0.8959
  119MOL0     H16057  10.561   0.493   4.939  0.1597  0.9760  1.6880
  119MOL0     H16058  10.482   0.655   4.925 -0.1302  0.2156  0.5888
  119MOL0     H16059  10.459   0.429   4.735 -1.2248  0.3465 -0.4304
  119MOL0     H16060  10.415   0.603   4.699  1.7239  0.6224  0.5294
  119MOL0     H16061  10.782   0.521   4.551  1.6242  2.2676  1.9390
  119MOL0     H16062  10.542   0.718   5.216  1.7354 -1.2492  3.1197
  119MOL0     H16063  10.597   0.954   5.315  0.3219  1.1756  3.1190
  119MOL0     H16064  10.496   1.036   5.184  3.0033  0.4252  0.2936
  119MOL0     H16065  10.481   1.067   5.357 -0.2107 -0.7972  1.2318
  120MOL0     O16066   0.603   3.451   7.412  0.2717  0.4402 -1.0729
  120MOL0     C16067   0.699   3.391   7.369 -0.0149 -0.2362 -0.6026
  120MOL0     O16068   0.815   3.439   7.322  0.1213  0.5152  0.0924
  120MOL0     C16069   0.839   3.569   7.346 -0.0931  0.9038  0.0702
  120MOL0     C16070   0.894   3.640   7.235 -0.2537  0.2127  0.5575
  120MOL0     C16071   0.947   3.771   7.245 -0.7819  1.2212  0.0213
  120MOL0     C16072   0.934   3.838   7.366 -0.8738  0.0946 -0.3127
  120MOL0     O16073   0.981   3.967   7.372  0.5218  0.3757 -0.1152
  120MOL0     C16074   0.937   4.049   7.491  0.1737 -0.1855 -0.2461
  120MOL0     C16075   0.898   4.182   7.432 -0.1913  0.4922 -0.0207
  120MOL0     C16076   1.026   4.234   7.358  0.1510  1.4656 -1.1810
  120MOL0     C16077   0.994   4.373   7.328  0.1471  0.4017  0.3642
  120MOL0     C16078   1.098   4.451   7.255 -0.6457  0.1164  0.1878
  120MOL0     C16079   1.062   4.595   7.197  0.9668 -0.2805  1.1225
  120MOL0     C16080   0.944   4.593   7.105  0.6942  0.3050  0.0074
  120MOL0     C16081   0.809   4.610   7.184 -0.1680  0.2342  0.1314
  120MOL0     N16082   0.701   4.606   7.093 -0.6804 -0.0971  0.1684
  120MOL0     C16083   0.674   4.691   6.989  0.1924 -0.5798  0.0385
  120MOL0     C16084   0.551   4.662   6.949 -0.2202  0.9487  0.3824
  120MOL0     C16085   0.479   4.700   6.827 -0.4859 -0.3832  0.2526
  120MOL0     C16086   0.578   4.715   6.710 -1.1703 -0.1125  0.6850
  120MOL0     C16087   0.651   4.591   6.664 -0.2299 -0.9495  0.1286
  120MOL0     C16088   0.754   4.645   6.555  0.1315 -0.5178 -0.1495
  120MOL0     O16089   0.857   4.732   6.598 -0.0704  0.1408 -0.0947
  120MOL0     C16090   0.963   4.684   6.671 -0.0036  0.5667 -0.3290
  120MOL0     C16091   0.988   4.548   6.695  0.8968 -0.2696 -0.0277
  120MOL0     C16092   1.094   4.514   6.780 -0.4681 -0.6776 -0.3558
  120MOL0     C16093   1.180   4.608   6.834 -1.1115 -0.0049 -0.4040
  120MOL0     C16094   1.311   4.568   6.907 -0.4893  0.4708 -0.1076
  120MOL0     O16095   1.397   4.679   6.917 -0.3378 -0.1207  0.0045
  120MOL0     C16096   1.522   4.665   6.985  0.0581 -0.2748  0.3590
  120MOL0     C16097   1.599   4.549   6.983  0.3184  0.5654  0.8571
  120MOL0     C16098   1.713   4.540   7.055  0.1653  0.8587 -0.5873
  120MOL0     C16099   1.761   4.654   7.134  0.6005  1.1063 -0.8643
  120MOL0     O16100   1.870   4.653   7.224 -0.8510 -0.6638  0.6850
  120MOL0     C16101   1.886   4.538   7.301  1.6289 -0.1446 -0.0557
  120MOL0     C16102   2.022   4.547   7.377 -0.1738 -0.6502  0.3393
  120MOL0     C16103   2.135   4.594   7.290 -0.6489  0.3949  0.5553
  120MOL0     C16104   2.264   4.605   7.368  0.1821  0.2979 -0.0440
  120MOL0     C16105   2.379   4.614   7.278  0.0585  1.3378 -0.8026
  120MOL0     C16106   2.515   4.588   7.346 -0.4224 -0.2350  0.5171
  120MOL0     C16107   2.562   4.697   7.444  0.1256  0.6892 -0.5349
  120MOL0     C16108   2.710   4.685   7.464 -0.0350  0.0010  0.5966
  120MOL0    Cl16109   2.800   4.733   7.319 -0.3912  0.2149 -0.4762
  120MOL0     C16110   1.688   4.769   7.124  0.7284  0.4254  0.8699
  120MOL0     C16111   1.573   4.774   7.044 -0.6839 -0.7562 -0.2501
  120MOL0     O16112   1.322   4.461   6.970 -0.1490 -0.4999  0.0570
  120MOL0     C16113   1.138   4.739   6.824  0.0076 -0.4469  0.4891
  120MOL0     C16114   1.027   4.776   6.746 -0.1544 -0.7822  0.1776
  120MOL0     N16115   0.507   4.544   7.019  0.1682 -0.1356 -0.3031
  120MOL0     N16116   0.600   4.524   7.102  0.1987 -0.5114 -0.2208
  120MOL0     C16117   0.879   3.765   7.480 -0.5029 -0.0040  0.0236
  120MOL0     C16118   0.830   3.628   7.462  0.8180 -1.2669 -0.9112
  120MOL0     C16119   0.691   3.245   7.372  0.1070  1.1583  0.5203
  120MOL0     C16120   0.614   3.189   7.482 -1.1028 -0.2985  0.9556
  120MOL0     C16121   0.602   3.056   7.501  1.9224 -0.0528  0.7791
  120MOL0     C16122   0.667   2.969   7.413  0.4067 -1.0182 -0.5461
  120MOL0     O16123   0.624   2.835   7.433 -0.2330  1.1776  0.0519
  120MOL0     C16124   0.687   2.734   7.350  0.2743  0.4537  0.0882
  120MOL0     C16125   0.643   2.600   7.407  0.1472 -0.9662 -0.5406
  120MOL0     C16126   0.505   2.558   7.372 -0.5058  0.1959 -0.9555
  120MOL0     C16127   0.382   2.619   7.422  0.1768 -0.5146 -0.0349
  120MOL0     C16128   0.389   2.614   7.572  0.0021  0.1350  0.1603
  120MOL0     C16129   0.382   2.597   7.693 -0.2082 -0.1871 -0.0823
  120MOL0     C16130   0.744   3.016   7.308 -0.0354 -0.5448  0.2635
  120MOL0     C16131   0.758   3.156   7.286  0.4109  0.9545  0.3700
  120MOL0     C16132   0.842   3.193   7.168  0.2967  0.8671  1.3775
  120MOL0     H16133   0.893   3.569   7.153 -0.4372 -1.7276  2.1565
  120MOL0     H16134   0.997   3.825   7.166  2.8631  0.9589  1.9589
  120MOL0     H16135   0.841   4.009   7.526  0.8239 -0.6909  1.0208
  120MOL0     H16136   1.007   4.053   7.575 -0.0953 -0.7123  0.0094
  120MOL0     H16137   0.873   4.256   7.508  1.8326  0.8731  0.3265
  120MOL0     H16138   0.816   4.189   7.359 -0.0542  4.9268 -0.0179
  120MOL0     H16139   1.035   4.182   7.262  0.3174 -0.0104 -0.3860
  120MOL0     H16140   1.123   4.231   7.409  0.7841  1.5290 -2.3546
  120MOL0     H16141   0.903   4.373   7.267  2.0228  0.5545 -2.6083
  120MOL0     H16142   0.959   4.428   7.416 -2.2759  0.8196 -0.7845
  120MOL0     H16143   1.190   4.453   7.314 -1.5355  0.2956  1.6007
  120MOL0     H16144   1.123   4.397   7.163 -2.7593  1.1356 -1.0696
  120MOL0     H16145   1.044   4.664   7.280 -0.6483 -1.6102  1.9120
  120MOL0     H16146   1.150   4.630   7.141 -0.1525  0.2632 -0.3560
  120MOL0     H16147   0.951   4.501   7.047 -3.5801  0.5740 -1.2155
  120MOL0     H16148   0.944   4.674   7.032 -0.0199  0.9018  0.6480
  120MOL0     H16149   0.792   4.543   7.268  0.0434  1.8204  1.4967
  120MOL0     H16150   0.803   4.703   7.241  1.7258 -1.2206  2.9650
  120MOL0     H16151   0.736   4.771   6.950 -1.0521  1.1393  1.4046
  120MOL0     H16152   0.401   4.631   6.792 -0.2424 -2.0791  2.8078
  120MOL0     H16153   0.432   4.794   6.857 -1.6403 -0.4346 -1.2469
  120MOL0     H16154   0.522   4.761   6.628 -0.0426  1.7240  0.8777
  120MOL0     H16155   0.655   4.786   6.745 -1.5840  0.9455 -0.4687
  120MOL0     H16156   0.593   4.505   6.628  0.3121 -1.9126  1.4599
  120MOL0     H16157   0.701   4.556   6.755  1.8477  1.5040  0.0263
  120MOL0     H16158   0.702   4.697   6.474 -0.5229 -3.1202 -1.5165
  120MOL0     H16159   0.797   4.555   6.509 -0.0095 -2.9310  3.9657
  120MOL0     H16160   0.934   4.466   6.650  0.1522  1.0306 -1.5860
  120MOL0     H16161   1.121   4.412   6.806  0.0953 -0.6049 -0.6307
  120MOL0     H16162   1.565   4.463   6.926 -0.1975  0.2693  1.5924
  120MOL0     H16163   1.771   4.449   7.063  0.8037  1.2512 -0.6418
  120MOL0     H16164   1.803   4.529   7.372  1.5668  0.0524 -0.1023
  120MOL0     H16165   1.878   4.443   7.247  2.9068 -0.1259 -0.3068
  120MOL0     H16166   2.009   4.620   7.458  0.2966  0.2709 -0.3985
  120MOL0     H16167   2.042   4.453   7.428  0.2325 -0.5736  0.3258
  120MOL0     H16168   2.134   4.510   7.221  3.9381  0.0165  0.6371
  120MOL0     H16169   2.115   4.692   7.244 -0.3237  0.8782  1.4147
  120MOL0     H16170   2.288   4.526   7.440  0.5255  1.2993  0.9691
  120MOL0     H16171   2.259   4.692   7.434 -1.2584  0.0795  0.1809
  120MOL0     H16172   2.380   4.710   7.225  0.6382  1.3945 -0.6955
  120MOL0     H16173   2.364   4.542   7.197  1.1241  3.3064 -2.8677
  120MOL0     H16174   2.530   4.493   7.397 -2.3354  0.1027  1.7891
  120MOL0     H16175   2.582   4.596   7.259  1.6885  0.2693  2.0960
  120MOL0     H16176   2.500   4.679   7.532 -2.6134  0.5042 -2.3914
  120MOL0     H16177   2.533   4.789   7.394 -2.9612 -0.7035 -1.5248
  120MOL0     H16178   2.738   4.751   7.547  1.2839 -1.4598  1.3490
  120MOL0     H16179   2.738   4.585   7.498 -0.4722 -0.2258  0.3010
  120MOL0     H16180   1.727   4.849   7.187 -0.6667  2.9000 -1.2132
  120MOL0     H16181   1.514   4.863   7.025 -0.8924 -0.7792  0.2722
  120MOL0     H16182   1.198   4.810   6.880  1.0710  0.1040 -1.2665
  120MOL0     H16183   0.993   4.879   6.742 -2.7499 -1.3166  3.6450
  120MOL0     H16184   0.856   3.812   7.576 -1.3123  0.7576 -0.5262
  120MOL0     H16185   0.771   3.588   7.545 -0.3390  1.6538 -0.1770
  120MOL0     H16186   0.559   3.255   7.547 -0.3037  0.2901  1.0526
  120MOL0     H16187   0.535   3.030   7.583  0.5843 -0.0081 -0.2642
  120MOL0     H16188   0.796   2.732   7.344  0.3147 -1.9624  0.5247
  120MOL0     H16189   0.638   2.747   7.253 -3.9698  2.4706  2.1933
  120MOL0     H16190   0.667   2.593   7.514  0.9701 -0.6554 -0.6924
  120MOL0     H16191   0.701   2.520   7.359 -2.1183 -4.4449  2.0226
  120MOL0     H16192   0.494   2.453   7.399 -4.2323  0.7000  0.1478
  120MOL0     H16193   0.489   2.560   7.264 -2.2804 -0.1972 -0.7308
  120MOL0     H16194   0.377   2.718   7.378 -1.2337 -0.7969 -0.5477
  120MOL0     H16195   0.303   2.559   7.376 -0.7123 -2.0982  3.2370
  120MOL0     H16196   0.355   2.548   7.784  1.0624 -0.0846  0.3676
  120MOL0     H16197   0.776   2.951   7.227 -0.3931  0.3007 -0.5607
  120MOL0     H16198   0.935   3.238   7.204  1.3684  1.1585 -1.5389
  120MOL0     H16199   0.885   3.103   7.123 -1.7088  0.6147 -0.1866
  120MOL0     H16200   0.779   3.240   7.093 -0.8516  0.5326  2.1037
  121MOL0     O16201   4.563   3.295   2.449 -0.5372  0.5392 -0.3921
  121MOL0     C16202   4.680   3.313   2.474  0.7133  0.6269  0.1364
  121MOL0     O16203   4.759   3.412   2.426 -0.1137 -0.1030 -0.2474
  121MOL0     C16204   4.706   3.513   2.353 -0.2144 -0.0412  1.5361
  121MOL0     C16205   4.677   3.486   2.215 -0.4991 -1.2357  0.4342
  121MOL0     C16206   4.635   3.591   2.135 -0.5239  0.5923  0.8426
  121MOL0     C16207   4.624   3.723   2.177  1.1294 -0.0825  0.1977
  121MOL0     O16208   4.596   3.827   2.091  0.4874  0.5887 -0.3209
  121MOL0     C16209   4.671   3.945   2.109  0.1117 -0.4559  0.0273
  121MOL0     C16210   4.618   4.046   2.010  0.0103 -0.9209  0.1810
  121MOL0     C16211   4.546   4.165   2.071  0.3811 -1.9349  0.1926
  121MOL0     C16212   4.490   4.273   1.963 -0.2392 -1.7033 -0.1670
  121MOL0     C16213   4.596   4.363   1.899 -0.6564 -0.2239 -0.9400
  121MOL0     C16214   4.548   4.469   1.807  0.0919 -0.3709  0.0345
  121MOL0     C16215   4.639   4.519   1.698 -0.3285 -0.4075 -0.3636
  121MOL0     C16216   4.585   4.657   1.644  0.0093  0.0534  0.0762
  121MOL0     N16217   4.647   4.683   1.513  0.4340  0.4045 -0.8332
  121MOL0     C16218   4.625   4.619   1.399 -0.6508  0.3090  0.8859
  121MOL0     C16219   4.703   4.675   1.300  0.1479 -0.1883  0.0290
  121MOL0     C16220   4.712   4.639   1.155  0.5679  0.2693 -0.0941
  121MOL0     C16221   4.658   4.750   1.065  0.1252  0.8261 -0.1074
  121MOL0     C16222   4.746   4.876   1.060  0.0230 -0.1209  0.5370
  121MOL0     C16223   4.899   4.829   1.055 -0.5409 -0.3977 -0.1158
  121MOL0     O16224   4.984   4.905   0.961 -0.2029 -0.5381  0.3617
  121MOL0     C16225   5.024   5.028   1.000 -0.5728 -0.1049 -0.1287
  121MOL0     C16226   5.122   5.075   0.917 -0.8043 -0.6606  0.1137
  121MOL0     C16227   5.177   5.209   0.942  0.5795 -0.1443 -0.2164
  121MOL0     C16228   5.154   5.275   1.071 -0.6251  0.6575 -0.2856
  121MOL0     C16229   5.227   5.401   1.099  0.3458 -1.1905 -1.1314
  121MOL0     O16230   5.322   5.442   1.011  0.4950 -0.2791 -0.8657
  121MOL0     C16231   5.272   5.546   0.926 -0.5699 -0.0519  0.8770
  121MOL0     C16232   5.135   5.578   0.919  0.0718 -0.1980 -0.7472
  121MOL0     C16233   5.105   5.692   0.831 -0.1618 -0.2212  0.7062
  121MOL0     C16234   5.203   5.754   0.753  0.1480 -0.1466 -1.3004
  121MOL0     O16235   5.154   5.855   0.671  0.3321 -0.5032 -0.2074
  121MOL0     C16236   5.256   5.933   0.617 -0.1942  0.1329 -0.3048
  121MOL0     C16237   5.208   6.059   0.552  0.0431  0.3403  0.3222
  121MOL0     C16238   5.126   6.148   0.640 -0.2656  0.6928  0.3237
  121MOL0     C16239   5.077   6.269   0.561  0.3094 -0.0670  0.4396
  121MOL0     C16240   5.051   6.391   0.653  0.4116 -0.4956 -0.7735
  121MOL0     C16241   4.959   6.492   0.582 -0.1011 -0.2532  0.1542
  121MOL0     C16242   4.950   6.620   0.674  0.0280  0.0105 -1.0925
  121MOL0     C16243   4.837   6.709   0.641 -0.2913  0.6687  0.7141
  121MOL0    Cl16244   4.689   6.631   0.705  0.3622 -0.0325 -0.3944
  121MOL0     C16245   5.335   5.709   0.766  0.0399 -0.2683 -0.2032
  121MOL0     C16246   5.371   5.603   0.849 -0.0310  0.1023  0.4542
  121MOL0     O16247   5.189   5.473   1.195  0.3581  0.2815  0.6492
  121MOL0     C16248   5.058   5.225   1.145  0.4383  0.0241 -0.3824
  121MOL0     C16249   4.995   5.101   1.115 -0.0942  0.4942  0.0478
  121MOL0     N16250   4.778   4.761   1.365 -0.3908  0.3170 -0.1781
  121MOL0     N16251   4.755   4.764   1.497  0.5682  0.5312  0.2626
  121MOL0     C16252   4.645   3.743   2.314  0.0341 -0.4430  0.2040
  121MOL0     C16253   4.685   3.643   2.401 -0.1972  0.0324  0.5036
  121MOL0     C16254   4.744   3.224   2.577 -0.8850  0.3318  0.3517
  121MOL0     C16255   4.887   3.236   2.599  0.1061 -0.1899  0.8985
  121MOL0     C16256   4.959   3.150   2.680  0.5882  0.0441  0.6716
  121MOL0     C16257   4.902   3.065   2.769 -0.2563 -1.5535  0.8575
  121MOL0     O16258   4.978   3.001   2.854 -0.2730  0.1796 -0.0024
  121MOL0     C16259   4.947   2.875   2.915  0.5866 -0.1020 -0.1468
  121MOL0     C16260   4.875   2.917   3.054  0.0985  0.5495 -0.9749
  121MOL0     C16261   4.971   2.992   3.142 -0.6620 -0.0068 -0.0575
  121MOL0     C16262   4.897   3.052   3.257 -0.2721 -0.6044 -0.1522
  121MOL0     C16263   4.885   2.957   3.366  0.0680  0.3698 -0.1599
  121MOL0     C16264   4.862   2.862   3.439 -0.0919  0.6823  0.0092
  121MOL0     C16265   4.768   3.046   2.751 -1.7022  0.3712 -0.4181
  121MOL0     C16266   4.697   3.117   2.654  0.2222  0.3878  0.6994
  121MOL0     C16267   4.556   3.056   2.648 -0.7473 -0.5940 -0.0026
  121MOL0     H16268   4.706   3.396   2.162 -2.5539 -2.8699  1.9446
  121MOL0     H16269   4.606   3.571   2.032 -2.2383  1.2584  1.1656
  121MOL0     H16270   4.670   3.985   2.211  1.9965  0.1649 -0.1536
  121MOL0     H16271   4.776   3.927   2.086  0.0711  0.6210 -1.0938
  121MOL0     H16272   4.546   3.990   1.949 -1.3674 -0.1667  1.0591
  121MOL0     H16273   4.696   4.082   1.943  1.6105  0.8093  2.8040
  121MOL0     H16274   4.618   4.215   2.136  1.8787  4.1352 -5.0822
  121MOL0     H16275   4.458   4.141   2.131  1.9758  3.7685  5.8979
  121MOL0     H16276   4.434   4.215   1.890  0.4285 -0.7862 -1.4533
  121MOL0     H16277   4.414   4.337   2.008  0.5964 -0.6037 -0.2655
  121MOL0     H16278   4.639   4.405   1.991 -5.0404  2.1067  0.2932
  121MOL0     H16279   4.669   4.304   1.843  0.7258 -0.5864  1.1186
  121MOL0     H16280   4.457   4.444   1.751 -1.1205  3.2651  0.0936
  121MOL0     H16281   4.516   4.553   1.869  1.5540 -1.0952  1.8482
  121MOL0     H16282   4.653   4.449   1.615 -4.4687 -2.9433  0.8005
  121MOL0     H16283   4.735   4.538   1.747  0.7648 -1.7657 -1.8733
  121MOL0     H16284   4.475   4.651   1.643  0.0467 -0.9677  0.6634
  121MOL0     H16285   4.612   4.741   1.709 -1.7514  0.8396 -0.1296
  121MOL0     H16286   4.561   4.534   1.375 -1.3064  0.9711  0.2411
  121MOL0     H16287   4.811   4.599   1.130  2.1574  0.4680  4.8744
  121MOL0     H16288   4.644   4.554   1.143  3.0126 -1.6525 -1.3530
  121MOL0     H16289   4.669   4.717   0.961  0.0110 -0.7821  0.3673
  121MOL0     H16290   4.556   4.787   1.082 -1.2214 -0.5542 -4.0055
  121MOL0     H16291   4.727   4.926   1.155 -0.8394  1.1417 -0.2668
  121MOL0     H16292   4.724   4.948   0.980  2.5059 -0.0094 -0.1214
  121MOL0     H16293   4.920   4.726   1.023  0.8078  0.1322 -1.0165
  121MOL0     H16294   4.942   4.831   1.156 -1.6654 -1.9428  0.4265
  121MOL0     H16295   5.145   5.025   0.824 -2.6572 -0.1012 -0.6915
  121MOL0     H16296   5.239   5.251   0.863 -1.3737  0.3956 -1.5392
  121MOL0     H16297   5.067   5.536   0.993  1.0922  0.2907  0.5039
  121MOL0     H16298   5.004   5.730   0.831  0.3745  1.4451 -1.7663
  121MOL0     H16299   5.328   5.960   0.695 -1.6382 -1.9079  1.8857
  121MOL0     H16300   5.309   5.875   0.541  1.8457  1.9032 -0.3009
  121MOL0     H16301   5.291   6.113   0.508 -0.5237 -0.9642 -2.5627
  121MOL0     H16302   5.150   6.042   0.461 -1.0960 -0.6599  1.2048
  121MOL0     H16303   5.048   6.093   0.693 -0.1836 -0.3215 -0.5871
  121MOL0     H16304   5.200   6.184   0.713  2.1218 -0.5497 -1.3961
  121MOL0     H16305   4.985   6.257   0.502 -0.1065 -0.5974  1.1752
  121MOL0     H16306   5.159   6.301   0.496  4.2122  1.7443  5.5107
  121MOL0     H16307   5.148   6.428   0.686 -0.1723 -0.6670  1.2397
  121MOL0     H16308   5.000   6.355   0.743 -1.9841 -0.6685 -2.1021
  121MOL0     H16309   4.997   6.528   0.486  1.1886  1.9917  1.4141
  121MOL0     H16310   4.862   6.445   0.565  0.5389 -2.0042  1.1030
  121MOL0     H16311   5.037   6.685   0.658  1.7063 -1.7654  0.3852
  121MOL0     H16312   4.959   6.602   0.781  1.2648  1.9701 -0.7987
  121MOL0     H16313   4.851   6.807   0.687  0.9987  0.3819  0.9754
  121MOL0     H16314   4.826   6.721   0.533  3.2354 -2.1753 -0.1618
  121MOL0     H16315   5.423   5.748   0.716  0.8042 -2.4989 -0.7063
  121MOL0     H16316   5.474   5.570   0.852  0.8418  2.6006  0.5562
  121MOL0     H16317   5.018   5.276   1.232 -4.1850 -0.1340 -2.1121
  121MOL0     H16318   4.915   5.081   1.186  0.7883  1.5760  1.4201
  121MOL0     H16319   4.645   3.846   2.350 -3.8673 -0.1537 -0.2234
  121MOL0     H16320   4.691   3.652   2.509 -0.6037 -1.1392  0.6413
  121MOL0     H16321   4.953   3.297   2.537  3.6482 -2.1631  2.4014
  121MOL0     H16322   5.067   3.161   2.684  0.4867  2.5090 -0.7303
  121MOL0     H16323   5.043   2.824   2.920 -0.0605 -1.2963  0.5047
  121MOL0     H16324   4.870   2.820   2.859  2.3786 -2.1969 -0.6764
  121MOL0     H16325   4.851   2.824   3.105  0.4618 -0.5936 -2.7834
  121MOL0     H16326   4.788   2.980   3.035  1.7692  2.7771 -1.7899
  121MOL0     H16327   5.023   3.074   3.091 -0.8854  0.6937  0.8015
  121MOL0     H16328   5.054   2.930   3.178 -0.5582 -0.4594 -1.0433
  121MOL0     H16329   4.944   3.146   3.289  0.3637 -1.1954  0.6695
  121MOL0     H16330   4.795   3.078   3.226 -0.7187 -3.3953 -1.2782
  121MOL0     H16331   4.839   2.784   3.509 -2.9553  0.7155 -0.7802
  121MOL0     H16332   4.715   2.963   2.796  0.0316 -1.3351 -1.3981
  121MOL0     H16333   4.544   2.955   2.607  1.1050 -0.0234 -2.1093
  121MOL0     H16334   4.519   3.053   2.751  1.2873  1.5214  0.8708
  121MOL0     H16335   4.486   3.130   2.608 -1.1347 -2.7281 -3.7786
  122MOL0     O16336   8.895   6.600  10.487 -0.1696 -0.0714  0.1250
  122MOL0     C16337   8.834   6.689  10.419  0.4242  0.3738 -0.3066
  122MOL0     O16338   8.727   6.762  10.465 -0.3869  0.0171  0.7157
  122MOL0     C16339   8.665   6.723  10.580 -0.3120 -0.7030 -0.3993
  122MOL0     C16340   8.595   6.600  10.594  0.0697 -0.4053 -0.3588
  122MOL0     C16341   8.552   6.561  10.718 -0.1278  0.5357  0.7820
  122MOL0     C16342   8.573   6.638  10.835 -0.1890 -1.2110 -0.7125
  122MOL0     O16343   8.526   6.612  10.965 -0.1514 -0.5943 -1.0813
  122MOL0     C16344   8.557   6.477  11.017 -0.4840  0.4325 -0.1863
  122MOL0     C16345   8.593   6.494  11.163  0.4213  0.6599 -0.4441
  122MOL0     C16346   8.747   6.474  11.181  0.3821  0.1763 -0.2747
  122MOL0     C16347   8.832   6.580  11.119 -0.2118 -0.1915 -0.6621
  122MOL0     C16348   8.830   6.709  11.203 -0.0225 -0.2878  0.1663
  122MOL0     C16349   8.919   6.826  11.145 -1.3709 -0.9521 -0.3896
  122MOL0     C16350   8.919   6.937  11.244  0.7489  0.0124  0.3684
  122MOL0     C16351   8.987   7.069  11.193 -0.7931 -0.0747  0.2953
  122MOL0     N16352   8.925   7.114  11.064 -0.3569 -0.3517 -0.2843
  122MOL0     C16353   8.794   7.143  11.056 -0.0569  0.4097 -0.0753
  122MOL0     C16354   8.758   7.141  10.924  0.4566 -0.6780  0.6872
  122MOL0     C16355   8.630   7.183  10.862  0.1910 -0.3998  0.8249
  122MOL0     C16356   8.614   7.334  10.857  0.2038  1.3836  0.4845
  122MOL0     C16357   8.709   7.404  10.755 -0.4089  0.1441 -0.3428
  122MOL0     C16358   8.791   7.514  10.825 -0.8604 -0.0273  0.2317
  122MOL0     O16359   8.900   7.449  10.886 -0.6697 -0.0100 -0.0073
  122MOL0     C16360   9.012   7.419  10.806 -0.1445 -0.3024 -0.8720
  122MOL0     C16361   9.026   7.428  10.667  0.6111  0.7505 -0.4623
  122MOL0     C16362   9.143   7.415  10.607 -0.2764  0.5173 -0.1592
  122MOL0     C16363   9.270   7.410  10.676  0.5102  1.2178  0.3239
  122MOL0     C16364   9.395   7.390  10.611 -0.7116  0.0625  0.0689
  122MOL0     O16365   9.490   7.337  10.690 -0.2540 -0.4245 -0.2170
  122MOL0     C16366   9.625   7.323  10.654  0.0299 -0.5832 -0.1445
  122MOL0     C16367   9.667   7.273  10.536  0.2656  0.3047  0.6668
  122MOL0     C16368   9.804   7.260  10.518 -0.1892  0.4326  0.0198
  122MOL0     C16369   9.897   7.309  10.610 -0.9886 -0.7678  0.1631
  122MOL0     O16370  10.029   7.305  10.592  0.2321 -0.0588  0.5837
  122MOL0     C16371  10.080   7.340  10.462  0.4501 -0.3553 -0.7881
  122MOL0     C16372  10.226   7.275  10.468 -0.1057 -0.5362  0.1697
  122MOL0     C16373  10.315   7.299  10.337  0.6738 -0.7513 -0.6761
  122MOL0     C16374  10.446   7.244  10.346 -0.2482  0.7452 -0.0578
  122MOL0     C16375  10.526   7.297  10.220 -0.1801 -0.3429  0.3228
  122MOL0     C16376  10.656   7.228  10.212 -1.1477 -0.2470 -0.0936
  122MOL0     C16377  10.743   7.253  10.331 -0.2299  0.2844  0.2388
  122MOL0     C16378  10.884   7.214  10.290  0.6268 -0.3565 -0.9257
  122MOL0    Cl16379  10.890   7.057  10.199 -0.4080  0.0187  0.0650
  122MOL0     C16380   9.851   7.375  10.725  0.7827 -0.5198  0.5167
  122MOL0     C16381   9.714   7.381  10.751  0.5262  0.6284 -0.2758
  122MOL0     O16382   9.402   7.424  10.495  0.2950 -0.3494 -0.7988
  122MOL0     C16383   9.261   7.430  10.818 -0.3152  0.8149  0.5991
  122MOL0     C16384   9.131   7.436  10.870  0.3468  0.5100  0.6996
  122MOL0     N16385   8.876   7.102  10.859 -0.5881  0.6105  0.1337
  122MOL0     N16386   8.977   7.098  10.941  0.5557 -0.0814 -0.6791
  122MOL0     C16387   8.631   6.760  10.815  0.6957  0.0210 -0.0483
  122MOL0     C16388   8.677   6.805  10.692 -0.1457 -0.8774  0.2314
  122MOL0     C16389   8.881   6.720  10.290  0.9922 -0.2107 -0.4862
  122MOL0     C16390   9.012   6.763  10.285 -0.0280  0.3012  0.6379
  122MOL0     C16391   9.073   6.806  10.166 -0.4266  0.8339  0.6226
  122MOL0     C16392   9.001   6.801  10.048 -0.4402 -0.4040  0.4525
  122MOL0     O16393   9.047   6.847   9.917  0.7051  0.5955  0.1967
  122MOL0     C16394   9.158   6.930   9.914  0.7272  0.2115  0.4921
  122MOL0     C16395   9.166   6.990   9.776  0.6798 -0.4079 -0.3351
  122MOL0     C16396   9.181   6.884   9.670 -0.3440  0.0262  0.3045
  122MOL0     C16397   9.163   6.951   9.537 -0.0579 -0.4586  0.3090
  122MOL0     C16398   9.286   7.029   9.499  0.1974 -0.3515  0.0160
  122MOL0     C16399   9.383   7.093   9.464  0.4601 -0.1642 -0.5531
  122MOL0     C16400   8.868   6.764  10.050 -0.6915  0.3679  0.3252
  122MOL0     C16401   8.804   6.725  10.174 -0.0986 -1.3250  0.2996
  122MOL0     C16402   8.663   6.686  10.167 -0.2563 -0.6617  0.0543
  122MOL0     H16403   8.587   6.535  10.508 -1.4280 -2.0238  0.9151
  122MOL0     H16404   8.500   6.466  10.730 -0.1312  0.6191  1.4601
  122MOL0     H16405   8.472   6.415  10.989  0.4258 -0.0590 -2.0024
  122MOL0     H16406   8.641   6.430  10.964 -0.1245 -0.0427  0.7600
  122MOL0     H16407   8.541   6.427  11.232  1.4740  0.0684 -0.1870
  122MOL0     H16408   8.563   6.594  11.195  1.1709  0.6269  0.4149
  122MOL0     H16409   8.784   6.377  11.149  2.3459 -0.5212  3.5241
  122MOL0     H16410   8.765   6.471  11.289  2.4507  0.1451 -0.5893
  122MOL0     H16411   8.939   6.558  11.112  1.6911  5.0069  4.1862
  122MOL0     H16412   8.783   6.603  11.024  0.7327  2.3736 -0.6088
  122MOL0     H16413   8.730   6.755  11.202 -0.6748 -1.6126  1.0261
  122MOL0     H16414   8.865   6.688  11.305 -0.7670 -1.6176  0.1839
  122MOL0     H16415   9.015   6.781  11.119 -1.9813 -1.2361 -2.2525
  122MOL0     H16416   8.865   6.851  11.053 -2.1273 -2.0824 -0.2790
  122MOL0     H16417   8.952   6.905  11.343  1.3261 -1.0698 -0.1494
  122MOL0     H16418   8.814   6.963  11.260  0.3039 -1.4168 -0.0751
  122MOL0     H16419   8.982   7.150  11.266 -1.0782 -0.4789  0.7271
  122MOL0     H16420   9.095   7.061  11.177 -0.4314  2.0849  1.2508
  122MOL0     H16421   8.732   7.174  11.140  0.5366 -0.9400  0.8903
  122MOL0     H16422   8.618   7.141  10.762  6.0132 -2.4748  0.5607
  122MOL0     H16423   8.553   7.143  10.928 -1.9630  0.5970 -0.9943
  122MOL0     H16424   8.515   7.374  10.835 -0.0617  0.1744 -0.6360
  122MOL0     H16425   8.637   7.364  10.959 -1.1126 -0.5344  1.4145
  122MOL0     H16426   8.668   7.459  10.669  1.9112  0.4785 -1.3315
  122MOL0     H16427   8.756   7.321  10.701 -2.4808 -1.1066 -0.3246
  122MOL0     H16428   8.736   7.570  10.902 -1.6716  0.9646 -1.0368
  122MOL0     H16429   8.823   7.587  10.750  0.8421 -1.2756 -0.3252
  122MOL0     H16430   8.937   7.431  10.606 -1.2659 -2.3653  1.8348
  122MOL0     H16431   9.141   7.410  10.499  1.2254  0.7588 -0.2228
  122MOL0     H16432   9.594   7.250  10.459  0.8041 -3.6493  1.1423
  122MOL0     H16433   9.848   7.214  10.430 -0.1336 -0.0994  0.3185
  122MOL0     H16434  10.022   7.303  10.377 -1.3959 -1.8189  1.0049
  122MOL0     H16435  10.079   7.449  10.450  0.1777  0.1821  2.7526
  122MOL0     H16436  10.285   7.313  10.552  1.2989  1.1590 -1.5049
  122MOL0     H16437  10.218   7.166  10.473 -1.4628 -0.4500  0.3414
  122MOL0     H16438  10.256   7.268  10.250 -2.5726  0.8881  0.7301
  122MOL0     H16439  10.323   7.408  10.329 -0.1857 -0.4990  1.2646
  122MOL0     H16440  10.447   7.135  10.343  0.5694  0.7165  0.6901
  122MOL0     H16441  10.489   7.268  10.444 -1.4701  4.4329 -0.2552
  122MOL0     H16442  10.550   7.403  10.230  0.2520 -0.1286 -2.2175
  122MOL0     H16443  10.473   7.272  10.128  0.7757  1.6463 -0.8366
  122MOL0     H16444  10.646   7.121  10.196  0.8034 -0.6612  1.0735
  122MOL0     H16445  10.706   7.256  10.119 -1.7353 -3.4526 -1.5035
  122MOL0     H16446  10.709   7.195  10.417  0.4542 -1.7046 -0.7414
  122MOL0     H16447  10.749   7.361  10.348 -2.2884  0.7770 -1.6454
  122MOL0     H16448  10.915   7.300  10.229 -0.1103  2.1092  1.9353
  122MOL0     H16449  10.946   7.199  10.379 -2.3797 -1.5769  1.0988
  122MOL0     H16450   9.913   7.428  10.796 -1.2338  0.1958  1.8137
  122MOL0     H16451   9.691   7.435  10.843  1.1391  0.4598 -0.0167
  122MOL0     H16452   9.345   7.431  10.886  1.5419  1.3630 -1.5965
  122MOL0     H16453   9.137   7.436  10.978  1.0134 -0.2922  0.6727
  122MOL0     H16454   8.651   6.829  10.897 -4.2166  4.5752 -2.0281
  122MOL0     H16455   8.723   6.901  10.673 -3.5454  0.9160  0.3421
  122MOL0     H16456   9.056   6.774  10.383 -0.3803  1.4600  0.6788
  122MOL0     H16457   9.172   6.849  10.179  0.6739 -1.4433  0.2965
  122MOL0     H16458   9.255   6.883   9.932  0.3507 -1.4496 -1.4290
  122MOL0     H16459   9.144   7.006   9.991  1.6228  0.6561  0.2185
  122MOL0     H16460   9.248   7.063   9.770 -0.2158  0.5133 -2.6037
  122MOL0     H16461   9.074   7.047   9.760  1.3835  1.6675  2.3588
  122MOL0     H16462   9.106   6.806   9.684  1.1187 -1.6138 -0.6089
  122MOL0     H16463   9.281   6.841   9.671 -1.5081 -3.0326  2.7850
  122MOL0     H16464   9.136   6.880   9.459  1.5683 -4.6591  3.2314
  122MOL0     H16465   9.081   7.024   9.539 -1.1490 -1.5834 -1.4512
  122MOL0     H16466   9.448   7.171   9.430 -0.7194  1.1061  0.0146
  122MOL0     H16467   8.821   6.739   9.956 -4.2258  1.5535  1.6017
  122MOL0     H16468   8.609   6.716  10.076  1.8902 -0.2406 -1.1365
  122MOL0     H16469   8.665   6.577  10.157  1.0446 -0.6193 -0.3609
  122MOL0     H16470   8.606   6.730  10.249 -0.8294  0.8873 -1.1052
  123MOL0     O16471   7.177   8.014  11.202  1.4021  0.5587 -0.0504
  123MOL0     C16472   7.142   7.900  11.234  0.5324  1.3891 -0.4558
  123MOL0     O16473   7.017   7.857  11.238  1.0018  0.1947 -0.1196
  123MOL0     C16474   6.923   7.956  11.257 -0.5664 -0.6911  0.0732
  123MOL0     C16475   6.846   8.016  11.159  0.9042 -0.5979  1.0611
  123MOL0     C16476   6.739   8.115  11.187 -0.1711 -0.0798 -0.0426
  123MOL0     C16477   6.719   8.148  11.319  0.6354  0.1895 -0.5017
  123MOL0     O16478   6.626   8.236  11.374  0.2147 -0.1529  0.5512
  123MOL0     C16479   6.547   8.312  11.281 -0.0652 -0.0125 -0.0448
  123MOL0     C16480   6.479   8.421  11.358  1.7034  0.1305 -0.4548
  123MOL0     C16481   6.431   8.539  11.274  0.3651  0.8391 -0.1825
  123MOL0     C16482   6.312   8.509  11.182  0.0033  0.0476 -0.1406
  123MOL0     C16483   6.177   8.543  11.258 -0.1812  0.1528  0.9310
  123MOL0     C16484   6.046   8.515  11.175  0.3054 -0.4531 -0.1118
  123MOL0     C16485   6.025   8.605  11.063 -1.6030  0.2208  0.3467
  123MOL0     C16486   5.890   8.579  10.995 -0.0997 -1.2367  0.1408
  123MOL0     N16487   5.879   8.626  10.857  0.5540  0.4547  0.2833
  123MOL0     C16488   5.846   8.754  10.825 -0.6689  0.9327 -0.1332
  123MOL0     C16489   5.839   8.750  10.688  0.1707  0.2278 -0.6305
  123MOL0     C16490   5.824   8.858  10.592  0.6732  0.4804 -0.4171
  123MOL0     C16491   5.684   8.930  10.573  1.5502  1.8431 -0.0927
  123MOL0     C16492   5.557   8.843  10.571  0.0155  0.4190  0.4191
  123MOL0     C16493   5.428   8.924  10.546  0.2053 -0.8459  0.3021
  123MOL0     O16494   5.310   8.836  10.570 -0.2499 -0.5607 -0.2754
  123MOL0     C16495   5.280   8.763  10.460 -0.0375  0.1206 -0.1268
  123MOL0     C16496   5.245   8.631  10.478  0.0914 -1.7184 -0.2781
  123MOL0     C16497   5.213   8.546  10.375 -0.4921  0.7844 -0.1010
  123MOL0     C16498   5.207   8.593  10.242 -0.1847 -0.2335  1.1792
  123MOL0     C16499   5.189   8.510  10.120  0.7341  0.7918 -0.4337
  123MOL0     O16500   5.244   8.554  10.001  0.6542 -0.1612 -0.4060
  123MOL0     C16501   5.213   8.470   9.899 -0.9325  0.0740  0.2124
  123MOL0     C16502   5.093   8.481   9.844  0.4275 -0.3722 -0.7798
  123MOL0     C16503   5.054   8.396   9.735  0.1421  0.2825  0.0908
  123MOL0     C16504   5.147   8.305   9.682  0.5645 -0.1528 -0.8055
  123MOL0     O16505   5.108   8.205   9.597 -0.3836 -0.5070 -0.1318
  123MOL0     C16506   4.975   8.200   9.535  0.0993  0.3624 -0.1615
  123MOL0     C16507   4.950   8.077   9.459  0.0966 -0.7302  0.1744
  123MOL0     C16508   4.805   8.070   9.421  0.3978  0.5774  0.6210
  123MOL0     C16509   4.761   7.923   9.367  0.8496 -0.3927  1.1936
  123MOL0     C16510   4.621   7.936   9.307  0.4044 -0.5824 -0.4883
  123MOL0     C16511   4.557   7.807   9.240  0.5878  0.1394 -0.0614
  123MOL0     C16512   4.654   7.722   9.146 -0.2956 -0.2701 -0.6087
  123MOL0     C16513   4.573   7.663   9.038 -0.6321 -0.3885 -0.1178
  123MOL0    Cl16514   4.405   7.586   9.079  0.0776  0.3138  0.0480
  123MOL0     C16515   5.268   8.295   9.740  0.0786  1.4061 -0.1475
  123MOL0     C16516   5.301   8.385   9.840 -0.1186  0.2901 -0.0686
  123MOL0     O16517   5.128   8.398  10.135  0.3500  0.8304 -0.4431
  123MOL0     C16518   5.236   8.731  10.217  0.0825 -0.9550  0.1670
  123MOL0     C16519   5.280   8.810  10.324  0.0894 -0.0485 -0.1349
  123MOL0     N16520   5.872   8.619  10.647  0.7742 -0.1905 -0.8035
  123MOL0     N16521   5.885   8.538  10.747  1.0929  0.3152  0.2332
  123MOL0     C16522   6.811   8.098  11.418 -0.4506 -1.3002  0.4078
  123MOL0     C16523   6.916   8.011  11.384  0.0061 -0.3520  0.0313
  123MOL0     C16524   7.237   7.799  11.273  0.6064 -0.0906 -1.8025
  123MOL0     C16525   7.200   7.695  11.364  0.5132  0.0175  0.0658
  123MOL0     C16526   7.288   7.590  11.404 -0.0645 -0.4104 -0.2213
  123MOL0     C16527   7.422   7.606  11.369 -0.8274  1.1659  0.0682
  123MOL0     O16528   7.528   7.524  11.421 -0.3087  0.3949  0.2985
  123MOL0     C16529   7.489   7.469  11.556  0.5872  0.1672  0.6454
  123MOL0     C16530   7.616   7.432  11.624 -0.2962 -0.2629  0.1816
  123MOL0     C16531   7.707   7.550  11.667  0.4620 -0.9222  0.7232
  123MOL0     C16532   7.655   7.635  11.785 -0.8071  0.9269  0.1384
  123MOL0     C16533   7.570   7.733  11.730 -0.8007  0.2725  0.0488
  123MOL0     C16534   7.477   7.798  11.682  0.4199  1.3612  0.2600
  123MOL0     C16535   7.453   7.698  11.267  0.0245 -0.4657 -0.4488
  123MOL0     C16536   7.366   7.794  11.221  0.1433  0.3571 -0.5802
  123MOL0     C16537   7.403   7.885  11.099 -0.5122 -0.2211  0.2639
  123MOL0     H16538   6.853   7.988  11.055  1.3106 -0.5777  1.0815
  123MOL0     H16539   6.681   8.165  11.110  1.9723 -1.2687 -2.5731
  123MOL0     H16540   6.606   8.360  11.203 -1.1109  0.7064 -0.4141
  123MOL0     H16541   6.474   8.252  11.224 -0.2231  0.6782 -0.5819
  123MOL0     H16542   6.551   8.465  11.427  0.2463  0.6517  0.7881
  123MOL0     H16543   6.396   8.384  11.419  0.9492  2.0691 -0.2267
  123MOL0     H16544   6.520   8.562  11.216  1.3655 -0.3356  0.8172
  123MOL0     H16545   6.416   8.631  11.332  1.9279  1.2104 -0.3399
  123MOL0     H16546   6.322   8.578  11.098  1.1946  0.0354 -0.0263
  123MOL0     H16547   6.313   8.407  11.143 -1.8993  0.0057 -0.1863
  123MOL0     H16548   6.176   8.487  11.352  2.2719 -0.4308  0.6728
  123MOL0     H16549   6.177   8.651  11.275  0.4134  0.4387 -0.7325
  123MOL0     H16550   6.053   8.414  11.134 -0.7580 -0.7788  0.4791
  123MOL0     H16551   5.956   8.518  11.238  1.6808 -1.3400  1.9995
  123MOL0     H16552   6.109   8.596  10.994 -1.7451  1.6518 -0.0625
  123MOL0     H16553   6.041   8.711  11.086  3.6014 -0.3829  0.7148
  123MOL0     H16554   5.872   8.471  10.985 -0.7887 -0.9363 -2.6388
  123MOL0     H16555   5.815   8.626  11.059 -0.3596 -3.1115  1.3080
  123MOL0     H16556   5.850   8.847  10.881  1.1942 -0.5979  2.4642
  123MOL0     H16557   5.884   8.944  10.623  0.6524  0.8445 -1.3601
  123MOL0     H16558   5.873   8.841  10.495  0.8238  1.5911 -0.5461
  123MOL0     H16559   5.672   9.006  10.651 -2.7093  3.9848 -2.4751
  123MOL0     H16560   5.691   8.994  10.484 -0.9745  2.8210  0.3389
  123MOL0     H16561   5.546   8.789  10.666  2.7401  1.6645  1.5589
  123MOL0     H16562   5.572   8.777  10.485 -0.9938 -0.9655  1.2461
  123MOL0     H16563   5.433   8.979  10.452 -1.6870 -1.9731 -0.5152
  123MOL0     H16564   5.418   8.994  10.629 -1.3831 -2.3221  1.4376
  123MOL0     H16565   5.249   8.600  10.582 -1.1751 -0.4197  0.2045
  123MOL0     H16566   5.186   8.447  10.411  2.3930  1.0953  3.4628
  123MOL0     H16567   5.015   8.547   9.882  1.2406 -0.8597  1.9734
  123MOL0     H16568   4.952   8.410   9.698  0.8044 -0.6333 -2.2532
  123MOL0     H16569   4.903   8.201   9.616 -0.1768 -1.8349 -0.3056
  123MOL0     H16570   4.952   8.288   9.475 -0.5388  1.4376  1.6048
  123MOL0     H16571   5.018   8.082   9.373 -0.0297  0.1616  0.1181
  123MOL0     H16572   4.982   7.985   9.507 -1.0946 -1.6931 -0.8074
  123MOL0     H16573   4.736   8.114   9.494 -1.4262 -0.8315 -0.1466
  123MOL0     H16574   4.793   8.146   9.343  0.0133 -0.3841 -0.2858
  123MOL0     H16575   4.772   7.851   9.448  1.3198 -0.4014  1.1269
  123MOL0     H16576   4.818   7.884   9.282 -0.4653 -2.1101  1.0713
  123MOL0     H16577   4.626   7.998   9.216 -2.3798 -2.3446 -2.0148
  123MOL0     H16578   4.552   7.975   9.383  3.2994  2.0984  0.9779
  123MOL0     H16579   4.541   7.743   9.328 -2.0299  1.3005  0.4056
  123MOL0     H16580   4.456   7.812   9.199  0.8570 -3.2357 -1.4698
  123MOL0     H16581   4.713   7.654   9.207 -2.5511 -0.3498  1.6846
  123MOL0     H16582   4.717   7.796   9.097 -0.8664 -0.0889 -1.0833
  123MOL0     H16583   4.564   7.750   8.973 -0.2495  2.2725  3.1255
  123MOL0     H16584   4.633   7.588   8.985 -0.9322 -1.8657  1.5483
  123MOL0     H16585   5.339   8.214   9.726  1.2775  1.0030  5.6219
  123MOL0     H16586   5.405   8.378   9.871  0.0718  2.3308 -0.1453
  123MOL0     H16587   5.238   8.780  10.120  2.4691  1.6824  1.4000
  123MOL0     H16588   5.305   8.912  10.298  0.0673  0.3857  1.4419
  123MOL0     H16589   6.798   8.130  11.521 -1.1542  0.6089 -0.2147
  123MOL0     H16590   6.982   7.970  11.460  0.3072  2.9131  1.6733
  123MOL0     H16591   7.101   7.691  11.408  0.0472  2.5509 -0.6242
  123MOL0     H16592   7.252   7.510  11.467  2.9654 -0.2810  1.8881
  123MOL0     H16593   7.425   7.382  11.539  0.6490 -0.1380  1.8254
  123MOL0     H16594   7.435   7.541  11.618 -0.5140 -0.0576 -0.0266
  123MOL0     H16595   7.662   7.372  11.545 -0.7722  0.2061 -0.4625
  123MOL0     H16596   7.601   7.368  11.711 -1.5604 -0.4190 -0.1359
  123MOL0     H16597   7.746   7.612  11.586 -0.3071 -1.8070 -0.3490
  123MOL0     H16598   7.794   7.495  11.705 -0.8856 -2.2410  2.0116
  123MOL0     H16599   7.601   7.576  11.860 -0.4362  2.1944  1.4406
  123MOL0     H16600   7.741   7.680  11.835  0.0485 -0.6623  0.1582
  123MOL0     H16601   7.395   7.844  11.631 -0.1890 -1.5258 -1.5617
  123MOL0     H16602   7.558   7.696  11.238 -0.4215 -0.8617 -2.1202
  123MOL0     H16603   7.321   7.875  11.027  0.5385 -4.1288 -0.6513
  123MOL0     H16604   7.398   7.991  11.126 -0.4915  0.4174 -2.0915
  123MOL0     H16605   7.495   7.863  11.044 -0.1593  1.3849  0.1566
  124MOL0     O16606   2.829   2.859   3.439 -0.4685  0.5432 -0.3362
  124MOL0     C16607   2.870   2.910   3.338 -0.3625 -0.1465 -0.1557
  124MOL0     O16608   2.986   2.977   3.325  0.2015 -0.0698  0.3803
  124MOL0     C16609   3.045   3.018   3.444 -1.2681 -0.7412  0.1974
  124MOL0     C16610   2.992   3.100   3.542 -0.1525 -0.0544 -0.2616
  124MOL0     C16611   3.065   3.131   3.653 -0.3692  0.3180 -0.0518
  124MOL0     C16612   3.200   3.090   3.667  0.0365  0.6201  0.0619
  124MOL0     O16613   3.274   3.137   3.769 -0.5425 -0.2864 -0.0374
  124MOL0     C16614   3.389   3.217   3.747 -0.3223 -0.7148 -0.1970
  124MOL0     C16615   3.366   3.364   3.777 -0.1939 -0.0559  0.4783
  124MOL0     C16616   3.458   3.458   3.689  0.9520 -0.5242  0.4379
  124MOL0     C16617   3.412   3.453   3.537  0.1850 -0.6073 -0.1541
  124MOL0     C16618   3.482   3.568   3.458 -0.1003  0.7640 -0.0071
  124MOL0     C16619   3.626   3.533   3.415  0.0960 -0.0317 -0.4811
  124MOL0     C16620   3.680   3.665   3.347 -0.3857 -0.2721 -0.1140
  124MOL0     C16621   3.789   3.645   3.239 -0.8098 -0.5440  0.3125
  124MOL0     N16622   3.794   3.777   3.161 -0.0605 -0.9133 -0.0920
  124MOL0     C16623   3.875   3.886   3.187 -0.5434  0.3472 -0.6897
  124MOL0     C16624   3.824   3.987   3.115  0.9552 -0.7263  0.0505
  124MOL0     C16625   3.889   4.126   3.110 -0.2024  0.0623  1.2268
  124MOL0     C16626   4.050   4.100   3.088  0.3762  0.8424  1.1349
  124MOL0     C16627   4.119   4.203   2.997 -0.6471 -0.9126 -0.9226
  124MOL0     C16628   4.135   4.336   3.086  0.5204 -0.5402 -0.3346
  124MOL0     O16629   4.143   4.438   2.982 -1.1216 -0.1677 -0.1467
  124MOL0     C16630   4.258   4.509   2.998 -0.6460 -1.0411  0.7419
  124MOL0     C16631   4.295   4.576   3.117 -0.2111 -0.8565  0.9085
  124MOL0     C16632   4.416   4.649   3.121  0.1815 -0.5994 -0.5688
  124MOL0     C16633   4.504   4.660   3.008  0.6148 -0.1523  0.1708
  124MOL0     C16634   4.631   4.734   3.007 -0.6154 -0.3949 -0.0499
  124MOL0     O16635   4.649   4.807   3.121 -0.3374  0.1259  0.8053
  124MOL0     C16636   4.774   4.855   3.145  1.4281  0.3641  0.2658
  124MOL0     C16637   4.892   4.779   3.162 -1.0877  0.0121 -0.1974
  124MOL0     C16638   5.018   4.837   3.183 -0.1563 -0.4901  0.0816
  124MOL0     C16639   5.024   4.972   3.200  0.0106 -0.5599  0.9011
  124MOL0     O16640   5.148   5.032   3.223 -0.6118  0.1585 -0.1496
  124MOL0     C16641   5.135   5.145   3.305  0.6452  0.0156 -0.0355
  124MOL0     C16642   5.265   5.175   3.397  0.9256  0.4038  0.2065
  124MOL0     C16643   5.378   5.204   3.306 -0.2886 -0.2026  0.7613
  124MOL0     C16644   5.501   5.242   3.383 -0.2705 -0.3591  0.9882
  124MOL0     C16645   5.617   5.254   3.284  0.2379  0.6321  0.3433
  124MOL0     C16646   5.749   5.295   3.366  0.0268  0.2309  0.2597
  124MOL0     C16647   5.888   5.307   3.285  0.3234  0.6790 -0.1513
  124MOL0     C16648   5.995   5.343   3.377 -0.4391 -0.7580 -0.7574
  124MOL0    Cl16649   6.163   5.309   3.311 -0.1538 -0.1066 -0.3059
  124MOL0     C16650   4.906   5.048   3.186  0.2790 -0.4247 -0.5796
  124MOL0     C16651   4.780   4.991   3.164 -0.8605 -0.7633 -0.3519
  124MOL0     O16652   4.714   4.721   2.911  0.7002 -0.5899  0.2161
  124MOL0     C16653   4.461   4.592   2.891  0.8542 -0.0316  0.7606
  124MOL0     C16654   4.336   4.530   2.884  0.4613  0.5837  1.0923
  124MOL0     N16655   3.713   3.944   3.039  0.1475 -0.1897 -0.1957
  124MOL0     N16656   3.689   3.822   3.080 -0.1951  0.5443 -0.1829
  124MOL0     C16657   3.262   3.006   3.573 -0.3500 -0.0076 -0.3481
  124MOL0     C16658   3.181   2.976   3.464 -0.0713 -0.4336  0.4595
  124MOL0     C16659   2.778   2.909   3.216  0.2386 -0.1524 -0.1724
  124MOL0     C16660   2.689   2.802   3.207  0.3981  0.2933 -0.4876
  124MOL0     C16661   2.585   2.798   3.114  1.1395 -0.1749 -0.0418
  124MOL0     C16662   2.584   2.894   3.006  1.0261  0.5139 -0.1786
  124MOL0     O16663   2.466   2.890   2.934  0.6813  0.2422  0.0595
  124MOL0     C16664   2.427   3.013   2.873 -0.5721 -0.1830 -0.3039
  124MOL0     C16665   2.289   2.999   2.810  0.3894 -0.1829 -0.2303
  124MOL0     C16666   2.228   3.127   2.753 -0.2743 -0.5599  0.9744
  124MOL0     C16667   2.093   3.100   2.688  0.1555 -0.4200  0.5433
  124MOL0     C16668   2.060   3.217   2.600 -0.0903  0.5158  0.5665
  124MOL0     C16669   2.050   3.321   2.530  0.1172 -0.4767 -0.9037
  124MOL0     C16670   2.683   2.995   3.005 -0.5738  0.3418  0.4917
  124MOL0     C16671   2.774   3.012   3.115  0.6629 -0.3864  0.6036
  124MOL0     C16672   2.882   3.117   3.104  0.6151  0.2963  1.2456
  124MOL0     H16673   2.893   3.139   3.520  0.7110  0.4534 -4.0799
  124MOL0     H16674   3.013   3.187   3.730 -2.6341  0.9609 -1.8934
  124MOL0     H16675   3.475   3.175   3.800  0.2468 -0.3033 -0.7821
  124MOL0     H16676   3.422   3.218   3.643 -1.0860 -0.1862 -0.4392
  124MOL0     H16677   3.393   3.383   3.881  3.9113 -1.0755 -0.2236
  124MOL0     H16678   3.261   3.386   3.757 -0.0496  0.3984  0.2005
  124MOL0     H16679   3.565   3.436   3.691  1.1982  0.6536  1.2174
  124MOL0     H16680   3.446   3.560   3.728 -0.5588 -0.7613  0.6448
  124MOL0     H16681   3.434   3.354   3.495 -0.5850 -1.2578  0.9042
  124MOL0     H16682   3.303   3.454   3.532  0.1601  0.3545  0.3305
  124MOL0     H16683   3.423   3.591   3.368 -1.5714  0.6936  0.9108
  124MOL0     H16684   3.481   3.657   3.521 -2.5478  0.2184  0.8379
  124MOL0     H16685   3.690   3.502   3.498  1.7190 -1.1638 -2.0697
  124MOL0     H16686   3.629   3.455   3.338  2.1859 -0.7033  0.2216
  124MOL0     H16687   3.730   3.728   3.422 -2.1880  1.0558  0.0296
  124MOL0     H16688   3.604   3.718   3.289  0.0166  0.5330  0.0835
  124MOL0     H16689   3.887   3.631   3.287 -1.0065 -0.2724  0.8001
  124MOL0     H16690   3.748   3.563   3.179 -2.5567  0.6733 -0.2523
  124MOL0     H16691   3.960   3.883   3.254  0.5560 -1.1351 -2.0728
  124MOL0     H16692   3.854   4.162   3.013 -0.1218  0.0700  1.2002
  124MOL0     H16693   3.861   4.191   3.193  0.4802 -0.1492  1.6379
  124MOL0     H16694   4.094   4.072   3.183 -0.0808 -1.1113  0.8050
  124MOL0     H16695   4.065   4.004   3.038 -0.0689  0.3281  1.9657
  124MOL0     H16696   4.057   4.217   2.909 -3.4263 -2.9953  0.5510
  124MOL0     H16697   4.217   4.169   2.961  2.3024  3.7580  1.7214
  124MOL0     H16698   4.216   4.305   3.153  0.0859 -1.4659 -0.2138
  124MOL0     H16699   4.043   4.360   3.140 -1.3945 -0.9457 -3.1946
  124MOL0     H16700   4.227   4.567   3.202  1.6020 -0.2384  2.5039
  124MOL0     H16701   4.445   4.692   3.216 -0.8955  1.2014 -1.0076
  124MOL0     H16702   4.884   4.670   3.163 -1.3767  0.0314  0.2723
  124MOL0     H16703   5.099   4.765   3.199 -1.6142 -1.6238  3.1553
  124MOL0     H16704   5.128   5.236   3.245  2.4722  1.0501  1.2126
  124MOL0     H16705   5.048   5.130   3.369  0.8761 -1.1743  0.0150
  124MOL0     H16706   5.241   5.262   3.459  2.4309  3.2714 -2.9316
  124MOL0     H16707   5.290   5.086   3.455  2.3268  1.3037  1.0249
  124MOL0     H16708   5.409   5.116   3.250  0.1095  2.9266 -4.5936
  124MOL0     H16709   5.353   5.274   3.226 -1.0250 -2.2218 -0.8502
  124MOL0     H16710   5.527   5.161   3.451 -1.6027 -0.8079  0.9930
  124MOL0     H16711   5.482   5.333   3.440  1.1494 -1.3005  3.1212
  124MOL0     H16712   5.598   5.320   3.199 -1.3744 -0.6068 -0.3130
  124MOL0     H16713   5.635   5.158   3.236 -2.1835  1.0862 -1.6705
  124MOL0     H16714   5.724   5.387   3.419 -1.7928 -0.8332  1.3601
  124MOL0     H16715   5.757   5.219   3.444 -1.2940 -1.2453 -0.9622
  124MOL0     H16716   5.877   5.390   3.215 -2.3228  0.6182  0.1042
  124MOL0     H16717   5.918   5.211   3.242  3.0716  1.1734  0.4773
  124MOL0     H16718   5.976   5.449   3.398  0.5027 -1.0323  1.8220
  124MOL0     H16719   5.988   5.285   3.469  1.9304  1.6342  1.0928
  124MOL0     H16720   4.920   5.155   3.190 -0.6665 -0.2295 -1.8416
  124MOL0     H16721   4.699   5.062   3.177  0.9343  0.9559  2.4768
  124MOL0     H16722   4.521   4.609   2.803  1.3232  0.9110  1.2461
  124MOL0     H16723   4.311   4.490   2.786 -0.0209  4.9872 -0.8265
  124MOL0     H16724   3.363   2.973   3.596 -0.7781 -0.3521  1.1131
  124MOL0     H16725   3.225   2.914   3.387  2.2467  0.2884  1.1077
  124MOL0     H16726   2.678   2.720   3.276  0.5332  0.8781  0.2443
  124MOL0     H16727   2.509   2.722   3.131 -2.2145  3.1806  1.2875
  124MOL0     H16728   2.494   3.021   2.787 -0.5761 -2.9181 -0.6578
  124MOL0     H16729   2.419   3.092   2.948 -0.1110 -1.3573  1.0062
  124MOL0     H16730   2.218   2.958   2.882  0.6363  0.7548  0.5668
  124MOL0     H16731   2.286   2.923   2.731 -2.9891  0.4057 -0.7935
  124MOL0     H16732   2.294   3.172   2.678 -0.9675  0.6614  1.0764
  124MOL0     H16733   2.220   3.196   2.837  0.3293 -0.3990  0.9026
  124MOL0     H16734   2.093   3.011   2.624  0.3435  1.8539 -2.8490
  124MOL0     H16735   2.014   3.084   2.763 -1.3621 -3.1987 -1.4526
  124MOL0     H16736   2.048   3.416   2.480  2.7831 -0.2245 -0.6666
  124MOL0     H16737   2.689   3.076   2.933  1.4538  0.3142  0.5728
  124MOL0     H16738   2.975   3.087   3.055  1.3241  3.2585  0.6158
  124MOL0     H16739   2.841   3.190   3.034  1.8593  0.2666  0.4544
  124MOL0     H16740   2.908   3.156   3.203 -1.6409  1.5156  1.4255
  125MOL0     O16741   5.879   8.652   2.449 -0.8110  0.5272 -0.2402
  125MOL0     C16742   5.948   8.750   2.456 -0.4900 -1.3787  0.0349
  125MOL0     O16743   6.066   8.746   2.517  0.0077 -0.2027  0.4415
  125MOL0     C16744   6.103   8.626   2.576  0.1381  1.1925 -0.1402
  125MOL0     C16745   6.056   8.604   2.705  0.4086 -0.8038 -0.1389
  125MOL0     C16746   6.082   8.486   2.769 -0.2410 -0.1236 -0.1888
  125MOL0     C16747   6.159   8.384   2.701 -0.9088 -0.5638  1.0644
  125MOL0     O16748   6.197   8.281   2.784 -1.0027 -0.2587 -0.2287
  125MOL0     C16749   6.109   8.163   2.790  0.1732 -0.1598 -0.5085
  125MOL0     C16750   6.155   8.072   2.902 -0.8989 -0.3510  0.2340
  125MOL0     C16751   6.152   8.146   3.039 -0.3660 -0.4001  0.5623
  125MOL0     C16752   6.208   8.043   3.137  0.0267  0.1599  0.6890
  125MOL0     C16753   6.241   8.103   3.268 -0.6149 -0.5312 -0.1682
  125MOL0     C16754   6.296   7.999   3.363 -0.6753 -0.2032 -0.2828
  125MOL0     C16755   6.357   8.062   3.490  0.1511  0.5571 -0.5084
  125MOL0     C16756   6.510   8.066   3.480 -0.0267  0.3264  0.0082
  125MOL0     N16757   6.563   7.962   3.572  0.0886 -0.2816 -0.1291
  125MOL0     C16758   6.558   7.828   3.546  0.6228 -0.1479 -0.3484
  125MOL0     C16759   6.600   7.774   3.661 -0.0606  1.9804  1.1961
  125MOL0     C16760   6.621   7.622   3.695  0.2379  0.6959  0.3958
  125MOL0     C16761   6.503   7.567   3.778  0.6381  0.5285  0.2441
  125MOL0     C16762   6.432   7.438   3.719  1.1630  1.0426  0.2462
  125MOL0     C16763   6.400   7.440   3.562  0.3999 -0.3103 -0.9527
  125MOL0     O16764   6.317   7.549   3.519  0.0431  0.1309  0.3771
  125MOL0     C16765   6.279   7.555   3.383 -0.4505  0.3699  0.3423
  125MOL0     C16766   6.191   7.652   3.346  0.1378 -0.6251 -0.4941
  125MOL0     C16767   6.145   7.652   3.217 -0.5000 -0.3261  0.3209
  125MOL0     C16768   6.183   7.563   3.115  0.3434  0.5874  0.0223
  125MOL0     C16769   6.117   7.565   2.980 -0.5683  0.0912 -0.1350
  125MOL0     O16770   6.030   7.669   2.953  0.2339  0.2843  0.1455
  125MOL0     C16771   6.039   7.727   2.830 -1.4179  0.6984  0.4480
  125MOL0     C16772   5.927   7.755   2.755  0.1227  0.8297 -0.7297
  125MOL0     C16773   5.937   7.834   2.638  0.3460  0.8101  0.7112
  125MOL0     C16774   6.064   7.868   2.580  0.1383  0.3008  0.5437
  125MOL0     O16775   6.107   7.959   2.485  0.5083 -0.9545 -0.2075
  125MOL0     C16776   5.999   8.040   2.448  0.0983  0.1045 -0.5105
  125MOL0     C16777   6.009   8.100   2.300  0.9160  0.2396 -0.8960
  125MOL0     C16778   6.099   8.228   2.287 -0.5433  0.3155  0.6453
  125MOL0     C16779   6.094   8.275   2.144 -0.2677 -0.4247  0.3486
  125MOL0     C16780   6.235   8.352   2.110  0.1730  0.9399  0.3129
  125MOL0     C16781   6.234   8.399   1.965  0.3390  0.5604 -0.4260
  125MOL0     C16782   6.382   8.407   1.925 -0.2392  0.0944  1.1958
  125MOL0     C16783   6.393   8.507   1.811 -0.4820 -0.4053  0.1157
  125MOL0    Cl16784   6.343   8.435   1.659 -0.1615 -0.6981  0.4982
  125MOL0     C16785   6.178   7.813   2.642 -0.1412 -0.7496 -0.1063
  125MOL0     C16786   6.167   7.747   2.768 -0.4245 -0.2281  0.3861
  125MOL0     O16787   6.167   7.486   2.898 -0.0255  0.4614 -0.3260
  125MOL0     C16788   6.267   7.466   3.160 -0.0133 -0.3651 -0.2234
  125MOL0     C16789   6.319   7.463   3.291 -0.3949 -0.0440 -0.5071
  125MOL0     N16790   6.639   7.869   3.754  0.2293  0.4299  0.2081
  125MOL0     N16791   6.602   7.986   3.703 -0.3476  0.8049 -0.9664
  125MOL0     C16792   6.203   8.406   2.563  0.0486  0.1548  1.1218
  125MOL0     C16793   6.179   8.529   2.507 -0.9257 -0.0963 -0.3897
  125MOL0     C16794   5.903   8.883   2.416  0.4449 -0.2471 -0.1278
  125MOL0     C16795   5.990   8.978   2.364  0.3994 -0.1410  0.7392
  125MOL0     C16796   5.945   9.104   2.338 -0.2641  0.6172 -0.1488
  125MOL0     C16797   5.827   9.157   2.375  1.2490 -0.4792  0.0592
  125MOL0     O16798   5.795   9.292   2.343 -0.0107  0.2233  0.3569
  125MOL0     C16799   5.716   9.370   2.433 -0.2888  0.5598  0.3907
  125MOL0     C16800   5.744   9.511   2.393 -0.1960  0.0104  0.1270
  125MOL0     C16801   5.881   9.561   2.421  1.0594 -0.4153 -0.0753
  125MOL0     C16802   5.920   9.689   2.368 -0.1575  0.1444 -1.2770
  125MOL0     C16803   5.840   9.803   2.429  0.1187  0.3896  0.5769
  125MOL0     C16804   5.775   9.894   2.482 -0.0947  0.2903 -0.4154
  125MOL0     C16805   5.740   9.069   2.431  0.2889 -0.0146 -0.3243
  125MOL0     C16806   5.777   8.931   2.461 -0.0548 -1.4319  0.5979
  125MOL0     C16807   5.684   8.846   2.549 -1.2513 -0.0281 -0.5771
  125MOL0     H16808   6.006   8.680   2.765  1.3842  0.7275 -1.1901
  125MOL0     H16809   6.039   8.446   2.860 -1.8600 -2.3024 -1.7894
  125MOL0     H16810   6.011   8.207   2.813  0.7100  1.2032 -0.7334
  125MOL0     H16811   6.120   8.119   2.690  2.5807  0.3782 -0.5375
  125MOL0     H16812   6.251   8.024   2.881  1.3133  3.8474 -0.3708
  125MOL0     H16813   6.083   7.990   2.913  1.7498 -2.6686  1.6169
  125MOL0     H16814   6.048   8.167   3.063 -0.2627 -0.7661  1.3810
  125MOL0     H16815   6.198   8.246   3.038 -0.4747 -0.3332 -1.2733
  125MOL0     H16816   6.138   7.960   3.147  1.0307 -1.0095 -1.2060
  125MOL0     H16817   6.308   8.011   3.105  0.6633 -0.4183  3.0566
  125MOL0     H16818   6.318   8.179   3.250 -0.0514 -0.7086  1.3357
  125MOL0     H16819   6.148   8.140   3.312 -1.9430 -2.9000 -0.8207
  125MOL0     H16820   6.210   7.944   3.403 -0.6187  0.9185  1.5283
  125MOL0     H16821   6.366   7.937   3.307  1.8091  1.8174  0.3764
  125MOL0     H16822   6.336   8.002   3.579  0.3314  3.1285  1.3918
  125MOL0     H16823   6.333   8.166   3.517  0.3040  0.6499 -0.7211
  125MOL0     H16824   6.551   8.042   3.382  1.2145 -1.4117  0.9037
  125MOL0     H16825   6.542   8.164   3.518  2.9624 -1.9227  4.0452
  125MOL0     H16826   6.524   7.778   3.455 -0.2929 -2.2153  1.0581
  125MOL0     H16827   6.648   7.554   3.614  1.3098  1.4722  0.0849
  125MOL0     H16828   6.716   7.625   3.749  1.7632  0.1727 -2.1248
  125MOL0     H16829   6.542   7.540   3.877  0.6215  2.2108  0.7351
  125MOL0     H16830   6.432   7.648   3.798  1.2769  1.0586  0.4048
  125MOL0     H16831   6.333   7.429   3.764  1.0890 -2.4096 -0.3346
  125MOL0     H16832   6.487   7.346   3.740 -1.4859 -0.4664  1.0184
  125MOL0     H16833   6.351   7.344   3.544  1.4612 -0.8031 -1.3271
  125MOL0     H16834   6.496   7.445   3.510  1.7518  1.8754  1.5172
  125MOL0     H16835   6.159   7.710   3.433  0.7994  0.5523 -1.0074
  125MOL0     H16836   6.086   7.738   3.186  1.6166  0.3142 -2.3072
  125MOL0     H16837   5.830   7.734   2.797  0.8563  1.4790  1.4127
  125MOL0     H16838   5.847   7.864   2.584  2.3238  1.5039 -2.4845
  125MOL0     H16839   5.906   7.985   2.461  0.1750  0.3796  1.5963
  125MOL0     H16840   5.989   8.120   2.523  1.3934 -0.5444  0.3981
  125MOL0     H16841   6.040   8.012   2.242 -4.6722 -2.3363 -0.6116
  125MOL0     H16842   5.908   8.136   2.277  0.4527  0.9276  1.9157
  125MOL0     H16843   6.066   8.304   2.358 -0.3183  0.1361  0.9421
  125MOL0     H16844   6.199   8.206   2.324 -0.3962  1.2925  0.8457
  125MOL0     H16845   6.015   8.348   2.121 -1.4473 -1.2738  1.6026
  125MOL0     H16846   6.098   8.192   2.073  1.2388  0.2697 -0.4293
  125MOL0     H16847   6.305   8.271   2.133  1.2767  1.1140 -2.0614
  125MOL0     H16848   6.258   8.434   2.178 -1.7940 -0.4408  2.7952
  125MOL0     H16849   6.183   8.322   1.907 -1.0312 -0.2793  1.7570
  125MOL0     H16850   6.178   8.493   1.961 -2.3013 -0.8813  0.1497
  125MOL0     H16851   6.425   8.315   1.885 -0.6806  0.0903  0.7239
  125MOL0     H16852   6.445   8.415   2.015 -0.5654 -0.0530  1.4388
  125MOL0     H16853   6.330   8.594   1.831  1.2323  0.9225 -0.0753
  125MOL0     H16854   6.495   8.546   1.806 -1.0675  1.3674  1.1299
  125MOL0     H16855   6.278   7.846   2.618 -0.8013  0.4193 -1.4126
  125MOL0     H16856   6.253   7.710   2.822  0.5362 -1.6775 -1.9610
  125MOL0     H16857   6.305   7.384   3.100 -2.1450 -1.1370 -0.6059
  125MOL0     H16858   6.391   7.384   3.308 -0.9119 -0.5107 -0.4765
  125MOL0     H16859   6.260   8.332   2.507  0.3653  2.2784 -1.6158
  125MOL0     H16860   6.201   8.555   2.404  0.5136 -2.1146 -0.6390
  125MOL0     H16861   6.092   8.958   2.332  0.1526 -0.2266 -0.0260
  125MOL0     H16862   6.024   9.175   2.316  1.9222 -0.1409  4.1624
  125MOL0     H16863   5.751   9.368   2.537  0.7848  0.2091  0.0462
  125MOL0     H16864   5.610   9.343   2.429 -0.1506  0.1141 -1.0028
  125MOL0     H16865   5.678   9.578   2.449 -1.2786  2.5262 -3.7739
  125MOL0     H16866   5.733   9.511   2.284  1.6124  0.6335 -0.0800
  125MOL0     H16867   5.943   9.482   2.377 -0.7582  0.3666 -4.6346
  125MOL0     H16868   5.893   9.567   2.529  0.6247  0.4319 -0.0637
  125MOL0     H16869   6.023   9.719   2.384 -0.1499 -0.9315  1.0520
  125MOL0     H16870   5.909   9.673   2.260  2.2289 -2.8837 -1.2286
  125MOL0     H16871   5.719   9.970   2.532  0.7280  1.0133 -0.5681
  125MOL0     H16872   5.639   9.105   2.448 -0.0245  0.1239 -2.3100
  125MOL0     H16873   5.665   8.761   2.482 -1.0251  1.5055 -2.7015
  125MOL0     H16874   5.731   8.828   2.646 -0.9935  2.0798 -0.2626
  125MOL0     H16875   5.586   8.891   2.565 -3.2581 -3.3263 -2.5008
  126MOL0     O16876   5.787   5.585   3.057 -0.0258  0.5087 -0.0462
  126MOL0     C16877   5.889   5.616   2.990  0.1021 -0.3924 -1.0027
  126MOL0     O16878   6.006   5.649   3.050  0.0757 -0.3784  0.3013
  126MOL0     C16879   6.016   5.692   3.184 -0.3611  0.3004  0.4621
  126MOL0     C16880   6.146   5.666   3.237 -0.5653 -0.7662  0.6716
  126MOL0     C16881   6.169   5.701   3.370 -0.6098  0.5952 -0.5410
  126MOL0     C16882   6.077   5.762   3.450 -0.4514  0.1072 -0.6185
  126MOL0     O16883   6.090   5.788   3.584 -0.1698  0.2008  0.4771
  126MOL0     C16884   6.210   5.744   3.659 -0.5236  1.0616  1.0435
  126MOL0     C16885   6.188   5.792   3.805 -1.0654  0.4088 -0.7289
  126MOL0     C16886   6.057   5.750   3.867  0.5728 -0.7632 -0.6728
  126MOL0     C16887   6.047   5.787   4.018  0.0384  0.4887 -0.7720
  126MOL0     C16888   5.936   5.730   4.110  0.0658 -0.2871  0.3963
  126MOL0     C16889   5.944   5.577   4.132  0.4507  0.0131  0.3912
  126MOL0     C16890   5.815   5.537   4.210  0.5100 -1.0959  0.6122
  126MOL0     C16891   5.849   5.432   4.318  0.1188  0.1326 -0.2825
  126MOL0     N16892   5.855   5.302   4.254  0.4696  0.8340  0.9564
  126MOL0     C16893   5.962   5.208   4.245  0.0549  0.4916 -0.2398
  126MOL0     C16894   5.910   5.093   4.210  0.2851 -1.3471 -0.0019
  126MOL0     C16895   5.979   4.975   4.168 -0.0053  0.3079 -0.8133
  126MOL0     C16896   5.925   4.842   4.230  1.5096  0.5275  0.1097
  126MOL0     C16897   5.910   4.833   4.383  0.7753 -0.1470 -0.2423
  126MOL0     C16898   5.925   4.702   4.459  0.2941 -0.1766 -0.0557
  126MOL0     O16899   5.886   4.725   4.600 -0.2025 -0.3759  0.1736
  126MOL0     C16900   5.927   4.639   4.702 -0.4717 -0.5310 -0.3571
  126MOL0     C16901   6.055   4.591   4.716  0.2852  0.4513 -0.3513
  126MOL0     C16902   6.070   4.484   4.809 -0.6150 -0.6913 -0.3606
  126MOL0     C16903   5.974   4.435   4.895 -0.0060 -0.7752 -0.6612
  126MOL0     C16904   6.005   4.344   4.999  0.5029  1.6303  0.2711
  126MOL0     O16905   6.127   4.297   4.997 -0.4957 -0.9744  0.9445
  126MOL0     C16906   6.179   4.185   5.053  0.8541  0.5770 -0.5864
  126MOL0     C16907   6.107   4.061   5.041 -1.5753 -0.0987 -0.4966
  126MOL0     C16908   6.157   3.952   5.107  0.2751  0.3537  0.1503
  126MOL0     C16909   6.272   3.958   5.189  0.4512  0.8561 -0.0565
  126MOL0     O16910   6.319   3.855   5.270  0.6033  0.3225  0.2593
  126MOL0     C16911   6.237   3.736   5.283 -0.0303  0.8541  0.4126
  126MOL0     C16912   6.300   3.629   5.375 -0.0780 -0.4943 -0.6492
  126MOL0     C16913   6.325   3.678   5.515  0.2269 -0.8595 -0.2940
  126MOL0     C16914   6.411   3.581   5.600  0.3473 -0.2637 -0.5194
  126MOL0     C16915   6.415   3.630   5.748 -0.2983  0.0080 -0.4925
  126MOL0     C16916   6.443   3.513   5.848 -0.3487  0.2948 -0.0768
  126MOL0     C16917   6.387   3.539   5.992 -0.4451  1.0185 -1.1847
  126MOL0     C16918   6.421   3.404   6.078  1.0392 -0.4906  0.1064
  126MOL0    Cl16919   6.606   3.389   6.074  0.3421 -0.4605 -0.0091
  126MOL0     C16920   6.340   4.085   5.192  0.0949  0.9044  0.3028
  126MOL0     C16921   6.291   4.192   5.129  0.4829 -1.4417 -0.2733
  126MOL0     O16922   5.911   4.298   5.067  0.5281  0.4834  0.3608
  126MOL0     C16923   5.843   4.501   4.884  0.1514 -0.0921  0.2635
  126MOL0     C16924   5.825   4.600   4.791  0.0319  0.3625 -0.0217
  126MOL0     N16925   5.769   5.111   4.216  0.0985  0.2543  0.4022
  126MOL0     N16926   5.740   5.232   4.247 -0.3536  0.0066  0.7688
  126MOL0     C16927   5.952   5.792   3.394 -0.6394  0.8262  0.4155
  126MOL0     C16928   5.917   5.759   3.262  0.5068 -0.0047  0.2767
  126MOL0     C16929   5.892   5.610   2.844 -0.1009  0.7007  0.5687
  126MOL0     C16930   6.002   5.654   2.763 -0.2866 -0.6641  0.5792
  126MOL0     C16931   6.007   5.642   2.621  0.5177  0.1787 -0.1879
  126MOL0     C16932   5.908   5.579   2.545 -0.5477  0.4496 -0.4124
  126MOL0     O16933   5.918   5.564   2.409 -0.0290  0.2160  0.1508
  126MOL0     C16934   5.806   5.485   2.340 -0.3344 -0.0668 -0.2428
  126MOL0     C16935   5.821   5.500   2.185 -0.2817 -0.2890 -0.7744
  126MOL0     C16936   5.967   5.514   2.142 -0.2548  0.4288 -0.2632
  126MOL0     C16937   5.983   5.472   1.995  0.0934 -0.3876 -0.6142
  126MOL0     C16938   5.998   5.331   1.974 -0.9467  1.2376 -0.0319
  126MOL0     C16939   5.999   5.207   1.945 -0.1392  0.7323 -0.2006
  126MOL0     C16940   5.801   5.528   2.624 -0.7002  0.3484  0.9439
  126MOL0     C16941   5.789   5.548   2.758  0.2180 -0.1614  0.9234
  126MOL0     C16942   5.669   5.470   2.814 -0.4429 -0.2870  0.4112
  126MOL0     H16943   6.224   5.624   3.175  0.3211 -0.6473  1.6631
  126MOL0     H16944   6.268   5.680   3.409  0.2993 -1.7529 -3.6586
  126MOL0     H16945   6.221   5.635   3.658  4.4184  1.2860 -1.7964
  126MOL0     H16946   6.300   5.783   3.610 -1.6005  3.1794  0.6432
  126MOL0     H16947   6.203   5.900   3.810  1.3368  0.1232 -0.5774
  126MOL0     H16948   6.274   5.761   3.866 -1.6651  1.0631  0.4701
  126MOL0     H16949   6.027   5.645   3.878 -3.1652  0.3430  1.5856
  126MOL0     H16950   5.973   5.799   3.818  2.1605  0.2753 -2.5085
  126MOL0     H16951   6.143   5.754   4.060 -1.3608 -1.6861  0.9365
  126MOL0     H16952   6.037   5.895   4.027  1.6073  0.4771  2.6340
  126MOL0     H16953   5.951   5.783   4.205  2.9995  0.8584 -0.5962
  126MOL0     H16954   5.843   5.762   4.062  2.2081  2.3037 -2.4723
  126MOL0     H16955   5.936   5.517   4.041 -0.0757  0.6103  0.0321
  126MOL0     H16956   6.036   5.548   4.184 -1.4179 -2.2836  2.6494
  126MOL0     H16957   5.741   5.487   4.148 -0.8305  0.1522  1.1612
  126MOL0     H16958   5.778   5.623   4.266 -0.2115 -1.4443  0.6718
  126MOL0     H16959   5.950   5.456   4.350  0.0109  1.5670 -0.9499
  126MOL0     H16960   5.788   5.436   4.409  0.8926  1.9417  0.1889
  126MOL0     H16961   6.067   5.216   4.270  0.5314 -1.6442 -1.2873
  126MOL0     H16962   5.967   4.953   4.061  3.1676 -0.5282 -1.0950
  126MOL0     H16963   6.086   4.989   4.184  0.0997 -1.0332 -0.2358
  126MOL0     H16964   5.829   4.814   4.186  1.4954 -1.5685  1.3853
  126MOL0     H16965   5.999   4.768   4.198  0.6960 -1.0451  1.6909
  126MOL0     H16966   5.820   4.886   4.412  0.8627  0.2761 -0.7446
  126MOL0     H16967   5.995   4.889   4.424 -0.0035  0.4169  0.6265
  126MOL0     H16968   6.019   4.649   4.446  1.7165  2.5035 -1.5790
  126MOL0     H16969   5.845   4.637   4.423  1.3431 -1.2490 -0.5144
  126MOL0     H16970   6.133   4.608   4.642 -2.9608 -0.9549 -4.4916
  126MOL0     H16971   6.166   4.434   4.803 -0.6372 -1.0030  1.3528
  126MOL0     H16972   6.010   4.056   4.993 -3.5189  2.3292  2.7521
  126MOL0     H16973   6.096   3.862   5.103  0.1810  0.4113  0.3055
  126MOL0     H16974   6.140   3.762   5.327 -0.6142 -1.8332  0.8448
  126MOL0     H16975   6.226   3.686   5.187  0.5029  1.1360  0.2019
  126MOL0     H16976   6.237   3.539   5.375 -0.7980 -0.0042 -0.5226
  126MOL0     H16977   6.399   3.594   5.347  0.4097 -1.8688  2.4216
  126MOL0     H16978   6.371   3.777   5.506 -0.5466 -0.3735  0.8874
  126MOL0     H16979   6.230   3.690   5.568  0.4423 -1.0458  0.1350
  126MOL0     H16980   6.515   3.585   5.566  1.8839  0.3867  3.6786
  126MOL0     H16981   6.376   3.479   5.584  2.0058 -0.3079 -5.6215
  126MOL0     H16982   6.318   3.676   5.769 -0.2775  1.0699 -2.4866
  126MOL0     H16983   6.478   3.717   5.765 -0.0177 -0.2730 -0.0534
  126MOL0     H16984   6.401   3.418   5.815  0.3057  0.0237 -0.1628
  126MOL0     H16985   6.552   3.503   5.854 -0.3716  0.6322  1.7457
  126MOL0     H16986   6.283   3.573   5.986  0.4320  4.7725  1.1628
  126MOL0     H16987   6.430   3.621   6.051 -0.9796  2.1878 -2.3647
  126MOL0     H16988   6.379   3.405   6.179 -0.7934 -1.2223 -0.6064
  126MOL0     H16989   6.367   3.324   6.026  2.4440 -1.8204  0.6200
  126MOL0     H16990   6.437   4.081   5.241 -0.6718 -0.6036  1.8042
  126MOL0     H16991   6.338   4.288   5.146 -0.0402 -1.0539 -0.9467
  126MOL0     H16992   5.770   4.481   4.961  0.0702 -0.3344  0.1258
  126MOL0     H16993   5.730   4.650   4.800 -0.6159 -0.7348 -0.6040
  126MOL0     H16994   5.875   5.832   3.459  0.1903  0.1221  1.8987
  126MOL0     H16995   5.816   5.779   3.227  0.1372 -0.2229  1.1957
  126MOL0     H16996   6.091   5.693   2.811  0.7111 -0.5837 -1.2481
  126MOL0     H16997   6.094   5.672   2.564 -0.3469  2.0803 -0.5982
  126MOL0     H16998   5.711   5.527   2.375  1.5765  3.0257  1.6756
  126MOL0     H16999   5.824   5.379   2.360  0.4501  0.2021  0.5280
  126MOL0     H17000   5.761   5.587   2.156 -0.0461  0.2143  0.1850
  126MOL0     H17001   5.776   5.418   2.129  3.4341 -0.7714 -3.3938
  126MOL0     H17002   6.023   5.453   2.213 -0.3401  0.5915 -0.0553
  126MOL0     H17003   5.992   5.620   2.149  0.1536  0.2718  0.7512
  126MOL0     H17004   5.896   5.510   1.940 -0.3840  0.6235  0.7817
  126MOL0     H17005   6.066   5.526   1.948 -0.3905  1.2309  0.3139
  126MOL0     H17006   5.997   5.100   1.939  3.3453  0.5672 -0.3107
  126MOL0     H17007   5.719   5.471   2.583 -3.4229  2.3438  3.2160
  126MOL0     H17008   5.589   5.446   2.743 -0.5246 -1.5837  0.9068
  126MOL0     H17009   5.698   5.368   2.844  0.4027 -0.9337 -2.3196
  126MOL0     H17010   5.622   5.531   2.892 -1.0385  0.6646 -0.6603
  127MOL0     O17011   3.714   5.132  10.065 -0.3563  0.6090 -0.2188
  127MOL0     C17012   3.810   5.060  10.086  0.0864 -0.5484  0.8625
  127MOL0     O17013   3.931   5.077  10.028  0.1378 -0.6381  1.0542
  127MOL0     C17014   3.931   5.144   9.908 -0.2264 -0.4953  0.1263
  127MOL0     C17015   3.886   5.085   9.787  0.6983 -0.9532  1.0684
  127MOL0     C17016   3.860   5.166   9.675 -0.3198  0.5846 -0.0555
  127MOL0     C17017   3.892   5.298   9.673 -0.3877 -0.0290 -0.0497
  127MOL0     O17018   3.865   5.361   9.554 -0.2965  0.6207 -0.1092
  127MOL0     C17019   3.897   5.504   9.544 -0.3769 -0.3579  0.0944
  127MOL0     C17020   3.878   5.539   9.400 -0.3002 -0.6852 -0.0341
  127MOL0     C17021   3.728   5.529   9.359  0.7243 -0.4260  0.1512
  127MOL0     C17022   3.694   5.526   9.211 -0.3816  0.6060 -0.1980
  127MOL0     C17023   3.661   5.385   9.163  0.0167  0.5023  0.4078
  127MOL0     C17024   3.786   5.285   9.186 -0.7303 -0.4033 -0.9184
  127MOL0     C17025   3.771   5.151   9.112 -0.6613 -0.5171 -0.0294
  127MOL0     C17026   3.680   5.051   9.187  0.5262 -0.0911  0.0896
  127MOL0     N17027   3.665   4.929   9.109 -0.0619 -0.6736 -1.0532
  127MOL0     C17028   3.555   4.877   9.036  0.3117  0.4218  0.8656
  127MOL0     C17029   3.600   4.764   8.977 -0.8165 -1.3277  0.1798
  127MOL0     C17030   3.502   4.680   8.891 -0.7935  0.3378 -0.0850
  127MOL0     C17031   3.484   4.743   8.745 -0.9626 -0.6952 -0.6644
  127MOL0     C17032   3.407   4.658   8.648 -0.1062  0.6367  0.0877
  127MOL0     C17033   3.467   4.509   8.628 -0.9145  0.2366 -1.0640
  127MOL0     O17034   3.608   4.519   8.628  0.0543 -0.0627 -0.0280
  127MOL0     C17035   3.682   4.406   8.622  1.0302 -0.0217 -0.4500
  127MOL0     C17036   3.630   4.274   8.625 -0.5244  0.5932  0.2277
  127MOL0     C17037   3.715   4.158   8.616  0.5271  1.3152 -0.8967
  127MOL0     C17038   3.857   4.172   8.599  0.4267  0.3485 -0.9047
  127MOL0     C17039   3.946   4.051   8.584  0.1383  0.8723 -0.5418
  127MOL0     O17040   3.886   3.932   8.551  0.0685 -0.1515 -0.2811
  127MOL0     C17041   3.976   3.829   8.532  0.3324  0.8592  0.0891
  127MOL0     C17042   3.982   3.741   8.636 -0.3304 -0.7967 -0.1212
  127MOL0     C17043   4.070   3.622   8.628  1.6650 -1.2856 -0.1350
  127MOL0     C17044   4.131   3.604   8.499 -0.2588 -0.3047 -0.2731
  127MOL0     O17045   4.207   3.491   8.481 -0.4782 -0.1010 -0.6003
  127MOL0     C17046   4.323   3.470   8.559 -0.1837 -0.7691 -1.3976
  127MOL0     C17047   4.379   3.333   8.511 -0.1162  0.7322 -0.1370
  127MOL0     C17048   4.313   3.201   8.558  0.1588 -0.0233 -0.3857
  127MOL0     C17049   4.382   3.161   8.699 -0.0715 -0.0916  0.7689
  127MOL0     C17050   4.341   3.033   8.758  1.4979  0.4492 -0.2422
  127MOL0     C17051   4.364   2.908   8.660  0.3250 -0.4937 -1.1669
  127MOL0     C17052   4.340   2.776   8.736  0.2022 -0.2148 -0.1741
  127MOL0     C17053   4.408   2.663   8.670 -0.0729  0.1148 -0.4558
  127MOL0    Cl17054   4.573   2.675   8.733  0.0925 -0.3432 -0.0418
  127MOL0     C17055   4.120   3.694   8.393  0.3118  0.4446 -0.0626
  127MOL0     C17056   4.031   3.802   8.410  0.1150 -0.3854  0.5446
  127MOL0     O17057   4.065   4.063   8.609  0.4085  0.3919 -0.3947
  127MOL0     C17058   3.904   4.307   8.604  0.2415 -0.7510  0.4535
  127MOL0     C17059   3.817   4.424   8.614 -0.0017  0.4596  0.3103
  127MOL0     N17060   3.737   4.744   9.006  0.3038  0.1810 -0.2612
  127MOL0     N17061   3.778   4.851   9.076  0.4275  0.6789 -0.0516
  127MOL0     C17062   3.963   5.348   9.783 -0.2941  0.6616  0.4206
  127MOL0     C17063   3.982   5.278   9.901 -1.5901  0.1959 -0.7912
  127MOL0     C17064   3.795   4.947  10.189 -0.0305 -0.4353 -0.5662
  127MOL0     C17065   3.912   4.875  10.234  0.3782 -0.5409  1.0583
  127MOL0     C17066   3.900   4.771  10.318  0.0342  0.4026 -0.9518
  127MOL0     C17067   3.775   4.726  10.372 -0.3202  0.1616  0.5654
  127MOL0     O17068   3.761   4.616  10.457 -0.2769  0.2880  0.6248
  127MOL0     C17069   3.814   4.645  10.584  0.0593  0.8068 -1.3427
  127MOL0     C17070   3.712   4.688  10.691 -0.3868  1.0344 -0.0778
  127MOL0     C17071   3.570   4.630  10.661  0.2373  0.0892  0.1396
  127MOL0     C17072   3.454   4.699  10.743 -0.3942  0.0406  0.5235
  127MOL0     C17073   3.430   4.838  10.683 -0.8090  1.0605 -0.2682
  127MOL0     C17074   3.417   4.942  10.620  0.0119 -0.2134 -0.0573
  127MOL0     C17075   3.664   4.791  10.325  0.6854  0.3111 -0.5630
  127MOL0     C17076   3.671   4.909  10.247  0.2931  1.1283 -0.1349
  127MOL0     C17077   3.539   4.993  10.231  0.1865  0.2558  0.3257
  127MOL0     H17078   3.858   4.980   9.787 -4.4307  0.0974 -1.9266
  127MOL0     H17079   3.825   5.129   9.579  1.5741 -0.3522 -0.4315
  127MOL0     H17080   3.820   5.553   9.605 -3.6768 -2.3736 -2.1414
  127MOL0     H17081   3.991   5.531   9.593 -1.7953  0.8531  2.3437
  127MOL0     H17082   3.945   5.469   9.350  0.5512  0.7310 -0.9486
  127MOL0     H17083   3.920   5.638   9.380  1.9898 -1.4618  0.7326
  127MOL0     H17084   3.667   5.605   9.408 -0.7677 -1.9180  0.6716
  127MOL0     H17085   3.685   5.443   9.410  0.8648 -0.4002  0.3140
  127MOL0     H17086   3.604   5.588   9.206 -0.2655  0.8204  0.2685
  127MOL0     H17087   3.759   5.578   9.140 -1.6153 -3.8420 -5.2119
  127MOL0     H17088   3.567   5.353   9.209  0.1120 -0.9333 -0.3409
  127MOL0     H17089   3.647   5.387   9.055  3.0729 -0.4090 -0.1023
  127MOL0     H17090   3.867   5.346   9.144 -2.9927  1.5563 -2.6898
  127MOL0     H17091   3.798   5.269   9.293 -0.7088 -2.0528 -1.1418
  127MOL0     H17092   3.872   5.110   9.109  0.1603  1.4022 -2.0380
  127MOL0     H17093   3.745   5.172   9.008  3.5674  0.7467 -1.0183
  127MOL0     H17094   3.720   5.021   9.284  2.7364 -0.3156 -0.8366
  127MOL0     H17095   3.586   5.101   9.215  0.7822  0.7147 -0.4386
  127MOL0     H17096   3.451   4.907   9.029 -0.2983 -1.6715  0.0398
  127MOL0     H17097   3.541   4.579   8.875 -0.6180  0.4244 -0.2068
  127MOL0     H17098   3.406   4.671   8.942  0.3058  0.2313  2.0591
  127MOL0     H17099   3.423   4.833   8.756  4.2779  3.2809  0.0227
  127MOL0     H17100   3.580   4.779   8.705 -0.7058  0.2000  0.7004
  127MOL0     H17101   3.413   4.709   8.551  2.2144 -2.0893 -1.3618
  127MOL0     H17102   3.304   4.648   8.685 -0.3181 -2.0414 -1.0125
  127MOL0     H17103   3.445   4.466   8.530  0.7727  0.9892 -1.8107
  127MOL0     H17104   3.432   4.452   8.715  0.3831 -0.6750 -1.1087
  127MOL0     H17105   3.523   4.260   8.632 -1.2766  1.1680 -5.3477
  127MOL0     H17106   3.671   4.059   8.609  0.7994  0.8472  2.5006
  127MOL0     H17107   3.932   3.776   8.726 -1.0258 -3.8191  0.7901
  127MOL0     H17108   4.091   3.552   8.709  0.3787 -2.1825 -0.5461
  127MOL0     H17109   4.407   3.538   8.542  2.7155 -3.8755 -0.4545
  127MOL0     H17110   4.299   3.463   8.665  0.0157  1.1623 -1.1932
  127MOL0     H17111   4.399   3.330   8.404  0.4350  2.3412 -0.1080
  127MOL0     H17112   4.478   3.320   8.555 -1.2859 -2.1866  1.9031
  127MOL0     H17113   4.205   3.193   8.571  0.2450 -1.0489 -0.2423
  127MOL0     H17114   4.344   3.120   8.492  1.7181 -1.3478  1.8199
  127MOL0     H17115   4.366   3.246   8.765  3.4404  1.4008 -0.0335
  127MOL0     H17116   4.488   3.160   8.670 -0.9607  0.8852 -3.1973
  127MOL0     H17117   4.232   3.038   8.766  1.5138 -1.0900  1.5646
  127MOL0     H17118   4.387   3.013   8.855  1.9044 -0.7595 -0.6709
  127MOL0     H17119   4.310   2.923   8.566  0.8343  0.4811 -1.3153
  127MOL0     H17120   4.469   2.913   8.631  1.2288  0.9661  1.8672
  127MOL0     H17121   4.232   2.766   8.745  0.2196  0.0676  0.4267
  127MOL0     H17122   4.376   2.787   8.839 -0.3078  0.9569 -0.1034
  127MOL0     H17123   4.344   2.581   8.703 -1.0885  2.1703  3.2705
  127MOL0     H17124   4.416   2.682   8.563 -0.2631  1.9205 -0.1965
  127MOL0     H17125   4.155   3.673   8.292 -0.6898  0.1089 -0.3484
  127MOL0     H17126   4.050   3.872   8.329  0.9736 -0.3504  0.7594
  127MOL0     H17127   4.010   4.330   8.612  0.1352  0.1144 -0.4785
  127MOL0     H17128   3.861   4.523   8.605  1.6945 -0.3728 -6.5577
  127MOL0     H17129   3.998   5.451   9.775 -3.0206  1.6477 -0.0620
  127MOL0     H17130   4.025   5.333   9.984 -0.1732 -0.2861 -1.1796
  127MOL0     H17131   4.012   4.908  10.206 -0.0409 -0.0481  0.0965
  127MOL0     H17132   3.995   4.733  10.354 -0.0418  1.8786  0.9443
  127MOL0     H17133   3.898   4.714  10.572 -0.8650  1.8301 -2.1372
  127MOL0     H17134   3.855   4.547  10.612 -2.5252 -0.9848 -3.2782
  127MOL0     H17135   3.714   4.797  10.688  1.2387  1.0086 -1.7102
  127MOL0     H17136   3.746   4.650  10.788  1.8696 -2.0262 -1.8868
  127MOL0     H17137   3.566   4.521  10.673 -1.0173  0.0452 -0.5197
  127MOL0     H17138   3.548   4.651  10.556  2.8448  0.9316 -0.3026
  127MOL0     H17139   3.357   4.650  10.730 -0.1012 -0.6457  0.8709
  127MOL0     H17140   3.474   4.718  10.848  0.8370 -1.3529  0.5652
  127MOL0     H17141   3.401   5.034  10.568 -0.6523 -1.5024 -2.2795
  127MOL0     H17142   3.568   4.767  10.370  0.0517  0.5466 -1.7565
  127MOL0     H17143   3.554   5.097  10.260 -0.2057  0.3978  0.0175
  127MOL0     H17144   3.506   4.983  10.128 -0.8263 -3.4438  0.8537
  127MOL0     H17145   3.454   4.954  10.287  0.6287 -2.5750 -0.7865
  128MOL0     O17146   5.618  11.232   0.495  0.2116 -0.2263  0.3802
  128MOL0     C17147   5.554  11.136   0.529 -0.5212 -0.2396  0.3134
  128MOL0     O17148   5.609  11.024   0.606  0.3645  0.5508 -0.5471
  128MOL0     C17149   5.742  11.039   0.657  0.1341 -0.0767  0.6926
  128MOL0     C17150   5.791  11.162   0.705  0.3861  0.4582 -0.2126
  128MOL0     C17151   5.926  11.171   0.735 -0.0159  0.1972 -0.3582
  128MOL0     C17152   6.016  11.064   0.731 -0.7019  0.4750 -0.2127
  128MOL0     O17153   6.153  11.089   0.754 -0.5587  0.2506 -0.8306
  128MOL0     C17154   6.260  11.002   0.717 -0.5622  0.1612 -0.3779
  128MOL0     C17155   6.401  11.072   0.737  0.6317  0.4086  0.9296
  128MOL0     C17156   6.419  11.139   0.863  0.2972 -0.4887  0.2735
  128MOL0     C17157   6.567  11.168   0.885 -0.4460 -0.7302 -0.4503
  128MOL0     C17158   6.586  11.206   1.031  0.0113 -0.1224 -1.3685
  128MOL0     C17159   6.724  11.204   1.070 -0.0963 -0.3240  0.5518
  128MOL0     C17160   6.816  11.312   1.019  0.3202  0.2848  0.0331
  128MOL0     C17161   6.964  11.271   1.031  0.2171 -0.0357  1.0337
  128MOL0     N17162   7.049  11.377   0.982  0.0351 -0.0147 -0.8639
  128MOL0     C17163   7.184  11.377   1.015 -0.4538 -0.6725 -0.9971
  128MOL0     C17164   7.216  11.497   0.970  0.6310  0.0036 -0.1932
  128MOL0     C17165   7.344  11.563   0.980 -0.7597 -0.0247  0.5474
  128MOL0     C17166   7.469  11.504   0.894 -0.8808  0.3661 -0.8569
  128MOL0     C17167   7.567  11.443   0.994  0.1912  0.4121 -0.9585
  128MOL0     C17168   7.517  11.335   1.087 -0.5914  0.5940 -0.3729
  128MOL0     O17169   7.462  11.218   1.020  0.6790 -0.5001 -0.4851
  128MOL0     C17170   7.516  11.091   1.054  1.2212 -0.5622 -0.6087
  128MOL0     C17171   7.433  10.978   1.043  0.8189 -0.7186  0.5747
  128MOL0     C17172   7.478  10.857   1.071 -0.6534 -0.7955  0.0939
  128MOL0     C17173   7.613  10.833   1.105 -0.4039 -0.6198 -0.6169
  128MOL0     C17174   7.659  10.698   1.122 -1.1814 -0.0249  0.2918
  128MOL0     O17175   7.798  10.672   1.152  0.4830  0.9182  0.2601
  128MOL0     C17176   7.852  10.552   1.124  0.0658  0.2470  0.1950
  128MOL0     C17177   7.832  10.485   1.008  1.1711  0.2866  0.8776
  128MOL0     C17178   7.893  10.356   0.982 -0.1339  0.9635 -0.4222
  128MOL0     C17179   7.985  10.301   1.074  0.4805 -0.4058  0.8803
  128MOL0     O17180   8.034  10.170   1.078 -0.1041  0.3320  0.2274
  128MOL0     C17181   7.971  10.062   1.011  0.6296 -0.0558  0.0367
  128MOL0     C17182   8.058   9.934   1.015  1.1287 -0.1432 -0.0755
  128MOL0     C17183   7.959   9.819   0.977 -0.1985 -0.5971  0.2089
  128MOL0     C17184   8.031   9.684   0.963  0.8717  0.1194  0.3848
  128MOL0     C17185   8.112   9.678   0.831 -0.2840  0.3450 -0.1591
  128MOL0     C17186   8.182   9.546   0.813  0.0019 -0.2527  0.3658
  128MOL0     C17187   8.314   9.526   0.902 -0.4695 -0.2968  0.5003
  128MOL0     C17188   8.418   9.633   0.859 -0.2157 -0.3293 -0.5740
  128MOL0    Cl17189   8.578   9.570   0.897  0.3793 -0.0093  0.0374
  128MOL0     C17190   8.016  10.384   1.182  0.3860  0.3046 -0.8139
  128MOL0     C17191   7.948  10.502   1.219  0.3832  0.8664 -0.8849
  128MOL0     O17192   7.573  10.610   1.100 -0.0315 -0.1442  0.5285
  128MOL0     C17193   7.697  10.944   1.111 -0.6086 -0.4680  0.6920
  128MOL0     C17194   7.650  11.069   1.098 -0.4964  0.2250  0.0679
  128MOL0     N17195   7.121  11.544   0.882 -0.1664  0.2261  0.3674
  128MOL0     N17196   7.014  11.474   0.889 -0.2111  0.3213 -0.4095
  128MOL0     C17197   5.968  10.941   0.680 -0.2564  0.3066 -1.5586
  128MOL0     C17198   5.832  10.927   0.650  0.2625  0.2458 -0.7415
  128MOL0     C17199   5.408  11.139   0.486 -0.0971  0.8571 -0.6263
  128MOL0     C17200   5.388  11.190   0.362 -0.0314 -0.0232 -0.4780
  128MOL0     C17201   5.259  11.175   0.301  0.0931  0.5054  0.8346
  128MOL0     C17202   5.149  11.126   0.363 -0.2930  0.8666 -0.6212
  128MOL0     O17203   5.020  11.126   0.310  0.2924  0.2124  0.0067
  128MOL0     C17204   4.986  11.185   0.194  0.7909 -0.7029  0.5150
  128MOL0     C17205   4.840  11.159   0.157  0.8772 -0.3448  0.7401
  128MOL0     C17206   4.807  11.019   0.130  0.4080  0.2074 -0.0253
  128MOL0     C17207   4.656  10.979   0.115  0.2089  0.3948 -1.0695
  128MOL0     C17208   4.649  10.835   0.129 -0.1433  0.9606  0.0197
  128MOL0     C17209   4.637  10.711   0.132 -0.4261  0.0429  0.2909
  128MOL0     C17210   5.171  11.088   0.501  0.0818  0.6520  0.5975
  128MOL0     C17211   5.301  11.092   0.554  0.6279  0.1753  0.7960
  128MOL0     C17212   5.309  11.031   0.690  0.8428 -0.3297  0.7717
  128MOL0     H17213   5.725  11.247   0.722 -1.3318 -0.0576 -3.4643
  128MOL0     H17214   5.956  11.255   0.796 -0.4618 -0.3499  0.6305
  128MOL0     H17215   6.275  10.916   0.783  5.3951  0.3785 -0.9045
  128MOL0     H17216   6.240  10.969   0.615 -0.3035  1.5352 -0.8970
  128MOL0     H17217   6.395  11.143   0.654 -1.1650 -2.2699 -1.4375
  128MOL0     H17218   6.484  11.010   0.701  0.6416  2.4324 -3.1509
  128MOL0     H17219   6.393  11.065   0.939  0.5751 -0.3511  0.5075
  128MOL0     H17220   6.367  11.235   0.866  2.3220  1.1063 -4.7105
  128MOL0     H17221   6.628  11.082   0.854 -0.6665 -0.8808 -0.4725
  128MOL0     H17222   6.601  11.252   0.824 -1.1029  2.2565  2.9844
  128MOL0     H17223   6.541  11.297   1.070 -1.5041 -1.8944  1.3372
  128MOL0     H17224   6.536  11.125   1.085  2.2980 -1.0291 -0.4443
  128MOL0     H17225   6.737  11.197   1.178  1.9385  0.1459  0.3784
  128MOL0     H17226   6.765  11.108   1.035 -0.2490 -0.1349 -0.1593
  128MOL0     H17227   6.802  11.400   1.081 -1.0741 -0.0061  0.1689
  128MOL0     H17228   6.792  11.340   0.916 -1.8384 -2.7782 -0.4561
  128MOL0     H17229   6.975  11.240   1.136 -0.4784 -3.8429  0.1487
  128MOL0     H17230   6.991  11.182   0.974  0.9695  2.1432 -2.2412
  128MOL0     H17231   7.225  11.315   1.094  0.7895 -1.1502 -1.9828
  128MOL0     H17232   7.325  11.666   0.950 -2.3373 -0.7787 -1.2788
  128MOL0     H17233   7.359  11.574   1.088 -3.4932  0.5278  0.9252
  128MOL0     H17234   7.427  11.423   0.834  0.7861 -0.3920 -1.0352
  128MOL0     H17235   7.512  11.583   0.831  1.8602 -1.5122 -1.4854
  128MOL0     H17236   7.605  11.519   1.062 -0.0456  1.2452 -1.7295
  128MOL0     H17237   7.659  11.416   0.941  1.4127 -0.5741  1.5212
  128MOL0     H17238   7.447  11.379   1.158  1.7927  1.6100  1.4864
  128MOL0     H17239   7.605  11.313   1.148  0.4858 -1.0287 -2.3744
  128MOL0     H17240   7.333  11.001   1.006  0.7029  3.5675  2.9500
  128MOL0     H17241   7.405  10.776   1.072  1.2182 -2.5925 -0.8402
  128MOL0     H17242   7.769  10.533   0.935  2.2899 -0.1992 -0.4503
  128MOL0     H17243   7.874  10.311   0.885  1.7164  1.4624 -1.0528
  128MOL0     H17244   7.869  10.057   1.052 -0.1587 -0.9446 -1.9094
  128MOL0     H17245   7.961  10.090   0.906 -0.2270  0.7418  0.3170
  128MOL0     H17246   8.141   9.939   0.944  0.5189 -2.9855 -1.1433
  128MOL0     H17247   8.094   9.913   1.116 -2.2425 -2.3564  0.8425
  128MOL0     H17248   7.883   9.818   1.055 -1.4307  2.7059 -0.7532
  128MOL0     H17249   7.908   9.833   0.882  0.7736  0.2550 -0.2140
  128MOL0     H17250   7.958   9.603   0.962 -0.0953  0.9614 -1.0238
  128MOL0     H17251   8.095   9.668   1.050  0.0421  0.1464  1.0096
  128MOL0     H17252   8.187   9.758   0.836  1.0130 -0.8982  2.1310
  128MOL0     H17253   8.046   9.698   0.747  0.9475  0.0574 -1.2191
  128MOL0     H17254   8.113   9.463   0.831  0.0258  0.1547  2.7167
  128MOL0     H17255   8.205   9.538   0.706  0.5497 -2.3874  0.5878
  128MOL0     H17256   8.346   9.426   0.872  2.3741  0.5079  0.5752
  128MOL0     H17257   8.290   9.537   1.008  1.8931  1.3920  0.9621
  128MOL0     H17258   8.411   9.662   0.754  0.2352  1.7486 -0.0873
  128MOL0     H17259   8.412   9.725   0.919  4.6213  1.3857 -2.2710
  128MOL0     H17260   8.101  10.362   1.246 -0.2886  0.8501  0.3213
  128MOL0     H17261   7.979  10.551   1.312 -0.7918  0.8013 -0.4411
  128MOL0     H17262   7.801  10.934   1.138 -0.6198 -1.4642  0.4084
  128MOL0     H17263   7.717  11.152   1.120  0.9554 -0.9036  0.1182
  128MOL0     H17264   6.050  10.871   0.686  0.7521  1.4820 -1.2800
  128MOL0     H17265   5.787  10.838   0.607  0.2232  1.1779 -2.7167
  128MOL0     H17266   5.471  11.236   0.309  0.6125  0.5994  1.0127
  128MOL0     H17267   5.260  11.220   0.202 -1.1145  2.1347  1.5319
  128MOL0     H17268   5.055  11.154   0.115  0.0594 -0.4272 -0.2585
  128MOL0     H17269   4.985  11.294   0.200 -2.6233 -0.5004 -1.1662
  128MOL0     H17270   4.812  11.227   0.075 -0.0765 -0.8301  0.6625
  128MOL0     H17271   4.777  11.192   0.239 -2.4060  1.2682 -2.1626
  128MOL0     H17272   4.853  10.970   0.217  3.4215  0.5979 -1.2840
  128MOL0     H17273   4.865  10.998   0.040 -1.4983  0.7509 -1.4231
  128MOL0     H17274   4.582  11.019   0.185  0.0781 -1.0905 -0.3232
  128MOL0     H17275   4.628  11.010   0.014 -1.0295  2.2037 -0.2270
  128MOL0     H17276   4.639  10.609   0.165  2.0448  0.5887  2.1454
  128MOL0     H17277   5.083  11.056   0.554  1.0248 -1.7543  0.8390
  128MOL0     H17278   5.375  11.090   0.754  1.9549 -0.0311 -0.6007
  128MOL0     H17279   5.208  11.010   0.727 -0.3004 -1.6173 -2.7137
  128MOL0     H17280   5.353  10.932   0.673  1.0564  0.1032 -1.4208
  129MOL0     O17281  10.985   9.472  11.133  0.7552  0.5913  0.1342
  129MOL0     C17282  10.866   9.494  11.167 -0.6885  1.6363 -0.0619
  129MOL0     O17283  10.781   9.398  11.219  0.1119 -0.0418  0.4155
  129MOL0     C17284  10.828   9.273  11.249  0.1325  0.5473 -0.1195
  129MOL0     C17285  10.863   9.182  11.156 -0.5432  0.3964  0.2310
  129MOL0     C17286  10.909   9.051  11.183 -1.0828 -0.1270  0.2738
  129MOL0     C17287  10.928   9.018  11.316  0.0853  0.1995 -0.6054
  129MOL0     O17288  10.955   8.893  11.366 -0.1909  0.0135 -0.9434
  129MOL0     C17289  10.939   8.777  11.285 -0.0900  0.1990 -0.4150
  129MOL0     C17290  11.008   8.651  11.343 -0.7276  0.3976  0.8399
  129MOL0     C17291  10.985   8.627  11.492  1.3780 -0.4337 -0.7749
  129MOL0     C17292  10.914   8.494  11.532 -0.2191  0.2000 -0.0890
  129MOL0     C17293  10.766   8.490  11.476 -0.7839  0.8779 -0.2846
  129MOL0     C17294  10.679   8.403  11.563 -0.3354 -0.4400 -0.0417
  129MOL0     C17295  10.531   8.428  11.533  0.8666  0.3237 -0.6199
  129MOL0     C17296  10.491   8.410  11.386 -0.4684 -0.8280  0.5229
  129MOL0     N17297  10.501   8.545  11.310 -0.5798  0.5144 -0.2248
  129MOL0     C17298  10.451   8.652  11.365  0.4505  0.4216  0.2153
  129MOL0     C17299  10.482   8.750  11.272  0.3119 -0.0064  0.2792
  129MOL0     C17300  10.476   8.893  11.302 -0.5696 -0.4244  0.1224
  129MOL0     C17301  10.477   8.989  11.184  0.1267 -0.0412 -1.4159
  129MOL0     C17302  10.467   9.135  11.237  0.3744 -0.0932  0.1332
  129MOL0     C17303  10.470   9.233  11.134  0.1058 -0.5630 -1.2668
  129MOL0     O17304  10.359   9.222  11.047  0.2475  0.2977  0.2125
  129MOL0     C17305  10.382   9.182  10.918  0.9381 -0.4709  0.5565
  129MOL0     C17306  10.292   9.085  10.862 -0.4499 -0.5388 -0.3486
  129MOL0     C17307  10.304   9.053  10.726 -0.2109  0.4194 -0.0388
  129MOL0     C17308  10.403   9.112  10.645 -0.6027 -0.1746 -0.4717
  129MOL0     C17309  10.409   9.076  10.497 -0.2015 -0.1272  0.5569
  129MOL0     O17310  10.347   8.966  10.447  0.0909  0.3690 -0.0875
  129MOL0     C17311  10.338   8.926  10.316  0.4777  0.0684 -0.4989
  129MOL0     C17312  10.228   8.858  10.268  0.2393  0.4272  0.1452
  129MOL0     C17313  10.211   8.815  10.136  0.7837  0.0990 -0.7471
  129MOL0     C17314  10.311   8.839  10.048 -0.5199 -0.1799 -0.1808
  129MOL0     O17315  10.305   8.799   9.926 -0.2720  0.5405  0.2078
  129MOL0     C17316  10.223   8.871   9.840 -0.4975 -0.6122 -0.6363
  129MOL0     C17317  10.319   8.948   9.748  0.6721 -0.3937  0.3537
  129MOL0     C17318  10.380   9.080   9.811 -0.0083 -0.0699 -0.7876
  129MOL0     C17319  10.417   9.189   9.708  0.5371  0.3592  0.8220
  129MOL0     C17320  10.439   9.326   9.789 -0.8619 -1.0184  0.3079
  129MOL0     C17321  10.541   9.336   9.905 -0.4644  0.3616 -0.4272
  129MOL0     C17322  10.594   9.481   9.919  0.3600 -0.7106 -0.0967
  129MOL0     C17323  10.707   9.500  10.012 -0.1142  0.0809 -0.7800
  129MOL0    Cl17324  10.782   9.659  10.011 -0.3242 -0.2903  0.2019
  129MOL0     C17325  10.429   8.895  10.087 -0.4353 -0.0276 -0.3595
  129MOL0     C17326  10.449   8.933  10.222  0.9373 -0.0741  0.8221
  129MOL0     O17327  10.474   9.154  10.429 -0.7130  0.0297  0.2468
  129MOL0     C17328  10.495   9.208  10.704  0.9064  0.0297 -0.1240
  129MOL0     C17329  10.479   9.239  10.837 -0.8175  0.5753  1.1514
  129MOL0     N17330  10.557   8.702  11.169 -0.7218  0.6310  0.5582
  129MOL0     N17331  10.569   8.577  11.194 -0.4052  0.9651  0.1127
  129MOL0     C17332  10.912   9.116  11.413  1.0061 -0.8021 -0.3238
  129MOL0     C17333  10.851   9.243  11.384 -1.2430  0.8859  0.2978
  129MOL0     C17334  10.799   9.624  11.125  0.2371  0.6898 -0.0247
  129MOL0     C17335  10.686   9.662  11.201 -0.7396  0.2668 -0.3142
  129MOL0     C17336  10.629   9.787  11.180  0.2522  0.6381 -0.2629
  129MOL0     C17337  10.691   9.876  11.100  0.0497 -1.3520 -0.2384
  129MOL0     O17338  10.630  10.002  11.096 -0.1239 -0.1255  1.5493
  129MOL0     C17339  10.699  10.101  11.020  0.4594 -0.1789  0.5250
  129MOL0     C17340  10.614  10.228  11.014  0.3209  0.1528 -0.3000
  129MOL0     C17341  10.680  10.344  10.957  0.5569 -0.3242  0.4506
  129MOL0     C17342  10.581  10.461  10.952  0.4849  0.9338 -0.1276
  129MOL0     C17343  10.520  10.507  11.084 -0.6640  0.0689  0.0181
  129MOL0     C17344  10.474  10.551  11.186  0.1261  0.5375  0.7064
  129MOL0     C17345  10.806   9.833  11.028  0.7889 -1.4316 -0.5742
  129MOL0     C17346  10.855   9.703  11.023  0.6280 -0.3640  0.2224
  129MOL0     C17347  10.973   9.668  10.932  0.9220  0.5861  0.0245
  129MOL0     H17348  10.845   9.215  11.054  1.7691  3.9280  0.7884
  129MOL0     H17349  10.927   8.982  11.101  1.4782 -1.6822  2.0171
  129MOL0     H17350  10.833   8.758  11.270 -0.3374 -0.6484  2.0540
  129MOL0     H17351  10.980   8.798  11.185  1.6939  2.9724  0.7821
  129MOL0     H17352  11.113   8.677  11.327 -1.2875  1.4554 -1.4626
  129MOL0     H17353  10.977   8.563  11.285  1.5308  0.3579 -0.3978
  129MOL0     H17354  10.922   8.703  11.541  0.6981 -1.6976  0.3660
  129MOL0     H17355  11.082   8.638  11.541  1.4048  2.7675 -1.3061
  129MOL0     H17356  10.969   8.401  11.513 -0.0142  0.1471  0.7306
  129MOL0     H17357  10.905   8.507  11.640 -4.5094  0.4312 -0.3171
  129MOL0     H17358  10.743   8.597  11.467  2.3555  1.6147 -0.8097
  129MOL0     H17359  10.765   8.441  11.379  0.4826 -0.0102  0.1299
  129MOL0     H17360  10.702   8.296  11.555  0.7291 -0.3222  1.0140
  129MOL0     H17361  10.696   8.418  11.671 -0.6650 -1.8390  0.2186
  129MOL0     H17362  10.495   8.522  11.576  0.1567  1.5587 -3.6628
  129MOL0     H17363  10.484   8.349  11.592  3.3145 -0.1523  0.8018
  129MOL0     H17364  10.568   8.339  11.356  1.3922  1.0238  0.6898
  129MOL0     H17365  10.387   8.376  11.388 -0.7644 -0.0197 -0.3452
  129MOL0     H17366  10.400   8.667  11.460 -0.4825 -1.3850  0.0419
  129MOL0     H17367  10.381   8.903  11.355 -1.3548  1.2980 -1.5147
  129MOL0     H17368  10.566   8.915  11.361 -1.2562  0.7042  0.7826
  129MOL0     H17369  10.570   8.985  11.127  0.1613  5.3450 -2.3627
  129MOL0     H17370  10.395   8.964  11.116  0.2890 -2.7698 -0.6982
  129MOL0     H17371  10.547   9.162  11.306  0.2987  1.6708 -0.4097
  129MOL0     H17372  10.375   9.139  11.295 -1.9629 -2.4555 -3.0366
  129MOL0     H17373  10.566   9.217  11.085  1.1815  1.5639 -0.0099
  129MOL0     H17374  10.472   9.339  11.163  3.7774 -0.2101 -2.2664
  129MOL0     H17375  10.219   9.040  10.928 -1.5272 -0.4506 -1.4297
  129MOL0     H17376  10.231   8.992  10.673 -1.6242  0.8890  1.3020
  129MOL0     H17377  10.144   8.840  10.335  1.1470  2.3572  1.8800
  129MOL0     H17378  10.119   8.776  10.091  1.5832 -1.9698 -0.6873
  129MOL0     H17379  10.168   8.801   9.776 -0.3029 -2.0728  0.7387
  129MOL0     H17380  10.156   8.940   9.892  1.6097  2.0863 -1.2792
  129MOL0     H17381  10.400   8.885   9.711 -1.1809 -1.5996 -1.8479
  129MOL0     H17382  10.262   8.975   9.659  0.0654  0.7667  1.0624
  129MOL0     H17383  10.306   9.127   9.876 -0.6567 -0.7691 -1.0026
  129MOL0     H17384  10.469   9.066   9.874  2.1305  4.8412 -2.2094
  129MOL0     H17385  10.339   9.181   9.631  3.0995 -2.4641 -1.7299
  129MOL0     H17386  10.505   9.160   9.650 -1.1423 -2.3020 -0.6499
  129MOL0     H17387  10.347   9.375   9.823  1.2470  2.4441  1.6317
  129MOL0     H17388  10.469   9.397   9.712 -3.1393 -2.1677 -1.7548
  129MOL0     H17389  10.490   9.302   9.995 -1.8408  1.9336 -0.5711
  129MOL0     H17390  10.618   9.262   9.882 -0.5790 -0.0199  0.3807
  129MOL0     H17391  10.508   9.534   9.962  1.2905 -0.7353  1.9140
  129MOL0     H17392  10.610   9.528   9.822 -0.9184 -1.9288 -0.9330
  129MOL0     H17393  10.665   9.475  10.110 -0.9239  1.0378 -0.8696
  129MOL0     H17394  10.777   9.417   9.994 -2.4503 -2.6710  1.7518
  129MOL0     H17395  10.508   8.906  10.013 -1.3556 -0.5482 -1.4632
  129MOL0     H17396  10.546   8.970  10.254  0.6680  0.4559  1.0429
  129MOL0     H17397  10.557   9.270  10.641  0.1778  0.5483 -0.3497
  129MOL0     H17398  10.557   9.308  10.868  0.8879 -0.8009  0.1501
  129MOL0     H17399  10.926   9.089  11.517  1.1107 -0.4353 -0.2427
  129MOL0     H17400  10.811   9.306  11.463 -2.1720  0.6831  0.0004
  129MOL0     H17401  10.646   9.606  11.284 -0.7883  0.7733  0.0122
  129MOL0     H17402  10.535   9.807  11.229 -0.9237 -3.5485 -0.4204
  129MOL0     H17403  10.706  10.067  10.916  1.2888  1.3055  0.0573
  129MOL0     H17404  10.798  10.123  11.061  0.3360  2.5028 -0.3756
  129MOL0     H17405  10.586  10.240  11.119 -1.0515  4.0653 -0.9532
  129MOL0     H17406  10.518  10.220  10.961  1.0157  1.5650 -1.8386
  129MOL0     H17407  10.707  10.332  10.852  0.8614 -1.5389  0.6583
  129MOL0     H17408  10.770  10.366  11.015  0.8342 -1.9214  0.6681
  129MOL0     H17409  10.647  10.543  10.924  2.9422 -1.2903 -1.3424
  129MOL0     H17410  10.504  10.434  10.879  1.6418 -2.3213 -0.3292
  129MOL0     H17411  10.431  10.591  11.276 -3.2489  1.3181 -1.0877
  129MOL0     H17412  10.842   9.907  10.956  1.5583  0.8936  2.0331
  129MOL0     H17413  10.985   9.751  10.862 -2.8739  0.4310 -1.0700
  129MOL0     H17414  11.063   9.640  10.988  0.0160 -0.4394  1.0261
  129MOL0     H17415  10.943   9.590  10.861  0.3502  1.6609 -0.9501
  130MOL0     O17416   7.924   9.061   8.706  0.1714  0.1758 -0.2424
  130MOL0     C17417   7.937   9.168   8.645  0.3299 -0.2346 -0.3643
  130MOL0     O17418   7.982   9.278   8.700 -0.2545 -0.0960  0.1187
  130MOL0     C17419   8.043   9.276   8.824  0.0012 -0.4677 -0.8229
  130MOL0     C17420   8.160   9.196   8.831 -0.3956  0.6533 -0.2468
  130MOL0     C17421   8.239   9.191   8.943 -0.0864  0.8572  0.6668
  130MOL0     C17422   8.211   9.280   9.045 -0.0602 -0.3382 -0.3246
  130MOL0     O17423   8.293   9.320   9.151  0.9955 -0.6365  0.7438
  130MOL0     C17424   8.430   9.300   9.129 -0.4182  0.2406 -0.1427
  130MOL0     C17425   8.523   9.354   9.240 -0.0416  0.1901  0.5620
  130MOL0     C17426   8.668   9.337   9.184  0.1943  0.7061 -0.5571
  130MOL0     C17427   8.779   9.384   9.285  0.6523  0.9629  0.4594
  130MOL0     C17428   8.801   9.264   9.383 -0.6908  0.2354  0.6121
  130MOL0     C17429   8.944   9.282   9.445 -0.4861 -0.6911  0.1492
  130MOL0     C17430   8.972   9.411   9.526  0.2093 -0.2407 -0.4015
  130MOL0     C17431   9.110   9.415   9.589 -0.5930 -0.1190  0.1610
  130MOL0     N17432   9.215   9.427   9.488 -0.6751  0.0925  0.3331
  130MOL0     C17433   9.214   9.504   9.375 -0.9335  0.3367 -0.9004
  130MOL0     C17434   9.318   9.469   9.303 -0.0756  0.1562 -0.1818
  130MOL0     C17435   9.350   9.539   9.177 -1.2715 -0.6883 -0.3757
  130MOL0     C17436   9.433   9.672   9.204 -1.2661  0.1009 -0.1540
  130MOL0     C17437   9.425   9.773   9.088 -0.2229  0.1462 -0.4710
  130MOL0     C17438   9.516   9.898   9.106 -0.7165 -0.6049  0.0607
  130MOL0     O17439   9.643   9.882   9.047 -0.3584 -0.7810 -0.4838
  130MOL0     C17440   9.704   9.994   9.005  0.6279 -0.4921  0.3753
  130MOL0     C17441   9.763  10.076   9.104 -0.6956  0.0128  0.0417
  130MOL0     C17442   9.846  10.183   9.061 -0.8557  0.3491  0.7361
  130MOL0     C17443   9.856  10.208   8.922 -1.0509 -0.3832  0.0774
  130MOL0     C17444   9.927  10.336   8.870 -0.6110  0.1158  0.5146
  130MOL0     O17445   9.899  10.372   8.739  0.0240 -0.0944  0.1122
  130MOL0     C17446   9.983  10.464   8.678  0.2052  0.1812 -0.0443
  130MOL0     C17447  10.025  10.588   8.734  0.1086  0.5457  0.1034
  130MOL0     C17448  10.104  10.680   8.663 -0.3434 -0.0516 -0.3449
  130MOL0     C17449  10.150  10.653   8.529  0.5053  0.2428  0.4371
  130MOL0     O17450  10.226  10.734   8.456 -0.2603 -0.0521  0.3348
  130MOL0     C17451  10.300  10.840   8.515 -0.8531 -0.5887  0.5161
  130MOL0     C17452  10.400  10.884   8.405  0.2090 -0.2320  0.1720
  130MOL0     C17453  10.322  10.952   8.284 -0.0781  0.2907 -0.4384
  130MOL0     C17454  10.324  10.877   8.153  0.2380 -0.1078  0.0735
  130MOL0     C17455  10.234  10.755   8.145 -0.0610  0.4773  0.1530
  130MOL0     C17456  10.081  10.796   8.169  0.1951 -0.3056  0.0940
  130MOL0     C17457   9.977  10.692   8.147  0.7278 -1.1982 -0.5596
  130MOL0     C17458   9.958  10.658   8.007 -0.1523 -0.4492  0.4765
  130MOL0    Cl17459   9.834  10.539   7.996  0.1436  0.3404 -0.2411
  130MOL0     C17460  10.104  10.528   8.476  0.2007  0.3421  0.3535
  130MOL0     C17461  10.010  10.443   8.539  0.0011 -0.0006 -0.6118
  130MOL0     O17462   9.999  10.393   8.949 -0.1723  0.1551  0.2495
  130MOL0     C17463   9.787  10.132   8.835  0.5384  0.5175  0.5751
  130MOL0     C17464   9.719  10.013   8.869  0.3674  0.5671 -0.5779
  130MOL0     N17465   9.386   9.365   9.364  0.5749  0.1152 -0.1421
  130MOL0     N17466   9.322   9.346   9.474 -0.2155 -0.2706 -0.3249
  130MOL0     C17467   8.082   9.341   9.048  0.0072 -0.3619  0.5069
  130MOL0     C17468   7.995   9.347   8.935  0.6045 -0.1499  0.0330
  130MOL0     C17469   7.885   9.173   8.512 -0.4572  0.3617  0.2198
  130MOL0     C17470   7.749   9.125   8.507  0.1585  0.3567  0.2972
  130MOL0     C17471   7.677   9.129   8.384 -0.5796  0.7512 -0.5973
  130MOL0     C17472   7.745   9.174   8.266 -0.1051 -0.1535  0.3987
  130MOL0     O17473   7.682   9.193   8.148 -0.0924  0.3188 -0.5486
  130MOL0     C17474   7.640   9.072   8.077  0.2810  0.1241  0.8504
  130MOL0     C17475   7.573   9.113   7.950  0.9252 -0.7343 -0.5250
  130MOL0     C17476   7.442   9.191   7.986  0.4863 -0.4501  0.1230
  130MOL0     C17477   7.378   9.226   7.854  0.2227  0.3529  0.3100
  130MOL0     C17478   7.265   9.311   7.866 -0.0552  0.1503 -0.2537
  130MOL0     C17479   7.181   9.392   7.849 -0.6129 -0.5563  0.2242
  130MOL0     C17480   7.880   9.213   8.271 -0.4893 -0.5491  0.6047
  130MOL0     C17481   7.941   9.212   8.391  0.9350  0.7825  0.2209
  130MOL0     C17482   8.082   9.254   8.378 -0.2714  0.2617  0.3969
  130MOL0     H17483   8.205   9.149   8.744 -0.7181 -1.5955  0.7447
  130MOL0     H17484   8.325   9.127   8.930 -1.6064 -1.3634  1.0364
  130MOL0     H17485   8.441   9.192   9.116  1.3150 -0.0491  2.9206
  130MOL0     H17486   8.456   9.345   9.033 -3.0551 -1.5986 -1.8295
  130MOL0     H17487   8.516   9.296   9.333  2.2213 -1.4139 -0.1836
  130MOL0     H17488   8.496   9.460   9.244  0.5620  0.3919 -0.4154
  130MOL0     H17489   8.677   9.399   9.095  1.1981  1.0868 -0.2119
  130MOL0     H17490   8.696   9.241   9.140 -1.3035  0.5161 -1.1688
  130MOL0     H17491   8.864   9.406   9.220  0.6265  0.3630  0.2170
  130MOL0     H17492   8.754   9.478   9.336 -2.1145  1.1956 -1.1075
  130MOL0     H17493   8.728   9.262   9.465  0.0843 -0.8777  1.2978
  130MOL0     H17494   8.802   9.171   9.326 -1.3203 -0.5423  1.8137
  130MOL0     H17495   8.964   9.193   9.506 -2.2102 -1.0877  0.1907
  130MOL0     H17496   9.008   9.278   9.357  0.7246  0.5015  0.9294
  130MOL0     H17497   8.904   9.419   9.612  1.8217 -1.2211  1.0186
  130MOL0     H17498   8.957   9.494   9.457 -3.2085 -1.2566 -1.0713
  130MOL0     H17499   9.133   9.495   9.659  1.0595 -0.3988 -0.0228
  130MOL0     H17500   9.132   9.323   9.643  0.2027  0.9837  1.7849
  130MOL0     H17501   9.139   9.575   9.340 -1.4545  0.3337  0.1734
  130MOL0     H17502   9.394   9.456   9.122 -2.4439 -3.2734  2.3173
  130MOL0     H17503   9.254   9.570   9.136 -0.7232 -1.1343 -2.0674
  130MOL0     H17504   9.411   9.720   9.300  2.9530 -1.1052  1.6640
  130MOL0     H17505   9.538   9.646   9.219  0.1592  5.2182  0.6479
  130MOL0     H17506   9.322   9.809   9.095 -0.6636 -1.3977  2.3125
  130MOL0     H17507   9.432   9.718   8.993 -2.5900 -1.8635  0.4092
  130MOL0     H17508   9.539   9.930   9.208 -0.8508 -0.1058 -0.0625
  130MOL0     H17509   9.468   9.978   9.049 -2.0765 -1.4180  0.0040
  130MOL0     H17510   9.746  10.058   9.210 -0.9573  0.1345  0.0221
  130MOL0     H17511   9.896  10.246   9.135  1.1611  3.9298 -3.2497
  130MOL0     H17512   9.979  10.606   8.830 -1.0386  0.1224 -0.3510
  130MOL0     H17513  10.125  10.775   8.711  1.6663  0.1041 -1.4131
  130MOL0     H17514  10.243  10.931   8.537  1.3505  1.7017 -2.3760
  130MOL0     H17515  10.356  10.803   8.601  0.7853  1.6812  0.5214
  130MOL0     H17516  10.475  10.950   8.451  1.2464 -0.8891 -0.5083
  130MOL0     H17517  10.445  10.793   8.363 -0.4486 -0.7611  0.5956
  130MOL0     H17518  10.219  10.965   8.319 -0.3021  0.6437 -1.2109
  130MOL0     H17519  10.384  11.041   8.272  0.3189  0.2461  1.0223
  130MOL0     H17520  10.428  10.852   8.130  0.0271 -1.9726  0.9852
  130MOL0     H17521  10.291  10.948   8.076 -1.4676 -1.0505 -0.1213
  130MOL0     H17522  10.254  10.673   8.215 -1.9665 -0.9988 -0.9408
  130MOL0     H17523  10.241  10.717   8.043  0.4663  2.8127 -0.7330
  130MOL0     H17524  10.075  10.832   8.272  1.8894  1.1648 -0.2658
  130MOL0     H17525  10.052  10.877   8.101 -0.8853  1.1100  2.1292
  130MOL0     H17526   9.886  10.735   8.188  2.8846  3.4692  0.0318
  130MOL0     H17527  10.004  10.602   8.204  2.8228 -0.8131 -0.8423
  130MOL0     H17528   9.946  10.742   7.938  2.0698 -2.9988 -3.4105
  130MOL0     H17529  10.051  10.613   7.970  0.2708 -2.0549  3.1856
  130MOL0     H17530  10.129  10.496   8.376 -2.2286  1.6347 -0.7576
  130MOL0     H17531   9.969  10.350   8.502 -2.6693  0.9827 -0.3753
  130MOL0     H17532   9.782  10.148   8.728 -1.0163 -1.7836  0.2296
  130MOL0     H17533   9.683   9.939   8.798 -2.1469  1.6406 -0.5326
  130MOL0     H17534   8.059   9.404   9.132  0.2286  0.8460 -0.3178
  130MOL0     H17535   7.914   9.419   8.928  2.3197  1.9227  0.3209
  130MOL0     H17536   7.698   9.097   8.599  1.9150  1.5242  1.7218
  130MOL0     H17537   7.571   9.105   8.395 -0.5279  0.7770  0.0132
  130MOL0     H17538   7.587   8.999   8.139 -0.3431 -0.7532 -0.6625
  130MOL0     H17539   7.738   9.032   8.047 -0.2601 -0.4876 -0.1498
  130MOL0     H17540   7.545   9.024   7.894 -0.6826 -1.6656  1.6052
  130MOL0     H17541   7.646   9.168   7.890  1.5883 -0.8009  0.2006
  130MOL0     H17542   7.454   9.283   8.045 -3.0292 -0.8910  1.7846
  130MOL0     H17543   7.386   9.117   8.044  0.4338  0.4597  1.2841
  130MOL0     H17544   7.450   9.268   7.784 -0.2333  0.9166  0.1729
  130MOL0     H17545   7.350   9.135   7.799  1.8004  0.1425 -0.1868
  130MOL0     H17546   7.088   9.445   7.856 -1.9474 -2.6422 -0.7898
  130MOL0     H17547   7.920   9.243   8.175 -2.2327  0.0281  0.0239
  130MOL0     H17548   8.134   9.269   8.473  0.6808  0.4041 -0.1373
  130MOL0     H17549   8.129   9.172   8.323  2.5617  0.8745  1.6888
  130MOL0     H17550   8.104   9.352   8.335 -1.2757  1.6360  2.8312
  131MOL0     O17551   3.627   5.638   5.303 -0.3483 -0.0865 -0.1036
  131MOL0     C17552   3.540   5.617   5.218 -0.0978 -0.9920 -0.1662
  131MOL0     O17553   3.518   5.699   5.113  0.7608 -0.9742  0.2512
  131MOL0     C17554   3.605   5.805   5.095 -0.3244 -0.1291 -0.4879
  131MOL0     C17555   3.556   5.937   5.081  0.6284  0.5095 -0.9585
  131MOL0     C17556   3.647   6.031   5.046  0.5281  0.5230 -0.1882
  131MOL0     C17557   3.783   6.007   5.034 -0.7166  1.4558 -0.1617
  131MOL0     O17558   3.867   6.112   5.009  0.3025  0.2065  0.3471
  131MOL0     C17559   3.943   6.100   4.885 -0.4744  0.2611 -0.0865
  131MOL0     C17560   4.063   6.183   4.899  0.9631  0.0069 -0.7615
  131MOL0     C17561   4.136   6.217   4.771  0.4499 -0.0516  0.1042
  131MOL0     C17562   4.267   6.297   4.795 -0.1503  0.8288 -0.0359
  131MOL0     C17563   4.338   6.334   4.661  0.3817 -1.1162 -0.6352
  131MOL0     C17564   4.264   6.452   4.593  0.2788 -0.5467 -0.4397
  131MOL0     C17565   4.347   6.504   4.474  0.1633 -0.5160 -0.5182
  131MOL0     C17566   4.275   6.615   4.400 -0.2126 -0.0637 -0.1135
  131MOL0     N17567   4.270   6.740   4.481 -0.1072  0.4871  0.3688
  131MOL0     C17568   4.361   6.839   4.459 -0.2102  0.0002  0.0974
  131MOL0     C17569   4.313   6.948   4.521  0.6754  0.2193 -0.8983
  131MOL0     C17570   4.369   7.077   4.486 -0.0642 -1.2107 -0.0235
  131MOL0     C17571   4.384   7.149   4.622 -0.6563 -0.9872 -0.2185
  131MOL0     C17572   4.477   7.271   4.602  0.3574 -0.4597 -0.2163
  131MOL0     C17573   4.418   7.378   4.513  0.0400  0.3660 -0.2746
  131MOL0     O17574   4.506   7.485   4.502 -0.2881  0.3432  0.0765
  131MOL0     C17575   4.448   7.596   4.446  0.4270 -0.3583  0.2488
  131MOL0     C17576   4.417   7.602   4.307 -0.1886  0.0818  0.5294
  131MOL0     C17577   4.336   7.706   4.251  0.1955  0.6711 -0.3876
  131MOL0     C17578   4.299   7.816   4.336  0.0110 -0.5469 -0.7847
  131MOL0     C17579   4.219   7.932   4.280  0.4975  0.1545  0.1014
  131MOL0     O17580   4.171   8.020   4.370  0.3866 -0.3967  0.6470
  131MOL0     C17581   4.103   8.129   4.335  0.1740  0.5453 -0.6431
  131MOL0     C17582   4.082   8.218   4.445  0.2433  0.1769 -0.5199
  131MOL0     C17583   4.017   8.339   4.430 -0.7399 -0.7549  0.6061
  131MOL0     C17584   3.984   8.383   4.311  0.1277 -0.1501  0.4061
  131MOL0     O17585   3.912   8.498   4.285 -0.3359 -0.1330  0.0197
  131MOL0     C17586   3.956   8.565   4.158 -0.3269  0.3333 -0.4206
  131MOL0     C17587   3.924   8.712   4.187 -0.3730  0.8238 -0.6021
  131MOL0     C17588   3.976   8.807   4.082  0.0648 -0.5051  1.3838
  131MOL0     C17589   4.124   8.837   4.099 -0.7967  0.0328 -0.7759
  131MOL0     C17590   4.161   8.964   4.021 -0.3947 -0.7651  0.6923
  131MOL0     C17591   4.290   9.020   4.080 -0.9414  0.0304  1.0017
  131MOL0     C17592   4.356   9.131   3.992 -1.0215 -0.3683 -0.1268
  131MOL0     C17593   4.505   9.133   4.005 -0.6106  0.5067  0.2223
  131MOL0    Cl17594   4.579   9.241   3.885 -0.1760 -0.0827  0.4476
  131MOL0     C17595   4.008   8.296   4.204 -0.0200  0.1670  0.6233
  131MOL0     C17596   4.058   8.163   4.213  0.6942 -0.3799 -0.4404
  131MOL0     O17597   4.217   7.935   4.158  0.1362  0.7481 -0.4373
  131MOL0     C17598   4.330   7.810   4.475  0.0461 -0.6570 -0.3747
  131MOL0     C17599   4.406   7.700   4.527 -0.0163 -0.9354  0.3069
  131MOL0     N17600   4.184   6.918   4.568 -0.8349  0.0870  0.3542
  131MOL0     N17601   4.158   6.792   4.541  0.8035 -0.2435  0.0994
  131MOL0     C17602   3.828   5.878   5.063 -0.6429 -0.2478 -0.1924
  131MOL0     C17603   3.741   5.780   5.091 -0.4953 -0.5213  0.0742
  131MOL0     C17604   3.454   5.504   5.237 -0.7740  0.4974  0.4868
  131MOL0     C17605   3.500   5.395   5.325 -0.5117  0.1539 -0.0311
  131MOL0     C17606   3.414   5.292   5.353 -0.4368  0.8310 -0.9388
  131MOL0     C17607   3.297   5.276   5.290 -0.0651 -0.7977  0.4048
  131MOL0     O17608   3.231   5.153   5.317  1.0299 -0.1557  0.7746
  131MOL0     C17609   3.104   5.125   5.254 -0.2096  0.6790 -0.0610
  131MOL0     C17610   3.061   4.979   5.280 -0.8729  0.1751 -0.2156
  131MOL0     C17611   3.131   4.912   5.398 -0.0134 -0.5447  0.4265
  131MOL0     C17612   3.064   4.776   5.409  0.0929 -0.3827  0.7621
  131MOL0     C17613   3.115   4.705   5.522 -0.3427 -0.5139 -0.3953
  131MOL0     C17614   3.155   4.650   5.622  0.8741  0.0667 -0.1268
  131MOL0     C17615   3.252   5.376   5.205 -0.2756  0.6309  0.6418
  131MOL0     C17616   3.329   5.489   5.174 -0.0453  0.4513 -0.8667
  131MOL0     C17617   3.262   5.584   5.077 -0.0942 -0.5794 -0.2647
  131MOL0     H17618   3.449   5.955   5.077  0.3169 -0.7480  0.5977
  131MOL0     H17619   3.617   6.132   5.023  2.1042  0.5229 -2.5214
  131MOL0     H17620   3.979   5.999   4.869 -2.0257 -0.6142  1.5583
  131MOL0     H17621   3.889   6.148   4.803 -2.4707 -1.4833  0.1308
  131MOL0     H17622   4.127   6.136   4.974  1.1929  1.0127 -0.3194
  131MOL0     H17623   4.035   6.277   4.946 -2.1919 -1.0752 -0.2165
  131MOL0     H17624   4.074   6.278   4.705  0.4914 -2.1706 -2.0369
  131MOL0     H17625   4.170   6.129   4.716  3.6373  0.7889  0.5094
  131MOL0     H17626   4.262   6.375   4.872  0.6049  2.4030 -1.5046
  131MOL0     H17627   4.333   6.222   4.839  1.0440  1.3563 -0.8633
  131MOL0     H17628   4.439   6.358   4.698 -1.2717  1.5722  2.6694
  131MOL0     H17629   4.334   6.262   4.579 -0.9218  0.7661 -2.3202
  131MOL0     H17630   4.169   6.410   4.561  0.5139  0.6741 -3.0446
  131MOL0     H17631   4.248   6.536   4.662  0.6782  1.5906 -2.7719
  131MOL0     H17632   4.357   6.422   4.402  0.3270 -1.5367  0.6211
  131MOL0     H17633   4.438   6.541   4.523 -1.6275  1.6586  1.4061
  131MOL0     H17634   4.328   6.636   4.307 -0.7832  1.5468 -0.1069
  131MOL0     H17635   4.173   6.584   4.371 -0.4612  1.0115 -0.4171
  131MOL0     H17636   4.447   6.812   4.399 -1.6021 -1.8060 -1.2011
  131MOL0     H17637   4.464   7.070   4.432  1.2264 -2.9412  2.2863
  131MOL0     H17638   4.292   7.129   4.428  1.9196  0.4031 -1.3528
  131MOL0     H17639   4.288   7.176   4.667  0.1315  2.5258 -0.4105
  131MOL0     H17640   4.421   7.076   4.695  1.3764 -0.4470 -0.6378
  131MOL0     H17641   4.570   7.234   4.559  1.0063  1.5562 -0.6603
  131MOL0     H17642   4.504   7.309   4.700  0.4998  0.6309 -0.6596
  131MOL0     H17643   4.325   7.402   4.566  0.5852  0.8997  0.4659
  131MOL0     H17644   4.402   7.342   4.411 -3.3844 -1.4384  0.7665
  131MOL0     H17645   4.430   7.510   4.251  0.0441  0.4352 -0.0082
  131MOL0     H17646   4.306   7.707   4.147 -0.6909 -3.7979 -0.3557
  131MOL0     H17647   4.131   8.175   4.532 -0.5323 -0.4623 -0.3867
  131MOL0     H17648   3.991   8.389   4.522 -1.9057 -1.0461  0.4441
  131MOL0     H17649   4.063   8.550   4.138 -0.0028 -1.5764  2.3070
  131MOL0     H17650   3.901   8.525   4.073 -1.0649  0.5925 -0.0714
  131MOL0     H17651   3.816   8.721   4.176 -0.6561  2.7276  2.5824
  131MOL0     H17652   3.965   8.748   4.282  1.9752 -0.3651 -1.0802
  131MOL0     H17653   3.963   8.786   3.976  0.7286  0.6019  1.0670
  131MOL0     H17654   3.914   8.897   4.087 -0.4121 -0.5591 -1.6280
  131MOL0     H17655   4.178   8.749   4.065 -2.7738 -2.2235  1.5212
  131MOL0     H17656   4.145   8.857   4.204 -1.9667  0.2803 -0.5716
  131MOL0     H17657   4.088   9.044   4.031 -0.4657 -0.9201  1.4233
  131MOL0     H17658   4.182   8.941   3.916 -0.1666 -1.7950  0.9469
  131MOL0     H17659   4.280   9.061   4.181  0.5468 -0.6779  1.4603
  131MOL0     H17660   4.360   8.937   4.091 -2.3818 -1.1060  2.0742
  131MOL0     H17661   4.307   9.229   4.000 -2.2702 -0.7548 -2.1871
  131MOL0     H17662   4.341   9.108   3.886  1.3612  0.0469 -0.5944
  131MOL0     H17663   4.539   9.167   4.103 -1.6924 -1.1177  1.1943
  131MOL0     H17664   4.530   9.028   3.990 -3.9850 -0.5449  1.1746
  131MOL0     H17665   3.965   8.320   4.107 -1.8055  1.5299  1.6775
  131MOL0     H17666   4.086   8.102   4.128  3.5514 -1.3054  1.0280
  131MOL0     H17667   4.285   7.889   4.535 -0.5687 -1.9283  0.9136
  131MOL0     H17668   4.440   7.696   4.630  4.3124 -0.6879 -0.9128
  131MOL0     H17669   3.935   5.856   5.069 -0.8115 -0.9584  0.4124
  131MOL0     H17670   3.782   5.681   5.078 -1.2422 -0.4932 -3.6397
  131MOL0     H17671   3.589   5.378   5.385 -0.0302 -2.5680 -1.3713
  131MOL0     H17672   3.438   5.220   5.431  0.4254  2.9585  0.8901
  131MOL0     H17673   3.117   5.128   5.146 -0.7552  1.1270 -0.1177
  131MOL0     H17674   3.020   5.193   5.272  0.4191  1.0263  1.7907
  131MOL0     H17675   3.084   4.911   5.198 -0.4715 -1.2870  1.0773
  131MOL0     H17676   2.953   4.980   5.299 -1.2261  0.1288 -2.0098
  131MOL0     H17677   3.130   4.965   5.494  2.1920 -2.0789  1.3587
  131MOL0     H17678   3.238   4.899   5.385 -0.3059 -1.3940 -1.5717
  131MOL0     H17679   2.956   4.791   5.417 -0.4865 -4.0820  2.0241
  131MOL0     H17680   3.073   4.727   5.311 -1.6072  3.2519 -1.4152
  131MOL0     H17681   3.183   4.609   5.717 -1.8176  0.4091  0.9186
  131MOL0     H17682   3.160   5.357   5.150  0.3785 -0.4770 -0.1123
  131MOL0     H17683   3.340   5.604   5.002  2.2498 -2.1376  1.6207
  131MOL0     H17684   3.171   5.545   5.031  1.4976 -3.2089 -1.4251
  131MOL0     H17685   3.256   5.677   5.134  1.1594 -0.2449 -0.6355
  132MOL0     O17686   3.005   7.992   8.909  0.5357 -0.6992  0.2871
  132MOL0     C17687   2.977   8.110   8.939  0.3948  0.4582 -0.5154
  132MOL0     O17688   3.015   8.212   8.868 -0.7521  0.0553  0.7041
  132MOL0     C17689   3.146   8.230   8.825  0.0837  0.6174  0.5593
  132MOL0     C17690   3.218   8.138   8.740  0.1008 -0.0049 -0.6681
  132MOL0     C17691   3.334   8.162   8.678  0.0166  0.5323  0.0545
  132MOL0     C17692   3.390   8.287   8.696  0.2535 -0.2227 -1.1412
  132MOL0     O17693   3.509   8.333   8.654  0.1852 -0.2790 -0.3408
  132MOL0     C17694   3.611   8.243   8.606 -0.8031 -0.2277  0.4423
  132MOL0     C17695   3.606   8.219   8.460  0.5166 -0.2565  0.3739
  132MOL0     C17696   3.745   8.170   8.424 -0.9545  0.7115  0.4664
  132MOL0     C17697   3.757   8.114   8.272 -0.0957  0.5022 -0.2449
  132MOL0     C17698   3.902   8.082   8.249  0.2969  0.3203  0.2487
  132MOL0     C17699   3.940   8.022   8.113 -0.3705 -0.0191  0.3698
  132MOL0     C17700   4.084   8.045   8.085  0.2864  0.1049  0.9524
  132MOL0     C17701   4.145   7.979   7.956 -0.4448  1.0251  0.8480
  132MOL0     N17702   4.268   8.045   7.910 -0.2755 -0.4401  0.2085
  132MOL0     C17703   4.397   8.003   7.922  0.7397 -0.0522 -0.6059
  132MOL0     C17704   4.472   8.097   7.876  0.4176 -0.5307  0.5987
  132MOL0     C17705   4.625   8.093   7.907 -0.1199  0.3938  0.7455
  132MOL0     C17706   4.715   8.148   7.792 -0.1827 -0.7113 -0.1834
  132MOL0     C17707   4.863   8.116   7.806 -0.2300  0.0292  0.5200
  132MOL0     C17708   4.921   8.143   7.959 -0.4261 -0.0700  0.5627
  132MOL0     O17709   5.057   8.176   7.940 -0.5490  0.7480 -0.0384
  132MOL0     C17710   5.151   8.172   8.040  1.1346 -0.6700 -0.5602
  132MOL0     C17711   5.110   8.175   8.175  1.1859 -0.1332  0.1195
  132MOL0     C17712   5.217   8.177   8.268  0.3683 -0.0623 -0.5978
  132MOL0     C17713   5.353   8.147   8.233  0.3005 -0.6088 -0.3495
  132MOL0     C17714   5.465   8.160   8.332  0.9471  1.0067  0.7309
  132MOL0     O17715   5.589   8.120   8.278  0.4320  0.6365  0.3229
  132MOL0     C17716   5.682   8.064   8.374  1.1677  0.1482  0.9495
  132MOL0     C17717   5.788   8.145   8.418 -1.0689  0.7643 -0.3984
  132MOL0     C17718   5.883   8.097   8.512  0.2976 -0.9847  1.0589
  132MOL0     C17719   5.864   7.966   8.566 -0.4604  0.5538  0.4663
  132MOL0     O17720   5.940   7.920   8.665 -0.0865  0.1865 -0.0988
  132MOL0     C17721   6.063   7.866   8.626  0.2143 -0.1099 -0.5788
  132MOL0     C17722   6.153   7.863   8.752  0.6152  0.1890 -0.1309
  132MOL0     C17723   6.179   8.005   8.806  0.3889 -0.0014  0.2188
  132MOL0     C17724   6.097   8.042   8.929 -0.3578  0.4120 -0.0678
  132MOL0     C17725   6.156   8.159   8.996  0.3652  1.1717  0.3383
  132MOL0     C17726   6.071   8.208   9.110  0.3732  0.5714 -0.5200
  132MOL0     C17727   6.145   8.297   9.208  0.9126 -0.1975  0.5625
  132MOL0     C17728   6.207   8.428   9.151 -0.4725  0.0302  1.4953
  132MOL0    Cl17729   6.360   8.415   9.054 -0.8010 -0.1826 -0.0832
  132MOL0     C17730   5.760   7.881   8.524  0.0168 -0.6240  0.3317
  132MOL0     C17731   5.664   7.937   8.429 -0.1886  0.9804 -0.8225
  132MOL0     O17732   5.442   8.179   8.452 -0.2684  0.2405 -0.4300
  132MOL0     C17733   5.379   8.146   8.103  0.1645  0.3955  0.8530
  132MOL0     C17734   5.285   8.165   8.001  0.4002 -0.0586  0.0365
  132MOL0     N17735   4.391   8.201   7.832  1.1101 -0.2146  0.1298
  132MOL0     N17736   4.264   8.170   7.855 -0.8158  1.2764  0.0999
  132MOL0     C17737   3.316   8.382   8.769 -0.1424 -0.9275 -0.5804
  132MOL0     C17738   3.195   8.358   8.826  0.5778  0.5008  0.2116
  132MOL0     C17739   2.876   8.138   9.043  0.1667 -1.5836  0.2949
  132MOL0     C17740   2.811   8.268   9.035  0.0183 -0.3571 -0.3052
  132MOL0     C17741   2.701   8.300   9.119 -0.1748 -0.9116 -0.0020
  132MOL0     C17742   2.662   8.208   9.217  0.3671 -0.7844  0.5142
  132MOL0     O17743   2.577   8.241   9.323  0.3150  0.2509 -0.1584
  132MOL0     C17744   2.499   8.363   9.305  0.1833 -1.3016 -0.0779
  132MOL0     C17745   2.400   8.386   9.423  0.2702  0.3849  0.3950
  132MOL0     C17746   2.289   8.487   9.390 -0.8545 -0.0951  0.2054
  132MOL0     C17747   2.318   8.627   9.433 -0.2336  0.6471 -0.3681
  132MOL0     C17748   2.416   8.695   9.341  0.2559  0.2429 -0.0455
  132MOL0     C17749   2.483   8.746   9.253  0.4627 -1.3365  0.4730
  132MOL0     C17750   2.714   8.087   9.221 -0.1801  0.7753  0.0316
  132MOL0     C17751   2.825   8.048   9.132 -0.0721  0.0348 -0.0890
  132MOL0     C17752   2.889   7.911   9.152  0.0518 -0.0606 -0.1694
  132MOL0     H17753   3.167   8.044   8.722  1.9386 -1.2544  0.4060
  132MOL0     H17754   3.388   8.091   8.615  0.3667  2.4163 -1.8759
  132MOL0     H17755   3.709   8.286   8.630 -0.8804  2.2364 -2.9338
  132MOL0     H17756   3.602   8.141   8.644  2.1234 -0.9645 -0.6111
  132MOL0     H17757   3.591   8.313   8.406  0.8028 -1.1453 -1.3141
  132MOL0     H17758   3.522   8.156   8.429 -0.9761  0.9829  1.7048
  132MOL0     H17759   3.762   8.081   8.485 -0.1243  2.2453  2.6119
  132MOL0     H17760   3.821   8.246   8.446  1.6176 -2.5471  4.1139
  132MOL0     H17761   3.701   8.021   8.261  2.4543 -1.4821  2.0563
  132MOL0     H17762   3.720   8.196   8.210  2.0608  0.2221 -2.0368
  132MOL0     H17763   3.949   8.173   8.286 -2.7374  1.2980  2.1332
  132MOL0     H17764   3.940   8.016   8.327  0.7504  0.3134  0.0258
  132MOL0     H17765   3.909   7.918   8.131 -1.3804  0.3698  0.9212
  132MOL0     H17766   3.884   8.061   8.027 -0.1613  0.0240  0.2518
  132MOL0     H17767   4.143   8.015   8.172  2.6865 -0.3689 -0.7360
  132MOL0     H17768   4.083   8.154   8.072  0.0055  0.1760  1.5416
  132MOL0     H17769   4.153   7.874   7.986  0.3110  1.4162  2.0776
  132MOL0     H17770   4.071   7.973   7.876 -2.7396 -5.0589  2.7879
  132MOL0     H17771   4.415   7.901   7.956 -1.4950 -1.4254 -3.2221
  132MOL0     H17772   4.656   8.145   7.998 -0.4630  0.2869  0.9246
  132MOL0     H17773   4.646   7.985   7.907  1.0556  0.5922 -0.7126
  132MOL0     H17774   4.693   8.095   7.699  0.0926  0.0338 -0.6822
  132MOL0     H17775   4.695   8.253   7.771 -1.1125 -1.1131 -1.4260
  132MOL0     H17776   4.915   8.178   7.731 -0.2270  0.4471  0.8647
  132MOL0     H17777   4.879   8.011   7.779  0.0870  0.2751 -0.2933
  132MOL0     H17778   4.918   8.048   8.012 -1.4077 -1.0045 -1.0873
  132MOL0     H17779   4.861   8.217   8.013 -0.3950  0.8828 -0.6811
  132MOL0     H17780   5.006   8.179   8.208  0.8449 -3.2787 -0.2789
  132MOL0     H17781   5.204   8.180   8.376 -0.4898  2.8382 -0.6901
  132MOL0     H17782   5.817   8.236   8.366 -0.5739  0.9857  0.2560
  132MOL0     H17783   5.973   8.156   8.520 -1.5999  3.3172 -3.3863
  132MOL0     H17784   6.055   7.761   8.597  1.4586 -1.0814  2.2544
  132MOL0     H17785   6.109   7.929   8.549  0.5255  1.1209  0.5654
  132MOL0     H17786   6.113   7.800   8.831 -0.1472 -0.2590 -0.8590
  132MOL0     H17787   6.246   7.816   8.717  1.3738  1.3567  0.2670
  132MOL0     H17788   6.286   8.016   8.823 -0.0774  0.6949  3.3682
  132MOL0     H17789   6.158   8.072   8.722 -2.0047 -1.9568 -0.8690
  132MOL0     H17790   6.095   7.956   8.997 -0.2897 -2.2547 -3.1812
  132MOL0     H17791   5.999   8.064   8.886 -0.1637 -1.8444 -1.8729
  132MOL0     H17792   6.158   8.236   8.919  0.8841  3.1990  2.2714
  132MOL0     H17793   6.262   8.144   9.022  1.0101 -0.2336 -2.6315
  132MOL0     H17794   5.974   8.243   9.074 -0.5044 -0.0226  1.1694
  132MOL0     H17795   6.055   8.117   9.168 -1.6987  0.5892 -1.0019
  132MOL0     H17796   6.221   8.236   9.257  3.4627  0.2352 -2.4710
  132MOL0     H17797   6.069   8.338   9.275  1.4652 -2.0417  2.4081
  132MOL0     H17798   6.128   8.497   9.119 -1.6192  0.4588  4.8850
  132MOL0     H17799   6.240   8.464   9.249 -1.1705  0.5608  1.5372
  132MOL0     H17800   5.737   7.784   8.568  1.1092 -1.8868 -1.7264
  132MOL0     H17801   5.580   7.868   8.421  0.9248 -0.9077  2.0710
  132MOL0     H17802   5.478   8.143   8.059 -1.1723 -1.4723 -2.4291
  132MOL0     H17803   5.314   8.166   7.896  1.0592 -1.5483  0.1857
  132MOL0     H17804   3.366   8.478   8.783  0.1410 -1.1973  0.3055
  132MOL0     H17805   3.135   8.424   8.888  1.4758  0.0001  1.6707
  132MOL0     H17806   2.856   8.338   8.966  0.1710 -0.9989 -0.8578
  132MOL0     H17807   2.667   8.403   9.112 -0.4074 -0.9159  0.9593
  132MOL0     H17808   2.440   8.351   9.214  0.4993 -2.9183 -0.0964
  132MOL0     H17809   2.563   8.450   9.291 -1.9606  0.8015  2.1340
  132MOL0     H17810   2.451   8.423   9.512 -1.4694 -2.0998  2.5961
  132MOL0     H17811   2.345   8.297   9.455 -1.9524  2.9247  4.4684
  132MOL0     H17812   2.202   8.447   9.442  0.6628 -1.8663  1.5393
  132MOL0     H17813   2.266   8.487   9.283 -1.7968  1.1525  0.3843
  132MOL0     H17814   2.224   8.676   9.409 -0.2888 -0.6105 -3.0522
  132MOL0     H17815   2.347   8.644   9.537  2.3552  1.2408 -1.1139
  132MOL0     H17816   2.545   8.783   9.174  4.0557 -2.5210  2.5135
  132MOL0     H17817   2.683   8.004   9.285 -0.8152  0.3801 -0.7694
  132MOL0     H17818   2.997   7.924   9.163  0.2648 -2.8800  2.1350
  132MOL0     H17819   2.860   7.856   9.242  2.5148  0.5020  1.0432
  132MOL0     H17820   2.877   7.850   9.062  0.7978 -1.9998  0.9725
  133MOL0     O17821   4.602   1.988   8.341  0.3371 -0.0208 -0.2908
  133MOL0     C17822   4.541   2.021   8.243  0.2204 -0.8503 -0.4448
  133MOL0     O17823   4.482   1.931   8.154  0.3420 -0.1720  0.3590
  133MOL0     C17824   4.480   1.793   8.186 -1.1608 -0.1679 -0.4562
  133MOL0     C17825   4.480   1.715   8.074  0.0930 -0.2751 -0.4530
  133MOL0     C17826   4.458   1.574   8.089  0.4251 -0.1879  0.0512
  133MOL0     C17827   4.460   1.512   8.218  0.8085  0.3323 -0.1248
  133MOL0     O17828   4.468   1.373   8.246  0.2801  0.1540  0.2857
  133MOL0     C17829   4.448   1.288   8.128  0.0901  0.7580 -0.5138
  133MOL0     C17830   4.305   1.251   8.091 -0.2111  0.5444  0.2792
  133MOL0     C17831   4.210   1.244   8.206 -0.4882  0.4224  0.1254
  133MOL0     C17832   4.073   1.178   8.189 -0.1415  0.5217  0.2812
  133MOL0     C17833   4.001   1.222   8.061  0.4120 -0.4855 -0.7179
  133MOL0     C17834   3.858   1.195   8.058  0.1561 -0.7317  0.5350
  133MOL0     C17835   3.811   1.205   7.910 -0.2230  0.5222 -0.2012
  133MOL0     C17836   3.660   1.194   7.889 -0.3087 -0.8363 -0.0299
  133MOL0     N17837   3.604   1.329   7.876 -0.5432  0.1384  0.3233
  133MOL0     C17838   3.474   1.355   7.900 -0.5879  0.1019  0.6507
  133MOL0     C17839   3.459   1.475   7.845 -0.8446 -0.1543 -0.4684
  133MOL0     C17840   3.327   1.540   7.844 -0.6556 -0.1272  0.0033
  133MOL0     C17841   3.324   1.681   7.786 -0.6794  0.1875  0.0813
  133MOL0     C17842   3.176   1.738   7.777  0.6964  0.2967  0.5958
  133MOL0     C17843   3.184   1.878   7.709 -0.3733 -0.8238 -0.0601
  133MOL0     O17844   3.063   1.917   7.636 -0.1214  0.4437 -0.4938
  133MOL0     C17845   3.027   1.875   7.512  1.2870 -0.1768 -0.2827
  133MOL0     C17846   2.889   1.882   7.477 -0.2094 -0.7079  0.0232
  133MOL0     C17847   2.855   1.852   7.349  0.4993  0.4171 -0.1554
  133MOL0     C17848   2.954   1.832   7.246  0.0212 -0.2191  0.4884
  133MOL0     C17849   2.919   1.794   7.102  0.0961 -0.5105  0.8237
  133MOL0     O17850   2.797   1.741   7.076  0.0353 -0.1819  0.0584
  133MOL0     C17851   2.764   1.703   6.949 -0.5978 -0.3065  0.5591
  133MOL0     C17852   2.663   1.764   6.864  0.0137  0.3184 -0.4290
  133MOL0     C17853   2.632   1.719   6.734  0.5821  0.9150  0.1984
  133MOL0     C17854   2.716   1.625   6.675 -0.5224  0.5423 -0.7308
  133MOL0     O17855   2.684   1.572   6.556 -0.5516 -0.1333  0.4972
  133MOL0     C17856   2.544   1.564   6.505  0.3447 -0.6351 -0.1622
  133MOL0     C17857   2.533   1.494   6.358  0.0980 -0.0995 -0.1692
  133MOL0     C17858   2.453   1.588   6.261  0.5187 -0.5359  0.2775
  133MOL0     C17859   2.404   1.496   6.142 -0.7014  0.0051 -0.8082
  133MOL0     C17860   2.299   1.572   6.074  0.8823 -1.3143  1.4460
  133MOL0     C17861   2.322   1.644   5.939  0.3715  0.7120  0.8434
  133MOL0     C17862   2.193   1.720   5.907  0.1415 -0.0265  0.3817
  133MOL0     C17863   2.224   1.816   5.789 -0.1302 -0.2687  0.3170
  133MOL0    Cl17864   2.068   1.903   5.750 -0.3460 -0.4101  0.3233
  133MOL0     C17865   2.823   1.568   6.746 -0.7841 -0.9095  0.2278
  133MOL0     C17866   2.848   1.607   6.882 -0.6394 -1.4699 -0.5649
  133MOL0     O17867   2.995   1.839   7.012  0.3502  0.5986 -0.2831
  133MOL0     C17868   3.084   1.810   7.283  0.0652 -0.3433  0.2001
  133MOL0     C17869   3.119   1.845   7.413  0.2521 -0.3556 -0.2235
  133MOL0     N17870   3.582   1.519   7.799  1.1674 -0.2320  0.0102
  133MOL0     N17871   3.660   1.426   7.799  0.0992 -0.0778  0.3240
  133MOL0     C17872   4.462   1.591   8.319 -0.7533 -1.1884  0.2122
  133MOL0     C17873   4.465   1.726   8.309 -0.4510 -0.9714  0.3705
  133MOL0     C17874   4.536   2.170   8.213  0.6749 -0.7441  0.0613
  133MOL0     C17875   4.504   2.212   8.080 -0.1445 -0.0541  0.3860
  133MOL0     C17876   4.488   2.346   8.043  0.1970 -0.1426  0.0466
  133MOL0     C17877   4.492   2.449   8.141 -0.8820 -0.5140 -0.2383
  133MOL0     O17878   4.472   2.582   8.107 -0.1094 -0.0701  0.2599
  133MOL0     C17879   4.466   2.681   8.211 -0.6338 -0.3727 -0.6154
  133MOL0     C17880   4.435   2.826   8.159 -0.2564  0.8356 -0.2525
  133MOL0     C17881   4.298   2.827   8.110  0.8183 -0.1767  0.3117
  133MOL0     C17882   4.249   2.962   8.061  0.4828  0.3013  0.5915
  133MOL0     C17883   4.210   3.056   8.164  0.1966  0.5365  0.5999
  133MOL0     C17884   4.164   3.151   8.220  0.2017 -0.0355  0.1057
  133MOL0     C17885   4.517   2.408   8.275  0.0764 -0.1448 -0.0609
  133MOL0     C17886   4.538   2.285   8.311 -0.0612  0.8310 -0.5079
  133MOL0     C17887   4.540   2.260   8.455  0.0250  0.0568  0.3930
  133MOL0     H17888   4.476   1.762   7.977 -0.0431  1.2193  0.2458
  133MOL0     H17889   4.458   1.527   7.990 -0.3881  1.4051 -0.7483
  133MOL0     H17890   4.494   1.335   8.041  0.7554  0.1157 -0.5269
  133MOL0     H17891   4.503   1.194   8.142  0.3176  0.8035 -1.0590
  133MOL0     H17892   4.315   1.153   8.043  0.6345  0.6566  0.1998
  133MOL0     H17893   4.277   1.330   8.020  1.1166  0.3118 -0.5400
  133MOL0     H17894   4.191   1.345   8.241  2.7027 -0.2972  5.0816
  133MOL0     H17895   4.267   1.204   8.291  2.0655  2.4222 -0.5337
  133MOL0     H17896   4.092   1.071   8.176 -2.1100  0.2673 -1.0290
  133MOL0     H17897   4.016   1.186   8.282 -3.1177 -2.7795 -1.0226
  133MOL0     H17898   4.017   1.329   8.049 -1.1742 -0.1807 -0.4476
  133MOL0     H17899   4.054   1.174   7.979 -0.5863  0.1399 -1.7634
  133MOL0     H17900   3.830   1.094   8.089 -0.1849 -0.3980  1.3317
  133MOL0     H17901   3.798   1.268   8.114 -0.3916 -2.6758  2.6165
  133MOL0     H17902   3.863   1.124   7.859 -1.1193 -0.9354  1.1381
  133MOL0     H17903   3.853   1.298   7.869  2.1611 -0.6361 -0.6217
  133MOL0     H17904   3.640   1.161   7.787 -0.2766 -1.3807  0.1358
  133MOL0     H17905   3.607   1.133   7.963 -0.3758  0.0193  0.6350
  133MOL0     H17906   3.395   1.293   7.941  0.0409 -0.0168  1.7042
  133MOL0     H17907   3.254   1.485   7.784 -0.7519  2.7278 -2.7121
  133MOL0     H17908   3.291   1.548   7.947  1.3337  0.3165  0.7190
  133MOL0     H17909   3.391   1.750   7.838 -0.5436  0.3117 -0.2583
  133MOL0     H17910   3.369   1.688   7.686  1.2629  0.2841  0.9215
  133MOL0     H17911   3.135   1.749   7.878 -1.8986  1.4156 -0.4785
  133MOL0     H17912   3.106   1.669   7.727 -1.5084  2.0245  1.1523
  133MOL0     H17913   3.261   1.882   7.631 -0.6520 -3.0935 -0.5315
  133MOL0     H17914   3.203   1.952   7.788  1.2881 -0.2681 -0.9326
  133MOL0     H17915   2.819   1.919   7.551  0.5327  1.2683 -0.2048
  133MOL0     H17916   2.757   1.856   7.303  0.5043  2.1062 -0.0865
  133MOL0     H17917   2.593   1.833   6.910  1.6719  1.6157  0.2808
  133MOL0     H17918   2.546   1.762   6.682 -0.3666  1.0269  1.7864
  133MOL0     H17919   2.492   1.506   6.582  0.5496  1.2785  1.5209
  133MOL0     H17920   2.484   1.656   6.507  2.0724  0.6630 -2.6770
  133MOL0     H17921   2.635   1.465   6.331 -0.2206 -3.1160  1.4431
  133MOL0     H17922   2.479   1.399   6.367 -1.2359  0.4722 -1.5321
  133MOL0     H17923   2.364   1.615   6.319 -1.6326 -1.8908 -2.1684
  133MOL0     H17924   2.513   1.673   6.228 -0.9286  0.1690 -0.6278
  133MOL0     H17925   2.373   1.396   6.172  0.4471  0.1254  0.9156
  133MOL0     H17926   2.492   1.493   6.077  1.8784  2.2168  2.2600
  133MOL0     H17927   2.266   1.657   6.135  0.3016 -0.7622  0.3826
  133MOL0     H17928   2.212   1.512   6.047 -1.2039  1.4481  1.6590
  133MOL0     H17929   2.404   1.717   5.935  3.4114 -2.4811  0.1032
  133MOL0     H17930   2.340   1.571   5.860  1.4180  2.6435 -0.7788
  133MOL0     H17931   2.151   1.778   5.989  3.1044  0.6932  1.5362
  133MOL0     H17932   2.120   1.644   5.879 -0.3656  0.8581 -0.7937
  133MOL0     H17933   2.303   1.885   5.819  1.3223 -0.4699 -2.7266
  133MOL0     H17934   2.259   1.775   5.694 -1.0521 -0.9198  0.2409
  133MOL0     H17935   2.891   1.494   6.705 -2.1972 -1.7727 -0.6271
  133MOL0     H17936   2.922   1.551   6.939 -1.0199  0.6529  2.1955
  133MOL0     H17937   3.154   1.786   7.204 -1.3762  1.0980 -1.5817
  133MOL0     H17938   3.223   1.825   7.439 -0.7676 -2.4778  2.7702
  133MOL0     H17939   4.463   1.549   8.419  2.8964  1.8760  1.6995
  133MOL0     H17940   4.451   1.795   8.392  1.5628 -1.1654  0.9267
  133MOL0     H17941   4.494   2.131   8.008 -0.9914  0.5933 -0.2422
  133MOL0     H17942   4.461   2.366   7.940  2.0106 -0.2540 -0.4861
  133MOL0     H17943   4.564   2.687   8.258 -0.6297 -2.5994 -0.2642
  133MOL0     H17944   4.402   2.660   8.297  2.1213 -0.1347  1.6327
  133MOL0     H17945   4.497   2.850   8.072 -3.5072 -0.0374 -3.0101
  133MOL0     H17946   4.453   2.897   8.240 -1.5787 -0.3693  1.1409
  133MOL0     H17947   4.232   2.800   8.192 -0.8930  2.3459 -0.1058
  133MOL0     H17948   4.282   2.769   8.018 -0.3698  0.6337 -0.0186
  133MOL0     H17949   4.323   3.009   7.995  2.1775 -1.0426  1.4357
  133MOL0     H17950   4.157   2.949   8.005  0.4513  2.3998  0.0862
  133MOL0     H17951   4.145   3.249   8.260  1.5703  0.3285 -0.0772
  133MOL0     H17952   4.520   2.478   8.358  1.5244 -1.9242  1.4607
  133MOL0     H17953   4.541   2.349   8.519  0.4269  0.4082 -0.0987
  133MOL0     H17954   4.449   2.203   8.477  1.6129 -1.7371  2.7039
  133MOL0     H17955   4.633   2.209   8.481 -1.1529 -1.2320  2.3329
  134MOL0     O17956   2.829   6.916  10.494 -0.0308 -0.2753  0.8520
  134MOL0     C17957   2.874   7.023  10.522  0.6616 -0.4461  0.4361
  134MOL0     O17958   2.990   7.038  10.598 -0.0025  0.4553  0.7427
  134MOL0     C17959   3.063   6.917  10.616  1.1116 -0.0552  0.1502
  134MOL0     C17960   3.054   6.859  10.744  0.0446 -0.4433  0.2071
  134MOL0     C17961   3.114   6.735  10.766 -0.4618 -0.1967 -0.3422
  134MOL0     C17962   3.179   6.670  10.654 -0.1506 -0.1901 -0.6511
  134MOL0     O17963   3.241   6.544  10.655  0.5308  0.4657  0.5504
  134MOL0     C17964   3.194   6.434  10.737 -0.8273 -0.0625  0.9170
  134MOL0     C17965   3.222   6.304  10.660 -0.3178 -0.5322  1.0708
  134MOL0     C17966   3.224   6.186  10.761  0.0309 -1.1351 -0.1246
  134MOL0     C17967   3.188   6.054  10.716  0.8485 -0.7870 -0.7543
  134MOL0     C17968   3.222   5.941  10.799 -0.2710  0.3796 -0.2869
  134MOL0     C17969   3.356   5.925  10.862  0.6250  0.9319 -0.2196
  134MOL0     C17970   3.469   5.926  10.756  1.9029  0.3464 -0.5159
  134MOL0     C17971   3.478   5.813  10.659 -0.4870  1.3386  0.5748
  134MOL0     N17972   3.488   5.679  10.728  0.9430 -0.3283  0.8451
  134MOL0     C17973   3.596   5.644  10.785 -0.0613 -0.7917  0.3262
  134MOL0     C17974   3.565   5.548  10.868 -0.0333  0.1050  0.1315
  134MOL0     C17975   3.651   5.462  10.961  0.9232 -0.2517 -0.0903
  134MOL0     C17976   3.689   5.539  11.079 -0.0039 -0.0320 -0.5423
  134MOL0     C17977   3.768   5.439  11.175 -0.3279 -0.0264  1.0715
  134MOL0     C17978   3.814   5.500  11.297 -0.6002 -0.8065  1.0969
  134MOL0     O17979   3.930   5.578  11.271 -1.0507  0.1438 -0.2719
  134MOL0     C17980   4.000   5.628  11.380 -0.0886 -0.3829 -0.3988
  134MOL0     C17981   4.064   5.750  11.369 -0.8084  0.6010  0.0290
  134MOL0     C17982   4.117   5.817  11.481  0.5693 -0.3954 -0.6830
  134MOL0     C17983   4.109   5.760  11.607 -0.9796 -0.1855 -0.2374
  134MOL0     C17984   4.188   5.810  11.720  1.1149  0.2544  0.1903
  134MOL0     O17985   4.223   5.943  11.720 -0.5671  0.2341  0.6294
  134MOL0     C17986   4.313   5.979  11.813 -0.8967 -0.2324  0.3663
  134MOL0     C17987   4.262   5.992  11.947  0.7468 -0.4195  0.6888
  134MOL0     C17988   4.340   6.031  12.054  0.0224 -0.4672  0.2226
  134MOL0     C17989   4.474   6.073  12.029  0.4323  0.1568 -0.5913
  134MOL0     O17990   4.559   6.140  12.116  0.5401  0.1833 -0.2616
  134MOL0     C17991   4.514   6.172  12.241  0.2771  0.4988 -1.7659
  134MOL0     C17992   4.619   6.207  12.346 -0.0748  0.8358  0.1792
  134MOL0     C17993   4.735   6.111  12.352  0.6150 -0.3475  0.6317
  134MOL0     C17994   4.826   6.154  12.474  0.8332  0.4689 -0.2936
  134MOL0     C17995   4.956   6.069  12.484 -0.0890 -0.5649  0.0567
  134MOL0     C17996   5.001   6.056  12.629  0.4290 -0.2769  0.2425
  134MOL0     C17997   5.155   6.039  12.648  0.2786 -0.3514  0.4506
  134MOL0     C17998   5.197   5.892  12.624 -0.2474 -0.4250 -0.7643
  134MOL0    Cl17999   5.300   5.836  12.756 -0.2644 -0.0825  0.2707
  134MOL0     C18000   4.522   6.050  11.896 -0.0250  0.0771  0.1146
  134MOL0     C18001   4.446   6.006  11.792  0.6505  1.4014 -0.0809
  134MOL0     O18002   4.221   5.726  11.797 -0.5042  0.5025 -0.1647
  134MOL0     C18003   4.048   5.639  11.618 -0.0231  0.0482 -0.0797
  134MOL0     C18004   3.992   5.576  11.510 -0.3038 -0.9785 -0.5341
  134MOL0     N18005   3.431   5.509  10.844 -0.3711 -0.4059 -0.2063
  134MOL0     N18006   3.386   5.593  10.760  1.7658 -0.0591  0.5156
  134MOL0     C18007   3.189   6.745  10.539  0.8563  0.8698 -0.1511
  134MOL0     C18008   3.121   6.857  10.508 -0.4578 -0.4789  0.2853
  134MOL0     C18009   2.784   7.135  10.519 -0.5113  0.3105  0.2539
  134MOL0     C18010   2.804   7.241  10.612 -0.1476 -0.4536  0.3711
  134MOL0     C18011   2.707   7.343  10.628  0.1181 -0.6861  0.0231
  134MOL0     C18012   2.593   7.353  10.546 -0.2073 -0.4984  0.4137
  134MOL0     O18013   2.511   7.463  10.555 -0.1843  0.5265 -0.3029
  134MOL0     C18014   2.556   7.580  10.479  0.4886 -0.9877 -0.2392
  134MOL0     C18015   2.491   7.706  10.537  0.0759 -0.3288 -0.0223
  134MOL0     C18016   2.337   7.718  10.492  0.0455  0.0415  0.2782
  134MOL0     C18017   2.273   7.829  10.566  0.3768  0.3868  0.0377
  134MOL0     C18018   2.139   7.854  10.515  0.3453 -0.8171  0.1147
  134MOL0     C18019   2.030   7.876  10.476 -0.0317 -0.6562 -0.1467
  134MOL0     C18020   2.576   7.261  10.454  0.1485  0.3258  0.2664
  134MOL0     C18021   2.666   7.146  10.436 -0.7195  0.4893 -0.5735
  134MOL0     C18022   2.650   7.063  10.309  0.8759  0.0292  0.1526
  134MOL0     H18023   2.989   6.905  10.817 -0.7565 -0.4816 -0.4578
  134MOL0     H18024   3.095   6.682  10.859  1.3938 -2.3078 -1.0723
  134MOL0     H18025   3.251   6.433  10.831 -1.2533  1.1035  1.2033
  134MOL0     H18026   3.087   6.441  10.756 -1.3753 -0.8792 -1.5403
  134MOL0     H18027   3.317   6.308  10.605 -0.9315  0.8432  0.0448
  134MOL0     H18028   3.154   6.284  10.577 -0.2030  2.3152  0.1627
  134MOL0     H18029   3.157   6.221  10.840 -2.7352 -2.0103 -1.9216
  134MOL0     H18030   3.328   6.183  10.793 -0.0275  0.3660  0.2781
  134MOL0     H18031   3.079   6.056  10.710  0.8327  2.7707 -1.2915
  134MOL0     H18032   3.209   6.037  10.610 -0.9939  1.7586 -1.6295
  134MOL0     H18033   3.154   5.953  10.884 -1.6819  0.2160 -1.3623
  134MOL0     H18034   3.183   5.849  10.755 -0.9076  0.0906  0.8397
  134MOL0     H18035   3.367   6.011  10.929 -3.6311  0.3094  1.6147
  134MOL0     H18036   3.363   5.833  10.920  1.0741  0.1020 -1.5457
  134MOL0     H18037   3.568   5.929  10.803  0.9123 -1.8092  1.9032
  134MOL0     H18038   3.454   6.018  10.700 -1.8880 -0.3090 -0.8113
  134MOL0     H18039   3.383   5.797  10.607  0.4349 -1.4009 -0.4161
  134MOL0     H18040   3.562   5.815  10.590  0.2405  0.0321  1.4003
  134MOL0     H18041   3.697   5.682  10.773 -0.4028  1.8660  4.0565
  134MOL0     H18042   3.601   5.366  10.975 -0.0233  0.2346 -0.0915
  134MOL0     H18043   3.749   5.437  10.918  0.9066 -1.6277  0.6444
  134MOL0     H18044   3.759   5.617  11.047  1.6706 -0.3562  2.0456
  134MOL0     H18045   3.607   5.588  11.131  0.5155  0.8098 -0.4942
  134MOL0     H18046   3.854   5.417  11.110 -2.3153  0.1716 -1.8382
  134MOL0     H18047   3.718   5.343  11.193 -0.9646  0.0725 -0.0595
  134MOL0     H18048   3.823   5.419  11.370 -1.5150 -1.0863  0.9126
  134MOL0     H18049   3.734   5.563  11.337 -0.8718 -2.0357  2.5898
  134MOL0     H18050   4.068   5.808  11.277  2.9703  3.1942  1.5857
  134MOL0     H18051   4.172   5.909  11.464  1.0504 -0.3011  1.1600
  134MOL0     H18052   4.155   5.974  11.951  0.1772  1.5562 -2.2510
  134MOL0     H18053   4.298   6.045  12.153  0.8053  4.1100  0.1201
  134MOL0     H18054   4.445   6.257  12.249 -1.4131 -0.9910  2.8078
  134MOL0     H18055   4.458   6.087  12.279 -0.4214  0.5387 -2.6768
  134MOL0     H18056   4.667   6.301  12.319  1.3655  0.6390  1.9121
  134MOL0     H18057   4.573   6.203  12.445 -0.9284  1.0041 -0.1983
  134MOL0     H18058   4.716   6.007  12.379 -0.0794 -0.2200  0.6302
  134MOL0     H18059   4.804   6.119  12.267  0.5457 -1.6417  0.4391
  134MOL0     H18060   4.761   6.129  12.558 -3.3366  4.2984 -2.0066
  134MOL0     H18061   4.845   6.261  12.479  1.1988  0.4676 -1.4197
  134MOL0     H18062   5.030   6.114  12.417 -2.4235  0.1703 -2.1730
  134MOL0     H18063   4.946   5.976  12.429  1.4029 -0.1884 -0.9309
  134MOL0     H18064   4.975   6.139  12.696  1.6589 -1.6082  2.5192
  134MOL0     H18065   4.946   5.977  12.680 -0.3761  0.6533  0.8580
  134MOL0     H18066   5.177   6.065  12.751 -1.7197 -0.2202  0.8943
  134MOL0     H18067   5.211   6.115  12.592  0.5037 -1.2738 -0.5996
  134MOL0     H18068   5.108   5.827  12.630 -0.9960  0.5515 -1.0367
  134MOL0     H18069   5.250   5.869  12.531  0.6500 -3.6037  0.4107
  134MOL0     H18070   4.626   6.074  11.876 -0.0061 -0.2219 -0.1574
  134MOL0     H18071   4.482   5.989  11.691  0.1347 -0.3003 -0.0125
  134MOL0     H18072   4.040   5.591  11.715  2.0020  2.0364  1.1647
  134MOL0     H18073   3.933   5.486  11.527 -0.2726 -0.9152 -0.0836
  134MOL0     H18074   3.233   6.692  10.455 -0.8729 -0.6260 -0.1762
  134MOL0     H18075   3.121   6.898  10.408  0.7489 -1.7149 -0.2501
  134MOL0     H18076   2.876   7.214  10.690  0.4779 -2.6014 -0.8714
  134MOL0     H18077   2.724   7.434  10.684 -1.1574 -1.3431  1.5421
  134MOL0     H18078   2.515   7.565  10.379 -0.6537 -0.7700  0.1866
  134MOL0     H18079   2.665   7.590  10.476  0.2523  2.5671 -1.2783
  134MOL0     H18080   2.530   7.802  10.503  0.6320  0.3283  2.2496
  134MOL0     H18081   2.495   7.702  10.647 -1.0412 -0.8694  0.0131
  134MOL0     H18082   2.272   7.631  10.502 -1.8314  1.2382 -0.8462
  134MOL0     H18083   2.333   7.742  10.385 -1.6788 -0.7627  0.1263
  134MOL0     H18084   2.281   7.800  10.671  0.3839  1.8282  0.4545
  134MOL0     H18085   2.317   7.924  10.534 -2.2207  0.4392 -4.0554
  134MOL0     H18086   1.935   7.904  10.437  0.0487 -1.9516 -1.3723
  134MOL0     H18087   2.487   7.247  10.393 -0.1495  0.2069  0.7163
  134MOL0     H18088   2.602   7.132  10.239  0.7930  4.1550  3.8441
  134MOL0     H18089   2.746   7.023  10.278  1.5992  0.1374  2.1116
  134MOL0     H18090   2.584   6.980  10.337 -0.0656  0.9271  0.7093
  135MOL0     O18091   1.339   3.023   8.484  0.2517  0.3052 -0.1344
  135MOL0     C18092   1.311   2.928   8.559 -0.2369 -0.5596 -0.0890
  135MOL0     O18093   1.321   2.927   8.700 -0.2707  0.2986 -0.0073
  135MOL0     C18094   1.352   3.039   8.767 -0.2461  0.4475 -0.0927
  135MOL0     C18095   1.469   3.042   8.845  1.3789  0.3804  0.3462
  135MOL0     C18096   1.495   3.146   8.945  0.3819  0.5942  0.1842
  135MOL0     C18097   1.404   3.243   8.957  1.2828 -0.3550  1.0496
  135MOL0     O18098   1.419   3.341   9.060 -0.1522 -0.1987  1.0460
  135MOL0     C18099   1.326   3.332   9.170  0.7673 -0.4613  0.0025
  135MOL0     C18100   1.345   3.458   9.256  0.0073 -0.2927 -0.3568
  135MOL0     C18101   1.213   3.482   9.343 -0.1914  0.2716  0.8868
  135MOL0     C18102   1.240   3.559   9.476  0.5856  0.9813  1.0420
  135MOL0     C18103   1.126   3.524   9.573 -0.4072 -0.3471  0.4164
  135MOL0     C18104   1.142   3.600   9.703 -0.4918 -0.2882 -1.1179
  135MOL0     C18105   1.044   3.547   9.811  0.1568  0.7505 -0.3211
  135MOL0     C18106   1.052   3.617   9.944  0.2782  0.4767  0.4120
  135MOL0     N18107   0.973   3.538  10.038 -0.8758 -0.8849  0.3150
  135MOL0     C18108   0.833   3.527  10.055  0.1179  0.7851  0.3892
  135MOL0     C18109   0.809   3.445  10.156 -0.4096  0.1361 -0.7570
  135MOL0     C18110   0.676   3.390  10.196  0.6320 -0.0655 -0.1384
  135MOL0     C18111   0.578   3.497  10.240  0.2167 -0.6617  0.0696
  135MOL0     C18112   0.597   3.545  10.383 -0.3588  0.1254  0.4596
  135MOL0     C18113   0.492   3.654  10.397 -0.1297 -0.4216  0.2637
  135MOL0     O18114   0.522   3.712  10.519  0.3625  0.6505  0.2273
  135MOL0     C18115   0.449   3.825  10.565  1.3123 -0.2588 -0.1997
  135MOL0     C18116   0.509   3.895  10.670  1.0082  0.3715  0.4365
  135MOL0     C18117   0.452   4.015  10.720 -0.2162 -0.6509  0.9359
  135MOL0     C18118   0.327   4.067  10.664  0.2433  0.2968 -0.3957
  135MOL0     C18119   0.255   4.184  10.719  0.4092 -0.6082  0.0357
  135MOL0     O18120   0.265   4.199  10.853  0.1234 -0.5349 -0.1757
  135MOL0     C18121   0.194   4.293  10.922  0.0143 -0.4408 -0.0601
  135MOL0     C18122   0.051   4.279  10.947  0.0574  0.1862  0.3932
  135MOL0     C18123  -0.021   4.365  11.022  0.6814 -0.6648 -0.4618
  135MOL0     C18124   0.040   4.469  11.082 -0.9239  0.3259  0.4483
  135MOL0     O18125  -0.034   4.559  11.150  0.9400  0.3977 -0.3605
  135MOL0     C18126   0.017   4.690  11.147 -0.6495 -1.1537 -0.4827
  135MOL0     C18127  -0.080   4.789  11.203 -0.5822 -0.0934  0.5538
  135MOL0     C18128  -0.039   4.906  11.288 -0.1631  0.1045  1.0739
  135MOL0     C18129  -0.141   5.024  11.281 -0.3872 -0.0214  0.4969
  135MOL0     C18130  -0.080   5.163  11.302  0.2152  0.5572  0.2463
  135MOL0     C18131  -0.197   5.272  11.311  0.0256  0.8699 -0.8405
  135MOL0     C18132  -0.127   5.405  11.369  0.6235  0.3897 -0.3745
  135MOL0     C18133  -0.214   5.523  11.318  0.4112 -0.3978 -0.0916
  135MOL0    Cl18134  -0.163   5.691  11.390  0.0432 -0.3807  0.1583
  135MOL0     C18135   0.184   4.486  11.056  0.1813  0.2055 -0.1735
  135MOL0     C18136   0.258   4.400  10.979  0.2968  0.4339  0.9389
  135MOL0     O18137   0.200   4.258  10.633 -0.6238  0.1995  0.0315
  135MOL0     C18138   0.282   4.002  10.551 -0.0657  0.7990  0.5749
  135MOL0     C18139   0.331   3.883  10.513  0.1906  0.9582  0.1468
  135MOL0     N18140   0.936   3.403  10.201 -0.0972  0.4244 -0.2513
  135MOL0     N18141   1.032   3.467  10.131 -0.6542 -0.3801  0.1669
  135MOL0     C18142   1.290   3.243   8.879 -0.1390  0.1087  0.2865
  135MOL0     C18143   1.255   3.142   8.794  1.0190 -0.3781  0.3721
  135MOL0     C18144   1.268   2.798   8.506 -0.5598  0.4282 -0.1686
  135MOL0     C18145   1.286   2.685   8.593  0.2279 -0.9296  0.0693
  135MOL0     C18146   1.232   2.561   8.554 -0.5677  0.1430 -0.3961
  135MOL0     C18147   1.175   2.542   8.428 -0.4918 -0.7232  0.8927
  135MOL0     O18148   1.135   2.421   8.370 -0.8922 -0.2162 -0.7553
  135MOL0     C18149   1.104   2.314   8.458 -0.7521  1.0868 -0.0994
  135MOL0     C18150   0.951   2.301   8.494 -0.7454 -0.6377 -0.4332
  135MOL0     C18151   0.859   2.285   8.375  0.3379  0.4379  0.3197
  135MOL0     C18152   0.888   2.155   8.295 -1.4041  1.0475  0.0858
  135MOL0     C18153   0.852   2.038   8.381 -0.1697  0.0006  0.0480
  135MOL0     C18154   0.848   1.929   8.430 -0.2307  0.5012 -0.7391
  135MOL0     C18155   1.149   2.654   8.348  0.0888  0.3229  0.9341
  135MOL0     C18156   1.208   2.779   8.377  0.5304 -0.0474  0.2638
  135MOL0     C18157   1.177   2.893   8.280 -0.4460  0.5548  0.6392
  135MOL0     H18158   1.536   2.960   8.824  0.8114 -0.1332  0.4853
  135MOL0     H18159   1.584   3.150   9.006  0.1421 -3.0471  1.0316
  135MOL0     H18160   1.226   3.343   9.127  1.8101  2.3135 -1.9988
  135MOL0     H18161   1.353   3.243   9.228  2.7097 -0.8215 -1.3380
  135MOL0     H18162   1.351   3.526   9.171  1.9868 -3.0513 -2.6290
  135MOL0     H18163   1.444   3.459   9.303 -0.2948 -2.7400  0.4751
  135MOL0     H18164   1.176   3.379   9.349  0.8065 -0.4179 -2.5092
  135MOL0     H18165   1.145   3.533   9.274 -0.1359 -3.0771 -1.9689
  135MOL0     H18166   1.343   3.537   9.508  0.5264 -0.9466  0.0357
  135MOL0     H18167   1.246   3.667   9.458 -0.4910  0.9977  0.7459
  135MOL0     H18168   1.031   3.563   9.535 -0.4003 -2.5782 -2.1654
  135MOL0     H18169   1.120   3.415   9.580  3.8413 -0.9902 -2.0563
  135MOL0     H18170   1.246   3.592   9.738 -0.4149 -1.1626 -1.5230
  135MOL0     H18171   1.132   3.708   9.688  2.5876  0.3018  0.1911
  135MOL0     H18172   1.045   3.438   9.820 -0.5612  0.8613  1.6653
  135MOL0     H18173   0.942   3.558   9.772 -0.6424 -3.1189  0.3651
  135MOL0     H18174   1.158   3.619   9.971  0.2314 -1.0203  0.7708
  135MOL0     H18175   1.012   3.719   9.943  1.4379  1.1584  4.5124
  135MOL0     H18176   0.758   3.570   9.988  2.8383  1.5641 -2.3804
  135MOL0     H18177   0.650   3.329  10.110  1.7565 -0.4175 -0.2561
  135MOL0     H18178   0.693   3.321  10.280  2.1048  1.4281  0.8808
  135MOL0     H18179   0.591   3.584  10.175 -0.1284 -0.8180 -0.2170
  135MOL0     H18180   0.483   3.445  10.222  0.2697 -0.2222 -1.7272
  135MOL0     H18181   0.699   3.583  10.390  0.6800 -1.9673 -1.6915
  135MOL0     H18182   0.579   3.475  10.465 -1.7287  0.9376  0.8815
  135MOL0     H18183   0.395   3.604  10.399 -0.6955  0.6379  0.5374
  135MOL0     H18184   0.481   3.732  10.321 -1.3305 -1.5230 -0.7372
  135MOL0     H18185   0.586   3.854  10.734 -0.9919 -0.8098  2.2017
  135MOL0     H18186   0.505   4.077  10.792 -2.3475  1.9538  0.4230
  135MOL0     H18187   0.002   4.192  10.905 -0.5766  0.1457  1.1776
  135MOL0     H18188  -0.126   4.357  11.049  0.3262 -0.5636 -1.7767
  135MOL0     H18189   0.097   4.698  11.222 -0.9103  0.4017 -0.3235
  135MOL0     H18190   0.063   4.710  11.050 -0.0846 -3.7588 -0.8089
  135MOL0     H18191  -0.133   4.810  11.109 -2.9587 -1.7609  1.4063
  135MOL0     H18192  -0.156   4.741  11.266 -3.2178 -0.4203 -2.5880
  135MOL0     H18193  -0.043   4.889  11.396 -2.2999  0.5327  1.0946
  135MOL0     H18194   0.064   4.928  11.259  1.0983 -2.3036  3.2225
  135MOL0     H18195  -0.211   5.009  11.364 -2.5608 -0.5910 -1.3468
  135MOL0     H18196  -0.191   5.018  11.184 -1.0266 -0.6406  0.8529
  135MOL0     H18197  -0.026   5.177  11.208 -0.7618 -0.3578 -0.4667
  135MOL0     H18198  -0.006   5.158  11.384  0.9406 -0.4031 -0.4358
  135MOL0     H18199  -0.251   5.291  11.218 -2.9229  0.1221  0.5999
  135MOL0     H18200  -0.264   5.240  11.392  4.2638 -4.5931  1.1460
  135MOL0     H18201  -0.031   5.406  11.318  1.3537  0.9261  0.9674
  135MOL0     H18202  -0.110   5.399  11.477  2.2597  1.8719 -0.5020
  135MOL0     H18203  -0.190   5.540  11.213 -0.7530  2.4198  0.0066
  135MOL0     H18204  -0.321   5.499  11.326  0.5814 -1.8468 -1.5319
  135MOL0     H18205   0.233   4.571  11.101  1.0790  0.8130 -2.2101
  135MOL0     H18206   0.366   4.392  10.973  0.2428  0.2357 -0.0551
  135MOL0     H18207   0.183   4.025  10.511 -1.6851 -2.7530  2.0786
  135MOL0     H18208   0.278   3.841  10.428  1.2201 -1.3567  0.5589
  135MOL0     H18209   1.212   3.313   8.903 -1.3304 -0.6356 -1.2011
  135MOL0     H18210   1.156   3.128   8.753  1.9754 -1.7522 -1.6593
  135MOL0     H18211   1.341   2.693   8.686  1.3007 -0.9885 -0.5517
  135MOL0     H18212   1.253   2.473   8.615 -0.0853  2.0394  2.3475
  135MOL0     H18213   1.169   2.309   8.546  1.8931  2.2848 -1.8569
  135MOL0     H18214   1.131   2.229   8.395 -1.8355  0.3192  0.4365
  135MOL0     H18215   0.928   2.386   8.558 -0.9047  0.0303 -1.3665
  135MOL0     H18216   0.943   2.220   8.568  3.1393  1.8955  3.2810
  135MOL0     H18217   0.878   2.374   8.315  1.3419 -0.5160 -0.8543
  135MOL0     H18218   0.753   2.284   8.401 -0.1297 -2.7553 -1.1409
  135MOL0     H18219   0.830   2.150   8.203 -1.4150  4.2660 -0.1974
  135MOL0     H18220   0.990   2.160   8.255 -1.4874 -0.0933 -0.2910
  135MOL0     H18221   0.816   1.834   8.468  0.5752  1.1593  1.7702
  135MOL0     H18222   1.083   2.638   8.264  0.0731  0.0574  0.9952
  135MOL0     H18223   1.137   2.978   8.337 -3.6608 -0.3070 -0.1336
  135MOL0     H18224   1.274   2.932   8.247 -0.9180 -0.0101 -1.5524
  135MOL0     H18225   1.101   2.880   8.203  0.2983 -1.5515  0.2037
  136MOL0     O18226   2.284  10.459   5.493 -0.0309  0.2523 -0.0902
  136MOL0     C18227   2.401  10.470   5.459 -0.1304 -0.6159 -0.1907
  136MOL0     O18228   2.448  10.474   5.329  0.7426  0.0679 -0.3695
  136MOL0     C18229   2.350  10.505   5.234 -0.0084 -0.4350  0.6087
  136MOL0     C18230   2.293  10.629   5.215  0.1111  0.4587 -0.0014
  136MOL0     C18231   2.218  10.656   5.093  0.6492  0.2208 -0.1753
  136MOL0     C18232   2.191  10.563   5.000  0.5203  0.4964  0.1166
  136MOL0     O18233   2.114  10.592   4.893  0.3469 -0.4859  0.3377
  136MOL0     C18234   1.993  10.513   4.872  0.1643  0.1380  0.0988
  136MOL0     C18235   1.889  10.560   4.978 -1.0808  0.2668  0.8169
  136MOL0     C18236   1.814  10.705   4.958  0.4865  0.4177 -0.0390
  136MOL0     C18237   1.692  10.704   4.864  0.1779  0.2777 -0.9193
  136MOL0     C18238   1.619  10.836   4.833 -0.7034 -0.3891 -0.5537
  136MOL0     C18239   1.698  10.933   4.743  0.9425  0.8393 -0.3379
  136MOL0     C18240   1.607  11.063   4.712 -0.3659  0.4066 -1.3152
  136MOL0     C18241   1.699  11.180   4.685 -0.0269  0.6445  0.0171
  136MOL0     N18242   1.762  11.164   4.554 -0.2812 -0.1591  0.3358
  136MOL0     C18243   1.883  11.105   4.520  0.6981  0.6657  0.3340
  136MOL0     C18244   1.898  11.122   4.387 -0.1279 -0.8484  0.4999
  136MOL0     C18245   2.020  11.074   4.306 -0.8403  0.0082  0.5711
  136MOL0     C18246   2.004  11.090   4.150 -0.0004  0.7488 -0.5434
  136MOL0     C18247   2.119  11.022   4.071 -0.1603  0.1704 -0.0434
  136MOL0     C18248   2.262  11.076   4.102 -0.1145 -0.3090 -0.3565
  136MOL0     O18249   2.342  10.985   4.027  0.2443 -0.6667  0.7757
  136MOL0     C18250   2.476  11.014   4.004  0.0192  0.6417 -0.2354
  136MOL0     C18251   2.555  10.901   3.989  0.5612 -0.4089  0.3439
  136MOL0     C18252   2.700  10.915   3.977  0.0569  0.9933 -0.1036
  136MOL0     C18253   2.761  11.044   3.981  0.5299  0.6549 -0.2188
  136MOL0     C18254   2.905  11.050   3.968  0.7896  0.5500  0.1897
  136MOL0     O18255   2.976  10.940   4.024 -0.1001 -0.7375 -0.6436
  136MOL0     C18256   3.114  10.937   4.007  0.4660  0.3719  0.1472
  136MOL0     C18257   3.148  10.822   3.948 -0.2690 -0.5857  1.0663
  136MOL0     C18258   3.286  10.791   3.937 -0.2821 -1.4457 -0.1203
  136MOL0     C18259   3.385  10.880   3.994 -0.6039  0.5276  0.1233
  136MOL0     O18260   3.521  10.865   3.979  0.0585 -0.3039 -0.7017
  136MOL0     C18261   3.558  10.764   3.894  0.3554 -0.6842  0.5213
  136MOL0     C18262   3.711  10.753   3.876  0.2758 -1.2141 -1.0433
  136MOL0     C18263   3.767  10.737   4.024 -0.8834  0.4444  0.9702
  136MOL0     C18264   3.922  10.724   4.033  0.5620  0.7107 -0.3092
  136MOL0     C18265   3.987  10.733   4.174  0.1922 -0.3080 -0.2958
  136MOL0     C18266   4.145  10.717   4.163 -0.9619 -0.1770  0.2694
  136MOL0     C18267   4.220  10.784   4.291 -0.3454  0.4620  0.3221
  136MOL0     C18268   4.261  10.698   4.410 -0.5883 -0.2406 -0.1487
  136MOL0    Cl18269   4.317  10.811   4.554 -0.0007  0.4528  0.3144
  136MOL0     C18270   3.339  10.989   4.064 -0.5016 -0.2381 -1.0438
  136MOL0     C18271   3.206  11.022   4.073  0.7858 -1.2636 -0.2322
  136MOL0     O18272   2.958  11.156   3.923  0.0777  0.5381 -0.7312
  136MOL0     C18273   2.677  11.164   3.994  0.6528  0.6689 -0.5680
  136MOL0     C18274   2.537  11.149   4.006  0.4173 -1.3503  0.1788
  136MOL0     N18275   1.793  11.192   4.344 -0.2049  0.1650  0.6781
  136MOL0     N18276   1.714  11.222   4.441  0.2178 -1.2281  0.1697
  136MOL0     C18277   2.254  10.438   5.018  0.3676 -0.4482 -0.4389
  136MOL0     C18278   2.323  10.408   5.135 -0.8238  0.1810  0.3364
  136MOL0     C18279   2.507  10.480   5.566  0.3128  0.5406 -0.6803
  136MOL0     C18280   2.633  10.523   5.527 -0.7082 -0.1173 -0.2702
  136MOL0     C18281   2.733  10.550   5.618 -0.2709  0.3671 -0.4554
  136MOL0     C18282   2.726  10.526   5.761  0.1201 -0.0491  0.5338
  136MOL0     O18283   2.824  10.564   5.860 -0.2874 -0.1845  0.9284
  136MOL0     C18284   2.937  10.640   5.817  0.2787 -0.1807 -0.3626
  136MOL0     C18285   3.043  10.625   5.926 -0.2082 -0.6841  0.4521
  136MOL0     C18286   3.021  10.704   6.058  0.4258 -0.4060  0.5726
  136MOL0     C18287   3.020  10.860   6.038  0.1970  0.7101 -0.2524
  136MOL0     C18288   3.154  10.909   6.048 -0.3638  0.8096  0.3677
  136MOL0     C18289   3.269  10.942   6.063  0.4686  1.3593  0.2197
  136MOL0     C18290   2.606  10.461   5.798  1.1383  0.4090  0.3779
  136MOL0     C18291   2.500  10.433   5.701  0.5513  0.5783 -0.1931
  136MOL0     C18292   2.377  10.367   5.749 -0.2858  1.3360  0.1904
  136MOL0     H18293   2.303  10.712   5.284 -1.4900 -0.0479  0.8829
  136MOL0     H18294   2.164  10.749   5.082  0.9331  0.2366 -1.6432
  136MOL0     H18295   1.954  10.532   4.771 -2.2071  2.3202  1.3093
  136MOL0     H18296   2.012  10.407   4.892  1.0293  0.4125  0.7800
  136MOL0     H18297   1.944  10.554   5.072 -0.5228  0.3318  0.5034
  136MOL0     H18298   1.807  10.489   4.988 -1.0829  0.3396  1.3159
  136MOL0     H18299   1.888  10.771   4.912  0.9917 -0.5536 -0.6430
  136MOL0     H18300   1.791  10.748   5.056 -3.6101 -1.1689 -0.1144
  136MOL0     H18301   1.719  10.657   4.769  1.0266  0.4812 -0.7839
  136MOL0     H18302   1.617  10.638   4.909  2.0042 -1.5798 -0.4888
  136MOL0     H18303   1.531  10.809   4.776 -0.1036 -1.5723 -0.9451
  136MOL0     H18304   1.594  10.886   4.928  0.4721 -4.0308  1.8910
  136MOL0     H18305   1.793  10.955   4.792  0.9479 -0.7062  0.4108
  136MOL0     H18306   1.716  10.871   4.655 -0.6893  0.0952 -0.1801
  136MOL0     H18307   1.551  11.085   4.804  1.1986  1.4401 -0.5574
  136MOL0     H18308   1.529  11.042   4.638 -0.1430  0.2262 -1.4989
  136MOL0     H18309   1.639  11.271   4.678  0.2020  0.7536 -0.5355
  136MOL0     H18310   1.771  11.190   4.766 -1.9846  3.6930  1.5707
  136MOL0     H18311   1.947  11.048   4.588 -0.1888 -0.3215  0.3641
  136MOL0     H18312   2.110  11.134   4.323  0.2330 -0.4667 -2.7025
  136MOL0     H18313   2.049  10.971   4.332 -1.5134 -1.0937 -2.6104
  136MOL0     H18314   1.915  11.040   4.110  0.4194  0.5996 -1.3050
  136MOL0     H18315   1.990  11.194   4.121 -0.6641  1.1714  1.1908
  136MOL0     H18316   2.100  11.041   3.965 -0.1464  1.4280  0.1688
  136MOL0     H18317   2.111  10.916   4.099  0.7620 -0.2519 -1.2957
  136MOL0     H18318   2.285  11.078   4.209 -2.2754 -1.0745  0.1804
  136MOL0     H18319   2.269  11.179   4.067  0.4664  0.6410  2.2843
  136MOL0     H18320   2.522  10.798   3.997 -1.9775  0.2320 -0.7747
  136MOL0     H18321   2.747  10.818   3.969 -3.7052 -1.1744  1.7312
  136MOL0     H18322   3.065  10.758   3.917  0.3099  0.2312 -2.7376
  136MOL0     H18323   3.312  10.689   3.913  1.9881 -1.5624  2.3329
  136MOL0     H18324   3.520  10.663   3.913  0.3951 -1.2248 -1.9447
  136MOL0     H18325   3.519  10.784   3.794  2.0684 -1.7177 -0.3990
  136MOL0     H18326   3.730  10.660   3.822  3.3437 -1.4178  0.1790
  136MOL0     H18327   3.755  10.841   3.829  1.8185 -1.5047 -0.1920
  136MOL0     H18328   3.738  10.828   4.077  0.8261  3.0358 -2.2246
  136MOL0     H18329   3.708  10.656   4.068 -1.6619 -1.1187 -2.5710
  136MOL0     H18330   3.964  10.810   3.980 -0.2484  0.1665 -1.8898
  136MOL0     H18331   3.951  10.635   3.977 -0.8625 -0.3486  0.5368
  136MOL0     H18332   3.951  10.661   4.249  2.4416 -0.9706  0.2580
  136MOL0     H18333   3.967  10.833   4.214 -2.2858 -1.2722  1.0870
  136MOL0     H18334   4.174  10.613   4.148  1.0360  0.6506 -2.4629
  136MOL0     H18335   4.187  10.763   4.073  1.0566 -1.3691  0.5271
  136MOL0     H18336   4.153  10.865   4.321 -1.9997 -0.5690 -0.4122
  136MOL0     H18337   4.308  10.832   4.247 -0.0415  1.4987  1.9611
  136MOL0     H18338   4.172  10.644   4.444 -0.7158 -1.3982 -2.1651
  136MOL0     H18339   4.336  10.620   4.394 -2.0353 -1.0485 -4.3206
  136MOL0     H18340   3.408  11.055   4.116 -0.9575 -0.3745 -0.2593
  136MOL0     H18341   3.189  11.110   4.135  3.9061 -0.3909 -0.4099
  136MOL0     H18342   2.731  11.258   3.998  3.6839 -1.0015  1.6283
  136MOL0     H18343   2.499  11.250   4.008  3.5292 -0.0375 -1.3044
  136MOL0     H18344   2.235  10.363   4.942 -1.5849 -0.6793  0.2133
  136MOL0     H18345   2.362  10.307   5.147  1.8343  0.5845 -3.2167
  136MOL0     H18346   2.657  10.529   5.421  1.3733 -3.4356 -0.1267
  136MOL0     H18347   2.826  10.581   5.572  0.3234 -0.2258  0.3128
  136MOL0     H18348   2.911  10.746   5.810  0.0160 -0.1963  0.3479
  136MOL0     H18349   2.982  10.604   5.724 -1.3534 -0.0980 -1.2310
  136MOL0     H18350   3.141  10.661   5.893 -0.1030  1.2041  2.5373
  136MOL0     H18351   3.069  10.519   5.938  3.0373 -0.0306  0.0248
  136MOL0     H18352   3.096  10.679   6.134 -0.9758 -1.4436  1.6888
  136MOL0     H18353   2.928  10.670   6.105  1.0257 -0.4059  1.7973
  136MOL0     H18354   2.958  10.894   5.954 -1.4053  0.3912  0.7456
  136MOL0     H18355   2.970  10.897   6.129 -0.5768 -3.0636  1.0306
  136MOL0     H18356   3.373  10.962   6.081  0.5381  1.4672 -0.2821
  136MOL0     H18357   2.574  10.434   5.898  1.6186  0.0130  0.4269
  136MOL0     H18358   2.391  10.339   5.854  1.7858  0.9947 -0.1300
  136MOL0     H18359   2.288  10.427   5.727  0.5720  2.3147 -0.7762
  136MOL0     H18360   2.368  10.274   5.693 -0.1408  2.0748 -1.1111
  137MOL0     O18361   9.642   4.046   9.173 -0.3324  0.1533 -0.5508
  137MOL0     C18362   9.613   4.148   9.231  0.5724 -0.1094  1.9759
  137MOL0     O18363   9.703   4.230   9.300 -0.0319  0.7244  0.6734
  137MOL0     C18364   9.830   4.179   9.314 -0.5372  0.0042  0.3546
  137MOL0     C18365   9.861   4.092   9.412 -0.4080 -0.8218  0.2728
  137MOL0     C18366   9.994   4.057   9.431  0.4142 -0.1470  0.1049
  137MOL0     C18367  10.096   4.113   9.359  0.7611 -0.6363  0.0799
  137MOL0     O18368  10.228   4.068   9.372 -0.6089  0.4022  0.7038
  137MOL0     C18369  10.316   4.178   9.395  0.6675  0.6470 -0.0723
  137MOL0     C18370  10.444   4.118   9.467  0.4553  0.2588 -0.2493
  137MOL0     C18371  10.514   3.987   9.408  0.3952  0.3002  0.2890
  137MOL0     C18372  10.591   4.025   9.286 -0.0982  0.2352 -0.0205
  137MOL0     C18373  10.738   4.050   9.305  0.4802 -0.9404  0.0178
  137MOL0     C18374  10.784   4.092   9.165 -0.3242 -0.4073  0.2136
  137MOL0     C18375  10.937   4.096   9.177  0.7922  0.3499  0.6813
  137MOL0     C18376  11.008   3.958   9.149  0.1053  0.6366  0.7798
  137MOL0     N18377  11.154   3.974   9.160  0.4135 -0.1893  0.0946
  137MOL0     C18378  11.224   4.024   9.058  0.4632 -0.8391  1.1560
  137MOL0     C18379  11.347   4.066   9.105 -0.0382 -0.7104  0.3118
  137MOL0     C18380  11.477   4.131   9.051 -0.7628  0.0151  0.6518
  137MOL0     C18381  11.593   4.040   8.996  0.0870  1.2067 -0.0505
  137MOL0     C18382  11.555   3.945   8.878  0.6798 -0.2160 -0.5237
  137MOL0     C18383  11.650   3.831   8.842 -0.1335 -1.0490  0.8022
  137MOL0     O18384  11.608   3.736   8.737  0.2608 -0.4746 -0.1545
  137MOL0     C18385  11.582   3.777   8.610  0.2921 -0.3061  0.5077
  137MOL0     C18386  11.515   3.705   8.521  0.3075  1.2388 -0.4652
  137MOL0     C18387  11.482   3.751   8.387 -0.1240 -0.8390 -0.3258
  137MOL0     C18388  11.531   3.873   8.343  0.7084 -0.3850 -0.1198
  137MOL0     C18389  11.505   3.923   8.205 -0.5062  0.0931  0.5581
  137MOL0     O18390  11.571   4.026   8.154 -0.0962 -0.2322  0.9913
  137MOL0     C18391  11.538   4.077   8.034  0.0348 -1.2731 -0.2478
  137MOL0     C18392  11.506   4.209   8.032 -0.8292  0.6234  0.6507
  137MOL0     C18393  11.459   4.279   7.916 -0.7002 -0.3718 -0.5262
  137MOL0     C18394  11.449   4.206   7.799  0.1271 -0.2455 -0.7281
  137MOL0     O18395  11.411   4.287   7.690 -0.0403  1.2259  0.6821
  137MOL0     C18396  11.473   4.256   7.570 -0.0313 -0.5079 -0.3553
  137MOL0     C18397  11.426   4.349   7.462  1.1664  0.7036  0.2761
  137MOL0     C18398  11.290   4.321   7.399 -0.6479  0.1796  0.5920
  137MOL0     C18399  11.284   4.380   7.252 -0.1583 -0.3411 -0.8842
  137MOL0     C18400  11.148   4.350   7.195  0.2138  0.1973 -0.3475
  137MOL0     C18401  11.158   4.305   7.044  0.1591 -0.1489  0.1804
  137MOL0     C18402  11.201   4.407   6.938  0.0535  0.2672 -1.2696
  137MOL0     C18403  11.082   4.495   6.908 -0.2979  0.1767 -0.2406
  137MOL0    Cl18404  10.967   4.407   6.810 -0.3246  0.8049 -0.0877
  137MOL0     C18405  11.484   4.070   7.790 -0.4508  0.0492 -0.9243
  137MOL0     C18406  11.524   4.003   7.913  0.1420  0.1706  0.5200
  137MOL0     O18407  11.412   3.862   8.150 -0.8306 -0.8798 -0.3887
  137MOL0     C18408  11.620   3.939   8.429 -0.4483  0.3227 -0.3132
  137MOL0     C18409  11.638   3.897   8.564 -1.1274  0.1605  0.1702
  137MOL0     N18410  11.331   4.042   9.247  0.2347 -0.2404  0.6540
  137MOL0     N18411  11.222   3.983   9.277 -0.2411  0.0137 -0.3111
  137MOL0     C18412  10.063   4.213   9.260 -1.0128  0.1525 -0.7831
  137MOL0     C18413   9.929   4.235   9.241 -0.7378 -0.9670 -0.3381
  137MOL0     C18414   9.472   4.205   9.229 -0.0721  0.3387 -0.4627
  137MOL0     C18415   9.397   4.164   9.117  0.4085 -0.0281 -0.2732
  137MOL0     C18416   9.261   4.191   9.099  0.8785 -0.1245 -1.1766
  137MOL0     C18417   9.198   4.273   9.195  0.3030 -0.2565  0.1099
  137MOL0     O18418   9.072   4.312   9.172 -0.5794 -0.3153 -0.4854
  137MOL0     C18419   8.977   4.205   9.160  0.1209  0.3461  0.3218
  137MOL0     C18420   8.861   4.239   9.074  0.4353  0.2538 -0.0708
  137MOL0     C18421   8.761   4.341   9.125  0.2799  0.1798  0.8117
  137MOL0     C18422   8.678   4.410   9.011  0.2932  0.2906 -0.2711
  137MOL0     C18423   8.586   4.509   9.045  0.2423 -0.0420 -0.2822
  137MOL0     C18424   8.512   4.594   9.088  0.9663  0.0324 -0.6260
  137MOL0     C18425   9.274   4.328   9.300 -0.4197 -0.4215 -0.2775
  137MOL0     C18426   9.410   4.289   9.328  0.3187 -0.3196 -0.0240
  137MOL0     C18427   9.482   4.329   9.452  0.1517  0.6434 -0.0010
  137MOL0     H18428   9.780   4.037   9.459 -1.7270  0.5306 -0.3452
  137MOL0     H18429  10.016   3.982   9.505  0.3465  0.2204  0.5048
  137MOL0     H18430  10.345   4.214   9.296  2.3090 -0.1614  0.0882
  137MOL0     H18431  10.277   4.265   9.448  0.1896  2.0075 -2.5170
  137MOL0     H18432  10.404   4.094   9.566  1.7132 -0.1810  0.1767
  137MOL0     H18433  10.515   4.202   9.473 -0.1974  0.7398  2.0496
  137MOL0     H18434  10.443   3.918   9.362  0.3157  1.2163 -0.9971
  137MOL0     H18435  10.566   3.939   9.492 -1.4152  0.2692  1.4469
  137MOL0     H18436  10.589   3.935   9.225 -1.4191 -1.1991  1.9977
  137MOL0     H18437  10.536   4.106   9.236  2.0053  3.0621  1.9053
  137MOL0     H18438  10.743   4.132   9.378 -0.0552 -0.2482 -0.7157
  137MOL0     H18439  10.788   3.963   9.349  0.0814 -0.8159  0.7408
  137MOL0     H18440  10.749   4.026   9.086 -2.2751  0.7707  0.0293
  137MOL0     H18441  10.743   4.193   9.152 -0.2518 -0.3193  0.6354
  137MOL0     H18442  10.967   4.125   9.279  0.4998  3.9478 -0.1026
  137MOL0     H18443  10.979   4.175   9.114 -0.8460  0.8419  0.1687
  137MOL0     H18444  10.976   3.888   9.227 -0.0669  0.7072  0.7715
  137MOL0     H18445  10.987   3.920   9.048 -1.9304  1.1287  0.9647
  137MOL0     H18446  11.189   4.022   8.956 -0.8516 -0.7892  1.5856
  137MOL0     H18447  11.454   4.218   8.988 -3.1095 -1.5210 -0.7469
  137MOL0     H18448  11.520   4.182   9.138 -2.0674  2.4972 -0.0544
  137MOL0     H18449  11.682   4.103   8.990  1.0095 -0.1141 -0.8544
  137MOL0     H18450  11.625   3.963   9.067 -1.9166 -2.1131 -2.4573
  137MOL0     H18451  11.556   4.009   8.790  0.3292  0.6270  0.0714
  137MOL0     H18452  11.451   3.913   8.891  0.1894  1.1098 -0.9961
  137MOL0     H18453  11.662   3.775   8.935 -0.0274 -2.2247  0.1085
  137MOL0     H18454  11.747   3.872   8.812 -0.5245 -1.3652 -1.0205
  137MOL0     H18455  11.465   3.619   8.565 -0.3643  1.4478 -0.8042
  137MOL0     H18456  11.427   3.686   8.319 -0.2208 -1.8419  0.6778
  137MOL0     H18457  11.525   4.261   8.126  1.2925 -0.5609  0.9344
  137MOL0     H18458  11.435   4.384   7.925 -0.9302 -0.2146 -2.5439
  137MOL0     H18459  11.583   4.254   7.566  0.1077  1.7677  0.8406
  137MOL0     H18460  11.432   4.160   7.537  2.4315 -0.7589 -3.1548
  137MOL0     H18461  11.415   4.454   7.489 -1.3155  0.7942 -0.7402
  137MOL0     H18462  11.509   4.338   7.392  1.6826 -1.5094  1.1383
  137MOL0     H18463  11.271   4.214   7.384  0.1482  0.4091 -2.8843
  137MOL0     H18464  11.210   4.375   7.450 -0.7178  1.5131 -0.8469
  137MOL0     H18465  11.362   4.325   7.198 -1.3291 -0.9591 -2.0068
  137MOL0     H18466  11.306   4.485   7.231  0.1565 -0.4683 -1.2004
  137MOL0     H18467  11.071   4.423   7.219  0.7689  0.2247  1.4467
  137MOL0     H18468  11.106   4.266   7.250  1.4224  2.1122  3.8621
  137MOL0     H18469  11.228   4.221   7.043  0.4000  0.0510 -0.2749
  137MOL0     H18470  11.057   4.270   7.022  0.6360 -1.8715  0.5917
  137MOL0     H18471  11.227   4.351   6.847  2.3181 -2.2106  0.7263
  137MOL0     H18472  11.287   4.464   6.975 -0.3365  0.1247 -0.1042
  137MOL0     H18473  11.033   4.539   6.995  2.7195  2.7438  0.3166
  137MOL0     H18474  11.120   4.582   6.854 -1.7791  1.3830  0.5681
  137MOL0     H18475  11.501   4.023   7.693  1.9130 -0.4046 -0.3562
  137MOL0     H18476  11.562   3.901   7.922  0.0553  0.3071  3.5891
  137MOL0     H18477  11.671   4.024   8.384  0.3414 -0.3708 -0.7628
  137MOL0     H18478  11.707   3.965   8.614 -3.1480  2.9313 -0.5955
  137MOL0     H18479  10.125   4.272   9.193 -0.7500  1.4030  0.5132
  137MOL0     H18480   9.910   4.308   9.162  3.0620  1.9059  1.0930
  137MOL0     H18481   9.441   4.106   9.036  0.6351  0.2406 -0.3416
  137MOL0     H18482   9.209   4.167   9.006 -1.8638  1.7474 -0.2632
  137MOL0     H18483   8.955   4.178   9.264  4.0304 -1.6341  0.8585
  137MOL0     H18484   9.024   4.118   9.113  0.2982  1.6877 -2.1575
  137MOL0     H18485   8.817   4.139   9.067  3.1422 -1.1066  0.8977
  137MOL0     H18486   8.886   4.262   8.970 -2.4354 -1.6309 -1.3102
  137MOL0     H18487   8.815   4.428   9.163 -0.0900  1.6387 -1.7242
  137MOL0     H18488   8.695   4.285   9.192 -0.1928  0.0044  0.2088
  137MOL0     H18489   8.745   4.442   8.931  0.0999  1.5972  0.0659
  137MOL0     H18490   8.615   4.327   8.976  0.0407 -0.9402  2.8465
  137MOL0     H18491   8.452   4.680   9.109  1.2999  0.1480 -0.1134
  137MOL0     H18492   9.220   4.397   9.363 -0.7210 -0.2906 -0.6698
  137MOL0     H18493   9.560   4.403   9.433  0.9170 -0.2615 -0.4786
  137MOL0     H18494   9.412   4.377   9.521  1.2570  2.3964 -0.0526
  137MOL0     H18495   9.515   4.232   9.490  0.1941  0.5929 -0.1642
  138MOL0     O18496  10.843   5.410   6.595 -0.8675  0.1890  0.1709
  138MOL0     C18497  10.824   5.377   6.474  1.0691 -0.4147  0.1962
  138MOL0     O18498  10.716   5.314   6.433  0.2351 -0.0022 -0.4600
  138MOL0     C18499  10.606   5.324   6.505 -0.0009  0.2643 -0.3150
  138MOL0     C18500  10.525   5.208   6.486  0.4923 -0.1963 -0.4999
  138MOL0     C18501  10.396   5.203   6.551  0.3617 -0.1510  1.2784
  138MOL0     C18502  10.353   5.311   6.623  0.3199  0.2238 -0.5210
  138MOL0     O18503  10.232   5.314   6.690 -0.0246  0.3705 -0.1473
  138MOL0     C18504  10.172   5.189   6.724 -0.3083 -0.2694  0.4559
  138MOL0     C18505  10.067   5.223   6.835 -0.0866  0.4685 -0.3593
  138MOL0     C18506  10.068   5.123   6.950  0.2970  0.4007 -0.1483
  138MOL0     C18507   9.966   5.133   7.068  0.2577  0.5845 -0.4936
  138MOL0     C18508   9.981   5.263   7.143 -0.2643  0.1544  0.7247
  138MOL0     C18509   9.885   5.372   7.088 -0.4986 -0.2734 -0.3634
  138MOL0     C18510   9.897   5.511   7.160  0.6503  1.0896 -0.8193
  138MOL0     C18511   9.805   5.615   7.082 -0.8857 -1.4040  0.0081
  138MOL0     N18512   9.807   5.743   7.155 -0.4031  0.6179 -0.2983
  138MOL0     C18513   9.751   5.767   7.277  0.1102  0.1795  0.7065
  138MOL0     C18514   9.758   5.903   7.296 -0.3077 -0.7149  0.4090
  138MOL0     C18515   9.718   5.965   7.432  0.2712 -0.1143 -0.8730
  138MOL0     C18516   9.564   5.978   7.475  0.7011 -0.0078 -0.8942
  138MOL0     C18517   9.479   6.072   7.393  0.0471  0.4218  0.0602
  138MOL0     C18518   9.332   6.090   7.435  0.0591  0.1487 -0.2411
  138MOL0     O18519   9.277   5.957   7.445  0.2892  0.2762 -0.0644
  138MOL0     C18520   9.143   5.945   7.480  1.0322 -0.1833  0.0057
  138MOL0     C18521   9.058   6.060   7.522  1.2030 -1.1734 -0.1085
  138MOL0     C18522   8.926   6.042   7.567  0.1156  1.0754  0.4471
  138MOL0     C18523   8.865   5.921   7.549 -0.0133  0.3978 -0.5774
  138MOL0     C18524   8.714   5.891   7.595 -0.1531  0.2007  0.4749
  138MOL0     O18525   8.660   5.990   7.658 -0.0378 -0.2758  0.1173
  138MOL0     C18526   8.523   5.996   7.691  0.5702  0.4544  0.3391
  138MOL0     C18527   8.482   6.068   7.804 -0.2801  0.2816 -0.2624
  138MOL0     C18528   8.346   6.099   7.842  0.2074 -0.2837  1.7520
  138MOL0     C18529   8.249   6.051   7.761 -0.0659  0.2146  0.9080
  138MOL0     O18530   8.124   6.082   7.814  0.8908  0.3093 -0.0552
  138MOL0     C18531   8.005   6.034   7.749  0.0647  0.5683  1.0270
  138MOL0     C18532   7.878   6.053   7.825  0.3681 -0.7687 -0.1394
  138MOL0     C18533   7.846   6.204   7.845 -0.2335 -0.4110 -0.3923
  138MOL0     C18534   7.699   6.235   7.806 -0.2289 -0.4211 -1.2676
  138MOL0     C18535   7.656   6.376   7.868 -0.0844 -0.0312 -0.4927
  138MOL0     C18536   7.508   6.397   7.846  0.5696 -0.2595  0.8377
  138MOL0     C18537   7.456   6.528   7.894  0.2484 -0.3334 -0.4742
  138MOL0     C18538   7.476   6.636   7.793 -0.6268  0.6736  0.1284
  138MOL0    Cl18539   7.392   6.602   7.636 -0.5020 -0.3281 -0.0338
  138MOL0     C18540   8.278   5.969   7.648 -0.3174  0.0684 -0.4377
  138MOL0     C18541   8.413   5.947   7.608  0.6636 -0.0249 -0.0517
  138MOL0     O18542   8.655   5.782   7.568 -0.6469  1.2275 -0.1723
  138MOL0     C18543   8.940   5.812   7.493 -0.2257  0.6148  0.9106
  138MOL0     C18544   9.074   5.823   7.465 -0.0270  0.2333  0.4841
  138MOL0     N18545   9.827   5.958   7.187  0.0429  0.3491  1.0116
  138MOL0     N18546   9.867   5.860   7.114  1.2234  0.6348 -0.1204
  138MOL0     C18547  10.425   5.430   6.637 -0.3479 -0.2042 -0.4448
  138MOL0     C18548  10.554   5.432   6.576 -0.8826  0.3373 -0.4193
  138MOL0     C18549  10.926   5.421   6.372 -0.1079  0.6076  0.9104
  138MOL0     C18550  11.053   5.471   6.421 -0.2121 -0.6881 -0.9028
  138MOL0     C18551  11.145   5.518   6.325  0.1641 -1.5373 -1.0052
  138MOL0     C18552  11.127   5.505   6.186 -0.5994 -0.1109  0.4550
  138MOL0     O18553  11.215   5.567   6.108  0.6773  0.6678  1.1322
  138MOL0     C18554  11.236   5.550   5.957  0.9139  0.4026 -0.5462
  138MOL0     C18555  11.281   5.405   5.927  0.8838 -0.0158  0.5088
  138MOL0     C18556  11.436   5.407   5.940  1.1057  0.2625 -0.2109
  138MOL0     C18557  11.497   5.263   5.937 -0.3192 -0.1946 -0.2881
  138MOL0     C18558  11.637   5.260   5.908 -0.3515  0.1078  0.6293
  138MOL0     C18559  11.757   5.255   5.865  0.0650  0.3795  0.1193
  138MOL0     C18560  11.007   5.456   6.144 -0.8174 -0.6049 -0.3213
  138MOL0     C18561  10.904   5.414   6.229  0.1307  1.0210  0.3704
  138MOL0     C18562  10.774   5.368   6.167 -0.2085 -0.3373  1.0070
  138MOL0     H18563  10.557   5.125   6.423  1.2424  0.1658 -0.6166
  138MOL0     H18564  10.342   5.109   6.542  1.0459 -0.7616  3.1758
  138MOL0     H18565  10.137   5.145   6.630  0.4225  0.8228 -0.3573
  138MOL0     H18566  10.245   5.111   6.750 -2.4835 -3.2736 -1.7887
  138MOL0     H18567   9.972   5.211   6.782 -0.5538  1.7406  0.1606
  138MOL0     H18568  10.083   5.322   6.877 -4.2488  0.2270  2.2908
  138MOL0     H18569  10.166   5.107   6.996 -0.4058  0.5409  1.4798
  138MOL0     H18570  10.040   5.028   6.905  0.0441 -0.8462  2.4364
  138MOL0     H18571   9.869   5.119   7.020  0.9605 -1.2367 -1.4953
  138MOL0     H18572   9.979   5.042   7.127 -1.6510  1.6842  1.7924
  138MOL0     H18573   9.949   5.241   7.245 -0.7632  0.6375  0.6737
  138MOL0     H18574  10.085   5.296   7.132  1.1864 -3.2031  2.8054
  138MOL0     H18575   9.907   5.394   6.983 -0.3359  4.1427  0.4090
  138MOL0     H18576   9.781   5.338   7.091 -0.1240 -1.5106 -0.8682
  138MOL0     H18577   9.999   5.550   7.152  2.7181 -2.8598  2.5080
  138MOL0     H18578   9.860   5.505   7.263  2.7570  2.4948  0.1038
  138MOL0     H18579   9.830   5.630   6.976 -3.5728  2.4378 -0.2724
  138MOL0     H18580   9.707   5.568   7.085 -0.4920 -2.3024 -0.5987
  138MOL0     H18581   9.693   5.701   7.340 -3.1106  0.6725 -1.5103
  138MOL0     H18582   9.767   5.932   7.525  2.9124  4.4915 -0.3252
  138MOL0     H18583   9.751   6.069   7.426 -1.1357  0.9582  4.6482
  138MOL0     H18584   9.506   5.886   7.481 -1.5909  1.4393  1.5427
  138MOL0     H18585   9.558   6.005   7.580  1.1144 -1.7269 -0.4022
  138MOL0     H18586   9.477   6.038   7.289  2.2111  1.1081 -0.2568
  138MOL0     H18587   9.528   6.169   7.386 -0.1959  0.4305 -2.8718
  138MOL0     H18588   9.270   6.140   7.360 -0.9005 -0.0523  0.4001
  138MOL0     H18589   9.329   6.139   7.533 -3.0302 -0.4223  0.0514
  138MOL0     H18590   9.095   6.162   7.521 -1.4366 -0.1469 -0.3201
  138MOL0     H18591   8.871   6.123   7.614 -1.5556  0.4626 -0.3719
  138MOL0     H18592   8.557   6.116   7.867 -0.8190 -0.9190  1.3720
  138MOL0     H18593   8.319   6.157   7.930 -3.2313 -0.7331  1.1264
  138MOL0     H18594   7.996   6.082   7.651 -4.0900  3.1682  2.4360
  138MOL0     H18595   8.015   5.926   7.737  0.5444  0.7101  0.0406
  138MOL0     H18596   7.794   6.005   7.774  0.3877 -0.7089 -0.2270
  138MOL0     H18597   7.894   6.018   7.927 -2.5114  4.7275  2.5957
  138MOL0     H18598   7.850   6.234   7.950 -1.0894  0.1410 -0.5076
  138MOL0     H18599   7.903   6.275   7.784 -0.5993 -0.5302 -0.8721
  138MOL0     H18600   7.636   6.155   7.845  1.8308 -1.0765  0.9306
  138MOL0     H18601   7.699   6.235   7.696 -0.0918  1.4827 -1.3116
  138MOL0     H18602   7.721   6.454   7.828  0.0985  1.0739  1.8537
  138MOL0     H18603   7.665   6.367   7.976 -0.7539  2.3856 -0.1918
  138MOL0     H18604   7.496   6.393   7.737 -0.1012  1.3292  0.8253
  138MOL0     H18605   7.448   6.316   7.889  0.4969 -0.2616  0.7333
  138MOL0     H18606   7.506   6.554   7.987  0.4238  2.0125 -1.1646
  138MOL0     H18607   7.348   6.525   7.909 -0.1800  0.4084 -3.0032
  138MOL0     H18608   7.441   6.728   7.841  0.1883  1.0905 -0.0573
  138MOL0     H18609   7.582   6.653   7.772 -0.7541 -1.0187 -2.2940
  138MOL0     H18610   8.198   5.924   7.589 -0.8500  2.0016 -1.2462
  138MOL0     H18611   8.431   5.906   7.509  1.8302 -0.6500  0.4015
  138MOL0     H18612   8.894   5.714   7.487 -1.1962  0.7810  3.7559
  138MOL0     H18613   9.137   5.741   7.434  1.8255  1.3807  1.0511
  138MOL0     H18614  10.386   5.513   6.695  2.9977  2.3069 -1.4541
  138MOL0     H18615  10.613   5.519   6.601 -0.0647 -0.8975  2.3894
  138MOL0     H18616  11.071   5.472   6.527 -1.3143  3.5613 -0.5702
  138MOL0     H18617  11.243   5.551   6.360 -0.3484  0.9713 -1.7035
  138MOL0     H18618  11.307   5.621   5.915  0.4750  1.3296  0.2327
  138MOL0     H18619  11.141   5.577   5.908 -0.0628 -0.4662  0.7870
  138MOL0     H18620  11.249   5.386   5.824  0.3022  1.5057  0.3802
  138MOL0     H18621  11.234   5.332   5.994 -1.8715  4.2810  3.7680
  138MOL0     H18622  11.464   5.457   6.033 -0.7183 -0.0173  0.5306
  138MOL0     H18623  11.468   5.483   5.868  3.0081  1.4972  1.8152
  138MOL0     H18624  11.503   5.215   6.035  3.5171  0.6926  0.0504
  138MOL0     H18625  11.445   5.189   5.876 -0.5273 -0.5922  0.3646
  138MOL0     H18626  11.859   5.247   5.833 -0.7399  0.5125 -2.7976
  138MOL0     H18627  10.991   5.431   6.040 -2.7309 -2.9370  0.4191
  138MOL0     H18628  10.744   5.269   6.203  2.4976 -0.7823  2.3620
  138MOL0     H18629  10.698   5.442   6.193  0.9019  2.4157 -2.7969
  138MOL0     H18630  10.766   5.357   6.059  0.8998  2.1186  0.5911
  139MOL0     O18631   9.883   7.825   7.927  0.0050  0.0746  0.6328
  139MOL0     C18632   9.915   7.810   8.044  0.7886 -0.0210  0.2873
  139MOL0     O18633  10.007   7.888   8.114 -0.2050 -0.1562  0.8118
  139MOL0     C18634  10.067   7.988   8.042 -0.3465  0.5183  0.0925
  139MOL0     C18635   9.994   8.102   8.001 -0.0919 -0.1056  0.0304
  139MOL0     C18636  10.062   8.217   7.966 -0.2008 -0.0257  0.0862
  139MOL0     C18637  10.198   8.207   7.961  0.5228 -0.6242  0.4531
  139MOL0     O18638  10.262   8.311   7.916  0.8674  0.1699 -0.1747
  139MOL0     C18639  10.309   8.407   8.005 -0.2115 -0.3432 -1.0776
  139MOL0     C18640  10.429   8.490   7.963  0.0745  0.5848 -0.2633
  139MOL0     C18641  10.415   8.602   7.853  0.1385  0.7994 -0.2469
  139MOL0     C18642  10.544   8.688   7.859  0.2084 -1.1865 -0.0233
  139MOL0     C18643  10.514   8.828   7.812 -0.7857 -0.4439  0.8922
  139MOL0     C18644  10.630   8.927   7.823 -0.5367 -0.0655 -0.0299
  139MOL0     C18645  10.655   9.008   7.694 -0.0275 -0.1331  0.0561
  139MOL0     C18646  10.693   8.908   7.585  0.4652 -0.4656  0.4009
  139MOL0     N18647  10.797   8.814   7.619 -0.9501  0.3097 -0.3919
  139MOL0     C18648  10.931   8.837   7.647  0.3810 -0.1786  0.2356
  139MOL0     C18649  10.993   8.718   7.630 -0.6313  0.1754 -0.3122
  139MOL0     C18650  11.135   8.682   7.631  0.4111  0.0984 -0.1728
  139MOL0     C18651  11.168   8.575   7.739  0.0023  0.1911  0.5724
  139MOL0     C18652  11.155   8.611   7.884 -0.0463 -0.4983 -0.3958
  139MOL0     C18653  11.226   8.505   7.965  0.7908  0.0800 -0.9013
  139MOL0     O18654  11.167   8.505   8.092 -0.2637 -0.0927  0.5863
  139MOL0     C18655  11.198   8.398   8.181 -0.1045 -0.0455  0.9637
  139MOL0     C18656  11.299   8.304   8.160 -0.5830  0.8374 -0.5490
  139MOL0     C18657  11.339   8.223   8.262  0.3109  1.1826 -0.5026
  139MOL0     C18658  11.249   8.198   8.369 -0.2695  0.3428  0.2534
  139MOL0     C18659  11.280   8.086   8.470  0.1140 -0.4153 -0.8320
  139MOL0     O18660  11.403   8.024   8.464 -0.1295 -0.6950  0.3852
  139MOL0     C18661  11.451   7.926   8.555  0.1466 -1.6224 -0.0119
  139MOL0     C18662  11.582   7.886   8.544  0.0683  0.3763 -0.4436
  139MOL0     C18663  11.637   7.782   8.626  0.1584  0.9214  0.1790
  139MOL0     C18664  11.568   7.720   8.735  0.4581 -0.4129  0.4089
  139MOL0     O18665  11.634   7.637   8.826  0.7561 -0.2786 -0.0454
  139MOL0     C18666  11.616   7.654   8.967  0.2082  0.8431  0.2165
  139MOL0     C18667  11.678   7.786   9.015  0.9237 -0.3636  0.2715
  139MOL0     C18668  11.586   7.854   9.117 -0.4913 -0.0237  0.3320
  139MOL0     C18669  11.675   7.917   9.223  0.5658 -0.0310 -0.2606
  139MOL0     C18670  11.601   7.988   9.340  0.4777 -0.4705  0.5753
  139MOL0     C18671  11.506   7.904   9.423  0.8669  1.0531  1.0073
  139MOL0     C18672  11.581   7.791   9.498 -0.0229 -1.1759 -0.4799
  139MOL0     C18673  11.481   7.735   9.601 -0.4202 -0.7642  0.0893
  139MOL0    Cl18674  11.361   7.646   9.511 -0.1227  0.4428 -0.9003
  139MOL0     C18675  11.430   7.757   8.744 -0.8095 -0.3551  0.3465
  139MOL0     C18676  11.373   7.854   8.656 -0.7620  0.4968 -0.0896
  139MOL0     O18677  11.204   8.082   8.568  0.1230  0.0388 -0.3254
  139MOL0     C18678  11.139   8.272   8.379 -0.0454 -0.4847 -0.0749
  139MOL0     C18679  11.123   8.387   8.299 -0.0112 -0.6120  0.0909
  139MOL0     N18680  10.896   8.621   7.605 -0.2950 -0.2315 -0.0271
  139MOL0     N18681  10.782   8.679   7.600 -0.3868  0.3439 -0.5199
  139MOL0     C18682  10.273   8.097   7.990  0.4519 -0.2369 -0.3271
  139MOL0     C18683  10.204   7.985   8.037 -0.4638  0.8032 -0.3183
  139MOL0     C18684   9.863   7.706   8.121  0.8069  0.5798  1.1402
  139MOL0     C18685   9.949   7.627   8.201 -0.0560  0.0033  0.4278
  139MOL0     C18686   9.894   7.516   8.270 -0.0152 -0.4157 -0.7919
  139MOL0     C18687   9.768   7.470   8.248  0.2483  0.1206 -0.4086
  139MOL0     O18688   9.717   7.357   8.306 -0.3419 -0.1949  0.4301
  139MOL0     C18689   9.813   7.246   8.282  0.2330 -0.5857  0.8982
  139MOL0     C18690   9.733   7.113   8.275 -0.2137 -0.3117 -1.0567
  139MOL0     C18691   9.828   6.993   8.268 -0.7828 -0.3068 -0.1555
  139MOL0     C18692   9.751   6.857   8.265 -0.1574  0.0780 -1.1383
  139MOL0     C18693   9.627   6.877   8.184 -0.6846  0.1152 -0.5632
  139MOL0     C18694   9.536   6.892   8.112  0.0227 -0.6503  0.0046
  139MOL0     C18695   9.680   7.544   8.172  0.8101 -0.8034  0.4980
  139MOL0     C18696   9.727   7.663   8.104  0.4366  0.1750 -0.4135
  139MOL0     C18697   9.620   7.725   8.013  0.1563 -1.0386 -1.0322
  139MOL0     H18698   9.886   8.107   8.004 -0.0459  0.4543  2.0015
  139MOL0     H18699  10.003   8.305   7.944  0.1237 -0.2070 -1.6852
  139MOL0     H18700  10.227   8.467   8.046  1.0962  0.4316  0.5529
  139MOL0     H18701  10.352   8.363   8.096  1.9224  4.2480  0.4611
  139MOL0     H18702  10.512   8.427   7.932 -2.4069 -3.8465  1.1761
  139MOL0     H18703  10.458   8.529   8.061  2.3605 -1.6161  0.0500
  139MOL0     H18704  10.319   8.656   7.854  0.6356  1.7648  1.7387
  139MOL0     H18705  10.414   8.552   7.756  3.0550 -3.8468  1.8018
  139MOL0     H18706  10.585   8.696   7.960  0.8323  0.1078 -0.3581
  139MOL0     H18707  10.612   8.652   7.782 -4.4460 -2.4168 -4.0692
  139MOL0     H18708  10.474   8.818   7.711 -0.8097 -3.9440  1.1573
  139MOL0     H18709  10.439   8.870   7.880  2.3019  0.7728  3.8516
  139MOL0     H18710  10.617   8.990   7.912 -1.7310 -0.5608  0.1587
  139MOL0     H18711  10.720   8.868   7.844  0.8374  2.0986  0.5013
  139MOL0     H18712  10.741   9.073   7.714 -1.5907  2.3276 -0.8366
  139MOL0     H18713  10.563   9.057   7.662 -0.6135 -1.4449 -0.3315
  139MOL0     H18714  10.604   8.849   7.564  0.1788  0.4141 -0.9611
  139MOL0     H18715  10.712   8.963   7.492  0.0815 -0.6846  0.1924
  139MOL0     H18716  10.984   8.931   7.652  0.2783 -0.1286  0.4011
  139MOL0     H18717  11.165   8.662   7.527 -1.3887  1.4499 -1.0029
  139MOL0     H18718  11.194   8.766   7.668 -4.2830  3.0802  1.4797
  139MOL0     H18719  11.094   8.495   7.729  0.8101 -0.8309  2.3041
  139MOL0     H18720  11.268   8.537   7.715 -1.0801 -2.0308 -0.7495
  139MOL0     H18721  11.054   8.628   7.921 -0.8378 -3.4111 -0.9466
  139MOL0     H18722  11.205   8.708   7.896 -0.5257 -0.2938 -0.0010
  139MOL0     H18723  11.335   8.509   7.956  0.7892  1.8984 -0.6302
  139MOL0     H18724  11.196   8.407   7.926  2.9765 -0.0334 -2.5176
  139MOL0     H18725  11.362   8.293   8.073 -0.0937  0.2125 -0.1238
  139MOL0     H18726  11.433   8.169   8.251 -0.1347  0.6281 -1.7414
  139MOL0     H18727  11.631   7.922   8.454 -2.9090 -0.0940 -2.4163
  139MOL0     H18728  11.741   7.755   8.613  0.0830  0.5477  0.3535
  139MOL0     H18729  11.511   7.649   8.999  0.3114 -0.2956  0.4088
  139MOL0     H18730  11.651   7.567   9.023  0.1213 -1.0895 -2.4931
  139MOL0     H18731  11.778   7.770   9.058  1.6169  0.5910 -0.9192
  139MOL0     H18732  11.703   7.852   8.931 -2.0111 -1.0244 -1.2368
  139MOL0     H18733  11.521   7.925   9.065 -1.8753 -2.3286 -1.2610
  139MOL0     H18734  11.542   7.769   9.170 -1.7967 -0.6689 -1.6929
  139MOL0     H18735  11.740   7.990   9.174  1.1899 -0.0404  0.5332
  139MOL0     H18736  11.742   7.845   9.270 -3.3267 -3.0949  1.0946
  139MOL0     H18737  11.551   8.072   9.291  2.7499 -1.3694 -3.7784
  139MOL0     H18738  11.659   8.034   9.421 -1.3837  0.4515  1.4405
  139MOL0     H18739  11.460   7.968   9.499 -0.8961  0.4002  0.5488
  139MOL0     H18740  11.426   7.867   9.357  3.2714  1.0326 -2.1394
  139MOL0     H18741  11.664   7.844   9.546 -0.4753  0.2135 -1.1847
  139MOL0     H18742  11.620   7.707   9.440  1.7035 -1.6619  1.2726
  139MOL0     H18743  11.531   7.673   9.675  0.8636 -1.6478 -1.4748
  139MOL0     H18744  11.439   7.820   9.656 -0.7771 -1.3894  0.8001
  139MOL0     H18745  11.379   7.713   8.829  2.5396 -1.5896  1.8849
  139MOL0     H18746  11.266   7.872   8.658 -1.0419  0.0180 -3.6648
  139MOL0     H18747  11.078   8.260   8.468 -2.4854  0.1618 -1.5523
  139MOL0     H18748  11.055   8.466   8.328 -2.0212 -1.4022 -2.1703
  139MOL0     H18749  10.381   8.100   7.982  0.2838  1.2368 -3.2049
  139MOL0     H18750  10.253   7.895   8.071  1.6783  1.8375 -0.4828
  139MOL0     H18751  10.056   7.645   8.201  0.1095 -0.8777 -0.1766
  139MOL0     H18752   9.958   7.472   8.346  0.7683 -0.7528 -1.6263
  139MOL0     H18753   9.879   7.230   8.368  1.0334 -2.9474 -0.0665
  139MOL0     H18754   9.871   7.252   8.190 -0.8576  1.3752  0.2772
  139MOL0     H18755   9.670   7.127   8.187 -0.8132 -0.8093 -0.7161
  139MOL0     H18756   9.670   7.101   8.364 -0.9032  0.1967 -1.4714
  139MOL0     H18757   9.898   7.003   8.351 -2.0047  0.3149  0.8203
  139MOL0     H18758   9.889   6.994   8.177 -2.3278  0.8207 -1.2299
  139MOL0     H18759   9.812   6.770   8.239  0.1523  0.3375 -1.2770
  139MOL0     H18760   9.711   6.836   8.365 -0.6950 -0.7838 -1.5271
  139MOL0     H18761   9.453   6.901   8.044  0.2105 -0.3694 -0.1896
  139MOL0     H18762   9.575   7.519   8.176  0.6593 -0.2432  0.2190
  139MOL0     H18763   9.635   7.689   7.911  0.7647  1.5938 -1.9616
  139MOL0     H18764   9.515   7.714   8.044 -0.1649  3.6731  0.3945
  139MOL0     H18765   9.650   7.830   8.022  1.2557 -1.3005 -1.5354
  140MOL0     O18766   4.386   6.583   2.108  0.3197 -0.9151 -0.2495
  140MOL0     C18767   4.367   6.596   1.988  0.4339 -0.4982 -0.8921
  140MOL0     O18768   4.436   6.543   1.890  0.2934 -0.4884 -0.9816
  140MOL0     C18769   4.528   6.446   1.933  0.4321 -0.0712  0.3929
  140MOL0     C18770   4.503   6.310   1.906 -1.1861 -0.1959 -0.2006
  140MOL0     C18771   4.599   6.213   1.950 -0.6128  1.1074 -0.5585
  140MOL0     C18772   4.700   6.251   2.037 -0.8325  0.2658 -0.4971
  140MOL0     O18773   4.788   6.157   2.073  0.0114  0.2195 -0.0475
  140MOL0     C18774   4.914   6.193   2.140  0.3187  0.2155  0.3545
  140MOL0     C18775   4.991   6.058   2.178  0.1797  0.1746 -0.0184
  140MOL0     C18776   5.031   5.984   2.055 -0.9914  0.9388  0.0678
  140MOL0     C18777   5.144   6.049   1.980  0.5176 -0.2014  0.4082
  140MOL0     C18778   5.212   5.968   1.865 -0.9699  0.6897 -0.5120
  140MOL0     C18779   5.340   6.037   1.841  0.7339  0.4983 -0.1370
  140MOL0     C18780   5.409   5.988   1.715  0.0221 -0.3760 -0.6188
  140MOL0     C18781   5.473   5.842   1.723 -0.0781 -0.2953  0.4586
  140MOL0     N18782   5.565   5.827   1.607  0.0323  0.3375 -0.6615
  140MOL0     C18783   5.547   5.793   1.476 -0.3113  0.4885 -0.2171
  140MOL0     C18784   5.664   5.794   1.411  0.5004  0.3447  0.6196
  140MOL0     C18785   5.678   5.759   1.265 -0.3280 -0.5761 -0.9685
  140MOL0     C18786   5.825   5.790   1.210  0.3928 -0.5304  0.3639
  140MOL0     C18787   5.849   5.704   1.088  0.1997  0.4184 -0.3323
  140MOL0     C18788   5.990   5.725   1.023  1.0393  0.4200  0.9198
  140MOL0     O18789   6.088   5.715   1.123 -0.5005 -1.2571  0.7160
  140MOL0     C18790   6.216   5.730   1.070  0.0911  0.0337 -0.3754
  140MOL0     C18791   6.276   5.639   0.987 -0.2150 -0.1540  0.7792
  140MOL0     C18792   6.413   5.656   0.945 -0.5069 -0.1347 -0.3632
  140MOL0     C18793   6.480   5.775   0.976 -0.4528 -0.6138 -0.7153
  140MOL0     C18794   6.623   5.804   0.927 -1.1431  0.4108 -0.4001
  140MOL0     O18795   6.670   5.736   0.824  0.2695  0.3962 -0.1599
  140MOL0     C18796   6.794   5.766   0.779 -0.0987 -0.1455  0.2718
  140MOL0     C18797   6.828   5.888   0.724  0.3905  0.0936 -0.1466
  140MOL0     C18798   6.962   5.917   0.692  0.5444 -0.1595  0.2881
  140MOL0     C18799   7.061   5.809   0.705  0.3071 -0.4811  0.3445
  140MOL0     O18800   7.190   5.852   0.711 -0.4943 -0.0303 -0.3356
  140MOL0     C18801   7.231   5.924   0.821 -0.4756 -1.1156 -1.3764
  140MOL0     C18802   7.256   5.852   0.957  0.8207  0.6838 -0.2859
  140MOL0     C18803   7.326   5.719   0.959  0.7358  0.3384 -0.1679
  140MOL0     C18804   7.372   5.668   1.091  0.1021 -0.6811 -0.3198
  140MOL0     C18805   7.421   5.524   1.103 -0.0720  0.2196  0.3858
  140MOL0     C18806   7.297   5.422   1.095 -1.2069  0.4292  0.7219
  140MOL0     C18807   7.321   5.271   1.096 -0.7746 -0.4905 -0.0463
  140MOL0     C18808   7.412   5.206   0.997 -1.1160  0.4912  0.2592
  140MOL0    Cl18809   7.417   5.025   1.036  0.3678 -0.0752 -0.3227
  140MOL0     C18810   7.020   5.680   0.746  0.2691 -0.3085 -0.2879
  140MOL0     C18811   6.886   5.667   0.797 -0.8849  0.6705  0.8697
  140MOL0     O18812   6.682   5.888   0.987 -0.1268  0.4212 -0.4898
  140MOL0     C18813   6.417   5.874   1.054  0.0245  0.9606 -0.5861
  140MOL0     C18814   6.286   5.846   1.110  0.0810 -0.6015 -0.3773
  140MOL0     N18815   5.753   5.843   1.502  0.0712  0.0799 -0.3201
  140MOL0     N18816   5.702   5.841   1.618  0.4039 -1.0211  0.6664
  140MOL0     C18817   4.725   6.391   2.057 -0.4172 -0.2756  0.0834
  140MOL0     C18818   4.635   6.483   1.998  0.1049  0.0003  0.1559
  140MOL0     C18819   4.261   6.694   1.958 -0.4928 -0.3545  0.5440
  140MOL0     C18820   4.285   6.780   1.848  0.1765  0.5376 -0.1025
  140MOL0     C18821   4.199   6.890   1.826  0.1176  0.1000 -0.6516
  140MOL0     C18822   4.084   6.918   1.909 -0.0504 -0.3012  1.2669
  140MOL0     O18823   3.986   7.017   1.899  0.0229  0.0178  0.0710
  140MOL0     C18824   4.031   7.142   1.957 -0.5034  0.1110  0.7954
  140MOL0     C18825   4.134   7.212   1.860  0.6553  0.1392 -0.3385
  140MOL0     C18826   4.186   7.340   1.914 -0.3923 -1.0230 -0.5550
  140MOL0     C18827   4.081   7.459   1.906 -0.0790  0.2044  1.2111
  140MOL0     C18828   4.095   7.534   1.773 -0.0787  0.5824  0.3955
  140MOL0     C18829   4.129   7.592   1.671  1.0016 -0.3489  0.6573
  140MOL0     C18830   4.062   6.827   2.012 -1.0776 -0.7416 -0.4316
  140MOL0     C18831   4.144   6.710   2.038  0.6636 -0.5153 -0.5317
  140MOL0     C18832   4.089   6.623   2.149 -0.5120  0.1195 -0.0643
  140MOL0     H18833   4.411   6.283   1.855 -2.1554  0.9919  0.8458
  140MOL0     H18834   4.596   6.109   1.921  1.2408  1.2089 -1.2671
  140MOL0     H18835   4.980   6.254   2.078 -4.1646  1.0568 -4.2623
  140MOL0     H18836   4.895   6.236   2.239  1.7897  0.1326  0.6878
  140MOL0     H18837   4.942   6.007   2.262  4.3613 -0.4822  2.2570
  140MOL0     H18838   5.086   6.091   2.219  0.7051 -1.3512  0.0560
  140MOL0     H18839   4.953   5.977   1.978 -0.0930  2.9967 -1.1157
  140MOL0     H18840   5.054   5.878   2.070  1.4207  1.5632  1.2540
  140MOL0     H18841   5.118   6.147   1.940 -2.6500  0.1830  3.0094
  140MOL0     H18842   5.218   6.076   2.056 -0.0490  2.4769  0.0842
  140MOL0     H18843   5.226   5.863   1.893  0.0739  0.5210 -1.5649
  140MOL0     H18844   5.155   5.973   1.772 -2.2449  2.5870  0.3299
  140MOL0     H18845   5.330   6.145   1.829  0.2896  0.5424  0.5894
  140MOL0     H18846   5.414   6.017   1.919  1.6309 -0.4817 -1.1998
  140MOL0     H18847   5.478   6.069   1.688  1.4740 -1.2269  0.4130
  140MOL0     H18848   5.332   5.975   1.638 -1.9394  0.2142  1.1513
  140MOL0     H18849   5.523   5.831   1.820 -2.4367 -0.4261  1.7251
  140MOL0     H18850   5.407   5.756   1.716  0.4267 -0.6875  0.4008
  140MOL0     H18851   5.452   5.762   1.435 -0.0020 -2.4185  1.0418
  140MOL0     H18852   5.653   5.653   1.261 -0.0195 -0.6764 -0.3796
  140MOL0     H18853   5.605   5.817   1.207 -0.9703  0.2637  0.5945
  140MOL0     H18854   5.852   5.894   1.190 -1.6963  1.1003  4.6656
  140MOL0     H18855   5.888   5.759   1.294 -0.1632  1.4476  1.5770
  140MOL0     H18856   5.784   5.732   1.004  0.5353  1.7154 -0.1835
  140MOL0     H18857   5.826   5.599   1.107  2.0107 -0.0059 -0.3203
  140MOL0     H18858   6.005   5.819   0.968 -1.1787  0.8416  0.9518
  140MOL0     H18859   6.000   5.642   0.952  0.0231  2.5289 -1.8708
  140MOL0     H18860   6.209   5.556   0.972  0.2629 -0.0321 -3.3300
  140MOL0     H18861   6.462   5.574   0.892  2.4474  0.5674  1.0479
  140MOL0     H18862   6.746   5.959   0.726 -1.1490 -1.6269  0.9995
  140MOL0     H18863   6.984   6.019   0.662  0.9611 -0.6538 -1.1622
  140MOL0     H18864   7.330   5.967   0.803 -0.7405  2.0345  3.0284
  140MOL0     H18865   7.169   6.013   0.828  0.0235 -0.9136  1.5806
  140MOL0     H18866   7.294   5.924   1.031  0.7275 -0.9566  1.4330
  140MOL0     H18867   7.152   5.833   0.988  0.6169 -0.9791 -1.8677
  140MOL0     H18868   7.268   5.640   0.910  2.5734 -1.0589 -0.2344
  140MOL0     H18869   7.414   5.742   0.897 -0.0409  0.4080 -1.2685
  140MOL0     H18870   7.296   5.692   1.166 -1.4051 -3.6452 -0.7638
  140MOL0     H18871   7.458   5.731   1.115 -1.1544  0.4476  1.5664
  140MOL0     H18872   7.461   5.510   1.204 -0.9418  0.3114  0.7606
  140MOL0     H18873   7.497   5.495   1.031 -0.1164 -0.9753  0.7972
  140MOL0     H18874   7.219   5.439   1.169 -1.3145 -0.4792  0.8314
  140MOL0     H18875   7.246   5.435   0.999 -1.9281 -2.1837  0.6736
  140MOL0     H18876   7.229   5.211   1.098 -0.4261 -1.0283  0.4826
  140MOL0     H18877   7.358   5.257   1.198 -0.0957  1.9085  0.0822
  140MOL0     H18878   7.401   5.235   0.892 -3.4487  1.5795  0.7463
  140MOL0     H18879   7.509   5.253   1.019 -1.4695  1.8467 -0.9178
  140MOL0     H18880   7.092   5.598   0.749  3.0799  2.0330  2.1342
  140MOL0     H18881   6.853   5.572   0.838 -1.0701 -1.2947 -3.3240
  140MOL0     H18882   6.478   5.962   1.071 -0.8843  2.0432 -2.5998
  140MOL0     H18883   6.244   5.914   1.183  1.7980 -0.7295  0.7733
  140MOL0     H18884   4.807   6.438   2.110 -0.0005  0.1016 -0.8660
  140MOL0     H18885   4.646   6.591   2.009 -0.8075 -0.2105  5.2648
  140MOL0     H18886   4.376   6.769   1.791 -0.4224 -0.9567 -0.8157
  140MOL0     H18887   4.217   6.937   1.730  1.4180 -1.2452 -1.1127
  140MOL0     H18888   4.077   7.135   2.056  2.6319  3.2314 -0.2267
  140MOL0     H18889   3.946   7.211   1.966 -0.4784  0.4741 -1.2330
  140MOL0     H18890   4.088   7.223   1.762  0.6343  0.4887 -0.2916
  140MOL0     H18891   4.222   7.149   1.844  1.0162  0.3435  0.7150
  140MOL0     H18892   4.278   7.376   1.866 -0.9704  1.3559  0.0092
  140MOL0     H18893   4.219   7.331   2.018  0.6213 -0.8135 -0.8387
  140MOL0     H18894   3.976   7.438   1.927 -0.5517  2.3550  1.2085
  140MOL0     H18895   4.114   7.514   1.995 -0.1307 -1.6166  2.4226
  140MOL0     H18896   4.164   7.651   1.589  0.1436 -1.4634 -0.5400
  140MOL0     H18897   3.983   6.845   2.085  1.8726 -1.8452  3.3381
  140MOL0     H18898   3.979   6.622   2.153 -0.9005  5.8778 -0.2710
  140MOL0     H18899   4.121   6.526   2.111 -0.4563 -0.1197  0.5759
  140MOL0     H18900   4.147   6.631   2.241 -0.1227  1.0977 -0.3770
  141MOL0     O18901   8.179   1.214   4.140 -0.1862  0.1551 -0.1026
  141MOL0     C18902   8.251   1.202   4.035 -0.2852 -0.6571  0.5677
  141MOL0     O18903   8.207   1.156   3.914  0.6811 -0.5192  0.4776
  141MOL0     C18904   8.071   1.123   3.905 -0.0346  0.4841  0.4276
  141MOL0     C18905   7.983   1.213   3.834  0.5254 -0.3800  0.7667
  141MOL0     C18906   7.842   1.193   3.847 -1.3788 -0.2038  0.2346
  141MOL0     C18907   7.793   1.085   3.917 -0.6981  0.1490  0.2288
  141MOL0     O18908   7.665   1.044   3.934  0.2412  0.7697  1.1108
  141MOL0     C18909   7.569   1.144   3.970  0.2112  0.9285 -0.4913
  141MOL0     C18910   7.428   1.101   3.952 -0.5258  0.1327 -1.0095
  141MOL0     C18911   7.392   0.976   4.028  0.2261 -0.1445 -0.4833
  141MOL0     C18912   7.282   1.008   4.138  0.6412 -0.6046  0.3304
  141MOL0     C18913   7.191   0.884   4.162  0.1574 -0.3950  0.1587
  141MOL0     C18914   7.082   0.861   4.050  0.4189 -0.6929  0.8997
  141MOL0     C18915   6.967   0.767   4.094 -0.1160 -0.4816 -0.1041
  141MOL0     C18916   6.864   0.770   3.971 -0.4545 -0.5070  0.0775
  141MOL0     N18917   6.752   0.677   3.972 -0.7154 -0.0727  0.2545
  141MOL0     C18918   6.641   0.682   4.049 -0.6565 -0.0682  0.7195
  141MOL0     C18919   6.585   0.563   4.046  0.1128 -0.0893 -0.2316
  141MOL0     C18920   6.448   0.518   4.109  0.0025 -0.0597  0.8735
  141MOL0     C18921   6.358   0.489   3.993  0.7775 -0.3536  0.0355
  141MOL0     C18922   6.198   0.505   4.030  0.0394 -0.5218  0.1923
  141MOL0     C18923   6.091   0.500   3.912  0.0180  0.9568  0.2204
  141MOL0     O18924   5.961   0.479   3.969 -0.3958  0.0196  0.0775
  141MOL0     C18925   5.845   0.500   3.895  0.6637 -0.6150 -0.1799
  141MOL0     C18926   5.725   0.467   3.957  0.0048 -0.0594 -0.6598
  141MOL0     C18927   5.606   0.489   3.890  0.4869 -0.2992 -0.5965
  141MOL0     C18928   5.601   0.535   3.758 -0.3754  0.1420  0.1872
  141MOL0     C18929   5.470   0.572   3.701 -0.3169  0.0939 -0.3133
  141MOL0     O18930   5.356   0.504   3.744  0.5482  0.1685 -0.0517
  141MOL0     C18931   5.231   0.549   3.711 -0.7731  0.6953  1.0817
  141MOL0     C18932   5.186   0.685   3.679 -1.3479  0.3630  0.3787
  141MOL0     C18933   5.055   0.718   3.648  0.5906 -1.0436 -0.0546
  141MOL0     C18934   4.966   0.609   3.642  0.2658  0.1583 -1.2059
  141MOL0     O18935   4.829   0.628   3.621  0.5370 -0.6767 -0.3237
  141MOL0     C18936   4.758   0.629   3.744 -0.1956 -0.3190 -0.0789
  141MOL0     C18937   4.686   0.766   3.772  0.2643 -0.6587  0.3216
  141MOL0     C18938   4.556   0.769   3.694 -0.3763 -0.2842  0.0886
  141MOL0     C18939   4.573   0.790   3.536 -0.3158 -0.6572  0.2551
  141MOL0     C18940   4.447   0.749   3.458  0.1669  0.2688  1.0237
  141MOL0     C18941   4.424   0.598   3.436 -0.2698 -0.0450  0.1412
  141MOL0     C18942   4.310   0.552   3.345  0.6487  0.4126  0.2315
  141MOL0     C18943   4.333   0.565   3.185 -0.1819  0.3345  0.6290
  141MOL0    Cl18944   4.183   0.493   3.111 -0.0741  0.0066 -0.5235
  141MOL0     C18945   5.013   0.475   3.655 -0.8780  0.3522  0.1782
  141MOL0     C18946   5.145   0.452   3.684  0.2524 -0.3227  0.0398
  141MOL0     O18947   5.474   0.668   3.618 -0.5593  0.3267  0.2383
  141MOL0     C18948   5.721   0.567   3.697  1.0468  0.4489 -0.3225
  141MOL0     C18949   5.843   0.550   3.756 -0.7038  1.3065  0.1373
  141MOL0     N18950   6.665   0.484   3.967  0.1993 -0.1188  0.4286
  141MOL0     N18951   6.760   0.550   3.922  0.3205 -0.3065  0.2183
  141MOL0     C18952   7.886   0.991   3.963 -0.7962  0.1485  0.8100
  141MOL0     C18953   8.021   1.012   3.971  0.7482 -0.0133  0.4859
  141MOL0     C18954   8.393   1.234   4.035 -0.6169 -0.0525 -0.1336
  141MOL0     C18955   8.480   1.193   3.936 -0.9844 -1.0487  0.0581
  141MOL0     C18956   8.620   1.200   3.941  0.3337  0.2408  0.1168
  141MOL0     C18957   8.673   1.247   4.059  0.1525  0.1873 -0.4990
  141MOL0     O18958   8.812   1.225   4.075  0.4786  0.3750 -0.0289
  141MOL0     C18959   8.876   1.290   4.189  0.0934 -0.5134  0.0204
  141MOL0     C18960   8.851   1.437   4.200  0.2983  0.2970  0.0802
  141MOL0     C18961   8.911   1.518   4.075 -0.3862  0.0986 -1.1645
  141MOL0     C18962   8.905   1.676   4.088  0.4666  0.0302  0.3676
  141MOL0     C18963   8.767   1.730   4.102  0.3485 -0.2326 -0.6058
  141MOL0     C18964   8.653   1.761   4.092 -0.2718  0.3004  0.4169
  141MOL0     C18965   8.597   1.269   4.174  0.9430 -0.2987 -0.1383
  141MOL0     C18966   8.460   1.261   4.165 -0.3447 -0.3143 -0.5072
  141MOL0     C18967   8.392   1.279   4.291 -0.4298  1.3011  0.1690
  141MOL0     H18968   8.029   1.294   3.777 -0.2226 -0.7090 -0.3128
  141MOL0     H18969   7.782   1.263   3.790  1.1766  0.0399 -2.3812
  141MOL0     H18970   7.593   1.147   4.077  0.3385 -4.3593 -0.0795
  141MOL0     H18971   7.584   1.232   3.907  0.1534  0.3501 -1.3247
  141MOL0     H18972   7.416   1.101   3.844 -3.1156  1.7243 -0.8274
  141MOL0     H18973   7.356   1.178   3.983 -3.6766 -2.9732  0.0021
  141MOL0     H18974   7.475   0.926   4.079 -0.4469  3.6086  5.0972
  141MOL0     H18975   7.361   0.900   3.955 -1.9675  1.6574 -1.5693
  141MOL0     H18976   7.330   1.036   4.232  1.0351  0.4883 -0.1857
  141MOL0     H18977   7.220   1.090   4.102  1.9018 -0.4217 -1.5500
  141MOL0     H18978   7.259   0.798   4.166 -2.2208 -2.3065  1.5406
  141MOL0     H18979   7.137   0.892   4.256 -1.8599 -0.8735 -0.8911
  141MOL0     H18980   7.043   0.958   4.021 -0.3551 -0.4970  2.4668
  141MOL0     H18981   7.128   0.816   3.961 -2.4731  0.2083 -1.1857
  141MOL0     H18982   6.925   0.791   4.192 -0.4463 -0.2529 -0.2990
  141MOL0     H18983   7.006   0.666   4.111 -2.6906 -1.1168  2.7847
  141MOL0     H18984   6.815   0.868   3.971  0.5610  0.0276  1.2557
  141MOL0     H18985   6.923   0.742   3.883 -1.0102 -0.8397 -0.1980
  141MOL0     H18986   6.602   0.766   4.106 -2.0100 -1.0321  1.2608
  141MOL0     H18987   6.448   0.425   4.167 -1.9918 -0.2116  0.7000
  141MOL0     H18988   6.407   0.598   4.172  0.0952 -1.0563  2.2444
  141MOL0     H18989   6.384   0.570   3.924  2.2395  1.3264  2.4377
  141MOL0     H18990   6.378   0.391   3.949 -3.7020 -0.6620 -1.8483
  141MOL0     H18991   6.165   0.594   4.084 -0.8316  0.9854 -2.6050
  141MOL0     H18992   6.172   0.426   4.101 -1.1571  0.0420  0.4038
  141MOL0     H18993   6.118   0.434   3.829  0.6676  0.8565  0.5057
  141MOL0     H18994   6.095   0.600   3.868 -0.4347  0.4151 -1.0889
  141MOL0     H18995   5.721   0.414   4.052  1.0753  0.1318 -0.4910
  141MOL0     H18996   5.512   0.485   3.946  1.7402  2.3707  1.9851
  141MOL0     H18997   5.256   0.768   3.672 -1.2146  0.1411 -1.6328
  141MOL0     H18998   5.014   0.818   3.636  3.8626  0.4593  0.1665
  141MOL0     H18999   4.680   0.554   3.725  0.9094 -1.0292 -2.0831
  141MOL0     H19000   4.813   0.604   3.835 -0.7381  2.5985  1.1627
  141MOL0     H19001   4.665   0.776   3.879  1.8314  1.8098  0.4806
  141MOL0     H19002   4.746   0.852   3.741  0.5770  0.5904  3.8853
  141MOL0     H19003   4.495   0.682   3.720 -1.0902  0.1235 -0.1912
  141MOL0     H19004   4.498   0.856   3.724  3.0020  2.4160 -0.5494
  141MOL0     H19005   4.657   0.729   3.502  1.7900  1.0586  2.0029
  141MOL0     H19006   4.603   0.893   3.516  1.5141 -1.0785  0.6597
  141MOL0     H19007   4.458   0.794   3.359 -0.6201 -1.3742  0.1470
  141MOL0     H19008   4.370   0.798   3.518  0.2185 -1.9415  3.0279
  141MOL0     H19009   4.515   0.568   3.383 -0.8677  1.4697 -1.8903
  141MOL0     H19010   4.417   0.544   3.531 -2.1416  1.5305  0.9478
  141MOL0     H19011   4.222   0.610   3.372  0.3760 -0.5115  1.3671
  141MOL0     H19012   4.283   0.452   3.380  1.5313  0.4485  1.0610
  141MOL0     H19013   4.343   0.670   3.155 -3.2500  0.4662 -0.3284
  141MOL0     H19014   4.418   0.502   3.159 -2.2408 -3.1524  1.7510
  141MOL0     H19015   4.938   0.397   3.647 -1.4498  0.8262  0.7908
  141MOL0     H19016   5.163   0.346   3.695  1.4658 -0.0707  0.5707
  141MOL0     H19017   5.713   0.613   3.599 -2.7858  0.9861  0.1161
  141MOL0     H19018   5.933   0.563   3.698  0.9046  2.1431  2.6382
  141MOL0     H19019   7.857   0.905   4.022  0.5401 -0.9366 -0.0706
  141MOL0     H19020   8.094   0.945   4.016  0.8232 -1.4318 -1.6134
  141MOL0     H19021   8.437   1.171   3.839 -2.7298 -3.1188  1.1956
  141MOL0     H19022   8.680   1.189   3.851  2.1973 -2.4312  1.5711
  141MOL0     H19023   8.984   1.281   4.176 -0.0517  1.1781 -3.5236
  141MOL0     H19024   8.846   1.247   4.285  0.4394 -0.1089  0.3127
  141MOL0     H19025   8.913   1.476   4.281 -1.0914 -2.0793  2.4283
  141MOL0     H19026   8.750   1.470   4.228  0.2848  1.6217 -1.3852
  141MOL0     H19027   8.869   1.497   3.976 -0.2221  0.3441 -1.2875
  141MOL0     H19028   9.012   1.477   4.070 -0.5926 -1.1064  2.0584
  141MOL0     H19029   8.970   1.708   4.171  0.3155 -0.7275  0.7858
  141MOL0     H19030   8.942   1.718   3.994  2.9209 -1.9510  0.3467
  141MOL0     H19031   8.557   1.789   4.055  0.0439  1.0558  0.1279
  141MOL0     H19032   8.645   1.287   4.270 -1.2221  2.1451  0.6161
  141MOL0     H19033   8.454   1.305   4.377 -0.3247  1.7880 -0.0490
  141MOL0     H19034   8.327   1.365   4.271  0.0623  1.6737  0.1434
  141MOL0     H19035   8.340   1.189   4.325 -0.1258  1.8927  2.3212
  142MOL0     O19036   0.648  10.693   0.303 -0.1273  0.4195  0.1727
  142MOL0     C19037   0.564  10.715   0.223  0.2610  0.1384  0.4546
  142MOL0     O19038   0.554  10.818   0.134  0.4590 -0.0802 -1.1154
  142MOL0     C19039   0.653  10.908   0.112 -0.4305 -0.1083 -1.1232
  142MOL0     C19040   0.784  10.916   0.176  0.1252 -0.2190  1.0247
  142MOL0     C19041   0.858  11.031   0.159 -0.2679 -0.6108  0.0957
  142MOL0     C19042   0.820  11.140   0.070  0.5230  1.1880 -0.6443
  142MOL0     O19043   0.892  11.256   0.048  0.3549  0.0585  0.3189
  142MOL0     C19044   0.936  11.318   0.168 -0.2899 -0.0284  0.5675
  142MOL0     C19045   0.964  11.466   0.132 -0.4182  0.0617 -0.1238
  142MOL0     C19046   0.840  11.553   0.169  0.5177 -1.0560  0.3112
  142MOL0     C19047   0.844  11.609   0.316 -0.4195  1.5679  0.1416
  142MOL0     C19048   0.749  11.728   0.348  0.2823  0.2201  0.1428
  142MOL0     C19049   0.603  11.722   0.321 -0.1071  0.1596 -0.8074
  142MOL0     C19050   0.529  11.645   0.440 -0.7204  0.5011  0.7810
  142MOL0     C19051   0.368  11.646   0.429 -1.3268  0.3883 -0.7941
  142MOL0     N19052   0.294  11.606   0.310 -0.7802  1.2256 -0.3868
  142MOL0     C19053   0.335  11.550   0.194  0.0671 -0.6042  0.9206
  142MOL0     C19054   0.225  11.518   0.123 -0.0267  0.0195  0.5800
  142MOL0     C19055   0.224  11.437  -0.009 -0.2000 -0.4434 -0.6875
  142MOL0     C19056   0.134  11.495  -0.111 -0.3150 -0.0481  0.1035
  142MOL0     C19057   0.102  11.406  -0.233  0.4059  0.7388 -0.4862
  142MOL0     C19058   0.230  11.364  -0.315 -0.6584  0.1022 -0.1767
  142MOL0     O19059   0.317  11.268  -0.245  0.1773 -0.3383 -0.5544
  142MOL0     C19060   0.282  11.140  -0.267 -0.3623  0.5421  0.5904
  142MOL0     C19061   0.240  11.085  -0.386  0.9954 -0.2381 -0.0372
  142MOL0     C19062   0.207  10.954  -0.400  0.6582  0.4404  0.4771
  142MOL0     C19063   0.221  10.862  -0.293  0.4099  0.1142  0.8658
  142MOL0     C19064   0.197  10.718  -0.308  0.1574 -0.1698  0.4337
  142MOL0     O19065   0.197  10.677  -0.436 -0.5886  0.0124  0.0300
  142MOL0     C19066   0.193  10.539  -0.455  0.1425 -0.6412 -0.1866
  142MOL0     C19067   0.076  10.477  -0.422 -1.0207 -0.3208 -0.7994
  142MOL0     C19068   0.078  10.334  -0.440  0.8398  0.1168 -0.5539
  142MOL0     C19069   0.194  10.257  -0.435  0.8978  0.3040 -0.0573
  142MOL0     O19070   0.186  10.126  -0.426 -0.4170 -0.1525  0.8348
  142MOL0     C19071   0.085  10.059  -0.500 -0.7522  0.0001 -0.4477
  142MOL0     C19072   0.138  10.011  -0.632  0.1097 -0.4548 -0.6886
  142MOL0     C19073   0.270   9.922  -0.624 -0.4586 -1.0516  0.4185
  142MOL0     C19074   0.314   9.888  -0.768 -0.3970 -0.5128  0.5946
  142MOL0     C19075   0.409   9.978  -0.837  0.3802 -0.7719  0.2153
  142MOL0     C19076   0.529  10.007  -0.747  0.8413 -0.3336  0.5651
  142MOL0     C19077   0.624  10.104  -0.835 -0.1777  0.6146  0.1561
  142MOL0     C19078   0.735  10.173  -0.758  0.6477 -0.2178  0.4108
  142MOL0    Cl19079   0.877  10.074  -0.732 -0.8347 -0.1229  0.0105
  142MOL0     C19080   0.310  10.328  -0.471 -0.2052 -0.1307  0.5405
  142MOL0     C19081   0.310  10.469  -0.483  0.2931 -0.4709  0.7271
  142MOL0     O19082   0.224  10.646  -0.209 -0.2477 -0.8488 -0.4223
  142MOL0     C19083   0.274  10.912  -0.174  0.7312 -1.0547  0.9944
  142MOL0     C19084   0.293  11.056  -0.157  0.1424 -0.5467  0.8705
  142MOL0     N19085   0.112  11.555   0.204 -0.7073 -0.3576  0.0044
  142MOL0     N19086   0.163  11.601   0.316  0.1332 -0.1523 -0.1029
  142MOL0     C19087   0.695  11.126  -0.002 -0.0583 -0.0315  0.8264
  142MOL0     C19088   0.625  11.008   0.010  0.1235 -0.2328 -0.9656
  142MOL0     C19089   0.453  10.615   0.220 -0.3559 -0.3612  0.0884
  142MOL0     C19090   0.398  10.589   0.098 -0.2797 -0.4198 -1.0770
  142MOL0     C19091   0.291  10.509   0.083  0.5758 -0.1133 -0.1904
  142MOL0     C19092   0.241  10.435   0.193 -0.3110 -1.4684 -1.0510
  142MOL0     O19093   0.136  10.352   0.189  1.0896  0.0536 -0.1770
  142MOL0     C19094   0.075  10.325   0.064  0.3617  0.8143 -0.4126
  142MOL0     C19095  -0.029  10.217   0.078 -1.2796 -0.7757  0.0285
  142MOL0     C19096  -0.093  10.165  -0.052 -0.4086  0.7968 -0.6742
  142MOL0     C19097  -0.220  10.248  -0.093  0.4210 -0.6992 -0.2466
  142MOL0     C19098  -0.288  10.174  -0.205 -0.2075  0.8217 -0.1922
  142MOL0     C19099  -0.338  10.102  -0.283 -0.0183  0.1372  0.3430
  142MOL0     C19100   0.303  10.462   0.319  0.1526 -0.0293  0.4858
  142MOL0     C19101   0.403  10.551   0.337 -0.2843 -0.1649  0.6900
  142MOL0     C19102   0.473  10.558   0.478  0.2644  0.1960  0.2154
  142MOL0     H19103   0.817  10.841   0.247  1.0925  2.7030  3.9669
  142MOL0     H19104   0.950  11.036   0.217  2.1794 -2.4760 -3.2495
  142MOL0     H19105   0.869  11.310   0.255 -0.1199 -1.6982  0.5682
  142MOL0     H19106   1.029  11.273   0.202 -0.9960 -0.4442  2.0508
  142MOL0     H19107   0.992  11.455   0.027 -1.6113 -1.5930 -0.3177
  142MOL0     H19108   1.047  11.497   0.195 -3.1545  4.1834  1.9152
  142MOL0     H19109   0.747  11.498   0.152 -0.7612  1.6052 -2.3015
  142MOL0     H19110   0.845  11.641   0.103  0.0990 -0.7754  0.6474
  142MOL0     H19111   0.820  11.526   0.383 -0.6640 -0.6114 -2.4774
  142MOL0     H19112   0.949  11.635   0.337  0.3064 -1.4153  0.7555
  142MOL0     H19113   0.756  11.762   0.451 -0.7932  3.9320 -0.8470
  142MOL0     H19114   0.788  11.811   0.288 -1.1506  2.4012  2.0461
  142MOL0     H19115   0.573  11.824   0.297  0.3835  0.5572  0.2042
  142MOL0     H19116   0.591  11.660   0.232  1.4378 -2.5873  0.7588
  142MOL0     H19117   0.561  11.685   0.536  0.7272  1.0143  0.1168
  142MOL0     H19118   0.562  11.540   0.442  1.9717  1.2129 -0.7306
  142MOL0     H19119   0.342  11.581   0.513  0.9639  0.6645  0.2162
  142MOL0     H19120   0.351  11.752   0.446  1.7469  1.3091 -2.6793
  142MOL0     H19121   0.434  11.518   0.162 -0.0490  1.3617 -1.7322
  142MOL0     H19122   0.319  11.422  -0.060  0.1326 -2.7198  0.4498
  142MOL0     H19123   0.194  11.336   0.022 -0.0009 -0.3137 -0.0402
  142MOL0     H19124   0.046  11.532  -0.058 -0.1829  2.4468 -1.2547
  142MOL0     H19125   0.184  11.581  -0.155 -2.7285  1.5803  0.3376
  142MOL0     H19126   0.027  11.429  -0.309 -0.6165 -2.0089 -0.4334
  142MOL0     H19127   0.063  11.311  -0.195  1.5141  0.7787  0.8417
  142MOL0     H19128   0.282  11.460  -0.327  0.0831 -0.0660  1.5186
  142MOL0     H19129   0.211  11.342  -0.420  0.3492 -1.2667 -0.0956
  142MOL0     H19130   0.236  11.145  -0.476  0.4432  1.4914  1.0822
  142MOL0     H19131   0.172  10.906  -0.491 -2.5404 -0.0503  1.8102
  142MOL0     H19132  -0.011  10.534  -0.391 -1.2538 -0.5616 -1.0107
  142MOL0     H19133  -0.018  10.291  -0.414  0.2965  0.4891 -1.8805
  142MOL0     H19134   0.040   9.978  -0.442 -0.6810  0.2519 -0.0296
  142MOL0     H19135  -0.009  10.113  -0.517 -1.1708 -0.4180  0.4604
  142MOL0     H19136   0.052   9.962  -0.679 -0.7989  1.5972 -1.2583
  142MOL0     H19137   0.144  10.098  -0.698  3.9249 -1.2453 -1.6243
  142MOL0     H19138   0.350   9.971  -0.567 -1.1124  1.2841 -0.5494
  142MOL0     H19139   0.249   9.826  -0.577 -2.3381 -1.0070 -0.2446
  142MOL0     H19140   0.231   9.871  -0.838  0.0418  0.3887 -0.1554
  142MOL0     H19141   0.362   9.789  -0.769  2.8845  0.9567 -1.1644
  142MOL0     H19142   0.362  10.074  -0.860  1.5532  0.6304  3.1438
  142MOL0     H19143   0.452   9.928  -0.925 -0.1044  1.2773 -1.2532
  142MOL0     H19144   0.490  10.058  -0.658 -0.3888 -1.0322  0.4496
  142MOL0     H19145   0.587   9.918  -0.722  1.3517 -0.5381 -1.2273
  142MOL0     H19146   0.561  10.187  -0.869  1.1954  1.8969  0.6251
  142MOL0     H19147   0.665  10.048  -0.920  0.3556 -2.0444  2.0303
  142MOL0     H19148   0.756  10.272  -0.801 -0.6593 -0.3701 -0.6035
  142MOL0     H19149   0.691  10.190  -0.659 -0.7184 -4.9348  0.8587
  142MOL0     H19150   0.406  10.280  -0.481  0.3142  0.6035  1.7668
  142MOL0     H19151   0.408  10.509  -0.506  0.7951 -2.3377 -0.6036
  142MOL0     H19152   0.305  10.838  -0.100 -0.3990 -2.7444 -0.1407
  142MOL0     H19153   0.329  11.093  -0.061  1.8145 -1.0224  0.4615
  142MOL0     H19154   0.641  11.193  -0.069  1.2402 -0.7750 -1.0425
  142MOL0     H19155   0.528  11.016  -0.038  0.3785  1.7711 -1.2445
  142MOL0     H19156   0.417  10.651   0.011  1.5444  1.9804  0.8654
  142MOL0     H19157   0.238  10.511  -0.012 -0.3001  0.0649  0.2858
  142MOL0     H19158   0.154  10.281   0.004  0.4711 -0.0530  0.3533
  142MOL0     H19159   0.014  10.406   0.022 -1.6434 -0.5860 -0.3470
  142MOL0     H19160  -0.100  10.249   0.156 -0.6436 -3.5794  1.9208
  142MOL0     H19161   0.013  10.127   0.124  0.8486 -0.0841 -0.4863
  142MOL0     H19162  -0.114  10.059  -0.040  0.1276  0.6251 -1.1677
  142MOL0     H19163  -0.027  10.158  -0.139 -0.5933  1.0022 -0.8306
  142MOL0     H19164  -0.293  10.250  -0.012  0.8877 -0.9551  0.1861
  142MOL0     H19165  -0.201  10.351  -0.122  0.8040 -0.8925 -0.6995
  142MOL0     H19166  -0.402  10.038  -0.340  1.5912 -1.5106  0.3078
  142MOL0     H19167   0.263  10.419   0.410  0.1531 -0.5064  0.2621
  142MOL0     H19168   0.580  10.536   0.482  0.1912  0.0212  1.5459
  142MOL0     H19169   0.471  10.662   0.511  0.9700  0.1315  0.4852
  142MOL0     H19170   0.419  10.503   0.556  1.5589  1.4080  2.0416
  143MOL0     O19171   3.295   5.544   2.520  0.1523  0.1190 -0.4725
  143MOL0     C19172   3.336   5.579   2.637 -0.8112  0.0754  0.1779
  143MOL0     O19173   3.435   5.666   2.663  0.2538 -0.4434 -0.0715
  143MOL0     C19174   3.524   5.703   2.563 -0.1888  0.2556  0.1368
  143MOL0     C19175   3.501   5.744   2.432 -0.0832  0.0357 -0.3234
  143MOL0     C19176   3.597   5.794   2.346 -0.7522 -0.5543 -0.2992
  143MOL0     C19177   3.735   5.791   2.393  0.3411  0.8283 -0.6031
  143MOL0     O19178   3.827   5.841   2.318  0.5711  0.4807  0.7724
  143MOL0     C19179   3.967   5.817   2.345  0.8596  0.0368 -0.6558
  143MOL0     C19180   4.048   5.869   2.220 -0.2115  0.0320 -0.9742
  143MOL0     C19181   4.007   5.797   2.094  0.9278  0.1745  0.1410
  143MOL0     C19182   4.020   5.646   2.095  0.0369  0.6877 -0.2270
  143MOL0     C19183   4.005   5.574   1.953 -0.3389  0.1777  0.1326
  143MOL0     C19184   3.988   5.423   1.968  0.6833 -0.5844  0.4330
  143MOL0     C19185   4.127   5.362   1.977  0.3331  0.8343  0.0442
  143MOL0     C19186   4.124   5.207   1.953  0.1570 -0.9621 -0.1014
  143MOL0     N19187   4.060   5.144   2.070  0.5494  0.1258  0.3127
  143MOL0     C19188   4.123   5.099   2.180 -0.5930  0.5282  1.0003
  143MOL0     C19189   4.029   5.068   2.266  0.1145  0.9420  0.7490
  143MOL0     C19190   4.043   4.991   2.389 -0.7791 -0.8920  0.2743
  143MOL0     C19191   3.943   4.871   2.399 -0.1177  0.5270 -0.4268
  143MOL0     C19192   3.906   4.843   2.547  1.0208  0.5329  0.2626
  143MOL0     C19193   4.019   4.837   2.644  0.6773  0.7456  0.0920
  143MOL0     O19194   4.025   4.970   2.693  0.2733  0.0113  0.4423
  143MOL0     C19195   4.114   5.003   2.792  1.1367  1.1900  0.3627
  143MOL0     C19196   4.219   4.919   2.840 -0.5970  0.3774  0.7835
  143MOL0     C19197   4.300   4.960   2.940 -0.1190 -0.2809  0.3443
  143MOL0     C19198   4.299   5.094   2.987 -0.0716 -0.2473  1.0557
  143MOL0     C19199   4.372   5.148   3.103  0.1000 -0.0995  0.6007
  143MOL0     O19200   4.371   5.285   3.136  0.4727  0.3115  0.5267
  143MOL0     C19201   4.409   5.337   3.258 -0.0622 -0.0515  0.6879
  143MOL0     C19202   4.437   5.473   3.252  0.0812  0.2337  0.9516
  143MOL0     C19203   4.467   5.540   3.373  0.0744  0.1217 -0.5081
  143MOL0     C19204   4.448   5.477   3.498 -0.8109 -0.3704 -0.2398
  143MOL0     O19205   4.452   5.548   3.610 -0.3260  0.4760  0.6364
  143MOL0     C19206   4.565   5.643   3.621  0.0622  0.5509  0.0677
  143MOL0     C19207   4.512   5.783   3.634 -0.3558  0.9323 -0.2898
  143MOL0     C19208   4.396   5.794   3.732  0.5396 -0.5753  0.5913
  143MOL0     C19209   4.403   5.933   3.811 -0.0430  0.0795  0.2817
  143MOL0     C19210   4.271   5.994   3.857  0.1308  0.6411  0.2378
  143MOL0     C19211   4.183   6.061   3.753  0.0549  0.7738  0.3977
  143MOL0     C19212   4.234   6.187   3.696 -0.5569 -1.1980  0.1225
  143MOL0     C19213   4.163   6.237   3.566  0.0964  0.2475  0.1592
  143MOL0    Cl19214   4.038   6.365   3.605 -0.1359  0.6674 -0.1601
  143MOL0     C19215   4.439   5.337   3.507  0.1117 -0.3674  0.4599
  143MOL0     C19216   4.425   5.268   3.378 -0.1156  1.3776 -0.1298
  143MOL0     O19217   4.425   5.061   3.170  0.5207  0.4683 -0.1591
  143MOL0     C19218   4.210   5.186   2.922 -0.3349  0.4354 -0.9747
  143MOL0     C19219   4.127   5.138   2.829  1.1286  1.1257  0.6113
  143MOL0     N19220   3.913   5.105   2.212 -0.0885  0.1161  0.3026
  143MOL0     N19221   3.929   5.141   2.091 -0.4986  0.1512 -1.2388
  143MOL0     C19222   3.763   5.734   2.521 -0.6938 -0.2206  1.2836
  143MOL0     C19223   3.658   5.701   2.608 -0.2679  0.1432 -0.2023
  143MOL0     C19224   3.248   5.546   2.750  0.2705 -0.2554 -0.9725
  143MOL0     C19225   3.310   5.530   2.874 -0.0142 -0.8291 -0.4252
  143MOL0     C19226   3.233   5.531   2.995  0.5930  0.6326  0.9594
  143MOL0     C19227   3.093   5.502   2.984 -0.4303  0.3582 -0.1235
  143MOL0     O19228   3.009   5.486   3.092  0.2147  0.2040  0.0090
  143MOL0     C19229   3.062   5.430   3.216  0.1360  0.6970 -0.3397
  143MOL0     C19230   2.975   5.455   3.338  0.2358  0.6319 -0.6487
  143MOL0     C19231   2.938   5.609   3.354  0.0837  1.0614  0.1458
  143MOL0     C19232   2.806   5.639   3.424  0.4486 -0.7749 -0.5322
  143MOL0     C19233   2.703   5.634   3.321 -0.8781  0.0257  0.7537
  143MOL0     C19234   2.629   5.631   3.220  1.4349 -0.2282 -0.6001
  143MOL0     C19235   3.031   5.493   2.856 -0.1614 -0.5622  0.6117
  143MOL0     C19236   3.105   5.527   2.736  0.3772  0.8898  0.6319
  143MOL0     C19237   3.017   5.551   2.614 -0.4692 -0.4324  0.5991
  143MOL0     H19238   3.404   5.740   2.382  0.8666 -1.1152 -2.1509
  143MOL0     H19239   3.564   5.832   2.250 -2.1863  1.4535  0.9071
  143MOL0     H19240   4.005   5.873   2.430 -1.4973 -0.8887  1.1116
  143MOL0     H19241   3.980   5.710   2.363  0.7793  0.1177 -0.1022
  143MOL0     H19242   4.153   5.852   2.244  0.5257  1.2159 -3.0977
  143MOL0     H19243   4.036   5.977   2.207  2.9604  1.0702  2.8499
  143MOL0     H19244   4.086   5.826   2.024  1.0555 -1.3267 -0.3618
  143MOL0     H19245   3.908   5.827   2.059 -0.2729 -1.3143  2.0882
  143MOL0     H19246   4.121   5.619   2.127  0.8787  2.2292 -1.4362
  143MOL0     H19247   3.944   5.612   2.165  0.0950  0.1633 -0.4144
  143MOL0     H19248   3.920   5.614   1.898 -0.3763  0.1565  0.1743
  143MOL0     H19249   4.094   5.583   1.890  0.8686 -4.5225  0.8352
  143MOL0     H19250   3.920   5.403   2.052  2.5703 -1.8740  1.7210
  143MOL0     H19251   3.940   5.384   1.878  0.4896 -0.6477  0.5617
  143MOL0     H19252   4.167   5.380   2.077 -1.1757  0.4157  0.7508
  143MOL0     H19253   4.185   5.411   1.898  1.3792 -0.2916  0.0839
  143MOL0     H19254   4.076   5.194   1.856  0.3166 -1.2407 -0.1434
  143MOL0     H19255   4.229   5.179   1.937  0.9167  2.3159 -1.9225
  143MOL0     H19256   4.228   5.072   2.186 -0.6362 -0.8459 -2.2219
  143MOL0     H19257   4.144   4.954   2.407 -1.0841 -3.0257 -1.7818
  143MOL0     H19258   4.021   5.062   2.469 -4.1768 -3.0436  1.4777
  143MOL0     H19259   3.850   4.890   2.344  0.8413 -0.4710 -2.5057
  143MOL0     H19260   3.993   4.789   2.347 -0.4536  1.1777 -1.8086
  143MOL0     H19261   3.848   4.752   2.538 -1.5872  1.9139  1.8812
  143MOL0     H19262   3.831   4.912   2.586  0.7410  2.9913 -3.9987
  143MOL0     H19263   4.107   4.813   2.584 -0.4017 -2.0611 -0.5069
  143MOL0     H19264   4.013   4.767   2.728  0.0233 -1.3831 -1.6403
  143MOL0     H19265   4.220   4.818   2.800 -0.2369  1.5544 -2.4541
  143MOL0     H19266   4.368   4.882   2.975 -1.4682 -2.6084 -1.8446
  143MOL0     H19267   4.429   5.533   3.162  0.7636 -0.8986  0.1121
  143MOL0     H19268   4.469   5.649   3.365 -0.8098  0.1587 -0.4246
  143MOL0     H19269   4.619   5.618   3.713  0.6830  0.3036 -0.3531
  143MOL0     H19270   4.637   5.633   3.539 -1.3134  1.9617 -1.3894
  143MOL0     H19271   4.591   5.847   3.674  1.7053 -1.0322 -0.9636
  143MOL0     H19272   4.483   5.818   3.534 -1.8223  2.0478  0.4991
  143MOL0     H19273   4.306   5.784   3.670  0.6664  0.7407  0.1655
  143MOL0     H19274   4.388   5.711   3.803  2.7299 -2.3068 -1.0534
  143MOL0     H19275   4.456   6.000   3.742  2.4371 -1.4486  0.5525
  143MOL0     H19276   4.469   5.925   3.898  0.2573  3.7039  0.5584
  143MOL0     H19277   4.292   6.071   3.931  0.5401  0.9634 -0.2014
  143MOL0     H19278   4.211   5.918   3.907 -2.3285  1.1633 -1.7106
  143MOL0     H19279   4.158   5.982   3.681 -1.4146 -0.2919  1.9932
  143MOL0     H19280   4.091   6.076   3.810 -1.6553 -5.7754  0.1694
  143MOL0     H19281   4.338   6.177   3.662 -0.2963 -1.8483  1.0655
  143MOL0     H19282   4.226   6.259   3.778  4.1338  1.0700 -1.0860
  143MOL0     H19283   4.235   6.288   3.501 -0.3389  0.9713  0.2314
  143MOL0     H19284   4.123   6.152   3.512 -3.7438  2.1930 -0.4423
  143MOL0     H19285   4.451   5.286   3.602 -1.4835 -0.0616  0.8526
  143MOL0     H19286   4.415   5.161   3.392  1.3963  1.4843  2.3212
  143MOL0     H19287   4.211   5.294   2.938 -2.6168  0.5528 -1.2424
  143MOL0     H19288   4.066   5.206   2.770 -1.6448 -0.5979  1.3174
  143MOL0     H19289   3.865   5.730   2.559  1.4877  3.2215 -3.2815
  143MOL0     H19290   3.667   5.680   2.714  0.6923 -0.7350 -0.4427
  143MOL0     H19291   3.418   5.530   2.885 -0.1412  2.3007  2.5034
  143MOL0     H19292   3.279   5.555   3.091 -1.4746  4.6749  1.1424
  143MOL0     H19293   3.163   5.467   3.238  0.2549 -0.1216  0.5363
  143MOL0     H19294   3.070   5.321   3.206 -0.0310  0.6754 -0.2385
  143MOL0     H19295   3.031   5.415   3.423  0.6390  3.0231  0.2880
  143MOL0     H19296   2.881   5.400   3.329 -0.8927  2.3681 -0.0066
  143MOL0     H19297   2.935   5.641   3.250  0.3844 -1.9053 -0.8805
  143MOL0     H19298   3.009   5.669   3.412 -0.4164  3.0634 -1.2115
  143MOL0     H19299   2.778   5.563   3.497  0.0382  1.4563  1.8082
  143MOL0     H19300   2.799   5.736   3.475  1.1639 -2.3076  2.6824
  143MOL0     H19301   2.569   5.624   3.131  1.8475 -3.2983 -0.7672
  143MOL0     H19302   2.923   5.489   2.857 -0.3595  2.4984  0.4176
  143MOL0     H19303   3.013   5.660   2.600  1.5949 -0.5707 -1.9866
  143MOL0     H19304   3.050   5.488   2.531  1.4834 -1.1124  1.8263
  143MOL0     H19305   2.915   5.516   2.635  0.0875 -2.5873 -0.0193
  144MOL0     O19306   9.090   1.710   5.600  0.4683  0.3508  0.3502
  144MOL0     C19307   9.124   1.781   5.696 -0.1986  0.5816 -0.6400
  144MOL0     O19308   9.249   1.780   5.763  0.1228 -0.6278  0.4145
  144MOL0     C19309   9.352   1.694   5.722 -0.0230 -0.1175  0.0955
  144MOL0     C19310   9.420   1.619   5.815 -0.3706 -0.2001 -0.0594
  144MOL0     C19311   9.531   1.548   5.780  0.2371 -0.0184  0.3216
  144MOL0     C19312   9.578   1.542   5.649  0.7628  0.0580 -0.8895
  144MOL0     O19313   9.696   1.488   5.610  0.2336  0.3956  0.4720
  144MOL0     C19314   9.816   1.492   5.682  0.4061 -0.3424 -0.5554
  144MOL0     C19315   9.853   1.356   5.742  0.1427  0.6859  0.1056
  144MOL0     C19316  10.005   1.348   5.781 -0.4571  0.1280 -0.6002
  144MOL0     C19317  10.047   1.224   5.852 -0.5251 -0.1702  0.3577
  144MOL0     C19318  10.033   1.099   5.756  0.0718 -0.7039 -0.4997
  144MOL0     C19319  10.127   0.980   5.778  0.2823 -0.2158  0.1081
  144MOL0     C19320  10.277   1.008   5.758 -0.9295  0.8806  0.5469
  144MOL0     C19321  10.358   0.902   5.818  0.4089  0.3370 -0.5668
  144MOL0     N19322  10.333   0.766   5.765 -0.6724 -1.0240 -0.0966
  144MOL0     C19323  10.380   0.722   5.647 -0.2425 -0.1759  0.1807
  144MOL0     C19324  10.394   0.592   5.655 -0.6790  0.2317 -0.3238
  144MOL0     C19325  10.456   0.500   5.554  1.4376  0.1349 -0.7912
  144MOL0     C19326  10.559   0.407   5.620  0.1874  0.2667 -0.6428
  144MOL0     C19327  10.567   0.274   5.534 -0.1154  0.2822  0.7132
  144MOL0     C19328  10.631   0.167   5.627 -0.1551 -0.6313 -0.7007
  144MOL0     O19329  10.748   0.229   5.692 -0.3119 -0.1927  0.6528
  144MOL0     C19330  10.874   0.164   5.712  0.6225 -0.0507  0.6332
  144MOL0     C19331  10.987   0.238   5.757  0.2970  0.4438  0.3432
  144MOL0     C19332  11.110   0.181   5.783  0.1213 -0.3812  0.0932
  144MOL0     C19333  11.134   0.046   5.758  0.5796  0.2265  1.0644
  144MOL0     C19334  11.265  -0.017   5.774 -0.3939  0.2704 -0.6702
  144MOL0     O19335  11.290  -0.141   5.729  0.2332  0.1864 -0.2254
  144MOL0     C19336  11.388  -0.218   5.784 -0.4791  0.5562  0.0409
  144MOL0     C19337  11.482  -0.289   5.707 -0.9359 -0.7161  0.3310
  144MOL0     C19338  11.575  -0.377   5.757  0.0716 -0.1096 -0.3095
  144MOL0     C19339  11.572  -0.396   5.898  1.3490  0.3931 -0.1107
  144MOL0     O19340  11.670  -0.471   5.955  0.2503  0.9144  0.0609
  144MOL0     C19341  11.717  -0.429   6.089  0.7960 -0.7933 -0.7017
  144MOL0     C19342  11.815  -0.525   6.149 -0.2307  0.2272 -0.2588
  144MOL0     C19343  11.754  -0.654   6.215 -0.2099  0.3888  0.2442
  144MOL0     C19344  11.710  -0.748   6.093  0.0114 -0.5262 -1.1132
  144MOL0     C19345  11.557  -0.797   6.102 -1.4654 -0.4454 -0.2641
  144MOL0     C19346  11.539  -0.883   5.980 -0.1210 -0.4526  0.3962
  144MOL0     C19347  11.384  -0.916   5.962 -0.1776  0.0830  0.2968
  144MOL0     C19348  11.294  -0.812   5.899 -0.2641 -0.2934 -0.2389
  144MOL0    Cl19349  11.125  -0.871   5.937  0.1102  0.0185 -0.0869
  144MOL0     C19350  11.480  -0.322   5.981  1.1306  0.3615 -0.3199
  144MOL0     C19351  11.384  -0.237   5.920  0.5344 -1.0837 -0.6454
  144MOL0     O19352  11.353   0.057   5.818  0.3140  0.2360 -0.8052
  144MOL0     C19353  11.026  -0.037   5.713  0.3643  0.3297 -0.5723
  144MOL0     C19354  10.894   0.020   5.703  0.3633 -0.3925  0.3861
  144MOL0     N19355  10.358   0.549   5.779  0.6787  0.2985  0.0750
  144MOL0     N19356  10.309   0.648   5.843 -0.1579 -0.8333 -0.0037
  144MOL0     C19357   9.500   1.605   5.549 -0.6415  0.0020  0.5282
  144MOL0     C19358   9.396   1.674   5.589  0.6195 -0.1338  0.3551
  144MOL0     C19359   9.029   1.885   5.737  0.2462 -1.0930 -0.6543
  144MOL0     C19360   9.012   1.907   5.872  0.9933 -0.1790  0.0496
  144MOL0     C19361   8.915   2.001   5.914  0.5781 -0.3798  0.2947
  144MOL0     C19362   8.837   2.075   5.827 -0.1108 -0.2844 -0.5859
  144MOL0     O19363   8.745   2.168   5.868  0.0980  0.2503 -1.2928
  144MOL0     C19364   8.729   2.197   6.012  0.5964  0.5249  0.3973
  144MOL0     C19365   8.628   2.309   6.023  0.8308 -0.4925  0.4220
  144MOL0     C19366   8.565   2.317   6.160  0.3644 -0.5718  0.8842
  144MOL0     C19367   8.440   2.417   6.154  0.0364  0.2181  0.2227
  144MOL0     C19368   8.359   2.420   6.274  0.7082  0.1507  0.5246
  144MOL0     C19369   8.304   2.426   6.377 -0.4862  0.7496  0.1236
  144MOL0     C19370   8.855   2.048   5.691 -0.5809 -0.2906 -0.5832
  144MOL0     C19371   8.958   1.968   5.642 -0.0476 -0.4117  0.6750
  144MOL0     C19372   8.975   1.963   5.493 -0.4318 -0.2305 -0.6401
  144MOL0     H19373   9.382   1.611   5.916 -1.8877 -1.3821 -0.6944
  144MOL0     H19374   9.591   1.504   5.859  0.7043 -1.1989 -0.6730
  144MOL0     H19375   9.892   1.523   5.609  1.7103 -3.7301 -0.8367
  144MOL0     H19376   9.814   1.567   5.761  0.5557 -2.7347  1.8475
  144MOL0     H19377   9.829   1.296   5.654 -2.4087  0.3222  0.9729
  144MOL0     H19378   9.785   1.331   5.823 -0.3003  1.9343  0.1442
  144MOL0     H19379  10.033   1.430   5.848 -0.0366 -1.4032  1.1708
  144MOL0     H19380  10.055   1.356   5.684 -0.2644  2.4831 -0.3574
  144MOL0     H19381  10.152   1.240   5.879 -0.8831  0.6227  1.3673
  144MOL0     H19382  10.007   1.205   5.952  0.0584 -1.4108  0.3635
  144MOL0     H19383   9.929   1.068   5.764  0.1408 -0.4617  1.8237
  144MOL0     H19384  10.046   1.134   5.653  1.6092 -2.9907 -1.1611
  144MOL0     H19385  10.117   0.958   5.885  3.8998  0.1123  0.6223
  144MOL0     H19386  10.098   0.898   5.711  0.5379  0.2554 -0.5909
  144MOL0     H19387  10.303   1.109   5.791 -1.6688  1.3723 -0.3445
  144MOL0     H19388  10.293   0.982   5.653  0.7449 -0.8507  1.1780
  144MOL0     H19389  10.463   0.925   5.799  0.4000  1.3772  0.5350
  144MOL0     H19390  10.364   0.886   5.926  3.4691 -1.7332 -0.9073
  144MOL0     H19391  10.412   0.787   5.566  0.1812  0.1543  0.6064
  144MOL0     H19392  10.377   0.429   5.528  0.7651  0.7735 -0.5248
  144MOL0     H19393  10.501   0.552   5.468 -0.0532 -0.7277 -2.1486
  144MOL0     H19394  10.658   0.452   5.637 -0.0108 -0.0453  1.6684
  144MOL0     H19395  10.517   0.384   5.718  1.0408  0.0732 -0.3118
  144MOL0     H19396  10.632   0.285   5.447 -0.9703  1.8255  0.2267
  144MOL0     H19397  10.468   0.246   5.496 -1.2716  0.6223  3.2429
  144MOL0     H19398  10.660   0.073   5.578 -0.6697 -1.3041  0.2578
  144MOL0     H19399  10.549   0.139   5.694  0.1963 -1.2444 -0.5180
  144MOL0     H19400  10.994   0.345   5.772  1.8910  0.0723  2.6695
  144MOL0     H19401  11.185   0.252   5.818 -0.2958  1.6629 -2.7930
  144MOL0     H19402  11.479  -0.287   5.598  0.3970 -1.8958  0.2527
  144MOL0     H19403  11.643  -0.434   5.694 -0.1341  0.6108 -1.2056
  144MOL0     H19404  11.772  -0.336   6.071  0.1116 -0.8498 -3.7679
  144MOL0     H19405  11.634  -0.420   6.159  2.2894  3.1425  0.8189
  144MOL0     H19406  11.888  -0.556   6.073 -1.3554 -1.9754 -0.5492
  144MOL0     H19407  11.876  -0.470   6.221 -0.5550  2.2521 -1.4807
  144MOL0     H19408  11.836  -0.709   6.261 -1.8847 -0.6951  2.1441
  144MOL0     H19409  11.676  -0.630   6.289  1.4013 -0.3090  2.2461
  144MOL0     H19410  11.782  -0.827   6.069  0.9041  0.5702 -2.2044
  144MOL0     H19411  11.719  -0.689   6.001 -0.0168  0.1848 -0.6623
  144MOL0     H19412  11.484  -0.716   6.113  0.0936  1.4613 -2.8012
  144MOL0     H19413  11.544  -0.859   6.191  0.7140  1.2629  1.3706
  144MOL0     H19414  11.580  -0.842   5.887 -1.0927 -1.1111 -0.3531
  144MOL0     H19415  11.591  -0.978   5.996  0.3752 -0.4071 -0.8339
  144MOL0     H19416  11.354  -0.954   6.060  1.5646  1.3564  1.4070
  144MOL0     H19417  11.375  -0.998   5.890 -0.7366  0.2436  0.1807
  144MOL0     H19418  11.306  -0.710   5.937 -1.3393  0.4042 -1.6739
  144MOL0     H19419  11.302  -0.804   5.790 -0.9292 -0.5662 -0.3070
  144MOL0     H19420  11.453  -0.334   6.085  0.3078 -0.9206 -0.6563
  144MOL0     H19421  11.303  -0.196   5.979  0.6786 -2.7721  0.7983
  144MOL0     H19422  11.040  -0.143   5.691 -0.2722  0.4475 -1.6038
  144MOL0     H19423  10.818  -0.048   5.665 -0.3331  0.2078  0.6757
  144MOL0     H19424   9.525   1.610   5.444 -3.6343  0.0034 -0.2739
  144MOL0     H19425   9.339   1.728   5.513  0.7717  1.5518  1.3705
  144MOL0     H19426   9.068   1.854   5.949 -0.7689 -0.7630  0.9908
  144MOL0     H19427   8.897   2.018   6.020  1.4133 -0.3315  0.4323
  144MOL0     H19428   8.830   2.228   6.042  1.2428  1.7237 -2.6293
  144MOL0     H19429   8.697   2.101   6.053 -0.5942  0.8313  0.2274
  144MOL0     H19430   8.547   2.290   5.952  2.7093 -0.9843 -1.7050
  144MOL0     H19431   8.674   2.404   5.995 -0.4863 -0.2925 -1.2192
  144MOL0     H19432   8.629   2.349   6.243 -0.1856  1.0479  0.7273
  144MOL0     H19433   8.533   2.214   6.181  1.1952 -1.0804 -0.2281
  144MOL0     H19434   8.485   2.510   6.119  2.2442 -0.8855 -0.0550
  144MOL0     H19435   8.363   2.382   6.084  0.3188 -0.8742  0.4289
  144MOL0     H19436   8.276   2.438   6.479 -1.0425  2.5092 -0.2089
  144MOL0     H19437   8.797   2.112   5.626  0.2058 -0.0213 -1.0291
  144MOL0     H19438   9.072   1.923   5.463 -0.7591 -1.4254 -0.1558
  144MOL0     H19439   8.902   1.892   5.453 -2.4959  0.9015  0.9595
  144MOL0     H19440   8.961   2.064   5.453  2.5214  0.7517  0.4983
  145MOL0     O19441   5.032   8.207   7.144 -0.0310  0.4147 -0.0185
  145MOL0     C19442   5.065   8.249   7.037  0.1488  1.2176  0.2876
  145MOL0     O19443   4.993   8.251   6.924 -0.3796  0.0101  0.6041
  145MOL0     C19444   4.862   8.226   6.929  0.5504  0.2179  0.3721
  145MOL0     C19445   4.798   8.097   6.900  0.5984 -0.4332  0.2254
  145MOL0     C19446   4.657   8.086   6.893  0.5874  0.7926  1.3219
  145MOL0     C19447   4.578   8.194   6.940 -0.8185  0.0446 -0.0284
  145MOL0     O19448   4.450   8.179   6.968  0.6975 -0.7803 -0.2945
  145MOL0     C19449   4.359   8.294   6.975 -0.7440  1.0954 -0.3319
  145MOL0     C19450   4.349   8.342   7.119  0.5079 -0.7727  0.1730
  145MOL0     C19451   4.260   8.240   7.185  0.0920 -0.2656 -0.1487
  145MOL0     C19452   4.204   8.290   7.321  0.3187  0.2438 -0.0002
  145MOL0     C19453   4.125   8.176   7.383 -0.2954 -0.0229  0.9054
  145MOL0     C19454   4.206   8.072   7.456  0.4197  0.9507  0.7224
  145MOL0     C19455   4.095   7.984   7.526  0.9001  0.2813  0.6965
  145MOL0     C19456   4.166   7.859   7.577 -0.1634  0.1760  0.4569
  145MOL0     N19457   4.061   7.764   7.618 -0.7725 -0.3030  0.4278
  145MOL0     C19458   3.962   7.713   7.544  1.2257 -0.4942 -0.0431
  145MOL0     C19459   3.920   7.605   7.608 -0.2171  0.8035 -0.5251
  145MOL0     C19460   3.805   7.503   7.583 -0.7399 -0.8899  0.1440
  145MOL0     C19461   3.745   7.443   7.713  0.0972  0.5379 -0.8897
  145MOL0     C19462   3.673   7.555   7.782 -0.8380  0.0159  0.0488
  145MOL0     C19463   3.565   7.494   7.883 -0.5296 -0.4696 -0.0387
  145MOL0     O19464   3.480   7.597   7.921 -0.7105  0.3710 -0.0323
  145MOL0     C19465   3.362   7.561   7.978 -0.8602  0.5351 -0.2335
  145MOL0     C19466   3.351   7.451   8.066 -0.2805  1.0189  0.3890
  145MOL0     C19467   3.233   7.392   8.111  0.1542 -0.1714 -0.6548
  145MOL0     C19468   3.105   7.457   8.069  0.0491  0.2154 -0.8013
  145MOL0     C19469   2.971   7.404   8.129 -0.8316 -0.1850 -0.1869
  145MOL0     O19470   2.982   7.311   8.234 -0.0895 -0.4061  0.0848
  145MOL0     C19471   2.866   7.282   8.309 -0.2015 -0.6073  0.0526
  145MOL0     C19472   2.733   7.277   8.268 -0.2024  0.4948  0.5710
  145MOL0     C19473   2.627   7.263   8.362  0.2352  0.7101  0.0322
  145MOL0     C19474   2.661   7.257   8.497 -0.1142 -1.1952  0.6172
  145MOL0     O19475   2.548   7.262   8.578 -0.0358  0.0668 -0.6822
  145MOL0     C19476   2.559   7.363   8.671 -0.6198 -0.2750  0.3845
  145MOL0     C19477   2.436   7.364   8.757 -0.6097 -0.6817  0.5961
  145MOL0     C19478   2.463   7.466   8.870 -0.0083 -0.0136  0.1669
  145MOL0     C19479   2.348   7.479   8.969 -0.5719 -0.4544  0.2069
  145MOL0     C19480   2.380   7.568   9.093  0.3733  1.2926 -0.4111
  145MOL0     C19481   2.443   7.702   9.067 -0.2783 -0.0850 -0.1052
  145MOL0     C19482   2.442   7.775   9.202 -0.6116 -0.6774  0.1104
  145MOL0     C19483   2.366   7.908   9.208 -0.8318  0.1614 -0.0320
  145MOL0    Cl19484   2.193   7.886   9.220 -0.0940  0.1067  0.4387
  145MOL0     C19485   2.794   7.271   8.539  0.1841 -0.4349  0.3765
  145MOL0     C19486   2.895   7.275   8.441 -0.4311 -0.2060 -0.3585
  145MOL0     O19487   2.867   7.461   8.095 -0.9961  0.0620  0.3005
  145MOL0     C19488   3.116   7.567   7.982 -0.6855  0.4581  0.1985
  145MOL0     C19489   3.242   7.625   7.940 -0.7653  0.5820  0.6832
  145MOL0     N19490   3.994   7.600   7.733  0.1208  0.2281  0.0089
  145MOL0     N19491   4.074   7.700   7.732 -0.3492  0.1452 -0.1470
  145MOL0     C19492   4.640   8.319   6.958  0.8539  0.3778  0.9725
  145MOL0     C19493   4.779   8.335   6.966  0.2676  0.2423 -0.6917
  145MOL0     C19494   5.209   8.283   7.026 -0.0218 -0.2145  0.0015
  145MOL0     C19495   5.242   8.414   7.044  0.0251  0.4968 -0.7789
  145MOL0     C19496   5.382   8.448   7.059  0.0251 -1.2635  0.0409
  145MOL0     C19497   5.489   8.360   7.046 -0.4257 -0.0547  0.3657
  145MOL0     O19498   5.619   8.398   7.060 -0.7110 -0.2639 -0.3011
  145MOL0     C19499   5.674   8.515   7.125  0.1796  0.2405 -0.0207
  145MOL0     C19500   5.711   8.621   7.026 -0.2408 -0.2464  0.4437
  145MOL0     C19501   5.843   8.693   7.065 -0.3193  0.1940 -0.5694
  145MOL0     C19502   5.961   8.607   7.030 -0.2425  0.1259  0.0514
  145MOL0     C19503   6.074   8.687   7.067 -0.1664  0.0529  0.7621
  145MOL0     C19504   6.165   8.748   7.114 -0.0449  0.3165 -0.6433
  145MOL0     C19505   5.453   8.224   7.021 -0.5211 -0.1882 -0.0737
  145MOL0     C19506   5.308   8.187   7.013 -0.3245  0.5876  0.2171
  145MOL0     C19507   5.270   8.048   6.984  0.2094 -0.4546  0.7251
  145MOL0     H19508   4.859   8.015   6.864 -0.6302 -0.6532 -1.4984
  145MOL0     H19509   4.612   7.993   6.859  1.3598  0.9251 -0.1044
  145MOL0     H19510   4.388   8.385   6.922 -2.4228  2.9507  1.7603
  145MOL0     H19511   4.264   8.255   6.937  0.8788 -2.4171 -1.2608
  145MOL0     H19512   4.304   8.441   7.111 -0.7268 -1.1473  1.9142
  145MOL0     H19513   4.447   8.361   7.164 -0.6389 -0.7494  2.8731
  145MOL0     H19514   4.311   8.143   7.189  1.6374  0.5703  2.3579
  145MOL0     H19515   4.166   8.229   7.130 -0.0990  0.0599  0.1109
  145MOL0     H19516   4.284   8.318   7.390 -0.1403  0.5364  0.4134
  145MOL0     H19517   4.141   8.378   7.309  0.2399  0.6502  2.8064
  145MOL0     H19518   4.052   8.221   7.451 -2.1612  0.1355 -1.0749
  145MOL0     H19519   4.073   8.118   7.306  3.0019 -1.6593 -0.2804
  145MOL0     H19520   4.267   8.008   7.391 -0.2303 -0.7617  1.7365
  145MOL0     H19521   4.270   8.123   7.528  0.6937  0.8284  0.5677
  145MOL0     H19522   4.016   7.951   7.458 -0.4882 -1.2021  2.9134
  145MOL0     H19523   4.065   8.041   7.614  0.6319  0.4395  0.5060
  145MOL0     H19524   4.216   7.800   7.500 -1.2807 -1.1749  0.7465
  145MOL0     H19525   4.234   7.891   7.656  0.8239  0.3437 -0.4250
  145MOL0     H19526   3.930   7.745   7.446  0.9406  2.9435  1.0622
  145MOL0     H19527   3.716   7.543   7.534 -2.3460 -2.8255  1.3115
  145MOL0     H19528   3.846   7.431   7.511 -0.9712 -0.5372 -0.3459
  145MOL0     H19529   3.671   7.366   7.691 -0.2082  0.4317  0.4788
  145MOL0     H19530   3.829   7.396   7.765 -0.8880  1.6893  1.9360
  145MOL0     H19531   3.617   7.628   7.723 -1.1994  0.3293  0.7599
  145MOL0     H19532   3.742   7.598   7.856 -0.5150 -3.7861  2.2389
  145MOL0     H19533   3.618   7.450   7.968  2.1949 -0.8391 -1.8096
  145MOL0     H19534   3.501   7.413   7.849 -2.6477 -0.0257  2.5965
  145MOL0     H19535   3.433   7.406   8.121 -0.3165 -1.0975 -1.1365
  145MOL0     H19536   3.245   7.301   8.168  3.1315 -2.5659 -4.5508
  145MOL0     H19537   2.706   7.279   8.163 -1.5352  1.7768  0.9097
  145MOL0     H19538   2.526   7.252   8.322  0.1552  4.1357 -1.0355
  145MOL0     H19539   2.650   7.350   8.731 -1.0963  2.0395  1.7090
  145MOL0     H19540   2.577   7.459   8.621 -1.9545 -0.8523 -1.2820
  145MOL0     H19541   2.360   7.401   8.689 -0.2274 -1.5935 -0.3600
  145MOL0     H19542   2.403   7.266   8.795 -2.0013 -0.3165  0.3713
  145MOL0     H19543   2.557   7.437   8.919 -0.6687  0.1793  1.6243
  145MOL0     H19544   2.487   7.562   8.824 -1.3801 -0.3601 -1.3451
  145MOL0     H19545   2.315   7.383   9.011 -3.2317  0.5505  0.6113
  145MOL0     H19546   2.253   7.499   8.918 -0.7538 -1.4904  0.1139
  145MOL0     H19547   2.432   7.514   9.173 -2.1211 -1.0974 -0.2611
  145MOL0     H19548   2.279   7.587   9.131  1.4274  0.9321  2.9615
  145MOL0     H19549   2.544   7.676   9.033  1.3281  1.2833  3.1209
  145MOL0     H19550   2.395   7.764   8.991  0.3573  0.6568  0.0765
  145MOL0     H19551   2.544   7.800   9.233 -0.6250  1.7676 -1.5316
  145MOL0     H19552   2.409   7.707   9.281 -0.7616 -1.0965 -0.3103
  145MOL0     H19553   2.395   7.947   9.306 -2.8930 -1.6464  1.4038
  145MOL0     H19554   2.400   7.976   9.130  2.1605  0.7423  1.6243
  145MOL0     H19555   2.813   7.274   8.646  0.3396 -0.0052  0.3418
  145MOL0     H19556   2.996   7.285   8.480 -1.7775 -0.6420  3.6799
  145MOL0     H19557   3.019   7.607   7.952  0.1073  1.6362 -0.9327
  145MOL0     H19558   3.239   7.704   7.866 -0.8076  1.5329  1.6721
  145MOL0     H19559   4.588   8.412   6.981 -0.3603  0.3131 -1.2332
  145MOL0     H19560   4.825   8.432   6.984 -0.3681  0.0171  2.8476
  145MOL0     H19561   5.161   8.482   7.070  0.4010  0.4271  0.6515
  145MOL0     H19562   5.393   8.551   7.093 -1.1654 -0.8670 -0.7176
  145MOL0     H19563   5.765   8.490   7.181  0.3132  3.1636  1.2273
  145MOL0     H19564   5.602   8.567   7.189  0.7813  1.1092 -0.0294
  145MOL0     H19565   5.636   8.699   7.008 -2.1322 -1.8508  1.0271
  145MOL0     H19566   5.732   8.569   6.931 -0.2557  0.5874 -0.0249
  145MOL0     H19567   5.838   8.718   7.171  1.0764  0.8469 -0.6400
  145MOL0     H19568   5.864   8.787   7.013  0.2162 -0.6452 -1.9284
  145MOL0     H19569   5.965   8.507   7.076  1.8775 -0.9886 -2.3330
  145MOL0     H19570   5.969   8.585   6.923  0.5495 -0.1923  0.1667
  145MOL0     H19571   6.249   8.793   7.163 -0.1360 -0.2480  0.0543
  145MOL0     H19572   5.519   8.140   7.000 -0.6633  0.2489 -2.6098
  145MOL0     H19573   5.235   8.047   6.880 -0.7051  1.0415  0.9994
  145MOL0     H19574   5.354   7.979   6.995 -0.7713 -1.4494  2.4298
  145MOL0     H19575   5.187   8.020   7.049  0.3400 -1.3163  0.5380
  146MOL0     O19576   6.214   1.672   7.660  0.1437  0.2802  0.3212
  146MOL0     C19577   6.259   1.604   7.754  0.0431  0.0096  1.4864
  146MOL0     O19578   6.182   1.528   7.827  0.7220  0.1889 -0.2491
  146MOL0     C19579   6.038   1.531   7.810  0.1554 -0.1462 -0.3933
  146MOL0     C19580   5.966   1.652   7.807  1.0819 -0.3699  0.5149
  146MOL0     C19581   5.832   1.663   7.788  1.1794 -0.1594 -0.9976
  146MOL0     C19582   5.756   1.543   7.773 -0.4879  0.2721 -0.3455
  146MOL0     O19583   5.620   1.561   7.763  1.0240  0.2322 -0.1251
  146MOL0     C19584   5.541   1.454   7.702 -0.6375 -0.8067  0.4877
  146MOL0     C19585   5.416   1.511   7.646  1.1160 -0.7743 -0.0948
  146MOL0     C19586   5.330   1.426   7.550 -0.8556  0.1233  0.6403
  146MOL0     C19587   5.193   1.490   7.526 -0.3220 -0.9708 -0.3857
  146MOL0     C19588   5.122   1.413   7.411 -0.5517  0.3990 -0.0680
  146MOL0     C19589   5.171   1.466   7.271  0.1592 -0.1841  0.0165
  146MOL0     C19590   5.084   1.418   7.164  0.5433  0.4577  0.4708
  146MOL0     C19591   5.128   1.458   7.022 -0.6695 -0.4819 -0.5044
  146MOL0     N19592   5.055   1.378   6.926 -0.3923 -0.8238  0.0335
  146MOL0     C19593   5.060   1.242   6.905  0.3241  0.3323  0.1023
  146MOL0     C19594   4.990   1.214   6.797  0.6638  0.3959 -0.4133
  146MOL0     C19595   4.946   1.081   6.746 -0.2458 -0.4795  0.1029
  146MOL0     C19596   5.066   0.998   6.682  0.1730 -0.4038 -0.5684
  146MOL0     C19597   5.152   1.085   6.581 -0.7086  0.4545  1.3083
  146MOL0     C19598   5.062   1.152   6.470  0.5611  0.5090  0.7407
  146MOL0     O19599   4.978   1.061   6.398  0.5238  0.3797  0.5288
  146MOL0     C19600   5.047   0.975   6.310  0.2026  0.7982 -0.0063
  146MOL0     C19601   5.116   1.014   6.199 -0.8359  0.0544 -0.2045
  146MOL0     C19602   5.191   0.926   6.118  0.7977 -0.9028 -0.2147
  146MOL0     C19603   5.196   0.787   6.149 -0.5244 -0.3726  0.7455
  146MOL0     C19604   5.279   0.690   6.073  1.5679 -0.3754  0.7952
  146MOL0     O19605   5.360   0.745   5.973 -0.0150 -0.2228  0.5220
  146MOL0     C19606   5.459   0.686   5.899  0.2649 -0.7296 -0.2747
  146MOL0     C19607   5.504   0.749   5.783  0.7681  0.4301  0.1226
  146MOL0     C19608   5.606   0.692   5.712  0.1432  0.1585  0.4081
  146MOL0     C19609   5.670   0.578   5.743  0.7193  0.5778 -0.5538
  146MOL0     O19610   5.772   0.521   5.668 -0.4485 -0.7399 -0.6178
  146MOL0     C19611   5.787   0.566   5.534 -0.3810 -0.8203 -0.3977
  146MOL0     C19612   5.895   0.479   5.467  0.0830 -0.5324 -0.5853
  146MOL0     C19613   5.857   0.329   5.459 -0.3482 -0.1107 -0.4968
  146MOL0     C19614   5.962   0.243   5.383  0.1028 -0.1746  0.2793
  146MOL0     C19615   5.971   0.092   5.398  0.0182  0.1890 -0.4007
  146MOL0     C19616   6.075   0.023   5.305  0.9366 -1.1687  0.2734
  146MOL0     C19617   6.048   0.047   5.154  0.8558  0.3020 -0.3710
  146MOL0     C19618   5.929  -0.008   5.081  0.9404 -0.7306  0.0818
  146MOL0    Cl19619   5.782   0.094   5.112  0.0058  0.2374  0.2819
  146MOL0     C19620   5.641   0.524   5.867 -0.2861 -0.2300  1.0255
  146MOL0     C19621   5.533   0.578   5.946  0.4957  0.1381 -0.6955
  146MOL0     O19622   5.246   0.568   6.095 -0.6447 -0.7690 -0.2367
  146MOL0     C19623   5.114   0.751   6.256 -0.5518  0.4122 -0.1646
  146MOL0     C19624   5.048   0.836   6.343 -0.6327 -1.0450 -0.4356
  146MOL0     N19625   4.939   1.335   6.752 -1.0531  0.1282  0.0828
  146MOL0     N19626   4.976   1.430   6.827  0.1126 -1.1074 -1.3139
  146MOL0     C19627   5.819   1.419   7.793 -0.1668 -0.1049  0.1112
  146MOL0     C19628   5.954   1.409   7.803 -0.9229 -0.4957 -0.1244
  146MOL0     C19629   6.404   1.580   7.771  0.7281  0.0870  1.0963
  146MOL0     C19630   6.458   1.509   7.876 -0.5271  0.4566  0.2507
  146MOL0     C19631   6.600   1.485   7.885  0.4499 -0.1833  1.0264
  146MOL0     C19632   6.688   1.535   7.784 -0.0637 -0.9287 -0.1958
  146MOL0     O19633   6.822   1.535   7.794  0.3443 -0.8396 -0.9446
  146MOL0     C19634   6.875   1.467   7.902  0.0328  0.3136 -0.1011
  146MOL0     C19635   7.032   1.464   7.882 -0.4156  0.3504 -0.4219
  146MOL0     C19636   7.075   1.384   7.771 -0.9638  0.9517  0.1747
  146MOL0     C19637   7.096   1.231   7.808 -0.2516 -0.0629 -0.0452
  146MOL0     C19638   7.238   1.203   7.838  0.3991  1.1213  0.0685
  146MOL0     C19639   7.348   1.170   7.875 -0.1348 -0.5597 -0.0115
  146MOL0     C19640   6.634   1.601   7.678 -0.8912  0.4411  0.5015
  146MOL0     C19641   6.494   1.622   7.670  0.3788 -1.0610 -0.0165
  146MOL0     C19642   6.463   1.701   7.547 -0.0938  0.1483 -0.3317
  146MOL0     H19643   6.023   1.744   7.819  1.2677 -0.5340  0.9283
  146MOL0     H19644   5.782   1.758   7.797  0.7434 -0.4503 -0.3452
  146MOL0     H19645   5.599   1.416   7.618 -0.8340 -1.0415  0.4558
  146MOL0     H19646   5.521   1.366   7.764  2.4695 -0.4838  2.1344
  146MOL0     H19647   5.440   1.604   7.594 -0.8364  0.0002  0.2856
  146MOL0     H19648   5.366   1.547   7.737  3.4037  1.2312  0.4721
  146MOL0     H19649   5.319   1.331   7.604 -1.2083 -0.6978 -0.8177
  146MOL0     H19650   5.376   1.389   7.458  0.0295 -0.9997  1.4921
  146MOL0     H19651   5.133   1.502   7.617  1.5143 -1.1296  0.9091
  146MOL0     H19652   5.217   1.594   7.502 -2.2552  0.7663  4.0954
  146MOL0     H19653   5.143   1.307   7.424  1.7119  0.8906  0.7241
  146MOL0     H19654   5.014   1.424   7.420 -0.6671  2.8129 -2.8429
  146MOL0     H19655   5.182   1.575   7.278 -0.5996 -0.1223  0.3365
  146MOL0     H19656   5.274   1.436   7.251 -0.0046 -1.4793  0.9799
  146MOL0     H19657   4.980   1.449   7.176 -0.0577 -1.0083 -0.6974
  146MOL0     H19658   5.088   1.309   7.165  4.3008  0.4373 -0.2754
  146MOL0     H19659   5.106   1.564   7.004 -1.8374 -0.4807  0.8017
  146MOL0     H19660   5.234   1.436   7.006 -1.0273 -0.1901 -3.9686
  146MOL0     H19661   5.121   1.173   6.963  4.4831  2.0735 -1.7770
  146MOL0     H19662   4.884   1.028   6.819 -4.7283 -0.1976 -3.0795
  146MOL0     H19663   4.871   1.084   6.666 -0.6556 -3.8775  0.2302
  146MOL0     H19664   5.118   0.960   6.770  1.6685  0.9426 -0.8213
  146MOL0     H19665   5.025   0.918   6.620 -1.2624 -1.1021  1.1899
  146MOL0     H19666   5.223   1.020   6.529 -0.7704  0.9659  0.5671
  146MOL0     H19667   5.209   1.165   6.629 -0.1612  1.8982 -1.5286
  146MOL0     H19668   5.128   1.196   6.395  0.6287 -0.1212  0.4183
  146MOL0     H19669   4.993   1.229   6.505 -0.1436  2.4665 -4.1462
  146MOL0     H19670   5.118   1.120   6.175  2.2682  0.5468  1.7887
  146MOL0     H19671   5.249   0.963   6.034 -0.4350 -2.5844 -1.8929
  146MOL0     H19672   5.445   0.835   5.753  0.8347  1.1776  2.0624
  146MOL0     H19673   5.624   0.748   5.621  2.1457  1.7443  1.6749
  146MOL0     H19674   5.691   0.559   5.482  0.0479  0.1087 -1.3436
  146MOL0     H19675   5.815   0.672   5.540  3.8044 -1.8100  0.4765
  146MOL0     H19676   5.912   0.512   5.364  0.5180  2.2249  0.2901
  146MOL0     H19677   5.993   0.502   5.510 -1.4111  2.0288  1.7402
  146MOL0     H19678   5.833   0.296   5.560 -3.0699 -1.8581 -1.6139
  146MOL0     H19679   5.760   0.325   5.409 -0.0850 -3.4888 -0.9561
  146MOL0     H19680   6.056   0.279   5.427 -0.2700 -0.6549  1.5099
  146MOL0     H19681   5.952   0.269   5.277  0.6718  1.5547  0.6206
  146MOL0     H19682   5.873   0.053   5.371  0.4485 -1.3464  0.1194
  146MOL0     H19683   5.984   0.070   5.504 -0.3811 -1.1674 -0.6106
  146MOL0     H19684   6.175   0.068   5.306 -0.1397  1.5542 -1.5059
  146MOL0     H19685   6.088  -0.083   5.329  3.9197 -1.2171 -1.0681
  146MOL0     H19686   6.128  -0.006   5.100  0.8860  0.5010 -0.5222
  146MOL0     H19687   6.064   0.153   5.132  0.1359  0.9729  2.1195
  146MOL0     H19688   5.936   0.003   4.972  2.4691  0.8633  0.2979
  146MOL0     H19689   5.896  -0.110   5.103 -1.9071  0.0710 -0.0982
  146MOL0     H19690   5.700   0.443   5.910 -3.3466 -2.2075  1.8223
  146MOL0     H19691   5.506   0.546   6.047 -1.4691  1.3643 -0.7912
  146MOL0     H19692   5.111   0.647   6.288  0.5102  0.5748  0.5058
  146MOL0     H19693   5.001   0.792   6.430  3.0404 -0.4554  2.0678
  146MOL0     H19694   5.760   1.329   7.803 -2.5108  1.4312  0.8082
  146MOL0     H19695   6.011   1.318   7.819  0.1296  0.5373  2.7873
  146MOL0     H19696   6.390   1.475   7.954  1.0175 -0.1670  1.3774
  146MOL0     H19697   6.642   1.433   7.971 -3.1110 -2.6594  1.4851
  146MOL0     H19698   6.839   1.364   7.898  0.6106  0.0814  0.3995
  146MOL0     H19699   6.843   1.526   7.988 -1.3974 -1.1109  0.3765
  146MOL0     H19700   7.089   1.426   7.967 -0.1567  1.2590 -0.1872
  146MOL0     H19701   7.054   1.570   7.868 -0.8644  0.5744  0.4959
  146MOL0     H19702   7.168   1.420   7.728  0.0151 -1.2126  0.3653
  146MOL0     H19703   7.001   1.395   7.691 -2.1139 -0.2368  1.0096
  146MOL0     H19704   7.021   1.191   7.876  0.9874 -1.4880  0.5347
  146MOL0     H19705   7.086   1.171   7.717  1.0359 -0.7225  0.2257
  146MOL0     H19706   7.447   1.136   7.897  0.8828  1.5214 -1.0410
  146MOL0     H19707   6.706   1.628   7.601 -1.1084 -0.3427  0.0099
  146MOL0     H19708   6.458   1.807   7.572 -0.7261  0.3681 -1.3325
  146MOL0     H19709   6.550   1.687   7.481 -0.3369 -0.4280 -0.5301
  146MOL0     H19710   6.372   1.665   7.500 -1.2700 -1.0069  2.6287
  147MOL0     O19711   6.715   8.962   8.429  0.3496  0.4104 -0.4271
  147MOL0     C19712   6.626   9.037   8.470  0.3923  0.3404 -0.1560
  147MOL0     O19713   6.645   9.139   8.559 -0.2371  0.1617  0.1025
  147MOL0     C19714   6.774   9.158   8.600  0.5250 -0.0527 -0.1572
  147MOL0     C19715   6.862   9.060   8.652 -0.5508 -0.9198 -0.8302
  147MOL0     C19716   6.987   9.101   8.696 -0.1113  0.8365 -0.8459
  147MOL0     C19717   7.025   9.235   8.711  0.0276  0.2712 -0.2161
  147MOL0     O19718   7.142   9.266   8.771  0.9605  0.3746 -0.6170
  147MOL0     C19719   7.271   9.222   8.748  0.0083  0.8457  0.2673
  147MOL0     C19720   7.342   9.213   8.882  0.5148 -0.3315  0.5855
  147MOL0     C19721   7.459   9.116   8.884  0.2436  0.7784  0.5537
  147MOL0     C19722   7.556   9.144   8.996  0.5032  0.1983  0.9474
  147MOL0     C19723   7.659   9.028   9.025  1.0997 -0.0750  0.1529
  147MOL0     C19724   7.762   9.084   9.118  0.5777  0.1064  0.2731
  147MOL0     C19725   7.854   8.972   9.166  1.6693 -0.6886  0.7469
  147MOL0     C19726   7.950   9.033   9.274 -0.1868 -0.9168  0.1025
  147MOL0     N19727   7.902   9.061   9.403 -0.6381 -0.0559  0.2841
  147MOL0     C19728   7.786   9.011   9.462  0.5856 -1.2004  0.3203
  147MOL0     C19729   7.783   9.073   9.589  0.0977 -0.0858  0.2081
  147MOL0     C19730   7.653   9.057   9.678  0.1545 -0.2484  0.1933
  147MOL0     C19731   7.563   9.182   9.694  0.0667 -0.2504  0.5078
  147MOL0     C19732   7.641   9.290   9.781  0.5324 -0.0323 -0.0674
  147MOL0     C19733   7.567   9.424   9.799 -0.2086 -0.5868  0.4180
  147MOL0     O19734   7.435   9.409   9.855  0.1982  1.1762 -0.4027
  147MOL0     C19735   7.334   9.496   9.836 -0.3186 -0.6421  0.0324
  147MOL0     C19736   7.205   9.458   9.867  0.0354 -0.0477 -0.6959
  147MOL0     C19737   7.090   9.540   9.835  0.1896 -0.2296  0.0248
  147MOL0     C19738   7.113   9.670   9.774 -0.6811  0.1003  0.6608
  147MOL0     C19739   6.999   9.766   9.749  1.0413  0.1141 -0.0588
  147MOL0     O19740   7.022   9.902   9.751  0.8675  0.3267 -0.3534
  147MOL0     C19741   6.907   9.977   9.743 -0.1948 -0.3029  0.3916
  147MOL0     C19742   6.868  10.040   9.626 -0.1998  0.6432  0.6621
  147MOL0     C19743   6.772  10.139   9.622 -0.6502  0.4954  0.3958
  147MOL0     C19744   6.695  10.159   9.738  0.2276 -0.5659 -0.8778
  147MOL0     O19745   6.601  10.256   9.724  0.4066  0.1333  0.4057
  147MOL0     C19746   6.580  10.355   9.836  0.2226  0.8005 -0.5625
  147MOL0     C19747   6.688  10.454   9.832  0.7034 -0.6636  1.0302
  147MOL0     C19748   6.708  10.521   9.978  0.3236 -0.9728 -0.1877
  147MOL0     C19749   6.832  10.614   9.983  0.2666 -0.0802 -1.0365
  147MOL0     C19750   6.839  10.716   9.872  0.0660 -0.7478  0.2905
  147MOL0     C19751   6.946  10.827   9.909  0.0450 -0.7030  0.0782
  147MOL0     C19752   7.089  10.772   9.938 -1.1376 -0.0594  0.7176
  147MOL0     C19753   7.127  10.743  10.085 -0.1138  0.2737  1.0627
  147MOL0    Cl19754   7.300  10.685  10.093  0.0728  0.4117  0.5466
  147MOL0     C19755   6.724  10.100   9.860 -0.1261  0.0516 -0.0903
  147MOL0     C19756   6.840  10.016   9.859 -0.9132  0.7087  0.1824
  147MOL0     O19757   6.892   9.708   9.725 -0.2569 -0.4212  0.2841
  147MOL0     C19758   7.250   9.702   9.746  0.5813 -1.0306  0.6236
  147MOL0     C19759   7.356   9.619   9.772 -0.0021 -0.0241 -0.1056
  147MOL0     N19760   7.894   9.144   9.610 -0.3607  0.1040 -0.1188
  147MOL0     N19761   7.972   9.122   9.512 -0.5517  1.2998 -0.3401
  147MOL0     C19762   6.935   9.328   8.670 -0.1489  0.1276 -0.3207
  147MOL0     C19763   6.816   9.293   8.605  0.6077 -0.5233  0.6474
  147MOL0     C19764   6.490   8.981   8.447 -0.3458  0.9808 -0.8544
  147MOL0     C19765   6.402   9.002   8.548 -0.1749 -0.8492 -0.5091
  147MOL0     C19766   6.274   8.958   8.539 -0.8363 -0.3685  0.0608
  147MOL0     C19767   6.230   8.896   8.426  1.0841  0.4583 -0.9700
  147MOL0     O19768   6.095   8.869   8.416  1.1263 -0.0238  0.0326
  147MOL0     C19769   5.989   8.953   8.465  0.6090 -0.4924  0.0565
  147MOL0     C19770   5.863   8.922   8.382  0.0149 -0.1857 -0.6656
  147MOL0     C19771   5.813   8.783   8.423  0.7207  0.6356  0.4574
  147MOL0     C19772   5.680   8.748   8.350 -0.2355 -0.1593  0.2324
  147MOL0     C19773   5.667   8.601   8.324 -0.1374 -0.8171 -0.7844
  147MOL0     C19774   5.650   8.480   8.314 -0.4577  0.4249  1.4655
  147MOL0     C19775   6.313   8.870   8.317 -0.6723 -0.4234  0.4438
  147MOL0     C19776   6.450   8.914   8.329 -0.5541 -0.3868  0.9802
  147MOL0     C19777   6.541   8.891   8.217  0.1796  0.8661 -0.5886
  147MOL0     H19778   6.837   8.955   8.662 -0.7158 -0.7385  0.7743
  147MOL0     H19779   7.052   9.032   8.749  1.0021  2.0770 -0.5349
  147MOL0     H19780   7.260   9.129   8.692  0.0891  0.1920  1.3220
  147MOL0     H19781   7.333   9.291   8.689 -0.9175 -1.0739 -3.2804
  147MOL0     H19782   7.265   9.161   8.940 -0.0750  0.8802  0.9163
  147MOL0     H19783   7.363   9.308   8.933 -0.8661 -0.1663  0.8896
  147MOL0     H19784   7.513   9.118   8.789 -0.4231  1.4263  0.1831
  147MOL0     H19785   7.416   9.017   8.904  2.4761  0.2471  3.4898
  147MOL0     H19786   7.601   9.243   8.986  0.6699  0.1968  1.6102
  147MOL0     H19787   7.489   9.153   9.082 -2.1091 -0.7170 -0.8652
  147MOL0     H19788   7.604   8.944   9.069 -1.1844  2.2868  2.2105
  147MOL0     H19789   7.702   8.989   8.933  0.2571 -4.7079  1.4654
  147MOL0     H19790   7.813   9.167   9.070  2.9147 -1.5468 -0.2850
  147MOL0     H19791   7.718   9.118   9.212  0.4908 -0.1035  0.3102
  147MOL0     H19792   7.917   8.936   9.084  2.1029 -3.1581  2.0982
  147MOL0     H19793   7.804   8.880   9.195 -1.9081  0.4294 -1.1952
  147MOL0     H19794   8.044   8.976   9.278  1.3683  1.5152 -0.1175
  147MOL0     H19795   7.992   9.124   9.231 -0.9241  0.1960  1.6420
  147MOL0     H19796   7.700   8.969   9.412  0.3645  0.9155 -1.2048
  147MOL0     H19797   7.584   8.979   9.646 -2.0222 -0.0393  3.7759
  147MOL0     H19798   7.687   9.029   9.778 -2.7871  1.1918  1.7377
  147MOL0     H19799   7.537   9.212   9.592 -0.8132 -1.6510  0.2909
  147MOL0     H19800   7.470   9.172   9.751 -1.2303 -0.9260 -1.6217
  147MOL0     H19801   7.730   9.319   9.725 -1.4736  1.2222 -2.8066
  147MOL0     H19802   7.666   9.255   9.882  1.1480  2.1939  0.5979
  147MOL0     H19803   7.569   9.480   9.705 -4.3059 -1.6964 -0.5053
  147MOL0     H19804   7.626   9.484   9.869  2.0669  0.5565 -2.2912
  147MOL0     H19805   7.180   9.364   9.915 -1.8607  0.8767  0.2372
  147MOL0     H19806   6.991   9.506   9.863 -1.0301  1.3428 -2.0828
  147MOL0     H19807   6.929  10.042   9.536  1.6940  0.0356  1.8529
  147MOL0     H19808   6.755  10.187   9.526  0.9839  1.4694  0.5590
  147MOL0     H19809   6.484  10.401   9.811 -0.1028 -0.1513 -1.1026
  147MOL0     H19810   6.585  10.315   9.938  2.0549  1.1293 -0.4982
  147MOL0     H19811   6.786  10.430   9.788  1.9928  4.4691  0.4739
  147MOL0     H19812   6.651  10.534   9.768 -2.0407  0.3833  3.7080
  147MOL0     H19813   6.615  10.574  10.002 -0.0952 -1.7442 -0.0647
  147MOL0     H19814   6.722  10.438  10.048 -0.7757 -1.1209 -0.1288
  147MOL0     H19815   6.923  10.552   9.991  0.4159  0.3488  2.5150
  147MOL0     H19816   6.831  10.667  10.079 -2.3626 -2.9769  0.7551
  147MOL0     H19817   6.737  10.755   9.864  1.5863  3.5854 -0.2278
  147MOL0     H19818   6.864  10.654   9.786  0.0394  2.9086 -2.5968
  147MOL0     H19819   6.955  10.885   9.817  0.8740 -0.3256  0.3906
  147MOL0     H19820   6.910  10.881   9.997 -0.2113 -1.3671  0.3911
  147MOL0     H19821   7.167  10.843   9.912  1.7367 -2.2047  2.8234
  147MOL0     H19822   7.110  10.686   9.874  0.5176  0.0872  1.0332
  147MOL0     H19823   7.127  10.841  10.133  0.3796  1.2187 -0.7991
  147MOL0     H19824   7.062  10.672  10.137 -0.3906  1.1478  1.9341
  147MOL0     H19825   6.677  10.117   9.957  2.5183  2.2070  0.9661
  147MOL0     H19826   6.876   9.979   9.955  1.8942  1.3520 -0.5268
  147MOL0     H19827   7.269   9.801   9.707  0.1633 -1.2272 -0.1095
  147MOL0     H19828   7.460   9.638   9.745 -0.2114 -3.6597 -4.6449
  147MOL0     H19829   6.974   9.426   8.698  2.9613 -0.7344 -1.1511
  147MOL0     H19830   6.748   9.376   8.590 -0.4102 -1.3663  0.4649
  147MOL0     H19831   6.428   9.070   8.628 -1.0851 -1.6943  0.5427
  147MOL0     H19832   6.214   8.965   8.630  0.1661  1.6813  0.6271
  147MOL0     H19833   6.008   9.058   8.441  0.4632 -0.7259 -1.1232
  147MOL0     H19834   5.981   8.940   8.574  1.9281  0.3758  0.2814
  147MOL0     H19835   5.868   8.929   8.272  2.8656 -0.6311 -0.6413
  147MOL0     H19836   5.789   8.995   8.415 -0.0303 -0.9396  0.9665
  147MOL0     H19837   5.788   8.780   8.529  1.1181  1.1159  0.5692
  147MOL0     H19838   5.892   8.713   8.396 -1.8149 -2.2684  0.0278
  147MOL0     H19839   5.592   8.767   8.411 -3.4251 -1.5185 -3.5151
  147MOL0     H19840   5.663   8.796   8.253 -3.0251 -5.2148 -2.1941
  147MOL0     H19841   5.621   8.377   8.305  1.6896 -0.0669 -1.4651
  147MOL0     H19842   6.293   8.815   8.226  0.7440 -0.7300  0.3042
  147MOL0     H19843   6.604   8.975   8.186  3.1334 -1.9598 -2.9988
  147MOL0     H19844   6.613   8.819   8.259 -1.2502  1.3069  2.9829
  147MOL0     H19845   6.482   8.851   8.134 -0.0497 -0.1240  0.0439
  148MOL0     O19846   9.597   2.064  11.169  0.6317  0.0417  0.3574
  148MOL0     C19847   9.657   2.033  11.269 -0.5141 -0.0525 -0.4661
  148MOL0     O19848   9.793   2.007  11.272  0.4504 -0.2638  0.2704
  148MOL0     C19849   9.869   2.038  11.158  0.4260 -0.4190 -0.0631
  148MOL0     C19850   9.946   2.148  11.155 -1.0226  0.1838  0.2185
  148MOL0     C19851  10.015   2.189  11.038  0.6514  0.2107 -1.4429
  148MOL0     C19852   9.996   2.115  10.913 -0.1831  0.8936  0.1811
  148MOL0     O19853  10.068   2.132  10.799 -0.1679  0.1793  0.3836
  148MOL0     C19854  10.191   2.211  10.817  0.5407  0.4698  0.4949
  148MOL0     C19855  10.272   2.240  10.686 -0.2593 -0.6567  0.7751
  148MOL0     C19856  10.303   2.111  10.610  0.7099 -0.2692 -0.2181
  148MOL0     C19857  10.406   2.131  10.503  0.8323 -0.3613 -0.3959
  148MOL0     C19858  10.447   2.000  10.440  0.1187  0.5180 -0.1096
  148MOL0     C19859  10.584   2.010  10.381 -0.7060  0.0361  0.2809
  148MOL0     C19860  10.635   1.875  10.319  0.2494 -0.1003 -0.6447
  148MOL0     C19861  10.790   1.872  10.311 -0.8374  0.1797 -0.2037
  148MOL0     N19862  10.842   1.751  10.263  0.6257  0.7888 -0.3274
  148MOL0     C19863  10.772   1.658  10.195  1.3699  0.3344  0.8126
  148MOL0     C19864  10.828   1.536  10.210  0.3348 -0.5084  0.3159
  148MOL0     C19865  10.811   1.413  10.134 -0.8358 -0.6495  0.7073
  148MOL0     C19866  10.675   1.359  10.132  1.5356  0.7021  0.7025
  148MOL0     C19867  10.611   1.339  10.266  0.6945  1.1246 -0.1915
  148MOL0     C19868  10.489   1.248  10.244  1.0197 -0.9562  0.0487
  148MOL0     O19869  10.438   1.247  10.376  0.2682  0.1623  0.2756
  148MOL0     C19870  10.368   1.137  10.434  0.0159 -0.0568 -0.7127
  148MOL0     C19871  10.233   1.131  10.429  0.4579  0.7244 -0.0807
  148MOL0     C19872  10.158   1.014  10.454 -0.3713 -0.1442 -0.2414
  148MOL0     C19873  10.221   0.906  10.514  0.5372  0.1806  0.4100
  148MOL0     C19874  10.137   0.784  10.555 -0.0889  0.1405  0.5537
  148MOL0     O19875  10.204   0.701  10.640 -0.1157  0.1094 -0.0020
  148MOL0     C19876  10.125   0.601  10.687 -0.1134  0.5110 -0.5035
  148MOL0     C19877  10.081   0.502  10.607 -1.1239  0.5700 -0.0782
  148MOL0     C19878  10.003   0.397  10.659 -0.0566  0.0527 -0.0739
  148MOL0     C19879   9.972   0.380  10.793  0.8806 -1.0954  0.1731
  148MOL0     O19880   9.891   0.271  10.841  0.1220  0.0684 -0.2014
  148MOL0     C19881   9.746   0.280  10.830  0.7989  0.1878  0.0187
  148MOL0     C19882   9.688   0.157  10.764 -0.2093 -0.0636 -0.6137
  148MOL0     C19883   9.722   0.152  10.612  0.0313  0.3504  0.0787
  148MOL0     C19884   9.636   0.247  10.527 -0.9456 -0.0301 -1.2940
  148MOL0     C19885   9.659   0.233  10.380 -0.9594 -0.3349  0.6582
  148MOL0     C19886   9.805   0.251  10.338  0.6460  0.1289  0.0411
  148MOL0     C19887   9.820   0.295  10.190  0.2096  0.5854 -0.6343
  148MOL0     C19888   9.844   0.174  10.097  0.1860  0.9049 -0.7605
  148MOL0    Cl19889  10.018   0.127  10.115 -0.3423  0.2605  0.4845
  148MOL0     C19890  10.019   0.480  10.873  0.8844  0.2266 -0.2174
  148MOL0     C19891  10.086   0.595  10.823 -0.5529  0.1479 -0.2966
  148MOL0     O19892  10.024   0.778  10.506  0.3426  0.8253  0.5753
  148MOL0     C19893  10.352   0.912  10.538  0.7343  0.3837  0.4557
  148MOL0     C19894  10.429   1.023  10.494  0.4253  0.2539 -0.1611
  148MOL0     N19895  10.934   1.555  10.293 -1.0444 -0.8600  0.2202
  148MOL0     N19896  10.930   1.679  10.339 -0.2393  0.4017 -0.7590
  148MOL0     C19897   9.916   2.001  10.919 -0.4148  1.2576 -0.4533
  148MOL0     C19898   9.857   1.958  11.037 -0.3581 -0.0935  0.2869
  148MOL0     C19899   9.578   2.030  11.395  0.5721  0.0610 -0.1055
  148MOL0     C19900   9.653   2.001  11.512 -0.0077  0.3417  1.0464
  148MOL0     C19901   9.605   2.020  11.642 -0.0716  0.9367  0.7696
  148MOL0     C19902   9.467   2.050  11.654  0.2320  0.3141 -0.2825
  148MOL0     O19903   9.426   2.039  11.780  0.6875  0.8510 -0.3182
  148MOL0     C19904   9.363   2.147  11.832  0.8602  0.0142 -0.4382
  148MOL0     C19905   9.328   2.111  11.979  0.3827  0.0848  0.3101
  148MOL0     C19906   9.314   2.232  12.083  0.6724 -0.0666 -0.5480
  148MOL0     C19907   9.438   2.310  12.138 -0.1125 -0.7223  0.0078
  148MOL0     C19908   9.527   2.209  12.192 -0.0411  0.7774 -0.2328
  148MOL0     C19909   9.603   2.120  12.230  0.1363 -1.1416  0.4797
  148MOL0     C19910   9.388   2.073  11.542  0.1652 -0.2225  0.5340
  148MOL0     C19911   9.441   2.074  11.410 -0.8909 -0.2786 -0.4656
  148MOL0     C19912   9.336   2.103  11.298  0.3056  0.8062  0.4363
  148MOL0     H19913   9.943   2.202  11.249  0.8525 -2.1130  1.7115
  148MOL0     H19914  10.076   2.278  11.046  1.3131 -0.4215  2.3370
  148MOL0     H19915  10.161   2.313  10.844 -0.7002 -0.0205  1.0943
  148MOL0     H19916  10.256   2.168  10.894 -1.1148 -0.3884  1.4799
  148MOL0     H19917  10.368   2.276  10.723  0.0891 -0.8379  0.0662
  148MOL0     H19918  10.221   2.308  10.618  1.5202  0.4458  0.4787
  148MOL0     H19919  10.204   2.083  10.576 -0.3265  1.8456  0.8539
  148MOL0     H19920  10.334   2.039  10.687 -0.1144  1.7881  2.1704
  148MOL0     H19921  10.365   2.199  10.427 -0.2137 -1.2207 -0.6277
  148MOL0     H19922  10.494   2.170  10.554  0.2550 -0.5478  0.7776
  148MOL0     H19923  10.446   1.920  10.515 -2.5445 -0.4867 -1.0697
  148MOL0     H19924  10.369   1.963  10.372  1.6380  1.9014 -2.7844
  148MOL0     H19925  10.581   2.089  10.306 -0.1056 -0.9779 -0.8444
  148MOL0     H19926  10.663   2.036  10.453  2.2195 -2.4847 -1.7262
  148MOL0     H19927  10.576   1.872  10.227 -2.0770 -2.6577  0.7622
  148MOL0     H19928  10.602   1.794  10.384 -1.6796  1.5617  0.5596
  148MOL0     H19929  10.811   1.944  10.232  3.4969 -2.0883 -1.4412
  148MOL0     H19930  10.842   1.893  10.405  1.3925 -4.6755 -0.0283
  148MOL0     H19931  10.694   1.680  10.123  1.8798 -1.5915 -0.4052
  148MOL0     H19932  10.833   1.436  10.030 -0.7857  1.0195  1.0622
  148MOL0     H19933  10.885   1.338  10.164  0.1133 -0.4240 -0.9973
  148MOL0     H19934  10.612   1.423  10.069  0.1066 -0.5161  0.8170
  148MOL0     H19935  10.680   1.258  10.090  1.3602  0.3159  1.5911
  148MOL0     H19936  10.589   1.443  10.292  1.4839  1.1395  0.4575
  148MOL0     H19937  10.683   1.302  10.340  1.0678  1.9431 -0.1284
  148MOL0     H19938  10.532   1.157  10.204  3.0940  0.0725 -0.2006
  148MOL0     H19939  10.407   1.284  10.181 -1.6783 -7.4763 -0.9490
  148MOL0     H19940  10.179   1.219  10.395 -0.7343 -0.5815 -1.7243
  148MOL0     H19941  10.054   1.031  10.428 -0.5495 -1.1607 -0.2226
  148MOL0     H19942  10.094   0.509  10.499 -1.7390  1.4128 -0.1054
  148MOL0     H19943   9.948   0.325  10.600  1.0900 -0.5683 -0.4137
  148MOL0     H19944   9.696   0.289  10.927 -3.4764 -3.6895 -1.4270
  148MOL0     H19945   9.715   0.374  10.785 -0.2166 -0.6836 -1.1762
  148MOL0     H19946   9.709   0.064  10.819  0.0628  0.9123  0.9822
  148MOL0     H19947   9.581   0.180  10.764  0.0965  1.6248  1.1955
  148MOL0     H19948   9.830   0.169  10.603  0.2786  0.2118  2.3243
  148MOL0     H19949   9.693   0.049  10.585 -2.8337  1.0966  0.0392
  148MOL0     H19950   9.656   0.347  10.566 -1.1077 -0.1859 -0.7999
  148MOL0     H19951   9.528   0.240  10.542 -1.4730  4.6904 -1.6066
  148MOL0     H19952   9.597   0.313  10.338  0.1073  1.0505  1.6364
  148MOL0     H19953   9.616   0.137  10.350 -2.8306  0.1399  1.6347
  148MOL0     H19954   9.846   0.331  10.400 -2.7396  2.0832  0.0198
  148MOL0     H19955   9.862   0.160  10.357 -0.6819 -1.0629 -1.4240
  148MOL0     H19956   9.909   0.359  10.186  1.9872 -1.7054 -0.0112
  148MOL0     H19957   9.731   0.347  10.154 -0.6471  0.5478  1.2813
  148MOL0     H19958   9.771   0.100  10.130 -0.0501  0.8338 -1.4282
  148MOL0     H19959   9.836   0.189   9.989  1.9312 -0.4030 -1.1180
  148MOL0     H19960   9.990   0.462  10.976  2.4727 -0.5050  0.1321
  148MOL0     H19961  10.107   0.680  10.888 -1.0725  0.0985 -0.0631
  148MOL0     H19962  10.397   0.823  10.580 -1.3834 -0.4306  1.1197
  148MOL0     H19963  10.534   1.033  10.519  0.1407  0.5022  1.0057
  148MOL0     H19964   9.905   1.950  10.824  0.8778  1.0446 -0.5061
  148MOL0     H19965   9.790   1.875  11.054  0.5413 -0.3775  2.9944
  148MOL0     H19966   9.759   1.981  11.504 -0.2437 -0.2591 -2.4527
  148MOL0     H19967   9.670   2.008  11.728  0.9685 -1.2330 -0.2583
  148MOL0     H19968   9.275   2.180  11.776  0.6819 -0.0891 -0.2255
  148MOL0     H19969   9.438   2.225  11.822  0.4600  0.3826 -0.5778
  148MOL0     H19970   9.390   2.029  12.017 -2.2813 -1.9234  0.6340
  148MOL0     H19971   9.226   2.072  11.979 -0.0389  1.1377 -0.8955
  148MOL0     H19972   9.266   2.201  12.176 -0.0115  4.3014  0.7899
  148MOL0     H19973   9.238   2.297  12.040 -0.5433 -1.9867 -1.4442
  148MOL0     H19974   9.489   2.360  12.056 -1.1167 -1.5964 -1.1837
  148MOL0     H19975   9.414   2.383  12.216  1.6853 -0.2711  0.1923
  148MOL0     H19976   9.663   2.038  12.265 -0.0884 -0.6256  2.1349
  148MOL0     H19977   9.283   2.094  11.554  0.6983  2.7113  0.8353
  148MOL0     H19978   9.360   2.191  11.238  0.7104  1.0882  0.9923
  148MOL0     H19979   9.317   2.020  11.230 -1.0581  0.0428  1.6786
  148MOL0     H19980   9.240   2.117  11.350  0.0868 -0.8194  0.4940
  149MOL0     O19981  10.887  11.179  11.187  0.0387 -0.6038  1.0463
  149MOL0     C19982  10.857  11.294  11.137 -1.2328 -0.4552 -0.0069
  149MOL0     O19983  10.920  11.413  11.167 -0.4652 -0.1474  0.0237
  149MOL0     C19984  10.994  11.412  11.279 -0.1925  0.7712  0.2223
  149MOL0     C19985  11.134  11.404  11.267  1.1416 -0.1212  0.2323
  149MOL0     C19986  11.213  11.404  11.379 -0.6525  0.6357  0.6514
  149MOL0     C19987  11.150  11.406  11.507  0.2552 -0.3263  1.0510
  149MOL0     O19988  11.231  11.407  11.614  0.0101  0.9166 -0.2078
  149MOL0     C19989  11.214  11.489  11.731  0.0688 -0.0421  1.0523
  149MOL0     C19990  11.178  11.395  11.850 -0.9280  0.4495  0.4376
  149MOL0     C19991  11.130  11.480  11.971  1.4134  0.1075 -0.0620
  149MOL0     C19992  11.229  11.515  12.085 -0.4832  0.0453  0.7195
  149MOL0     C19993  11.371  11.546  12.026  0.5236 -0.0793 -0.1032
  149MOL0     C19994  11.482  11.590  12.123 -0.5446  0.4479  0.3535
  149MOL0     C19995  11.494  11.741  12.153 -0.3220  0.0014 -1.0824
  149MOL0     C19996  11.585  11.770  12.269 -0.0566  0.8503 -0.6876
  149MOL0     N19997  11.592  11.915  12.282 -0.0434  0.0361  0.4109
  149MOL0     C19998  11.689  12.006  12.244  0.0560 -0.2491  0.1013
  149MOL0     C19999  11.650  12.129  12.291  0.1182 -0.1983 -0.4945
  149MOL0     C20000  11.711  12.262  12.267  0.2050  1.5612  0.3543
  149MOL0     C20001  11.769  12.331  12.392 -1.1261 -0.1455  0.2118
  149MOL0     C20002  11.895  12.261  12.448 -0.0364 -0.8669  0.1269
  149MOL0     C20003  11.859  12.180  12.575 -0.0519  0.3613  0.4646
  149MOL0     O20004  11.964  12.081  12.605  0.1402 -0.3800  0.7860
  149MOL0     C20005  11.942  11.954  12.554  0.3109  0.5474  0.3941
  149MOL0     C20006  11.865  11.858  12.614  0.7433 -1.1834 -0.1043
  149MOL0     C20007  11.859  11.732  12.557  0.7988  0.9479  0.2657
  149MOL0     C20008  11.926  11.692  12.439  0.8862  0.2464  0.2277
  149MOL0     C20009  11.905  11.552  12.385  0.5751 -0.1138  0.1260
  149MOL0     O20010  11.811  11.468  12.441 -0.4469  0.8463  0.7056
  149MOL0     C20011  11.777  11.355  12.361 -0.9401 -2.0304  0.5994
  149MOL0     C20012  11.864  11.243  12.355  0.1201 -0.1587 -0.4013
  149MOL0     C20013  11.818  11.129  12.285  0.1842  1.3967  0.2857
  149MOL0     C20014  11.689  11.120  12.238  0.2288  0.1313  0.1616
  149MOL0     O20015  11.648  11.008  12.164 -0.1936 -0.0465 -0.1278
  149MOL0     C20016  11.739  10.953  12.068  0.0706 -0.5378  0.3986
  149MOL0     C20017  11.648  10.861  11.972  0.3139  0.6186  0.1932
  149MOL0     C20018  11.599  10.733  12.033 -0.0121  0.3015 -0.1367
  149MOL0     C20019  11.481  10.678  11.955 -0.1929 -0.7072  0.6129
  149MOL0     C20020  11.412  10.559  12.020 -0.5139  0.8268 -1.5798
  149MOL0     C20021  11.335  10.478  11.913 -0.2998  0.3964  0.4071
  149MOL0     C20022  11.220  10.547  11.841  0.3090  0.2010  0.4277
  149MOL0     C20023  11.149  10.456  11.741  0.6647  0.1522  0.0529
  149MOL0    Cl20024  11.127  10.290  11.825  0.0890 -0.2489  0.0597
  149MOL0     C20025  11.611  11.231  12.253  0.1341  0.6246  0.1614
  149MOL0     C20026  11.649  11.350  12.315 -0.5739  0.1040 -0.3741
  149MOL0     O20027  11.963  11.533  12.279 -0.2012 -0.8997  0.1455
  149MOL0     C20028  12.005  11.788  12.377 -0.2527  1.1432 -0.0267
  149MOL0     C20029  12.008  11.919  12.437 -0.0314  0.1420 -0.2909
  149MOL0     N20030  11.535  12.115  12.360  0.2937  0.0840 -0.1318
  149MOL0     N20031  11.493  11.991  12.341  0.7603  0.1913 -0.8531
  149MOL0     C20032  11.015  11.439  11.524 -0.9648 -0.2452  0.7553
  149MOL0     C20033  10.936  11.429  11.407 -0.6845 -0.2874 -0.6708
  149MOL0     C20034  10.755  11.305  11.033  0.5603 -0.1433 -0.8472
  149MOL0     C20035  10.753  11.414  10.951  0.2371 -0.6905  0.5863
  149MOL0     C20036  10.659  11.425  10.846 -1.0493 -0.0899 -0.3695
  149MOL0     C20037  10.569  11.327  10.820 -0.3828 -0.7357 -0.9856
  149MOL0     O20038  10.470  11.344  10.729 -0.3717 -0.3395  0.0918
  149MOL0     C20039  10.496  11.441  10.624  0.6100 -0.0517  0.3303
  149MOL0     C20040  10.394  11.421  10.516 -0.5190  0.0989 -0.1385
  149MOL0     C20041  10.404  11.277  10.456 -0.1841 -0.1159  0.5828
  149MOL0     C20042  10.454  11.286  10.318  0.0354  1.8987  0.0934
  149MOL0     C20043  10.384  11.366  10.223  0.6120 -0.4293 -0.2215
  149MOL0     C20044  10.337  11.441  10.140  0.0631 -0.2956 -0.8807
  149MOL0     C20045  10.558  11.217  10.901 -0.1524  0.7220  0.3252
  149MOL0     C20046  10.655  11.199  11.011  0.3515 -0.3911 -0.4414
  149MOL0     C20047  10.637  11.075  11.101  0.2000 -0.1861  0.5976
  149MOL0     H20048  11.174  11.383  11.168 -3.9901 -0.2073 -2.1693
  149MOL0     H20049  11.322  11.403  11.385 -0.6503  3.0438  3.0816
  149MOL0     H20050  11.309  11.543  11.732 -0.0612  0.2542 -0.6265
  149MOL0     H20051  11.139  11.567  11.717 -0.2679 -0.1673  2.0529
  149MOL0     H20052  11.262  11.332  11.881 -0.8844  0.5352  0.4970
  149MOL0     H20053  11.094  11.332  11.818 -1.3348  1.1135  0.1711
  149MOL0     H20054  11.045  11.436  12.024  1.1808  0.7489  0.1139
  149MOL0     H20055  11.082  11.573  11.937  0.7419  0.0776  0.7624
  149MOL0     H20056  11.194  11.596  12.150  1.9218  0.8736  1.1039
  149MOL0     H20057  11.250  11.428  12.148  3.2835 -0.8915 -1.5060
  149MOL0     H20058  11.411  11.455  11.981 -3.5227 -2.2540  0.2654
  149MOL0     H20059  11.356  11.624  11.951  1.6129  0.3114  0.0572
  149MOL0     H20060  11.454  11.534  12.213 -0.8086 -2.0122 -1.1692
  149MOL0     H20061  11.577  11.558  12.080 -0.5047  1.6026 -0.4668
  149MOL0     H20062  11.396  11.781  12.179  0.2349  0.8076 -0.1422
  149MOL0     H20063  11.526  11.789  12.060  0.9877  0.5004 -0.4051
  149MOL0     H20064  11.537  11.732  12.359 -1.6829 -0.6249 -2.1194
  149MOL0     H20065  11.685  11.725  12.264  1.0462  2.0927  4.3504
  149MOL0     H20066  11.776  11.992  12.182 -1.9482  1.7853 -3.5363
  149MOL0     H20067  11.787  12.254  12.189 -1.0935 -5.3500 -0.7986
  149MOL0     H20068  11.638  12.327  12.219  1.1268  2.0111 -0.4811
  149MOL0     H20069  11.798  12.430  12.356 -1.6181  0.3647  1.1667
  149MOL0     H20070  11.689  12.348  12.464  0.0996  0.5827  1.4542
  149MOL0     H20071  11.963  12.339  12.484 -1.1510  0.8054 -1.2314
  149MOL0     H20072  11.932  12.197  12.367  0.0340  1.2001 -1.5779
  149MOL0     H20073  11.760  12.133  12.563  1.0889 -2.5433  1.5365
  149MOL0     H20074  11.859  12.236  12.669  0.5556 -1.2712  1.4757
  149MOL0     H20075  11.838  11.872  12.718  2.1791  1.6807 -0.0167
  149MOL0     H20076  11.789  11.662  12.600  1.1359 -1.1391 -2.2932
  149MOL0     H20077  11.956  11.253  12.411 -1.3213  3.3752  1.6619
  149MOL0     H20078  11.885  11.047  12.263 -0.0070  1.3418 -0.0948
  149MOL0     H20079  11.786  11.035  12.014  0.2172  0.9169  2.5777
  149MOL0     H20080  11.815  10.896  12.122 -1.1769 -2.5935  0.1201
  149MOL0     H20081  11.566  10.925  11.937  0.1535 -0.6748 -1.9999
  149MOL0     H20082  11.694  10.835  11.877 -2.1508  0.8208 -1.1388
  149MOL0     H20083  11.671  10.654  12.056 -0.7240 -1.1530 -2.5541
  149MOL0     H20084  11.552  10.765  12.127 -2.3456  0.1475 -1.1690
  149MOL0     H20085  11.511  10.655  11.853  0.2164 -0.9112  0.7782
  149MOL0     H20086  11.406  10.757  11.948 -1.6155 -2.0565 -0.1039
  149MOL0     H20087  11.336  10.593  12.092 -0.8447  0.5889 -1.8099
  149MOL0     H20088  11.485  10.489  12.061 -1.1159  0.8684 -0.3627
  149MOL0     H20089  11.407  10.451  11.836 -0.5359  3.1702 -0.8956
  149MOL0     H20090  11.301  10.385  11.960  0.1843  0.5182  1.0062
  149MOL0     H20091  11.247  10.643  11.795 -2.3114  1.2603  0.8738
  149MOL0     H20092  11.157  10.587  11.921  0.7911  1.3175  0.2746
  149MOL0     H20093  11.047  10.490  11.722  0.6883 -0.4305 -1.2301
  149MOL0     H20094  11.207  10.465  11.649  2.6001 -1.3063  1.0368
  149MOL0     H20095  11.506  11.220  12.230  0.5198 -2.3985 -0.5219
  149MOL0     H20096  11.578  11.430  12.333 -1.0109  0.7155 -4.0600
  149MOL0     H20097  12.058  11.776  12.284  3.4921 -0.7834  2.1219
  149MOL0     H20098  12.063  11.999  12.388  1.6041 -2.2447 -2.7312
  149MOL0     H20099  10.973  11.463  11.621 -2.4139  2.6547 -0.4635
  149MOL0     H20100  10.829  11.443  11.416 -0.5185  1.3252 -0.8802
  149MOL0     H20101  10.815  11.499  10.974  2.1056 -2.0417  0.7509
  149MOL0     H20102  10.664  11.516  10.788  1.0251  0.0330 -0.0667
  149MOL0     H20103  10.595  11.432  10.579  0.3683 -0.3578 -0.1488
  149MOL0     H20104  10.476  11.538  10.669 -2.5411 -1.3213  1.9961
  149MOL0     H20105  10.404  11.506  10.447  3.2536 -0.2384 -0.2072
  149MOL0     H20106  10.295  11.429  10.560 -0.2379  0.0705  0.5156
  149MOL0     H20107  10.306  11.229  10.457 -0.6534  0.5721 -2.6514
  149MOL0     H20108  10.478  11.211  10.503 -0.0410 -1.2302 -1.1394
  149MOL0     H20109  10.559  11.316  10.328  0.1590  1.0718  1.4573
  149MOL0     H20110  10.458  11.183  10.284 -2.9162  1.2813  1.3825
  149MOL0     H20111  10.297  11.513  10.071  2.1565  2.6124  0.6821
  149MOL0     H20112  10.486  11.137  10.892  0.0117  0.4870  1.0622
  149MOL0     H20113  10.724  11.009  11.107 -1.2190 -2.2175 -0.2291
  149MOL0     H20114  10.624  11.119  11.200 -3.8424 -0.6672  0.4192
  149MOL0     H20115  10.548  11.018  11.077 -0.2251  1.4254 -2.0438
  150MOL0     O20116   4.071   0.126  10.091  0.0247  0.3436 -0.3620
  150MOL0     C20117   4.085   0.040  10.177 -1.1526 -0.0640 -0.4415
  150MOL0     O20118   3.991  -0.005  10.273 -0.0086 -0.0836 -0.7487
  150MOL0     C20119   3.860   0.033  10.254  0.1229 -0.7124  1.5307
  150MOL0     C20120   3.782   0.003  10.149  0.1486  0.5702 -0.2052
  150MOL0     C20121   3.654   0.048  10.136  0.2602 -0.3460  0.1617
  150MOL0     C20122   3.595   0.133  10.231  0.0971  0.9420  0.0164
  150MOL0     O20123   3.467   0.174  10.201  0.3496  0.0062  0.2900
  150MOL0     C20124   3.398   0.261  10.293  0.1306 -0.0760  0.6953
  150MOL0     C20125   3.367   0.175  10.413 -0.0084  0.3172  0.5847
  150MOL0     C20126   3.276   0.057  10.376  1.3795 -0.3866 -1.3668
  150MOL0     C20127   3.258  -0.033  10.493 -0.0762 -0.5014  0.2809
  150MOL0     C20128   3.170   0.044  10.597 -0.0843  0.1705 -0.0994
  150MOL0     C20129   3.128  -0.053  10.700 -0.0169 -1.3934 -0.3136
  150MOL0     C20130   3.049   0.025  10.797  0.2484 -0.4004 -0.7637
  150MOL0     C20131   2.972  -0.067  10.886 -0.0611 -0.5352  0.5197
  150MOL0     N20132   2.919   0.013  11.007  0.1386  0.0639  0.8669
  150MOL0     C20133   2.978   0.021  11.129 -0.4421  0.0112 -0.4304
  150MOL0     C20134   2.906   0.117  11.194  0.5450  0.8333 -0.6684
  150MOL0     C20135   2.940   0.149  11.341  0.2053  1.1322 -0.3830
  150MOL0     C20136   3.046   0.258  11.339  0.1256 -0.4428  0.0164
  150MOL0     C20137   3.144   0.264  11.458 -0.1516 -0.0449 -0.1844
  150MOL0     C20138   3.246   0.378  11.444 -0.6830 -0.5860  0.2264
  150MOL0     O20139   3.335   0.344  11.327 -0.6171 -0.0143 -0.2347
  150MOL0     C20140   3.401   0.444  11.257  0.9439  0.1887 -0.0689
  150MOL0     C20141   3.512   0.393  11.172  0.1100 -0.2232 -1.4104
  150MOL0     C20142   3.589   0.487  11.099  0.1496 -0.2248  0.4292
  150MOL0     C20143   3.562   0.620  11.102  0.6199 -0.1445 -0.7850
  150MOL0     C20144   3.634   0.740  11.036  1.3169  0.1528 -0.5562
  150MOL0     O20145   3.757   0.702  11.005 -0.0177  0.2472  0.7818
  150MOL0     C20146   3.854   0.799  10.988 -0.3849  0.9430 -0.2387
  150MOL0     C20147   3.861   0.926  11.054 -0.1656  0.1147  0.2568
  150MOL0     C20148   3.945   1.022  11.007  0.8045 -0.5057  1.7951
  150MOL0     C20149   4.021   1.000  10.888 -0.0008  1.0831  0.3692
  150MOL0     O20150   4.098   1.085  10.814  0.4147 -0.5743  0.2539
  150MOL0     C20151   4.055   1.226  10.824  0.0017  0.0451  1.1614
  150MOL0     C20152   4.155   1.297  10.917  0.1700  0.0545  1.0029
  150MOL0     C20153   4.291   1.312  10.846  0.0451  0.1509 -0.4055
  150MOL0     C20154   4.368   1.435  10.901 -0.5090 -0.8748  0.5694
  150MOL0     C20155   4.513   1.438  10.835  0.2841  0.2491 -1.2371
  150MOL0     C20156   4.609   1.543  10.894  0.8002 -0.0631  0.5925
  150MOL0     C20157   4.758   1.513  10.875 -1.0686  0.3933  0.0943
  150MOL0     C20158   4.842   1.558  10.757 -0.2224  0.0559  0.1848
  150MOL0    Cl20159   4.881   1.736  10.776  0.1228  0.4251  0.4006
  150MOL0     C20160   4.029   0.868  10.837  0.1417 -0.3357 -0.0718
  150MOL0     C20161   3.942   0.772  10.887 -0.5238 -0.7137  0.2751
  150MOL0     O20162   3.580   0.846  11.020  0.4360 -0.0214  0.1178
  150MOL0     C20163   3.458   0.668  11.186 -0.6766  0.0699 -1.0476
  150MOL0     C20164   3.382   0.582  11.264  0.2953  0.7166  0.3486
  150MOL0     N20165   2.788   0.142  11.124 -0.6112 -0.0511  0.7024
  150MOL0     N20166   2.802   0.086  11.007 -0.4590  1.0221 -1.1301
  150MOL0     C20167   3.675   0.171  10.345  0.8268 -0.3844  0.4342
  150MOL0     C20168   3.800   0.114  10.356  0.0247  0.0753 -0.4067
  150MOL0     C20169   4.199  -0.060  10.159 -0.0668  0.4017 -0.0039
  150MOL0     C20170   4.176  -0.193  10.202 -0.5174  0.4392 -0.0619
  150MOL0     C20171   4.288  -0.278  10.206  0.3332 -0.5018 -0.6521
  150MOL0     C20172   4.414  -0.237  10.154 -0.0023 -0.0629  0.2408
  150MOL0     O20173   4.513  -0.334  10.152  0.5344 -0.2475 -0.4842
  150MOL0     C20174   4.650  -0.308  10.129 -0.2601  0.8252 -0.0005
  150MOL0     C20175   4.734  -0.420  10.184 -0.7135 -0.4007  0.0971
  150MOL0     C20176   4.747  -0.430  10.342  0.2043  0.5508  0.8279
  150MOL0     C20177   4.635  -0.511  10.403 -0.0762  0.0408  0.6106
  150MOL0     C20178   4.668  -0.652  10.388  0.3926  0.9002 -0.3642
  150MOL0     C20179   4.685  -0.775  10.371  0.0999 -0.3324 -0.2341
  150MOL0     C20180   4.429  -0.106  10.110  0.6855  0.7641 -0.1387
  150MOL0     C20181   4.324  -0.015  10.109 -0.1515 -0.3710 -0.2478
  150MOL0     C20182   4.349   0.130  10.069  0.0595  0.2069  0.4559
  150MOL0     H20183   3.826  -0.052  10.066 -0.3763 -2.8639  1.5767
  150MOL0     H20184   3.596   0.023  10.048  0.9216 -1.5901  0.0556
  150MOL0     H20185   3.449   0.352  10.324  1.9077 -0.5820 -0.5468
  150MOL0     H20186   3.307   0.290  10.239  0.7242  1.8253  0.6668
  150MOL0     H20187   3.313   0.249  10.472 -1.5802  0.4829 -0.9560
  150MOL0     H20188   3.457   0.147  10.469  1.6443 -1.1274 -2.5361
  150MOL0     H20189   3.317   0.003  10.290 -0.2628  3.5162 -4.9199
  150MOL0     H20190   3.180   0.097  10.341  1.1363 -1.1103 -1.5470
  150MOL0     H20191   3.189  -0.112  10.461 -1.1468  0.3209  0.4979
  150MOL0     H20192   3.357  -0.062  10.530  1.6273  2.6417 -1.4433
  150MOL0     H20193   3.237   0.119  10.640  0.0736  0.4406 -0.8063
  150MOL0     H20194   3.083   0.083  10.543 -0.8828  1.6472  2.1001
  150MOL0     H20195   3.075  -0.126  10.637  1.5932 -0.9266 -2.3287
  150MOL0     H20196   3.216  -0.091  10.752 -0.5574 -0.2968  1.4793
  150MOL0     H20197   2.971   0.085  10.750  1.4017  0.3080 -1.8508
  150MOL0     H20198   3.115   0.089  10.856 -1.0235  0.4155 -0.1883
  150MOL0     H20199   2.892  -0.115  10.829  0.4617 -0.5993 -0.1687
  150MOL0     H20200   3.037  -0.145  10.928  0.8180 -1.0673 -1.6936
  150MOL0     H20201   3.061  -0.040  11.162  0.1948  1.5347  0.9359
  150MOL0     H20202   2.855   0.177  11.405 -0.6506  0.0188 -0.9989
  150MOL0     H20203   2.984   0.061  11.389  1.4896  0.4043 -2.7654
  150MOL0     H20204   3.106   0.252  11.249  2.3132  2.2745  1.1304
  150MOL0     H20205   2.994   0.355  11.347  2.3455  0.9474 -1.3774
  150MOL0     H20206   3.197   0.168  11.461 -0.6240 -0.3079 -0.0058
  150MOL0     H20207   3.082   0.277  11.548  0.6195  3.3089  0.0013
  150MOL0     H20208   3.306   0.400  11.533  1.6272  0.3252 -1.4534
  150MOL0     H20209   3.191   0.470  11.422 -0.0307 -0.2978 -0.2138
  150MOL0     H20210   3.535   0.287  11.173  1.2948  0.0217 -1.6226
  150MOL0     H20211   3.678   0.452  11.047  1.3435  1.7108  1.0519
  150MOL0     H20212   3.809   0.938  11.149  0.6208  0.8319  0.6095
  150MOL0     H20213   3.955   1.119  11.055  3.0458  0.6233 -0.7313
  150MOL0     H20214   4.055   1.271  10.725 -3.6440 -0.7922  0.6569
  150MOL0     H20215   3.950   1.237  10.854 -1.4670  0.4048 -3.3581
  150MOL0     H20216   4.124   1.398  10.945 -1.9334 -0.0925 -0.5428
  150MOL0     H20217   4.175   1.237  11.006  0.8723 -2.6037 -0.8333
  150MOL0     H20218   4.339   1.217  10.875  0.0725  0.0840 -0.6697
  150MOL0     H20219   4.275   1.307  10.738 -3.1295 -4.1397 -0.0114
  150MOL0     H20220   4.381   1.412  11.007  2.3761 -1.2096  0.2072
  150MOL0     H20221   4.313   1.529  10.884  1.8051  0.3676 -0.4419
  150MOL0     H20222   4.504   1.452  10.727 -2.2442 -0.2552 -1.1652
  150MOL0     H20223   4.553   1.339  10.857  1.4792  0.4851 -2.2156
  150MOL0     H20224   4.583   1.644  10.860 -0.7091 -1.1731 -1.8790
  150MOL0     H20225   4.593   1.548  11.002  3.2641  1.9502  0.9620
  150MOL0     H20226   4.786   1.408  10.887  2.3969  1.2638  0.8118
  150MOL0     H20227   4.803   1.558  10.964  1.6047 -3.1618  0.7948
  150MOL0     H20228   4.937   1.504  10.762  0.5352  1.4486  1.6746
  150MOL0     H20229   4.808   1.517  10.661  2.4075 -1.9027 -0.0256
  150MOL0     H20230   4.083   0.861  10.743  0.3043  1.7568 -0.1862
  150MOL0     H20231   3.934   0.672  10.846 -1.0644 -1.3914  1.9625
  150MOL0     H20232   3.433   0.774  11.195 -1.9496 -0.3908  2.0911
  150MOL0     H20233   3.295   0.613  11.320 -0.6029 -0.4529 -0.3700
  150MOL0     H20234   3.635   0.252  10.405 -1.3256 -0.1054 -1.2671
  150MOL0     H20235   3.854   0.140  10.447 -1.2888 -1.1396  0.7827
  150MOL0     H20236   4.075  -0.219  10.234  0.1367 -0.0146  1.7725
  150MOL0     H20237   4.286  -0.374  10.256  3.2139 -1.0566 -1.3921
  150MOL0     H20238   4.687  -0.215  10.174  0.9751 -0.4223  1.6976
  150MOL0     H20239   4.664  -0.311  10.020  3.0812 -0.3683  0.3430
  150MOL0     H20240   4.838  -0.404  10.152 -0.4992  2.6760  1.9284
  150MOL0     H20241   4.718  -0.520  10.143 -4.0886  1.0011 -2.5042
  150MOL0     H20242   4.748  -0.328  10.383  3.4135  1.9505 -2.1814
  150MOL0     H20243   4.843  -0.472  10.372 -0.4380 -0.5345  1.4319
  150MOL0     H20244   4.621  -0.495  10.511 -1.6072 -1.2353  0.6393
  150MOL0     H20245   4.541  -0.498  10.349  1.9338 -1.4437 -3.6717
  150MOL0     H20246   4.691  -0.882  10.363  1.9160 -0.5823  2.7911
  150MOL0     H20247   4.524  -0.079  10.066 -0.5780 -0.1030 -3.7790
  150MOL0     H20248   4.456   0.153  10.064  0.9019 -3.3340 -2.3439
  150MOL0     H20249   4.310   0.158   9.971 -0.5093  0.7211  0.8302
  150MOL0     H20250   4.304   0.194  10.145 -1.2335 -1.9196  1.5688
  151MOL0     O20251   1.363  10.588   6.042  0.2842 -0.1378  0.6514
  151MOL0     C20252   1.341  10.606   6.160  0.6210 -0.4487 -1.1304
  151MOL0     O20253   1.385  10.714   6.241  0.9320 -0.3531  0.3420
  151MOL0     C20254   1.460  10.804   6.176 -0.9919 -0.3365 -0.0718
  151MOL0     C20255   1.580  10.769   6.119 -0.3351 -0.4186  0.1052
  151MOL0     C20256   1.667  10.872   6.078 -0.1927 -0.4146  0.0038
  151MOL0     C20257   1.629  11.014   6.074 -0.4567 -0.3299  0.6518
  151MOL0     O20258   1.722  11.107   6.028  0.0307  0.2696  0.0274
  151MOL0     C20259   1.712  11.246   6.047  0.0396 -0.5140  0.4099
  151MOL0     C20260   1.841  11.316   5.986 -0.2236  0.3323  0.5002
  151MOL0     C20261   1.836  11.461   6.034 -0.1477 -0.2941 -0.3590
  151MOL0     C20262   1.909  11.564   5.954 -0.0078  0.3904 -0.8969
  151MOL0     C20263   1.915  11.702   6.007  0.7764  0.1798 -0.3726
  151MOL0     C20264   2.017  11.782   5.921 -0.2526  0.0931 -0.0946
  151MOL0     C20265   2.032  11.927   5.990 -0.2079 -0.7290  0.0561
  151MOL0     C20266   2.162  11.988   5.941 -0.6772  0.2585  0.0255
  151MOL0     N20267   2.149  11.994   5.799 -0.0757 -0.9356  1.4740
  151MOL0     C20268   2.061  12.081   5.733  0.0738  0.0453  0.4893
  151MOL0     C20269   2.106  12.085   5.604 -0.5507 -0.1719 -0.0875
  151MOL0     C20270   2.027  12.157   5.495  0.2145  0.4353 -0.4003
  151MOL0     C20271   1.991  12.075   5.372 -1.4333  0.1750  0.1501
  151MOL0     C20272   1.902  11.952   5.390  0.0894  0.3875 -0.9064
  151MOL0     C20273   1.750  11.991   5.407  0.3367 -0.1611 -0.8526
  151MOL0     O20274   1.686  11.959   5.280 -1.1232  0.2083  0.3568
  151MOL0     C20275   1.671  12.067   5.195  0.3772  0.1808  0.1315
  151MOL0     C20276   1.748  12.089   5.075  1.3168  1.1781 -0.1608
  151MOL0     C20277   1.721  12.201   5.004  0.2145  0.2841  0.2215
  151MOL0     C20278   1.631  12.306   5.041  0.8348  0.5182  0.1693
  151MOL0     C20279   1.607  12.424   4.952  0.3490  0.5067 -0.4333
  151MOL0     O20280   1.525  12.525   5.003  0.4379 -0.4608 -0.6740
  151MOL0     C20281   1.477  12.625   4.917  0.1030 -0.1345 -0.0872
  151MOL0     C20282   1.421  12.733   4.983  0.4501 -0.0460 -0.4040
  151MOL0     C20283   1.362  12.844   4.917 -0.7821 -0.5601 -1.4641
  151MOL0     C20284   1.379  12.854   4.777 -0.0794  0.2964  0.0609
  151MOL0     O20285   1.310  12.950   4.703 -0.2738  0.6192 -0.8084
  151MOL0     C20286   1.351  12.978   4.569 -0.2825  0.9047 -0.6591
  151MOL0     C20287   1.299  13.116   4.553 -1.0457  0.1929  0.4112
  151MOL0     C20288   1.377  13.215   4.640  0.4104  0.5996  0.2526
  151MOL0     C20289   1.343  13.356   4.585  0.5441  0.3174 -0.0089
  151MOL0     C20290   1.446  13.462   4.605  0.6809 -0.1140 -0.3987
  151MOL0     C20291   1.489  13.469   4.757 -0.2299  0.1870  1.0111
  151MOL0     C20292   1.560  13.606   4.772  0.6912 -0.0191 -1.3612
  151MOL0     C20293   1.579  13.611   4.928 -0.2955  0.5677  0.9554
  151MOL0    Cl20294   1.429  13.660   5.007 -0.0523 -0.6797 -0.0447
  151MOL0     C20295   1.439  12.741   4.716  0.4578 -1.1250 -0.4189
  151MOL0     C20296   1.482  12.630   4.779  0.0207  0.2906 -0.6232
  151MOL0     O20297   1.659  12.415   4.835  0.0493  0.4796  0.0394
  151MOL0     C20298   1.558  12.281   5.159  0.3914 -0.3719  0.9306
  151MOL0     C20299   1.579  12.168   5.234  0.4597 -0.4175  0.2589
  151MOL0     N20300   2.213  11.994   5.592  0.6628 -0.9107 -0.0716
  151MOL0     N20301   2.239  11.950   5.705 -0.3360 -0.2968 -0.1934
  151MOL0     C20302   1.501  11.043   6.123  0.4801  0.2625  1.1024
  151MOL0     C20303   1.419  10.939   6.171  0.4275 -0.6742  0.0489
  151MOL0     C20304   1.266  10.494   6.236 -0.0194 -0.7895  0.5491
  151MOL0     C20305   1.318  10.452   6.359  0.6355  0.4911  0.0303
  151MOL0     C20306   1.268  10.342   6.437  0.5787 -0.9945  1.0849
  151MOL0     C20307   1.164  10.272   6.377 -0.1879 -0.0706  0.3153
  151MOL0     O20308   1.109  10.163   6.438 -0.3105 -0.2947 -0.4018
  151MOL0     C20309   0.972  10.142   6.445  0.2744 -0.3844 -0.9400
  151MOL0     C20310   0.952   9.992   6.444  1.0370 -1.6115  0.5800
  151MOL0     C20311   0.976   9.935   6.587  0.0228 -0.5631  0.6775
  151MOL0     C20312   1.111   9.864   6.603 -0.4689  0.9443 -0.0261
  151MOL0     C20313   1.163   9.882   6.740  0.3086 -0.1297  0.5957
  151MOL0     C20314   1.209   9.890   6.852  0.3881 -1.0102 -0.2394
  151MOL0     C20315   1.119  10.307   6.250 -0.9554 -0.5977  0.0751
  151MOL0     C20316   1.162  10.417   6.181  0.0562 -0.2121  0.1943
  151MOL0     C20317   1.098  10.445   6.045 -0.3464  0.0155  1.0231
  151MOL0     H20318   1.622  10.669   6.115  1.9121  0.5147 -1.2761
  151MOL0     H20319   1.770  10.844   6.058  0.8270  1.5912  2.0213
  151MOL0     H20320   1.621  11.287   6.004  0.6829 -0.0008 -0.5034
  151MOL0     H20321   1.708  11.267   6.155  0.0089 -1.7301  0.6615
  151MOL0     H20322   1.851  11.293   5.880 -1.8418  0.1909  0.3519
  151MOL0     H20323   1.932  11.298   6.044  0.6824  3.0561  0.0831
  151MOL0     H20324   1.861  11.483   6.138 -1.1067  2.8408 -0.7103
  151MOL0     H20325   1.732  11.494   6.025 -0.0512  1.0524  2.4685
  151MOL0     H20326   2.007  11.522   5.930 -0.8594 -0.7608 -2.5020
  151MOL0     H20327   1.865  11.577   5.855  0.2001 -0.5759 -1.1326
  151MOL0     H20328   1.820  11.755   6.009  1.7010  1.9139  0.2291
  151MOL0     H20329   1.956  11.707   6.109  2.3090  3.4035 -1.0092
  151MOL0     H20330   2.116  11.738   5.940 -0.7200 -0.4603  1.2078
  151MOL0     H20331   1.997  11.788   5.814 -1.0360  0.3472  0.0629
  151MOL0     H20332   2.057  11.909   6.095  0.6046 -2.4882 -0.4015
  151MOL0     H20333   1.946  11.994   5.980  1.7733  1.8432 -0.7210
  151MOL0     H20334   2.189  12.087   5.978  0.9684  0.3132 -1.1850
  151MOL0     H20335   2.239  11.914   5.963 -0.5855  0.0942 -0.7951
  151MOL0     H20336   1.977  12.136   5.774  0.0583 -0.3609  1.0121
  151MOL0     H20337   1.935  12.187   5.547  0.4447 -0.9762  0.8845
  151MOL0     H20338   2.075  12.251   5.466 -2.4184  1.7850 -0.7627
  151MOL0     H20339   1.946  12.144   5.301 -1.1223 -2.3991 -2.7673
  151MOL0     H20340   2.091  12.039   5.344 -0.4579  0.0144  3.4344
  151MOL0     H20341   1.930  11.892   5.478 -3.2007 -0.6791 -0.4684
  151MOL0     H20342   1.912  11.885   5.304 -0.6068  1.0134 -1.4827
  151MOL0     H20343   1.743  12.096   5.436 -0.1520 -0.4268  0.0171
  151MOL0     H20344   1.692  11.941   5.485  2.1412  1.6388  1.8459
  151MOL0     H20345   1.832  12.022   5.059  0.3019  0.2817 -2.0130
  151MOL0     H20346   1.770  12.211   4.908  0.8867  3.3983  0.7681
  151MOL0     H20347   1.391  12.727   5.087 -1.4878  0.8378 -0.8556
  151MOL0     H20348   1.308  12.914   4.980  0.9610 -0.4523  0.0038
  151MOL0     H20349   1.460  12.970   4.565 -0.3031 -2.6067  1.4594
  151MOL0     H20350   1.312  12.907   4.496  1.0679 -0.9790  0.3684
  151MOL0     H20351   1.324  13.131   4.447  0.8598 -2.2624  0.4177
  151MOL0     H20352   1.190  13.122   4.563 -0.9270  1.4291  1.0240
  151MOL0     H20353   1.337  13.220   4.742 -0.3000 -0.9612  0.0864
  151MOL0     H20354   1.484  13.194   4.633  0.6100  0.4336  2.8916
  151MOL0     H20355   1.250  13.385   4.634 -0.8226 -2.8033 -0.5121
  151MOL0     H20356   1.330  13.361   4.476  1.9481 -0.4278 -0.2306
  151MOL0     H20357   1.392  13.553   4.577  3.1051  1.0306 -1.6559
  151MOL0     H20358   1.519  13.441   4.527 -0.9591 -0.0532 -2.0155
  151MOL0     H20359   1.395  13.479   4.812  0.1189  3.0654  1.2333
  151MOL0     H20360   1.532  13.374   4.790 -2.4186  0.1458  4.1717
  151MOL0     H20361   1.515  13.695   4.727  1.8300  1.2996  0.0280
  151MOL0     H20362   1.659  13.592   4.726  1.7593 -1.7732  1.2198
  151MOL0     H20363   1.612  13.521   4.981 -0.4953 -0.8093 -1.1015
  151MOL0     H20364   1.663  13.679   4.943  0.7486 -0.8433  1.7907
  151MOL0     H20365   1.442  12.748   4.608  2.5760  1.6298 -0.3032
  151MOL0     H20366   1.517  12.556   4.708 -0.6548 -2.4769  1.7424
  151MOL0     H20367   1.478  12.353   5.177  0.4985  0.1079 -0.3965
  151MOL0     H20368   1.526  12.155   5.328  0.0358  1.4164  0.3159
  151MOL0     H20369   1.461  11.143   6.110 -0.5254 -0.4954 -2.6601
  151MOL0     H20370   1.314  10.954   6.193  0.0834 -1.0767 -1.2697
  151MOL0     H20371   1.406  10.502   6.397  1.4243 -0.5447 -0.3681
  151MOL0     H20372   1.311  10.315   6.533  0.5715 -1.8742  0.8530
  151MOL0     H20373   0.922  10.185   6.358  0.9809  1.8780 -0.3227
  151MOL0     H20374   0.932  10.189   6.536  0.7317  0.3667 -1.1105
  151MOL0     H20375   1.015   9.947   6.367  0.0791  0.0942 -1.2912
  151MOL0     H20376   0.849   9.971   6.414  0.8645  2.2938 -2.3657
  151MOL0     H20377   0.895   9.861   6.592 -0.3808 -0.2620 -0.7770
  151MOL0     H20378   0.956   9.997   6.674  3.1768  2.2835 -0.3928
  151MOL0     H20379   1.101   9.757   6.584  2.1462  0.1758  2.3491
  151MOL0     H20380   1.177   9.910   6.529 -1.6016 -1.6725 -2.8701
  151MOL0     H20381   1.264   9.897   6.944  0.4628 -2.6329 -0.1338
  151MOL0     H20382   1.043  10.240   6.211 -1.5378 -1.0228  1.8575
  151MOL0     H20383   1.013  10.380   6.021 -1.2392  0.6874  2.2496
  151MOL0     H20384   1.056  10.546   6.045 -0.1100  0.1348 -0.2867
  151MOL0     H20385   1.174  10.434   5.967  0.7744  1.0008  1.9522
  152MOL0     O20386   4.895  10.414   2.673  0.8393 -0.2976 -0.4428
  152MOL0     C20387   4.868  10.460   2.566  0.9469  0.5834  1.3930
  152MOL0     O20388   4.818  10.588   2.541 -0.5639  0.5895  0.6697
  152MOL0     C20389   4.804  10.692   2.627  0.4786 -0.9236  0.7665
  152MOL0     C20390   4.851  10.690   2.756 -0.0001 -0.0679 -0.4443
  152MOL0     C20391   4.810  10.785   2.850  0.6906 -0.4337  0.4021
  152MOL0     C20392   4.744  10.904   2.808 -0.6096 -0.1036 -0.8230
  152MOL0     O20393   4.694  10.996   2.896 -0.4804 -0.0146 -0.0425
  152MOL0     C20394   4.691  10.958   3.030 -0.5876 -0.2748  0.1920
  152MOL0     C20395   4.613  11.043   3.127 -0.7925  0.4717  0.1702
  152MOL0     C20396   4.675  11.184   3.138 -0.2310  0.2783  0.3056
  152MOL0     C20397   4.793  11.191   3.233 -1.0420 -0.3803  0.3735
  152MOL0     C20398   4.845  11.336   3.223  0.2432 -0.1705 -0.1277
  152MOL0     C20399   4.965  11.342   3.325 -0.0534  1.1220 -0.1412
  152MOL0     C20400   5.099  11.291   3.260 -0.5367  0.4225  0.2010
  152MOL0     C20401   5.209  11.286   3.355 -0.8736 -0.8127 -0.0683
  152MOL0     N20402   5.244  11.410   3.412  0.0851  0.0905 -0.4329
  152MOL0     C20403   5.288  11.527   3.348  1.2509 -0.4246  0.7139
  152MOL0     C20404   5.284  11.625   3.441  0.1239 -0.7720  0.6950
  152MOL0     C20405   5.320  11.772   3.415 -0.3574  1.6314  0.2055
  152MOL0     C20406   5.472  11.782   3.381 -0.3391 -0.2670  0.1905
  152MOL0     C20407   5.474  11.909   3.299  1.2851 -0.2761 -0.3854
  152MOL0     C20408   5.609  11.969   3.283  0.0697  1.4001  0.7681
  152MOL0     O20409   5.701  11.884   3.209  0.5384  0.3453 -0.5892
  152MOL0     C20410   5.823  11.931   3.177  0.4246 -0.0555  0.5098
  152MOL0     C20411   5.877  12.049   3.228 -0.4553  0.9715  0.0550
  152MOL0     C20412   6.012  12.083   3.191 -0.0316  0.0283 -0.2030
  152MOL0     C20413   6.086  12.013   3.089  0.0929 -0.0649 -0.2140
  152MOL0     C20414   6.214  12.064   3.035 -0.0539  0.1387 -0.1940
  152MOL0     O20415   6.251  12.021   2.912  0.2151 -0.3885  0.4224
  152MOL0     C20416   6.375  12.063   2.878 -0.7714 -0.4704  0.3978
  152MOL0     C20417   6.379  12.177   2.804 -0.3403 -0.1271 -0.3805
  152MOL0     C20418   6.501  12.240   2.765 -0.3754  0.0522  0.0203
  152MOL0     C20419   6.620  12.187   2.821  0.8066 -0.1937  0.3478
  152MOL0     O20420   6.732  12.252   2.795 -0.2489  0.1013 -0.2132
  152MOL0     C20421   6.864  12.190   2.795  0.9358 -0.8537  0.4888
  152MOL0     C20422   6.960  12.291   2.736 -0.9110 -0.2028  0.1751
  152MOL0     C20423   6.955  12.302   2.588 -0.4367 -0.9328  0.7196
  152MOL0     C20424   7.039  12.428   2.551  0.4835 -0.4656 -0.1154
  152MOL0     C20425   7.072  12.435   2.405  0.4524 -0.3199  0.5016
  152MOL0     C20426   6.961  12.422   2.301  0.0021  0.0498 -0.2507
  152MOL0     C20427   6.864  12.534   2.288  0.5696 -0.7004  0.0342
  152MOL0     C20428   6.909  12.668   2.238  0.3391  0.6724  0.0928
  152MOL0    Cl20429   6.906  12.658   2.055  0.0519 -0.0226 -0.0311
  152MOL0     C20430   6.617  12.071   2.901 -0.4071  0.3298  0.7011
  152MOL0     C20431   6.493  12.013   2.930 -0.9052  0.3782 -0.2725
  152MOL0     O20432   6.286  12.131   3.114  0.5845  0.7390 -0.1497
  152MOL0     C20433   6.025  11.901   3.041  0.8034 -0.7061  0.0489
  152MOL0     C20434   5.903  11.848   3.093  0.2865  0.5730  0.3372
  152MOL0     N20435   5.258  11.569   3.559 -0.0675  0.4162  0.4734
  152MOL0     N20436   5.209  11.444   3.542 -0.5241 -0.8617 -0.9133
  152MOL0     C20437   4.724  10.918   2.669  0.2349  0.8729  0.1717
  152MOL0     C20438   4.762  10.813   2.587  0.7154  0.0720 -0.1752
  152MOL0     C20439   4.909  10.367   2.448 -0.2668  0.0593  0.4235
  152MOL0     C20440   4.969  10.244   2.476  0.4329 -0.0361  0.0743
  152MOL0     C20441   5.000  10.157   2.373 -0.6996  0.0460 -0.2795
  152MOL0     C20442   4.992  10.189   2.240  0.2807  0.8130  0.5769
  152MOL0     O20443   4.992  10.069   2.155  0.0578 -0.5386  0.1789
  152MOL0     C20444   4.920  10.082   2.026 -0.1179  0.4347 -0.7836
  152MOL0     C20445   4.980   9.991   1.913  0.6835 -0.0602  0.1446
  152MOL0     C20446   4.976   9.843   1.949  0.6456  0.0491  0.1354
  152MOL0     C20447   4.848   9.797   2.008  0.4970 -0.2425 -0.5048
  152MOL0     C20448   4.724   9.805   1.929  1.0160  0.1685 -0.0530
  152MOL0     C20449   4.615   9.807   1.880  0.5526 -1.0435 -0.4831
  152MOL0     C20450   4.916  10.309   2.211 -0.3127  0.0319  0.2797
  152MOL0     C20451   4.873  10.391   2.314 -0.5022 -0.0624  1.1965
  152MOL0     C20452   4.775  10.503   2.279  0.5782  0.8922  0.7098
  152MOL0     H20453   4.931  10.628   2.795  2.2081  2.1319 -1.2281
  152MOL0     H20454   4.867  10.782   2.942  3.2678  0.9231 -1.0124
  152MOL0     H20455   4.645  10.859   3.035 -2.8362  0.6948 -0.1059
  152MOL0     H20456   4.794  10.962   3.067  0.4211 -0.6256 -2.3417
  152MOL0     H20457   4.626  11.006   3.229 -1.7953  0.3899  0.2810
  152MOL0     H20458   4.506  11.033   3.105 -0.8728  2.2012 -0.3449
  152MOL0     H20459   4.601  11.259   3.170  1.2552  1.1201  1.8990
  152MOL0     H20460   4.709  11.219   3.040 -0.3327  1.9453  0.8324
  152MOL0     H20461   4.771  11.163   3.336  1.5136  1.0129  1.3733
  152MOL0     H20462   4.872  11.127   3.192 -2.4851 -1.4001 -0.9688
  152MOL0     H20463   4.867  11.373   3.123 -2.7639  0.7780 -0.5371
  152MOL0     H20464   4.769  11.398   3.271  2.4178  0.4629  2.7906
  152MOL0     H20465   4.980  11.447   3.351 -1.3963  2.1877 -3.1778
  152MOL0     H20466   4.934  11.287   3.414 -1.5448  1.4787 -0.4152
  152MOL0     H20467   5.128  11.356   3.177  1.9013 -1.7864 -0.8412
  152MOL0     H20468   5.098  11.194   3.209  0.0322  0.1090  0.7656
  152MOL0     H20469   5.178  11.225   3.440  0.0328 -2.8019 -1.0858
  152MOL0     H20470   5.294  11.226   3.322  1.9801  1.4757  2.5820
  152MOL0     H20471   5.310  11.547   3.244 -0.2896  0.8667  0.6132
  152MOL0     H20472   5.257  11.825   3.343 -1.0463 -0.9697 -1.2203
  152MOL0     H20473   5.302  11.822   3.511 -1.3824  0.2001  0.8102
  152MOL0     H20474   5.525  11.782   3.477 -3.4428  0.8876  2.0509
  152MOL0     H20475   5.511  11.701   3.319 -2.2408  0.7583 -2.5251
  152MOL0     H20476   5.415  11.981   3.356  1.1577 -1.4048  0.9557
  152MOL0     H20477   5.433  11.890   3.199 -0.5023 -3.1437  0.7488
  152MOL0     H20478   5.657  11.983   3.380  5.3819  0.3659 -1.3419
  152MOL0     H20479   5.602  12.063   3.228 -1.6713 -0.4515 -2.4561
  152MOL0     H20480   5.835  12.116   3.301  1.5503  0.8621  1.3765
  152MOL0     H20481   6.057  12.170   3.238 -0.3547 -1.2351  2.6704
  152MOL0     H20482   6.284  12.210   2.763  1.0808 -0.0938 -4.0216
  152MOL0     H20483   6.502  12.332   2.707  0.1553  0.6026  0.8884
  152MOL0     H20484   6.896  12.163   2.897 -1.8178 -0.2794  1.5937
  152MOL0     H20485   6.860  12.093   2.745 -1.8915 -0.8294  0.5003
  152MOL0     H20486   6.950  12.394   2.770  1.3880  0.1372  0.0084
  152MOL0     H20487   7.065  12.261   2.748  0.6460  2.5478 -4.0801
  152MOL0     H20488   7.015  12.220   2.548  0.1312  0.2503 -0.9629
  152MOL0     H20489   6.851  12.294   2.558 -0.1808 -1.3090 -0.0940
  152MOL0     H20490   7.124  12.439   2.618  0.0279  2.0926  0.1323
  152MOL0     H20491   6.972  12.513   2.568 -1.6943 -2.1366  0.2120
  152MOL0     H20492   7.134  12.349   2.379  0.3028 -0.1217 -0.5721
  152MOL0     H20493   7.136  12.522   2.386 -1.7932  1.3079  0.0081
  152MOL0     H20494   7.010  12.401   2.205 -1.8125 -0.2502 -1.1436
  152MOL0     H20495   6.904  12.332   2.327  1.5113 -0.4516  1.5821
  152MOL0     H20496   6.833  12.540   2.393  1.3779 -0.6654  0.2744
  152MOL0     H20497   6.778  12.499   2.231 -0.0157 -0.2372  0.6070
  152MOL0     H20498   6.833  12.742   2.265  2.4621  2.9006  0.3778
  152MOL0     H20499   7.006  12.699   2.279 -1.5360  3.8040  2.6342
  152MOL0     H20500   6.716  12.042   2.935  0.3757 -1.0362 -2.3481
  152MOL0     H20501   6.472  11.929   2.996  0.5408  1.7062  2.0148
  152MOL0     H20502   6.055  11.862   2.945 -1.1903 -1.0504 -0.4832
  152MOL0     H20503   5.859  11.755   3.059 -0.4456  0.6056  1.1679
  152MOL0     H20504   4.667  10.999   2.626  2.1453 -0.3801 -5.7308
  152MOL0     H20505   4.725  10.836   2.487  1.2725 -0.0717 -0.4170
  152MOL0     H20506   4.989  10.222   2.580  1.4234  2.4136  0.4712
  152MOL0     H20507   5.017  10.052   2.397  1.0660 -0.1262 -2.0640
  152MOL0     H20508   4.918  10.188   1.997  1.2737  1.2785  1.8584
  152MOL0     H20509   4.818  10.056   2.056  0.2460 -1.7261 -1.2604
  152MOL0     H20510   5.084  10.025   1.908  1.0652 -0.6601  2.7181
  152MOL0     H20511   4.939  10.016   1.815 -2.7039  0.1009  1.4675
  152MOL0     H20512   5.054   9.831   2.025  0.1273  0.1821  0.7057
  152MOL0     H20513   5.008   9.787   1.861  0.8296 -1.0582  0.8919
  152MOL0     H20514   4.860   9.695   2.047  2.2890  0.0276 -0.2634
  152MOL0     H20515   4.823   9.847   2.102  1.6979  0.0287 -0.3078
  152MOL0     H20516   4.513   9.802   1.846  0.4438  0.5808 -0.4665
  152MOL0     H20517   4.890  10.339   2.110 -1.7821 -0.7066  0.4201
  152MOL0     H20518   4.726  10.491   2.182 -1.9814  2.5183  1.6982
  152MOL0     H20519   4.686  10.496   2.343 -0.3666 -1.2388 -0.7267
  152MOL0     H20520   4.819  10.602   2.263 -1.5093  1.8161  0.3419
  153MOL0     O20521   0.222   4.880   2.579 -0.3156 -0.4832  0.2559
  153MOL0     C20522   0.133   4.957   2.548 -0.2071 -0.1050 -0.3470
  153MOL0     O20523   0.097   4.978   2.418  0.0789 -0.0611 -0.3032
  153MOL0     C20524   0.156   4.908   2.315  0.2462  0.4931  0.0412
  153MOL0     C20525   0.082   4.806   2.255 -0.1999  0.4153  0.0362
  153MOL0     C20526   0.138   4.719   2.168  0.7203 -0.0490 -0.5188
  153MOL0     C20527   0.265   4.742   2.122 -0.3853 -0.0456 -0.5000
  153MOL0     O20528   0.329   4.687   2.015  0.9907  0.4500  0.7071
  153MOL0     C20529   0.309   4.541   1.995 -0.0144 -0.4185  0.0893
  153MOL0     C20530   0.439   4.486   1.944 -0.2976  0.2730  0.3149
  153MOL0     C20531   0.429   4.334   1.976  0.4974 -0.2371  0.2767
  153MOL0     C20532   0.323   4.246   1.901 -0.0960 -0.0993  0.6343
  153MOL0     C20533   0.185   4.229   1.954 -0.3445 -0.7429  0.2316
  153MOL0     C20534   0.115   4.112   1.914 -0.4199  0.4051 -0.4752
  153MOL0     C20535  -0.024   4.103   1.972 -0.2736 -0.0158 -0.9309
  153MOL0     C20536  -0.103   3.977   1.928  0.1793 -0.2748 -0.0434
  153MOL0     N20537  -0.210   3.922   2.015  0.0628  0.2514 -0.8000
  153MOL0     C20538  -0.267   3.988   2.121 -0.0266 -1.4522  0.0769
  153MOL0     C20539  -0.354   3.895   2.160  0.2469  0.1702  0.1411
  153MOL0     C20540  -0.431   3.906   2.283 -0.5082  0.1178 -0.1183
  153MOL0     C20541  -0.552   3.984   2.267  0.3350 -0.4002 -0.1235
  153MOL0     C20542  -0.633   3.941   2.146 -0.5992 -0.8111 -0.0526
  153MOL0     C20543  -0.767   4.012   2.149 -0.3011  0.2887 -0.2246
  153MOL0     O20544  -0.746   4.147   2.123 -0.5046 -0.0302 -0.1390
  153MOL0     C20545  -0.851   4.230   2.137 -0.5904 -0.5072 -0.4351
  153MOL0     C20546  -0.980   4.185   2.157  0.1749  0.0304  0.2060
  153MOL0     C20547  -1.083   4.281   2.140  0.5080  0.4767 -0.6804
  153MOL0     C20548  -1.063   4.422   2.131  0.9267 -0.0345  1.4961
  153MOL0     C20549  -1.172   4.528   2.127  0.3195  0.6628  0.2138
  153MOL0     O20550  -1.294   4.491   2.074 -0.7243  0.5615  0.5686
  153MOL0     C20551  -1.392   4.586   2.062 -0.1520  0.7256  0.2035
  153MOL0     C20552  -1.379   4.680   1.958  0.6193 -0.3230  0.9012
  153MOL0     C20553  -1.479   4.766   1.920  0.1537 -0.4571  0.0963
  153MOL0     C20554  -1.588   4.760   2.012  0.4844 -0.6060 -0.5790
  153MOL0     O20555  -1.702   4.846   2.019 -0.1849 -0.2634  0.3253
  153MOL0     C20556  -1.716   4.937   1.906 -0.2366  0.1744  0.0268
  153MOL0     C20557  -1.822   5.042   1.942 -0.3444 -0.0230  0.5206
  153MOL0     C20558  -1.825   5.165   1.841 -0.3981  0.1242 -0.4400
  153MOL0     C20559  -1.904   5.138   1.715  1.4357 -0.6836 -0.3666
  153MOL0     C20560  -1.915   5.257   1.622  0.8312 -0.1185 -0.0129
  153MOL0     C20561  -1.989   5.213   1.488  0.0786  0.1642 -0.2652
  153MOL0     C20562  -1.989   5.322   1.382 -0.1179  0.4054 -0.4039
  153MOL0     C20563  -2.036   5.249   1.260  1.6212  0.8465  1.1689
  153MOL0    Cl20564  -2.059   5.369   1.132  0.1244  0.1664 -0.1077
  153MOL0     C20565  -1.602   4.669   2.115  1.1997 -1.4734 -0.0376
  153MOL0     C20566  -1.502   4.584   2.139  0.7949 -0.3912  0.2527
  153MOL0     O20567  -1.140   4.635   2.174  0.5004  0.8245  0.2137
  153MOL0     C20568  -0.923   4.466   2.113  0.1150 -0.5113 -0.2314
  153MOL0     C20569  -0.816   4.371   2.116 -0.4974  1.4868  0.3283
  153MOL0     N20570  -0.359   3.781   2.080 -0.3213 -0.2424 -0.1891
  153MOL0     N20571  -0.260   3.797   1.996  0.1141 -0.2207 -0.6384
  153MOL0     C20572   0.342   4.844   2.186  0.6860 -0.6676  0.4968
  153MOL0     C20573   0.292   4.927   2.282 -0.6537 -1.3858 -0.0873
  153MOL0     C20574   0.060   5.038   2.650 -0.0936 -0.1764  0.0607
  153MOL0     C20575  -0.022   5.152   2.610 -0.4651 -0.6858  0.5754
  153MOL0     C20576  -0.084   5.242   2.705  1.0075  0.4832 -0.1849
  153MOL0     C20577  -0.093   5.210   2.837  0.3066 -0.3662  0.2182
  153MOL0     O20578  -0.179   5.277   2.923  0.0127 -0.2770  0.4544
  153MOL0     C20579  -0.204   5.238   3.060  0.3837 -0.7911  0.0170
  153MOL0     C20580  -0.094   5.291   3.156  0.4407  0.4143  0.1738
  153MOL0     C20581  -0.086   5.439   3.135 -0.3377 -0.7905 -0.8427
  153MOL0     C20582  -0.044   5.511   3.266  0.4688 -0.4303 -0.8101
  153MOL0     C20583  -0.041   5.663   3.244 -0.7784  0.5019 -0.4189
  153MOL0     C20584  -0.035   5.781   3.245  0.2235 -0.2220 -1.1943
  153MOL0     C20585  -0.009   5.102   2.876  0.9609 -0.8805  0.4776
  153MOL0     C20586   0.072   5.024   2.789  0.5010  0.6900 -0.4377
  153MOL0     C20587   0.148   4.915   2.859  0.4551 -0.0321 -0.1153
  153MOL0     H20588  -0.021   4.796   2.286 -0.4142 -3.4892 -1.3401
  153MOL0     H20589   0.061   4.644   2.154 -0.1198 -0.5733  4.8600
  153MOL0     H20590   0.278   4.500   2.092 -0.8613  1.0271  0.4605
  153MOL0     H20591   0.219   4.524   1.935  0.2033 -2.4713  0.2714
  153MOL0     H20592   0.517   4.524   2.011 -0.9163  1.2809  0.4871
  153MOL0     H20593   0.471   4.512   1.842  3.5720  1.9564  1.7691
  153MOL0     H20594   0.416   4.317   2.083  2.4805  2.3420  1.0335
  153MOL0     H20595   0.531   4.299   1.962 -0.0570 -2.4635  1.4131
  153MOL0     H20596   0.315   4.280   1.797  1.2419 -2.6939 -0.3904
  153MOL0     H20597   0.370   4.148   1.906  2.9707  1.3187  2.0581
  153MOL0     H20598   0.183   4.248   2.062 -0.1438 -1.4176  0.3578
  153MOL0     H20599   0.135   4.318   1.916  3.0044  1.1268 -0.2414
  153MOL0     H20600   0.104   4.105   1.805  1.9065 -2.9246 -0.6484
  153MOL0     H20601   0.174   4.030   1.956 -1.8239  0.2973  1.3996
  153MOL0     H20602  -0.074   4.188   1.925 -1.7381 -0.8140 -0.8790
  153MOL0     H20603  -0.016   4.123   2.079  1.9591  2.3111 -1.4567
  153MOL0     H20604  -0.149   4.003   1.833 -0.7490 -1.3323  0.0949
  153MOL0     H20605  -0.029   3.898   1.910 -0.8012 -1.2822  0.2247
  153MOL0     H20606  -0.254   4.090   2.157 -1.2572 -1.8846  1.8455
  153MOL0     H20607  -0.460   3.804   2.311 -1.2139  0.1489 -0.7032
  153MOL0     H20608  -0.364   3.951   2.357  2.2155 -1.3057 -1.5434
  153MOL0     H20609  -0.603   3.974   2.363 -0.6576 -1.2256 -0.7061
  153MOL0     H20610  -0.527   4.089   2.251  2.0575 -1.0561 -2.1352
  153MOL0     H20611  -0.645   3.834   2.160 -1.3552 -0.9301 -1.4946
  153MOL0     H20612  -0.579   3.961   2.053  0.3931 -0.1102  0.6418
  153MOL0     H20613  -0.817   3.992   2.244 -1.2024 -0.7806 -0.8932
  153MOL0     H20614  -0.831   3.966   2.073 -1.8220  0.7860  0.7137
  153MOL0     H20615  -1.012   4.082   2.157 -0.4222  0.1828  2.2495
  153MOL0     H20616  -1.187   4.252   2.146 -0.3721  3.6041  1.2468
  153MOL0     H20617  -1.282   4.698   1.912 -0.3328  1.8259 -0.3940
  153MOL0     H20618  -1.469   4.849   1.852 -0.6305  0.5446  1.1792
  153MOL0     H20619  -1.621   4.988   1.891 -0.7516  0.8002 -1.2856
  153MOL0     H20620  -1.733   4.882   1.813  1.4835 -3.2280  1.5595
  153MOL0     H20621  -1.914   4.983   1.941  0.9338 -2.1132  0.5702
  153MOL0     H20622  -1.787   5.079   2.039  3.1110 -0.5374 -0.3832
  153MOL0     H20623  -1.882   5.245   1.889 -0.2554  0.7539 -1.2914
  153MOL0     H20624  -1.723   5.204   1.845 -0.0475 -0.8436  2.5484
  153MOL0     H20625  -2.007   5.119   1.744  1.0170 -3.0219 -2.9619
  153MOL0     H20626  -1.854   5.057   1.661 -0.8188 -2.2261 -0.2444
  153MOL0     H20627  -1.810   5.274   1.596  1.1583 -2.8397 -0.8195
  153MOL0     H20628  -1.961   5.340   1.676  2.3985  0.4373  0.5287
  153MOL0     H20629  -1.930   5.129   1.451  2.7327  2.3556 -1.3198
  153MOL0     H20630  -2.094   5.184   1.502 -0.0173  0.2155 -0.8175
  153MOL0     H20631  -1.893   5.371   1.364 -0.5752  0.8236 -1.8830
  153MOL0     H20632  -2.064   5.400   1.402  0.4739  1.6395 -2.5813
  153MOL0     H20633  -1.971   5.165   1.234  2.3477  1.6415  0.3466
  153MOL0     H20634  -2.137   5.210   1.275 -0.4775  4.5687 -1.5957
  153MOL0     H20635  -1.690   4.681   2.177  0.2466  0.2188 -1.6135
  153MOL0     H20636  -1.524   4.515   2.220 -2.5910  0.1779  0.0037
  153MOL0     H20637  -0.903   4.572   2.122 -0.5473 -0.3980  0.0479
  153MOL0     H20638  -0.712   4.400   2.117 -0.8016  2.7919 -1.1005
  153MOL0     H20639   0.447   4.855   2.162  0.2883  1.3156 -0.5249
  153MOL0     H20640   0.353   4.996   2.340 -0.6863 -1.7274  0.3513
  153MOL0     H20641  -0.034   5.164   2.503 -2.7088 -1.9623  0.6071
  153MOL0     H20642  -0.139   5.324   2.660  3.4582  2.5712  0.4200
  153MOL0     H20643  -0.217   5.130   3.070 -1.6348 -0.5099  1.0885
  153MOL0     H20644  -0.303   5.270   3.093 -1.7939 -4.0385 -2.6920
  153MOL0     H20645   0.006   5.250   3.137  0.4543  0.1801  0.7312
  153MOL0     H20646  -0.123   5.278   3.261 -0.7831  0.3647 -0.1562
  153MOL0     H20647  -0.182   5.484   3.107  0.1684  0.3638 -0.7694
  153MOL0     H20648  -0.010   5.452   3.058 -0.0087 -1.2490 -0.5998
  153MOL0     H20649  -0.118   5.486   3.342  0.6274  0.4124 -0.3666
  153MOL0     H20650   0.055   5.475   3.293  0.9111  1.2586 -0.0233
  153MOL0     H20651  -0.030   5.887   3.259  0.3704 -0.4497  0.6888
  153MOL0     H20652  -0.002   5.077   2.981 -0.3975 -1.8527  0.3709
  153MOL0     H20653   0.134   4.917   2.967  1.2307 -0.2135 -0.0049
  153MOL0     H20654   0.124   4.815   2.823  2.4135 -0.9167  0.8553
  153MOL0     H20655   0.256   4.933   2.850  0.3848  1.8162  1.9250
  154MOL0     O20656   8.405   2.955   7.446 -0.3533  0.3422 -0.2737
  154MOL0     C20657   8.495   3.033   7.462  0.2255 -1.0574  0.4016
  154MOL0     O20658   8.483   3.167   7.469 -0.3332 -0.3972  0.6719
  154MOL0     C20659   8.363   3.218   7.512  0.0508  0.9244  0.6651
  154MOL0     C20660   8.289   3.306   7.438 -0.1812 -0.4538  0.2559
  154MOL0     C20661   8.168   3.362   7.471  0.1876  0.4921 -0.4635
  154MOL0     C20662   8.122   3.328   7.604 -0.1021 -0.7091  0.6873
  154MOL0     O20663   8.000   3.361   7.659 -0.5142 -0.0016 -0.2323
  154MOL0     C20664   7.899   3.412   7.572  0.7528  0.0096 -0.3554
  154MOL0     C20665   7.764   3.419   7.656 -0.0737  0.4201  0.2567
  154MOL0     C20666   7.654   3.474   7.571 -0.0758 -0.7044  1.1598
  154MOL0     C20667   7.532   3.515   7.655  0.6022  0.5777  0.8287
  154MOL0     C20668   7.411   3.577   7.572 -0.7619 -0.1923 -0.1155
  154MOL0     C20669   7.448   3.698   7.486  0.5781  0.8410 -0.1152
  154MOL0     C20670   7.410   3.831   7.553 -0.8249  0.5364 -0.5872
  154MOL0     C20671   7.511   3.883   7.648  0.0913  0.8962 -0.0938
  154MOL0     N20672   7.648   3.883   7.597 -0.1172 -0.0481  0.3840
  154MOL0     C20673   7.768   3.816   7.632 -0.2756 -0.2065 -0.0449
  154MOL0     C20674   7.867   3.901   7.577 -0.1769  0.2269 -0.5436
  154MOL0     C20675   8.015   3.866   7.578 -0.4889 -1.1008  0.7310
  154MOL0     C20676   8.091   3.914   7.706 -0.4074 -0.2927 -0.7829
  154MOL0     C20677   8.239   3.872   7.706 -0.2299  0.7312 -0.7561
  154MOL0     C20678   8.301   3.870   7.843 -0.5771  0.5027  0.3080
  154MOL0     O20679   8.313   4.004   7.881 -0.2284 -0.2042 -0.0825
  154MOL0     C20680   8.216   4.075   7.950 -0.7541  1.1523 -0.1965
  154MOL0     C20681   8.102   4.024   8.010  0.3988  0.7081  0.4221
  154MOL0     C20682   8.018   4.111   8.077 -0.7211  0.0425  0.1790
  154MOL0     C20683   8.039   4.255   8.078 -0.3846  0.2775 -0.0873
  154MOL0     C20684   7.951   4.343   8.150  0.0526 -0.0509 -0.5319
  154MOL0     O20685   7.858   4.274   8.211  0.5103  0.8571  0.1058
  154MOL0     C20686   7.754   4.352   8.268 -0.0807  0.7480 -0.6259
  154MOL0     C20687   7.753   4.413   8.394 -0.4466 -0.9340 -0.5449
  154MOL0     C20688   7.649   4.496   8.444 -0.4036 -1.3286  0.2892
  154MOL0     C20689   7.539   4.512   8.365  1.1432 -0.0215 -0.8138
  154MOL0     O20690   7.418   4.581   8.397  0.5073  0.3308  0.5252
  154MOL0     C20691   7.378   4.579   8.536  0.4069  0.0397 -0.0680
  154MOL0     C20692   7.246   4.655   8.532 -0.0469 -0.7088  0.7442
  154MOL0     C20693   7.136   4.577   8.459  0.4240  0.0457  0.1792
  154MOL0     C20694   7.009   4.672   8.443 -0.8756  0.3433  0.7689
  154MOL0     C20695   6.903   4.643   8.547 -0.1487  0.1850 -0.6297
  154MOL0     C20696   6.779   4.721   8.529 -0.1047  0.0848 -0.2985
  154MOL0     C20697   6.677   4.682   8.630  0.6655 -0.1182 -0.4983
  154MOL0     C20698   6.523   4.717   8.592 -0.1037 -0.5103 -0.1072
  154MOL0    Cl20699   6.416   4.666   8.732  0.4713 -0.3452  0.1571
  154MOL0     C20700   7.532   4.443   8.248 -0.1859  0.0018  0.2215
  154MOL0     C20701   7.635   4.370   8.198  0.1216  0.1125  0.1765
  154MOL0     O20702   7.970   4.466   8.149 -0.7328 -0.3947 -0.3583
  154MOL0     C20703   8.151   4.304   8.013 -0.3196  0.0342 -1.3767
  154MOL0     C20704   8.236   4.212   7.960 -0.0916 -0.4965  1.0747
  154MOL0     N20705   7.806   4.003   7.505  0.0531 -0.5151  0.4417
  154MOL0     N20706   7.683   3.989   7.516  0.5366  0.2441 -0.4205
  154MOL0     C20707   8.202   3.250   7.684 -0.5082 -0.2417  0.7100
  154MOL0     C20708   8.319   3.192   7.645  0.1965  0.4688  1.6063
  154MOL0     C20709   8.625   2.964   7.481 -0.2889 -0.1349 -0.1882
  154MOL0     C20710   8.707   3.029   7.570 -0.0760 -0.3060  0.1614
  154MOL0     C20711   8.835   2.977   7.609 -0.0785 -0.0702  1.0559
  154MOL0     C20712   8.880   2.859   7.549 -0.9243  0.2843  0.5789
  154MOL0     O20713   9.002   2.810   7.584  0.7150 -0.4882 -0.6869
  154MOL0     C20714   9.025   2.672   7.572  0.5777 -0.5965  0.7362
  154MOL0     C20715   9.156   2.642   7.650 -0.5896 -0.3200 -0.4556
  154MOL0     C20716   9.289   2.628   7.572 -0.1632 -0.2668 -0.1497
  154MOL0     C20717   9.407   2.660   7.671  0.9148 -0.5218  0.2108
  154MOL0     C20718   9.536   2.699   7.615 -0.2471 -0.5026 -0.4460
  154MOL0     C20719   9.634   2.726   7.550 -0.1920 -0.5799  0.5061
  154MOL0     C20720   8.801   2.798   7.454 -0.6118  0.7633 -1.0438
  154MOL0     C20721   8.678   2.851   7.416 -0.3562 -0.7145  0.0827
  154MOL0     C20722   8.602   2.779   7.310  0.1954 -0.4758 -0.1771
  154MOL0     H20723   8.332   3.333   7.342  0.6165  0.0769  0.7576
  154MOL0     H20724   8.101   3.411   7.401 -1.2376 -2.2480 -1.1829
  154MOL0     H20725   7.926   3.516   7.551 -1.5752  1.1645  1.7853
  154MOL0     H20726   7.879   3.354   7.482  1.3131 -0.2497 -0.3195
  154MOL0     H20727   7.776   3.482   7.745 -0.1905  1.5661 -0.5173
  154MOL0     H20728   7.740   3.317   7.686 -0.6620 -0.5182 -3.0205
  154MOL0     H20729   7.616   3.417   7.486 -3.1051  1.2679  1.0540
  154MOL0     H20730   7.678   3.575   7.538 -0.9490 -0.6224  0.7388
  154MOL0     H20731   7.493   3.424   7.700 -1.5099  0.7538 -0.4946
  154MOL0     H20732   7.559   3.589   7.730  1.8101  0.3560  0.6278
  154MOL0     H20733   7.362   3.503   7.509  0.2362 -0.9691 -0.0149
  154MOL0     H20734   7.335   3.604   7.645 -1.7349  1.1457 -1.5563
  154MOL0     H20735   7.550   3.695   7.447  1.9515  3.0145  2.8843
  154MOL0     H20736   7.384   3.709   7.398  0.3894  1.7584  0.1232
  154MOL0     H20737   7.312   3.815   7.597 -0.6089 -0.3246 -0.4063
  154MOL0     H20738   7.396   3.905   7.473 -0.1266  1.7640  0.3810
  154MOL0     H20739   7.476   3.984   7.673 -0.8830  1.2524 -2.5593
  154MOL0     H20740   7.494   3.823   7.737 -1.0571 -1.4510 -1.7893
  154MOL0     H20741   7.781   3.728   7.694 -2.0368  0.9408  2.0765
  154MOL0     H20742   8.019   3.758   7.562 -2.8465 -1.1718  0.4028
  154MOL0     H20743   8.050   3.911   7.484 -4.7427  1.6165  0.1879
  154MOL0     H20744   8.079   4.021   7.726 -0.1778 -0.2904 -0.6565
  154MOL0     H20745   8.057   3.858   7.793  5.6068  0.3643  2.5385
  154MOL0     H20746   8.294   3.938   7.639 -0.0379  3.0929  1.5939
  154MOL0     H20747   8.260   3.769   7.675  1.5911  0.7134  0.3685
  154MOL0     H20748   8.398   3.821   7.838 -0.9586 -0.3869  1.1295
  154MOL0     H20749   8.234   3.817   7.913 -1.0351  3.2837  2.1435
  154MOL0     H20750   8.065   3.922   8.017 -1.3219  1.2838  0.2780
  154MOL0     H20751   7.923   4.065   8.103  0.2736 -2.8189 -0.8362
  154MOL0     H20752   7.843   4.419   8.455 -1.4020 -1.1914  0.9379
  154MOL0     H20753   7.662   4.548   8.538  0.9821 -0.8471 -0.1407
  154MOL0     H20754   7.362   4.473   8.559 -0.8314 -0.0027 -0.9840
  154MOL0     H20755   7.453   4.623   8.601  2.8544  1.7093 -3.6813
  154MOL0     H20756   7.211   4.683   8.632  1.8284  0.6475  1.0593
  154MOL0     H20757   7.260   4.752   8.484  2.4131 -1.9545 -1.2453
  154MOL0     H20758   7.178   4.537   8.366 -0.2513 -1.0502  0.3192
  154MOL0     H20759   7.115   4.487   8.519  0.2632 -0.8172 -1.1363
  154MOL0     H20760   6.970   4.658   8.341 -3.7906  1.9323  1.5329
  154MOL0     H20761   7.029   4.779   8.438  4.7475 -0.0551  5.2845
  154MOL0     H20762   6.946   4.656   8.647 -2.0074 -0.1002  0.2408
  154MOL0     H20763   6.873   4.540   8.528 -0.7960  0.2725 -0.1304
  154MOL0     H20764   6.799   4.828   8.546 -0.4830  0.3443 -1.4098
  154MOL0     H20765   6.733   4.715   8.430  0.5288 -1.4294 -0.5360
  154MOL0     H20766   6.683   4.733   8.726  0.1498 -0.2176 -0.4063
  154MOL0     H20767   6.676   4.573   8.638 -0.0647 -0.1124 -0.4411
  154MOL0     H20768   6.506   4.825   8.581 -3.8288 -0.8603  0.7110
  154MOL0     H20769   6.488   4.680   8.495  1.1856  0.9104 -1.1596
  154MOL0     H20770   7.444   4.443   8.185  1.9584  2.7272 -3.0923
  154MOL0     H20771   7.624   4.325   8.100  0.5982  2.5128 -1.0622
  154MOL0     H20772   8.178   4.409   8.011  1.5087 -0.4221 -2.7242
  154MOL0     H20773   8.325   4.246   7.907  0.1960 -0.1304  1.7788
  154MOL0     H20774   8.178   3.237   7.789 -3.5940 -0.5564  0.0528
  154MOL0     H20775   8.372   3.135   7.720  0.5634 -0.1635  0.8743
  154MOL0     H20776   8.677   3.126   7.610  2.1243  0.2014  0.7544
  154MOL0     H20777   8.898   3.030   7.680 -0.4038  0.8384  0.6812
  154MOL0     H20778   9.031   2.650   7.465  0.6176 -0.3796  0.6921
  154MOL0     H20779   8.946   2.605   7.606  0.0110 -0.2030  0.2088
  154MOL0     H20780   9.147   2.542   7.693  2.1941 -0.6673 -0.4857
  154MOL0     H20781   9.162   2.702   7.741 -2.7582  1.1108 -1.1736
  154MOL0     H20782   9.296   2.711   7.500  1.8872  0.7341  1.0995
  154MOL0     H20783   9.315   2.527   7.538 -0.6247 -0.8448  1.1950
  154MOL0     H20784   9.377   2.753   7.721 -2.0773 -1.6419  0.7096
  154MOL0     H20785   9.421   2.577   7.742 -0.1661 -2.3921 -1.6504
  154MOL0     H20786   9.725   2.753   7.500 -1.1185  0.4679 -0.6683
  154MOL0     H20787   8.827   2.709   7.398 -0.2714 -1.0258  1.8158
  154MOL0     H20788   8.540   2.851   7.253 -1.8432 -1.2310  0.9711
  154MOL0     H20789   8.676   2.730   7.247  1.4846  1.4179 -0.2241
  154MOL0     H20790   8.541   2.701   7.355 -0.0186 -1.3649 -1.9150
  155MOL0     O20791   4.887   3.097   1.710 -0.1521  0.3900 -0.3896
  155MOL0     C20792   4.791   3.147   1.765 -0.3217 -0.9588  0.6473
  155MOL0     O20793   4.697   3.219   1.705  0.0895 -0.0898 -0.0616
  155MOL0     C20794   4.680   3.215   1.566 -0.1972 -0.0971  0.3108
  155MOL0     C20795   4.569   3.154   1.515  0.5181 -0.3480 -0.8041
  155MOL0     C20796   4.553   3.144   1.377  0.6903  0.1845 -0.0976
  155MOL0     C20797   4.644   3.200   1.290  0.4032 -0.5161 -0.3742
  155MOL0     O20798   4.649   3.205   1.156  0.8874  0.0583  0.5487
  155MOL0     C20799   4.567   3.101   1.089 -0.6689  0.1030  0.7588
  155MOL0     C20800   4.620   3.091   0.945 -1.0333  0.0232 -0.2054
  155MOL0     C20801   4.601   2.962   0.870  0.7596  0.1346 -0.2352
  155MOL0     C20802   4.459   2.912   0.900  0.5812  0.1584 -0.1132
  155MOL0     C20803   4.443   2.766   0.848  0.1236  0.0417  0.0577
  155MOL0     C20804   4.313   2.698   0.902 -0.1228  0.2066  0.1377
  155MOL0     C20805   4.289   2.552   0.842 -0.6457 -0.3125  1.1408
  155MOL0     C20806   4.261   2.565   0.691 -0.4181 -0.0260  0.0838
  155MOL0     N20807   4.152   2.659   0.657  0.3367  0.0396 -0.5408
  155MOL0     C20808   4.021   2.611   0.638 -0.7793  0.0707 -0.4139
  155MOL0     C20809   3.941   2.725   0.638 -2.0372  0.5357  0.1719
  155MOL0     C20810   3.796   2.721   0.630 -0.3411  1.3849 -0.3791
  155MOL0     C20811   3.736   2.628   0.514 -0.0238 -0.9553 -0.5949
  155MOL0     C20812   3.584   2.639   0.485  0.2811  0.1986 -0.4153
  155MOL0     C20813   3.497   2.600   0.603 -0.5683 -0.7167 -0.7590
  155MOL0     O20814   3.493   2.461   0.636 -0.4988  0.5459  0.3701
  155MOL0     C20815   3.423   2.407   0.741 -0.1988  0.3897 -0.0267
  155MOL0     C20816   3.455   2.275   0.761  0.8086 -0.8412 -0.1149
  155MOL0     C20817   3.379   2.201   0.864 -0.4205 -0.6282  0.2232
  155MOL0     C20818   3.293   2.274   0.951 -0.2414  0.5283  0.6342
  155MOL0     C20819   3.255   2.199   1.078  0.0146  0.6164  0.4332
  155MOL0     O20820   3.257   2.060   1.079  0.1735 -0.5218  0.8779
  155MOL0     C20821   3.201   1.999   1.190  1.1736  0.0552 -0.2867
  155MOL0     C20822   3.125   1.882   1.160  0.4333  0.8488 -0.0346
  155MOL0     C20823   3.081   1.799   1.262 -1.2955 -0.0558 -0.5927
  155MOL0     C20824   3.092   1.834   1.393  0.1538  0.1403  0.1844
  155MOL0     O20825   3.040   1.745   1.477  0.6930 -1.6788  0.1757
  155MOL0     C20826   3.038   1.783   1.617  0.1920 -0.4312  0.7160
  155MOL0     C20827   2.967   1.675   1.693 -0.4863  0.7039 -0.7263
  155MOL0     C20828   3.042   1.550   1.705 -0.3543  0.6765  0.0696
  155MOL0     C20829   2.962   1.438   1.765 -0.0451 -0.3062  0.7934
  155MOL0     C20830   3.050   1.325   1.822 -0.1399 -1.4483 -0.0168
  155MOL0     C20831   2.967   1.201   1.852  0.3566 -0.2757 -0.8490
  155MOL0     C20832   3.044   1.100   1.940  0.3140 -0.6508 -0.0686
  155MOL0     C20833   2.956   0.996   2.006  0.0618  0.7594 -0.3236
  155MOL0    Cl20834   2.897   1.068   2.157  0.2857  0.5796 -0.3539
  155MOL0     C20835   3.173   1.950   1.432  0.1482  0.2888 -0.2018
  155MOL0     C20836   3.236   2.029   1.324  0.2105 -0.6202 -0.1643
  155MOL0     O20837   3.206   2.270   1.166 -0.1011 -0.0014  0.0697
  155MOL0     C20838   3.268   2.409   0.923  0.3871 -0.1178  0.2502
  155MOL0     C20839   3.339   2.474   0.827 -0.8133 -0.0103  1.2548
  155MOL0     N20840   4.020   2.838   0.640 -0.3741  0.2352  0.0158
  155MOL0     N20841   4.147   2.797   0.653  1.0122  0.0804 -0.2074
  155MOL0     C20842   4.753   3.269   1.350 -0.3083 -0.0568  0.3173
  155MOL0     C20843   4.772   3.273   1.485  0.1766  0.0866  0.7400
  155MOL0     C20844   4.770   3.123   1.902 -0.8380  0.1107  0.7284
  155MOL0     C20845   4.644   3.131   1.951 -0.0325  0.0299 -0.7115
  155MOL0     C20846   4.600   3.075   2.077 -0.1222  0.0876  0.0642
  155MOL0     C20847   4.699   3.029   2.160  0.0409 -0.7905 -0.5847
  155MOL0     O20848   4.667   2.966   2.283  0.6588 -0.1743  0.2490
  155MOL0     C20849   4.543   2.897   2.287  0.6910 -0.4771 -0.0742
  155MOL0     C20850   4.551   2.784   2.381 -0.1506 -0.1166 -0.5298
  155MOL0     C20851   4.646   2.672   2.335 -0.4269 -0.7593 -0.7982
  155MOL0     C20852   4.566   2.565   2.281  0.1899 -0.5657 -0.2456
  155MOL0     C20853   4.650   2.466   2.230 -0.2536  0.7786 -0.3133
  155MOL0     C20854   4.712   2.383   2.162 -0.0778 -0.2232  0.1720
  155MOL0     C20855   4.835   3.047   2.125  0.0012  0.2128  1.3538
  155MOL0     C20856   4.866   3.082   1.990 -0.7243 -0.7141  0.1118
  155MOL0     C20857   5.013   3.077   1.968 -0.0382  0.5910  0.1072
  155MOL0     H20858   4.507   3.105   1.589  0.6182  0.7818  0.0590
  155MOL0     H20859   4.474   3.076   1.346  1.8424 -0.5885 -1.5135
  155MOL0     H20860   4.605   3.011   1.138  2.3312 -0.2379 -1.9104
  155MOL0     H20861   4.462   3.131   1.082 -0.4139  1.3341  1.8191
  155MOL0     H20862   4.728   3.103   0.949 -1.2087  1.8054 -0.0566
  155MOL0     H20863   4.593   3.168   0.872  1.9185  1.8412  0.4615
  155MOL0     H20864   4.681   2.894   0.901 -1.8060 -2.1010  2.0362
  155MOL0     H20865   4.613   2.980   0.763  3.9787 -0.7311 -0.1298
  155MOL0     H20866   4.439   2.907   1.007 -2.1597 -3.1061 -0.6385
  155MOL0     H20867   4.389   2.978   0.847  1.6779  0.5420 -1.1187
  155MOL0     H20868   4.436   2.777   0.740  0.5433 -0.4291 -0.0190
  155MOL0     H20869   4.536   2.709   0.861  0.8973  1.1154 -0.6014
  155MOL0     H20870   4.340   2.676   1.005 -2.6493 -0.4764  0.7174
  155MOL0     H20871   4.220   2.754   0.897 -0.4638 -0.3777 -0.0712
  155MOL0     H20872   4.210   2.498   0.895 -0.9221 -3.6665 -2.2803
  155MOL0     H20873   4.381   2.495   0.860  1.5732  3.1837  1.8954
  155MOL0     H20874   4.351   2.597   0.639  0.1337 -0.5951  0.6567
  155MOL0     H20875   4.230   2.468   0.649 -1.9351  0.7594 -0.6894
  155MOL0     H20876   3.993   2.507   0.647  1.3290 -0.4800  0.4163
  155MOL0     H20877   3.776   2.686   0.732 -0.6390  0.9753 -0.5794
  155MOL0     H20878   3.760   2.823   0.609  2.4900  2.7735  0.9332
  155MOL0     H20879   3.786   2.664   0.423  0.3146 -0.6516 -0.2959
  155MOL0     H20880   3.756   2.521   0.528  3.4390 -0.3946 -0.2136
  155MOL0     H20881   3.553   2.578   0.399 -1.4029  0.5098 -0.0633
  155MOL0     H20882   3.558   2.742   0.458 -3.3690 -0.0247  1.7057
  155MOL0     H20883   3.395   2.637   0.587 -0.4931  0.8120  1.6840
  155MOL0     H20884   3.527   2.653   0.694  0.4397  1.8717 -2.4824
  155MOL0     H20885   3.524   2.220   0.697 -0.2496 -1.7914 -0.4839
  155MOL0     H20886   3.397   2.095   0.882 -0.9380 -1.3090 -2.6045
  155MOL0     H20887   3.115   1.857   1.055 -1.5561 -0.0433  0.3097
  155MOL0     H20888   3.023   1.715   1.226 -1.5169 -0.2535  0.2246
  155MOL0     H20889   3.139   1.789   1.658  0.4808  0.5231 -0.1044
  155MOL0     H20890   2.991   1.877   1.648  0.4407 -0.1148  0.1442
  155MOL0     H20891   2.950   1.722   1.791 -1.5347  1.9671 -1.4764
  155MOL0     H20892   2.873   1.649   1.642 -0.4560 -3.3113  0.8779
  155MOL0     H20893   3.079   1.521   1.606  1.6637 -1.8411  1.4331
  155MOL0     H20894   3.127   1.566   1.772 -2.0775 -0.4768  2.6655
  155MOL0     H20895   2.894   1.399   1.689 -1.3047 -1.4377  2.4185
  155MOL0     H20896   2.897   1.482   1.842 -2.2850 -1.2615 -0.4621
  155MOL0     H20897   3.095   1.368   1.913  0.1683  1.0587 -1.2563
  155MOL0     H20898   3.135   1.295   1.760 -1.9006 -3.5922 -1.5158
  155MOL0     H20899   2.876   1.223   1.909  1.8955  1.9874  0.9054
  155MOL0     H20900   2.937   1.161   1.755  0.6758 -2.3631 -0.1363
  155MOL0     H20901   3.105   1.149   2.015 -4.1164  2.0564  2.2208
  155MOL0     H20902   3.113   1.045   1.876  2.2243 -2.5511  3.3528
  155MOL0     H20903   2.877   0.958   1.942 -0.2647 -0.8597  0.9811
  155MOL0     H20904   3.020   0.908   2.022 -1.0111  0.0233 -0.0107
  155MOL0     H20905   3.179   1.982   1.535  1.2413 -1.0783  0.1885
  155MOL0     H20906   3.307   2.109   1.342 -0.7448  0.0259  0.8521
  155MOL0     H20907   3.199   2.451   0.996  2.2970 -1.3917  2.9458
  155MOL0     H20908   3.314   2.577   0.807  1.1053  0.1803 -0.5372
  155MOL0     H20909   4.827   3.309   1.281  0.2150  2.1165  1.9877
  155MOL0     H20910   4.856   3.315   1.540  0.2405  0.0154  0.6965
  155MOL0     H20911   4.563   3.155   1.882  0.2170  0.0803 -0.9876
  155MOL0     H20912   4.494   3.070   2.101  0.0731  2.4594  1.7986
  155MOL0     H20913   4.527   2.853   2.188 -1.2533 -3.5749  1.4564
  155MOL0     H20914   4.458   2.962   2.309  0.3748 -1.2349  1.0436
  155MOL0     H20915   4.449   2.754   2.404 -0.4471  1.5697  0.5066
  155MOL0     H20916   4.594   2.813   2.477  0.8728 -1.6450 -0.4893
  155MOL0     H20917   4.704   2.636   2.420 -1.5502  1.8282  1.2194
  155MOL0     H20918   4.719   2.713   2.266  3.2367 -1.2578  2.4349
  155MOL0     H20919   4.506   2.532   2.367  0.9172  1.0361  0.9252
  155MOL0     H20920   4.495   2.612   2.212 -0.4812  1.1232  1.5045
  155MOL0     H20921   4.761   2.313   2.097  0.3753 -0.2733  0.5595
  155MOL0     H20922   4.908   3.014   2.199  1.3810 -0.9710 -0.4549
  155MOL0     H20923   5.053   3.005   2.039 -0.6358 -0.8040 -0.9060
  155MOL0     H20924   5.049   3.043   1.870 -4.7949 -2.6341 -0.8940
  155MOL0     H20925   5.066   3.170   1.991  3.1495 -1.3585  1.2657
  156MOL0     O20926   6.538   2.753   2.227 -0.5026 -0.7663 -0.7597
  156MOL0     C20927   6.589   2.817   2.323 -0.5033 -0.0396 -0.8515
  156MOL0     O20928   6.725   2.825   2.357 -0.1489  0.1078  0.1783
  156MOL0     C20929   6.812   2.761   2.271  0.0375 -0.2787 -0.3752
  156MOL0     C20930   6.839   2.829   2.151  0.5061  0.3296  0.3130
  156MOL0     C20931   6.910   2.767   2.043 -0.1055  0.2752 -0.6796
  156MOL0     C20932   6.947   2.638   2.052 -0.4936 -0.4910 -0.2549
  156MOL0     O20933   7.011   2.564   1.944  0.6511 -1.1007  0.0909
  156MOL0     C20934   7.095   2.442   1.971  0.7885  0.0318 -0.7477
  156MOL0     C20935   7.085   2.363   1.837 -0.3558 -0.1962  0.5217
  156MOL0     C20936   7.177   2.428   1.731  1.0403 -0.8878 -0.4161
  156MOL0     C20937   7.163   2.351   1.611  0.4237 -0.7196 -0.5620
  156MOL0     C20938   7.267   2.386   1.502 -0.6371  0.2655  0.3534
  156MOL0     C20939   7.236   2.514   1.430  0.1964 -0.4048 -0.0167
  156MOL0     C20940   7.345   2.543   1.333  0.4522 -0.8117  0.0883
  156MOL0     C20941   7.315   2.666   1.252  0.3284 -0.1583 -0.0750
  156MOL0     N20942   7.414   2.682   1.146 -0.2289  0.4888 -0.4978
  156MOL0     C20943   7.538   2.724   1.159 -0.2872  0.1995  0.4788
  156MOL0     C20944   7.582   2.743   1.033  0.2207  0.1905 -0.4553
  156MOL0     C20945   7.714   2.808   1.016 -0.4612  0.4513 -0.2385
  156MOL0     C20946   7.819   2.697   1.019 -0.1604 -0.7136 -0.2179
  156MOL0     C20947   7.962   2.736   1.017 -0.4161  0.2986 -0.3352
  156MOL0     C20948   8.028   2.597   0.981 -1.1086 -0.8067 -1.0759
  156MOL0     O20949   8.164   2.623   0.945  0.0191  0.9272  0.5852
  156MOL0     C20950   8.182   2.703   0.834  0.9580 -1.0379  0.3656
  156MOL0     C20951   8.265   2.819   0.844  1.1125 -0.1560 -0.1600
  156MOL0     C20952   8.286   2.896   0.728  0.1007  1.5524 -0.6419
  156MOL0     C20953   8.244   2.859   0.605 -0.3117  0.3667  0.2917
  156MOL0     C20954   8.293   2.931   0.486 -0.6186  0.2208  0.2183
  156MOL0     O20955   8.402   3.024   0.501 -0.0855 -0.0469 -0.4741
  156MOL0     C20956   8.454   3.075   0.386 -0.7849 -0.4957  0.7379
  156MOL0     C20957   8.597   3.103   0.373 -0.7550 -0.7317  0.0728
  156MOL0     C20958   8.657   3.168   0.255 -0.1382 -0.2058 -0.4506
  156MOL0     C20959   8.581   3.192   0.138 -0.2545 -0.4008  0.3339
  156MOL0     O20960   8.626   3.257   0.028  0.4023  0.4434  0.0510
  156MOL0     C20961   8.601   3.198  -0.097 -0.1615 -0.2372  0.2650
  156MOL0     C20962   8.601   3.317  -0.196  0.4453  0.0389 -0.6456
  156MOL0     C20963   8.535   3.290  -0.334  1.3830  0.1811  0.7877
  156MOL0     C20964   8.555   3.395  -0.442 -1.4621  0.1854  0.7002
  156MOL0     C20965   8.506   3.361  -0.594 -0.1060 -0.2780 -0.2500
  156MOL0     C20966   8.377   3.279  -0.589 -0.0838 -1.0470  0.0777
  156MOL0     C20967   8.321   3.241  -0.731  0.3594  0.3279 -0.0375
  156MOL0     C20968   8.205   3.135  -0.740 -0.0361  0.5103 -0.4914
  156MOL0    Cl20969   8.224   2.995  -0.622 -0.3815 -0.1710 -0.1414
  156MOL0     C20970   8.440   3.174   0.155  0.7044 -0.4061  0.9300
  156MOL0     C20971   8.384   3.119   0.273  0.3260 -1.1477 -0.8313
  156MOL0     O20972   8.245   2.891   0.379  0.2100 -0.1029  0.3411
  156MOL0     C20973   8.162   2.743   0.592 -0.9969  0.1361  0.4322
  156MOL0     C20974   8.129   2.665   0.705  0.2738 -0.2809 -0.7537
  156MOL0     N20975   7.482   2.709   0.946  0.8820 -0.1676 -0.2415
  156MOL0     N20976   7.374   2.684   1.013 -0.8814  0.2145 -0.5387
  156MOL0     C20977   6.914   2.569   2.174  0.2627  0.0292  0.2708
  156MOL0     C20978   6.851   2.632   2.280  0.5648  0.3293 -0.7606
  156MOL0     C20979   6.487   2.891   2.401  0.8681  0.2016  0.0785
  156MOL0     C20980   6.367   2.827   2.427 -0.5281 -0.2855 -0.4035
  156MOL0     C20981   6.261   2.899   2.481  0.4082  0.0698 -0.3201
  156MOL0     C20982   6.274   3.034   2.514 -0.4685  0.4187  0.1556
  156MOL0     O20983   6.151   3.089   2.555  0.2937  0.0517  0.4510
  156MOL0     C20984   6.137   3.235   2.566  0.5498  0.0882  0.4496
  156MOL0     C20985   5.991   3.285   2.550  0.1600 -0.2566  0.8729
  156MOL0     C20986   5.925   3.216   2.424 -1.1468 -0.5326 -0.3946
  156MOL0     C20987   5.816   3.313   2.367  0.0390 -0.2995 -0.0058
  156MOL0     C20988   5.774   3.276   2.231  0.1334 -0.3834  0.2299
  156MOL0     C20989   5.736   3.260   2.120 -0.6424 -0.9331 -0.0398
  156MOL0     C20990   6.390   3.099   2.486 -0.8018  0.1616 -0.5993
  156MOL0     C20991   6.506   3.027   2.439 -0.0223  0.3688 -0.3054
  156MOL0     C20992   6.643   3.102   2.417  0.1102  0.2370  1.0349
  156MOL0     H20993   6.806   2.932   2.161  2.0560  0.6315  3.3414
  156MOL0     H20994   6.945   2.813   1.951 -0.2713 -0.8204 -1.3078
  156MOL0     H20995   7.198   2.471   1.994  0.1775  1.1989  0.6895
  156MOL0     H20996   7.060   2.379   2.053 -1.6307  0.2884 -1.4798
  156MOL0     H20997   6.985   2.349   1.794  1.5849 -1.7925 -4.1618
  156MOL0     H20998   7.119   2.261   1.858 -0.9799 -0.5274 -0.0196
  156MOL0     H20999   7.282   2.423   1.763  1.0631  1.5536  0.0719
  156MOL0     H21000   7.139   2.530   1.721 -3.3272 -2.4924 -2.4091
  156MOL0     H21001   7.189   2.249   1.640  1.3336  0.0758  1.6026
  156MOL0     H21002   7.061   2.362   1.571 -0.6656  0.7394  2.3564
  156MOL0     H21003   7.367   2.390   1.546  2.0307  0.3284 -4.8795
  156MOL0     H21004   7.260   2.300   1.435 -1.5513  0.5940  0.0138
  156MOL0     H21005   7.132   2.522   1.395 -0.2488  1.8487  1.5851
  156MOL0     H21006   7.232   2.582   1.516  0.6694 -1.0475  0.5323
  156MOL0     H21007   7.352   2.460   1.262 -1.2086 -1.3766  0.5455
  156MOL0     H21008   7.440   2.571   1.379  0.1668  1.1432 -0.4077
  156MOL0     H21009   7.220   2.661   1.197  1.3575 -0.7882 -1.8879
  156MOL0     H21010   7.300   2.746   1.325 -1.2932  0.2983 -0.8471
  156MOL0     H21011   7.586   2.747   1.254 -2.1601 -0.9998  1.7948
  156MOL0     H21012   7.700   2.852   0.917  0.8043 -2.5881 -1.9069
  156MOL0     H21013   7.746   2.880   1.092  0.9878 -2.5195  2.1657
  156MOL0     H21014   7.800   2.620   1.094  0.3079 -3.1076 -2.4045
  156MOL0     H21015   7.809   2.645   0.923  4.8901 -1.3744 -0.6663
  156MOL0     H21016   8.004   2.776   1.109 -2.1487 -0.8769  1.0137
  156MOL0     H21017   7.959   2.816   0.943 -2.0700  0.4453 -0.1294
  156MOL0     H21018   7.979   2.543   0.900  0.0949 -1.7639 -1.1817
  156MOL0     H21019   8.037   2.519   1.057  0.0584 -0.3666 -0.7347
  156MOL0     H21020   8.320   2.839   0.935  4.2522 -2.3167 -1.3966
  156MOL0     H21021   8.343   2.989   0.728 -2.3351  3.1140 -0.8015
  156MOL0     H21022   8.665   3.078   0.454 -1.6756 -1.7870  0.5554
  156MOL0     H21023   8.764   3.188   0.259 -0.2457  0.6965 -1.6597
  156MOL0     H21024   8.692   3.142  -0.119  0.3172  0.9550 -0.9414
  156MOL0     H21025   8.509   3.139  -0.102 -1.5786  1.8996 -0.6149
  156MOL0     H21026   8.554   3.410  -0.164  2.4652  0.4070  1.4991
  156MOL0     H21027   8.706   3.345  -0.204  0.8129 -0.4678  1.6252
  156MOL0     H21028   8.583   3.201  -0.375  2.1933  0.8154  0.3225
  156MOL0     H21029   8.428   3.268  -0.328  1.7815 -1.5926  2.2413
  156MOL0     H21030   8.662   3.419  -0.453 -0.5661 -1.8138  3.8563
  156MOL0     H21031   8.513   3.492  -0.414 -0.1432  2.0894 -3.1310
  156MOL0     H21032   8.578   3.296  -0.645 -0.4774 -0.2633 -0.7936
  156MOL0     H21033   8.501   3.459  -0.641  1.4060  1.0303  2.1209
  156MOL0     H21034   8.421   3.188  -0.548 -2.7791 -1.3854  2.4736
  156MOL0     H21035   8.303   3.326  -0.523  1.1578  1.3686 -0.1122
  156MOL0     H21036   8.401   3.189  -0.784 -0.2175 -1.9093  1.1646
  156MOL0     H21037   8.283   3.329  -0.783  2.7468 -0.3566 -3.2051
  156MOL0     H21038   8.106   3.178  -0.719 -0.9260 -1.5319 -0.2865
  156MOL0     H21039   8.185   3.105  -0.843  1.2536 -1.5200 -0.2089
  156MOL0     H21040   8.385   3.200   0.066  0.7336 -1.9024  0.4480
  156MOL0     H21041   8.276   3.115   0.276  0.3021 -3.1240 -2.0714
  156MOL0     H21042   8.118   2.710   0.498 -0.4491  3.5430 -1.1526
  156MOL0     H21043   8.063   2.580   0.695 -1.9754  1.3706 -0.7240
  156MOL0     H21044   6.930   2.466   2.205  0.3899  0.6522  2.4685
  156MOL0     H21045   6.817   2.581   2.370 -0.6437  3.3466  0.6235
  156MOL0     H21046   6.365   2.724   2.392  1.6631 -0.6337  0.3165
  156MOL0     H21047   6.166   2.847   2.488 -1.0915  2.5696 -0.8274
  156MOL0     H21048   6.199   3.281   2.489  0.0359 -3.0739 -2.0476
  156MOL0     H21049   6.171   3.274   2.663 -2.2213 -1.0633  2.0200
  156MOL0     H21050   5.985   3.394   2.563 -0.6376  0.2116 -2.4661
  156MOL0     H21051   5.934   3.245   2.634  0.5475 -1.8169  0.4201
  156MOL0     H21052   5.873   3.129   2.465 -3.2367  1.5227  1.7360
  156MOL0     H21053   5.996   3.180   2.350 -1.1925  1.8650 -1.7198
  156MOL0     H21054   5.730   3.316   2.435  1.3243  0.2815  1.6774
  156MOL0     H21055   5.862   3.412   2.360  2.4222 -0.7064  4.9076
  156MOL0     H21056   5.711   3.246   2.016 -0.1141 -2.0068 -0.0390
  156MOL0     H21057   6.394   3.204   2.512  1.6522 -0.2707  1.0732
  156MOL0     H21058   6.712   3.046   2.480 -0.2919 -1.9091 -0.3534
  156MOL0     H21059   6.678   3.104   2.313 -1.7726 -0.3903  0.3511
  156MOL0     H21060   6.633   3.203   2.457  0.4230 -0.0745  1.9123
  157MOL0     O21061   4.013   7.369   0.629  0.0690 -0.0280 -0.7471
  157MOL0     C21062   4.093   7.290   0.590  0.4099 -0.1894 -0.1045
  157MOL0     O21063   4.059   7.164   0.558 -0.2467 -0.4148 -0.2510
  157MOL0     C21064   3.951   7.095   0.617  0.1550 -1.0819 -0.1385
  157MOL0     C21065   3.891   7.132   0.744 -1.0482 -0.6167  0.3733
  157MOL0     C21066   3.785   7.054   0.793  0.2256 -0.6536  0.5872
  157MOL0     C21067   3.726   6.952   0.719 -1.1626 -0.2972 -0.0960
  157MOL0     O21068   3.626   6.868   0.762 -0.6741  0.0735  0.1254
  157MOL0     C21069   3.595   6.874   0.907 -0.5052  0.4681  0.0387
  157MOL0     C21070   3.518   6.748   0.945  0.7974  0.6501  0.1298
  157MOL0     C21071   3.435   6.762   1.071  0.3755  0.4983  0.0922
  157MOL0     C21072   3.348   6.645   1.085  1.1428  0.9913  0.1972
  157MOL0     C21073   3.254   6.677   1.204  0.2410 -0.8196 -0.4290
  157MOL0     C21074   3.127   6.586   1.232 -0.6497  0.0191 -0.4150
  157MOL0     C21075   3.004   6.637   1.164  0.2353  0.3888 -0.0516
  157MOL0     C21076   2.937   6.746   1.248  0.4171 -0.4191 -0.2328
  157MOL0     N21077   2.800   6.748   1.210 -0.2994 -0.2861 -0.2823
  157MOL0     C21078   2.707   6.679   1.278  0.5127 -0.0618 -0.8050
  157MOL0     C21079   2.602   6.665   1.202 -0.5151 -0.4787 -0.0326
  157MOL0     C21080   2.481   6.583   1.217 -0.0492  0.1280 -0.0643
  157MOL0     C21081   2.510   6.434   1.259  0.7326 -0.7557  0.1738
  157MOL0     C21082   2.536   6.340   1.137 -0.7664 -0.2649  0.3646
  157MOL0     C21083   2.486   6.205   1.182 -0.5590 -0.6286  0.4473
  157MOL0     O21084   2.579   6.139   1.270  0.4177 -0.3566  0.3817
  157MOL0     C21085   2.523   6.076   1.380  0.1148  0.9305 -0.0533
  157MOL0     C21086   2.403   6.005   1.373  0.1531 -0.7564 -0.3425
  157MOL0     C21087   2.352   5.932   1.488  1.0297 -0.0963 -0.2145
  157MOL0     C21088   2.419   5.943   1.616  0.8785 -0.4704 -0.5545
  157MOL0     C21089   2.359   5.878   1.737 -0.7104  0.1026 -0.6255
  157MOL0     O21090   2.273   5.772   1.706 -0.5031  1.0775  0.3690
  157MOL0     C21091   2.246   5.686   1.808 -0.7728 -0.8655  0.6553
  157MOL0     C21092   2.354   5.633   1.882 -0.0749 -0.1903  0.3161
  157MOL0     C21093   2.325   5.529   1.982  0.2698 -0.9225  0.8353
  157MOL0     C21094   2.199   5.479   2.000  0.4947 -0.5876  0.6648
  157MOL0     O21095   2.160   5.386   2.089 -0.1699 -0.5903  0.5327
  157MOL0     C21096   2.252   5.310   2.164 -0.5609  0.3088  0.3191
  157MOL0     C21097   2.145   5.224   2.243  0.0862  0.9778  0.7050
  157MOL0     C21098   2.205   5.107   2.338  0.6416 -0.2978 -0.2314
  157MOL0     C21099   2.111   5.009   2.398  0.7349  0.8982 -0.8431
  157MOL0     C21100   2.038   5.066   2.517  0.2111  0.4140  0.9698
  157MOL0     C21101   1.924   4.971   2.546 -0.1333  0.3679  0.1803
  157MOL0     C21102   1.855   5.007   2.672 -0.2591 -0.2145 -0.2790
  157MOL0     C21103   1.705   4.996   2.676 -0.4390 -0.5035 -0.6148
  157MOL0    Cl21104   1.670   4.824   2.641 -0.1999 -0.1803  0.0383
  157MOL0     C21105   2.096   5.530   1.912  0.0746 -0.4327 -0.7729
  157MOL0     C21106   2.117   5.633   1.825 -0.5946  0.3345  0.6502
  157MOL0     O21107   2.407   5.907   1.852  1.3142 -0.7026  0.0241
  157MOL0     C21108   2.531   6.031   1.621  0.0752 -0.0469 -0.7366
  157MOL0     C21109   2.587   6.090   1.505 -0.1373  0.1532 -1.4079
  157MOL0     N21110   2.627   6.741   1.088 -0.3375 -0.1236 -0.3527
  157MOL0     N21111   2.742   6.790   1.098 -0.2037 -1.1919 -0.4449
  157MOL0     C21112   3.774   6.930   0.588 -0.1543 -0.9464 -0.0030
  157MOL0     C21113   3.887   6.998   0.539  0.2522 -0.5625  0.2144
  157MOL0     C21114   4.236   7.333   0.571 -0.1098 -0.0870  0.1557
  157MOL0     C21115   4.323   7.257   0.488  0.2410 -0.9170 -1.0217
  157MOL0     C21116   4.458   7.280   0.465  0.1885  0.2410  0.2026
  157MOL0     C21117   4.516   7.388   0.520 -0.0699 -0.7722 -0.4771
  157MOL0     O21118   4.639   7.419   0.480 -0.2244 -0.5013  0.3027
  157MOL0     C21119   4.680   7.558   0.448  0.7219  0.2410 -1.1509
  157MOL0     C21120   4.633   7.595   0.310  0.6517 -0.6716 -0.3240
  157MOL0     C21121   4.720   7.708   0.249 -0.0765 -0.0191  0.7780
  157MOL0     C21122   4.672   7.730   0.104 -0.1766 -0.4129  0.4884
  157MOL0     C21123   4.757   7.820   0.026 -0.8319 -0.1488  0.4210
  157MOL0     C21124   4.820   7.893  -0.048  0.0758  0.0905 -0.3106
  157MOL0     C21125   4.442   7.470   0.611 -0.1402 -0.3173  0.0991
  157MOL0     C21126   4.300   7.443   0.631 -1.4208 -0.6372  0.2267
  157MOL0     C21127   4.237   7.520   0.745 -0.7243 -0.2070 -0.3775
  157MOL0     H21128   3.929   7.213   0.805  1.3903 -0.4345 -1.2257
  157MOL0     H21129   3.755   7.087   0.891  2.1344  3.3186  0.0352
  157MOL0     H21130   3.687   6.888   0.965 -0.0774  1.2598 -0.7921
  157MOL0     H21131   3.528   6.959   0.922  0.5384  1.3886 -0.4123
  157MOL0     H21132   3.586   6.668   0.977 -0.9833 -0.8024  0.4351
  157MOL0     H21133   3.464   6.703   0.862  0.8660  2.0134 -0.6780
  157MOL0     H21134   3.376   6.854   1.061  0.3152  0.6709  1.7559
  157MOL0     H21135   3.508   6.774   1.152  0.6848  0.6514 -0.2085
  157MOL0     H21136   3.289   6.634   0.994 -1.3672  1.2545  1.6957
  157MOL0     H21137   3.410   6.556   1.100 -0.4488 -0.0146  1.1033
  157MOL0     H21138   3.315   6.661   1.293  0.2704 -0.2289 -0.3379
  157MOL0     H21139   3.228   6.783   1.197  3.2663 -0.0725 -1.5962
  157MOL0     H21140   3.134   6.482   1.200 -0.2325 -0.4265  1.0786
  157MOL0     H21141   3.110   6.592   1.340 -2.7156 -0.0653 -0.6945
  157MOL0     H21142   2.935   6.559   1.131  0.7547  1.5254 -4.3608
  157MOL0     H21143   3.025   6.676   1.064  0.0327 -3.2530 -1.6549
  157MOL0     H21144   2.951   6.729   1.355  2.1180 -0.4802 -0.4448
  157MOL0     H21145   2.986   6.841   1.230  1.7833 -1.0362  0.0920
  157MOL0     H21146   2.709   6.635   1.377  0.1574 -0.9061 -1.1680
  157MOL0     H21147   2.426   6.622   1.303  0.9177 -2.2604  1.7660
  157MOL0     H21148   2.421   6.578   1.125  0.3167  0.0527 -0.2992
  157MOL0     H21149   2.586   6.422   1.336  0.3683  0.2016  0.6907
  157MOL0     H21150   2.425   6.403   1.321  0.3901  1.9412  1.1406
  157MOL0     H21151   2.644   6.331   1.123  0.1647  5.2461  1.8248
  157MOL0     H21152   2.480   6.377   1.051  0.5523  0.8976 -0.0344
  157MOL0     H21153   2.473   6.140   1.095 -1.0380  3.0718 -2.4699
  157MOL0     H21154   2.384   6.209   1.221  0.2802 -0.1856  2.7439
  157MOL0     H21155   2.349   5.996   1.279 -1.0444  1.0846  0.1349
  157MOL0     H21156   2.270   5.863   1.472  1.9333 -1.3175  0.2660
  157MOL0     H21157   2.456   5.667   1.872 -0.7125  1.0619 -2.7839
  157MOL0     H21158   2.404   5.495   2.049  0.5854  1.2732  1.6384
  157MOL0     H21159   2.313   5.247   2.099  2.0279  0.3809  2.5179
  157MOL0     H21160   2.315   5.366   2.233  0.8938 -4.0492  2.9260
  157MOL0     H21161   2.081   5.292   2.299 -1.3376 -1.6154  2.4685
  157MOL0     H21162   2.076   5.174   2.174  0.9187  0.4931  0.2001
  157MOL0     H21163   2.259   5.044   2.268  2.2028  0.1169  0.5699
  157MOL0     H21164   2.267   5.148   2.418  1.5275 -3.1637  0.6411
  157MOL0     H21165   2.181   4.940   2.444 -0.6982 -0.7367 -1.0432
  157MOL0     H21166   2.051   4.981   2.310  0.3433  1.7198 -0.8504
  157MOL0     H21167   1.997   5.165   2.496 -0.3171 -0.0797 -0.4521
  157MOL0     H21168   2.110   5.067   2.600  1.8607  1.9952 -0.3973
  157MOL0     H21169   1.849   4.966   2.466 -0.4891 -3.7694  0.5584
  157MOL0     H21170   1.947   4.864   2.548  1.6795  0.7307  1.7583
  157MOL0     H21171   1.873   5.112   2.697 -0.0537 -1.0964  4.0860
  157MOL0     H21172   1.888   4.936   2.748 -0.1751 -2.7397 -2.5271
  157MOL0     H21173   1.679   5.014   2.780  2.3444 -0.1127  0.1089
  157MOL0     H21174   1.654   5.072   2.615 -0.3684  1.7838  1.9760
  157MOL0     H21175   1.996   5.492   1.932 -0.8956  2.2970 -0.0467
  157MOL0     H21176   2.048   5.669   1.748 -0.0914 -1.8737 -0.9507
  157MOL0     H21177   2.591   6.033   1.712  0.3459 -1.4304 -0.8594
  157MOL0     H21178   2.672   6.157   1.501  0.0617  0.5373  3.2560
  157MOL0     H21179   3.724   6.857   0.524 -0.3506  0.0758 -1.0494
  157MOL0     H21180   3.906   7.000   0.432 -3.9839 -0.1682 -0.6993
  157MOL0     H21181   4.278   7.166   0.450  2.0005 -0.8304 -3.6221
  157MOL0     H21182   4.526   7.208   0.421  0.2537 -0.2197  1.0376
  157MOL0     H21183   4.788   7.560   0.463  0.8495 -3.3320 -0.5681
  157MOL0     H21184   4.640   7.620   0.528 -3.5113 -2.7596 -0.6124
  157MOL0     H21185   4.538   7.649   0.308  0.8661 -0.3085 -1.0452
  157MOL0     H21186   4.625   7.507   0.247 -0.8842 -1.1007  0.4458
  157MOL0     H21187   4.822   7.671   0.235 -0.1655  0.5297 -1.8208
  157MOL0     H21188   4.733   7.803   0.302  0.7138  2.2933 -3.1618
  157MOL0     H21189   4.657   7.638   0.046 -1.2197 -0.1778  0.3482
  157MOL0     H21190   4.574   7.779   0.112 -0.3006 -0.9763  3.5034
  157MOL0     H21191   4.868   7.964  -0.111 -0.1808 -0.0644 -0.6818
  157MOL0     H21192   4.490   7.551   0.665 -0.1765 -0.6783  0.6832
  157MOL0     H21193   4.165   7.452   0.791 -0.0861 -1.2990 -0.9540
  157MOL0     H21194   4.311   7.549   0.820 -0.9445  0.2996 -0.3508
  157MOL0     H21195   4.195   7.615   0.710 -1.2597  0.7691  2.6706
  158MOL0     O21196   0.419   8.796   9.721 -0.0458 -0.4052 -0.7314
  158MOL0     C21197   0.385   8.809   9.607 -0.8104 -0.1034  0.9119
  158MOL0     O21198   0.262   8.776   9.568  0.2132 -0.1795  1.1076
  158MOL0     C21199   0.187   8.673   9.620 -0.3310  0.2586 -0.1889
  158MOL0     C21200   0.051   8.664   9.582  0.1154 -0.5049 -0.2841
  158MOL0     C21201  -0.035   8.558   9.627  0.0824 -0.1906 -0.6926
  158MOL0     C21202   0.016   8.459   9.715  0.1641 -0.2182 -0.0572
  158MOL0     O21203  -0.064   8.360   9.765 -0.5468  0.0929  0.3972
  158MOL0     C21204  -0.197   8.337   9.723 -1.0728 -0.2478  0.1389
  158MOL0     C21205  -0.255   8.225   9.808  0.0739  0.2972  0.3943
  158MOL0     C21206  -0.392   8.189   9.746 -0.1523 -0.6184  1.0236
  158MOL0     C21207  -0.475   8.082   9.822 -0.3462  0.7401  0.3035
  158MOL0     C21208  -0.435   7.940   9.802 -0.9122  0.7680  0.3296
  158MOL0     C21209  -0.491   7.872   9.678 -0.5996 -0.4568 -0.4116
  158MOL0     C21210  -0.456   7.935   9.546  0.4945  1.0006 -0.3299
  158MOL0     C21211  -0.470   7.848   9.426 -0.3748  0.6458  0.6935
  158MOL0     N21212  -0.622   7.833   9.405  0.3510 -0.3636 -0.5962
  158MOL0     C21213  -0.714   7.749   9.476 -0.3980  0.0476  0.2421
  158MOL0     C21214  -0.833   7.777   9.433  0.6390 -0.7894  0.4250
  158MOL0     C21215  -0.968   7.741   9.485  0.8147 -0.2425 -0.5118
  158MOL0     C21216  -1.048   7.643   9.397 -0.5507 -1.0401 -0.0084
  158MOL0     C21217  -0.989   7.501   9.382  0.4871 -0.2700 -1.0621
  158MOL0     C21218  -1.105   7.401   9.373  0.5020  0.4327  0.3140
  158MOL0     O21219  -1.156   7.365   9.504 -0.2632  0.5084  0.1518
  158MOL0     C21220  -1.286   7.400   9.517  0.7959 -0.9229 -0.1899
  158MOL0     C21221  -1.315   7.473   9.633  0.2375  0.4238 -0.5084
  158MOL0     C21222  -1.445   7.518   9.659 -0.1875 -0.9649  0.7505
  158MOL0     C21223  -1.540   7.498   9.563 -0.1625 -0.8612  0.5642
  158MOL0     C21224  -1.679   7.546   9.585  0.6589  0.3122 -0.2723
  158MOL0     O21225  -1.785   7.494   9.508  0.0975  0.4627  0.1718
  158MOL0     C21226  -1.909   7.549   9.509  0.1986 -0.3258 -1.0779
  158MOL0     C21227  -1.933   7.688   9.514  0.1746 -0.5673  0.1455
  158MOL0     C21228  -2.057   7.748   9.520  0.1068 -0.4821 -0.3588
  158MOL0     C21229  -2.179   7.671   9.493 -0.4198 -0.1538 -0.4466
  158MOL0     O21230  -2.304   7.721   9.473 -0.6307 -0.2057  0.0867
  158MOL0     C21231  -2.341   7.827   9.556  0.2039 -0.4632 -0.2161
  158MOL0     C21232  -2.486   7.863   9.536 -0.2832 -0.3382  0.6248
  158MOL0     C21233  -2.520   7.867   9.385  0.0738 -0.6450  0.1490
  158MOL0     C21234  -2.673   7.889   9.374  0.0950 -0.3342  0.1664
  158MOL0     C21235  -2.724   7.885   9.234  0.2534 -0.1651  0.2510
  158MOL0     C21236  -2.867   7.936   9.228  0.0052  0.2442  0.4281
  158MOL0     C21237  -2.874   8.093   9.206 -0.5837  0.6250 -0.8440
  158MOL0     C21238  -3.011   8.159   9.182 -0.8557 -1.3019 -0.2559
  158MOL0    Cl21239  -2.999   8.292   9.060  0.0873  0.1950  0.1521
  158MOL0     C21240  -2.161   7.534   9.479  0.1300  0.1867 -0.1492
  158MOL0     C21241  -2.026   7.472   9.495  1.3631 -0.2441  0.9834
  158MOL0     O21242  -1.695   7.622   9.684  0.2332  0.3019 -1.1946
  158MOL0     C21243  -1.508   7.403   9.457 -0.9853 -0.5730  0.8360
  158MOL0     C21244  -1.382   7.356   9.432  0.3682  0.5866 -0.6283
  158MOL0     N21245  -0.823   7.878   9.330  0.3899  0.5269  0.1651
  158MOL0     N21246  -0.696   7.905   9.312  0.3595  0.1789 -0.2048
  158MOL0     C21247   0.148   8.472   9.747 -0.2977 -0.4088  0.3257
  158MOL0     C21248   0.238   8.576   9.698  0.2113  0.9852  0.7961
  158MOL0     C21249   0.488   8.861   9.496  0.2107  0.4260 -0.5074
  158MOL0     C21250   0.444   8.852   9.356 -0.6037 -0.6632 -0.8807
  158MOL0     C21251   0.528   8.889   9.246 -0.5561  0.4521 -1.5397
  158MOL0     C21252   0.661   8.933   9.271  0.6011  0.3830  0.6540
  158MOL0     O21253   0.750   8.969   9.172 -0.4833 -0.1464  0.1566
  158MOL0     C21254   0.751   8.888   9.050  0.0019 -0.0327 -0.0681
  158MOL0     C21255   0.857   8.770   9.066  0.0157  0.4809  0.1941
  158MOL0     C21256   0.996   8.836   9.103 -0.0244 -0.4027  0.9093
  158MOL0     C21257   1.106   8.719   9.112 -0.4446  0.9168 -0.7579
  158MOL0     C21258   1.240   8.765   9.128  0.0674  0.0990 -0.0886
  158MOL0     C21259   1.354   8.788   9.140 -0.4541 -0.9558  0.5704
  158MOL0     C21260   0.701   8.938   9.405 -0.2465 -0.3793  0.6393
  158MOL0     C21261   0.623   8.902   9.518 -0.0156  0.4735  0.1069
  158MOL0     C21262   0.690   8.910   9.659 -0.4629  0.0325  0.5341
  158MOL0     H21263   0.015   8.742   9.516 -4.5979 -0.4688  1.8962
  158MOL0     H21264  -0.136   8.565   9.589 -0.0876  2.4157  0.0444
  158MOL0     H21265  -0.260   8.427   9.728  0.3715  0.7907  0.3100
  158MOL0     H21266  -0.192   8.307   9.618  1.7040 -0.2259  0.1924
  158MOL0     H21267  -0.272   8.256   9.911 -0.8216  1.0744  0.0311
  158MOL0     H21268  -0.181   8.147   9.791 -0.8328 -0.5641  0.2639
  158MOL0     H21269  -0.383   8.157   9.642 -1.0701  0.0360  0.7290
  158MOL0     H21270  -0.454   8.279   9.741  0.8614  0.1620  1.9829
  158MOL0     H21271  -0.477   8.110   9.927 -0.0963 -0.1324  0.5490
  158MOL0     H21272  -0.581   8.080   9.795 -0.2787  0.3019  0.0500
  158MOL0     H21273  -0.326   7.937   9.785 -1.2563 -1.8661 -2.3628
  158MOL0     H21274  -0.469   7.881   9.887  1.0572 -2.8973 -1.1951
  158MOL0     H21275  -0.447   7.772   9.681 -1.1563 -0.7139  2.5550
  158MOL0     H21276  -0.599   7.854   9.684 -0.7505  0.2835 -0.8418
  158MOL0     H21277  -0.348   7.951   9.545  1.0331 -2.0488  0.4521
  158MOL0     H21278  -0.506   8.028   9.516  2.0463  1.7006 -0.8993
  158MOL0     H21279  -0.417   7.887   9.338 -0.0528  0.3268  0.7451
  158MOL0     H21280  -0.424   7.750   9.442 -0.7447  0.4234  0.3868
  158MOL0     H21281  -0.688   7.681   9.557 -0.3802  0.8348  0.9087
  158MOL0     H21282  -0.945   7.713   9.588  1.4359 -2.4186 -1.1875
  158MOL0     H21283  -1.026   7.834   9.478 -0.9829 -0.8390  3.4305
  158MOL0     H21284  -1.147   7.636   9.442 -0.2759  1.5068  1.1802
  158MOL0     H21285  -1.033   7.696   9.302  3.4832 -0.2264  0.8812
  158MOL0     H21286  -0.932   7.467   9.469 -0.2765 -0.2446 -0.5400
  158MOL0     H21287  -0.923   7.501   9.295 -0.4577 -0.3505 -1.8075
  158MOL0     H21288  -1.066   7.304   9.338  2.3853  1.2695 -0.0064
  158MOL0     H21289  -1.182   7.435   9.303  0.2822 -0.0770  0.2987
  158MOL0     H21290  -1.240   7.479   9.711 -0.9192 -0.8176  0.7613
  158MOL0     H21291  -1.460   7.588   9.741 -1.5174  0.3185 -0.5250
  158MOL0     H21292  -1.847   7.754   9.517  3.7566 -4.8624  1.7910
  158MOL0     H21293  -2.061   7.856   9.530  0.0673 -0.5909  1.0530
  158MOL0     H21294  -2.322   7.795   9.659 -2.1155 -1.8828 -0.1441
  158MOL0     H21295  -2.296   7.923   9.533 -1.8258  0.3273 -1.1651
  158MOL0     H21296  -2.538   7.783   9.589  0.9038 -2.2614 -0.9500
  158MOL0     H21297  -2.504   7.962   9.580  2.6070 -0.3765  2.1614
  158MOL0     H21298  -2.466   7.952   9.343 -1.7488  0.4186 -0.1630
  158MOL0     H21299  -2.485   7.782   9.325  0.9250  0.2176 -0.6085
  158MOL0     H21300  -2.703   7.985   9.419 -0.4062  0.9417 -2.6419
  158MOL0     H21301  -2.710   7.808   9.436 -0.0450  3.2709  5.4691
  158MOL0     H21302  -2.719   7.780   9.207 -0.0829 -0.0601 -0.2356
  158MOL0     H21303  -2.656   7.947   9.175  1.8401  1.5117  3.5198
  158MOL0     H21304  -2.914   7.877   9.148  0.5839  1.9511 -1.2660
  158MOL0     H21305  -2.918   7.927   9.324  1.9279 -0.0551  1.4778
  158MOL0     H21306  -2.799   8.118   9.131  1.4159 -1.7481  0.2064
  158MOL0     H21307  -2.845   8.137   9.302  0.3125 -0.9012 -0.3756
  158MOL0     H21308  -3.081   8.077   9.164 -0.5350 -1.4908 -0.6640
  158MOL0     H21309  -3.033   8.218   9.271  0.6144 -0.0396 -0.6726
  158MOL0     H21310  -2.242   7.465   9.456 -0.6279  0.3175  1.8905
  158MOL0     H21311  -2.012   7.365   9.490  0.3900 -0.3337 -0.4851
  158MOL0     H21312  -1.598   7.361   9.412  0.2722  0.0955 -2.5126
  158MOL0     H21313  -1.363   7.280   9.357  1.7265  0.4776 -0.2058
  158MOL0     H21314   0.194   8.390   9.801 -0.4808 -1.1294 -0.5748
  158MOL0     H21315   0.343   8.572   9.726  0.2910  1.5536  0.6017
  158MOL0     H21316   0.339   8.829   9.344 -1.1824  0.2898  1.6376
  158MOL0     H21317   0.489   8.880   9.145 -1.0854  0.1709 -1.3111
  158MOL0     H21318   0.781   8.941   8.959 -0.2436 -1.0127 -0.7476
  158MOL0     H21319   0.651   8.849   9.027 -0.0106 -0.7808  1.1620
  158MOL0     H21320   0.872   8.717   8.971  1.6297  2.1213 -0.5249
  158MOL0     H21321   0.830   8.701   9.146  1.3056 -2.0888 -1.4552
  158MOL0     H21322   0.977   8.886   9.198 -1.8492  0.8099 -0.0483
  158MOL0     H21323   1.035   8.899   9.023  0.6496 -0.6464  1.0395
  158MOL0     H21324   1.083   8.653   9.196  0.0626  1.9483  0.2124
  158MOL0     H21325   1.103   8.646   9.031  0.1706  1.7742 -1.5793
  158MOL0     H21326   1.455   8.815   9.163  1.1002 -3.0511 -3.0140
  158MOL0     H21327   0.803   8.967   9.429 -0.4704  1.8568 -0.8160
  158MOL0     H21328   0.621   8.955   9.731  2.0381  1.7313  2.0413
  158MOL0     H21329   0.715   8.808   9.689  0.5737 -0.8709 -2.9680
  158MOL0     H21330   0.774   8.980   9.665  1.2883 -1.9132 -0.0705
  159MOL0     O21331   5.474   0.345   4.123  0.1356 -0.2554 -0.7805
  159MOL0     C21332   5.498   0.243   4.188  0.9569 -0.2332  0.4934
  159MOL0     O21333   5.536   0.128   4.126 -0.4365  0.5392 -0.7657
  159MOL0     C21334   5.594   0.143   4.003 -0.5257 -1.1433 -0.7273
  159MOL0     C21335   5.524   0.166   3.881 -0.4429 -0.2260  0.2870
  159MOL0     C21336   5.582   0.181   3.754 -0.9991  0.0037 -0.4272
  159MOL0     C21337   5.723   0.156   3.746  0.4753 -0.2774 -0.3544
  159MOL0     O21338   5.787   0.164   3.617  0.6406  0.8195 -0.1214
  159MOL0     C21339   5.930   0.171   3.610  0.1826  1.0477  0.5078
  159MOL0     C21340   5.989   0.182   3.465  0.7412  0.7400  0.2409
  159MOL0     C21341   6.139   0.221   3.494  0.2064  0.1493 -0.1231
  159MOL0     C21342   6.159   0.367   3.464  0.3505 -0.3099 -0.1247
  159MOL0     C21343   6.304   0.416   3.497  0.9060  0.0127 -0.1602
  159MOL0     C21344   6.409   0.326   3.418  0.7483 -0.1260 -0.2025
  159MOL0     C21345   6.554   0.376   3.417  0.0101  0.2032 -0.5006
  159MOL0     C21346   6.630   0.279   3.331 -0.8664  0.0440 -0.6763
  159MOL0     N21347   6.659   0.161   3.402  0.3726  0.5392  0.4146
  159MOL0     C21348   6.782   0.144   3.466 -0.4412 -0.3349 -0.0582
  159MOL0     C21349   6.787   0.012   3.504 -0.2123  0.3732  0.3328
  159MOL0     C21350   6.903  -0.048   3.582 -0.3591  0.3652  0.0501
  159MOL0     C21351   6.917  -0.194   3.522 -0.6446  1.1404 -0.5266
  159MOL0     C21352   7.015  -0.271   3.616  0.9489 -0.7108  0.0342
  159MOL0     C21353   7.064  -0.408   3.560 -0.3135 -1.3393  0.0256
  159MOL0     O21354   7.148  -0.466   3.656 -0.1889  0.8002 -0.2601
  159MOL0     C21355   7.152  -0.599   3.641 -0.5849 -0.1165 -0.5409
  159MOL0     C21356   7.163  -0.685   3.747 -0.5590  0.3929 -1.1199
  159MOL0     C21357   7.154  -0.821   3.738  1.0077 -0.6940  0.0093
  159MOL0     C21358   7.160  -0.880   3.603 -0.9020  0.4470 -0.9157
  159MOL0     C21359   7.143  -1.022   3.581 -0.4841  1.0084  0.6923
  159MOL0     O21360   7.176  -1.083   3.458 -0.1828 -1.0945  0.7768
  159MOL0     C21361   7.143  -1.210   3.435 -1.1958  0.3285 -0.3417
  159MOL0     C21362   7.017  -1.252   3.466  0.1182  0.5236  0.4185
  159MOL0     C21363   6.988  -1.387   3.441 -0.1688  0.2915 -0.1161
  159MOL0     C21364   7.090  -1.477   3.399 -0.1191  1.1373  0.1578
  159MOL0     O21365   7.062  -1.614   3.395  0.6740 -0.0844 -0.5634
  159MOL0     C21366   7.117  -1.694   3.293  0.0706  0.7504 -0.0221
  159MOL0     C21367   7.031  -1.811   3.256  0.4495  0.8639  0.1201
  159MOL0     C21368   7.084  -1.881   3.127  0.2692 -0.0156  0.0527
  159MOL0     C21369   6.982  -1.940   3.044  0.0747 -0.0146 -0.8791
  159MOL0     C21370   7.019  -1.992   2.903 -0.6375 -0.4317  0.7738
  159MOL0     C21371   6.921  -2.088   2.844 -0.4214  0.0756  1.0663
  159MOL0     C21372   6.769  -2.067   2.852  0.8306 -0.7231  0.2577
  159MOL0     C21373   6.691  -2.188   2.812  1.0467  0.4509 -0.5384
  159MOL0    Cl21374   6.711  -2.242   2.646  0.0718  0.3052 -0.0059
  159MOL0     C21375   7.211  -1.423   3.360  1.1190  0.4801  0.3609
  159MOL0     C21376   7.238  -1.289   3.378 -0.1659  0.5824  0.4725
  159MOL0     O21377   7.111  -1.091   3.675  0.0343 -0.1522  0.1300
  159MOL0     C21378   7.182  -0.787   3.500  0.5536 -0.1027 -0.0583
  159MOL0     C21379   7.179  -0.652   3.520 -1.0825  1.2262  1.1023
  159MOL0     N21380   6.669  -0.043   3.462 -0.3686  0.3950 -0.1387
  159MOL0     N21381   6.601   0.042   3.397  0.1033  0.5091  1.2015
  159MOL0     C21382   5.793   0.143   3.870  0.9922 -0.6842 -0.5519
  159MOL0     C21383   5.734   0.121   3.997  0.1228 -0.6960  0.5679
  159MOL0     C21384   5.440   0.244   4.329 -0.3997 -0.2534 -1.1114
  159MOL0     C21385   5.398   0.374   4.379 -0.2625 -0.6782  0.7154
  159MOL0     C21386   5.358   0.388   4.513 -0.7112  0.7418 -0.7072
  159MOL0     C21387   5.345   0.289   4.597  0.9240  1.1545 -0.2181
  159MOL0     O21388   5.288   0.313   4.717 -0.1880  0.2998  0.0276
  159MOL0     C21389   5.297   0.215   4.821 -0.4555  0.2182  1.1774
  159MOL0     C21390   5.246   0.280   4.939  0.6082 -0.4625 -0.8449
  159MOL0     C21391   5.350   0.379   4.994 -0.4977  1.6122 -0.4815
  159MOL0     C21392   5.293   0.428   5.127  0.2105  0.1525 -0.5831
  159MOL0     C21393   5.241   0.564   5.106  0.0236  0.0274  0.3337
  159MOL0     C21394   5.214   0.688   5.118 -0.2315  0.2238  0.0954
  159MOL0     C21395   5.381   0.157   4.558  0.5972 -0.4351 -0.0475
  159MOL0     C21396   5.432   0.131   4.425  0.7579 -1.3849  0.6866
  159MOL0     C21397   5.497   0.001   4.404 -0.7098 -0.0327  0.1277
  159MOL0     H21398   5.416   0.177   3.892 -0.8894 -2.8029 -0.7534
  159MOL0     H21399   5.523   0.194   3.664 -1.0860 -0.7193 -0.4794
  159MOL0     H21400   5.967   0.259   3.664  1.1339  0.2747  1.1782
  159MOL0     H21401   5.963   0.081   3.663 -0.4063 -0.0633 -0.9323
  159MOL0     H21402   5.932   0.261   3.415 -1.3309 -1.3705 -0.9155
  159MOL0     H21403   5.974   0.094   3.402 -1.6419  1.0192  0.3172
  159MOL0     H21404   6.195   0.163   3.421 -4.5738 -0.5241 -3.7557
  159MOL0     H21405   6.170   0.202   3.597 -0.1871  0.6888  0.1047
  159MOL0     H21406   6.131   0.393   3.361  0.9790 -3.6501 -1.2650
  159MOL0     H21407   6.090   0.422   3.528  2.0856 -0.2001  1.7446
  159MOL0     H21408   6.319   0.522   3.475  4.0038 -0.4754 -0.7828
  159MOL0     H21409   6.317   0.402   3.605  1.6184  2.6690  0.1798
  159MOL0     H21410   6.404   0.224   3.459 -0.0930  0.3055  0.8088
  159MOL0     H21411   6.370   0.320   3.316  1.2908 -0.9795 -0.3710
  159MOL0     H21412   6.586   0.378   3.521 -3.2676  0.0231  0.6369
  159MOL0     H21413   6.571   0.480   3.386 -0.4260  0.1767 -0.8439
  159MOL0     H21414   6.573   0.246   3.243 -0.0195 -4.1581  0.1458
  159MOL0     H21415   6.716   0.339   3.300 -2.7055  2.0409 -2.2220
  159MOL0     H21416   6.867   0.211   3.469 -1.1284  0.7451 -2.0711
  159MOL0     H21417   7.002  -0.002   3.574 -0.2935  0.4828  1.3571
  159MOL0     H21418   6.874  -0.052   3.687  2.1947 -1.5262  0.7932
  159MOL0     H21419   6.821  -0.246   3.508 -1.1987  0.5788  4.0032
  159MOL0     H21420   6.961  -0.191   3.422 -1.4237  2.9806 -0.8529
  159MOL0     H21421   6.954  -0.304   3.701 -1.4541  1.6042 -0.6749
  159MOL0     H21422   7.098  -0.207   3.645  1.3779 -0.4804 -1.5931
  159MOL0     H21423   7.127  -0.391   3.472  1.3672 -1.1545  1.2259
  159MOL0     H21424   6.985  -0.475   3.524  1.1162 -1.3216 -3.4878
  159MOL0     H21425   7.155  -0.627   3.838  2.6388 -0.6785 -0.0104
  159MOL0     H21426   7.128  -0.887   3.820 -2.3172 -0.3118 -0.6165
  159MOL0     H21427   6.940  -1.188   3.507 -1.8902 -1.5600  0.1512
  159MOL0     H21428   6.890  -1.431   3.455 -0.0544 -0.3290 -1.1149
  159MOL0     H21429   7.140  -1.640   3.200  1.4256  0.3915  0.0940
  159MOL0     H21430   7.216  -1.724   3.327  0.3231  0.3935 -1.0258
  159MOL0     H21431   7.040  -1.885   3.336  0.3334 -1.8011 -2.1449
  159MOL0     H21432   6.927  -1.786   3.233  0.1380 -1.2070 -1.0148
  159MOL0     H21433   7.134  -1.812   3.059  0.1392  0.7776  0.7398
  159MOL0     H21434   7.157  -1.955   3.162 -0.7051 -0.4267  1.3231
  159MOL0     H21435   6.914  -1.854   3.032 -2.6149 -1.2889  3.1867
  159MOL0     H21436   6.929  -2.015   3.103 -2.4972  1.1297 -1.5664
  159MOL0     H21437   7.110  -2.052   2.896 -0.9358 -0.8001 -0.1979
  159MOL0     H21438   7.031  -1.904   2.838 -0.6563 -0.0434  1.2923
  159MOL0     H21439   6.944  -2.099   2.737 -1.3771 -1.5934  0.9891
  159MOL0     H21440   6.937  -2.189   2.885 -0.4484  0.1524  1.2635
  159MOL0     H21441   6.748  -1.996   2.771  1.0641  1.6500  2.1565
  159MOL0     H21442   6.728  -2.030   2.946 -0.8167 -1.4810 -0.1332
  159MOL0     H21443   6.718  -2.264   2.885 -2.4016 -1.9506 -1.5362
  159MOL0     H21444   6.586  -2.161   2.825  0.8152 -1.0415  0.8878
  159MOL0     H21445   7.302  -1.481   3.346  1.6965  1.2027  1.0252
  159MOL0     H21446   7.336  -1.245   3.360  0.9193 -1.0248  2.1223
  159MOL0     H21447   7.201  -0.830   3.402  1.2756 -0.3803  0.1935
  159MOL0     H21448   7.190  -0.584   3.436 -0.3837 -0.3878 -0.1684
  159MOL0     H21449   5.901   0.135   3.858  0.9592 -1.9187 -0.1196
  159MOL0     H21450   5.799   0.097   4.080  1.7379 -1.2207 -0.7827
  159MOL0     H21451   5.402   0.462   4.316  0.5443 -1.6617 -0.6724
  159MOL0     H21452   5.341   0.490   4.544  1.2231  0.9050 -0.0534
  159MOL0     H21453   5.399   0.178   4.836 -0.6232 -0.9827 -0.4033
  159MOL0     H21454   5.246   0.118   4.810  0.5309 -0.2177  0.2648
  159MOL0     H21455   5.229   0.197   5.007 -0.9296 -1.0266 -1.8642
  159MOL0     H21456   5.149   0.325   4.919  0.6002 -0.2052 -0.2579
  159MOL0     H21457   5.359   0.464   4.925 -0.6536 -0.4319 -3.1664
  159MOL0     H21458   5.445   0.332   5.021 -0.2845  3.5003  2.6104
  159MOL0     H21459   5.217   0.363   5.171  2.5018 -1.4575  1.2603
  159MOL0     H21460   5.373   0.435   5.200  0.7351  1.9349 -1.2879
  159MOL0     H21461   5.215   0.794   5.126 -0.9448  0.2641 -0.2124
  159MOL0     H21462   5.362   0.077   4.628 -1.5915  1.6727  1.9769
  159MOL0     H21463   5.446  -0.053   4.323  0.6678  1.0749 -1.5381
  159MOL0     H21464   5.605  -0.004   4.385 -0.6681 -2.3044  0.5733
  159MOL0     H21465   5.481  -0.061   4.494  0.6414  0.7131  0.9080
  160MOL0     O21466   9.742   7.188   0.978 -0.4326  0.7275  0.5855
  160MOL0     C21467   9.709   7.069   1.012  0.0636  0.2149 -0.9494
  160MOL0     O21468   9.586   7.015   1.005  0.5627  0.0819 -0.2276
  160MOL0     C21469   9.477   7.094   0.971  1.0135  0.3336 -0.2581
  160MOL0     C21470   9.446   7.223   1.028  0.3488 -0.2893 -0.2305
  160MOL0     C21471   9.332   7.300   1.003  0.0366 -0.2420  0.0941
  160MOL0     C21472   9.256   7.259   0.895  0.3282 -0.4307 -0.4610
  160MOL0     O21473   9.162   7.351   0.868 -0.4740 -0.1715  0.2138
  160MOL0     C21474   9.040   7.317   0.800 -0.2041  0.2678  0.4001
  160MOL0     C21475   8.929   7.415   0.810 -1.0883  0.5239  0.5491
  160MOL0     C21476   8.810   7.382   0.720  0.0570 -0.7331  0.6633
  160MOL0     C21477   8.717   7.503   0.688 -0.0938 -1.0552  0.3989
  160MOL0     C21478   8.584   7.473   0.620 -0.3330  0.1343  0.5957
  160MOL0     C21479   8.596   7.431   0.476  0.3609 -0.0998 -0.5105
  160MOL0     C21480   8.462   7.359   0.417  0.2665 -0.4918 -0.9942
  160MOL0     C21481   8.359   7.471   0.402 -1.2200 -0.3422  0.3782
  160MOL0     N21482   8.234   7.424   0.352  0.7266 -0.2388 -0.1238
  160MOL0     C21483   8.225   7.373   0.222  0.4874 -0.3301  0.4127
  160MOL0     C21484   8.114   7.300   0.209 -1.0585  0.2108  0.1491
  160MOL0     C21485   8.069   7.229   0.082  0.0646 -0.3208  0.1902
  160MOL0     C21486   7.938   7.290   0.030  0.2290 -0.5252  0.0972
  160MOL0     C21487   7.921   7.283  -0.126  0.2716  0.2158 -0.5381
  160MOL0     C21488   7.884   7.137  -0.166  1.5256 -0.2443  0.1868
  160MOL0     O21489   7.750   7.095  -0.116 -0.8414 -0.2149 -0.3125
  160MOL0     C21490   7.627   7.130  -0.170  0.7491  0.1704 -0.0902
  160MOL0     C21491   7.605   7.231  -0.262 -0.6306  1.5148  0.6551
  160MOL0     C21492   7.476   7.269  -0.299  0.4893 -0.5881 -0.5992
  160MOL0     C21493   7.367   7.200  -0.248  0.9315 -0.9520 -1.3358
  160MOL0     C21494   7.229   7.232  -0.300  0.0706 -0.1402  0.0286
  160MOL0     O21495   7.205   7.350  -0.369  0.5894  0.4863 -0.0342
  160MOL0     C21496   7.090   7.382  -0.433  0.4051  0.1433 -1.4728
  160MOL0     C21497   7.033   7.507  -0.425  0.5493  0.1475 -0.1057
  160MOL0     C21498   6.903   7.530  -0.492 -0.1499  0.0518 -1.0880
  160MOL0     C21499   6.853   7.438  -0.575 -0.3516 -0.8217 -0.2916
  160MOL0     O21500   6.743   7.476  -0.649  0.3264 -0.0724 -0.6140
  160MOL0     C21501   6.620   7.529  -0.593 -0.1890  0.0178 -0.6153
  160MOL0     C21502   6.506   7.439  -0.645  0.9307 -0.0363 -0.3961
  160MOL0     C21503   6.535   7.290  -0.608  0.4123 -0.8973  0.3576
  160MOL0     C21504   6.451   7.192  -0.702  0.0056  0.8536  0.1968
  160MOL0     C21505   6.417   7.066  -0.623  0.3390 -0.2254 -0.8981
  160MOL0     C21506   6.352   6.953  -0.693  0.1973 -0.5893 -0.2845
  160MOL0     C21507   6.195   6.980  -0.705  0.7826  0.7172 -0.1464
  160MOL0     C21508   6.105   6.859  -0.736 -0.6791 -0.0534  0.6400
  160MOL0    Cl21509   6.119   6.733  -0.604  0.1801  0.4706 -0.0484
  160MOL0     C21510   6.924   7.311  -0.590 -0.1300 -0.3911  0.0664
  160MOL0     C21511   7.037   7.284  -0.519  0.4344  0.6668 -0.6249
  160MOL0     O21512   7.149   7.144  -0.282 -0.3831 -0.0670 -0.0512
  160MOL0     C21513   7.394   7.099  -0.151 -0.4949  0.3181 -0.7629
  160MOL0     C21514   7.517   7.072  -0.107  0.3856  0.1191 -0.4323
  160MOL0     N21515   8.054   7.295   0.333 -0.1817 -0.1582  0.0674
  160MOL0     N21516   8.128   7.375   0.413  0.3387 -0.1208 -0.4021
  160MOL0     C21517   9.270   7.137   0.836 -0.1244 -0.2847 -1.0814
  160MOL0     C21518   9.380   7.054   0.874 -0.2912  0.8431 -0.7759
  160MOL0     C21519   9.826   6.986   1.057 -0.1061  0.4477  0.5312
  160MOL0     C21520   9.936   7.052   1.109  0.8657 -0.4380 -0.6040
  160MOL0     C21521  10.054   6.988   1.134 -0.3276 -0.6476 -0.3355
  160MOL0     C21522  10.060   6.852   1.121  0.3568  0.0973 -0.7380
  160MOL0     O21523  10.185   6.805   1.145 -0.3758  0.0178 -0.1485
  160MOL0     C21524  10.220   6.668   1.139 -0.3758  0.0757 -0.6869
  160MOL0     C21525  10.368   6.658   1.171 -0.3582 -1.1387 -0.2828
  160MOL0     C21526  10.430   6.519   1.156  0.7101 -0.0690 -0.5756
  160MOL0     C21527  10.582   6.515   1.154 -0.0081  1.1047  0.4530
  160MOL0     C21528  10.642   6.601   1.053 -0.5581  0.8199  0.9096
  160MOL0     C21529  10.689   6.679   0.973  0.0367 -0.3766  0.7699
  160MOL0     C21530   9.942   6.787   1.074 -0.9245 -0.9026 -0.0467
  160MOL0     C21531   9.838   6.848   1.031 -0.0080 -0.2560 -0.0665
  160MOL0     C21532   9.740   6.765   0.951 -0.0420  0.0681 -0.4360
  160MOL0     H21533   9.510   7.256   1.109  2.7418 -1.3551 -1.5867
  160MOL0     H21534   9.299   7.383   1.065 -1.2551  0.4643 -1.4776
  160MOL0     H21535   9.069   7.316   0.694 -2.0451  0.1923 -0.1325
  160MOL0     H21536   9.008   7.220   0.838  0.5583 -0.5184 -0.8974
  160MOL0     H21537   8.974   7.506   0.770  0.0466 -0.4988 -0.6136
  160MOL0     H21538   8.896   7.432   0.913  2.0977  0.8927  1.6199
  160MOL0     H21539   8.736   7.321   0.774 -1.9067  0.0094 -1.0682
  160MOL0     H21540   8.842   7.329   0.630  0.7299  2.3784 -1.0493
  160MOL0     H21541   8.694   7.565   0.775 -0.8383  0.2404 -0.6810
  160MOL0     H21542   8.781   7.559   0.619  0.5644 -1.4745  0.6542
  160MOL0     H21543   8.545   7.389   0.678  0.7473 -1.2917 -0.6666
  160MOL0     H21544   8.521   7.561   0.632 -0.4229 -0.1885  3.2170
  160MOL0     H21545   8.635   7.508   0.409  1.3375 -1.2555 -1.3057
  160MOL0     H21546   8.667   7.350   0.464 -0.2201 -0.6959 -0.0171
  160MOL0     H21547   8.427   7.282   0.486 -0.1059  1.5123  1.1936
  160MOL0     H21548   8.484   7.324   0.315 -0.3801 -0.4362 -1.1588
  160MOL0     H21549   8.352   7.518   0.500  0.1617 -2.0981  1.3906
  160MOL0     H21550   8.405   7.534   0.325  0.9308 -0.2826  1.6281
  160MOL0     H21551   8.283   7.395   0.133 -5.4230 -5.0290 -5.6793
  160MOL0     H21552   8.149   7.224   0.008 -0.8492 -1.5540 -0.7552
  160MOL0     H21553   8.041   7.126   0.103 -3.1082  0.7438  1.7667
  160MOL0     H21554   7.849   7.240   0.069  0.0778 -0.1016  0.3031
  160MOL0     H21555   7.959   7.393   0.062 -0.4107 -1.2720  3.1778
  160MOL0     H21556   8.014   7.323  -0.167  0.3586  0.5331 -0.0386
  160MOL0     H21557   7.841   7.354  -0.147 -0.8555 -0.3794  1.4813
  160MOL0     H21558   7.962   7.067  -0.134 -0.2178 -2.1187  0.6098
  160MOL0     H21559   7.872   7.138  -0.275  2.3139 -0.2355  0.0949
  160MOL0     H21560   7.690   7.291  -0.293  0.6338 -1.5793 -2.4505
  160MOL0     H21561   7.469   7.352  -0.368  0.9758 -0.1437 -0.1299
  160MOL0     H21562   7.080   7.572  -0.351 -0.3603 -1.0240  1.5626
  160MOL0     H21563   6.856   7.627  -0.477 -1.1911 -0.2894 -1.9769
  160MOL0     H21564   6.633   7.505  -0.487  4.9913 -0.5964 -1.1463
  160MOL0     H21565   6.602   7.636  -0.607 -2.9478 -0.3890 -0.6627
  160MOL0     H21566   6.418   7.471  -0.590 -0.2695 -2.4500 -0.7648
  160MOL0     H21567   6.496   7.453  -0.753  1.6861 -0.5371 -0.5441
  160MOL0     H21568   6.637   7.257  -0.628  1.1519 -0.1459  2.5893
  160MOL0     H21569   6.509   7.275  -0.502 -1.1161 -1.6033 -0.0897
  160MOL0     H21570   6.514   7.162  -0.786  2.3214 -2.0455  2.7338
  160MOL0     H21571   6.350   7.223  -0.730 -0.2678  0.5692  0.8529
  160MOL0     H21572   6.362   7.084  -0.530  0.0221  0.0935 -1.1451
  160MOL0     H21573   6.512   7.030  -0.584  0.8431  0.1238 -1.7808
  160MOL0     H21574   6.390   6.944  -0.796  0.4254  1.9752 -0.5091
  160MOL0     H21575   6.373   6.866  -0.632  0.6722 -0.0939  0.2721
  160MOL0     H21576   6.184   7.059  -0.779  3.4624 -0.8398 -2.4364
  160MOL0     H21577   6.151   7.015  -0.611  0.5117 -2.0745  0.8979
  160MOL0     H21578   6.001   6.888  -0.749 -0.9767 -1.8293 -1.4779
  160MOL0     H21579   6.143   6.818  -0.830  2.7612  2.6392  0.6503
  160MOL0     H21580   6.891   7.235  -0.661 -0.5684 -0.7976  0.6880
  160MOL0     H21581   7.080   7.185  -0.511  0.6811  0.8912  1.4567
  160MOL0     H21582   7.307   7.053  -0.106 -2.0472  1.9313 -1.9476
  160MOL0     H21583   7.541   6.992  -0.038 -0.5629 -0.7387 -1.0750
  160MOL0     H21584   9.208   7.086   0.763 -0.3375 -1.5545 -0.0443
  160MOL0     H21585   9.380   6.960   0.821 -3.5902  0.9981 -1.2793
  160MOL0     H21586   9.932   7.160   1.124 -2.2469 -0.4574 -0.5417
  160MOL0     H21587  10.146   7.038   1.166  2.1170 -3.0340 -3.0871
  160MOL0     H21588  10.211   6.631   1.036 -0.0580 -3.4186  0.4052
  160MOL0     H21589  10.168   6.602   1.209 -0.6457  0.0844 -0.8756
  160MOL0     H21590  10.385   6.695   1.273  0.3089 -1.2683 -0.3400
  160MOL0     H21591  10.426   6.716   1.100  0.2399  0.0774  1.1392
  160MOL0     H21592  10.393   6.485   1.058 -0.2458 -1.5873  0.2785
  160MOL0     H21593  10.384   6.449   1.226  0.9731 -1.6694 -1.9279
  160MOL0     H21594  10.616   6.544   1.253 -0.2980  4.7211 -0.3835
  160MOL0     H21595  10.607   6.412   1.124 -0.7736  1.7947 -3.0093
  160MOL0     H21596  10.710   6.750   0.896 -0.3874  0.9093  1.7984
  160MOL0     H21597   9.947   6.678   1.073  1.8187 -0.8429  0.5062
  160MOL0     H21598   9.652   6.740   1.011 -1.1396 -1.2839 -2.4945
  160MOL0     H21599   9.711   6.808   0.855  0.7869  0.6638 -0.4254
  160MOL0     H21600   9.782   6.671   0.913  3.0362  2.2369 -2.8582
  161MOL0     O21601   1.682   1.400   2.079 -0.2710  0.3399  0.3159
  161MOL0     C21602   1.646   1.507   2.041 -0.6443  0.2410 -0.3960
  161MOL0     O21603   1.663   1.620   2.113  0.8095 -0.7575  0.4181
  161MOL0     C21604   1.771   1.621   2.196 -0.1594 -0.2310  0.1253
  161MOL0     C21605   1.759   1.579   2.326  0.1782 -0.7732 -0.8144
  161MOL0     C21606   1.859   1.577   2.426  0.2256 -0.4029  0.3484
  161MOL0     C21607   1.986   1.615   2.385 -0.9311  0.4616  0.2159
  161MOL0     O21608   2.075   1.615   2.487  1.0793  0.0074  0.5793
  161MOL0     C21609   2.213   1.620   2.439 -0.2911 -0.1491  0.5530
  161MOL0     C21610   2.297   1.568   2.547  0.3790  0.5327 -0.3458
  161MOL0     C21611   2.434   1.543   2.504  0.6567  0.2525  0.9084
  161MOL0     C21612   2.455   1.404   2.454 -0.2531 -0.2768  0.0668
  161MOL0     C21613   2.607   1.364   2.425  0.2535 -0.7753 -0.2866
  161MOL0     C21614   2.674   1.451   2.316 -0.2089 -0.1505  0.8610
  161MOL0     C21615   2.625   1.454   2.170 -0.0081 -0.3213 -0.6709
  161MOL0     C21616   2.682   1.342   2.101 -0.1924  0.2282  0.1950
  161MOL0     N21617   2.626   1.341   1.963  0.4146  0.0547  0.1120
  161MOL0     C21618   2.577   1.230   1.894  0.2454  0.2743 -0.5808
  161MOL0     C21619   2.540   1.269   1.770  0.1351 -0.1146  0.4210
  161MOL0     C21620   2.483   1.183   1.655  0.0806  0.2303  0.3686
  161MOL0     C21621   2.336   1.184   1.631 -0.0319 -0.3253  0.1979
  161MOL0     C21622   2.284   1.072   1.544 -0.5192  0.8456  0.0815
  161MOL0     C21623   2.151   1.101   1.485  0.4165  1.1630  0.2479
  161MOL0     O21624   2.050   1.109   1.581 -0.3998  0.0318 -0.1834
  161MOL0     C21625   1.968   1.001   1.597  0.1005 -0.7603 -0.0061
  161MOL0     C21626   1.876   0.999   1.701 -0.1780 -0.5895  0.0781
  161MOL0     C21627   1.788   0.897   1.727  0.4919 -0.1781  0.4777
  161MOL0     C21628   1.791   0.775   1.649  0.2655 -0.4501  0.2810
  161MOL0     C21629   1.694   0.660   1.683 -0.6297 -0.3613 -0.0824
  161MOL0     O21630   1.602   0.668   1.785 -1.1438 -0.2772 -0.1011
  161MOL0     C21631   1.501   0.573   1.784 -0.7960 -0.2971  0.1528
  161MOL0     C21632   1.482   0.516   1.909  0.2381 -0.0985  0.1279
  161MOL0     C21633   1.374   0.423   1.923 -0.0509 -0.3694 -0.1998
  161MOL0     C21634   1.285   0.393   1.818 -1.9015 -0.7982  0.0530
  161MOL0     O21635   1.184   0.293   1.837 -0.1469 -0.4075  0.5066
  161MOL0     C21636   1.140   0.220   1.725  0.2887  0.7399  0.3020
  161MOL0     C21637   1.008   0.273   1.660  0.3231 -0.5587 -0.1130
  161MOL0     C21638   0.903   0.313   1.768  0.2873  0.8494  0.6256
  161MOL0     C21639   0.825   0.441   1.728  0.4137  1.1632  1.3583
  161MOL0     C21640   0.736   0.505   1.835 -0.5110 -0.2037  0.4822
  161MOL0     C21641   0.808   0.569   1.952  0.4664  0.3005  0.6717
  161MOL0     C21642   0.921   0.663   1.921 -0.5826 -0.4426 -0.4949
  161MOL0     C21643   0.992   0.723   2.053  0.1243 -0.4681 -0.0491
  161MOL0    Cl21644   1.153   0.798   2.004 -0.2503  0.3560  0.0931
  161MOL0     C21645   1.304   0.458   1.696 -0.5992  0.1823 -0.1173
  161MOL0     C21646   1.413   0.552   1.680  0.1954  0.9459  0.2332
  161MOL0     O21647   1.714   0.557   1.615 -0.0031  0.3987 -0.6718
  161MOL0     C21648   1.888   0.772   1.541  0.7018 -0.5544 -0.1697
  161MOL0     C21649   1.976   0.883   1.518  0.2387 -0.1609 -0.4264
  161MOL0     N21650   2.567   1.410   1.761  0.1280 -0.8588 -0.3057
  161MOL0     N21651   2.607   1.449   1.882 -0.5734 -0.0012  1.7574
  161MOL0     C21652   2.008   1.648   2.253 -0.8498  0.3883 -0.3892
  161MOL0     C21653   1.902   1.648   2.159 -0.3505 -1.5764 -1.3442
  161MOL0     C21654   1.576   1.511   1.913 -0.4636 -0.1841  0.0587
  161MOL0     C21655   1.540   1.380   1.864  0.2155  0.4396 -0.4280
  161MOL0     C21656   1.468   1.376   1.746 -0.0957  0.2774 -0.2763
  161MOL0     C21657   1.423   1.494   1.678 -0.2396  0.9469  0.3457
  161MOL0     O21658   1.335   1.478   1.582  0.4793 -0.9950 -0.8495
  161MOL0     C21659   1.214   1.436   1.631  0.6676  0.3874 -0.1933
  161MOL0     C21660   1.094   1.518   1.561 -0.8756 -0.1894 -0.2346
  161MOL0     C21661   1.095   1.525   1.408  0.8996 -0.7423  0.1353
  161MOL0     C21662   1.108   1.393   1.338  0.3531 -0.5880  0.1277
  161MOL0     C21663   0.999   1.288   1.366  0.0128  0.6442  0.2823
  161MOL0     C21664   0.938   1.190   1.411  0.6532 -0.7692  0.7264
  161MOL0     C21665   1.460   1.622   1.727  1.3536 -0.0305 -0.5694
  161MOL0     C21666   1.541   1.632   1.842  0.1962 -1.1717 -0.5752
  161MOL0     C21667   1.604   1.768   1.868 -0.0685  0.9860 -0.0714
  161MOL0     H21668   1.663   1.536   2.354 -0.4553  0.9550 -0.1685
  161MOL0     H21669   1.843   1.534   2.524 -0.8643  0.7483  0.7004
  161MOL0     H21670   2.236   1.561   2.349  0.1544 -1.9537  1.7856
  161MOL0     H21671   2.248   1.722   2.421  0.9708 -0.5023  0.8873
  161MOL0     H21672   2.262   1.479   2.599  0.8951  0.0141 -0.8588
  161MOL0     H21673   2.304   1.648   2.621  0.0965 -0.1417  0.4247
  161MOL0     H21674   2.494   1.566   2.593 -3.1892 -0.1565  3.9263
  161MOL0     H21675   2.463   1.615   2.427 -1.6204 -0.9844 -1.2637
  161MOL0     H21676   2.426   1.332   2.531 -2.3128  0.7246  0.2839
  161MOL0     H21677   2.397   1.396   2.362  1.0944 -0.6322 -0.7844
  161MOL0     H21678   2.665   1.375   2.517 -0.1147 -2.3410  0.1598
  161MOL0     H21679   2.604   1.260   2.392 -3.1013 -0.6761 -0.6354
  161MOL0     H21680   2.672   1.553   2.356 -0.8471 -0.2999  1.2222
  161MOL0     H21681   2.781   1.429   2.320  1.2252  4.5907 -2.2120
  161MOL0     H21682   2.668   1.547   2.131  2.1980 -0.1414  1.8394
  161MOL0     H21683   2.517   1.445   2.163 -0.1297 -0.2745  0.7106
  161MOL0     H21684   2.791   1.337   2.113 -0.4950 -3.5847  3.4435
  161MOL0     H21685   2.651   1.246   2.144  0.2898 -1.2705 -2.5352
  161MOL0     H21686   2.577   1.127   1.927  1.1808  0.0690 -1.1851
  161MOL0     H21687   2.524   1.237   1.569  1.9140 -1.6708 -0.0341
  161MOL0     H21688   2.520   1.080   1.665  0.4737  0.1492 -1.5124
  161MOL0     H21689   2.275   1.191   1.722 -0.8081 -1.4216 -0.2120
  161MOL0     H21690   2.325   1.282   1.583 -0.3383  0.6480  2.1405
  161MOL0     H21691   2.266   0.977   1.596  2.1314 -0.6096 -1.4001
  161MOL0     H21692   2.352   1.055   1.460 -0.5596 -0.0587  0.2157
  161MOL0     H21693   2.138   1.022   1.410 -1.0123 -1.4978  3.0685
  161MOL0     H21694   2.147   1.191   1.423  1.5018  1.1191  0.0873
  161MOL0     H21695   1.865   1.087   1.764  0.7888  0.5771 -1.3056
  161MOL0     H21696   1.702   0.901   1.794  0.1232 -2.6283  0.2610
  161MOL0     H21697   1.548   0.543   1.991 -2.4750  0.0201  2.4605
  161MOL0     H21698   1.373   0.373   2.019 -0.2036  1.7371  0.9627
  161MOL0     H21699   1.211   0.218   1.642 -0.9697  0.3086 -0.8062
  161MOL0     H21700   1.124   0.115   1.753  1.0581  0.2449 -0.9967
  161MOL0     H21701   1.028   0.364   1.603  5.3216  0.8367  3.1767
  161MOL0     H21702   0.973   0.186   1.603 -1.6411 -2.9630  4.2553
  161MOL0     H21703   0.828   0.234   1.782  1.6923 -0.1564  2.9982
  161MOL0     H21704   0.944   0.315   1.869  1.5466  1.2821  0.1278
  161MOL0     H21705   0.762   0.401   1.649  0.4373  2.1653  0.8065
  161MOL0     H21706   0.894   0.518   1.692  1.7264 -1.3477 -2.0058
  161MOL0     H21707   0.663   0.433   1.873 -0.7639 -0.2305 -0.0495
  161MOL0     H21708   0.677   0.581   1.784  1.4283  1.4072  0.5287
  161MOL0     H21709   0.736   0.622   2.015  0.3888 -1.7176  2.3940
  161MOL0     H21710   0.855   0.495   2.017  4.0297  2.9721  1.3747
  161MOL0     H21711   0.890   0.742   1.852 -1.4875 -0.7037 -0.3884
  161MOL0     H21712   0.997   0.607   1.866 -1.8225 -0.3240 -2.4297
  161MOL0     H21713   0.927   0.799   2.096  2.3099  0.9058  1.0330
  161MOL0     H21714   1.019   0.642   2.122  0.4967 -0.7149 -0.4773
  161MOL0     H21715   1.230   0.445   1.618  0.2213  1.5802 -1.1565
  161MOL0     H21716   1.435   0.605   1.588 -0.0807  3.2042  1.4173
  161MOL0     H21717   1.881   0.690   1.471  0.5472  0.2168 -1.0810
  161MOL0     H21718   2.034   0.870   1.427 -1.9549  0.9052 -2.0762
  161MOL0     H21719   2.109   1.660   2.214  0.1716 -2.4519  1.1278
  161MOL0     H21720   1.920   1.675   2.056  1.2042  3.0277 -0.1134
  161MOL0     H21721   1.562   1.287   1.915  3.1331  2.4951  2.4979
  161MOL0     H21722   1.453   1.273   1.718  0.7331  0.2291 -0.5641
  161MOL0     H21723   1.202   1.425   1.739 -0.3867 -1.0820 -0.4350
  161MOL0     H21724   1.190   1.337   1.591 -1.3508  0.3621  0.9632
  161MOL0     H21725   1.087   1.611   1.618 -1.6393 -0.0327 -0.5779
  161MOL0     H21726   1.009   1.456   1.592 -0.6140  1.2694  3.9720
  161MOL0     H21727   1.186   1.582   1.388  0.4800  0.4713  1.4535
  161MOL0     H21728   1.011   1.586   1.373  0.5131 -1.5378 -0.3372
  161MOL0     H21729   1.107   1.409   1.230  2.7939  0.1607  0.1629
  161MOL0     H21730   1.207   1.354   1.365 -0.1868 -0.6030  2.2914
  161MOL0     H21731   0.878   1.108   1.445 -2.2063  0.0239 -1.9608
  161MOL0     H21732   1.420   1.701   1.663 -2.3894 -1.8955 -0.7781
  161MOL0     H21733   1.580   1.838   1.787 -1.3607  1.3195  0.5731
  161MOL0     H21734   1.572   1.807   1.965  0.0321  0.5349  0.1457
  161MOL0     H21735   1.712   1.756   1.879 -0.2963  0.8330  2.6636
  162MOL0     O21736  10.446   8.509   8.853 -0.2368 -0.1301  0.8467
  162MOL0     C21737  10.402   8.533   8.964 -0.2539  0.1866 -0.6218
  162MOL0     O21738  10.449   8.626   9.045 -0.2947  0.6718 -0.4455
  162MOL0     C21739  10.562   8.696   9.026 -0.2122  0.2361  0.1696
  162MOL0     C21740  10.687   8.661   9.086 -0.1525  0.8301  0.2706
  162MOL0     C21741  10.796   8.735   9.068 -0.1390 -1.2169 -0.0992
  162MOL0     C21742  10.809   8.841   8.982  0.8024 -0.1629 -0.1800
  162MOL0     O21743  10.931   8.899   8.969  0.7856 -0.7698  0.0366
  162MOL0     C21744  10.936   8.998   8.861 -0.8129 -0.3308 -0.1140
  162MOL0     C21745  11.085   9.030   8.826 -0.9979  0.7066 -0.7343
  162MOL0     C21746  11.160   9.104   8.948 -0.2466  0.2885 -0.1974
  162MOL0     C21747  11.271   9.186   8.886 -0.1365 -0.2466 -0.0829
  162MOL0     C21748  11.353   9.272   8.992 -0.0607  0.1603  0.5706
  162MOL0     C21749  11.480   9.310   8.921  0.0446 -0.1261 -0.7869
  162MOL0     C21750  11.570   9.395   9.001 -0.0800  0.9544  0.1298
  162MOL0     C21751  11.501   9.527   9.022  0.0564  0.0437 -0.1752
  162MOL0     N21752  11.581   9.625   9.104 -0.0211 -0.6022  0.1374
  162MOL0     C21753  11.651   9.607   9.220 -0.0578 -0.4454  0.1237
  162MOL0     C21754  11.722   9.724   9.240  0.5752 -0.8969 -0.1124
  162MOL0     C21755  11.792   9.777   9.362 -0.6840  0.3278  0.1325
  162MOL0     C21756  11.687   9.802   9.471  0.4189 -1.1971 -0.5586
  162MOL0     C21757  11.606   9.926   9.457  0.0066  0.0751 -0.1775
  162MOL0     C21758  11.678  10.057   9.453  0.4739 -0.0610 -0.7976
  162MOL0     O21759  11.750  10.074   9.581 -0.0999  0.5413 -0.8653
  162MOL0     C21760  11.825  10.186   9.585  0.5793  1.1168 -0.3778
  162MOL0     C21761  11.772  10.315   9.583  0.5580  0.4553  0.0861
  162MOL0     C21762  11.859  10.430   9.603  0.4029 -0.2173 -0.2183
  162MOL0     C21763  11.997  10.408   9.612 -0.4007  0.1999  0.0487
  162MOL0     C21764  12.081  10.532   9.638  0.4632 -0.2849 -0.2888
  162MOL0     O21765  12.015  10.660   9.609  0.4248 -0.0401 -0.4099
  162MOL0     C21766  12.101  10.759   9.632  0.6228 -0.1035 -0.5125
  162MOL0     C21767  12.194  10.805   9.528 -0.8391  0.1598  0.3444
  162MOL0     C21768  12.284  10.919   9.560  1.2395 -0.8549 -0.3078
  162MOL0     C21769  12.282  10.984   9.683 -0.7204  0.4770 -0.3370
  162MOL0     O21770  12.378  11.083   9.696 -0.1024  0.6532 -0.9089
  162MOL0     C21771  12.402  11.153   9.814  0.2956  0.6182 -0.8149
  162MOL0     C21772  12.369  11.298   9.804  0.0577 -0.2510 -0.4091
  162MOL0     C21773  12.363  11.373   9.939  0.4545 -0.4031  0.8014
  162MOL0     C21774  12.502  11.429   9.991  0.6648  0.1838 -0.8961
  162MOL0     C21775  12.481  11.522  10.119 -0.1464 -0.3915 -0.5325
  162MOL0     C21776  12.618  11.563  10.180  0.9919  0.6049 -0.7474
  162MOL0     C21777  12.596  11.615  10.318  0.6663 -0.0955  0.2304
  162MOL0     C21778  12.721  11.685  10.358 -0.2485 -0.2376  0.3880
  162MOL0    Cl21779  12.719  11.717  10.530 -0.0858  0.4075  0.1274
  162MOL0     C21780  12.180  10.940   9.776  0.0226 -0.3422  0.0344
  162MOL0     C21781  12.095  10.839   9.748  1.0778 -0.5429 -0.2186
  162MOL0     O21782  12.196  10.510   9.686 -0.4907  0.0507  0.9460
  162MOL0     C21783  12.053  10.278   9.587 -0.5788  0.3200  0.1132
  162MOL0     C21784  11.966  10.166   9.573  0.6514 -0.4437 -0.5878
  162MOL0     N21785  11.698   9.805   9.124 -0.0541 -0.0688  0.7936
  162MOL0     N21786  11.612   9.741   9.046  0.1979 -0.6703  1.4334
  162MOL0     C21787  10.689   8.876   8.918 -0.0182  0.1366  1.6199
  162MOL0     C21788  10.565   8.797   8.932  0.2600  0.0291 -0.2191
  162MOL0     C21789  10.300   8.437   9.023 -0.0621  0.9074 -0.0729
  162MOL0     C21790  10.260   8.458   9.155  0.1418  0.6124  0.0064
  162MOL0     C21791  10.165   8.370   9.219 -0.3227 -0.3518 -0.1064
  162MOL0     C21792  10.133   8.251   9.148 -0.3701 -1.0533  0.5362
  162MOL0     O21793  10.055   8.159   9.218  0.2072 -0.1382 -0.6682
  162MOL0     C21794   9.989   8.047   9.170  0.4726 -0.8498 -0.2302
  162MOL0     C21795   9.942   7.962   9.294  0.3361  1.1828  0.6261
  162MOL0     C21796   9.840   7.843   9.264 -0.3112  0.3124  0.5859
  162MOL0     C21797   9.891   7.745   9.155 -1.1986  1.1318 -0.0931
  162MOL0     C21798   9.789   7.645   9.127  0.0110 -0.3667  0.0643
  162MOL0     C21799   9.710   7.560   9.093  0.1587 -0.3021 -1.1507
  162MOL0     C21800  10.162   8.240   9.015 -0.3173 -0.1971  0.7164
  162MOL0     C21801  10.240   8.324   8.949  0.2168  0.0712 -0.4694
  162MOL0     C21802  10.251   8.301   8.803 -0.5522 -0.7841 -0.5071
  162MOL0     H21803  10.685   8.576   9.154  1.6073 -0.9480 -1.7146
  162MOL0     H21804  10.891   8.705   9.111 -0.4377 -0.8864  0.8159
  162MOL0     H21805  10.907   8.951   8.767 -2.1439  0.8437 -0.3239
  162MOL0     H21806  10.884   9.088   8.895 -0.4966 -0.5159  0.8824
  162MOL0     H21807  11.085   9.089   8.734 -0.5622  0.2231 -1.0480
  162MOL0     H21808  11.142   8.938   8.809 -1.3178 -0.5286  3.6973
  162MOL0     H21809  11.208   9.034   9.017 -1.0536 -0.5661 -0.4780
  162MOL0     H21810  11.088   9.166   9.002  1.3751  1.1844  1.0128
  162MOL0     H21811  11.334   9.113   8.835  2.1861  0.8547  1.0803
  162MOL0     H21812  11.227   9.256   8.814 -0.1710 -0.9704 -0.7794
  162MOL0     H21813  11.287   9.357   9.011  1.1375  2.6470 -4.6537
  162MOL0     H21814  11.367   9.219   9.087  1.5296 -0.2694  0.1352
  162MOL0     H21815  11.532   9.222   8.880  0.0170 -0.4806 -0.0809
  162MOL0     H21816  11.444   9.370   8.837  1.6633  1.2677 -0.5465
  162MOL0     H21817  11.658   9.404   8.936 -0.9146 -0.1230 -1.1998
  162MOL0     H21818  11.604   9.348   9.094 -1.2582 -4.3984 -1.8083
  162MOL0     H21819  11.478   9.583   8.931  0.3842 -0.0565 -0.3226
  162MOL0     H21820  11.413   9.514   9.085 -1.0075  0.8264 -1.4493
  162MOL0     H21821  11.643   9.518   9.282  0.4292 -0.2940  0.4115
  162MOL0     H21822  11.863   9.704   9.402  0.8194  1.6607  0.0169
  162MOL0     H21823  11.863   9.858   9.344  0.8329 -0.7216  1.0966
  162MOL0     H21824  11.620   9.717   9.487 -2.6259  0.8319 -1.8437
  162MOL0     H21825  11.754   9.813   9.557  1.8626 -1.3085 -1.6347
  162MOL0     H21826  11.546   9.928   9.549 -1.3134 -0.8043 -0.9897
  162MOL0     H21827  11.531   9.914   9.379 -0.6691 -3.6391  0.8413
  162MOL0     H21828  11.600  10.133   9.441 -2.3793 -3.0064 -2.6000
  162MOL0     H21829  11.741  10.060   9.364  0.7656  0.7297 -0.5648
  162MOL0     H21830  11.664  10.317   9.569  0.3433  1.4128  1.5776
  162MOL0     H21831  11.812  10.527   9.595 -0.3501 -0.7157 -2.4424
  162MOL0     H21832  12.186  10.757   9.431 -0.1383  0.5147  0.1055
  162MOL0     H21833  12.354  10.959   9.487  1.2883 -0.7877 -0.2251
  162MOL0     H21834  12.349  11.102   9.894  1.4369  0.4862 -0.1081
  162MOL0     H21835  12.506  11.159   9.849 -0.6142  1.3111  2.0338
  162MOL0     H21836  12.437  11.344   9.732  0.6183  0.4485  0.5401
  162MOL0     H21837  12.266  11.312   9.771 -0.1679  5.1686  1.4874
  162MOL0     H21838  12.298  11.459   9.917 -0.0942 -0.7556  1.0351
  162MOL0     H21839  12.327  11.311  10.022  2.5902 -1.2990  1.1121
  162MOL0     H21840  12.552  11.497   9.922  1.7566  1.4796  1.0496
  162MOL0     H21841  12.570  11.348  10.020  1.2455 -0.0443 -2.8048
  162MOL0     H21842  12.426  11.473  10.200  0.8418 -0.6531  0.0007
  162MOL0     H21843  12.416  11.607  10.096  0.3440 -0.0682 -0.7343
  162MOL0     H21844  12.674  11.469  10.193  0.7755  0.1270 -2.8810
  162MOL0     H21845  12.666  11.629  10.107  0.1176  0.6275 -1.3181
  162MOL0     H21846  12.585  11.525  10.379  0.1800 -1.1238 -1.3050
  162MOL0     H21847  12.515  11.688  10.320  0.9701  0.3692  4.2007
  162MOL0     H21848  12.810  11.623  10.341 -0.6267 -1.2426  1.8963
  162MOL0     H21849  12.736  11.774  10.296  1.9990 -0.5776  0.3541
  162MOL0     H21850  12.164  11.005   9.861 -0.6288 -0.8211  0.2804
  162MOL0     H21851  12.010  10.819   9.813  0.9361  3.2592  1.0103
  162MOL0     H21852  12.161  10.268   9.598 -0.7497 -2.0648  0.0714
  162MOL0     H21853  11.999  10.066   9.545  1.3062 -0.2776 -0.4303
  162MOL0     H21854  10.681   8.950   8.839 -3.1341 -0.4344  1.2539
  162MOL0     H21855  10.473   8.824   8.883 -1.0136 -0.9210  1.5468
  162MOL0     H21856  10.293   8.549   9.203  1.9699  0.9110 -1.6928
  162MOL0     H21857  10.130   8.402   9.317  0.8531  0.8499 -0.0431
  162MOL0     H21858  10.060   7.995   9.105  1.3985  0.4669 -0.2853
  162MOL0     H21859   9.906   8.073   9.104  1.4068  0.1859 -1.0122
  162MOL0     H21860   9.896   8.032   9.364 -0.0899  1.0451  0.4861
  162MOL0     H21861  10.026   7.913   9.344 -0.4126 -0.3146  0.4710
  162MOL0     H21862   9.752   7.889   9.217  0.2095  3.1813  2.1822
  162MOL0     H21863   9.813   7.790   9.356 -0.0516  0.4470  0.7416
  162MOL0     H21864   9.936   7.795   9.068  2.3059  0.4593  1.1729
  162MOL0     H21865   9.973   7.702   9.213 -0.4504 -0.5666 -2.2688
  162MOL0     H21866   9.633   7.492   9.065 -1.2798 -0.0887  1.8540
  162MOL0     H21867  10.107   8.160   8.966 -0.9874  2.4854 -3.4348
  162MOL0     H21868  10.235   8.402   8.764  0.1978 -1.1608 -1.8643
  162MOL0     H21869  10.340   8.266   8.748  0.5010 -0.9118  1.2125
  162MOL0     H21870  10.174   8.236   8.761 -2.3345  0.4154  0.8039
  163MOL0     O21871   0.694  10.009   3.467 -0.3976 -0.0612 -0.2887
  163MOL0     C21872   0.703   9.881   3.494 -0.3472  0.0540  0.4685
  163MOL0     O21873   0.815   9.797   3.472 -0.0591  0.1193  0.4968
  163MOL0     C21874   0.919   9.872   3.427  0.2284  0.3097  1.3211
  163MOL0     C21875   1.018   9.896   3.512  0.9794  0.5055 -0.2827
  163MOL0     C21876   1.127   9.973   3.473  0.3110  0.6972 -0.2089
  163MOL0     C21877   1.131  10.042   3.353  0.2206  0.8838  0.0278
  163MOL0     O21878   1.241  10.129   3.325  1.0152  0.3934 -0.1649
  163MOL0     C21879   1.274  10.145   3.193 -0.1084 -0.4265  0.0829
  163MOL0     C21880   1.346  10.018   3.135  0.2797 -0.4229  0.9282
  163MOL0     C21881   1.467   9.987   3.214  0.0506  0.4846 -0.4320
  163MOL0     C21882   1.578   9.922   3.137  0.9033  0.2736 -1.0054
  163MOL0     C21883   1.709   9.926   3.218 -0.3715 -0.0951  0.0790
  163MOL0     C21884   1.712   9.853   3.356 -0.7562  0.2176 -0.3920
  163MOL0     C21885   1.865   9.811   3.399 -0.5233 -0.2467 -0.2190
  163MOL0     C21886   1.930   9.699   3.327 -0.5741 -0.4946  0.3948
  163MOL0     N21887   2.082   9.686   3.340  0.6583 -0.2829  0.2958
  163MOL0     C21888   2.143   9.564   3.378 -0.3711  0.1038 -0.5218
  163MOL0     C21889   2.273   9.595   3.351 -0.0394  0.2045 -0.2125
  163MOL0     C21890   2.382   9.496   3.361  0.2380  0.1532  0.2342
  163MOL0     C21891   2.380   9.375   3.267  0.2339  0.0489  0.3028
  163MOL0     C21892   2.371   9.404   3.113 -0.5261  0.4328  1.1426
  163MOL0     C21893   2.237   9.445   3.059  0.0800 -0.0801  0.3701
  163MOL0     O21894   2.129   9.357   3.124 -0.5385  0.4645  0.5918
  163MOL0     C21895   1.998   9.384   3.108  0.2117  0.2602  1.0756
  163MOL0     C21896   1.912   9.320   3.188 -0.3201 -1.0810 -0.9477
  163MOL0     C21897   1.775   9.346   3.206 -0.4045  0.2635  0.3228
  163MOL0     C21898   1.728   9.452   3.121 -0.1587 -0.3799 -0.6880
  163MOL0     C21899   1.578   9.475   3.122 -0.1556 -0.3514 -1.8058
  163MOL0     O21900   1.501   9.389   3.204  0.4560 -0.8833 -0.0577
  163MOL0     C21901   1.364   9.404   3.214  0.2222 -1.1426 -0.2004
  163MOL0     C21902   1.296   9.285   3.248 -0.0447 -0.3992 -0.9159
  163MOL0     C21903   1.152   9.288   3.258  0.0893  0.2233 -0.7799
  163MOL0     C21904   1.083   9.404   3.236  0.5518 -0.0506 -0.6442
  163MOL0     O21905   0.945   9.404   3.237 -0.2389  1.0590  0.3722
  163MOL0     C21906   0.896   9.471   3.353  0.1382  0.0847  0.5667
  163MOL0     C21907   0.754   9.446   3.374 -0.0749 -0.3600  0.2584
  163MOL0     C21908   0.670   9.516   3.264 -0.1554 -0.1959  0.1848
  163MOL0     C21909   0.641   9.437   3.133 -0.9338 -0.1256  0.5284
  163MOL0     C21910   0.568   9.509   3.019  0.1386 -0.0812  0.2949
  163MOL0     C21911   0.438   9.581   3.046  0.0157  0.8194  0.4116
  163MOL0     C21912   0.315   9.481   3.039 -0.6056 -0.4995 -0.3883
  163MOL0     C21913   0.194   9.527   3.120 -0.1818  0.0399  0.4574
  163MOL0    Cl21914   0.061   9.420   3.084  0.1028 -0.2000 -0.0110
  163MOL0     C21915   1.150   9.523   3.201 -0.7774  0.1477 -1.2160
  163MOL0     C21916   1.288   9.525   3.192  0.3572 -0.3883 -0.1720
  163MOL0     O21917   1.530   9.558   3.054  0.6634 -0.1818  0.5141
  163MOL0     C21918   1.807   9.518   3.031 -0.6717  0.3109  0.1733
  163MOL0     C21919   1.948   9.494   3.032  0.4250  0.3949  0.5343
  163MOL0     N21920   2.283   9.726   3.305  0.1902  0.1665  0.9331
  163MOL0     N21921   2.168   9.783   3.308 -0.0948  0.8599 -0.1775
  163MOL0     C21922   1.020  10.031   3.267 -0.6774 -0.4929  0.4445
  163MOL0     C21923   0.924   9.935   3.302  0.0772  0.3228  0.1804
  163MOL0     C21924   0.582   9.811   3.541 -0.0785 -1.2684 -1.1512
  163MOL0     C21925   0.578   9.750   3.667 -0.0291  0.0453 -0.8259
  163MOL0     C21926   0.463   9.690   3.711 -0.5157  0.1756 -0.2553
  163MOL0     C21927   0.347   9.688   3.638  0.1426  0.2193  0.4278
  163MOL0     O21928   0.231   9.630   3.682 -0.0016 -0.0939  0.6807
  163MOL0     C21929   0.189   9.504   3.621 -1.1145  0.0157 -0.5082
  163MOL0     C21930   0.093   9.520   3.515  1.3926 -1.1927 -0.5232
  163MOL0     C21931   0.028   9.387   3.463 -0.6362 -0.6874  0.0240
  163MOL0     C21932  -0.051   9.309   3.569 -0.6339  1.3237  0.7243
  163MOL0     C21933  -0.136   9.389   3.652  1.0003  0.4277  0.9093
  163MOL0     C21934  -0.198   9.465   3.731 -0.0494 -0.1771  0.5052
  163MOL0     C21935   0.352   9.749   3.510 -1.1034 -0.0698 -0.3733
  163MOL0     C21936   0.473   9.809   3.464  0.0107 -0.9185 -0.0525
  163MOL0     C21937   0.466   9.889   3.334  0.5631 -0.1397 -0.1546
  163MOL0     H21938   1.022   9.866   3.616  0.8332 -1.4520 -0.7946
  163MOL0     H21939   1.205   9.984   3.547  2.1814 -1.1683 -1.7978
  163MOL0     H21940   1.190  10.182   3.133 -0.2951  0.6587  0.9857
  163MOL0     H21941   1.348  10.225   3.195  0.1184 -0.6521  0.8389
  163MOL0     H21942   1.387  10.034   3.034  3.3777 -5.7700  0.9627
  163MOL0     H21943   1.280   9.931   3.130 -4.0810  2.5826  0.5793
  163MOL0     H21944   1.432   9.923   3.296 -2.2639  3.6013  1.2077
  163MOL0     H21945   1.503  10.076   3.266 -0.3172  0.3499  0.0602
  163MOL0     H21946   1.550   9.819   3.114 -1.1305  0.7507 -0.9395
  163MOL0     H21947   1.586   9.975   3.041  0.3568  0.1355 -1.1315
  163MOL0     H21948   1.788   9.893   3.151 -0.4151 -1.3810  0.6243
  163MOL0     H21949   1.735  10.030   3.239  2.1059 -1.0740  2.5412
  163MOL0     H21950   1.671   9.919   3.433 -0.4041  2.5611 -2.1257
  163MOL0     H21951   1.650   9.762   3.351 -1.5800  0.7484 -0.1431
  163MOL0     H21952   1.880   9.790   3.505  1.0099 -1.1892 -0.6004
  163MOL0     H21953   1.921   9.902   3.375 -1.6315  0.5918  0.2432
  163MOL0     H21954   1.891   9.600   3.352 -2.7133  0.2337  0.1174
  163MOL0     H21955   1.912   9.717   3.221 -3.1888  3.5366  1.2786
  163MOL0     H21956   2.100   9.472   3.416 -3.8962  1.8766  0.2499
  163MOL0     H21957   2.472   9.553   3.335 -0.2168  1.4093  1.3266
  163MOL0     H21958   2.384   9.450   3.460 -0.0295  0.6427  0.4672
  163MOL0     H21959   2.456   9.301   3.293  0.6180  1.1503  2.5146
  163MOL0     H21960   2.283   9.332   3.295 -0.5261  2.2863  1.3750
  163MOL0     H21961   2.399   9.316   3.055  0.3292  1.3400  0.1337
  163MOL0     H21962   2.455   9.472   3.092  1.8476 -2.5198  0.3317
  163MOL0     H21963   2.236   9.449   2.949  2.2714  0.0583  0.3077
  163MOL0     H21964   2.230   9.551   3.084 -0.8395  0.8376 -3.1113
  163MOL0     H21965   1.951   9.236   3.244  1.4932  0.2724 -0.0500
  163MOL0     H21966   1.719   9.284   3.275  1.2610  0.6262  2.0774
  163MOL0     H21967   1.359   9.197   3.261  0.8181 -0.0640 -2.5713
  163MOL0     H21968   1.103   9.194   3.282  2.5182 -0.9942 -0.2198
  163MOL0     H21969   0.954   9.440   3.440 -0.7749 -2.3437  0.4050
  163MOL0     H21970   0.908   9.579   3.343  2.1640 -0.2582 -1.4139
  163MOL0     H21971   0.749   9.337   3.374  6.5425 -1.1955 -3.2770
  163MOL0     H21972   0.732   9.470   3.479  0.4919 -0.4004  0.3941
  163MOL0     H21973   0.569   9.530   3.305 -1.1086 -2.8706 -1.0298
  163MOL0     H21974   0.713   9.613   3.239  1.8324 -0.9901  0.3782
  163MOL0     H21975   0.589   9.343   3.155 -0.7921 -0.4667 -0.5179
  163MOL0     H21976   0.741   9.416   3.092  0.6548 -0.6306  4.3032
  163MOL0     H21977   0.556   9.450   2.928 -1.0079  3.3686 -2.0151
  163MOL0     H21978   0.637   9.592   2.999  2.1725 -1.8476 -0.3362
  163MOL0     H21979   0.441   9.634   3.142  5.4738  2.5278 -0.3759
  163MOL0     H21980   0.429   9.648   2.961  0.7468 -1.1053 -1.2546
  163MOL0     H21981   0.348   9.378   3.055  0.1118 -0.6562 -2.4554
  163MOL0     H21982   0.280   9.480   2.935  1.8296  1.0042 -1.3075
  163MOL0     H21983   0.217   9.516   3.226  1.5473 -0.2308  0.0885
  163MOL0     H21984   0.152   9.628   3.109 -1.2653 -0.0260  3.1374
  163MOL0     H21985   1.096   9.611   3.166 -1.6893 -0.4931 -1.4365
  163MOL0     H21986   1.331   9.624   3.179  0.9463 -0.5653  0.3868
  163MOL0     H21987   1.762   9.585   2.957  3.2640  0.1853 -2.6800
  163MOL0     H21988   2.016   9.557   2.975  0.2365  0.5474  0.4738
  163MOL0     H21989   1.025  10.103   3.186 -1.7946  2.9920  3.2081
  163MOL0     H21990   0.847   9.908   3.230 -1.2634  1.3270  1.1606
  163MOL0     H21991   0.668   9.731   3.726 -0.9015 -1.1810  0.1684
  163MOL0     H21992   0.460   9.628   3.800 -0.1901 -1.6644 -1.4705
  163MOL0     H21993   0.169   9.431   3.700 -0.8035  0.4591 -0.0116
  163MOL0     H21994   0.276   9.461   3.570 -1.0962  1.1455 -1.4639
  163MOL0     H21995   0.139   9.577   3.434  0.6033 -1.4797 -1.1940
  163MOL0     H21996   0.023   9.590   3.562  3.2413 -0.2114  0.9181
  163MOL0     H21997   0.107   9.321   3.425  2.9164  0.6987  4.1755
  163MOL0     H21998  -0.041   9.410   3.381 -1.0881  1.2476  0.8927
  163MOL0     H21999  -0.117   9.235   3.523 -0.0428 -0.1385  2.1034
  163MOL0     H22000   0.012   9.250   3.637  0.6881 -0.5817 -1.9544
  163MOL0     H22001  -0.230   9.541   3.799 -2.1400  0.3923 -1.0023
  163MOL0     H22002   0.265   9.767   3.447 -0.4383  2.0169 -0.7991
  163MOL0     H22003   0.445   9.993   3.360 -1.5843 -1.2483  3.2477
  163MOL0     H22004   0.554   9.876   3.271 -0.3588 -0.5011 -1.4229
  163MOL0     H22005   0.372   9.865   3.284  0.3250  3.3762 -1.6849
  164MOL0     O22006   8.136   2.897   4.195 -0.0463 -0.4926 -0.7179
  164MOL0     C22007   8.223   2.982   4.173  0.1412 -0.7554 -0.0296
  164MOL0     O22008   8.304   3.031   4.272  0.4413 -0.0469 -0.1989
  164MOL0     C22009   8.273   2.998   4.401 -0.0539  0.5650  0.8832
  164MOL0     C22010   8.212   3.087   4.490  0.5030  0.6100 -0.9356
  164MOL0     C22011   8.177   3.048   4.620 -0.0927  0.5554 -0.5924
  164MOL0     C22012   8.198   2.913   4.663 -0.4579 -0.7169  0.0570
  164MOL0     O22013   8.152   2.864   4.785 -0.9749  0.3788  0.0108
  164MOL0     C22014   8.096   2.959   4.873  0.6007  0.9995 -0.4175
  164MOL0     C22015   8.054   2.880   5.003 -0.3670  0.9355  0.4537
  164MOL0     C22016   7.932   2.789   4.998 -0.5701 -0.1414 -0.3020
  164MOL0     C22017   7.927   2.682   5.114 -0.1900  0.0493  0.2776
  164MOL0     C22018   7.930   2.754   5.242  0.3431  0.7605 -0.0322
  164MOL0     C22019   7.814   2.848   5.271  0.8591 -0.3935 -0.4339
  164MOL0     C22020   7.815   2.896   5.421 -0.8594  0.3962  1.1371
  164MOL0     C22021   7.950   2.967   5.464 -1.3152 -0.2979 -0.6299
  164MOL0     N22022   7.937   3.051   5.577  0.1150 -0.5603 -0.0691
  164MOL0     C22023   7.949   3.007   5.705  1.1846 -0.7969 -0.4469
  164MOL0     C22024   7.952   3.122   5.783 -0.0190  0.0074 -0.3976
  164MOL0     C22025   7.952   3.132   5.934 -0.2156 -0.3470  1.0552
  164MOL0     C22026   8.054   3.026   5.995 -0.5058  0.0006 -0.2610
  164MOL0     C22027   8.204   3.042   5.984  0.5187  0.3157  1.1935
  164MOL0     C22028   8.264   3.023   5.841 -0.3101 -0.5729  0.8622
  164MOL0     O22029   8.221   2.896   5.789  0.3404  0.0219  0.3448
  164MOL0     C22030   8.279   2.844   5.673 -0.8096  0.1799 -0.0179
  164MOL0     C22031   8.207   2.762   5.586 -0.2414 -0.3406  0.2942
  164MOL0     C22032   8.267   2.696   5.475  0.8692 -0.3445  0.0347
  164MOL0     C22033   8.402   2.711   5.448 -0.1321 -1.3519  0.2600
  164MOL0     C22034   8.467   2.648   5.331  0.0135  0.7856  0.2328
  164MOL0     O22035   8.383   2.580   5.248  0.1020  0.0942  0.8532
  164MOL0     C22036   8.439   2.532   5.133  0.2822 -0.4472 -0.3306
  164MOL0     C22037   8.420   2.603   5.014  0.1235  0.1612  0.3640
  164MOL0     C22038   8.484   2.574   4.895 -1.1749 -0.9097  1.2280
  164MOL0     C22039   8.570   2.469   4.878  0.6112  0.0391 -0.3886
  164MOL0     O22040   8.626   2.452   4.758 -0.4699 -0.9185  0.1571
  164MOL0     C22041   8.702   2.335   4.740  0.3209 -0.1115  0.3205
  164MOL0     C22042   8.846   2.355   4.764  0.5513  0.5527  0.1976
  164MOL0     C22043   8.929   2.226   4.752 -0.2162 -0.4207 -0.5061
  164MOL0     C22044   8.893   2.126   4.857 -0.6277 -0.7398 -0.1934
  164MOL0     C22045   9.000   2.034   4.901  0.9667  1.5230 -0.9928
  164MOL0     C22046   9.036   1.940   4.781  0.4680 -1.0255  0.2733
  164MOL0     C22047   9.148   1.835   4.823  0.5792  1.0736  0.3781
  164MOL0     C22048   9.286   1.897   4.817 -0.6383 -0.5676 -0.3570
  164MOL0    Cl22049   9.386   1.759   4.891 -0.1266  0.6692 -0.4805
  164MOL0     C22050   8.613   2.409   5.003 -0.4611  0.2621 -0.2238
  164MOL0     C22051   8.534   2.431   5.122 -0.3352 -0.4242 -0.2373
  164MOL0     O22052   8.591   2.647   5.322 -0.2462  0.3511  0.1769
  164MOL0     C22053   8.483   2.779   5.547  0.4860 -0.0494  0.1158
  164MOL0     C22054   8.421   2.839   5.662 -0.5079 -0.1504 -0.4039
  164MOL0     N22055   7.953   3.231   5.698  0.2271  0.2227 -0.6123
  164MOL0     N22056   7.952   3.189   5.580  0.7207 -0.0071  0.0184
  164MOL0     C22057   8.267   2.826   4.572  0.1818 -0.7594  0.4303
  164MOL0     C22058   8.303   2.873   4.446 -0.1976 -0.2735  0.0261
  164MOL0     C22059   8.212   3.066   4.052 -0.0721  0.1036  0.9615
  164MOL0     C22060   8.261   3.201   4.051 -0.2418 -0.2453 -0.4389
  164MOL0     C22061   8.266   3.276   3.928 -0.6738  0.4672 -1.2498
  164MOL0     C22062   8.222   3.213   3.810  0.7616 -0.4877 -0.1229
  164MOL0     O22063   8.197   3.281   3.691  0.0651  0.0466  0.3969
  164MOL0     C22064   8.281   3.384   3.655 -0.1999 -0.3220 -0.2942
  164MOL0     C22065   8.397   3.325   3.567 -0.5979 -0.5227 -0.7401
  164MOL0     C22066   8.528   3.309   3.637 -0.3481 -0.3803 -0.0682
  164MOL0     C22067   8.591   3.439   3.656 -0.8253 -0.8814 -0.8329
  164MOL0     C22068   8.587   3.469   3.806  0.1062 -1.5831  0.7094
  164MOL0     C22069   8.585   3.491   3.926 -1.0459 -0.1267  0.2891
  164MOL0     C22070   8.173   3.080   3.802 -0.5951 -0.2368  0.6156
  164MOL0     C22071   8.160   3.010   3.922  0.0858 -0.3527 -0.4274
  164MOL0     C22072   8.100   2.873   3.915 -0.5786  0.1578 -0.5981
  164MOL0     H22073   8.186   3.189   4.462  0.6562  0.6806 -0.8144
  164MOL0     H22074   8.139   3.115   4.696 -0.4065 -0.7090  0.4160
  164MOL0     H22075   8.173   3.035   4.891 -0.5276  1.6418  2.2762
  164MOL0     H22076   8.007   3.011   4.838  1.8636  4.7805  1.4670
  164MOL0     H22077   8.054   2.955   5.083  2.5019  0.0680  1.3963
  164MOL0     H22078   8.140   2.819   5.033 -0.9289  1.2938  3.0823
  164MOL0     H22079   7.921   2.735   4.904  1.1600  1.9413 -1.8328
  164MOL0     H22080   7.851   2.863   4.992  0.5214  1.1753  0.5607
  164MOL0     H22081   7.828   2.638   5.102 -0.8834  1.5659  0.1593
  164MOL0     H22082   8.003   2.604   5.118 -0.8616 -0.6069  0.5202
  164MOL0     H22083   7.924   2.682   5.324 -2.3900  0.5588 -0.2886
  164MOL0     H22084   8.026   2.804   5.254  0.7521 -0.0188 -0.0021
  164MOL0     H22085   7.830   2.937   5.209  1.7794 -1.6881 -2.1720
  164MOL0     H22086   7.716   2.805   5.250 -0.0269  1.6291 -0.7018
  164MOL0     H22087   7.805   2.815   5.493 -1.3151  0.8679  1.6150
  164MOL0     H22088   7.732   2.964   5.443 -1.0029 -0.8046  5.0698
  164MOL0     H22089   8.028   2.891   5.470 -0.1670  0.9095  0.1115
  164MOL0     H22090   7.967   3.031   5.377 -2.1123  0.5780 -0.1627
  164MOL0     H22091   7.964   2.906   5.740 -0.6952 -1.1833 -0.6712
  164MOL0     H22092   7.984   3.234   5.956 -1.2618  0.3841 -0.6358
  164MOL0     H22093   7.846   3.127   5.961 -0.4751  1.5840  0.5704
  164MOL0     H22094   8.034   3.047   6.101  1.0221 -1.1803  0.3109
  164MOL0     H22095   8.033   2.919   5.983  2.0926 -0.9536  2.3168
  164MOL0     H22096   8.250   2.957   6.036  1.3217  0.0913  0.1411
  164MOL0     H22097   8.244   3.132   6.033  2.2309 -0.7022  1.7559
  164MOL0     H22098   8.371   3.024   5.864 -0.6601 -0.5611  2.5570
  164MOL0     H22099   8.236   3.091   5.760  0.5339 -3.9590 -2.5850
  164MOL0     H22100   8.103   2.750   5.616  0.4201  0.8561  3.4433
  164MOL0     H22101   8.198   2.633   5.420 -1.4983  2.8696 -0.9739
  164MOL0     H22102   8.335   2.671   5.016 -0.2219 -0.2256  3.1042
  164MOL0     H22103   8.432   2.621   4.812  1.1808 -2.1160 -1.0832
  164MOL0     H22104   8.648   2.257   4.793 -1.0516 -0.0219 -0.8713
  164MOL0     H22105   8.697   2.317   4.632  0.4292  0.2801  0.2461
  164MOL0     H22106   8.891   2.428   4.695  0.1395  1.0409  0.4344
  164MOL0     H22107   8.858   2.400   4.863 -0.9630  3.0725 -0.6775
  164MOL0     H22108   8.913   2.183   4.653 -0.6474 -0.2378 -0.5149
  164MOL0     H22109   9.037   2.245   4.749  0.0410 -1.6187 -4.5716
  164MOL0     H22110   8.807   2.069   4.818 -0.3004 -1.2762 -0.1478
  164MOL0     H22111   8.856   2.178   4.946 -1.7319 -0.4191 -0.8192
  164MOL0     H22112   8.962   1.970   4.981 -1.6520  0.5881 -2.8267
  164MOL0     H22113   9.093   2.088   4.924  1.2381  1.4671 -1.9184
  164MOL0     H22114   8.945   1.894   4.740  0.5508 -0.7675 -0.2041
  164MOL0     H22115   9.079   1.994   4.696 -1.6689  0.6240  0.1626
  164MOL0     H22116   9.139   1.746   4.759 -0.5175  0.2873  1.5921
  164MOL0     H22117   9.129   1.807   4.927 -0.2259  1.4804  0.3512
  164MOL0     H22118   9.318   1.915   4.714 -1.3541 -0.8022 -0.6265
  164MOL0     H22119   9.290   1.990   4.875  0.7635 -0.6502 -0.2897
  164MOL0     H22120   8.695   2.338   5.003 -2.6002 -2.3609  0.0208
  164MOL0     H22121   8.565   2.382   5.214 -3.4528  0.0028  1.1522
  164MOL0     H22122   8.590   2.782   5.534  0.1359 -0.5757 -4.6007
  164MOL0     H22123   8.472   2.889   5.744 -2.6915  3.5348 -1.0787
  164MOL0     H22124   8.287   2.721   4.585  0.2947 -0.8501 -0.3982
  164MOL0     H22125   8.348   2.799   4.380 -1.5251 -0.8201 -0.2948
  164MOL0     H22126   8.301   3.251   4.138  1.4240 -1.1650 -0.6233
  164MOL0     H22127   8.306   3.377   3.931  0.9031 -0.1478  1.0869
  164MOL0     H22128   8.322   3.427   3.747  0.2209 -0.7128 -0.2955
  164MOL0     H22129   8.218   3.457   3.603 -2.4760 -2.4058 -0.6579
  164MOL0     H22130   8.411   3.394   3.483  1.3049 -0.0281 -0.0747
  164MOL0     H22131   8.350   3.232   3.533 -0.5576 -1.5593  1.7680
  164MOL0     H22132   8.596   3.253   3.573 -1.1439 -1.1947 -0.2039
  164MOL0     H22133   8.516   3.251   3.729  1.3285 -1.3827 -0.4430
  164MOL0     H22134   8.696   3.424   3.631 -0.6097  0.2507 -0.6538
  164MOL0     H22135   8.542   3.524   3.608  0.9172  0.4804 -0.2740
  164MOL0     H22136   8.576   3.512   4.031 -1.2043 -1.3297  0.5304
  164MOL0     H22137   8.127   3.049   3.709  1.5843 -1.3018 -0.1670
  164MOL0     H22138   8.091   2.841   3.811  0.6101 -2.4210  0.0097
  164MOL0     H22139   8.151   2.792   3.969  0.2185  1.1827  0.2322
  164MOL0     H22140   8.005   2.879   3.969  0.0390 -1.6486  0.8045
  165MOL0     O22141  10.714   1.718   9.536  0.3763  0.3096 -0.2362
  165MOL0     C22142  10.705   1.639   9.630 -0.4966 -0.1652 -0.1141
  165MOL0     O22143  10.705   1.683   9.758  0.0899  1.0195  0.1551
  165MOL0     C22144  10.744   1.802   9.796  0.1457 -0.5027  0.5069
  165MOL0     C22145  10.680   1.867   9.894 -0.3953  0.5284  0.8128
  165MOL0     C22146  10.701   1.996   9.947 -0.0492  0.1503  0.6246
  165MOL0     C22147  10.809   2.061   9.890  0.9178 -1.0678 -0.0708
  165MOL0     O22148  10.861   2.190   9.922  0.2879  0.2941 -0.8384
  165MOL0     C22149  10.770   2.292   9.970 -0.4093 -0.5401  0.2325
  165MOL0     C22150  10.762   2.304  10.116 -0.6651 -1.1468 -0.2230
  165MOL0     C22151  10.906   2.324  10.166  0.4301  0.5611  0.1500
  165MOL0     C22152  10.903   2.391  10.297 -0.2462 -0.9155 -0.1578
  165MOL0     C22153  10.821   2.316  10.400  0.1536  0.3853 -0.2410
  165MOL0     C22154  10.824   2.403  10.530  0.0890 -0.1161  1.2880
  165MOL0     C22155  10.753   2.343  10.642 -0.5305 -0.0706 -0.0621
  165MOL0     C22156  10.759   2.422  10.771 -0.4327  0.4296 -0.0546
  165MOL0     N22157  10.684   2.357  10.875 -1.0056 -0.1490 -0.5788
  165MOL0     C22158  10.669   2.219  10.912  0.3883 -0.1450  0.4940
  165MOL0     C22159  10.588   2.203  11.016  0.6040  0.6855  0.9582
  165MOL0     C22160  10.544   2.084  11.083 -0.1734 -0.2375 -0.7510
  165MOL0     C22161  10.579   2.092  11.233 -0.8429  0.6461 -0.3238
  165MOL0     C22162  10.720   2.080  11.277 -1.1824 -0.2966  0.4455
  165MOL0     C22163  10.787   1.954  11.237 -0.3580  0.0947 -0.5310
  165MOL0     O22164  10.796   1.878  11.352 -0.4416 -0.2060 -0.0133
  165MOL0     C22165  10.733   1.761  11.350 -0.3526 -0.3449 -0.3580
  165MOL0     C22166  10.600   1.754  11.382  0.0939 -0.7362 -0.5813
  165MOL0     C22167  10.532   1.640  11.350  1.4207  0.1657 -0.4656
  165MOL0     C22168  10.599   1.526  11.299  0.0327 -0.1205  0.1167
  165MOL0     C22169  10.520   1.402  11.274  0.2912 -0.5007  1.2545
  165MOL0     O22170  10.396   1.436  11.242 -0.5931  0.2909 -0.3877
  165MOL0     C22171  10.288   1.349  11.237 -0.2910  0.3617  0.0028
  165MOL0     C22172  10.159   1.412  11.247  0.3660 -0.1631  0.0725
  165MOL0     C22173  10.041   1.334  11.248 -0.2211  0.3547  0.2766
  165MOL0     C22174  10.045   1.199  11.237 -0.6812  0.1589  0.2073
  165MOL0     O22175   9.933   1.120  11.225 -0.2366  0.1734 -0.7886
  165MOL0     C22176   9.830   1.167  11.133 -0.3385 -0.0210 -0.1987
  165MOL0     C22177   9.730   1.059  11.119 -0.5481 -0.1464  0.1649
  165MOL0     C22178   9.593   1.131  11.103 -0.8870  0.0732 -0.9834
  165MOL0     C22179   9.541   1.170  11.242  0.0958 -0.2549 -0.0142
  165MOL0     C22180   9.398   1.226  11.236  0.0578  1.2454 -1.2218
  165MOL0     C22181   9.355   1.258  11.375 -0.7991  0.2768 -0.3755
  165MOL0     C22182   9.214   1.324  11.390 -0.1525  0.3255  0.2557
  165MOL0     C22183   9.097   1.255  11.328  0.2868 -0.5402  0.0693
  165MOL0    Cl22184   9.097   1.081  11.334 -0.0939 -0.3176  0.0077
  165MOL0     C22185  10.171   1.129  11.232 -0.1188 -0.2110 -0.1071
  165MOL0     C22186  10.292   1.206  11.230  0.3993  0.0666 -0.4378
  165MOL0     O22187  10.568   1.289  11.272  0.1975  0.8549 -0.2496
  165MOL0     C22188  10.735   1.534  11.256  0.0847  0.1314 -0.1531
  165MOL0     C22189  10.803   1.655  11.287  0.0836 -0.9962 -0.0286
  165MOL0     N22190  10.558   2.337  11.049 -0.6851  0.1439 -0.1341
  165MOL0     N22191  10.620   2.426  10.975 -0.4369  0.9054  0.2695
  165MOL0     C22192  10.891   1.996   9.791  0.2972 -0.6565 -0.3511
  165MOL0     C22193  10.852   1.873   9.739  0.8766 -0.1618 -0.3812
  165MOL0     C22194  10.735   1.493   9.599 -0.1627  0.6065 -0.9369
  165MOL0     C22195  10.775   1.411   9.711  0.7616 -0.4782 -0.7054
  165MOL0     C22196  10.807   1.276   9.709  0.1802  0.9412 -0.0968
  165MOL0     C22197  10.784   1.209   9.594 -0.5102 -0.1804 -0.0411
  165MOL0     O22198  10.803   1.076   9.588  1.0195 -0.2826  0.3822
  165MOL0     C22199  10.849   1.006   9.703  0.3809  0.2698  0.4667
  165MOL0     C22200  10.836   0.856   9.677  0.7390 -1.7621  0.0924
  165MOL0     C22201  10.918   0.800   9.559 -0.7215 -0.2470  0.1632
  165MOL0     C22202  10.844   0.784   9.425  1.2942  0.0094  0.0206
  165MOL0     C22203  10.918   0.692   9.341 -1.0461  1.0973  0.1416
  165MOL0     C22204  10.981   0.606   9.287 -0.8341  0.1269 -0.2921
  165MOL0     C22205  10.732   1.272   9.483 -0.3788  0.0715 -0.4439
  165MOL0     C22206  10.710   1.413   9.486 -0.7480 -0.1754  0.6402
  165MOL0     C22207  10.641   1.460   9.360  0.4850 -0.6776  0.0431
  165MOL0     H22208  10.602   1.807   9.940 -0.8016  1.4341  1.3415
  165MOL0     H22209  10.652   2.035  10.037  0.7218  0.4025  0.9425
  165MOL0     H22210  10.809   2.383   9.923 -0.3757 -1.0555 -0.7880
  165MOL0     H22211  10.670   2.287   9.926 -0.6775  2.3843  0.3189
  165MOL0     H22212  10.713   2.212  10.150  0.9129 -2.0836 -0.3742
  165MOL0     H22213  10.715   2.398  10.146  0.5842 -0.6040  0.0804
  165MOL0     H22214  10.950   2.404  10.107  0.0382  0.1923 -0.6477
  165MOL0     H22215  10.963   2.231  10.176 -0.0312  0.2162 -0.4520
  165MOL0     H22216  11.009   2.391  10.323  1.3908  3.4033 -5.0323
  165MOL0     H22217  10.871   2.493  10.273  0.7820 -0.7809 -1.0381
  165MOL0     H22218  10.720   2.310  10.359 -0.5709 -0.0102  1.5029
  165MOL0     H22219  10.862   2.217  10.421  1.5440  0.4337 -2.4144
  165MOL0     H22220  10.925   2.430  10.562 -0.2214  3.1583 -0.0139
  165MOL0     H22221  10.764   2.494  10.516 -1.2961 -0.7432  2.8075
  165MOL0     H22222  10.787   2.242  10.665  0.1765  0.5500  1.7815
  165MOL0     H22223  10.647   2.332  10.616 -0.5648  2.3624 -1.2873
  165MOL0     H22224  10.866   2.425  10.792 -0.5265  0.3028  0.4391
  165MOL0     H22225  10.715   2.522  10.766 -0.8721  0.2058 -0.7817
  165MOL0     H22226  10.718   2.135  10.863  0.4630  0.1324  0.0853
  165MOL0     H22227  10.436   2.100  11.075 -0.2987 -1.9647 -4.1050
  165MOL0     H22228  10.565   1.987  11.038  2.5773  0.0411 -0.2422
  165MOL0     H22229  10.523   2.179  11.271  0.7377  1.0977  1.0796
  165MOL0     H22230  10.519   2.018  11.286 -0.6130  1.7695  1.5989
  165MOL0     H22231  10.725   2.095  11.385  0.6284 -1.5299  0.5806
  165MOL0     H22232  10.773   2.169  11.243  0.6306 -1.3798  0.3202
  165MOL0     H22233  10.891   1.976  11.211 -0.2393 -1.1200 -1.1835
  165MOL0     H22234  10.731   1.906  11.156 -0.4591 -3.4920  1.4593
  165MOL0     H22235  10.551   1.840  11.428  2.2436 -1.5633  3.8161
  165MOL0     H22236  10.426   1.623  11.366  1.2407  1.5084 -0.1109
  165MOL0     H22237  10.145   1.519  11.261 -2.8032 -0.4147 -0.3681
  165MOL0     H22238   9.947   1.383  11.273  0.3256  0.7807  1.5957
  165MOL0     H22239   9.783   1.257  11.173 -2.7199 -1.9669  1.7898
  165MOL0     H22240   9.876   1.196  11.039  2.9551 -0.3509  1.1661
  165MOL0     H22241   9.750   0.998  11.031 -1.8154 -0.0855 -0.1925
  165MOL0     H22242   9.729   0.991  11.205  0.9686 -0.2824  0.1026
  165MOL0     H22243   9.605   1.220  11.041  2.8754  0.4336  0.0476
  165MOL0     H22244   9.522   1.062  11.055  0.7990 -1.3446 -1.5765
  165MOL0     H22245   9.611   1.242  11.285 -0.9762 -1.1071  3.4903
  165MOL0     H22246   9.543   1.084  11.310  0.7076 -1.0149 -0.9516
  165MOL0     H22247   9.334   1.146  11.198 -0.5120  1.2184 -0.2601
  165MOL0     H22248   9.388   1.311  11.168  1.0781  1.3596 -1.2382
  165MOL0     H22249   9.349   1.160  11.422 -2.1031  1.6215  2.4587
  165MOL0     H22250   9.428   1.319  11.428  2.1336 -1.4703 -2.1232
  165MOL0     H22251   9.206   1.430  11.363 -0.0901 -0.2517 -2.2806
  165MOL0     H22252   9.188   1.315  11.496 -1.0093  1.2359  0.1349
  165MOL0     H22253   9.009   1.291  11.381 -0.1338 -0.7577 -0.4709
  165MOL0     H22254   9.088   1.288  11.224 -2.8586 -2.7267 -0.4972
  165MOL0     H22255  10.177   1.022  11.215 -2.4270 -1.5585  5.2995
  165MOL0     H22256  10.382   1.150  11.206  0.2268 -0.7812  0.8114
  165MOL0     H22257  10.784   1.450  11.208 -2.7697 -3.3557  2.5409
  165MOL0     H22258  10.908   1.669  11.263 -0.4941  0.8168 -1.7157
  165MOL0     H22259  10.979   2.046   9.752  0.3778 -1.0152 -0.6343
  165MOL0     H22260  10.924   1.843   9.664  2.8242  3.2269 -0.0806
  165MOL0     H22261  10.808   1.456   9.805 -0.9888  0.7157 -0.6123
  165MOL0     H22262  10.841   1.229   9.801  0.5406 -1.8970 -1.5837
  165MOL0     H22263  10.777   1.039   9.779 -0.4460  3.3434 -1.4588
  165MOL0     H22264  10.948   1.047   9.725  0.3739  0.6864 -0.2603
  165MOL0     H22265  10.729   0.843   9.659  0.6622 -0.6439 -0.3300
  165MOL0     H22266  10.859   0.800   9.768  0.9598 -0.6884  0.7080
  165MOL0     H22267  10.962   0.704   9.587 -0.8030 -0.8399 -1.6679
  165MOL0     H22268  11.001   0.870   9.546 -1.5990  1.3661  2.5057
  165MOL0     H22269  10.744   0.746   9.449  0.9594  1.6255  1.3295
  165MOL0     H22270  10.835   0.885   9.384 -3.7265  0.7824  2.2891
  165MOL0     H22271  11.042   0.538   9.230 -4.1795 -3.5685  0.0712
  165MOL0     H22272  10.710   1.219   9.391 -2.8043 -0.4327  0.3598
  165MOL0     H22273  10.589   1.555   9.378  1.9505  0.2011 -0.1767
  165MOL0     H22274  10.726   1.480   9.293  1.4590  1.4956  1.7788
  165MOL0     H22275  10.573   1.387   9.316  0.4869 -1.0972  0.7262
  166MOL0     O22276   6.166   4.119   4.665  0.0844  0.3754  0.6826
  166MOL0     C22277   6.250   4.060   4.734  0.0906  0.2503  0.0395
  166MOL0     O22278   6.237   3.923   4.772 -1.1602 -0.4760 -0.7433
  166MOL0     C22279   6.137   3.852   4.720 -0.9322 -0.0835 -0.6434
  166MOL0     C22280   6.077   3.754   4.804 -0.1259  0.2340 -0.6308
  166MOL0     C22281   5.981   3.661   4.757 -0.6532  0.2325  0.4618
  166MOL0     C22282   5.925   3.678   4.627  1.2998  0.3154  0.0513
  166MOL0     O22283   5.845   3.578   4.560 -0.2246  0.0045 -1.4040
  166MOL0     C22284   5.851   3.443   4.610  1.0724  0.2895  0.8026
  166MOL0     C22285   5.742   3.409   4.705 -0.1134 -0.6333  0.1712
  166MOL0     C22286   5.738   3.255   4.702  0.4711 -0.0301 -0.6354
  166MOL0     C22287   5.644   3.204   4.814 -0.2136 -0.6126  0.2684
  166MOL0     C22288   5.657   3.048   4.830  0.1450  0.7287  0.9423
  166MOL0     C22289   5.586   2.983   4.937  0.3579  0.1882 -0.9978
  166MOL0     C22290   5.439   2.966   4.895  0.6053 -0.2027  0.2873
  166MOL0     C22291   5.351   2.917   5.016 -0.3511 -0.1508 -0.3516
  166MOL0     N22292   5.406   2.805   5.096  1.0544  0.4526  0.5931
  166MOL0     C22293   5.410   2.789   5.230  0.0728  0.1791 -0.2103
  166MOL0     C22294   5.442   2.661   5.253 -0.5993 -0.3198  0.6151
  166MOL0     C22295   5.468   2.597   5.375 -0.7685 -0.0471 -0.3292
  166MOL0     C22296   5.570   2.656   5.466  0.3493 -0.4859  0.7328
  166MOL0     C22297   5.715   2.679   5.399 -0.5503  0.4566  0.7717
  166MOL0     C22298   5.785   2.548   5.356 -0.0390  0.5306 -0.0291
  166MOL0     O22299   5.748   2.508   5.224 -0.2186  0.0143 -0.3321
  166MOL0     C22300   5.790   2.591   5.122 -0.3141  0.1017  0.6517
  166MOL0     C22301   5.781   2.528   4.999  0.6043 -0.3223  0.0259
  166MOL0     C22302   5.832   2.579   4.874  0.5889 -0.2415 -0.0572
  166MOL0     C22303   5.918   2.694   4.875  0.2822 -1.3449 -0.1080
  166MOL0     C22304   5.980   2.754   4.757 -0.1866  1.2723 -0.0721
  166MOL0     O22305   6.093   2.819   4.785 -0.8338  0.1940  0.1308
  166MOL0     C22306   6.173   2.877   4.686  0.3028 -0.2927  0.0130
  166MOL0     C22307   6.282   2.949   4.723  0.1439 -0.4764 -0.0603
  166MOL0     C22308   6.367   3.009   4.640 -0.0287 -0.3483 -0.6662
  166MOL0     C22309   6.362   2.983   4.503  0.1396 -0.3366  0.6465
  166MOL0     O22310   6.459   3.033   4.417 -0.7891 -0.4295 -0.7812
  166MOL0     C22311   6.429   3.079   4.289  0.0452 -0.4559  1.6176
  166MOL0     C22312   6.478   2.972   4.191 -0.9289  0.1129  0.2912
  166MOL0     C22313   6.449   3.007   4.047  0.2487 -0.8428  0.1966
  166MOL0     C22314   6.563   3.081   3.991  0.0455 -0.1526 -0.3704
  166MOL0     C22315   6.519   3.173   3.881  0.2778  1.1214  0.1501
  166MOL0     C22316   6.629   3.273   3.848  0.0950  0.3527 -0.1794
  166MOL0     C22317   6.582   3.385   3.760 -0.8916  0.8218  0.3296
  166MOL0     C22318   6.687   3.426   3.657  0.3772 -0.3132 -0.0915
  166MOL0    Cl22319   6.717   3.298   3.529  0.1190  0.4823  0.0893
  166MOL0     C22320   6.255   2.909   4.456 -0.1191 -0.3218  0.6057
  166MOL0     C22321   6.162   2.859   4.545  0.3182 -0.4361 -0.2860
  166MOL0     O22322   5.923   2.745   4.647  0.1819  0.1743 -0.6158
  166MOL0     C22323   5.930   2.760   4.997  1.0964 -0.7445  0.1684
  166MOL0     C22324   5.872   2.706   5.113 -0.0040 -0.1871  0.3734
  166MOL0     N22325   5.455   2.597   5.130 -0.6591 -0.1206 -0.7053
  166MOL0     N22326   5.422   2.685   5.042 -0.5544  0.4704  0.1502
  166MOL0     C22327   5.973   3.778   4.545 -0.5825 -0.6720 -0.6219
  166MOL0     C22328   6.081   3.863   4.585 -1.1348 -0.5978 -0.5270
  166MOL0     C22329   6.378   4.115   4.760 -0.4643  0.4887  0.1544
  166MOL0     C22330   6.455   4.066   4.863  0.7179 -0.9061  1.1380
  166MOL0     C22331   6.585   4.107   4.890 -0.0029 -0.1353 -0.7877
  166MOL0     C22332   6.642   4.217   4.820 -0.9895  0.8477  0.3242
  166MOL0     O22333   6.775   4.257   4.820  0.3994 -0.1075  0.5842
  166MOL0     C22334   6.870   4.187   4.910  0.5855 -0.5939  0.3318
  166MOL0     C22335   6.993   4.274   4.908 -0.0534 -0.1514  0.8762
  166MOL0     C22336   7.072   4.258   4.769  0.1679  0.0786  0.2740
  166MOL0     C22337   7.197   4.350   4.773 -1.0168 -0.4930  0.7091
  166MOL0     C22338   7.231   4.370   4.627 -0.1893 -0.0292 -0.3540
  166MOL0     C22339   7.255   4.387   4.508 -0.3541 -0.2330 -0.4813
  166MOL0     C22340   6.563   4.274   4.723 -1.6860  0.0408 -0.7827
  166MOL0     C22341   6.437   4.226   4.686  0.0535 -0.1369  0.1256
  166MOL0     C22342   6.372   4.291   4.561 -0.1741  0.2365  0.4057
  166MOL0     H22343   6.112   3.730   4.904 -0.0097  0.3928 -0.6306
  166MOL0     H22344   5.948   3.588   4.829 -2.6923  0.1930 -0.4321
  166MOL0     H22345   5.843   3.389   4.516 -0.0188  0.2003  0.9267
  166MOL0     H22346   5.947   3.425   4.658  1.9259  3.8627  0.7054
  166MOL0     H22347   5.646   3.452   4.677  0.6778  0.1176 -1.5332
  166MOL0     H22348   5.768   3.458   4.800 -3.0106  1.9527 -0.2084
  166MOL0     H22349   5.841   3.224   4.726  0.3187 -1.2619 -1.5002
  166MOL0     H22350   5.704   3.208   4.610 -1.8753 -0.3453  0.3415
  166MOL0     H22351   5.679   3.255   4.905  2.3720  0.0270 -0.9792
  166MOL0     H22352   5.540   3.231   4.792  0.0948  0.2745 -0.1575
  166MOL0     H22353   5.626   3.006   4.734 -0.9336  1.7428  0.8218
  166MOL0     H22354   5.761   3.027   4.856 -0.6378  0.1691  3.9098
  166MOL0     H22355   5.629   2.886   4.964  2.9588  1.6684  0.6194
  166MOL0     H22356   5.599   3.055   5.018  1.8191  0.1390 -1.1522
  166MOL0     H22357   5.431   2.880   4.828  0.9545 -2.6435  3.1295
  166MOL0     H22358   5.397   3.061   4.863  0.7822 -0.5249 -0.9429
  166MOL0     H22359   5.348   3.003   5.084  0.0161 -0.0602 -0.4472
  166MOL0     H22360   5.249   2.895   4.986 -0.4316  1.2727 -1.2121
  166MOL0     H22361   5.393   2.863   5.308 -0.1228 -1.7769  1.6814
  166MOL0     H22362   5.369   2.603   5.422 -0.6438 -3.3348  0.5939
  166MOL0     H22363   5.489   2.493   5.348  0.1424  0.0878 -0.1701
  166MOL0     H22364   5.540   2.758   5.488 -0.5302 -0.5107 -0.2892
  166MOL0     H22365   5.563   2.599   5.560 -0.6012 -0.7389  0.5160
  166MOL0     H22366   5.788   2.732   5.462 -1.0196  0.8959  0.9421
  166MOL0     H22367   5.709   2.736   5.307  3.9369  0.2527  0.0902
  166MOL0     H22368   5.763   2.470   5.429 -0.0895  1.8529  1.4388
  166MOL0     H22369   5.892   2.567   5.370 -0.5130  2.9856  0.9003
  166MOL0     H22370   5.722   2.437   5.004  1.0819 -0.5920  3.8548
  166MOL0     H22371   5.794   2.541   4.780 -1.1501  0.1582  0.4465
  166MOL0     H22372   6.306   2.969   4.827  0.8448  0.5580 -0.4032
  166MOL0     H22373   6.443   3.070   4.689 -1.2835  0.1050  0.7816
  166MOL0     H22374   6.326   3.105   4.264 -0.1449 -0.6537  2.1897
  166MOL0     H22375   6.496   3.166   4.282 -0.4053 -0.2239 -0.5978
  166MOL0     H22376   6.584   2.948   4.203 -1.0966 -0.4680  0.6349
  166MOL0     H22377   6.431   2.876   4.213  2.3365 -2.1934 -1.7968
  166MOL0     H22378   6.446   2.921   3.979  2.0973 -1.5825  1.0016
  166MOL0     H22379   6.350   3.049   4.024  0.9573 -0.8366 -3.5633
  166MOL0     H22380   6.648   3.019   3.963  0.2180  1.6086 -4.4330
  166MOL0     H22381   6.595   3.148   4.071 -0.4123 -2.2421  1.6620
  166MOL0     H22382   6.436   3.229   3.923  1.3925 -0.1214  4.4654
  166MOL0     H22383   6.490   3.119   3.791  2.5536 -3.4206  1.8292
  166MOL0     H22384   6.660   3.319   3.942  1.6682 -0.9586  0.0016
  166MOL0     H22385   6.707   3.209   3.805 -1.8102 -1.9559 -0.3936
  166MOL0     H22386   6.542   3.462   3.827  0.0793  1.6311  0.0099
  166MOL0     H22387   6.501   3.342   3.701  1.6053 -2.5981 -0.9152
  166MOL0     H22388   6.640   3.517   3.619  0.5631 -0.3558 -0.4208
  166MOL0     H22389   6.776   3.463   3.710  2.1149 -1.5228 -1.9974
  166MOL0     H22390   6.254   2.882   4.351  1.9210 -0.1788  0.5097
  166MOL0     H22391   6.083   2.812   4.487  0.2277 -0.4989 -0.1139
  166MOL0     H22392   5.988   2.851   4.997 -0.7242  0.5158 -1.6624
  166MOL0     H22393   5.904   2.742   5.210 -2.4988 -0.8793  1.5322
  166MOL0     H22394   5.926   3.793   4.448 -2.4217  0.1324  0.3504
  166MOL0     H22395   6.128   3.932   4.516  0.0755 -1.7398 -0.8977
  166MOL0     H22396   6.421   3.978   4.916  1.4843 -3.6963 -2.5787
  166MOL0     H22397   6.652   4.055   4.958  0.5510 -1.1127 -2.0438
  166MOL0     H22398   6.885   4.090   4.864 -3.0449 -1.0944 -0.1169
  166MOL0     H22399   6.828   4.159   5.007  0.8020 -0.5466  0.4386
  166MOL0     H22400   7.059   4.266   4.995 -0.7532 -1.5390  1.3262
  166MOL0     H22401   6.980   4.382   4.910  1.6719  0.1769 -1.5338
  166MOL0     H22402   7.005   4.286   4.687 -0.9702 -0.5353  0.9678
  166MOL0     H22403   7.116   4.158   4.763  0.5447 -0.0292  3.2323
  166MOL0     H22404   7.183   4.453   4.807  2.8504  0.0487  1.1094
  166MOL0     H22405   7.279   4.295   4.821 -0.6341 -0.3722  0.1995
  166MOL0     H22406   7.270   4.414   4.405  0.3261 -2.4422 -1.0167
  166MOL0     H22407   6.609   4.362   4.679  4.1658  0.1772  4.2129
  166MOL0     H22408   6.444   4.329   4.487 -1.6791  1.5279 -0.4719
  166MOL0     H22409   6.316   4.218   4.501  1.2077 -3.1552  2.9153
  166MOL0     H22410   6.321   4.382   4.592 -1.2563  0.7150 -2.4303
  167MOL0     O22411   7.354   4.581   0.023 -0.0837  1.2026 -0.3292
  167MOL0     C22412   7.426   4.527  -0.062 -0.3166 -0.6832  0.1696
  167MOL0     O22413   7.484   4.592  -0.169 -0.1259 -0.1782  0.7027
  167MOL0     C22414   7.449   4.718  -0.226 -0.0878  0.4079 -0.3109
  167MOL0     C22415   7.464   4.739  -0.359  0.0380 -1.1113  0.4458
  167MOL0     C22416   7.427   4.865  -0.420 -0.5130  0.1940 -0.1716
  167MOL0     C22417   7.361   4.966  -0.345 -0.0596 -0.4927 -1.1100
  167MOL0     O22418   7.325   5.094  -0.387 -0.3462 -0.6433  0.9169
  167MOL0     C22419   7.398   5.144  -0.504  0.0750 -0.1469 -1.0243
  167MOL0     C22420   7.386   5.296  -0.505 -0.5096  0.1069 -1.5896
  167MOL0     C22421   7.510   5.352  -0.433 -0.1097  1.2027 -0.0427
  167MOL0     C22422   7.498   5.329  -0.283 -0.0239  0.0455  0.4155
  167MOL0     C22423   7.603   5.409  -0.213  1.2655  0.3637 -0.2141
  167MOL0     C22424   7.741   5.350  -0.219 -0.8559  0.5191  0.5414
  167MOL0     C22425   7.865   5.439  -0.192 -0.3316  0.1450 -0.7112
  167MOL0     C22426   7.873   5.584  -0.248 -0.5184  0.0133  0.8436
  167MOL0     N22427   7.815   5.689  -0.167 -1.4704  0.3793 -1.3181
  167MOL0     C22428   7.866   5.746  -0.054  0.7217  0.3690 -0.3506
  167MOL0     C22429   7.772   5.814   0.011  0.6674  0.1128 -0.4991
  167MOL0     C22430   7.791   5.879   0.134 -0.6208 -0.4120  0.4460
  167MOL0     C22431   7.711   6.004   0.149  0.1961 -0.3286 -0.9358
  167MOL0     C22432   7.744   6.066   0.288  0.5904 -0.3729  0.0452
  167MOL0     C22433   7.659   6.192   0.316  0.0727  0.4409 -0.2316
  167MOL0     O22434   7.687   6.228   0.456 -0.0286 -0.2776 -0.6075
  167MOL0     C22435   7.644   6.353   0.500  0.7282 -0.3225  0.2744
  167MOL0     C22436   7.554   6.433   0.425 -0.4614  0.7865  0.7811
  167MOL0     C22437   7.519   6.565   0.459  0.5237 -0.2447 -0.0362
  167MOL0     C22438   7.590   6.627   0.561  0.7065  0.1396  0.3407
  167MOL0     C22439   7.582   6.768   0.576 -0.2947 -0.3000 -0.2778
  167MOL0     O22440   7.560   6.849   0.461  0.1130  0.6285  0.8383
  167MOL0     C22441   7.583   6.981   0.477 -0.4775  0.1827  1.0458
  167MOL0     C22442   7.488   7.074   0.525  0.4167  0.3053 -0.1999
  167MOL0     C22443   7.519   7.207   0.543  0.3111 -0.6050  0.1099
  167MOL0     C22444   7.647   7.251   0.518 -0.8663  0.1175 -0.1444
  167MOL0     O22445   7.676   7.387   0.550 -0.6060 -0.1922 -0.4045
  167MOL0     C22446   7.809   7.443   0.532 -0.0506 -0.0764 -0.3771
  167MOL0     C22447   7.823   7.577   0.595 -0.1581 -0.5733 -0.3826
  167MOL0     C22448   7.957   7.639   0.570 -0.6490 -0.1677  0.1608
  167MOL0     C22449   7.962   7.769   0.655 -0.0947 -0.6005 -0.2698
  167MOL0     C22450   8.107   7.814   0.694 -0.2691  0.0134 -1.1492
  167MOL0     C22451   8.191   7.811   0.564  0.4147 -0.9473  0.1680
  167MOL0     C22452   8.331   7.848   0.597  0.4485 -0.0849  0.4178
  167MOL0     C22453   8.413   7.886   0.469  0.8340  0.6975  0.2584
  167MOL0    Cl22454   8.560   7.970   0.505 -0.1509 -0.1769 -0.2681
  167MOL0     C22455   7.745   7.164   0.464  0.4755 -0.4408  0.3631
  167MOL0     C22456   7.709   7.034   0.443 -0.3713  0.7581  0.7192
  167MOL0     O22457   7.611   6.811   0.686  0.1084 -0.6004 -0.1119
  167MOL0     C22458   7.664   6.544   0.649  0.7284 -0.2472  0.2225
  167MOL0     C22459   7.690   6.406   0.620  0.3307 -0.2553  1.3057
  167MOL0     N22460   7.664   5.823  -0.081  0.1331  0.2864  0.6651
  167MOL0     N22461   7.686   5.744  -0.178  0.0326  0.5153  0.3375
  167MOL0     C22462   7.342   4.940  -0.209 -0.4384  0.2684 -0.7062
  167MOL0     C22463   7.386   4.815  -0.153  0.7757  0.0846 -0.1169
  167MOL0     C22464   7.467   4.387  -0.042 -0.3757 -0.5394 -0.4538
  167MOL0     C22465   7.510   4.330   0.084  0.8345 -0.1244  0.2758
  167MOL0     C22466   7.559   4.196   0.090 -1.3001  0.1520  0.4583
  167MOL0     C22467   7.570   4.122  -0.024  0.3416 -0.7157  0.4078
  167MOL0     O22468   7.628   3.996  -0.029 -0.1696 -0.5168 -0.2043
  167MOL0     C22469   7.719   3.945   0.067  0.1027 -0.3612 -0.5840
  167MOL0     C22470   7.788   3.818   0.025  0.1426  0.8284 -1.1868
  167MOL0     C22471   7.857   3.735   0.145 -0.3344 -0.2719 -0.0922
  167MOL0     C22472   7.768   3.662   0.252  0.3440  0.7959  0.0703
  167MOL0     C22473   7.846   3.663   0.377  0.4401 -0.6602  0.0197
  167MOL0     C22474   7.927   3.680   0.469 -0.1397 -1.5131 -0.5879
  167MOL0     C22475   7.513   4.171  -0.144  0.1976 -0.0348 -0.3372
  167MOL0     C22476   7.467   4.300  -0.155 -0.0734 -0.1112 -0.4262
  167MOL0     C22477   7.395   4.319  -0.285 -0.3982 -0.7890 -0.8553
  167MOL0     H22478   7.513   4.658  -0.412  0.6340 -0.9041  0.6783
  167MOL0     H22479   7.447   4.862  -0.526 -0.1630 -4.2171 -0.1759
  167MOL0     H22480   7.503   5.114  -0.504 -0.3311 -1.6569 -2.2590
  167MOL0     H22481   7.354   5.099  -0.593 -1.9128 -3.3118  1.3457
  167MOL0     H22482   7.293   5.325  -0.454 -0.2509  2.4567 -2.3604
  167MOL0     H22483   7.382   5.318  -0.612 -2.0029 -1.2532 -1.8514
  167MOL0     H22484   7.526   5.459  -0.450 -0.1248  1.4101  1.1909
  167MOL0     H22485   7.596   5.299  -0.476 -1.4173  0.8941 -2.4933
  167MOL0     H22486   7.399   5.369  -0.260  1.2366  2.9137  1.3023
  167MOL0     H22487   7.503   5.223  -0.258  0.4571 -0.2457 -0.8818
  167MOL0     H22488   7.630   5.509  -0.249  2.4130 -0.0885 -0.6665
  167MOL0     H22489   7.574   5.432  -0.110 -1.4793  4.3876 -1.6290
  167MOL0     H22490   7.751   5.267  -0.148  0.7037  0.6045  0.4730
  167MOL0     H22491   7.772   5.310  -0.316 -4.0808  0.3977 -0.5384
  167MOL0     H22492   7.951   5.381  -0.225 -0.1265  0.4427 -0.7024
  167MOL0     H22493   7.861   5.453  -0.084 -0.2878 -3.2736 -0.1641
  167MOL0     H22494   7.980   5.599  -0.262 -0.4155 -1.0101  0.4885
  167MOL0     H22495   7.812   5.595  -0.338  0.9847 -2.0399 -0.4802
  167MOL0     H22496   7.965   5.720  -0.018  1.2782  0.1513 -1.9771
  167MOL0     H22497   7.770   5.809   0.215 -2.9789  0.5276  0.7408
  167MOL0     H22498   7.895   5.912   0.136 -0.6154 -0.4283  0.4380
  167MOL0     H22499   7.746   6.082   0.081 -0.5172 -0.1764 -1.1413
  167MOL0     H22500   7.608   5.977   0.125  1.2452 -2.2754 -3.6361
  167MOL0     H22501   7.850   6.093   0.294  1.7629 -3.0277 -4.0676
  167MOL0     H22502   7.708   5.994   0.363 -1.1263 -0.4837 -0.8219
  167MOL0     H22503   7.553   6.173   0.301 -0.3349  2.2004  0.1748
  167MOL0     H22504   7.693   6.284   0.268 -2.7258  0.7100 -1.9184
  167MOL0     H22505   7.503   6.377   0.347 -1.2578  3.9570 -1.1491
  167MOL0     H22506   7.469   6.630   0.388  0.4981 -2.2547 -1.9860
  167MOL0     H22507   7.402   7.020   0.562  1.7680 -0.6270  1.7124
  167MOL0     H22508   7.443   7.273   0.585  1.2768  0.1581  0.7108
  167MOL0     H22509   7.876   7.369   0.575  2.9418  2.0564 -1.0362
  167MOL0     H22510   7.826   7.454   0.425 -0.9726 -2.2430 -0.7879
  167MOL0     H22511   7.750   7.643   0.548  0.8806  0.3936 -0.6961
  167MOL0     H22512   7.788   7.572   0.698 -1.4708 -0.7472 -0.8124
  167MOL0     H22513   8.035   7.570   0.602 -0.3816  0.6670  1.3918
  167MOL0     H22514   7.973   7.656   0.463  2.8779  0.9580  0.7416
  167MOL0     H22515   7.902   7.763   0.746  1.5595  0.8025  0.9644
  167MOL0     H22516   7.929   7.849   0.588 -1.9775 -1.0856  0.0216
  167MOL0     H22517   8.141   7.750   0.776 -1.3729  1.9376  0.9379
  167MOL0     H22518   8.100   7.913   0.741  2.5149  0.5186 -1.6469
  167MOL0     H22519   8.187   7.709   0.525 -1.7332 -0.2495 -1.6447
  167MOL0     H22520   8.148   7.876   0.488  3.3708  0.3582 -0.5331
  167MOL0     H22521   8.383   7.756   0.627 -3.5774 -2.5172  0.7189
  167MOL0     H22522   8.339   7.928   0.671  2.5126  0.4342 -0.2969
  167MOL0     H22523   8.444   7.799   0.410  0.9717 -0.3259  1.7971
  167MOL0     H22524   8.355   7.952   0.404  0.0183  0.0394  0.3145
  167MOL0     H22525   7.847   7.189   0.439  0.1126 -1.5795 -2.6637
  167MOL0     H22526   7.775   6.960   0.401 -1.8125  1.1452 -2.5432
  167MOL0     H22527   7.705   6.594   0.736 -3.5961  4.2299  0.1050
  167MOL0     H22528   7.748   6.342   0.685  0.5000 -0.6373  0.7861
  167MOL0     H22529   7.320   5.025  -0.145 -0.0188 -0.2224  0.0990
  167MOL0     H22530   7.390   4.800  -0.046 -0.1998  0.0219 -0.0758
  167MOL0     H22531   7.507   4.400   0.167  0.2529 -0.4560  0.5379
  167MOL0     H22532   7.592   4.147   0.181  2.5245 -2.3410 -1.9719
  167MOL0     H22533   7.661   3.929   0.158  0.6913  2.5507  0.4291
  167MOL0     H22534   7.790   4.025   0.088  1.3657 -2.0185  1.7938
  167MOL0     H22535   7.870   3.829  -0.047  0.2477 -2.3393 -1.7038
  167MOL0     H22536   7.706   3.757  -0.013  0.9303 -0.0346 -1.5678
  167MOL0     H22537   7.902   3.820   0.197  2.4378 -0.1602 -2.3838
  167MOL0     H22538   7.932   3.669   0.100  0.0670 -1.0902  1.6862
  167MOL0     H22539   7.670   3.708   0.267  0.4684  0.5658  1.8274
  167MOL0     H22540   7.750   3.555   0.237  3.5818 -0.2221  2.3893
  167MOL0     H22541   7.992   3.681   0.554  3.1829 -1.8788 -2.9273
  167MOL0     H22542   7.509   4.094  -0.220 -3.2387 -1.1442  0.7851
  167MOL0     H22543   7.472   4.331  -0.361  1.3332 -1.1763  0.7607
  167MOL0     H22544   7.344   4.226  -0.313 -0.6607 -0.5153 -1.3025
  167MOL0     H22545   7.330   4.407  -0.277  1.4561  0.5255  0.6623
  168MOL0     O22546   9.643   4.440   4.628 -0.8267 -0.0780  0.5779
  168MOL0     C22547   9.685   4.506   4.533  0.5556 -1.1191 -0.3739
  168MOL0     O22548   9.612   4.555   4.431 -0.0593  0.7655 -0.3405
  168MOL0     C22549   9.478   4.535   4.449 -1.0666 -0.1772 -0.2681
  168MOL0     C22550   9.415   4.630   4.528 -0.8260 -0.4494 -0.3381
  168MOL0     C22551   9.277   4.609   4.557 -0.3891  0.3558  0.3799
  168MOL0     C22552   9.202   4.509   4.493  0.5954  0.1829  0.0970
  168MOL0     O22553   9.070   4.500   4.536 -0.5298 -0.3546 -0.1194
  168MOL0     C22554   9.027   4.372   4.572 -0.4002  0.8256  0.1085
  168MOL0     C22555   8.900   4.370   4.658  0.3099 -0.2802 -0.5081
  168MOL0     C22556   8.924   4.411   4.806 -0.6748  0.6942 -1.1297
  168MOL0     C22557   8.854   4.537   4.860  0.5187 -0.8365 -0.0202
  168MOL0     C22558   8.924   4.673   4.823 -0.3492 -0.2551  0.3011
  168MOL0     C22559   9.041   4.710   4.914 -0.3564 -0.6576  0.1822
  168MOL0     C22560   9.002   4.745   5.059  0.7778 -0.1661 -0.3860
  168MOL0     C22561   9.028   4.891   5.093 -0.4958  0.2504 -0.2867
  168MOL0     N22562   9.040   4.917   5.236 -0.0450  0.3005 -0.0231
  168MOL0     C22563   9.162   4.927   5.305 -0.3213  0.4107 -0.6831
  168MOL0     C22564   9.117   4.938   5.431 -0.8938 -0.6087 -0.5506
  168MOL0     C22565   9.208   4.918   5.553  0.0251  0.3669 -0.3079
  168MOL0     C22566   9.234   4.768   5.583  0.6413 -0.5916  0.1307
  168MOL0     C22567   9.374   4.739   5.515  0.2802 -0.1826 -0.1439
  168MOL0     C22568   9.413   4.588   5.538 -0.5173 -0.4985 -0.1651
  168MOL0     O22569   9.315   4.490   5.516  0.6845  0.0310  0.2711
  168MOL0     C22570   9.350   4.366   5.481 -0.7110  0.4909  0.4839
  168MOL0     C22571   9.485   4.314   5.485  0.9746  0.4844 -0.5970
  168MOL0     C22572   9.512   4.190   5.435 -0.3381  0.3081 -0.1324
  168MOL0     C22573   9.409   4.113   5.399  0.4517  0.0555 -0.3651
  168MOL0     C22574   9.438   3.976   5.346 -0.0671  0.3045  0.8586
  168MOL0     O22575   9.553   3.920   5.388 -0.9264  0.4656 -0.0801
  168MOL0     C22576   9.596   3.811   5.315 -0.6253 -0.4650 -0.1198
  168MOL0     C22577   9.723   3.826   5.263  0.8855 -0.0598 -0.1305
  168MOL0     C22578   9.789   3.718   5.204  0.1576 -0.3937  0.1609
  168MOL0     C22579   9.728   3.591   5.194  0.3960  0.7453 -0.4573
  168MOL0     O22580   9.800   3.486   5.129  0.8422  0.5769 -1.0146
  168MOL0     C22581   9.740   3.377   5.054 -0.1790  0.3648 -0.1042
  168MOL0     C22582   9.664   3.421   4.927 -0.4380  0.4421  0.8255
  168MOL0     C22583   9.727   3.513   4.824 -0.4940 -0.0634  0.3725
  168MOL0     C22584   9.807   3.434   4.717 -0.3714  0.1867 -0.8969
  168MOL0     C22585   9.857   3.534   4.611  0.3938  0.4137 -0.0414
  168MOL0     C22586   9.919   3.471   4.487  0.5233  0.2741 -0.4900
  168MOL0     C22587  10.009   3.583   4.409  0.6321 -0.1434 -0.2637
  168MOL0     C22588  10.115   3.533   4.309  0.1437 -0.3915 -0.2057
  168MOL0    Cl22589  10.253   3.478   4.409 -0.1152 -0.1729  0.1981
  168MOL0     C22590   9.595   3.577   5.236  0.6315 -0.7991  0.2487
  168MOL0     C22591   9.534   3.683   5.310 -0.8580 -0.3068  0.7705
  168MOL0     O22592   9.354   3.923   5.266  0.7111  0.1718  0.6340
  168MOL0     C22593   9.269   4.154   5.405 -0.6134  0.3592 -0.7084
  168MOL0     C22594   9.245   4.285   5.450  0.8490  0.1086  0.1864
  168MOL0     N22595   8.984   4.964   5.439  0.4175 -0.6441  0.8522
  168MOL0     N22596   8.934   4.949   5.313  0.1616 -0.9483 -0.2221
  168MOL0     C22597   9.268   4.415   4.414 -0.3138 -0.0206  0.1417
  168MOL0     C22598   9.404   4.429   4.388 -0.7556 -0.1864 -0.9051
  168MOL0     C22599   9.826   4.554   4.522 -0.2418 -0.1615  0.4650
  168MOL0     C22600   9.857   4.650   4.414  0.8222  0.1431 -0.7003
  168MOL0     C22601   9.987   4.700   4.398 -0.4709 -0.0581  0.2421
  168MOL0     C22602  10.096   4.657   4.482 -0.0810  0.0120  1.1949
  168MOL0     O22603  10.227   4.697   4.461  0.2704  0.3892  0.2504
  168MOL0     C22604  10.242   4.840   4.474  0.2957  0.4145 -0.0628
  168MOL0     C22605  10.321   4.862   4.599 -0.1902 -0.1085 -0.3337
  168MOL0     C22606  10.446   4.757   4.613 -0.1179  0.4317  0.2934
  168MOL0     C22607  10.530   4.800   4.736  1.7268  0.1034 -0.5475
  168MOL0     C22608  10.626   4.702   4.768  0.5663 -0.6379  1.4342
  168MOL0     C22609  10.711   4.633   4.809 -0.6494  0.2329  0.0684
  168MOL0     C22610  10.073   4.554   4.570  0.2107 -0.5409 -0.6237
  168MOL0     C22611   9.937   4.505   4.596 -0.0058 -0.0390  0.4664
  168MOL0     C22612   9.921   4.406   4.706  0.4493  0.3334 -0.0839
  168MOL0     H22613   9.467   4.715   4.571 -1.4196  0.1411 -0.7640
  168MOL0     H22614   9.213   4.663   4.626 -2.1604  0.2187 -1.0856
  168MOL0     H22615   9.008   4.311   4.483 -2.0516  1.6312 -0.1161
  168MOL0     H22616   9.111   4.323   4.623  0.0222  0.3539 -1.0071
  168MOL0     H22617   8.866   4.266   4.664 -2.5455  0.6371  1.0854
  168MOL0     H22618   8.821   4.434   4.617 -0.5249  2.4032  4.4456
  168MOL0     H22619   9.032   4.425   4.811 -0.8738  2.1247  2.7301
  168MOL0     H22620   8.920   4.328   4.878  2.2219 -0.5234 -2.2435
  168MOL0     H22621   8.754   4.549   4.819  0.3856  1.6684  0.8990
  168MOL0     H22622   8.836   4.540   4.968 -0.5649  0.4095 -0.2096
  168MOL0     H22623   8.948   4.679   4.716 -1.9954  2.7074 -0.0259
  168MOL0     H22624   8.840   4.743   4.832 -0.3427 -0.1462 -0.4351
  168MOL0     H22625   9.101   4.618   4.914  2.1094  0.7617  3.1319
  168MOL0     H22626   9.094   4.783   4.852 -2.6050 -1.3689 -2.7476
  168MOL0     H22627   9.057   4.687   5.134  1.5762 -0.4868 -1.2120
  168MOL0     H22628   8.901   4.722   5.096  0.6877  1.6946  0.6644
  168MOL0     H22629   9.123   4.914   5.042  0.6926 -0.6913  1.3941
  168MOL0     H22630   8.940   4.944   5.055 -2.0007 -2.0993 -0.2938
  168MOL0     H22631   9.268   4.916   5.283 -0.7357 -0.5049 -2.4357
  168MOL0     H22632   9.298   4.975   5.531  0.9299 -1.7611 -2.5002
  168MOL0     H22633   9.161   4.958   5.643  3.1481  2.3464  0.6015
  168MOL0     H22634   9.236   4.751   5.691 -0.3912 -3.1563 -0.1834
  168MOL0     H22635   9.149   4.713   5.543  0.8145  1.7989 -4.1608
  168MOL0     H22636   9.454   4.798   5.561  0.5383 -0.8323  0.2540
  168MOL0     H22637   9.362   4.784   5.416 -2.5308  2.3681  1.2185
  168MOL0     H22638   9.441   4.588   5.644  0.7790  1.4813 -0.4455
  168MOL0     H22639   9.509   4.570   5.489  1.4903  0.3067  3.1443
  168MOL0     H22640   9.568   4.370   5.527 -0.5979  1.0581  2.0055
  168MOL0     H22641   9.614   4.152   5.440 -0.4840 -0.5046 -2.3142
  168MOL0     H22642   9.775   3.922   5.262 -0.5890  0.7784  0.5456
  168MOL0     H22643   9.891   3.714   5.168 -0.0808 -2.1472 -0.4046
  168MOL0     H22644   9.817   3.307   5.019 -0.6526  1.3152 -3.3327
  168MOL0     H22645   9.675   3.317   5.117  1.7407 -3.3437 -1.3233
  168MOL0     H22646   9.622   3.335   4.873  1.5843  1.3681 -2.5056
  168MOL0     H22647   9.570   3.459   4.969 -0.3585 -0.7108  2.1157
  168MOL0     H22648   9.654   3.569   4.766  0.4161 -1.5976 -2.4503
  168MOL0     H22649   9.787   3.584   4.881  1.0711  0.2551 -1.5627
  168MOL0     H22650   9.748   3.356   4.666  3.6924 -1.0177 -4.3066
  168MOL0     H22651   9.894   3.385   4.761  0.0780  2.1671  0.5612
  168MOL0     H22652   9.923   3.606   4.660 -2.4127  2.5286  0.9026
  168MOL0     H22653   9.768   3.590   4.581 -0.5232 -0.4009  1.1225
  168MOL0     H22654   9.980   3.387   4.520 -1.0465 -0.5655  0.3759
  168MOL0     H22655   9.833   3.441   4.427 -1.2058  1.0639  1.4943
  168MOL0     H22656  10.064   3.646   4.480  0.4220  2.8440 -2.5347
  168MOL0     H22657   9.936   3.641   4.351 -1.2653 -2.3532 -0.1888
  168MOL0     H22658  10.091   3.457   4.235 -2.6749  0.3874 -0.1893
  168MOL0     H22659  10.154   3.621   4.256  3.1236 -0.6062  1.4011
  168MOL0     H22660   9.530   3.493   5.213  1.1863 -0.9107 -0.9918
  168MOL0     H22661   9.433   3.680   5.348 -1.5779 -1.3486 -1.0815
  168MOL0     H22662   9.188   4.096   5.362  1.8689 -0.8503 -4.2533
  168MOL0     H22663   9.139   4.309   5.455  0.3059 -2.3659  3.7559
  168MOL0     H22664   9.220   4.337   4.356  0.8452  0.8444 -2.0773
  168MOL0     H22665   9.464   4.364   4.326  2.4331 -0.1588  1.8353
  168MOL0     H22666   9.777   4.678   4.347 -1.5672 -0.1812  1.8379
  168MOL0     H22667   9.998   4.775   4.321 -0.5278 -1.1794 -0.8744
  168MOL0     H22668  10.147   4.893   4.478  0.2460  0.2599  1.1503
  168MOL0     H22669  10.290   4.877   4.383  0.7279 -4.6925 -2.2679
  168MOL0     H22670  10.268   4.860   4.694  1.8211 -1.5816  0.8439
  168MOL0     H22671  10.365   4.962   4.596  0.4592 -0.2709  2.0247
  168MOL0     H22672  10.514   4.761   4.526 -2.1698  1.6040 -1.3423
  168MOL0     H22673  10.396   4.660   4.626 -3.7925  2.3614  1.9711
  168MOL0     H22674  10.570   4.900   4.717 -0.7114  1.1883 -0.2487
  168MOL0     H22675  10.463   4.809   4.822  2.7236  2.4803  0.0660
  168MOL0     H22676  10.773   4.558   4.855 -2.7664 -2.2918 -0.9031
  168MOL0     H22677  10.157   4.505   4.620 -0.0749  1.1294  1.5999
  168MOL0     H22678   9.910   4.308   4.657  1.8452  1.5393 -3.0765
  168MOL0     H22679  10.011   4.401   4.767  0.6609  1.4946 -0.2821
  168MOL0     H22680   9.838   4.422   4.775 -1.6615  1.3073 -2.6455
  169MOL0     O22681  11.325   0.445   6.665 -0.4323  0.5114 -0.0158
  169MOL0     C22682  11.309   0.516   6.568 -0.3890 -0.3270  1.2213
  169MOL0     O22683  11.345   0.648   6.552  0.1610  0.7642 -0.1308
  169MOL0     C22684  11.422   0.708   6.640  0.1111  0.0520 -0.1587
  169MOL0     C22685  11.506   0.650   6.738 -0.8409  0.0043 -0.1144
  169MOL0     C22686  11.598   0.725   6.818 -0.1826 -0.0036 -0.0042
  169MOL0     C22687  11.590   0.863   6.802 -0.3153 -0.9128  0.8630
  169MOL0     O22688  11.660   0.948   6.879  1.0471  0.4443 -0.6044
  169MOL0     C22689  11.636   0.970   7.012 -0.6397  0.4968 -0.4164
  169MOL0     C22690  11.763   0.995   7.099  0.5627  0.1526 -0.2063
  169MOL0     C22691  11.861   0.871   7.106 -0.0423 -0.5664 -0.6041
  169MOL0     C22692  11.887   0.802   7.236 -0.2137  0.4247  1.2899
  169MOL0     C22693  11.967   0.669   7.222 -0.5883  0.2596 -0.6020
  169MOL0     C22694  11.974   0.610   7.361 -0.2221 -0.2684 -0.7481
  169MOL0     C22695  12.040   0.480   7.352 -0.1228  0.9541  0.4790
  169MOL0     C22696  12.106   0.441   7.484  0.3601 -0.3876 -0.1288
  169MOL0     N22697  12.008   0.464   7.591  0.3830 -0.3069 -0.5579
  169MOL0     C22698  11.914   0.373   7.610 -0.1016 -0.0635  1.1618
  169MOL0     C22699  11.865   0.388   7.732  0.1858 -0.4917 -0.7609
  169MOL0     C22700  11.763   0.292   7.787  0.0269 -1.3938 -0.3148
  169MOL0     C22701  11.831   0.178   7.869  0.2192 -0.5658  0.5910
  169MOL0     C22702  11.728   0.109   7.949  0.4757 -0.3394  0.2901
  169MOL0     C22703  11.774  -0.006   8.042 -0.0743  0.4337 -0.0380
  169MOL0     O22704  11.680  -0.097   8.097  0.2991 -0.1773  1.0236
  169MOL0     C22705  11.564  -0.056   8.148 -0.1552  0.2968  0.8760
  169MOL0     C22706  11.453  -0.132   8.118  0.2129 -0.2581  0.5090
  169MOL0     C22707  11.340  -0.105   8.188 -0.0299  0.7313 -0.0322
  169MOL0     C22708  11.328   0.004   8.275  0.2155 -0.1731  0.3255
  169MOL0     C22709  11.202   0.049   8.323  0.6551  0.6379 -0.1408
  169MOL0     O22710  11.205   0.173   8.388  0.0923 -0.0928  0.0470
  169MOL0     C22711  11.104   0.242   8.443 -0.6714  1.1837  0.5807
  169MOL0     C22712  11.131   0.372   8.481 -0.6928  1.1305 -0.0375
  169MOL0     C22713  11.035   0.447   8.554  0.2423  0.5914  1.1146
  169MOL0     C22714  10.913   0.388   8.578 -0.3169 -1.0890  0.4398
  169MOL0     O22715  10.810   0.453   8.645  0.2082  0.1413 -0.4180
  169MOL0     C22716  10.835   0.532   8.762  0.8841 -0.0128  0.5933
  169MOL0     C22717  10.694   0.545   8.824 -0.3514  0.1588 -0.6009
  169MOL0     C22718  10.694   0.619   8.957 -0.5501  0.2361 -0.2137
  169MOL0     C22719  10.720   0.779   8.953  0.4113  0.3930  0.3744
  169MOL0     C22720  10.735   0.833   9.087  0.5054  0.3671 -0.4844
  169MOL0     C22721  10.725   0.989   9.080 -0.2057  0.7421 -0.1442
  169MOL0     C22722  10.585   1.033   9.021  0.0145 -0.2294  0.3519
  169MOL0     C22723  10.586   1.187   8.985  0.5009  0.4089  0.2765
  169MOL0    Cl22724  10.682   1.298   9.084 -0.1822  0.2277 -0.3201
  169MOL0     C22725  10.884   0.257   8.546 -0.7406 -0.3909  0.2194
  169MOL0     C22726  10.980   0.180   8.477  0.8122 -0.3011 -0.4019
  169MOL0     O22727  11.099  -0.019   8.293 -0.2845  0.1563  0.1391
  169MOL0     C22728  11.448   0.078   8.311  0.2660 -0.1042  0.1157
  169MOL0     C22729  11.568   0.037   8.246 -0.9779 -0.4243  0.7295
  169MOL0     N22730  11.928   0.503   7.784 -0.6467  0.0181 -0.9006
  169MOL0     N22731  12.025   0.541   7.707 -0.1797  0.5594 -0.6530
  169MOL0     C22732  11.503   0.921   6.704 -0.7427 -0.3465  0.3575
  169MOL0     C22733  11.413   0.849   6.628 -0.5401  0.5181  0.5683
  169MOL0     C22734  11.241   0.443   6.458 -0.3417 -0.6746 -0.3135
  169MOL0     C22735  11.159   0.530   6.374 -0.1501  0.3261  0.2846
  169MOL0     C22736  11.073   0.483   6.275  0.9616  0.3950  0.4632
  169MOL0     C22737  11.061   0.335   6.253  0.4587 -0.2894 -1.1784
  169MOL0     O22738  10.964   0.300   6.156 -0.9579  0.5703  1.1221
  169MOL0     C22739  10.862   0.211   6.200 -0.5074 -0.0795  0.1280
  169MOL0     C22740  10.834   0.108   6.095  1.0570 -0.3245 -0.2738
  169MOL0     C22741  10.799  -0.022   6.157  0.6426 -0.4032  0.0714
  169MOL0     C22742  10.745  -0.122   6.045 -0.0960  0.8825 -0.1490
  169MOL0     C22743  10.685  -0.237   6.119  0.9650 -0.0341 -0.0282
  169MOL0     C22744  10.612  -0.308   6.184 -0.3381 -0.7101  0.6201
  169MOL0     C22745  11.135   0.254   6.336  0.3070 -0.2288  0.7967
  169MOL0     C22746  11.226   0.303   6.433  0.8688  0.3796  0.0511
  169MOL0     C22747  11.321   0.198   6.482  0.7919 -0.9337 -0.2438
  169MOL0     H22748  11.505   0.543   6.756  0.1686  0.2291  1.4222
  169MOL0     H22749  11.674   0.694   6.888  2.0546  1.7903 -1.4722
  169MOL0     H22750  11.570   1.058   7.011  0.3243  1.2842 -3.6933
  169MOL0     H22751  11.585   0.890   7.067  0.4036  0.5792  0.7135
  169MOL0     H22752  11.752   1.035   7.200  1.6095 -0.3884  0.1434
  169MOL0     H22753  11.823   1.079   7.062  2.1125 -0.9649 -0.3694
  169MOL0     H22754  11.957   0.916   7.078 -1.0249  1.4294 -0.9526
  169MOL0     H22755  11.822   0.799   7.033 -1.6502 -1.2613  0.8766
  169MOL0     H22756  11.947   0.872   7.295  0.3428  0.2225  0.9629
  169MOL0     H22757  11.786   0.786   7.276 -1.3787  4.7275  0.5683
  169MOL0     H22758  11.914   0.599   7.156 -0.0569  0.2688 -1.0461
  169MOL0     H22759  12.067   0.688   7.184 -0.4813  2.6883  0.7493
  169MOL0     H22760  12.029   0.675   7.431  0.0962  0.5634 -1.7438
  169MOL0     H22761  11.875   0.607   7.408 -0.0666  1.2918 -0.2626
  169MOL0     H22762  12.099   0.467   7.261 -2.2650 -2.9916 -0.6005
  169MOL0     H22763  11.962   0.405   7.334  0.2569  0.2663  1.5807
  169MOL0     H22764  12.147   0.340   7.480  1.5615  0.0655 -4.7594
  169MOL0     H22765  12.190   0.510   7.494 -2.6042  3.6004 -0.3483
  169MOL0     H22766  11.885   0.300   7.534 -0.2852  0.3105  0.8681
  169MOL0     H22767  11.716   0.360   7.858  0.2988  0.5166 -1.8661
  169MOL0     H22768  11.691   0.257   7.713  2.2986 -2.8224 -2.0062
  169MOL0     H22769  11.881   0.119   7.792 -0.0297  0.8187 -0.6685
  169MOL0     H22770  11.899   0.225   7.940  1.0907  0.5566 -0.9451
  169MOL0     H22771  11.664   0.064   7.872 -0.6821  3.9589 -1.5789
  169MOL0     H22772  11.679   0.189   8.004  2.0387 -0.5471  2.0392
  169MOL0     H22773  11.828   0.027   8.131  1.1846 -0.8544 -0.2803
  169MOL0     H22774  11.837  -0.074   7.983  0.3632 -0.4847  1.4341
  169MOL0     H22775  11.452  -0.215   8.048 -2.3042  1.1034 -1.2559
  169MOL0     H22776  11.251  -0.165   8.168 -0.1847  1.4411 -1.5931
  169MOL0     H22777  11.233   0.403   8.458  0.7558 -2.5906  0.5489
  169MOL0     H22778  11.053   0.551   8.579  0.2507  1.1469 -0.9848
  169MOL0     H22779  10.904   0.483   8.832  0.8666 -1.4266 -0.3204
  169MOL0     H22780  10.866   0.633   8.735 -2.6175  0.2144 -3.8609
  169MOL0     H22781  10.621   0.580   8.751 -1.4443 -0.8835 -0.0439
  169MOL0     H22782  10.658   0.445   8.849 -2.1863  0.4983 -1.7069
  169MOL0     H22783  10.595   0.604   9.001 -1.9907 -3.0317 -3.9481
  169MOL0     H22784  10.785   0.584   9.007  0.6752 -0.1801 -2.6012
  169MOL0     H22785  10.633   0.805   8.892 -0.9023 -1.1909  1.4864
  169MOL0     H22786  10.803   0.801   8.884  0.0072  0.6342 -0.0345
  169MOL0     H22787  10.836   0.811   9.123  0.3888 -1.2116 -1.0352
  169MOL0     H22788  10.656   0.794   9.153 -1.0545  3.8519 -0.0913
  169MOL0     H22789  10.735   1.053   9.169 -1.8225  1.7831 -0.6726
  169MOL0     H22790  10.805   1.028   9.016  1.9968 -3.1240 -0.0628
  169MOL0     H22791  10.517   1.019   9.106  2.2881  1.7531  2.6673
  169MOL0     H22792  10.552   0.976   8.934  0.6511 -0.7699  0.4526
  169MOL0     H22793  10.626   1.196   8.884  3.0462 -2.4841  0.8810
  169MOL0     H22794  10.487   1.234   8.983 -0.2715 -1.0551  1.7391
  169MOL0     H22795  10.785   0.216   8.562 -1.3266  0.0839 -1.8646
  169MOL0     H22796  10.964   0.074   8.462 -0.8034  0.2383 -3.2406
  169MOL0     H22797  11.441   0.165   8.376 -1.1244 -0.5701  0.6218
  169MOL0     H22798  11.663   0.082   8.274 -1.0089 -1.3625  2.4539
  169MOL0     H22799  11.507   1.029   6.692  1.2783 -0.2697  1.1927
  169MOL0     H22800  11.353   0.900   6.553 -0.6052  0.7827  0.7964
  169MOL0     H22801  11.152   0.638   6.384  0.8808  1.1713 -5.2717
  169MOL0     H22802  11.022   0.558   6.217  1.1763  0.6434  0.5956
  169MOL0     H22803  10.771   0.265   6.230 -0.9575 -0.3978 -0.6356
  169MOL0     H22804  10.884   0.154   6.290 -0.6701  0.3211  0.4289
  169MOL0     H22805  10.922   0.107   6.031 -0.0884 -1.2436 -1.9162
  169MOL0     H22806  10.748   0.141   6.035 -0.9494 -1.4624  1.7948
  169MOL0     H22807  10.713  -0.003   6.222 -1.8704 -2.7099 -2.3149
  169MOL0     H22808  10.883  -0.064   6.213 -1.4360 -1.7890  2.4055
  169MOL0     H22809  10.665  -0.069   5.993  0.0642  2.5290  1.1968
  169MOL0     H22810  10.821  -0.154   5.973  0.6164 -1.2030  1.4496
  169MOL0     H22811  10.536  -0.377   6.217 -1.5066 -0.2213 -0.9412
  169MOL0     H22812  11.124   0.148   6.317 -0.5301 -0.1257  0.6747
  169MOL0     H22813  11.326   0.200   6.592 -1.2808  1.3613 -0.0983
  169MOL0     H22814  11.301   0.096   6.447 -3.2329  0.0641 -1.3820
  169MOL0     H22815  11.416   0.234   6.444  1.5876 -1.1211  1.4703
  170MOL0     O22816   9.717   4.144   8.493  0.3111 -0.6879 -0.0521
  170MOL0     C22817   9.668   4.188   8.387  0.3413  0.3490 -0.6883
  170MOL0     O22818   9.546   4.241   8.370  0.0238 -0.1073  0.2817
  170MOL0     C22819   9.455   4.266   8.477 -0.5412 -0.9384  0.2930
  170MOL0     C22820   9.377   4.377   8.462 -0.4259 -0.6630 -0.4471
  170MOL0     C22821   9.271   4.403   8.552 -0.8801 -0.1731  0.6252
  170MOL0     C22822   9.254   4.324   8.661 -0.5336 -0.2136  0.1995
  170MOL0     O22823   9.153   4.322   8.751 -0.0728 -0.0666 -0.4005
  170MOL0     C22824   9.099   4.450   8.797 -0.6601 -0.8826 -0.4163
  170MOL0     C22825   9.200   4.521   8.891  0.3160 -0.5336 -0.4007
  170MOL0     C22826   9.156   4.662   8.909  0.5171 -0.2320  0.3053
  170MOL0     C22827   9.193   4.753   8.791  0.1830  0.1781 -0.1923
  170MOL0     C22828   9.106   4.889   8.801 -0.5458 -0.4603  0.6064
  170MOL0     C22829   9.138   4.973   8.924 -1.1688 -0.1771 -0.3361
  170MOL0     C22830   9.162   5.120   8.907  0.1374 -0.0154  0.3673
  170MOL0     C22831   9.238   5.190   9.029  0.0174 -0.0228  1.0751
  170MOL0     N22832   9.170   5.180   9.157 -0.1588 -1.1303 -0.0398
  170MOL0     C22833   9.076   5.271   9.202  0.1985  0.5160  1.0612
  170MOL0     C22834   9.057   5.232   9.329 -0.9250  0.3553  0.2326
  170MOL0     C22835   8.960   5.298   9.422  0.3091  0.6472 -0.4915
  170MOL0     C22836   8.818   5.229   9.440 -0.3103  0.1184 -0.3671
  170MOL0     C22837   8.726   5.315   9.522  0.7935  0.4566 -0.2771
  170MOL0     C22838   8.766   5.372   9.653 -0.6008 -0.0181  0.0599
  170MOL0     O22839   8.650   5.377   9.738 -0.4117 -0.3762 -0.0673
  170MOL0     C22840   8.566   5.487   9.735  0.8582 -0.0468  0.3222
  170MOL0     C22841   8.449   5.474   9.800  0.3503 -0.3270  0.2783
  170MOL0     C22842   8.360   5.581   9.808 -0.1210 -0.2118 -1.1618
  170MOL0     C22843   8.391   5.713   9.766  0.5534 -0.8937 -0.3437
  170MOL0     C22844   8.284   5.819   9.790 -0.2551 -0.5365  0.9987
  170MOL0     O22845   8.318   5.950   9.758 -0.2333  0.2110  0.0388
  170MOL0     C22846   8.220   6.042   9.785  0.0430 -0.0295 -0.3889
  170MOL0     C22847   8.157   6.055   9.908  0.7277 -0.7255  0.1129
  170MOL0     C22848   8.076   6.167   9.930  0.4030 -0.9630 -0.7114
  170MOL0     C22849   8.066   6.266   9.836 -0.7005  0.3055 -0.1214
  170MOL0     O22850   7.966   6.360   9.860 -0.2111  0.6083  0.2226
  170MOL0     C22851   8.010   6.468   9.953 -0.0501 -0.3681 -0.4060
  170MOL0     C22852   7.901   6.559   9.969  0.3561 -0.7816 -0.4365
  170MOL0     C22853   7.856   6.628   9.846 -0.6574  0.4868 -0.0157
  170MOL0     C22854   7.762   6.744   9.884 -0.5074 -0.2533 -0.5775
  170MOL0     C22855   7.632   6.693   9.956  0.0050 -0.1845  0.4586
  170MOL0     C22856   7.525   6.808   9.969 -1.2924  0.5397 -0.3426
  170MOL0     C22857   7.398   6.775  10.039  0.3800  0.2936 -0.1245
  170MOL0     C22858   7.311   6.896  10.066  0.2094 -0.2041  1.7192
  170MOL0    Cl22859   7.162   6.838  10.141 -0.1375  0.3144 -0.0427
  170MOL0     C22860   8.138   6.250   9.714  0.6781  0.4156  0.2130
  170MOL0     C22861   8.213   6.141   9.696  0.6488  0.2377 -0.5416
  170MOL0     O22862   8.171   5.778   9.820  0.1313 -0.1267 -0.3174
  170MOL0     C22863   8.515   5.725   9.708 -0.6127 -0.4845  0.7009
  170MOL0     C22864   8.600   5.618   9.687  0.0174  0.0161  0.3276
  170MOL0     N22865   9.129   5.116   9.354 -0.8141  0.7164 -0.1250
  170MOL0     N22866   9.203   5.090   9.254  0.2607 -0.0472  0.8202
  170MOL0     C22867   9.347   4.224   8.676 -0.3242  0.3887 -0.8788
  170MOL0     C22868   9.448   4.189   8.584 -0.2732  0.5232  0.1864
  170MOL0     C22869   9.757   4.214   8.272 -0.6390 -0.8662  0.3882
  170MOL0     C22870   9.736   4.326   8.189 -0.1862  0.6187 -0.2137
  170MOL0     C22871   9.826   4.352   8.083 -0.3113 -1.2407 -0.1136
  170MOL0     C22872   9.937   4.268   8.054  0.9341  0.9777  1.1873
  170MOL0     O22873  10.025   4.295   7.955  0.8588 -0.2868 -0.1347
  170MOL0     C22874  10.162   4.258   7.974  0.6226 -0.4172  0.0434
  170MOL0     C22875  10.246   4.330   7.871 -0.5689 -0.4519 -0.5323
  170MOL0     C22876  10.389   4.281   7.909 -0.1285  0.5030  0.0774
  170MOL0     C22877  10.481   4.350   7.811 -0.2916  1.2150  0.3944
  170MOL0     C22878  10.622   4.311   7.835 -0.3466 -0.7984  0.4321
  170MOL0     C22879  10.740   4.289   7.842 -1.2801 -0.0727 -1.0269
  170MOL0     C22880   9.949   4.160   8.129  0.1922 -0.3366 -0.0628
  170MOL0     C22881   9.863   4.127   8.236  0.3106 -0.4187  0.8960
  170MOL0     C22882   9.878   3.997   8.298 -0.4606  0.5182  0.5070
  170MOL0     H22883   9.388   4.449   8.382 -2.8250  0.2455 -0.0387
  170MOL0     H22884   9.200   4.484   8.537 -2.7597 -1.8989 -0.3574
  170MOL0     H22885   9.087   4.519   8.713 -0.5363 -0.2237  0.1024
  170MOL0     H22886   9.000   4.429   8.840 -1.8313  0.2794 -2.3944
  170MOL0     H22887   9.305   4.507   8.865  1.1816 -0.3891  2.5808
  170MOL0     H22888   9.203   4.486   8.995  2.8028  1.3819  0.2746
  170MOL0     H22889   9.209   4.706   8.994 -2.7538  1.1207  1.8128
  170MOL0     H22890   9.049   4.674   8.931  0.8060  2.4063  0.5933
  170MOL0     H22891   9.299   4.779   8.786 -0.4242  2.6058 -2.9026
  170MOL0     H22892   9.192   4.707   8.692  1.8449  2.6036 -1.4261
  170MOL0     H22893   9.126   4.942   8.708  0.4230 -2.0434 -0.1461
  170MOL0     H22894   9.002   4.857   8.804 -0.2674 -1.3656  1.5189
  170MOL0     H22895   9.041   4.967   8.973 -1.4681 -1.5756 -1.0523
  170MOL0     H22896   9.220   4.930   8.983 -1.9472  1.5829  2.1875
  170MOL0     H22897   9.068   5.175   8.902  0.3828  0.2936 -2.9679
  170MOL0     H22898   9.227   5.137   8.820 -2.8229 -1.9011 -2.4663
  170MOL0     H22899   9.342   5.159   9.022 -0.4539 -1.2601 -1.6530
  170MOL0     H22900   9.244   5.295   8.999 -2.3376 -0.4309 -1.2461
  170MOL0     H22901   9.040   5.354   9.143  1.5238  1.7915  1.9816
  170MOL0     H22902   9.016   5.297   9.516  1.0379  1.3722 -0.9115
  170MOL0     H22903   8.930   5.399   9.393 -1.8323  1.3446  3.3875
  170MOL0     H22904   8.764   5.219   9.345 -1.1523  2.0160 -0.1368
  170MOL0     H22905   8.817   5.133   9.492 -4.3095 -1.0179 -2.1424
  170MOL0     H22906   8.633   5.257   9.529 -0.4346  2.2456 -0.9245
  170MOL0     H22907   8.692   5.400   9.461 -3.2987 -0.7364  0.0206
  170MOL0     H22908   8.832   5.458   9.635 -1.2140  0.2754 -0.8807
  170MOL0     H22909   8.829   5.297   9.700 -0.9601 -2.0218 -2.4798
  170MOL0     H22910   8.441   5.379   9.851  0.7341 -2.0153 -2.6034
  170MOL0     H22911   8.276   5.547   9.867  1.5715  0.9143  2.2123
  170MOL0     H22912   8.159   5.972   9.978  1.4677 -0.6533  0.1937
  170MOL0     H22913   8.027   6.174  10.027  0.3488 -1.3039 -0.7120
  170MOL0     H22914   8.018   6.428  10.054 -1.4293  0.6583  0.1404
  170MOL0     H22915   8.100   6.522   9.921 -2.9417  4.0861 -2.0805
  170MOL0     H22916   7.828   6.495  10.019  0.1045 -0.7826 -0.8066
  170MOL0     H22917   7.932   6.628  10.048 -1.4404  0.9066 -1.1282
  170MOL0     H22918   7.949   6.671   9.808  0.1361 -1.6625 -0.6604
  170MOL0     H22919   7.797   6.571   9.773 -1.6561  2.8227 -1.1599
  170MOL0     H22920   7.737   6.803   9.796 -0.9565  1.0838  0.4032
  170MOL0     H22921   7.804   6.814   9.957 -1.8175  1.3109 -1.2703
  170MOL0     H22922   7.661   6.653  10.054 -1.7018  2.0201  2.0022
  170MOL0     H22923   7.593   6.622   9.883  0.2450 -0.2198  0.3662
  170MOL0     H22924   7.575   6.885  10.028 -1.8593 -0.2906  1.2714
  170MOL0     H22925   7.512   6.850   9.868  0.4278 -0.3621 -0.9689
  170MOL0     H22926   7.412   6.712  10.127  0.0631 -0.7308 -0.7982
  170MOL0     H22927   7.343   6.708   9.973 -1.5546  1.6792 -0.0169
  170MOL0     H22928   7.364   6.978  10.116  1.2739 -0.0588  0.3922
  170MOL0     H22929   7.270   6.927   9.969 -1.3162 -1.5588  1.8902
  170MOL0     H22930   8.120   6.325   9.638 -2.1982  1.7716  2.0270
  170MOL0     H22931   8.272   6.135   9.605 -2.2766  1.1941 -2.6695
  170MOL0     H22932   8.535   5.824   9.670 -1.2629 -0.8173 -0.5876
  170MOL0     H22933   8.697   5.633   9.641 -0.3798  0.1700 -0.4740
  170MOL0     H22934   9.328   4.156   8.758 -1.3910  0.7825 -0.7832
  170MOL0     H22935   9.500   4.095   8.597 -1.5196 -0.0741  1.0439
  170MOL0     H22936   9.645   4.385   8.202 -1.4746 -1.4370  0.5813
  170MOL0     H22937   9.798   4.427   8.010 -2.9826  0.1122  2.1230
  170MOL0     H22938  10.173   4.149   7.974  0.6444 -0.4461 -1.7118
  170MOL0     H22939  10.200   4.291   8.071 -0.9961 -2.7689  1.5950
  170MOL0     H22940  10.250   4.439   7.880 -1.2514 -0.1432 -3.0276
  170MOL0     H22941  10.220   4.309   7.767  3.1082 -0.5988 -1.5624
  170MOL0     H22942  10.397   4.172   7.904 -1.9931  0.1897  1.9748
  170MOL0     H22943  10.419   4.297   8.013  2.5447  0.2287 -0.5752
  170MOL0     H22944  10.443   4.325   7.711 -0.0117  0.0363  0.5662
  170MOL0     H22945  10.467   4.458   7.819  0.3281  1.1924  2.3211
  170MOL0     H22946  10.846   4.279   7.853 -0.3555  6.3220 -0.3215
  170MOL0     H22947  10.030   4.092   8.105  0.5388 -0.6221  1.7638
  170MOL0     H22948   9.930   3.936   8.224  1.8690  1.0158  1.6517
  170MOL0     H22949   9.940   4.002   8.388  0.1003 -1.4544  0.2926
  170MOL0     H22950   9.778   3.954   8.312  0.4146 -2.1941 -0.7951
  171MOL0     O22951   2.330   0.492  11.039 -0.1163  0.3771 -0.3163
  171MOL0     C22952   2.326   0.517  10.922  0.8096  0.0928 -0.2156
  171MOL0     O22953   2.225   0.587  10.866 -0.1692  0.1421  0.5089
  171MOL0     C22954   2.106   0.603  10.939  0.4154  1.1037 -0.0767
  171MOL0     C22955   2.029   0.491  10.954 -0.5122  0.7791  0.0575
  171MOL0     C22956   1.909   0.491  11.017  0.0609 -0.1836 -0.0423
  171MOL0     C22957   1.872   0.609  11.075 -0.0908 -0.0195 -0.7567
  171MOL0     O22958   1.746   0.616  11.124  0.1635  1.0489  0.1675
  171MOL0     C22959   1.711   0.633  11.253 -0.3575  0.1024 -0.5650
  171MOL0     C22960   1.568   0.696  11.258  0.6059 -0.3220  0.2028
  171MOL0     C22961   1.456   0.603  11.209 -0.2254  0.9846  0.5305
  171MOL0     C22962   1.318   0.661  11.197 -0.2433  0.1305  0.1077
  171MOL0     C22963   1.209   0.561  11.145 -0.3543  0.0104 -1.1318
  171MOL0     C22964   1.066   0.623  11.174  0.4283  0.0157  0.2414
  171MOL0     C22965   0.954   0.554  11.095  0.5967 -0.1050 -0.4254
  171MOL0     C22966   0.971   0.546  10.934 -0.2334 -0.1404 -0.1073
  171MOL0     N22967   0.863   0.471  10.874 -0.0593  0.0014 -0.2978
  171MOL0     C22968   0.875   0.345  10.838  0.6612  1.0372  0.3822
  171MOL0     C22969   0.759   0.306  10.762  0.3063 -0.9309 -0.0894
  171MOL0     C22970   0.727   0.167  10.703  0.3779  0.2538  0.4115
  171MOL0     C22971   0.811   0.138  10.576  0.9213  0.0467 -0.5101
  171MOL0     C22972   0.754   0.010  10.512 -0.5256 -0.2774  0.2782
  171MOL0     C22973   0.770  -0.120  10.595  0.0881  0.6490 -0.4366
  171MOL0     O22974   0.693  -0.224  10.533 -0.2643  0.8097  1.2097
  171MOL0     C22975   0.695  -0.347  10.596 -0.1636 -0.1484 -0.4883
  171MOL0     C22976   0.655  -0.452  10.511  0.3742 -0.8866  0.0347
  171MOL0     C22977   0.639  -0.580  10.568 -0.0398 -0.9777 -0.0451
  171MOL0     C22978   0.678  -0.596  10.702  0.1483 -0.3857  0.2681
  171MOL0     C22979   0.675  -0.726  10.767 -0.8962 -0.4432 -0.6792
  171MOL0     O22980   0.687  -0.728  10.902  0.5808  0.3504 -0.1482
  171MOL0     C22981   0.704  -0.855  10.961 -1.0186 -0.5186  0.6173
  171MOL0     C22982   0.805  -0.950  10.920  0.2500 -0.1373  0.6345
  171MOL0     C22983   0.819  -1.077  10.982  0.6260 -0.6470 -0.2832
  171MOL0     C22984   0.738  -1.112  11.089  0.4583  0.2120  0.3020
  171MOL0     O22985   0.742  -1.222  11.173 -0.3303 -0.0249  0.0078
  171MOL0     C22986   0.869  -1.288  11.164 -0.8994  0.5419  0.6317
  171MOL0     C22987   0.877  -1.405  11.269 -0.0226 -0.2836 -0.0552
  171MOL0     C22988   0.773  -1.509  11.253  0.2673  0.8339 -1.0721
  171MOL0     C22989   0.786  -1.600  11.375 -0.5454  0.7033 -0.7100
  171MOL0     C22990   0.706  -1.723  11.355  0.2135 -0.5829  0.6523
  171MOL0     C22991   0.576  -1.718  11.267  0.3691  0.0924 -0.5962
  171MOL0     C22992   0.453  -1.659  11.344 -0.7606  0.7168 -0.0999
  171MOL0     C22993   0.322  -1.671  11.268  0.1490  0.2442  0.4063
  171MOL0    Cl22994   0.173  -1.638  11.364  0.0640  0.0208  0.3070
  171MOL0     C22995   0.650  -1.027  11.138 -1.7847  0.2993 -0.1955
  171MOL0     C22996   0.630  -0.896  11.076  0.4786  0.3058  0.0524
  171MOL0     O22997   0.663  -0.824  10.697 -0.0627 -0.5111  1.3475
  171MOL0     C22998   0.723  -0.491  10.784  0.3517 -0.5802  0.5771
  171MOL0     C22999   0.744  -0.367  10.724 -0.6718 -0.2774 -1.1885
  171MOL0     N23000   0.690   0.431  10.757  0.3593 -0.6195  0.2880
  171MOL0     N23001   0.763   0.521  10.817  0.1307 -0.3502 -0.2549
  171MOL0     C23002   1.957   0.724  11.072  0.0409  0.6663  0.8275
  171MOL0     C23003   2.075   0.720  11.001  0.2489  0.3210  0.4127
  171MOL0     C23004   2.428   0.466  10.828 -0.8359  0.0781 -0.1339
  171MOL0     C23005   2.516   0.365  10.876 -0.3462  0.5332  0.6407
  171MOL0     C23006   2.615   0.320  10.797 -0.7904 -0.2552  0.2808
  171MOL0     C23007   2.630   0.358  10.661 -0.1359 -0.0192  0.2928
  171MOL0     O23008   2.744   0.315  10.601 -0.1584 -0.0537  0.5162
  171MOL0     C23009   2.742   0.300  10.459 -0.1290  0.2552  0.5675
  171MOL0     C23010   2.865   0.218  10.425 -0.1065  0.1924 -0.2069
  171MOL0     C23011   2.900   0.232  10.277 -0.4067  0.4019 -0.0372
  171MOL0     C23012   2.793   0.173  10.185  0.2723  0.1414 -0.3498
  171MOL0     C23013   2.687   0.264  10.160 -0.2961  0.3752 -0.3345
  171MOL0     C23014   2.589   0.331  10.136 -0.5443 -0.0886  0.1893
  171MOL0     C23015   2.534   0.441  10.603  0.2226 -0.0076 -0.2028
  171MOL0     C23016   2.442   0.507  10.692 -0.0374  0.1627 -0.7241
  171MOL0     C23017   2.369   0.628  10.635 -0.1917  0.8301 -0.5639
  171MOL0     H23018   2.056   0.401  10.899 -2.5053 -0.4640  0.9964
  171MOL0     H23019   1.848   0.402  11.026 -0.4488  0.3328  2.2919
  171MOL0     H23020   1.699   0.540  11.308  1.5112  0.0989 -0.1048
  171MOL0     H23021   1.779   0.699  11.308 -0.4443  0.9879 -1.4766
  171MOL0     H23022   1.573   0.788  11.200  0.8790  1.0058  2.2450
  171MOL0     H23023   1.548   0.712  11.364 -1.7111  1.0713 -0.3845
  171MOL0     H23024   1.461   0.513  11.271  0.6811 -0.5061 -1.5667
  171MOL0     H23025   1.478   0.583  11.103  2.5165  2.9428  0.6305
  171MOL0     H23026   1.277   0.712  11.285 -4.4117 -1.7041 -0.5328
  171MOL0     H23027   1.324   0.734  11.116  0.8826  0.8805  0.8463
  171MOL0     H23028   1.218   0.542  11.038 -2.7638 -1.6559 -1.1295
  171MOL0     H23029   1.217   0.467  11.201  2.8129  0.0340 -1.3955
  171MOL0     H23030   1.047   0.622  11.281  1.9589  0.8362  0.5311
  171MOL0     H23031   1.064   0.726  11.139 -2.4068  0.0992  0.4111
  171MOL0     H23032   0.868   0.616  11.123  0.1163 -1.7543  2.0639
  171MOL0     H23033   0.939   0.459  11.146 -1.0447 -0.2926 -1.1879
  171MOL0     H23034   0.980   0.648  10.895 -1.8168 -0.1236 -0.4885
  171MOL0     H23035   1.060   0.492  10.903 -1.0834 -0.8331 -1.4265
  171MOL0     H23036   0.962   0.281  10.849 -1.6818 -2.6422 -0.4266
  171MOL0     H23037   0.748   0.094  10.781 -2.2159 -0.4334  0.5312
  171MOL0     H23038   0.619   0.160  10.688  0.4955  0.2755 -0.5176
  171MOL0     H23039   0.784   0.217  10.505 -0.1776 -2.0807 -2.6254
  171MOL0     H23040   0.917   0.126  10.599  1.6445 -0.0127 -3.4330
  171MOL0     H23041   0.800  -0.005  10.413 -1.5286 -1.2879 -0.0478
  171MOL0     H23042   0.650   0.022  10.482 -1.4142  0.9670  3.4624
  171MOL0     H23043   0.728  -0.090  10.691  4.2900 -0.0228  1.8254
  171MOL0     H23044   0.877  -0.139  10.605  0.4872  2.3089 -1.2129
  171MOL0     H23045   0.625  -0.439  10.408  0.1468 -3.4282 -0.2953
  171MOL0     H23046   0.611  -0.673  10.521 -0.3280 -1.8952  1.8457
  171MOL0     H23047   0.864  -0.938  10.830 -1.8725 -2.2765 -1.1786
  171MOL0     H23048   0.905  -1.125  10.936  0.2609 -0.6224 -1.0055
  171MOL0     H23049   0.884  -1.338  11.068 -0.5593  0.3868  0.7636
  171MOL0     H23050   0.956  -1.223  11.173 -0.4811  0.3649 -1.6865
  171MOL0     H23051   0.976  -1.450  11.257 -0.1593 -0.1510 -1.9192
  171MOL0     H23052   0.872  -1.357  11.367  1.6288  0.4922 -0.3204
  171MOL0     H23053   0.675  -1.462  11.243  0.1389  0.7862 -0.1336
  171MOL0     H23054   0.786  -1.566  11.160 -2.6315 -3.9904  1.0898
  171MOL0     H23055   0.745  -1.547  11.462 -2.9006 -1.2295 -0.5507
  171MOL0     H23056   0.892  -1.622  11.393  0.0742  1.4540 -3.0692
  171MOL0     H23057   0.675  -1.760  11.453 -3.2697  0.6470  0.1897
  171MOL0     H23058   0.776  -1.790  11.306 -0.1096  0.5451 -1.4925
  171MOL0     H23059   0.594  -1.667  11.172  1.8384  1.4725  0.3677
  171MOL0     H23060   0.568  -1.823  11.238 -0.3419  0.0337 -0.2098
  171MOL0     H23061   0.470  -1.557  11.380  4.2476  0.4859 -1.0975
  171MOL0     H23062   0.445  -1.715  11.438  0.6585  1.9081  0.7547
  171MOL0     H23063   0.325  -1.608  11.179 -2.5874  0.6402  0.5121
  171MOL0     H23064   0.302  -1.777  11.247 -0.1875  0.1140  1.3504
  171MOL0     H23065   0.579  -1.050  11.217 -1.6138 -0.9934 -0.3965
  171MOL0     H23066   0.550  -0.834  11.114 -1.7036 -1.8935 -0.6521
  171MOL0     H23067   0.741  -0.501  10.891  2.0523  2.2048  0.6509
  171MOL0     H23068   0.765  -0.277  10.782 -2.5656 -0.1951 -0.5588
  171MOL0     H23069   1.917   0.809  11.127 -2.4408  0.9317 -1.2308
  171MOL0     H23070   2.140   0.805  10.981 -1.5818  0.9246 -4.6134
  171MOL0     H23071   2.506   0.308  10.967 -0.8602  2.4744  1.8597
  171MOL0     H23072   2.687   0.259  10.852 -2.8585  1.7040  5.8227
  171MOL0     H23073   2.742   0.395  10.405 -0.6280 -0.1665 -0.1876
  171MOL0     H23074   2.647   0.262  10.422  0.6507 -0.6802 -0.5401
  171MOL0     H23075   2.847   0.114  10.455  0.9582 -0.3472 -1.3618
  171MOL0     H23076   2.954   0.245  10.484  1.1231  3.7611 -3.3135
  171MOL0     H23077   2.999   0.193  10.255 -0.7796  0.1118 -1.3397
  171MOL0     H23078   2.912   0.338  10.249  1.3617 -0.6810 -4.2138
  171MOL0     H23079   2.834   0.131  10.092 -2.3392 -1.0762 -1.0291
  171MOL0     H23080   2.741   0.087  10.229  0.3947  0.1530 -0.1789
  171MOL0     H23081   2.512   0.392  10.093  1.8291  1.3104 -2.4423
  171MOL0     H23082   2.544   0.476  10.501  2.2637 -1.3762 -0.5480
  171MOL0     H23083   2.373   0.712  10.704 -3.7941  1.0925 -0.5217
  171MOL0     H23084   2.410   0.650  10.536 -2.6287  2.6821 -1.2502
  171MOL0     H23085   2.265   0.612  10.605  0.0104 -1.1942 -0.3723
  172MOL0     O23086   3.257  11.374   4.637 -0.2207  0.6239  0.2975
  172MOL0     C23087   3.263  11.316   4.530  0.9249 -0.1988  0.6506
  172MOL0     O23088   3.329  11.201   4.508  0.8024  0.6131  0.2060
  172MOL0     C23089   3.401  11.146   4.608  0.9899  0.2174 -0.4150
  172MOL0     C23090   3.535  11.182   4.615 -0.8667  0.3427  0.1686
  172MOL0     C23091   3.614  11.134   4.719 -0.2937  0.0096 -0.2280
  172MOL0     C23092   3.566  11.051   4.828 -0.3853 -0.5600  0.4505
  172MOL0     O23093   3.653  11.008   4.911  0.0505  0.4289 -0.4875
  172MOL0     C23094   3.617  10.883   4.984 -0.2372 -0.1360 -0.0782
  172MOL0     C23095   3.743  10.811   5.034 -0.3705  0.4808 -0.1862
  172MOL0     C23096   3.829  10.896   5.126  0.4198 -0.5586 -0.3145
  172MOL0     C23097   3.933  10.829   5.212  0.0956  0.2910  0.5727
  172MOL0     C23098   3.950  10.902   5.346  0.0836  0.5417 -0.0751
  172MOL0     C23099   4.059  10.832   5.422  0.5545  1.0999  0.4590
  172MOL0     C23100   4.074  10.881   5.560  0.3279 -0.4645 -0.3922
  172MOL0     C23101   4.184  10.968   5.595  0.1958  0.8480  0.1019
  172MOL0     N23102   4.168  11.006   5.736 -0.7347 -0.2851 -0.0123
  172MOL0     C23103   4.156  10.913   5.837 -0.4136 -0.0118 -0.1944
  172MOL0     C23104   4.176  10.995   5.948  0.7338 -1.0766 -0.1903
  172MOL0     C23105   4.160  10.949   6.095  0.2806 -0.5568 -0.1370
  172MOL0     C23106   4.269  11.012   6.172 -0.2203 -0.6168 -0.3418
  172MOL0     C23107   4.281  10.950   6.309 -0.3581  0.0903 -0.4771
  172MOL0     C23108   4.385  11.036   6.382  0.0523  0.5676 -0.0660
  172MOL0     O23109   4.438  10.964   6.493 -0.0311 -0.2967  0.0773
  172MOL0     C23110   4.382  11.004   6.615 -0.4807 -0.2960 -0.6570
  172MOL0     C23111   4.450  10.980   6.736 -0.5739 -0.4280  0.3511
  172MOL0     C23112   4.399  11.019   6.868 -0.5359 -0.5127  1.7695
  172MOL0     C23113   4.281  11.101   6.871  0.2958 -0.0226 -0.4667
  172MOL0     C23114   4.239  11.154   6.999 -0.5144  1.4369  0.0414
  172MOL0     O23115   4.120  11.222   7.002  0.1490 -0.3734  0.5805
  172MOL0     C23116   4.083  11.280   7.118 -0.3945  0.6027 -0.5435
  172MOL0     C23117   4.024  11.204   7.222 -0.0255 -1.1493 -0.1539
  172MOL0     C23118   4.013  11.251   7.352  0.7578 -0.1011  0.9120
  172MOL0     C23119   4.016  11.389   7.370  0.4465  0.7160  0.5326
  172MOL0     O23120   3.964  11.459   7.480  0.1212  0.6097 -0.3047
  172MOL0     C23121   3.849  11.387   7.544 -1.0791 -0.1832  0.2296
  172MOL0     C23122   3.778  11.481   7.652 -0.2657 -0.6139  0.8455
  172MOL0     C23123   3.693  11.401   7.742  0.2699  0.0807  0.4119
  172MOL0     C23124   3.625  11.490   7.845  0.6021  0.1308 -0.4377
  172MOL0     C23125   3.498  11.566   7.800  0.3895  1.1149 -0.8122
  172MOL0     C23126   3.383  11.470   7.770 -0.5849  0.0474 -0.3907
  172MOL0     C23127   3.247  11.529   7.809 -0.7441 -0.8629 -0.4113
  172MOL0     C23128   3.132  11.449   7.750  0.2692 -0.0673  0.2767
  172MOL0    Cl23129   3.129  11.453   7.576 -0.1712  0.1802 -0.8519
  172MOL0     C23130   4.057  11.465   7.261 -0.0354  0.5050 -0.5327
  172MOL0     C23131   4.093  11.416   7.136 -0.3714  0.4229 -0.3538
  172MOL0     O23132   4.322  11.153   7.092  0.8352  0.0418 -0.2187
  172MOL0     C23133   4.219  11.124   6.746 -0.0784  0.3275  0.7736
  172MOL0     C23134   4.263  11.076   6.622 -0.3795  0.1072  0.2218
  172MOL0     N23135   4.213  11.122   5.908 -0.1561 -0.5079 -0.3648
  172MOL0     N23136   4.199  11.131   5.785  0.0877 -0.3821  0.1782
  172MOL0     C23137   3.424  11.018   4.815  1.0721  0.5061 -0.2264
  172MOL0     C23138   3.343  11.072   4.710 -0.2068 -1.2141  0.4431
  172MOL0     C23139   3.179  11.368   4.428 -0.6090  0.0288 -0.7304
  172MOL0     C23140   3.211  11.501   4.389 -0.4751  0.0408 -0.0818
  172MOL0     C23141   3.145  11.563   4.288  0.2745  0.4940 -0.4904
  172MOL0     C23142   3.028  11.505   4.236  0.2250 -0.7343  0.3623
  172MOL0     O23143   2.957  11.577   4.142 -0.0123  0.3521 -0.8255
  172MOL0     C23144   2.850  11.517   4.073  0.3565  0.6877  0.9593
  172MOL0     C23145   2.790  11.613   3.979  0.4285  0.1436 -0.1032
  172MOL0     C23146   2.685  11.717   4.039 -0.4487  0.8242  1.3712
  172MOL0     C23147   2.545  11.654   4.059 -0.4230 -0.3854 -0.3881
  172MOL0     C23148   2.501  11.591   3.930 -0.2119  0.5884  0.1772
  172MOL0     C23149   2.469  11.559   3.820  0.1508  0.3121  0.9704
  172MOL0     C23150   2.992  11.376   4.282  0.0702 -0.1737 -0.7309
  172MOL0     C23151   3.069  11.303   4.381  0.0834  0.0571  0.9106
  172MOL0     C23152   3.019  11.167   4.427  0.0855 -0.9068 -0.2409
  172MOL0     H23153   3.576  11.241   4.534  5.1020 -0.0259  2.4336
  172MOL0     H23154   3.720  11.142   4.700 -0.7501 -1.7048 -4.9293
  172MOL0     H23155   3.562  10.928   5.066  2.6295  0.6337  1.5665
  172MOL0     H23156   3.549  10.809   4.940  0.1001 -1.9802  2.2814
  172MOL0     H23157   3.806  10.796   4.946  1.2230  1.5601  0.7253
  172MOL0     H23158   3.716  10.712   5.072  1.2848  0.5692  1.3818
  172MOL0     H23159   3.753  10.950   5.183  1.3690  1.0283 -0.4877
  172MOL0     H23160   3.884  10.971   5.068 -0.1023 -2.5247 -3.5395
  172MOL0     H23161   3.895  10.728   5.228  1.6271 -0.5648 -0.9214
  172MOL0     H23162   4.026  10.831   5.154 -0.1823  1.6380  0.1417
  172MOL0     H23163   3.972  11.009   5.341 -2.1288  1.0340 -0.7524
  172MOL0     H23164   3.855  10.882   5.397  1.3823 -2.6143  1.3050
  172MOL0     H23165   4.038  10.724   5.424 -0.1022  1.2263  1.8493
  172MOL0     H23166   4.152  10.828   5.365  0.4586 -0.6301  0.3488
  172MOL0     H23167   4.087  10.795   5.626  0.6208 -0.2078 -0.1137
  172MOL0     H23168   3.980  10.926   5.592 -0.4222 -0.7976 -1.9898
  172MOL0     H23169   4.283  10.921   5.589  0.1434  0.5926  1.0585
  172MOL0     H23170   4.188  11.059   5.535  1.7614 -0.0575 -1.2763
  172MOL0     H23171   4.144  10.805   5.831  0.6936 -0.0675 -2.5306
  172MOL0     H23172   4.060  10.978   6.128  0.4662 -0.2872  0.1981
  172MOL0     H23173   4.165  10.840   6.087 -0.1464 -0.4388 -3.0005
  172MOL0     H23174   4.363  10.997   6.117 -0.1442  0.7285 -0.6007
  172MOL0     H23175   4.264  11.121   6.174  1.1883 -0.4852 -1.6903
  172MOL0     H23176   4.328  10.852   6.292 -1.0542 -0.8040  2.2505
  172MOL0     H23177   4.188  10.934   6.365  0.5796 -0.0862  1.0956
  172MOL0     H23178   4.353  11.140   6.394  1.4030  1.0186 -0.2798
  172MOL0     H23179   4.473  11.044   6.318  1.5600 -1.2661  1.6623
  172MOL0     H23180   4.538  10.917   6.737 -0.2102 -0.0420 -1.7283
  172MOL0     H23181   4.447  10.999   6.963 -2.1455  2.4911  3.3632
  172MOL0     H23182   4.015  11.096   7.211  0.9135 -1.1014 -1.5425
  172MOL0     H23183   3.981  11.174   7.420 -2.6194  1.9587  1.9150
  172MOL0     H23184   3.782  11.344   7.470 -0.6406  0.7941 -0.7656
  172MOL0     H23185   3.902  11.305   7.592 -2.2854 -0.1466  1.7329
  172MOL0     H23186   3.865  11.520   7.707 -0.2380 -0.0113  0.3744
  172MOL0     H23187   3.724  11.570   7.620  1.7186  0.3486  0.0267
  172MOL0     H23188   3.620  11.344   7.683 -1.0713  2.2915 -0.1762
  172MOL0     H23189   3.754  11.320   7.784  1.1582 -0.0071 -0.9696
  172MOL0     H23190   3.703  11.558   7.882  0.1826 -0.0364  0.7801
  172MOL0     H23191   3.600  11.424   7.928 -1.3226 -0.7499 -1.6388
  172MOL0     H23192   3.522  11.628   7.713  4.9993 -0.3167 -0.8275
  172MOL0     H23193   3.477  11.627   7.888  1.0812  2.3828 -1.5038
  172MOL0     H23194   3.401  11.425   7.671  2.8073 -0.5600  0.3900
  172MOL0     H23195   3.384  11.381   7.833 -0.8624  0.2110 -0.1512
  172MOL0     H23196   3.245  11.638   7.797 -2.7104 -0.7629  0.3720
  172MOL0     H23197   3.240  11.519   7.917  2.4260  1.4836  0.1754
  172MOL0     H23198   3.153  11.347   7.783 -0.1661 -0.0332  0.6744
  172MOL0     H23199   3.038  11.488   7.789 -0.2128 -0.5703 -0.3603
  172MOL0     H23200   4.059  11.573   7.271  1.0237  0.3440  1.6111
  172MOL0     H23201   4.128  11.479   7.054 -0.1803  0.5631 -0.1663
  172MOL0     H23202   4.133  11.190   6.754  0.2633  0.5939  3.1298
  172MOL0     H23203   4.215  11.097   6.527 -4.1300 -1.1363  1.6891
  172MOL0     H23204   3.374  10.962   4.893 -2.0132  0.1653 -2.2623
  172MOL0     H23205   3.241  11.037   4.709 -0.5862 -0.1719  1.1132
  172MOL0     H23206   3.297  11.545   4.437  0.7054  0.6081 -2.5369
  172MOL0     H23207   3.198  11.655   4.263  3.4996 -1.2798 -0.7405
  172MOL0     H23208   2.774  11.480   4.143 -0.2195 -1.6756 -0.7795
  172MOL0     H23209   2.891  11.428   4.024  1.3305  0.9641  1.2601
  172MOL0     H23210   2.742  11.554   3.901 -2.1652  2.0651 -0.0875
  172MOL0     H23211   2.876  11.673   3.949  0.5542  0.5168  0.9474
  172MOL0     H23212   2.654  11.796   3.971  0.0265  0.7724  1.0944
  172MOL0     H23213   2.714  11.751   4.139 -0.7148  3.8202  0.5225
  172MOL0     H23214   2.554  11.576   4.134 -0.0770  0.5168  0.5298
  172MOL0     H23215   2.469  11.721   4.099 -0.2648 -0.5570  0.1969
  172MOL0     H23216   2.462  11.533   3.717  2.9848 -0.5241  0.9105
  172MOL0     H23217   2.907  11.330   4.232  0.2106  1.1816 -2.3290
  172MOL0     H23218   3.054  11.084   4.365 -0.3008 -3.6033  2.8780
  172MOL0     H23219   3.052  11.143   4.529  0.5800  3.0321  0.6857
  172MOL0     H23220   2.909  11.165   4.432  0.0873 -1.1132 -0.2793
  173MOL0     O23221  10.982   4.866  10.791 -0.2602 -0.4357  0.2659
  173MOL0     C23222  10.968   4.777  10.877 -1.2874 -0.3375 -0.3650
  173MOL0     O23223  10.941   4.797  11.014  0.2285 -0.5248 -0.1611
  173MOL0     C23224  10.901   4.921  11.050  1.4124 -0.6995  0.6371
  173MOL0     C23225  10.773   4.954  11.101 -0.4191 -0.3093  0.0543
  173MOL0     C23226  10.743   5.077  11.161  0.4767 -0.2746  0.2581
  173MOL0     C23227  10.849   5.172  11.177 -0.7717 -0.1658 -0.4832
  173MOL0     O23228  10.827   5.287  11.245  0.0015  0.0455  0.6654
  173MOL0     C23229  10.701   5.300  11.317  1.0823  0.5721 -0.0138
  173MOL0     C23230  10.688   5.423  11.403 -0.3784  0.8662  0.3743
  173MOL0     C23231  10.801   5.450  11.514 -0.9128 -0.4471 -0.4003
  173MOL0     C23232  10.752   5.535  11.629  0.2438 -0.6002  0.3802
  173MOL0     C23233  10.860   5.581  11.732  0.0833 -0.5439 -0.3417
  173MOL0     C23234  10.941   5.702  11.694 -0.0497  0.1951 -0.1118
  173MOL0     C23235  11.040   5.748  11.803  0.0267 -0.0460  0.2537
  173MOL0     C23236  10.975   5.813  11.920  0.1559  0.1215 -0.1149
  173MOL0     N23237  11.064   5.857  12.025  0.4757 -0.1595 -0.4262
  173MOL0     C23238  11.159   5.784  12.086 -1.1896 -0.5861  0.9889
  173MOL0     C23239  11.193   5.854  12.190 -0.4237  0.4585 -0.1065
  173MOL0     C23240  11.285   5.821  12.301  0.1975  0.4394 -0.0820
  173MOL0     C23241  11.430   5.785  12.251  0.5955 -0.7524 -0.1890
  173MOL0     C23242  11.517   5.761  12.372 -0.5406  1.5380  0.7952
  173MOL0     C23243  11.662   5.722  12.336 -0.3368  0.6919 -0.0154
  173MOL0     O23244  11.676   5.598  12.260 -0.3442 -0.1443  0.0155
  173MOL0     C23245  11.802   5.545  12.274  0.4081  0.1401  0.5725
  173MOL0     C23246  11.920   5.630  12.271  0.0998 -0.2309  0.3539
  173MOL0     C23247  12.043   5.571  12.269 -0.1374  0.3760 -0.3317
  173MOL0     C23248  12.068   5.433  12.257  0.6534 -0.6854 -0.2863
  173MOL0     C23249  12.209   5.382  12.262  0.3329 -0.6888 -0.0295
  173MOL0     O23250  12.301   5.473  12.217  0.2384  0.6633 -0.4690
  173MOL0     C23251  12.426   5.446  12.198  0.2176 -0.4123  0.2176
  173MOL0     C23252  12.464   5.406  12.072 -0.3739  0.5206 -0.2067
  173MOL0     C23253  12.595   5.378  12.036  0.8019  0.1587 -0.6181
  173MOL0     C23254  12.694   5.388  12.129 -0.4714  0.1791  0.4167
  173MOL0     O23255  12.828   5.369  12.109 -0.1666  0.4107  0.5939
  173MOL0     C23256  12.875   5.332  11.973  0.3303  0.4376 -0.4151
  173MOL0     C23257  13.036   5.326  11.977  0.5302 -0.2026 -0.0338
  173MOL0     C23258  13.106   5.206  11.909 -0.2139  0.5002  0.0562
  173MOL0     C23259  13.118   5.251  11.762 -0.2588  0.4877 -0.3349
  173MOL0     C23260  13.209   5.152  11.682  0.4014  0.2109 -0.3068
  173MOL0     C23261  13.257   5.210  11.549  0.0326 -0.2545  0.3432
  173MOL0     C23262  13.383   5.132  11.512 -0.9838 -0.3055 -0.1868
  173MOL0     C23263  13.409   5.149  11.356 -1.1801 -0.2581  0.3987
  173MOL0    Cl23264  13.517   5.032  11.309 -0.3773 -0.2736 -0.2641
  173MOL0     C23265  12.664   5.414  12.266  0.2707  0.5229 -0.0522
  173MOL0     C23266  12.528   5.451  12.303 -0.0691  0.4988  0.5666
  173MOL0     O23267  12.229   5.264  12.281 -0.1909  0.5147 -0.2249
  173MOL0     C23268  11.950   5.347  12.251  0.4517  0.0916  0.0471
  173MOL0     C23269  11.823   5.407  12.263 -0.9123  0.9856  0.3214
  173MOL0     N23270  11.118   5.969  12.195 -0.3615 -0.2591 -0.0272
  173MOL0     N23271  11.037   5.969  12.092 -0.5957 -0.1627  0.1173
  173MOL0     C23272  10.972   5.142  11.126 -1.1286  0.5148 -0.8406
  173MOL0     C23273  11.002   5.018  11.066  0.1643  1.1277 -0.1713
  173MOL0     C23274  10.982   4.647  10.826 -0.1724 -0.2619 -0.1592
  173MOL0     C23275  11.108   4.598  10.788 -0.2101 -0.2240  0.1709
  173MOL0     C23276  11.121   4.476  10.723  0.3335 -0.2270 -0.3101
  173MOL0     C23277  11.011   4.396  10.702 -0.7763 -0.2292  0.0702
  173MOL0     O23278  11.041   4.270  10.659 -0.3542  0.0931 -0.2689
  173MOL0     C23279  10.936   4.175  10.629 -0.1743 -0.9125 -0.3238
  173MOL0     C23280  10.861   4.124  10.758 -1.0869  0.5315 -0.7004
  173MOL0     C23281  10.723   4.075  10.711  0.0787 -0.6298 -0.8143
  173MOL0     C23282  10.684   3.955  10.788  0.1748  0.1330 -0.6688
  173MOL0     C23283  10.550   3.926  10.762  0.5392  0.6467 -0.2128
  173MOL0     C23284  10.434   3.917  10.730  0.3411 -0.0269  0.5644
  173MOL0     C23285  10.885   4.440  10.739  0.2345  1.0470 -0.7475
  173MOL0     C23286  10.871   4.564  10.799 -0.9152 -0.4504 -0.1729
  173MOL0     C23287  10.734   4.596  10.834 -0.3639 -0.4700 -0.8428
  173MOL0     H23288  10.704   4.871  11.091 -1.6643  0.4149  2.0983
  173MOL0     H23289  10.639   5.101  11.180  0.9021  1.2104  0.8572
  173MOL0     H23290  10.625   5.304  11.238 -0.5922  0.1675  1.5124
  173MOL0     H23291  10.675   5.207  11.368 -1.0892  0.0713 -1.8613
  173MOL0     H23292  10.592   5.421  11.455  0.1291  1.8365  1.3924
  173MOL0     H23293  10.690   5.502  11.327  1.2652  0.6649  0.1588
  173MOL0     H23294  10.882   5.498  11.458 -2.7677  0.4942 -2.4263
  173MOL0     H23295  10.830   5.349  11.544 -0.0036 -0.0702  0.0278
  173MOL0     H23296  10.708   5.630  11.597  0.6042  0.2428  2.2391
  173MOL0     H23297  10.677   5.470  11.676 -1.0828 -0.0456 -0.8723
  173MOL0     H23298  10.799   5.599  11.822 -0.4764 -4.0957  0.1222
  173MOL0     H23299  10.928   5.496  11.742 -4.1147 -4.4293 -1.5618
  173MOL0     H23300  10.994   5.676  11.602 -0.8701  0.5744 -0.7036
  173MOL0     H23301  10.878   5.789  11.672  0.3961  0.9117  1.3218
  173MOL0     H23302  11.097   5.835  11.769  0.0553  1.3286  3.4767
  173MOL0     H23303  11.112   5.667  11.815 -0.4193 -0.7375 -1.4341
  173MOL0     H23304  10.925   5.900  11.877  3.0254  2.6482  1.3267
  173MOL0     H23305  10.898   5.747  11.961  0.1762 -0.3770 -0.8608
  173MOL0     H23306  11.184   5.681  12.061  3.5325  1.0061 -2.2570
  173MOL0     H23307  11.295   5.892  12.384  1.8556 -3.4812  3.4249
  173MOL0     H23308  11.254   5.730  12.353  0.6510 -0.4228 -1.2902
  173MOL0     H23309  11.429   5.697  12.186 -2.8988 -3.2011  2.7896
  173MOL0     H23310  11.473   5.872  12.201 -0.0235 -1.3061 -1.7510
  173MOL0     H23311  11.473   5.686  12.439 -0.0268  0.0229 -0.5261
  173MOL0     H23312  11.532   5.861  12.414 -0.7886  1.4524  1.0929
  173MOL0     H23313  11.713   5.720  12.433 -2.0187  1.6076  0.9379
  173MOL0     H23314  11.690   5.812  12.281 -1.8532  1.1230 -0.1236
  173MOL0     H23315  11.927   5.738  12.267  0.9144 -0.2979 -0.5877
  173MOL0     H23316  12.132   5.632  12.280  0.2039 -0.3584  1.2658
  173MOL0     H23317  12.392   5.395  11.991 -1.3369  1.4494  0.5075
  173MOL0     H23318  12.616   5.355  11.932 -1.3030  0.2769 -1.1112
  173MOL0     H23319  12.838   5.231  11.952  1.5867  0.2398 -1.8991
  173MOL0     H23320  12.835   5.401  11.898 -1.9461  0.0912  0.4219
  173MOL0     H23321  13.083   5.421  11.947 -2.2774  1.5416  0.6878
  173MOL0     H23322  13.058   5.310  12.083 -0.4140  0.0252  0.1998
  173MOL0     H23323  13.208   5.194  11.946  0.1996 -1.2603 -1.4716
  173MOL0     H23324  13.053   5.113  11.932 -0.5433 -0.4184 -3.7470
  173MOL0     H23325  13.163   5.350  11.755  0.4599  0.2269  0.3755
  173MOL0     H23326  13.015   5.263  11.727 -0.1039 -1.3923 -1.5920
  173MOL0     H23327  13.154   5.061  11.656  0.2710  0.0994  0.3368
  173MOL0     H23328  13.287   5.118  11.751  1.5712  1.6992 -0.8433
  173MOL0     H23329  13.193   5.189  11.464  3.4885 -0.8889 -2.3166
  173MOL0     H23330  13.268   5.319  11.550 -0.8476 -0.1100  2.8261
  173MOL0     H23331  13.379   5.024  11.531  3.5461 -1.2798 -3.1496
  173MOL0     H23332  13.471   5.155  11.573 -0.5970 -2.8402  0.3364
  173MOL0     H23333  13.314   5.128  11.305 -1.1419 -1.9342  0.9300
  173MOL0     H23334  13.440   5.249  11.326 -1.5861 -0.6541 -1.4919
  173MOL0     H23335  12.751   5.414  12.330 -0.6719 -0.2789  1.2642
  173MOL0     H23336  12.508   5.490  12.402 -0.7802 -1.0100  1.0445
  173MOL0     H23337  11.966   5.242  12.229 -1.7782  0.1903 -2.5676
  173MOL0     H23338  11.731   5.349  12.256 -0.5425  0.4779 -0.4975
  173MOL0     H23339  11.062   5.202  11.136 -1.0120 -0.0897  3.1900
  173MOL0     H23340  11.103   4.996  11.035 -0.0083 -0.5708  0.3895
  173MOL0     H23341  11.198   4.645  10.826  1.0262 -1.0288 -1.5964
  173MOL0     H23342  11.210   4.419  10.698 -0.4630 -2.8661  2.3352
  173MOL0     H23343  10.996   4.088  10.603  2.2238  0.2774  0.9159
  173MOL0     H23344  10.869   4.202  10.546 -0.5454  0.8183  0.5064
  173MOL0     H23345  10.852   4.210  10.826  5.7808  0.0422  1.5782
  173MOL0     H23346  10.921   4.044  10.801  0.5988 -0.0498 -3.8877
  173MOL0     H23347  10.723   4.050  10.605  1.8538  0.1810 -1.0357
  173MOL0     H23348  10.647   4.147  10.742 -0.3097 -0.7271 -1.5290
  173MOL0     H23349  10.749   3.871  10.763 -0.4782 -0.8793  0.8335
  173MOL0     H23350  10.704   3.984  10.892  0.6708 -1.5382 -0.2653
  173MOL0     H23351  10.335   3.890  10.698  1.4859 -2.6238 -1.2058
  173MOL0     H23352  10.793   4.384  10.723 -0.4132  2.5154 -2.6931
  173MOL0     H23353  10.716   4.559  10.935 -1.8864 -2.3161 -1.7169
  173MOL0     H23354  10.719   4.703  10.818  0.2425 -0.4544 -1.3400
  173MOL0     H23355  10.665   4.543  10.767 -2.8488  0.0825  1.1098
  174MOL0     O23356   5.405   9.687   9.162 -0.3035  0.0349 -0.5921
  174MOL0     C23357   5.441   9.803   9.148  0.0054 -0.3092  0.2257
  174MOL0     O23358   5.398   9.909   9.230 -0.3124 -0.0831  0.5562
  174MOL0     C23359   5.265   9.902   9.273  0.1115 -0.2304  0.2386
  174MOL0     C23360   5.211   9.790   9.344 -0.5741 -0.6120 -0.6885
  174MOL0     C23361   5.077   9.796   9.398  1.3277 -0.3493  0.1599
  174MOL0     C23362   5.009   9.921   9.390  0.1046 -0.1193  0.5114
  174MOL0     O23363   4.885   9.938   9.437 -0.3744  0.2442 -0.5580
  174MOL0     C23364   4.793   9.832   9.394 -0.1762 -0.0287  0.9506
  174MOL0     C23365   4.743   9.744   9.505  0.3366  0.1967  0.5395
  174MOL0     C23366   4.672   9.828   9.615 -0.4341 -0.8605  0.5003
  174MOL0     C23367   4.606   9.735   9.718 -0.2234  0.3760  1.1439
  174MOL0     C23368   4.696   9.639   9.788  0.5855  0.4260  0.2034
  174MOL0     C23369   4.626   9.562   9.899 -0.4394  0.3121 -0.5418
  174MOL0     C23370   4.740   9.483   9.975 -0.5348 -0.3742  0.5537
  174MOL0     C23371   4.684   9.346  10.019  0.6183 -1.1960 -0.2430
  174MOL0     N23372   4.779   9.276  10.108 -0.7300 -0.5578  0.5878
  174MOL0     C23373   4.895   9.216  10.061 -0.1677 -0.2195 -0.2757
  174MOL0     C23374   4.948   9.165  10.173 -0.7224  0.2992 -0.3233
  174MOL0     C23375   5.083   9.093  10.181 -0.2222 -0.8271  0.4674
  174MOL0     C23376   5.202   9.188  10.163  0.4478  0.1341 -0.0675
  174MOL0     C23377   5.224   9.310  10.258  0.8680 -0.0567  0.3702
  174MOL0     C23378   5.118   9.423  10.239 -0.1095  0.2475  0.1061
  174MOL0     O23379   5.164   9.545  10.311 -0.9368  0.7327  0.0568
  174MOL0     C23380   5.106   9.578  10.426  0.1276  0.7949 -0.2726
  174MOL0     C23381   5.088   9.713  10.436  0.3405  0.3773 -0.2914
  174MOL0     C23382   5.033   9.766  10.553 -0.3462 -0.1324 -0.1098
  174MOL0     C23383   5.005   9.677  10.662 -0.1748 -0.5979 -0.2931
  174MOL0     C23384   4.953   9.718  10.798 -0.6944 -0.1434  0.1358
  174MOL0     O23385   4.969   9.634  10.901  0.6928 -0.3828 -0.2540
  174MOL0     C23386   4.946   9.681  11.029 -0.6285 -0.4495  0.4177
  174MOL0     C23387   5.014   9.794  11.076 -0.1988 -0.7981  0.2358
  174MOL0     C23388   4.991   9.828  11.204 -0.6717 -1.3194 -0.6293
  174MOL0     C23389   4.911   9.764  11.292  0.6747  1.4602 -0.0958
  174MOL0     O23390   4.882   9.814  11.413  0.1698 -0.6559 -0.6149
  174MOL0     C23391   4.990   9.801  11.500 -0.0666 -0.3208 -0.8441
  174MOL0     C23392   4.965   9.863  11.637 -1.2176 -0.6245  0.2171
  174MOL0     C23393   5.083   9.827  11.735  0.4567 -0.0930 -0.5648
  174MOL0     C23394   5.226   9.890  11.715 -0.9860  0.5303 -0.0944
  174MOL0     C23395   5.225  10.050  11.721 -0.6335  0.6569 -0.2013
  174MOL0     C23396   5.184  10.093  11.863  0.2459  0.3509  0.2650
  174MOL0     C23397   5.212  10.238  11.902  0.4569 -0.5646  1.0071
  174MOL0     C23398   5.204  10.265  12.053 -0.3381 -0.4418  0.6247
  174MOL0    Cl23399   5.250  10.442  12.087 -0.2078  0.0349 -0.0261
  174MOL0     C23400   4.847   9.647  11.245 -0.4617  0.3498 -0.0395
  174MOL0     C23401   4.869   9.604  11.114  0.7497 -0.3626  0.0885
  174MOL0     O23402   4.913   9.834  10.800  0.1176  0.2693  0.6719
  174MOL0     C23403   5.028   9.540  10.643 -0.9645 -0.0721 -0.6434
  174MOL0     C23404   5.081   9.486  10.528 -0.0849 -0.7727  0.2670
  174MOL0     N23405   4.864   9.195  10.284  0.1130 -0.6947  0.2583
  174MOL0     N23406   4.762   9.259  10.243  0.7082 -0.3212 -0.2334
  174MOL0     C23407   5.068  10.027   9.322  0.1829  0.9832 -0.2601
  174MOL0     C23408   5.193  10.014   9.262 -0.7415 -0.2925  0.5020
  174MOL0     C23409   5.561   9.839   9.067 -0.6558  0.2973 -0.3517
  174MOL0     C23410   5.656   9.924   9.114  0.4852 -0.0469 -0.0499
  174MOL0     C23411   5.770   9.954   9.033 -1.0865  0.1834  0.5951
  174MOL0     C23412   5.785   9.885   8.910  0.4893 -0.3003 -0.5199
  174MOL0     O23413   5.908   9.908   8.857  0.5024 -0.0178  0.3844
  174MOL0     C23414   5.948   9.867   8.725 -1.0312 -0.4067 -0.4318
  174MOL0     C23415   6.083   9.938   8.693 -0.1091  0.5026  0.8020
  174MOL0     C23416   6.166   9.873   8.582  0.0732  0.2286 -0.7307
  174MOL0     C23417   6.099   9.804   8.469 -0.2187  0.6317 -0.0761
  174MOL0     C23418   6.195   9.783   8.358 -0.2619 -0.3198 -0.1593
  174MOL0     C23419   6.266   9.762   8.265 -0.1724  0.0136 -0.0679
  174MOL0     C23420   5.693   9.806   8.857  0.2166 -0.6758 -0.2447
  174MOL0     C23421   5.584   9.780   8.939  0.7452 -0.5896  0.2205
  174MOL0     C23422   5.487   9.681   8.888 -0.0330  0.7357  0.2727
  174MOL0     H23423   5.274   9.704   9.363  2.4133  0.8038 -3.2816
  174MOL0     H23424   5.029   9.707   9.440  0.0768 -0.4291 -1.3489
  174MOL0     H23425   4.707   9.881   9.349  1.0771  2.6432  1.2533
  174MOL0     H23426   4.826   9.775   9.307 -1.5963  2.3576 -1.2707
  174MOL0     H23427   4.826   9.682   9.539  0.6948 -1.5852 -3.1257
  174MOL0     H23428   4.674   9.673   9.460 -1.1362  1.0420  1.3954
  174MOL0     H23429   4.595   9.896   9.577 -2.0968 -2.6418  0.4845
  174MOL0     H23430   4.751   9.887   9.661  0.5862 -1.7704 -0.0383
  174MOL0     H23431   4.565   9.790   9.803 -2.8657 -1.9003  1.4845
  174MOL0     H23432   4.526   9.683   9.664 -0.0428  1.7292 -0.5062
  174MOL0     H23433   4.731   9.567   9.713 -1.1337 -1.3905  1.0602
  174MOL0     H23434   4.777   9.700   9.829  1.3256  0.3801 -1.1483
  174MOL0     H23435   4.580   9.632   9.969  1.3253  1.4999 -0.5045
  174MOL0     H23436   4.550   9.498   9.852 -0.6983  1.0601 -1.1617
  174MOL0     H23437   4.779   9.537  10.062  2.1274 -3.7755  1.7035
  174MOL0     H23438   4.814   9.467   9.895 -2.5968  1.6589 -1.9320
  174MOL0     H23439   4.587   9.360  10.066  1.1111 -2.0450  1.0715
  174MOL0     H23440   4.663   9.285   9.930 -2.6995 -0.7628  0.1352
  174MOL0     H23441   4.943   9.219   9.964  2.0216  0.4481  0.7686
  174MOL0     H23442   5.098   9.045  10.278  0.6795  0.0387  0.7786
  174MOL0     H23443   5.081   9.013  10.107 -0.0279 -3.5277  3.1749
  174MOL0     H23444   5.294   9.132  10.179 -1.2036 -2.6032  0.7075
  174MOL0     H23445   5.198   9.213  10.057 -1.2996  1.1339  0.1917
  174MOL0     H23446   5.321   9.356  10.237  0.9600  0.7342  2.3445
  174MOL0     H23447   5.228   9.278  10.363  1.6905 -3.3022 -0.5393
  174MOL0     H23448   5.020   9.382  10.267 -0.2117 -0.2763 -0.9582
  174MOL0     H23449   5.108   9.448  10.132  0.7755  1.0095  0.1883
  174MOL0     H23450   5.099   9.784  10.355 -3.5438  3.5477  1.5891
  174MOL0     H23451   5.010   9.871  10.567 -1.7411 -0.4571  0.2695
  174MOL0     H23452   5.074   9.858  11.012  0.0336  0.4847  1.6685
  174MOL0     H23453   5.050   9.908  11.250  1.0529 -2.0896 -1.4247
  174MOL0     H23454   5.010   9.694  11.514  0.0026  0.1234  4.2750
  174MOL0     H23455   5.079   9.854  11.462  1.1092  2.3272  4.5964
  174MOL0     H23456   4.939   9.969  11.639 -3.0803 -1.0544  1.4490
  174MOL0     H23457   4.864   9.832  11.666 -1.7659 -1.2532 -2.1786
  174MOL0     H23458   5.051   9.837  11.839 -0.1025  2.8912 -0.9295
  174MOL0     H23459   5.096   9.718  11.734 -0.6849 -0.2795  1.0510
  174MOL0     H23460   5.249   9.851  11.616 -0.8703  1.2876 -0.3714
  174MOL0     H23461   5.309   9.858  11.779  0.4679 -0.5771 -2.3947
  174MOL0     H23462   5.163  10.100  11.647 -0.9156 -0.8017 -0.9930
  174MOL0     H23463   5.331  10.072  11.705 -0.2541  0.3433  1.5855
  174MOL0     H23464   5.083  10.076  11.900  0.8461  1.9385  2.9152
  174MOL0     H23465   5.257  10.042  11.927  0.2001  1.7018  1.4359
  174MOL0     H23466   5.131  10.295  11.854  0.9137 -0.6126  0.1706
  174MOL0     H23467   5.310  10.269  11.866  0.2103  0.1603  0.9296
  174MOL0     H23468   5.103  10.249  12.091 -0.6346  0.0840  0.0810
  174MOL0     H23469   5.279  10.206  12.106 -0.1216  0.4668  1.3559
  174MOL0     H23470   4.791   9.581  11.310 -0.8180 -0.5613 -1.2429
  174MOL0     H23471   4.818   9.524  11.061  0.0105  1.2010 -1.6777
  174MOL0     H23472   4.993   9.472  10.720 -3.5541 -1.6754 -3.0218
  174MOL0     H23473   5.101   9.380  10.518  1.2855 -0.5610  0.5912
  174MOL0     H23474   5.016  10.119   9.297 -0.2985  0.1752 -2.4972
  174MOL0     H23475   5.237  10.086   9.194 -0.3506 -3.0610 -2.4818
  174MOL0     H23476   5.629   9.965   9.211  0.4710 -2.6809  1.1574
  174MOL0     H23477   5.839  10.027   9.072 -1.1678 -0.4028  1.9009
  174MOL0     H23478   5.871   9.887   8.650 -0.6933 -1.1807 -1.0002
  174MOL0     H23479   5.957   9.759   8.712 -1.3511 -0.3594 -1.0602
  174MOL0     H23480   6.145   9.940   8.783 -1.1555 -0.9785  1.5956
  174MOL0     H23481   6.061  10.038   8.653  1.3806  1.5997  2.5843
  174MOL0     H23482   6.231   9.801   8.634 -1.7610 -1.6591 -0.9094
  174MOL0     H23483   6.227   9.952   8.537  0.8407  0.3515  0.4798
  174MOL0     H23484   6.060   9.708   8.502  1.3876  0.0951  0.3750
  174MOL0     H23485   6.003   9.852   8.448 -1.3713 -1.0131  1.1642
  174MOL0     H23486   6.322   9.749   8.175  3.2217 -2.1808  2.1477
  174MOL0     H23487   5.710   9.762   8.760 -0.4117  0.4271 -0.8811
  174MOL0     H23488   5.381   9.696   8.911 -1.0286 -3.8451 -0.2740
  174MOL0     H23489   5.498   9.663   8.781  1.2551 -1.2773  0.6920
  174MOL0     H23490   5.498   9.581   8.931 -4.1529  0.7587  1.8432
  175MOL0     O23491   3.125   9.244   7.121  0.2463  0.1259 -0.1475
  175MOL0     C23492   3.093   9.340   7.193  0.0412 -0.7147 -0.5424
  175MOL0     O23493   3.108   9.469   7.148 -0.0210 -1.1010  0.4793
  175MOL0     C23494   3.175   9.492   7.028  1.4726 -0.0257 -0.1579
  175MOL0     C23495   3.094   9.484   6.911 -0.0627 -0.2920 -0.4652
  175MOL0     C23496   3.155   9.499   6.785 -0.0969  0.8239  0.3378
  175MOL0     C23497   3.296   9.506   6.778  0.0582  0.7292 -0.6939
  175MOL0     O23498   3.341   9.502   6.648  0.7794  0.0123 -0.4929
  175MOL0     C23499   3.480   9.461   6.611  0.2826  1.0730  0.0085
  175MOL0     C23500   3.504   9.486   6.463 -0.3187 -0.5609 -0.8892
  175MOL0     C23501   3.399   9.425   6.363 -1.1748  0.2620  0.0940
  175MOL0     C23502   3.371   9.280   6.393  0.6991  0.2719 -0.6700
  175MOL0     C23503   3.296   9.238   6.263  0.2154  0.3844 -0.8704
  175MOL0     C23504   3.221   9.105   6.284 -0.0483 -0.4906 -0.0865
  175MOL0     C23505   3.301   8.993   6.347  0.6240  1.1057  0.0106
  175MOL0     C23506   3.416   8.935   6.266  0.2007  0.5323  0.4136
  175MOL0     N23507   3.378   8.901   6.125  0.0386 -0.6974 -0.4783
  175MOL0     C23508   3.272   8.812   6.104 -0.8522 -0.4622 -0.4746
  175MOL0     C23509   3.314   8.765   5.982  0.1558  0.3246  0.0346
  175MOL0     C23510   3.270   8.644   5.917 -0.1831  0.2838 -0.5569
  175MOL0     C23511   3.392   8.551   5.906  0.0586  0.3630  0.5884
  175MOL0     C23512   3.367   8.405   5.860  0.7971 -0.3054  0.7171
  175MOL0     C23513   3.263   8.387   5.743  0.1075 -0.3547 -0.2843
  175MOL0     O23514   3.331   8.453   5.632  0.2217  0.5717 -0.1890
  175MOL0     C23515   3.408   8.383   5.541  0.3116  0.1070 -0.2501
  175MOL0     C23516   3.443   8.244   5.559  0.1983 -0.0382 -0.6061
  175MOL0     C23517   3.521   8.184   5.468 -0.7082  1.2751  0.5118
  175MOL0     C23518   3.571   8.245   5.351 -0.2988 -0.0362 -0.3869
  175MOL0     C23519   3.654   8.169   5.251 -0.8510 -0.3494  0.1828
  175MOL0     O23520   3.691   8.241   5.139 -0.2069  0.1872 -0.3466
  175MOL0     C23521   3.715   8.190   5.015 -1.3763 -0.5803  0.7498
  175MOL0     C23522   3.762   8.286   4.928 -0.5234 -0.4734  0.5150
  175MOL0     C23523   3.804   8.252   4.798  0.4088 -1.1169 -0.3790
  175MOL0     C23524   3.777   8.128   4.741 -0.4543  0.0400  0.4184
  175MOL0     O23525   3.818   8.104   4.609  0.6008  0.1595 -0.7742
  175MOL0     C23526   3.806   7.973   4.534  0.5913 -0.6076 -0.4915
  175MOL0     C23527   3.929   7.880   4.536 -0.0925  1.0547  0.1505
  175MOL0     C23528   3.922   7.757   4.629 -0.5042  0.0684  0.6592
  175MOL0     C23529   3.838   7.642   4.568  0.1244 -0.3158  1.0787
  175MOL0     C23530   3.838   7.518   4.654 -0.9017 -0.2007 -0.2472
  175MOL0     C23531   3.958   7.431   4.620  0.2045 -0.0938  0.7709
  175MOL0     C23532   3.984   7.316   4.713  0.5657 -1.1580  0.4140
  175MOL0     C23533   4.046   7.348   4.847  0.4618  0.6381 -0.3180
  175MOL0    Cl23534   4.213   7.421   4.842 -0.7428  0.3015 -0.7762
  175MOL0     C23535   3.720   8.029   4.825 -1.2455  0.2184  0.0365
  175MOL0     C23536   3.695   8.061   4.960 -0.0380 -0.3280  0.6989
  175MOL0     O23537   3.680   8.047   5.266 -0.6072 -0.3749  0.2523
  175MOL0     C23538   3.533   8.379   5.328 -0.5178  0.5671  0.6568
  175MOL0     C23539   3.455   8.442   5.421  0.7836  0.5432  0.1954
  175MOL0     N23540   3.392   8.868   5.925 -0.2994  0.0031  0.4012
  175MOL0     N23541   3.430   8.947   6.015  0.3823  0.0418  0.0239
  175MOL0     C23542   3.366   9.526   6.895 -0.2349  0.7470 -1.2018
  175MOL0     C23543   3.308   9.505   7.020  0.2031 -0.5878 -0.9074
  175MOL0     C23544   3.034   9.324   7.331  0.0033 -0.2718  0.3161
  175MOL0     C23545   2.988   9.438   7.403  0.4589  0.0340  0.8632
  175MOL0     C23546   2.924   9.431   7.525  0.2619  0.7427  0.3278
  175MOL0     C23547   2.900   9.305   7.579  0.6558  1.5453  0.0293
  175MOL0     O23548   2.827   9.291   7.693  0.2368  0.3151  0.1719
  175MOL0     C23549   2.902   9.278   7.811  0.5249 -0.0384 -0.5611
  175MOL0     C23550   2.808   9.294   7.929 -0.1697  0.1587  0.8066
  175MOL0     C23551   2.711   9.169   7.944 -0.3227 -0.2419  0.1779
  175MOL0     C23552   2.631   9.189   8.068  0.2088 -0.3466 -0.2557
  175MOL0     C23553   2.555   9.077   8.109  0.1611 -0.4720  0.2631
  175MOL0     C23554   2.512   8.964   8.126 -0.3429 -0.5845 -1.0140
  175MOL0     C23555   2.964   9.193   7.530 -0.9798  0.1275  0.0563
  175MOL0     C23556   3.032   9.199   7.405  0.0276  0.3328  0.6603
  175MOL0     C23557   3.082   9.059   7.358  1.8187 -0.1673  0.6289
  175MOL0     H23558   2.988   9.479   6.933 -0.1333 -2.1344 -1.0913
  175MOL0     H23559   3.096   9.489   6.694  0.3337 -0.3483  0.1628
  175MOL0     H23560   3.556   9.514   6.669  0.8924  2.4162 -1.9225
  175MOL0     H23561   3.489   9.355   6.635 -2.0849  0.2573 -2.1748
  175MOL0     H23562   3.609   9.465   6.442  0.0703 -0.5885  0.9138
  175MOL0     H23563   3.503   9.594   6.443  0.3750  0.1075  2.1670
  175MOL0     H23564   3.450   9.437   6.267 -0.4081 -1.2437  0.2735
  175MOL0     H23565   3.307   9.484   6.363 -2.6598 -1.7015  3.9575
  175MOL0     H23566   3.457   9.217   6.417 -0.2575 -0.2267  1.6478
  175MOL0     H23567   3.300   9.272   6.475  0.5773  2.8942 -0.4265
  175MOL0     H23568   3.222   9.317   6.245 -1.6919 -0.7492  1.4660
  175MOL0     H23569   3.369   9.229   6.181  0.4504 -0.3455 -0.5886
  175MOL0     H23570   3.132   9.110   6.348  1.0128 -5.7387  2.3470
  175MOL0     H23571   3.179   9.066   6.190 -3.6505 -2.1289  1.9867
  175MOL0     H23572   3.229   8.914   6.373  2.8156 -0.8025  0.6921
  175MOL0     H23573   3.326   9.022   6.449 -4.7651  3.2395  1.0731
  175MOL0     H23574   3.501   9.003   6.273 -0.6741  1.7639 -0.4401
  175MOL0     H23575   3.447   8.842   6.315  0.0535  0.3086  0.0830
  175MOL0     H23576   3.214   8.746   6.168  0.1860 -2.2998 -1.3154
  175MOL0     H23577   3.200   8.588   5.979  0.9746  0.2886  0.7951
  175MOL0     H23578   3.230   8.669   5.818 -0.0760  5.8852  0.4967
  175MOL0     H23579   3.468   8.607   5.850  0.9766 -1.0983  0.3373
  175MOL0     H23580   3.437   8.542   6.006  1.0657  0.2240  0.1328
  175MOL0     H23581   3.325   8.359   5.950 -0.0421 -0.3900  0.2841
  175MOL0     H23582   3.465   8.362   5.840  1.1627  0.8745 -0.1819
  175MOL0     H23583   3.168   8.434   5.770  0.9195  0.9283  0.3887
  175MOL0     H23584   3.241   8.282   5.721 -1.1110 -0.5117  1.5279
  175MOL0     H23585   3.406   8.197   5.649 -0.1791  2.0280  0.3835
  175MOL0     H23586   3.555   8.082   5.485 -0.1810  1.0931 -1.3479
  175MOL0     H23587   3.764   8.388   4.964 -0.4659 -0.3760  0.2372
  175MOL0     H23588   3.852   8.333   4.744 -1.0267  0.0378  0.0256
  175MOL0     H23589   3.713   7.926   4.566  0.3614 -0.9928 -1.6618
  175MOL0     H23590   3.795   8.007   4.431  0.2937  0.4635 -0.1141
  175MOL0     H23591   3.945   7.844   4.434 -2.9115 -1.9314  0.6282
  175MOL0     H23592   4.005   7.956   4.560 -1.6568  2.2883  1.4635
  175MOL0     H23593   4.027   7.730   4.646 -0.8785 -0.5205  2.2559
  175MOL0     H23594   3.884   7.782   4.729 -0.7501 -6.9759  2.9192
  175MOL0     H23595   3.879   7.613   4.470 -3.5099  1.1886 -1.0880
  175MOL0     H23596   3.734   7.676   4.565 -0.0729 -0.6213 -3.6055
  175MOL0     H23597   3.749   7.456   4.644 -0.8403 -0.4169  0.4560
  175MOL0     H23598   3.843   7.552   4.758 -1.1262 -0.8210 -0.0293
  175MOL0     H23599   3.924   7.389   4.524 -0.3568  1.0513  0.4496
  175MOL0     H23600   4.049   7.492   4.619  0.0230  0.2045  1.5913
  175MOL0     H23601   4.046   7.244   4.660 -2.1258 -2.4309 -1.2384
  175MOL0     H23602   3.887   7.272   4.739  0.6748 -2.0085 -0.5275
  175MOL0     H23603   3.978   7.421   4.891 -0.5845  0.2239 -1.2100
  175MOL0     H23604   4.046   7.257   4.908 -3.1964  1.4385  1.1294
  175MOL0     H23605   3.706   7.929   4.788  0.7583 -0.5004  1.0549
  175MOL0     H23606   3.660   7.984   5.027 -1.6158  0.5816  0.9752
  175MOL0     H23607   3.552   8.421   5.229  0.5370  2.2718  1.5491
  175MOL0     H23608   3.413   8.537   5.390 -0.4034 -0.2793 -0.8544
  175MOL0     H23609   3.474   9.537   6.894 -0.2231  1.6269 -4.9066
  175MOL0     H23610   3.370   9.498   7.109 -1.2630 -2.7595  0.0499
  175MOL0     H23611   2.991   9.533   7.352  0.8354 -1.4999 -2.2239
  175MOL0     H23612   2.873   9.511   7.578 -1.4090  0.3087 -0.5624
  175MOL0     H23613   2.976   9.359   7.815  0.0502  0.3708  0.4568
  175MOL0     H23614   2.944   9.178   7.804 -1.5166 -0.9595 -0.1182
  175MOL0     H23615   2.754   9.389   7.923  0.0110  0.3620  2.0355
  175MOL0     H23616   2.864   9.301   8.023  0.3226 -3.1212  0.8888
  175MOL0     H23617   2.766   9.075   7.934 -2.0952 -1.2393 -0.5640
  175MOL0     H23618   2.636   9.166   7.865  0.9700  1.3968 -1.1924
  175MOL0     H23619   2.688   9.233   8.150  3.5000 -3.0800 -0.8456
  175MOL0     H23620   2.550   9.260   8.049 -0.1750  0.5449  3.7835
  175MOL0     H23621   2.481   8.865   8.152 -0.7991 -1.2667 -3.8583
  175MOL0     H23622   2.951   9.094   7.571  2.9757  0.0190  1.5189
  175MOL0     H23623   2.990   9.001   7.351  0.4146  1.9543  0.5196
  175MOL0     H23624   3.137   9.072   7.264  3.1829 -0.3274  1.3859
  175MOL0     H23625   3.144   9.007   7.432  2.7962 -0.9122 -0.6639
  176MOL0     O23626   3.466   8.190  10.185  0.0126 -0.2417  0.0016
  176MOL0     C23627   3.486   8.312  10.178 -0.3403 -0.1147 -0.3562
  176MOL0     O23628   3.396   8.415  10.144  0.0727 -0.5219  0.7919
  176MOL0     C23629   3.266   8.379  10.100  0.4153 -0.1108  0.0778
  176MOL0     C23630   3.242   8.328   9.973  0.1205 -0.1456 -1.4279
  176MOL0     C23631   3.114   8.300   9.942  0.2964 -1.3740 -0.1189
  176MOL0     C23632   3.008   8.305  10.026  1.0611 -0.8378 -0.2477
  176MOL0     O23633   2.900   8.236   9.969  0.3624  0.5845 -0.2651
  176MOL0     C23634   2.786   8.189  10.053 -0.0478 -0.1867  0.3369
  176MOL0     C23635   2.682   8.302  10.084  0.3405  0.3527  0.0672
  176MOL0     C23636   2.615   8.358   9.964 -0.8490 -1.1051  0.2551
  176MOL0     C23637   2.702   8.456   9.883 -0.3964  0.4530  0.2056
  176MOL0     C23638   2.607   8.526   9.784  0.1756  0.1939 -0.3140
  176MOL0     C23639   2.694   8.602   9.678  0.2044 -0.7516  0.2968
  176MOL0     C23640   2.780   8.498   9.594 -0.3796 -0.0623  0.1386
  176MOL0     C23641   2.836   8.559   9.460  0.6673  0.3442  0.2723
  176MOL0     N23642   2.946   8.470   9.414 -0.4255 -0.2017  0.0502
  176MOL0     C23643   2.965   8.326   9.422 -0.8257 -1.0227  0.1226
  176MOL0     C23644   3.095   8.305   9.384  0.0914  0.0792 -0.1852
  176MOL0     C23645   3.157   8.166   9.383  0.0076 -0.8102  0.2460
  176MOL0     C23646   3.234   8.133   9.244  0.2643  0.5797  0.3372
  176MOL0     C23647   3.369   8.197   9.230  0.3149  0.3611 -0.7121
  176MOL0     C23648   3.463   8.157   9.123 -0.0339  0.0662 -0.4638
  176MOL0     O23649   3.408   8.061   9.025  0.2790 -0.1118  0.3207
  176MOL0     C23650   3.501   8.008   8.939  0.2082 -1.4108 -0.7921
  176MOL0     C23651   3.441   7.931   8.836 -0.5328 -1.1683  0.8079
  176MOL0     C23652   3.510   7.868   8.733 -0.2569 -0.5648  0.3829
  176MOL0     C23653   3.648   7.887   8.722  0.0158 -1.1367  0.4605
  176MOL0     C23654   3.710   7.837   8.599 -0.1288  0.0911 -0.3895
  176MOL0     O23655   3.630   7.801   8.495 -0.3571 -1.2616 -0.3874
  176MOL0     C23656   3.684   7.722   8.394 -0.0779 -0.6208  1.4092
  176MOL0     C23657   3.621   7.725   8.264 -0.3560 -0.1544  0.0400
  176MOL0     C23658   3.685   7.659   8.165 -1.4595 -0.5414  0.2691
  176MOL0     C23659   3.797   7.573   8.182 -0.0823  0.7941  0.1764
  176MOL0     O23660   3.835   7.506   8.069  0.4962  0.1720  0.0098
  176MOL0     C23661   3.945   7.414   8.083 -0.6098  0.7460  0.3789
  176MOL0     C23662   3.979   7.338   7.957 -0.4106 -0.0499 -0.2512
  176MOL0     C23663   4.106   7.253   7.973 -0.1061 -0.3778  1.0528
  176MOL0     C23664   4.147   7.185   7.841 -0.4700  0.3668  0.3594
  176MOL0     C23665   4.286   7.124   7.841 -0.5761 -0.0264  1.0489
  176MOL0     C23666   4.320   7.025   7.949 -0.5780  0.0438 -0.4513
  176MOL0     C23667   4.434   6.924   7.914 -0.4340 -0.2818  0.0026
  176MOL0     C23668   4.378   6.778   7.892  0.3216 -0.4499 -0.1464
  176MOL0    Cl23669   4.273   6.779   7.741  0.0179  0.0109  0.5695
  176MOL0     C23670   3.869   7.579   8.303  0.1335  1.1112  0.5246
  176MOL0     C23671   3.818   7.657   8.408  0.4353 -0.2675 -0.6590
  176MOL0     O23672   3.833   7.847   8.596 -0.0783 -0.6429  0.2076
  176MOL0     C23673   3.715   7.957   8.827  0.2083  0.7330 -0.4520
  176MOL0     C23674   3.645   8.015   8.935 -0.4356  0.2471 -0.2039
  176MOL0     N23675   3.150   8.427   9.359 -0.1735  0.0632  0.4720
  176MOL0     N23676   3.064   8.520   9.374  0.6462  0.9755  0.0319
  176MOL0     C23677   3.029   8.350  10.156 -0.9643 -0.6907 -0.1931
  176MOL0     C23678   3.158   8.393  10.192  1.0551  0.0032  0.1988
  176MOL0     C23679   3.629   8.348  10.207  0.0498 -0.4562 -0.0279
  176MOL0     C23680   3.701   8.255  10.283 -0.3324 -0.1085 -0.4713
  176MOL0     C23681   3.817   8.296  10.342 -1.3657 -0.0039 -1.0514
  176MOL0     C23682   3.882   8.413  10.297 -0.4662  0.4357  0.5581
  176MOL0     O23683   3.990   8.485  10.348 -0.7165  0.8910  0.1658
  176MOL0     C23684   4.050   8.425  10.464 -0.6252  0.3506 -0.2263
  176MOL0     C23685   4.154   8.517  10.535  0.6815 -0.7290  0.0555
  176MOL0     C23686   4.247   8.433  10.630  0.2523  0.1411  0.3762
  176MOL0     C23687   4.330   8.520  10.726  0.4196  0.0417  0.4828
  176MOL0     C23688   4.468   8.474  10.746 -0.2986  0.0190  0.1395
  176MOL0     C23689   4.570   8.412  10.749  0.2176  0.3754 -0.0384
  176MOL0     C23690   3.814   8.491  10.201 -0.3231 -0.5049  0.2284
  176MOL0     C23691   3.683   8.469  10.153 -1.6707  0.6647 -0.2277
  176MOL0     C23692   3.628   8.573  10.065  0.5656 -0.3930  0.0402
  176MOL0     H23693   3.327   8.300   9.912 -0.5690  0.7224 -2.8451
  176MOL0     H23694   3.094   8.262   9.842 -2.1488 -0.8758  0.1191
  176MOL0     H23695   2.742   8.109   9.994 -2.4403  0.3663  1.2435
  176MOL0     H23696   2.822   8.134  10.141  3.0732 -2.0340 -1.9120
  176MOL0     H23697   2.731   8.374  10.150  1.8995 -1.4510  0.9636
  176MOL0     H23698   2.613   8.251  10.152  3.0730 -0.6867  2.2568
  176MOL0     H23699   2.521   8.407   9.991  0.2092 -0.0377  2.2167
  176MOL0     H23700   2.587   8.283   9.890  3.4104 -1.8826 -0.8202
  176MOL0     H23701   2.742   8.530   9.952 -0.7993 -0.5998  1.6065
  176MOL0     H23702   2.770   8.395   9.822 -0.9207 -0.8102  0.8529
  176MOL0     H23703   2.538   8.446   9.756 -1.1296  1.3507 -0.5233
  176MOL0     H23704   2.545   8.597   9.840  0.0446 -0.6949  0.7171
  176MOL0     H23705   2.631   8.651   9.603 -1.8905 -4.2736 -0.4938
  176MOL0     H23706   2.745   8.684   9.728  0.1172  0.0150 -0.8417
  176MOL0     H23707   2.726   8.405   9.578 -1.5328  0.5499  0.3282
  176MOL0     H23708   2.870   8.476   9.652  3.2474  1.9329 -4.0325
  176MOL0     H23709   2.754   8.572   9.389  0.2409  1.9956  1.0025
  176MOL0     H23710   2.882   8.658   9.473  1.5378 -0.0953  0.6740
  176MOL0     H23711   2.893   8.253   9.456 -2.8501  1.8338  2.4342
  176MOL0     H23712   3.209   8.134   9.474  2.2194 -1.4653 -1.1591
  176MOL0     H23713   3.075   8.094   9.389  0.2383 -1.0171  1.0986
  176MOL0     H23714   3.240   8.024   9.251 -2.0354  0.3703 -0.2618
  176MOL0     H23715   3.172   8.165   9.161 -0.0045  0.5188  0.5120
  176MOL0     H23716   3.413   8.186   9.330  2.0096 -4.2034 -1.6779
  176MOL0     H23717   3.361   8.305   9.219 -0.0414  0.4186  0.0404
  176MOL0     H23718   3.557   8.118   9.163 -0.4992 -1.6756 -0.9775
  176MOL0     H23719   3.503   8.246   9.073  3.2035 -1.5993 -1.1348
  176MOL0     H23720   3.334   7.940   8.847 -0.3257  1.3833  1.1581
  176MOL0     H23721   3.443   7.810   8.670  0.4077  1.1450 -2.0485
  176MOL0     H23722   3.530   7.778   8.236 -0.9741 -2.3704 -2.6489
  176MOL0     H23723   3.670   7.696   8.064  1.2882 -1.4156 -0.5521
  176MOL0     H23724   4.031   7.474   8.112  1.3085 -2.0078  0.8178
  176MOL0     H23725   3.929   7.332   8.154  0.7241 -2.0355 -2.2665
  176MOL0     H23726   3.894   7.274   7.934 -0.9944  0.1960  1.1361
  176MOL0     H23727   3.998   7.419   7.885  0.8593  2.1187  2.3135
  176MOL0     H23728   4.192   7.319   7.992  0.1006  1.0961 -3.5878
  176MOL0     H23729   4.107   7.180   8.054  0.8682 -0.1042  1.3033
  176MOL0     H23730   4.135   7.252   7.755  2.9960 -0.2466 -0.7471
  176MOL0     H23731   4.083   7.098   7.821  0.1843  0.0518 -0.4341
  176MOL0     H23732   4.364   7.200   7.846  1.2590 -1.3103 -3.3047
  176MOL0     H23733   4.299   7.074   7.744  0.2150 -0.4496  1.3600
  176MOL0     H23734   4.365   7.074   8.036 -3.0102 -2.9534  2.8011
  176MOL0     H23735   4.226   6.983   7.985 -0.3319  0.0897  0.2642
  176MOL0     H23736   4.504   6.901   7.995 -1.7525 -0.8265  1.0262
  176MOL0     H23737   4.504   6.950   7.834 -0.4410 -2.3125 -0.7349
  176MOL0     H23738   4.462   6.708   7.891 -0.8696 -1.9587  0.9336
  176MOL0     H23739   4.316   6.749   7.977 -0.5269 -3.0129 -1.5370
  176MOL0     H23740   3.966   7.529   8.303  1.1000  2.8682 -0.4008
  176MOL0     H23741   3.878   7.651   8.498 -1.9182 -0.4952  0.9969
  176MOL0     H23742   3.823   7.966   8.818  0.4931  0.1321  1.8051
  176MOL0     H23743   3.694   8.075   9.010 -0.4625 -2.8801  2.5226
  176MOL0     H23744   2.943   8.360  10.220  0.2032  0.5838  1.2585
  176MOL0     H23745   3.178   8.439  10.288  2.0400  2.3597 -1.0332
  176MOL0     H23746   3.672   8.154  10.308  2.3949 -0.5586  1.2471
  176MOL0     H23747   3.856   8.223  10.413 -1.9465 -0.5056 -1.2423
  176MOL0     H23748   4.108   8.336  10.435  0.8829  0.8792  1.0437
  176MOL0     H23749   3.976   8.416  10.544  2.0668  1.2531  2.5383
  176MOL0     H23750   4.112   8.591  10.603  1.0853 -1.6522  1.3308
  176MOL0     H23751   4.203   8.577  10.457 -1.9170  1.7362  0.1684
  176MOL0     H23752   4.318   8.368  10.578  0.4512  2.3027 -2.2877
  176MOL0     H23753   4.175   8.372  10.686 -2.8221  0.4347 -2.8778
  176MOL0     H23754   4.334   8.621  10.684 -1.1162 -0.2898 -0.5577
  176MOL0     H23755   4.291   8.521  10.829  1.7668 -1.5332  1.0519
  176MOL0     H23756   4.653   8.345  10.744  0.1133  0.2751 -0.4898
  176MOL0     H23757   3.863   8.580  10.162 -3.4700  0.5258 -1.7043
  176MOL0     H23758   3.604   8.527   9.968 -0.6888 -0.5880  0.4302
  176MOL0     H23759   3.548   8.624  10.120 -0.4271  2.1425 -3.3951
  176MOL0     H23760   3.698   8.652  10.038 -0.9681  0.5360 -1.4267
  177MOL0     O23761   2.362   4.909   0.606  0.8936  0.1429 -0.9816
  177MOL0     C23762   2.403   4.944   0.499 -1.2282  0.7642  0.9298
  177MOL0     O23763   2.375   5.055   0.435 -0.0682  0.4991 -0.9758
  177MOL0     C23764   2.267   5.126   0.485  0.9526 -0.3540 -0.0655
  177MOL0     C23765   2.284   5.247   0.558 -0.8756  0.6691  0.3853
  177MOL0     C23766   2.177   5.302   0.631  0.0074 -0.7400  0.1761
  177MOL0     C23767   2.049   5.250   0.637 -0.8051  0.3579  0.3823
  177MOL0     O23768   1.953   5.305   0.711  0.0439 -0.3930  0.4245
  177MOL0     C23769   1.814   5.258   0.720 -0.8290  0.5786 -1.2055
  177MOL0     C23770   1.718   5.351   0.792 -0.5716 -0.2357 -0.5320
  177MOL0     C23771   1.717   5.492   0.749 -0.6331 -0.9406  0.9172
  177MOL0     C23772   1.648   5.571   0.862 -1.2604  0.4968  0.0124
  177MOL0     C23773   1.614   5.729   0.825  0.6447 -1.2848  0.1177
  177MOL0     C23774   1.635   5.825   0.945  0.2826 -0.2342  0.0693
  177MOL0     C23775   1.627   5.969   0.892 -0.3330 -0.6017 -0.1110
  177MOL0     C23776   1.701   6.060   0.991  0.3354  0.1601  0.2976
  177MOL0     N23777   1.691   6.209   0.967 -0.9262 -0.2129 -0.3739
  177MOL0     C23778   1.582   6.275   0.896 -0.0492  0.0439 -0.6223
  177MOL0     C23779   1.607   6.409   0.905  0.5761  0.8208 -0.5296
  177MOL0     C23780   1.527   6.514   0.845  0.1148 -0.2250  0.0862
  177MOL0     C23781   1.566   6.649   0.900  0.0757  1.5653  0.3538
  177MOL0     C23782   1.486   6.748   0.824  0.1406  0.0785  0.3090
  177MOL0     C23783   1.521   6.890   0.875  0.8313 -0.1712  0.6287
  177MOL0     O23784   1.405   6.978   0.853  0.1901  0.3067  0.2356
  177MOL0     C23785   1.370   7.035   0.734  0.4752 -0.2279  0.6664
  177MOL0     C23786   1.262   7.114   0.738 -1.4159  0.2288  0.4128
  177MOL0     C23787   1.204   7.155   0.615  0.0412  0.1367  0.1132
  177MOL0     C23788   1.254   7.107   0.490 -0.1877  0.0203  0.1736
  177MOL0     C23789   1.195   7.139   0.367  0.1483  1.4465 -0.4591
  177MOL0     O23790   1.209   7.052   0.270  0.2176  0.0569  0.0949
  177MOL0     C23791   1.176   7.068   0.136 -0.0393  0.3281 -0.5832
  177MOL0     C23792   1.121   7.183   0.073 -0.3889  0.1524  0.7048
  177MOL0     C23793   1.104   7.186  -0.068 -0.0531 -0.0589 -0.0448
  177MOL0     C23794   1.133   7.078  -0.149  0.4119  1.0697  0.0320
  177MOL0     O23795   1.120   7.077  -0.283  0.2067  0.0799 -1.0390
  177MOL0     C23796   1.069   7.190  -0.350  0.0412 -0.4427  0.3421
  177MOL0     C23797   1.047   7.162  -0.498 -0.3030 -0.0566 -0.4404
  177MOL0     C23798   1.018   7.296  -0.576 -0.8565  0.6683  0.1061
  177MOL0     C23799   0.911   7.387  -0.523  0.4701  0.2898 -0.7021
  177MOL0     C23800   0.925   7.537  -0.565  1.0645 -0.3770 -0.1029
  177MOL0     C23801   0.787   7.606  -0.573 -0.1741  0.2325  0.9348
  177MOL0     C23802   0.705   7.542  -0.695 -0.0334  0.4435 -0.8782
  177MOL0     C23803   0.765   7.548  -0.824  0.3227 -0.3670 -1.6037
  177MOL0    Cl23804   0.834   7.715  -0.846 -0.4038  0.3393  0.3216
  177MOL0     C23805   1.178   6.954  -0.083 -0.5398  0.7811  0.5328
  177MOL0     C23806   1.191   6.952   0.054  0.4765  0.7639  1.0413
  177MOL0     O23807   1.126   7.240   0.361  0.2266 -0.0461  0.2772
  177MOL0     C23808   1.378   7.039   0.483  0.1392  0.5814  0.0790
  177MOL0     C23809   1.433   7.000   0.605  0.4314 -0.2882 -0.1324
  177MOL0     N23810   1.718   6.428   0.988 -0.6301 -0.2576  0.2153
  177MOL0     N23811   1.769   6.312   1.024  0.0363 -0.5548  0.0706
  177MOL0     C23812   2.027   5.143   0.550 -0.2595 -0.7353 -0.2742
  177MOL0     C23813   2.130   5.080   0.476 -0.5265 -0.5023  0.4186
  177MOL0     C23814   2.496   4.845   0.421  0.0319 -0.0772  0.7871
  177MOL0     C23815   2.542   4.885   0.294 -0.0676 -0.9674 -0.7957
  177MOL0     C23816   2.635   4.815   0.223 -0.8143  0.0522 -0.7930
  177MOL0     C23817   2.696   4.709   0.287 -0.0084 -0.2319 -0.5560
  177MOL0     O23818   2.784   4.636   0.215  0.4646 -0.9331  0.8293
  177MOL0     C23819   2.896   4.579   0.271  0.0812  0.1601 -0.9881
  177MOL0     C23820   3.007   4.680   0.241 -0.7544 -0.8398  1.0652
  177MOL0     C23821   3.026   4.727   0.091 -0.1518  0.0786  0.1978
  177MOL0     C23822   3.045   4.625  -0.011  1.3086 -0.4949  0.7267
  177MOL0     C23823   3.173   4.562  -0.019  0.0743  0.1033  0.5625
  177MOL0     C23824   3.271   4.499  -0.041 -0.5580  0.4028 -0.2503
  177MOL0     C23825   2.646   4.660   0.401  0.8060  0.3236  0.8942
  177MOL0     C23826   2.542   4.723   0.465  1.4380  0.8848 -1.1850
  177MOL0     C23827   2.490   4.650   0.587 -0.2469  0.3161 -0.6747
  177MOL0     H23828   2.384   5.288   0.571 -0.3772 -0.6358  0.7719
  177MOL0     H23829   2.198   5.384   0.699 -2.8822  1.0379 -0.8970
  177MOL0     H23830   1.771   5.241   0.621 -1.1610  1.5924 -1.2486
  177MOL0     H23831   1.801   5.160   0.767 -1.0153  0.3549 -1.7196
  177MOL0     H23832   1.757   5.350   0.894 -1.0108 -2.6153 -0.3193
  177MOL0     H23833   1.616   5.310   0.787 -0.3883 -0.5404 -2.4465
  177MOL0     H23834   1.670   5.499   0.650  2.6160  0.5372 -0.7090
  177MOL0     H23835   1.821   5.526   0.742 -0.1677 -1.4663  4.0738
  177MOL0     H23836   1.554   5.526   0.896 -2.5029  2.1253 -1.0975
  177MOL0     H23837   1.722   5.564   0.942 -0.5963  0.5060 -0.5995
  177MOL0     H23838   1.686   5.769   0.753 -0.3320  0.4258  0.0484
  177MOL0     H23839   1.519   5.745   0.773  0.8630 -0.3184  0.0040
  177MOL0     H23840   1.554   5.794   1.013  2.0643 -2.2327  1.4308
  177MOL0     H23841   1.727   5.798   0.997  1.4120 -0.2826 -1.8874
  177MOL0     H23842   1.519   5.989   0.895 -0.0373  1.1712  3.0638
  177MOL0     H23843   1.663   5.983   0.790 -1.0564  1.5315 -0.1260
  177MOL0     H23844   1.657   6.032   1.087  1.5169 -1.0376  0.5175
  177MOL0     H23845   1.805   6.026   0.990  0.4999  0.3066 -3.7910
  177MOL0     H23846   1.491   6.233   0.855 -1.7856 -0.9455  3.6954
  177MOL0     H23847   1.529   6.516   0.735  2.8779 -1.4273  0.0310
  177MOL0     H23848   1.423   6.509   0.877 -0.1396  2.4040 -0.1103
  177MOL0     H23849   1.551   6.655   1.008  2.1603 -0.8439  0.8746
  177MOL0     H23850   1.674   6.647   0.884 -0.2014 -2.6753 -2.9960
  177MOL0     H23851   1.381   6.718   0.832 -0.3946  0.8823 -2.4566
  177MOL0     H23852   1.513   6.751   0.718 -1.0739  1.0704 -0.0001
  177MOL0     H23853   1.612   6.925   0.825  1.1292  2.2317  2.6279
  177MOL0     H23854   1.543   6.893   0.982  1.1334  2.5356  0.5581
  177MOL0     H23855   1.234   7.146   0.838  2.8976 -1.2034  2.3398
  177MOL0     H23856   1.121   7.225   0.611 -0.0547 -0.0004 -0.4778
  177MOL0     H23857   1.105   7.277   0.124  4.3366  2.7749 -1.9775
  177MOL0     H23858   1.066   7.277  -0.113  2.3855  0.5309 -1.0313
  177MOL0     H23859   0.967   7.213  -0.318 -0.7686  1.0928 -2.8989
  177MOL0     H23860   1.141   7.271  -0.340  1.6175 -1.7249 -0.1745
  177MOL0     H23861   1.136   7.110  -0.535  0.4523 -1.2689  2.7412
  177MOL0     H23862   0.963   7.094  -0.515  0.4897 -1.4405  0.8660
  177MOL0     H23863   1.115   7.344  -0.591 -0.4937 -0.3293 -0.8853
  177MOL0     H23864   0.985   7.270  -0.676 -1.8076 -2.1712  1.0593
  177MOL0     H23865   0.918   7.385  -0.414 -5.2166  0.9221 -0.0368
  177MOL0     H23866   0.811   7.353  -0.550  1.6307 -1.3397 -3.3356
  177MOL0     H23867   0.993   7.559  -0.647  2.0038 -1.4363  0.3612
  177MOL0     H23868   0.968   7.577  -0.472  0.3709 -0.3386  0.2111
  177MOL0     H23869   0.734   7.589  -0.479  3.4165 -0.5108  3.0192
  177MOL0     H23870   0.803   7.714  -0.576  2.6350 -0.0895 -2.2599
  177MOL0     H23871   0.608   7.589  -0.714 -1.3208 -2.4430 -2.0317
  177MOL0     H23872   0.679   7.439  -0.668  1.6598 -0.1276 -1.3493
  177MOL0     H23873   0.853   7.483  -0.831  1.6742  1.2242 -0.1105
  177MOL0     H23874   0.696   7.532  -0.908 -2.1176  3.3609 -0.5468
  177MOL0     H23875   1.190   6.866  -0.146 -1.8309  0.7342  0.3272
  177MOL0     H23876   1.227   6.867   0.110 -1.0538 -0.1392  0.7074
  177MOL0     H23877   1.443   7.011   0.401  1.8379 -3.2085  2.3956
  177MOL0     H23878   1.523   6.940   0.594 -0.4009 -1.1727 -2.7965
  177MOL0     H23879   1.930   5.096   0.541 -0.8993 -0.2847  2.9720
  177MOL0     H23880   2.113   4.981   0.435  1.2574  0.0554 -1.8896
  177MOL0     H23881   2.500   4.972   0.245 -0.1689  1.4871  3.1914
  177MOL0     H23882   2.665   4.861   0.130 -0.5187  0.0686 -0.6926
  177MOL0     H23883   2.924   4.478   0.239 -0.2576  0.1539 -1.2771
  177MOL0     H23884   2.892   4.566   0.380 -1.6327  0.2714 -0.9981
  177MOL0     H23885   3.101   4.631   0.269 -0.0428  1.5191  3.1798
  177MOL0     H23886   3.000   4.777   0.291  0.9824  1.0934 -2.0552
  177MOL0     H23887   3.109   4.798   0.084 -0.6266  0.5432 -0.9589
  177MOL0     H23888   2.934   4.777   0.059  0.9356  1.1016 -1.4822
  177MOL0     H23889   2.972   4.543  -0.004 -0.1690  0.5282 -1.5558
  177MOL0     H23890   3.018   4.675  -0.105 -1.9663 -0.8329  1.3499
  177MOL0     H23891   3.358   4.451  -0.083 -0.3879  0.0156  0.5263
  177MOL0     H23892   2.678   4.562   0.436 -0.3614 -0.3728  0.0646
  177MOL0     H23893   2.554   4.660   0.675 -0.9700 -4.0976  0.5784
  177MOL0     H23894   2.384   4.666   0.607 -0.1761 -1.5913  1.7384
  177MOL0     H23895   2.506   4.542   0.581 -0.7283 -0.1619  3.6496
  178MOL0     O23896  10.599   9.270   8.669 -0.3570 -0.2776  0.5682
  178MOL0     C23897  10.608   9.241   8.549 -0.0500  0.7701  0.1922
  178MOL0     O23898  10.695   9.285   8.456 -0.4960  0.4490 -0.2157
  178MOL0     C23899  10.796   9.359   8.490 -0.3730  0.5083  0.7380
  178MOL0     C23900  10.926   9.304   8.470 -0.2807 -0.4638 -0.2413
  178MOL0     C23901  11.044   9.385   8.499  0.3750  0.9612 -0.0436
  178MOL0     C23902  11.029   9.512   8.559 -0.5218  0.8526 -0.3057
  178MOL0     O23903  11.127   9.593   8.605  1.2537  0.4894 -0.1548
  178MOL0     C23904  11.261   9.536   8.610  0.5028 -0.2608 -0.5067
  178MOL0     C23905  11.364   9.636   8.649 -1.2719 -0.3719  0.2858
  178MOL0     C23906  11.391   9.727   8.536  0.2704 -0.4738  0.2670
  178MOL0     C23907  11.517   9.818   8.562  0.5353 -0.8966 -0.3141
  178MOL0     C23908  11.562   9.899   8.433  0.2629  0.5474  0.3030
  178MOL0     C23909  11.467   9.997   8.361  0.1288 -0.0782 -0.2444
  178MOL0     C23910  11.519  10.052   8.238  0.4341  0.0340 -1.2767
  178MOL0     C23911  11.500   9.965   8.109 -0.9633 -0.4811 -0.4915
  178MOL0     N23912  11.568  10.043   8.002 -0.3688  0.1087 -0.0430
  178MOL0     C23913  11.679   9.999   7.938  0.2059 -0.0931 -0.1624
  178MOL0     C23914  11.715  10.100   7.861 -0.3730  0.6803 -0.5496
  178MOL0     C23915  11.830  10.097   7.763  0.3231  0.3162  0.2507
  178MOL0     C23916  11.930  10.200   7.818 -0.0316  0.2871 -0.6772
  178MOL0     C23917  12.070  10.173   7.783  0.1046 -0.4565  0.0362
  178MOL0     C23918  12.170  10.292   7.780  0.1425 -0.0688  0.2822
  178MOL0     O23919  12.309  10.244   7.799 -0.3949  0.0994 -0.3529
  178MOL0     C23920  12.416  10.295   7.722 -0.4893  0.3533 -0.4355
  178MOL0     C23921  12.548  10.241   7.747  0.4857 -0.3707  0.2842
  178MOL0     C23922  12.658  10.298   7.679  0.6054 -0.2145 -0.4154
  178MOL0     C23923  12.642  10.406   7.593  0.2300 -0.0088 -0.1814
  178MOL0     C23924  12.758  10.473   7.528  0.7163  0.2244 -0.8459
  178MOL0     O23925  12.739  10.598   7.483  0.3211 -0.3943  0.4521
  178MOL0     C23926  12.850  10.657   7.426 -0.1973 -0.1154  0.7813
  178MOL0     C23927  12.886  10.644   7.284 -0.3289  0.1678 -0.6739
  178MOL0     C23928  12.992  10.723   7.233 -0.5644  0.3420 -0.6433
  178MOL0     C23929  13.063  10.815   7.305  0.1720  0.0959 -0.2392
  178MOL0     O23930  13.174  10.888   7.263 -0.0722  0.2980  0.3444
  178MOL0     C23931  13.274  10.826   7.172  0.3243 -0.3114  0.6664
  178MOL0     C23932  13.305  10.930   7.058  0.9646 -0.3344  0.3066
  178MOL0     C23933  13.437  10.906   6.983  0.0132 -0.5750  0.1933
  178MOL0     C23934  13.466  11.010   6.870  0.1031 -0.4008  0.5160
  178MOL0     C23935  13.605  11.002   6.824  0.3779 -0.3902 -0.6010
  178MOL0     C23936  13.633  11.117   6.726 -0.9484  0.1789  0.0553
  178MOL0     C23937  13.782  11.107   6.667 -0.8005 -1.7448 -0.0108
  178MOL0     C23938  13.794  10.983   6.580 -0.0733 -0.7958  0.1022
  178MOL0    Cl23939  13.946  10.995   6.500  0.2469 -0.3855  0.2068
  178MOL0     C23940  13.026  10.826   7.446  0.4604  0.4725  0.1247
  178MOL0     C23941  12.924  10.751   7.502  0.9474  0.8061 -0.6850
  178MOL0     O23942  12.863  10.407   7.521  0.4554  0.6470 -0.1259
  178MOL0     C23943  12.512  10.445   7.567  1.0522 -1.1083  0.4038
  178MOL0     C23944  12.404  10.388   7.621  0.7946 -0.8482 -0.0138
  178MOL0     N23945  11.614  10.194   7.862  0.4239  0.1576  0.1237
  178MOL0     N23946  11.535  10.163   7.953  0.1882 -0.3337  0.1219
  178MOL0     C23947  10.901   9.561   8.567  0.1110 -0.1309 -0.3067
  178MOL0     C23948  10.783   9.492   8.532 -0.8249  0.6826  0.6109
  178MOL0     C23949  10.502   9.155   8.492  0.1664 -0.8079 -0.4873
  178MOL0     C23950  10.487   9.024   8.549 -0.6697  0.1856  0.4560
  178MOL0     C23951  10.395   8.939   8.499  0.8246  0.8191  0.5237
  178MOL0     C23952  10.316   8.969   8.388 -1.0216  0.0552  0.2845
  178MOL0     O23953  10.251   8.861   8.328  0.2322 -0.0416  0.7430
  178MOL0     C23954  10.220   8.885   8.186  0.3581 -0.5261  0.2895
  178MOL0     C23955  10.145   8.773   8.124  0.7979 -0.8850 -0.6974
  178MOL0     C23956  10.021   8.745   8.208  0.1466  0.2500  0.1754
  178MOL0     C23957   9.940   8.634   8.149  0.1791  0.7245  1.0150
  178MOL0     C23958   9.880   8.536   8.244 -0.2727 -0.2180 -0.3667
  178MOL0     C23959   9.820   8.463   8.316  0.0266 -0.0908  1.0362
  178MOL0     C23960  10.327   9.099   8.336  0.1716 -0.2914 -0.5696
  178MOL0     C23961  10.413   9.195   8.391  0.1976  0.6074 -0.0980
  178MOL0     C23962  10.408   9.335   8.352 -0.4127 -0.4956  0.6708
  178MOL0     H23963  10.927   9.197   8.453 -0.2909 -0.5772  0.4533
  178MOL0     H23964  11.136   9.333   8.477  1.2409  0.4829  3.9012
  178MOL0     H23965  11.272   9.458   8.687 -0.7164 -1.0537 -1.1080
  178MOL0     H23966  11.289   9.492   8.514 -1.2585 -2.0254 -0.2858
  178MOL0     H23967  11.456   9.585   8.679 -2.1596 -0.1958  3.6968
  178MOL0     H23968  11.320   9.680   8.739 -3.3527  0.2300 -0.9449
  178MOL0     H23969  11.300   9.787   8.531  0.5214 -0.1191 -0.1042
  178MOL0     H23970  11.410   9.677   8.441  3.3011  1.3263 -0.2002
  178MOL0     H23971  11.494   9.890   8.641 -0.1628 -2.2269  0.7441
  178MOL0     H23972  11.594   9.752   8.604 -1.4463 -3.1127  0.0858
  178MOL0     H23973  11.649   9.962   8.453  0.9417  1.1041 -3.6380
  178MOL0     H23974  11.583   9.829   8.352 -3.7717 -0.9720  0.3557
  178MOL0     H23975  11.374   9.945   8.333  1.3907 -2.6992  0.1226
  178MOL0     H23976  11.453  10.072   8.439 -3.2123 -0.7014 -0.0912
  178MOL0     H23977  11.627  10.061   8.253  0.3202 -1.1587  0.4220
  178MOL0     H23978  11.476  10.150   8.214 -2.2508 -0.8539 -0.4226
  178MOL0     H23979  11.540   9.867   8.139  0.9928  0.9455  1.9962
  178MOL0     H23980  11.395   9.954   8.084 -1.1225 -1.8342  0.6313
  178MOL0     H23981  11.736   9.909   7.960 -1.7570 -1.2969  0.3001
  178MOL0     H23982  11.868   9.995   7.764 -2.4294 -0.9654  5.0004
  178MOL0     H23983  11.796  10.140   7.668 -1.1903  1.8337  1.4214
  178MOL0     H23984  11.893  10.297   7.785 -2.8053 -1.0057 -1.7132
  178MOL0     H23985  11.927  10.191   7.927  1.6983  0.5724 -0.5651
  178MOL0     H23986  12.073  10.137   7.680  1.3480 -2.7420  0.8002
  178MOL0     H23987  12.112  10.087   7.836 -0.7596 -0.9123 -0.0084
  178MOL0     H23988  12.147  10.367   7.855  1.5814  1.4885 -0.7663
  178MOL0     H23989  12.150  10.335   7.682 -1.5524 -0.2404  0.5122
  178MOL0     H23990  12.558  10.169   7.828 -0.1328  1.0555  1.6749
  178MOL0     H23991  12.760  10.268   7.697  1.6614  3.4811  0.5522
  178MOL0     H23992  12.822  10.593   7.213  0.3034 -1.4353 -0.1185
  178MOL0     H23993  13.018  10.708   7.129 -1.0471 -0.5116 -0.6457
  178MOL0     H23994  13.373  10.816   7.219  0.0673 -0.3358  1.2098
  178MOL0     H23995  13.247  10.729   7.130  0.3489 -0.8792  1.9067
  178MOL0     H23996  13.230  10.916   6.979  0.2695  0.4845  0.7927
  178MOL0     H23997  13.290  11.033   7.094 -0.7019  0.9472 -3.4941
  178MOL0     H23998  13.520  10.914   7.054 -2.0675 -1.3688  2.9124
  178MOL0     H23999  13.435  10.800   6.955 -2.1296 -0.5257  0.0517
  178MOL0     H24000  13.441  11.111   6.905 -2.3945 -1.3568  1.7160
  178MOL0     H24001  13.400  11.000   6.784  1.9294 -0.3853 -0.9694
  178MOL0     H24002  13.610  10.913   6.760 -0.3202  1.2985 -3.1408
  178MOL0     H24003  13.685  11.011   6.897  1.3177 -1.1800 -1.5020
  178MOL0     H24004  13.558  11.118   6.646 -1.2428  3.8832  0.1805
  178MOL0     H24005  13.621  11.216   6.772 -2.7694 -0.1548  0.3709
  178MOL0     H24006  13.855  11.104   6.748 -2.5229 -1.5826  1.6182
  178MOL0     H24007  13.810  11.195   6.608  0.6544 -1.1984  1.4329
  178MOL0     H24008  13.797  10.887   6.634 -1.5871 -0.3446  1.0719
  178MOL0     H24009  13.719  10.971   6.502  2.2937  1.5750 -2.7475
  178MOL0     H24010  13.081  10.893   7.510 -0.1538  2.6374 -1.4935
  178MOL0     H24011  12.902  10.761   7.608 -0.7932 -1.5117 -0.7568
  178MOL0     H24012  12.510  10.503   7.475  2.5518 -0.8572  0.5048
  178MOL0     H24013  12.305  10.415   7.585  0.6311  0.0499  1.0642
  178MOL0     H24014  10.904   9.659   8.615 -3.3743  0.6341 -1.3928
  178MOL0     H24015  10.685   9.525   8.567 -2.2542 -3.2344  0.7515
  178MOL0     H24016  10.556   8.988   8.625  1.0536 -2.0417 -1.9440
  178MOL0     H24017  10.399   8.837   8.538 -0.6671  0.5296 -0.0148
  178MOL0     H24018  10.309   8.896   8.122 -1.7442 -0.4974 -2.8842
  178MOL0     H24019  10.154   8.971   8.175  2.3947  0.8586 -2.7338
  178MOL0     H24020  10.204   8.681   8.119 -0.6217 -1.9304  0.7351
  178MOL0     H24021  10.115   8.798   8.022  1.3941  1.7871 -0.2986
  178MOL0     H24022   9.950   8.829   8.207  1.1155  1.1330 -2.3291
  178MOL0     H24023  10.044   8.732   8.314 -0.1565  2.0310  0.4913
  178MOL0     H24024   9.866   8.672   8.078  1.6593  0.3244 -0.8214
  178MOL0     H24025  10.006   8.575   8.086  0.3705  1.3132  0.6567
  178MOL0     H24026   9.761   8.405   8.385  1.3966 -1.5045  1.0825
  178MOL0     H24027  10.261   9.116   8.252  0.0317 -4.0540 -1.4083
  178MOL0     H24028  10.322   9.354   8.288  0.2140  1.0777  0.2568
  178MOL0     H24029  10.390   9.404   8.434 -1.1437  1.7522 -1.2838
  178MOL0     H24030  10.504   9.361   8.305 -0.1740 -1.4741  0.5835
  179MOL0     O24031   1.005   8.628   2.043  0.2414 -0.1701 -0.2402
  179MOL0     C24032   1.016   8.693   1.943 -0.2543  0.4003  0.5945
  179MOL0     O24033   0.974   8.649   1.817 -0.0099 -1.2347 -0.3285
  179MOL0     C24034   0.886   8.552   1.804  1.1012  1.0599 -1.1317
  179MOL0     C24035   0.759   8.582   1.758 -0.5024  0.3976 -0.0854
  179MOL0     C24036   0.685   8.479   1.716  0.0719  0.5994  0.6575
  179MOL0     C24037   0.721   8.344   1.719 -0.0002 -0.1678 -0.4937
  179MOL0     O24038   0.643   8.256   1.655  0.4433 -0.2916  0.4244
  179MOL0     C24039   0.678   8.118   1.654 -0.9041  0.7214  0.8412
  179MOL0     C24040   0.566   8.023   1.599  0.4023  0.2635  0.0057
  179MOL0     C24041   0.594   7.997   1.454  0.0859  0.0231  0.2884
  179MOL0     C24042   0.467   7.937   1.381  0.9161  0.0245 -0.1722
  179MOL0     C24043   0.490   7.943   1.227 -0.8037 -0.3821 -0.1644
  179MOL0     C24044   0.367   7.913   1.140 -0.2091  0.0547  0.5202
  179MOL0     C24045   0.397   7.848   1.007  1.0238 -0.6250  0.3157
  179MOL0     C24046   0.271   7.821   0.929  0.5904 -0.7357  0.2232
  179MOL0     N24047   0.194   7.705   0.977  0.4317  0.5658  0.1058
  179MOL0     C24048   0.246   7.610   1.055  0.5543  0.6500 -0.1870
  179MOL0     C24049   0.145   7.563   1.137  0.3196 -0.2397 -0.8080
  179MOL0     C24050   0.134   7.466   1.244  0.1333 -0.2787  0.3484
  179MOL0     C24051   0.192   7.505   1.380 -1.3837  0.4371 -0.3949
  179MOL0     C24052   0.350   7.504   1.364  0.5088  0.3194 -0.0520
  179MOL0     C24053   0.407   7.524   1.502  0.4465  0.5158  0.0992
  179MOL0     O24054   0.470   7.409   1.564  0.4712  0.2096  0.4527
  179MOL0     C24055   0.406   7.361   1.678 -0.2518  0.3424  0.1310
  179MOL0     C24056   0.462   7.401   1.794 -0.4388 -0.5768 -0.2667
  179MOL0     C24057   0.431   7.337   1.923 -1.1060  0.3196  0.0959
  179MOL0     C24058   0.335   7.229   1.920 -0.0418 -0.9765  0.4799
  179MOL0     C24059   0.310   7.153   2.045  0.0649  0.8848  0.0258
  179MOL0     O24060   0.356   7.198   2.164  0.1453 -0.5232  0.7778
  179MOL0     C24061   0.315   7.127   2.274 -0.3730  0.0739 -0.1584
  179MOL0     C24062   0.255   7.204   2.372  0.1005 -0.4628  0.6902
  179MOL0     C24063   0.245   7.148   2.498  0.3619 -0.8118 -0.5558
  179MOL0     C24064   0.285   7.011   2.526 -0.0110  0.0565 -0.0033
  179MOL0     O24065   0.251   6.947   2.643 -0.2107 -0.1600  0.2990
  179MOL0     C24066   0.318   7.010   2.751  0.5372 -0.4291 -0.0660
  179MOL0     C24067   0.284   6.955   2.888  0.3467  0.1902  1.1244
  179MOL0     C24068   0.316   7.054   3.006  0.0711 -0.1176 -0.3809
  179MOL0     C24069   0.316   7.002   3.144  0.1543  1.2843  0.2672
  179MOL0     C24070   0.352   7.098   3.252  0.5583 -0.0163  0.2442
  179MOL0     C24071   0.362   7.035   3.396 -0.7057 -0.4126 -0.0717
  179MOL0     C24072   0.388   7.143   3.502 -0.3526 -0.4367  0.7139
  179MOL0     C24073   0.363   7.090   3.639  0.3559  0.1011 -0.0367
  179MOL0    Cl24074   0.479   6.965   3.701 -0.2948  0.2521  0.6863
  179MOL0     C24075   0.330   6.939   2.417  0.6267  0.1007 -0.3838
  179MOL0     C24076   0.348   7.000   2.298 -0.7452 -0.4487 -0.0522
  179MOL0     O24077   0.268   7.040   2.016 -0.1824  0.3607 -0.3143
  179MOL0     C24078   0.269   7.204   1.801 -0.0767  0.7626 -0.0015
  179MOL0     C24079   0.312   7.266   1.679 -0.5404  1.0967  0.2094
  179MOL0     N24080   0.037   7.650   1.116 -0.0383 -0.0899 -0.0122
  179MOL0     N24081   0.073   7.727   1.017  0.5539 -0.1513 -0.7724
  179MOL0     C24082   0.848   8.324   1.783  0.3376 -0.8008  0.6731
  179MOL0     C24083   0.930   8.425   1.819 -0.5287  0.7659 -0.5220
  179MOL0     C24084   1.074   8.830   1.953 -0.3486 -0.3511  0.8308
  179MOL0     C24085   1.108   8.898   1.836 -0.2493  0.8878 -0.0204
  179MOL0     C24086   1.177   9.017   1.842  0.2500 -0.3342 -0.1004
  179MOL0     C24087   1.219   9.079   1.961 -0.4932 -0.4194  0.3006
  179MOL0     O24088   1.285   9.203   1.966 -0.1968 -0.1582 -0.7823
  179MOL0     C24089   1.374   9.243   1.856  0.3491  0.5054  0.0902
  179MOL0     C24090   1.402   9.393   1.866  0.1738 -0.5152 -0.2261
  179MOL0     C24091   1.466   9.439   2.003  0.8352  0.5283  0.0854
  179MOL0     C24092   1.483   9.588   2.015  0.6717  0.3479  0.9014
  179MOL0     C24093   1.477   9.609   2.162  0.1699 -1.2845  0.4383
  179MOL0     C24094   1.463   9.618   2.282 -0.0880  0.4858  0.4597
  179MOL0     C24095   1.181   9.011   2.068  0.6135  0.3553  0.3293
  179MOL0     C24096   1.121   8.885   2.072  0.7943 -0.2250 -0.5866
  179MOL0     C24097   1.100   8.832   2.211  0.1062 -0.2330  1.1502
  179MOL0     H24098   0.727   8.683   1.735 -2.3399 -0.0389  0.3976
  179MOL0     H24099   0.598   8.509   1.658  0.6629 -0.2801 -0.7318
  179MOL0     H24100   0.772   8.114   1.597 -1.4947  2.0709 -0.2692
  179MOL0     H24101   0.707   8.104   1.758  1.9356 -1.3114 -0.0999
  179MOL0     H24102   0.472   8.075   1.617 -0.6771 -0.7828 -2.2085
  179MOL0     H24103   0.561   7.928   1.653  2.5279 -0.0908 -0.3404
  179MOL0     H24104   0.689   7.947   1.434  0.5615  1.4107 -1.1480
  179MOL0     H24105   0.599   8.104   1.429  0.1603  0.6765  2.8534
  179MOL0     H24106   0.459   7.837   1.424  3.9459 -0.6694 -0.9874
  179MOL0     H24107   0.374   7.988   1.410  1.5025 -0.3731  2.7581
  179MOL0     H24108   0.547   8.032   1.196  2.1962 -1.3950  1.9399
  179MOL0     H24109   0.563   7.866   1.202  0.5145  0.9636 -0.6354
  179MOL0     H24110   0.320   7.832   1.197  2.8394 -2.4869 -0.3183
  179MOL0     H24111   0.298   7.997   1.130  0.9467  1.0231  0.4818
  179MOL0     H24112   0.458   7.758   1.011  1.6258 -0.2697 -0.4701
  179MOL0     H24113   0.453   7.927   0.955 -0.6645 -0.2539 -1.0136
  179MOL0     H24114   0.212   7.912   0.943 -2.0268 -1.8841 -2.2023
  179MOL0     H24115   0.292   7.804   0.823 -1.2940  0.6958 -0.4256
  179MOL0     H24116   0.346   7.567   1.060  0.9094  1.5436  1.3405
  179MOL0     H24117   0.028   7.443   1.259  0.0941  0.5550  1.4456
  179MOL0     H24118   0.179   7.372   1.210 -0.2582 -0.7867  1.2022
  179MOL0     H24119   0.154   7.606   1.401 -1.4425  0.5957 -1.2243
  179MOL0     H24120   0.170   7.430   1.456 -1.3594  3.2810  2.6630
  179MOL0     H24121   0.371   7.574   1.283  0.2958 -0.4986 -0.8294
  179MOL0     H24122   0.373   7.408   1.317 -0.1939  1.3570 -2.7372
  179MOL0     H24123   0.341   7.569   1.576  0.8323  1.7279 -0.2695
  179MOL0     H24124   0.495   7.587   1.490  0.8156 -0.3042 -1.8720
  179MOL0     H24125   0.533   7.482   1.797  0.1634 -1.1212  1.4078
  179MOL0     H24126   0.468   7.371   2.019  1.6390  1.5063 -1.2897
  179MOL0     H24127   0.212   7.300   2.342  0.7384 -0.3297  0.1769
  179MOL0     H24128   0.204   7.207   2.580 -1.5232 -1.0220 -1.2911
  179MOL0     H24129   0.426   7.009   2.737  1.3778  4.2959  3.6782
  179MOL0     H24130   0.283   7.113   2.742  4.3145  1.4653  3.7145
  179MOL0     H24131   0.176   6.938   2.887  0.3849 -0.0853 -0.5511
  179MOL0     H24132   0.339   6.862   2.906 -0.9220 -0.7418  0.3667
  179MOL0     H24133   0.421   7.077   2.986  1.0498 -2.4887  1.5735
  179MOL0     H24134   0.249   7.141   3.000  3.1567  2.4972  0.5166
  179MOL0     H24135   0.393   6.925   3.155 -0.7514  0.2383 -0.4300
  179MOL0     H24136   0.220   6.955   3.166  0.5421 -0.6174 -1.7128
  179MOL0     H24137   0.272   7.173   3.255  0.1819 -0.3992  2.8452
  179MOL0     H24138   0.446   7.149   3.229  2.9282 -3.6907  0.9457
  179MOL0     H24139   0.279   6.969   3.419 -2.1448  1.8027  1.4803
  179MOL0     H24140   0.446   6.965   3.389 -0.8996 -1.0585  2.7489
  179MOL0     H24141   0.319   7.228   3.495 -0.7465 -0.8612 -1.0036
  179MOL0     H24142   0.488   7.186   3.490  0.2546 -2.4043 -2.3381
  179MOL0     H24143   0.368   7.177   3.705  1.5138 -0.2776  0.4082
  179MOL0     H24144   0.266   7.040   3.648  1.4832 -2.1783  0.2217
  179MOL0     H24145   0.362   6.836   2.429 -2.7327 -1.1978 -1.3864
  179MOL0     H24146   0.378   6.933   2.218  1.9781 -0.6731  1.0534
  179MOL0     H24147   0.199   7.123   1.787 -1.0669  1.8258 -1.6927
  179MOL0     H24148   0.269   7.223   1.589 -1.1961  0.0548  0.9948
  179MOL0     H24149   0.875   8.221   1.805 -0.6204 -1.2251 -0.0623
  179MOL0     H24150   1.023   8.395   1.866 -1.0373 -1.9400 -1.0553
  179MOL0     H24151   1.074   8.864   1.739 -3.5099  1.5304  0.7862
  179MOL0     H24152   1.214   9.060   1.750  2.0727 -2.8015 -0.6479
  179MOL0     H24153   1.342   9.211   1.757  2.3177  0.5225 -0.5912
  179MOL0     H24154   1.472   9.199   1.876  0.4251  1.2825  1.5775
  179MOL0     H24155   1.299   9.431   1.863 -1.0471 -3.6183 -1.2629
  179MOL0     H24156   1.462   9.430   1.782  0.1595  0.8572  0.3378
  179MOL0     H24157   1.556   9.380   2.025  1.1774  1.4239  1.1821
  179MOL0     H24158   1.396   9.403   2.079 -0.2029  0.1223 -1.0290
  179MOL0     H24159   1.572   9.626   1.964  0.4119 -1.0223 -0.6695
  179MOL0     H24160   1.395   9.641   1.977  2.4048  2.0814 -0.9357
  179MOL0     H24161   1.454   9.631   2.388 -0.7238 -0.9172  0.5909
  179MOL0     H24162   1.208   9.058   2.162  0.0011  2.4054 -0.4576
  179MOL0     H24163   0.991   8.830   2.228 -0.3073  1.2121 -0.9051
  179MOL0     H24164   1.165   8.746   2.228 -1.6062 -2.0401 -0.8683
  179MOL0     H24165   1.131   8.910   2.281  0.4064 -0.8834  1.7455
  180MOL0     O24166   2.636   8.812   5.130  0.3122 -0.5812 -0.0991
  180MOL0     C24167   2.636   8.871   5.243 -0.1729  0.5836 -0.1744
  180MOL0     O24168   2.561   8.835   5.345 -0.0502 -0.0685  0.3523
  180MOL0     C24169   2.497   8.709   5.345  0.2833  0.3437 -0.0361
  180MOL0     C24170   2.361   8.717   5.373  1.2235  0.5481 -0.6895
  180MOL0     C24171   2.280   8.597   5.363  0.2506 -0.2509  0.3007
  180MOL0     C24172   2.331   8.482   5.329  0.0434  0.1176  0.3535
  180MOL0     O24173   2.257   8.368   5.330  0.4348  0.2465  0.0371
  180MOL0     C24174   2.159   8.345   5.432 -0.0342 -0.0204 -0.8814
  180MOL0     C24175   2.094   8.203   5.399 -0.6990 -0.6533  0.3213
  180MOL0     C24176   1.967   8.181   5.449 -0.0829  0.9403 -0.0258
  180MOL0     C24177   1.912   8.044   5.430 -0.6314 -0.2269  0.8179
  180MOL0     C24178   1.872   8.010   5.284  0.0978  1.0383  0.7849
  180MOL0     C24179   1.782   7.886   5.282  0.2544 -0.9117 -0.1279
  180MOL0     C24180   1.707   7.889   5.148  0.1276  0.2039 -0.2037
  180MOL0     C24181   1.640   7.755   5.117 -0.2572  0.2205  0.5066
  180MOL0     N24182   1.567   7.756   4.985  0.5569 -0.7965 -0.0615
  180MOL0     C24183   1.617   7.806   4.862 -0.6055 -0.4590  0.3560
  180MOL0     C24184   1.516   7.814   4.775  1.0184  0.7811 -0.0027
  180MOL0     C24185   1.511   7.876   4.640 -0.0277  0.4807 -0.2715
  180MOL0     C24186   1.631   7.830   4.559 -0.3468 -0.2138 -0.8173
  180MOL0     C24187   1.603   7.850   4.415  0.3070  0.0202  0.1984
  180MOL0     C24188   1.741   7.845   4.344 -0.6907  0.2644  1.0668
  180MOL0     O24189   1.736   7.837   4.195  0.7068  0.9123 -1.0206
  180MOL0     C24190   1.812   7.744   4.130 -0.8967 -0.5635 -0.2832
  180MOL0     C24191   1.930   7.700   4.185 -1.0456  0.3242 -0.1127
  180MOL0     C24192   1.990   7.586   4.125 -0.1626  0.4584 -0.5358
  180MOL0     C24193   1.946   7.521   4.008  0.1231  0.2872 -1.2420
  180MOL0     C24194   2.027   7.415   3.937 -0.4652  1.0534 -0.9356
  180MOL0     O24195   2.001   7.403   3.806  0.3689  0.1955  0.1763
  180MOL0     C24196   2.060   7.305   3.725 -0.9492 -0.6886 -0.0392
  180MOL0     C24197   1.983   7.194   3.675 -0.1390 -0.3227  0.2367
  180MOL0     C24198   2.037   7.099   3.587 -0.7569 -0.5942  0.4233
  180MOL0     C24199   2.172   7.123   3.539  0.2469 -0.3853  0.5559
  180MOL0     O24200   2.225   7.030   3.454 -1.1272  0.2808  0.1820
  180MOL0     C24201   2.302   6.919   3.504  0.9711  0.3074  0.6466
  180MOL0     C24202   2.306   6.808   3.394 -0.1508 -0.3383  0.1487
  180MOL0     C24203   2.431   6.820   3.309  0.7883 -0.3385 -0.5062
  180MOL0     C24204   2.410   6.727   3.190  0.3715 -0.5891 -0.0674
  180MOL0     C24205   2.535   6.720   3.104 -0.4937  0.0504 -0.5229
  180MOL0     C24206   2.519   6.600   3.008  1.0756  0.6624  0.1903
  180MOL0     C24207   2.650   6.579   2.934  0.2627  0.1301  0.5257
  180MOL0     C24208   2.654   6.469   2.827 -0.3585 -0.1692  0.4274
  180MOL0    Cl24209   2.616   6.302   2.890 -0.1886  0.1827 -0.3916
  180MOL0     C24210   2.242   7.231   3.592 -0.0826  0.7146  0.3829
  180MOL0     C24211   2.195   7.306   3.696 -0.4399  0.0758 -0.5626
  180MOL0     O24212   2.109   7.348   4.006 -0.8588  0.2183  0.3480
  180MOL0     C24213   1.832   7.579   3.947  0.3391 -0.0607 -0.1225
  180MOL0     C24214   1.770   7.700   4.003  0.1249  0.2367  1.3097
  180MOL0     N24215   1.408   7.756   4.847  0.8533  0.0438  0.6179
  180MOL0     N24216   1.434   7.721   4.968 -0.0519  0.5661  0.0905
  180MOL0     C24217   2.478   8.476   5.297  0.3726  0.0025  1.4544
  180MOL0     C24218   2.553   8.589   5.309 -0.2489  0.1519  0.4214
  180MOL0     C24219   2.706   9.003   5.244 -0.6558  0.0195  0.5543
  180MOL0     C24220   2.833   9.006   5.183  1.0684  0.4692  0.0251
  180MOL0     C24221   2.910   9.125   5.187 -0.1699 -0.3734  0.1582
  180MOL0     C24222   2.866   9.242   5.249  0.7836  1.1196 -1.0668
  180MOL0     O24223   2.945   9.355   5.254 -0.3014  0.2766 -0.7441
  180MOL0     C24224   2.995   9.414   5.370 -0.2793 -0.3937  0.3042
  180MOL0     C24225   3.142   9.402   5.373  0.8792  0.4733 -0.7494
  180MOL0     C24226   3.198   9.267   5.336  0.2223 -0.3161  0.0316
  180MOL0     C24227   3.350   9.256   5.347  0.0129 -0.4473 -0.9198
  180MOL0     C24228   3.385   9.269   5.488  0.6090 -0.9258  0.9491
  180MOL0     C24229   3.402   9.279   5.599  0.0935  0.4013 -0.3051
  180MOL0     C24230   2.737   9.231   5.316 -0.2178  1.3659  0.7189
  180MOL0     C24231   2.661   9.115   5.317 -1.4507  0.8242  0.2045
  180MOL0     C24232   2.530   9.123   5.388  0.4939  0.0803  0.6389
  180MOL0     H24233   2.330   8.810   5.418 -1.2990  0.6272 -2.3731
  180MOL0     H24234   2.176   8.612   5.392  0.7304  4.2635  0.4471
  180MOL0     H24235   2.204   8.345   5.531 -0.0180 -2.3664 -0.8350
  180MOL0     H24236   2.085   8.426   5.436  0.2451  0.1972  0.1504
  180MOL0     H24237   2.170   8.132   5.435  1.9338  2.1530  0.7114
  180MOL0     H24238   2.097   8.194   5.290  1.7554 -0.1519  0.2980
  180MOL0     H24239   1.904   8.263   5.415  0.7871  1.5022 -0.3159
  180MOL0     H24240   1.966   8.203   5.556  0.6219  3.2400 -0.4466
  180MOL0     H24241   1.992   7.975   5.457  4.2069  1.8930 -5.7142
  180MOL0     H24242   1.816   8.040   5.484 -1.5689  1.8696 -0.5653
  180MOL0     H24243   1.814   8.089   5.238 -1.2461  0.1113  0.8382
  180MOL0     H24244   1.963   8.000   5.224  0.5892  5.0214  0.6064
  180MOL0     H24245   1.845   7.799   5.302 -0.2246 -0.8754  1.7123
  180MOL0     H24246   1.709   7.880   5.363  2.9628  0.9782  2.7041
  180MOL0     H24247   1.781   7.909   5.070 -0.5605  0.2827 -0.8447
  180MOL0     H24248   1.629   7.965   5.149  0.1199  0.1932  0.5404
  180MOL0     H24249   1.721   7.682   5.119 -1.4256 -1.1121  0.7016
  180MOL0     H24250   1.575   7.731   5.201  1.2324  2.1413  2.2890
  180MOL0     H24251   1.720   7.840   4.850 -1.6320  2.4953 -1.3099
  180MOL0     H24252   1.424   7.836   4.586 -0.1108 -1.4821  1.1881
  180MOL0     H24253   1.512   7.984   4.655  1.1726  0.2465  1.6229
  180MOL0     H24254   1.723   7.883   4.585 -0.1096 -1.2377  0.5506
  180MOL0     H24255   1.647   7.725   4.587 -0.8755 -0.0426  0.1606
  180MOL0     H24256   1.536   7.935   4.399 -0.5282 -0.8131 -0.8444
  180MOL0     H24257   1.547   7.769   4.367  0.9074 -0.3792  0.1635
  180MOL0     H24258   1.793   7.759   4.388 -1.9731 -1.9567 -1.4880
  180MOL0     H24259   1.793   7.937   4.373  3.0754 -1.1449 -0.5516
  180MOL0     H24260   1.967   7.731   4.282 -4.5658  3.1662  0.5462
  180MOL0     H24261   2.080   7.560   4.180  0.1592  0.5225 -1.0285
  180MOL0     H24262   1.878   7.183   3.700 -0.2176  1.2755  0.7023
  180MOL0     H24263   1.989   7.006   3.560 -0.7290 -0.2398 -0.9363
  180MOL0     H24264   2.398   6.963   3.532  1.3978 -2.0106  3.3764
  180MOL0     H24265   2.257   6.877   3.595 -0.7344  1.1179  0.2084
  180MOL0     H24266   2.306   6.711   3.444  0.7640  0.3926  1.6538
  180MOL0     H24267   2.216   6.819   3.333  0.5202  1.1828 -0.6252
  180MOL0     H24268   2.448   6.925   3.283  3.0260 -0.1439  1.4112
  180MOL0     H24269   2.524   6.803   3.364 -0.0357  0.7664  1.3255
  180MOL0     H24270   2.331   6.780   3.136 -0.6253 -0.9858  0.9525
  180MOL0     H24271   2.367   6.629   3.214 -0.1645  0.2239  2.7391
  180MOL0     H24272   2.620   6.709   3.172  2.3020  2.8572 -3.2560
  180MOL0     H24273   2.560   6.809   3.045  0.8319  0.9032  1.2445
  180MOL0     H24274   2.487   6.509   3.059  1.0526  1.3838  1.4898
  180MOL0     H24275   2.444   6.616   2.930 -2.9770 -2.5303  2.9911
  180MOL0     H24276   2.727   6.554   3.007  2.0120  2.0321 -0.5501
  180MOL0     H24277   2.686   6.676   2.898  1.4966 -0.1489  0.9461
  180MOL0     H24278   2.597   6.504   2.741 -2.0589 -0.3405  1.4547
  180MOL0     H24279   2.756   6.444   2.796 -0.6192 -3.2453  1.6414
  180MOL0     H24280   2.345   7.250   3.564 -0.6980  0.2550 -2.5022
  180MOL0     H24281   2.270   7.366   3.746 -0.5280  1.6213 -2.1706
  180MOL0     H24282   1.790   7.550   3.851 -2.9499  2.7462  0.2595
  180MOL0     H24283   1.675   7.726   3.959  0.5531 -1.1795 -0.6074
  180MOL0     H24284   2.539   8.390   5.273  1.3500  0.6259  1.6545
  180MOL0     H24285   2.660   8.575   5.300 -0.3580 -1.6176  1.4033
  180MOL0     H24286   2.880   8.927   5.125  0.5595 -0.3789  0.7240
  180MOL0     H24287   3.010   9.127   5.145  1.7443  0.0363  4.2441
  180MOL0     H24288   2.958   9.362   5.459 -1.8828 -0.1183 -0.1585
  180MOL0     H24289   2.968   9.517   5.396 -0.0566 -1.2078  4.4873
  180MOL0     H24290   3.171   9.431   5.474  1.1376 -0.1755 -0.6292
  180MOL0     H24291   3.193   9.475   5.309 -0.4643  1.9111 -0.2460
  180MOL0     H24292   3.197   9.253   5.227  3.8010  3.4378 -0.7500
  180MOL0     H24293   3.146   9.183   5.382 -2.2262 -0.0784 -2.0733
  180MOL0     H24294   3.387   9.159   5.315  1.4120  0.2653 -1.5864
  180MOL0     H24295   3.407   9.326   5.285  0.8954  0.3752  0.7204
  180MOL0     H24296   3.408   9.280   5.706 -0.0019 -0.4777 -0.2864
  180MOL0     H24297   2.698   9.324   5.356 -2.7119  1.3496 -1.4071
  180MOL0     H24298   2.480   9.217   5.362  0.6446 -0.0157 -0.0184
  180MOL0     H24299   2.462   9.040   5.370 -0.0860  0.0775  2.5822
  180MOL0     H24300   2.543   9.114   5.496 -0.7882 -0.9760  0.7280
  181MOL0     O24301   1.036   2.544   3.985  0.0173 -0.3198 -0.2182
  181MOL0     C24302   1.134   2.615   4.016 -0.3202  0.2920  0.3831
  181MOL0     O24303   1.182   2.629   4.139 -0.4609 -0.2244  0.3634
  181MOL0     C24304   1.124   2.565   4.251  0.2559 -0.1497  0.3502
  181MOL0     C24305   0.980   2.552   4.275 -0.4833  0.4229  0.0830
  181MOL0     C24306   0.933   2.486   4.382  0.6162  0.0507 -0.3846
  181MOL0     C24307   1.020   2.431   4.471  0.0439  0.2550  0.8262
  181MOL0     O24308   0.967   2.345   4.566  0.7633 -0.3211 -0.7365
  181MOL0     C24309   1.050   2.257   4.648  0.5027 -0.1042  0.3636
  181MOL0     C24310   0.964   2.167   4.730  1.1936  0.9014 -0.4677
  181MOL0     C24311   0.911   2.214   4.870 -0.0786  0.4268  0.0700
  181MOL0     C24312   0.765   2.196   4.873 -0.5241  0.9359  0.6141
  181MOL0     C24313   0.691   2.291   4.779  0.2320  0.8916  0.1575
  181MOL0     C24314   0.542   2.249   4.774 -0.5978  0.3576  0.2304
  181MOL0     C24315   0.461   2.255   4.908  0.9780  0.2832  0.3207
  181MOL0     C24316   0.447   2.401   4.957 -0.4490 -0.5464 -0.2233
  181MOL0     N24317   0.326   2.472   4.913  0.7957  0.6696 -0.4537
  181MOL0     C24318   0.336   2.574   4.818  0.7977  0.0246  0.4078
  181MOL0     C24319   0.204   2.614   4.814 -0.5524  0.0538  0.5616
  181MOL0     C24320   0.158   2.735   4.740  0.0472  0.2947 -0.0869
  181MOL0     C24321   0.187   2.862   4.823 -0.4692  0.2646 -0.5677
  181MOL0     C24322   0.118   2.985   4.770 -0.6423 -0.7029  0.3485
  181MOL0     C24323   0.172   3.036   4.635 -0.0459  0.8346  0.1995
  181MOL0     O24324   0.319   3.030   4.630 -0.7043  0.2029  0.2471
  181MOL0     C24325   0.386   3.027   4.508  0.4692  0.3511  0.4269
  181MOL0     C24326   0.428   3.148   4.451 -0.1141 -0.2967  0.4348
  181MOL0     C24327   0.501   3.159   4.335  0.4706  0.7864  0.2731
  181MOL0     C24328   0.538   3.037   4.269  0.3508  0.5205  0.2967
  181MOL0     C24329   0.624   3.031   4.144 -0.6671 -0.1686 -0.5461
  181MOL0     O24330   0.663   2.902   4.097 -0.6389 -0.1732  0.7969
  181MOL0     C24331   0.719   2.897   3.967  0.3854 -0.2034 -0.5589
  181MOL0     C24332   0.680   2.987   3.861 -1.0145  0.6658  0.1260
  181MOL0     C24333   0.748   2.975   3.738  0.3335  0.2344 -0.0581
  181MOL0     C24334   0.841   2.874   3.712 -0.5085  0.4270 -0.0928
  181MOL0     O24335   0.890   2.879   3.588 -0.8798  0.5893 -0.0939
  181MOL0     C24336   1.033   2.850   3.571 -0.1015  0.2377 -0.0481
  181MOL0     C24337   1.078   2.926   3.451 -0.1405 -0.1515  0.2199
  181MOL0     C24338   1.079   3.074   3.465 -0.4772 -0.0046  0.7091
  181MOL0     C24339   0.951   3.150   3.410  0.0365  0.9241  0.0625
  181MOL0     C24340   0.978   3.295   3.396 -0.2946 -0.3698 -0.6564
  181MOL0     C24341   0.873   3.381   3.331 -0.4265 -0.1094  1.3179
  181MOL0     C24342   0.909   3.526   3.297  0.1918 -0.2825  0.0781
  181MOL0     C24343   1.011   3.540   3.179  0.5717  0.0675 -0.0567
  181MOL0    Cl24344   1.010   3.698   3.105 -0.4820  0.1556  0.1285
  181MOL0     C24345   0.874   2.796   3.815  0.0336 -0.1959 -0.1100
  181MOL0     C24346   0.806   2.793   3.936 -0.7570 -0.6914  0.5467
  181MOL0     O24347   0.665   3.137   4.102 -0.9433 -0.0658 -0.4362
  181MOL0     C24348   0.490   2.925   4.319  0.4723  0.7594 -0.1555
  181MOL0     C24349   0.417   2.912   4.440  0.0755 -0.2252 -0.0675
  181MOL0     N24350   0.127   2.549   4.918 -0.6622 -0.2905  0.0031
  181MOL0     N24351   0.203   2.456   4.977  0.3198  1.3080 -0.5158
  181MOL0     C24352   1.161   2.442   4.462 -0.3160  0.5380 -0.0180
  181MOL0     C24353   1.212   2.513   4.353 -0.5916  0.0335 -0.8328
  181MOL0     C24354   1.208   2.683   3.905 -0.0971 -0.9228 -0.0261
  181MOL0     C24355   1.271   2.805   3.945  0.3275 -0.0053 -0.4067
  181MOL0     C24356   1.356   2.883   3.866  0.1968  0.2236  0.9372
  181MOL0     C24357   1.370   2.839   3.730  0.7415 -0.0478  0.0109
  181MOL0     O24358   1.436   2.912   3.641 -0.2650  0.9388 -0.1059
  181MOL0     C24359   1.550   2.980   3.674  0.4983  0.0467 -1.1408
  181MOL0     C24360   1.604   3.083   3.562  0.1960  0.2292 -0.5686
  181MOL0     C24361   1.678   3.009   3.453  0.5822 -0.1691  0.3574
  181MOL0     C24362   1.691   3.111   3.334  1.2116 -0.5596  0.1705
  181MOL0     C24363   1.769   3.069   3.212  0.7120 -0.3441 -1.6405
  181MOL0     C24364   1.834   3.043   3.117  0.3974 -0.5208 -0.1874
  181MOL0     C24365   1.301   2.724   3.680 -0.5007  0.2273 -0.7832
  181MOL0     C24366   1.232   2.637   3.769 -0.8366 -0.5142  0.6438
  181MOL0     C24367   1.190   2.507   3.717 -1.0253  0.4418  0.0015
  181MOL0     H24368   0.917   2.607   4.205  3.5154  4.2534 -0.9626
  181MOL0     H24369   0.826   2.471   4.388  0.4498  1.2479 -0.1548
  181MOL0     H24370   1.102   2.194   4.575  2.5214  0.2309  1.4340
  181MOL0     H24371   1.110   2.321   4.713  1.1356  0.8974 -1.1539
  181MOL0     H24372   1.032   2.084   4.748  3.3382  2.2297 -1.9300
  181MOL0     H24373   0.881   2.131   4.669  1.0792  1.7245 -0.8205
  181MOL0     H24374   0.945   2.316   4.889 -0.0231  0.8120 -1.9047
  181MOL0     H24375   0.960   2.149   4.943 -0.6878  0.1228  0.2225
  181MOL0     H24376   0.744   2.089   4.856  0.7467  0.8467 -0.5415
  181MOL0     H24377   0.738   2.206   4.978  1.5790 -3.7833  1.8878
  181MOL0     H24378   0.711   2.392   4.816  1.4068  0.5317  0.5639
  181MOL0     H24379   0.731   2.285   4.678 -0.3571  1.8577 -0.1414
  181MOL0     H24380   0.489   2.301   4.693 -2.0367 -0.7196  0.4429
  181MOL0     H24381   0.547   2.144   4.745  3.4715 -0.5691  3.3772
  181MOL0     H24382   0.509   2.188   4.980 -1.3932 -2.0695 -0.1131
  181MOL0     H24383   0.362   2.214   4.886  0.7104  1.5056 -0.9018
  181MOL0     H24384   0.447   2.412   5.065  0.3659  1.7819 -0.3969
  181MOL0     H24385   0.538   2.454   4.928 -0.2932 -1.8975 -2.4230
  181MOL0     H24386   0.410   2.612   4.748  0.0493 -0.3211 -0.5778
  181MOL0     H24387   0.207   2.725   4.643  2.3528 -1.0655  1.1140
  181MOL0     H24388   0.050   2.716   4.738 -0.5761  3.4822 -1.4830
  181MOL0     H24389   0.147   2.837   4.922  1.6735 -0.2227  0.2464
  181MOL0     H24390   0.295   2.871   4.839 -0.3709 -0.6918 -0.6456
  181MOL0     H24391   0.132   3.063   4.845  1.4030  2.1070 -2.6987
  181MOL0     H24392   0.012   2.964   4.752 -0.3733 -0.2241 -2.1901
  181MOL0     H24393   0.128   3.136   4.637  0.4810  1.0581  0.7616
  181MOL0     H24394   0.120   2.988   4.551 -0.9239  2.9059 -0.5059
  181MOL0     H24395   0.400   3.242   4.497 -2.6692  0.1285 -1.7420
  181MOL0     H24396   0.522   3.260   4.301  3.7093  0.9635  2.2746
  181MOL0     H24397   0.601   3.059   3.878 -2.5568 -1.0032  0.2929
  181MOL0     H24398   0.715   3.036   3.654 -0.1648  0.4866  0.3131
  181MOL0     H24399   1.088   2.894   3.655 -2.0882  1.1669  0.8466
  181MOL0     H24400   1.045   2.744   3.545  1.1372  0.5337 -0.7776
  181MOL0     H24401   1.176   2.883   3.428  0.6026  1.5977 -0.0743
  181MOL0     H24402   1.017   2.905   3.362 -3.3296  2.0610  1.6979
  181MOL0     H24403   1.094   3.103   3.569  1.4986 -1.0367  0.7552
  181MOL0     H24404   1.164   3.110   3.406  0.9523 -1.3679  1.8728
  181MOL0     H24405   0.879   3.130   3.489  2.3893 -1.7580  1.7355
  181MOL0     H24406   0.922   3.105   3.315  0.7687  0.7609 -0.0959
  181MOL0     H24407   1.073   3.294   3.342  0.2680 -1.6016  0.2979
  181MOL0     H24408   0.984   3.338   3.497 -0.1833  1.1935 -1.2961
  181MOL0     H24409   0.821   3.335   3.246  0.9070  0.4618  0.1473
  181MOL0     H24410   0.802   3.393   3.412  0.1449  2.0907  1.5453
  181MOL0     H24411   0.933   3.591   3.381 -0.7703  0.6139 -0.3076
  181MOL0     H24412   0.817   3.571   3.258 -0.4617 -0.4084  1.4116
  181MOL0     H24413   1.115   3.510   3.196  0.4524 -0.6760 -0.5718
  181MOL0     H24414   0.977   3.469   3.103  1.6536 -0.6903  0.1373
  181MOL0     H24415   0.935   2.710   3.789 -0.9316 -2.0633  3.2563
  181MOL0     H24416   0.810   2.704   3.998  3.4379 -1.7448 -0.8941
  181MOL0     H24417   0.483   2.830   4.268 -1.4935  0.3866  0.7323
  181MOL0     H24418   0.374   2.818   4.473 -0.7880  0.4915  0.9252
  181MOL0     H24419   1.228   2.406   4.538  0.9169  0.8822 -0.9167
  181MOL0     H24420   1.318   2.527   4.336  0.0879 -1.9962  1.2217
  181MOL0     H24421   1.255   2.842   4.046 -4.2835  0.3142 -1.0490
  181MOL0     H24422   1.396   2.977   3.903  1.9911  0.0606 -0.4885
  181MOL0     H24423   1.632   2.910   3.693 -0.4905 -0.4116  1.8738
  181MOL0     H24424   1.537   3.044   3.762  0.0138 -1.2021 -0.2766
  181MOL0     H24425   1.675   3.147   3.615 -1.5694  0.8534  1.1783
  181MOL0     H24426   1.516   3.145   3.545  0.1127  0.6203  1.1157
  181MOL0     H24427   1.618   2.922   3.424  2.3890 -1.3594  0.0726
  181MOL0     H24428   1.775   2.974   3.488 -0.0160 -2.1637  0.1210
  181MOL0     H24429   1.591   3.131   3.294  1.3584  1.8468  0.8224
  181MOL0     H24430   1.723   3.214   3.352  1.5156 -0.4691 -0.8208
  181MOL0     H24431   1.904   3.023   3.039  0.2729 -0.6251 -0.2715
  181MOL0     H24432   1.305   2.708   3.573 -1.0073 -1.1086 -0.6135
  181MOL0     H24433   1.233   2.484   3.619 -0.2419  0.6023  0.3044
  181MOL0     H24434   1.200   2.425   3.790 -2.2291 -0.2107 -0.5324
  181MOL0     H24435   1.081   2.508   3.710 -1.1372  0.9418  1.4218
  182MOL0     O24436   9.388  10.903   7.251 -0.2304 -0.7890  0.0178
  182MOL0     C24437   9.487  10.894   7.316 -0.2171  0.5603 -1.0064
  182MOL0     O24438   9.612  10.886   7.263  0.3845  0.3523 -0.6374
  182MOL0     C24439   9.654  10.983   7.182 -0.5475 -0.4488  0.6828
  182MOL0     C24440   9.769  10.952   7.101 -0.0356 -0.2905  0.7555
  182MOL0     C24441   9.834  11.047   7.014  1.1078  0.4279 -1.1220
  182MOL0     C24442   9.792  11.176   7.027 -0.1817 -0.0150 -0.2907
  182MOL0     O24443   9.852  11.271   6.946  0.5679  0.1556 -0.2703
  182MOL0     C24444   9.868  11.405   6.999  0.2192  0.2644  0.5575
  182MOL0     C24445   9.961  11.472   6.885  0.1658 -0.5616 -0.4112
  182MOL0     C24446  10.027  11.605   6.944 -0.3218  0.3468 -0.4389
  182MOL0     C24447  10.164  11.634   6.883 -0.5501 -0.6320 -0.0852
  182MOL0     C24448  10.169  11.619   6.734 -0.3498  0.4423 -0.2727
  182MOL0     C24449  10.306  11.673   6.676 -0.2259  0.3214 -0.5622
  182MOL0     C24450  10.299  11.669   6.524 -0.7862 -0.0409  0.8615
  182MOL0     C24451  10.409  11.753   6.457 -0.1389 -0.0131  0.4052
  182MOL0     N24452  10.546  11.713   6.490  0.8337 -0.0806  0.0766
  182MOL0     C24453  10.647  11.803   6.508  0.9491 -0.2672 -0.5129
  182MOL0     C24454  10.754  11.726   6.541 -0.7038 -0.0440  0.5179
  182MOL0     C24455  10.892  11.769   6.575 -0.1659  0.1845  0.3381
  182MOL0     C24456  10.903  11.760   6.729 -0.3179 -0.0271  0.2568
  182MOL0     C24457  11.040  11.807   6.779  0.3205 -0.4579 -0.7355
  182MOL0     C24458  11.054  11.836   6.923  0.5292 -0.4816  0.5224
  182MOL0     O24459  10.968  11.939   6.974  0.2085  1.0895  0.8836
  182MOL0     C24460  11.025  12.053   7.016 -0.0829 -0.0309  0.1623
  182MOL0     C24461  11.138  12.106   6.958  0.1591 -0.9768 -0.4118
  182MOL0     C24462  11.188  12.233   6.991 -0.6374 -0.0723  0.6311
  182MOL0     C24463  11.133  12.302   7.102 -0.4412 -0.0001 -0.4300
  182MOL0     C24464  11.187  12.431   7.150 -0.3969  0.6172 -0.5756
  182MOL0     O24465  11.127  12.480   7.259  0.1237 -0.2002  0.0969
  182MOL0     C24466  11.192  12.578   7.327  0.1703  0.1261 -0.8478
  182MOL0     C24467  11.219  12.705   7.264 -0.2540  0.2368  0.0497
  182MOL0     C24468  11.311  12.788   7.341  1.4157 -0.4098 -0.2743
  182MOL0     C24469  11.364  12.752   7.465 -0.2886 -1.0599 -0.0860
  182MOL0     O24470  11.441  12.828   7.547  0.0945 -1.1794  0.2923
  182MOL0     C24471  11.501  12.950   7.494  0.5329 -0.0501  0.6324
  182MOL0     C24472  11.599  12.948   7.369  0.1799 -0.2940 -0.5712
  182MOL0     C24473  11.642  13.084   7.311  0.0769  0.6544  0.4507
  182MOL0     C24474  11.713  13.167   7.408  0.2630  0.6278  0.5663
  182MOL0     C24475  11.750  13.299   7.350  0.3448 -0.1816 -0.7564
  182MOL0     C24476  11.862  13.364   7.434 -0.5182 -0.1025  0.5160
  182MOL0     C24477  11.918  13.491   7.376 -0.2909  0.4748 -0.3088
  182MOL0     C24478  11.993  13.555   7.481 -0.8352 -0.2147 -0.5713
  182MOL0    Cl24479  12.096  13.678   7.401  0.0932 -0.1573  0.1511
  182MOL0     C24480  11.319  12.633   7.514  0.3649  0.4140 -0.1466
  182MOL0     C24481  11.240  12.547   7.449  0.9111 -0.1365 -0.0011
  182MOL0     O24482  11.303  12.453   7.112 -0.2718  0.6717  0.0412
  182MOL0     C24483  11.017  12.243   7.165  0.5784 -0.0529  0.6908
  182MOL0     C24484  10.966  12.120   7.119 -1.3254 -0.4926  0.0378
  182MOL0     N24485  10.712  11.600   6.549  0.0047  0.5806 -0.4591
  182MOL0     N24486  10.585  11.591   6.523  0.7188 -0.0353 -0.0694
  182MOL0     C24487   9.681  11.210   7.112 -0.4223  0.1421 -0.0697
  182MOL0     C24488   9.615  11.115   7.190 -0.3746 -0.1897  0.5356
  182MOL0     C24489   9.479  10.893   7.464  0.4479  0.2268  0.0334
  182MOL0     C24490   9.526  10.783   7.539  0.8941 -0.1170  0.5597
  182MOL0     C24491   9.514  10.774   7.680  0.7855  0.0560 -0.5196
  182MOL0     C24492   9.450  10.879   7.750  0.2735 -0.0386 -0.5399
  182MOL0     O24493   9.426  10.858   7.888 -0.3154  0.4470  0.3832
  182MOL0     C24494   9.434  10.981   7.969 -0.1425 -0.8364  0.0521
  182MOL0     C24495   9.503  10.945   8.094  0.3842 -0.5380 -0.0398
  182MOL0     C24496   9.649  10.914   8.088  0.2541 -0.2194  0.0841
  182MOL0     C24497   9.727  11.019   8.165 -0.8186  0.1427  0.3348
  182MOL0     C24498   9.731  11.150   8.105  0.2642 -1.3898  0.2451
  182MOL0     C24499   9.745  11.264   8.062  0.9065  0.3114  0.1072
  182MOL0     C24500   9.406  10.986   7.677  0.6024  0.0177  0.1340
  182MOL0     C24501   9.405  10.994   7.537 -0.2572  1.6709 -1.3538
  182MOL0     C24502   9.340  11.117   7.475  0.3669 -0.5963 -0.4337
  182MOL0     H24503   9.789  10.849   7.074 -1.7460 -0.4123 -0.1913
  182MOL0     H24504   9.912  11.042   6.938  0.2031  2.2713 -2.2333
  182MOL0     H24505   9.776  11.465   7.005  1.0151  1.4965  0.9204
  182MOL0     H24506   9.923  11.407   7.094  1.2676 -3.4382  0.1522
  182MOL0     H24507   9.903  11.499   6.797 -0.1100 -0.9345 -0.3498
  182MOL0     H24508  10.038  11.398   6.864 -0.4546 -1.5851  0.7595
  182MOL0     H24509  10.041  11.604   7.052 -0.2553 -0.6488 -0.4447
  182MOL0     H24510   9.957  11.685   6.917  1.2799  2.1272  0.4764
  182MOL0     H24511  10.197  11.734   6.915  0.4449 -1.2167  0.7773
  182MOL0     H24512  10.224  11.568   6.946  1.5464  1.6770  0.5197
  182MOL0     H24513  10.156  11.514   6.706 -0.7708  0.1115  1.1004
  182MOL0     H24514  10.092  11.674   6.677 -0.9413 -1.0303 -0.9343
  182MOL0     H24515  10.320  11.779   6.699 -0.7420  0.6648 -1.8048
  182MOL0     H24516  10.393  11.616   6.710 -0.0775 -0.9682 -2.9119
  182MOL0     H24517  10.199  11.692   6.485 -0.6068 -4.1139 -2.6936
  182MOL0     H24518  10.310  11.564   6.497 -1.7307 -0.9296  3.5915
  182MOL0     H24519  10.390  11.749   6.349  0.3438  0.2845  0.3086
  182MOL0     H24520  10.396  11.857   6.488 -1.2717  0.4758 -1.5020
  182MOL0     H24521  10.652  11.911   6.509  1.1381 -0.2557  1.1003
  182MOL0     H24522  10.961  11.699   6.528 -1.1288 -0.3656 -0.2664
  182MOL0     H24523  10.902  11.873   6.543  0.4433  0.9609  2.7662
  182MOL0     H24524  10.821  11.814   6.777  1.2857  1.2223  1.7270
  182MOL0     H24525  10.888  11.657   6.764 -0.6233  0.2473  0.9685
  182MOL0     H24526  11.084  11.890   6.722  4.3544  0.2466  2.8868
  182MOL0     H24527  11.116  11.730   6.764 -0.6437 -1.3636 -1.0777
  182MOL0     H24528  11.158  11.865   6.936  0.2876  0.4792  0.3723
  182MOL0     H24529  11.040  11.744   6.982  1.3809 -1.3131 -0.5269
  182MOL0     H24530  11.189  12.062   6.873  1.1056  0.1527 -0.4532
  182MOL0     H24531  11.271  12.265   6.929 -1.3816 -1.9841 -1.4838
  182MOL0     H24532  11.170  12.738   7.172  0.1513 -0.4206 -0.4043
  182MOL0     H24533  11.330  12.892   7.317 -0.1787  0.5088  2.0819
  182MOL0     H24534  11.414  13.011   7.468  1.5061  1.6027  1.0652
  182MOL0     H24535  11.551  13.000   7.578  0.7396  0.5891  0.1382
  182MOL0     H24536  11.699  12.907   7.389  1.4470  2.6299 -0.5042
  182MOL0     H24537  11.552  12.890   7.289  0.3849  0.6617 -1.4047
  182MOL0     H24538  11.705  13.065   7.224 -0.6373  1.3739 -0.2374
  182MOL0     H24539  11.545  13.125   7.282 -0.3689 -0.6035  0.0967
  182MOL0     H24540  11.803  13.115   7.442  1.1944  1.8023 -0.0098
  182MOL0     H24541  11.643  13.191   7.489 -1.1169  2.0117 -0.9451
  182MOL0     H24542  11.665  13.368   7.354 -0.4883 -1.2333  0.4967
  182MOL0     H24543  11.787  13.287   7.248  0.7702 -0.4325 -0.5736
  182MOL0     H24544  11.843  13.364   7.542 -0.5978 -1.7983  0.5239
  182MOL0     H24545  11.943  13.291   7.421  0.7900  1.3123  0.3771
  182MOL0     H24546  11.848  13.558   7.325 -0.1900  0.2271 -0.7854
  182MOL0     H24547  11.980  13.460   7.291 -0.8195  0.5557 -0.7292
  182MOL0     H24548  11.922  13.614   7.540 -1.3059  3.2773 -4.2097
  182MOL0     H24549  12.046  13.480   7.541  0.9123  0.4963 -1.1660
  182MOL0     H24550  11.339  12.629   7.620  0.0521  1.7587 -0.0067
  182MOL0     H24551  11.217  12.447   7.483  3.1030 -1.2394 -1.4838
  182MOL0     H24552  10.973  12.296   7.249 -0.2688  2.7063 -1.3750
  182MOL0     H24553  10.882  12.074   7.169 -1.3064  1.6868  2.2506
  182MOL0     H24554   9.639  11.310   7.113 -0.1762  0.2500 -0.2498
  182MOL0     H24555   9.534  11.155   7.251 -0.0065 -0.5127  1.2492
  182MOL0     H24556   9.581  10.695   7.505 -2.8416 -2.4368 -0.1211
  182MOL0     H24557   9.549  10.689   7.738  0.9920 -0.0503 -0.8010
  182MOL0     H24558   9.331  11.011   7.990 -0.0653 -0.9437  0.5954
  182MOL0     H24559   9.494  11.053   7.912 -0.7655  0.5161  1.0826
  182MOL0     H24560   9.448  10.856   8.123  1.3639 -1.4594 -0.9093
  182MOL0     H24561   9.483  11.036   8.151  0.1862  0.1509 -1.1615
  182MOL0     H24562   9.666  10.918   7.980 -1.6962 -3.3346 -0.4746
  182MOL0     H24563   9.679  10.819   8.134  2.8519 -0.2511 -1.4740
  182MOL0     H24564   9.691  11.027   8.268 -1.4373 -0.3383  0.1654
  182MOL0     H24565   9.829  10.982   8.179 -0.0495  2.0784  0.0764
  182MOL0     H24566   9.778  11.362   8.035 -0.2536  0.3892 -1.1807
  182MOL0     H24567   9.364  11.064   7.740  0.1040  0.9140 -1.2770
  182MOL0     H24568   9.260  11.084   7.407  0.1459 -0.4074 -0.2677
  182MOL0     H24569   9.288  11.182   7.546 -0.8178 -1.2592 -0.6554
  182MOL0     H24570   9.413  11.181   7.425  0.6380  0.2277  0.9822
  183MOL0     O24571   6.646   3.739   0.841 -0.0881  0.3210  0.3983
  183MOL0     C24572   6.579   3.675   0.767  0.4520  0.5160  0.3181
  183MOL0     O24573   6.469   3.731   0.701 -0.2109 -0.7538 -0.4713
  183MOL0     C24574   6.419   3.851   0.750 -0.2532  0.3706  0.6287
  183MOL0     C24575   6.413   3.883   0.889 -0.5496  0.0062 -0.0561
  183MOL0     C24576   6.360   4.011   0.925 -0.2648 -0.5917  0.6025
  183MOL0     C24577   6.309   4.100   0.821  0.3700 -0.0507 -1.1412
  183MOL0     O24578   6.257   4.226   0.847 -0.2489  0.0214 -0.0898
  183MOL0     C24579   6.229   4.278   0.976 -0.8331 -0.5542  0.8728
  183MOL0     C24580   6.197   4.428   0.976  0.3173 -0.6700  0.2457
  183MOL0     C24581   6.323   4.496   0.938 -1.3874  0.7617 -0.0153
  183MOL0     C24582   6.314   4.654   0.950  0.4580 -0.1865 -0.0254
  183MOL0     C24583   6.433   4.719   0.880 -0.2509 -0.1314  0.2991
  183MOL0     C24584   6.405   4.758   0.738  0.1331  0.8572 -0.5022
  183MOL0     C24585   6.534   4.831   0.676 -0.3268 -0.1899  0.1545
  183MOL0     C24586   6.521   4.856   0.526  0.3070  0.1122 -0.1750
  183MOL0     N24587   6.639   4.929   0.482 -0.4814  0.1639 -0.0287
  183MOL0     C24588   6.759   4.876   0.451 -0.4605 -0.2293  0.7261
  183MOL0     C24589   6.847   4.974   0.413  1.0423 -0.8416 -0.5835
  183MOL0     C24590   6.993   4.959   0.383  0.2727 -0.2415  0.0902
  183MOL0     C24591   7.025   4.869   0.270  1.2445  0.2987 -0.2915
  183MOL0     C24592   7.158   4.792   0.287 -0.0079 -0.0783  0.2811
  183MOL0     C24593   7.288   4.867   0.323  0.0130 -0.3459  0.3604
  183MOL0     O24594   7.310   4.974   0.231 -0.5396 -0.5713 -0.2522
  183MOL0     C24595   7.429   5.041   0.234  0.6479  0.0821  0.0952
  183MOL0     C24596   7.536   5.028   0.320 -0.6883 -0.2374 -1.1022
  183MOL0     C24597   7.645   5.118   0.320  0.4126 -0.0972  0.2962
  183MOL0     C24598   7.650   5.234   0.240  1.0364 -0.4240 -1.1406
  183MOL0     C24599   7.763   5.324   0.250 -0.1100 -0.5407  0.9407
  183MOL0     O24600   7.850   5.300   0.349 -0.2003 -0.0074  0.2378
  183MOL0     C24601   7.982   5.323   0.328  0.2600 -0.1270  0.4579
  183MOL0     C24602   8.056   5.315   0.442 -0.1238 -0.1995 -0.3611
  183MOL0     C24603   8.195   5.344   0.433  0.1328  0.7595  0.1253
  183MOL0     C24604   8.257   5.366   0.308  1.0418 -0.8576 -0.1352
  183MOL0     O24605   8.391   5.380   0.276  0.6512  0.3291  0.3186
  183MOL0     C24606   8.487   5.420   0.372 -0.2298  0.5315 -0.5791
  183MOL0     C24607   8.615   5.377   0.311  0.8037 -1.1165 -1.1691
  183MOL0     C24608   8.734   5.420   0.420 -0.2007 -0.2161  0.3250
  183MOL0     C24609   8.869   5.349   0.380 -0.2192 -0.2857  0.2003
  183MOL0     C24610   8.996   5.407   0.435 -0.0666  0.2028  0.2382
  183MOL0     C24611   9.129   5.389   0.363 -0.0226 -0.6287 -0.4680
  183MOL0     C24612   9.168   5.240   0.346 -1.5389 -0.3144  0.8582
  183MOL0     C24613   9.312   5.226   0.275  0.3109  0.7179 -0.5905
  183MOL0    Cl24614   9.430   5.365   0.293 -0.5337 -0.2179  0.0566
  183MOL0     C24615   8.176   5.374   0.204  0.0832 -0.4470  0.3878
  183MOL0     C24616   8.044   5.341   0.202  0.7561  0.2474  0.4857
  183MOL0     O24617   7.776   5.410   0.161 -0.0811  0.0372 -0.7943
  183MOL0     C24618   7.543   5.245   0.148 -0.5402 -0.5931 -0.2347
  183MOL0     C24619   7.435   5.149   0.142 -0.4134  0.5448 -0.6252
  183MOL0     N24620   6.773   5.091   0.425 -0.4341  0.2592 -0.4208
  183MOL0     N24621   6.649   5.059   0.450 -0.6971 -0.0666 -0.1079
  183MOL0     C24622   6.303   4.059   0.691 -0.7411  1.0315 -0.4794
  183MOL0     C24623   6.367   3.935   0.655  0.3622 -0.1437  0.0398
  183MOL0     C24624   6.598   3.535   0.734 -0.6992  0.5404  0.0098
  183MOL0     C24625   6.528   3.470   0.624 -0.1757 -0.9941 -0.4308
  183MOL0     C24626   6.531   3.334   0.603 -0.6793 -0.2772  0.0827
  183MOL0     C24627   6.604   3.250   0.685 -0.2714  0.6596 -0.6390
  183MOL0     O24628   6.601   3.118   0.644  0.5380 -0.6082  0.0883
  183MOL0     C24629   6.702   3.023   0.703  0.5517 -0.4339  0.1178
  183MOL0     C24630   6.636   2.970   0.823 -0.1416  1.1089 -0.9794
  183MOL0     C24631   6.698   2.821   0.866 -0.0181 -0.4178  0.5675
  183MOL0     C24632   6.842   2.829   0.885 -0.3625  0.0400 -0.3918
  183MOL0     C24633   6.889   2.940   0.970  0.1688 -0.5561 -0.5665
  183MOL0     C24634   6.950   3.038   1.029 -0.7619 -0.1297  0.5995
  183MOL0     C24635   6.678   3.305   0.794 -0.2521 -0.5043 -0.1761
  183MOL0     C24636   6.673   3.444   0.810 -0.7436  0.5315 -0.0043
  183MOL0     C24637   6.753   3.484   0.939  1.0283  0.2705  0.5400
  183MOL0     H24638   6.444   3.813   0.966 -0.0303  0.4241  0.1173
  183MOL0     H24639   6.340   4.044   1.026 -2.8861  1.0135 -0.3584
  183MOL0     H24640   6.146   4.220   1.019  0.6341 -1.1374  3.0677
  183MOL0     H24641   6.321   4.262   1.032  0.9297  0.0766 -1.6681
  183MOL0     H24642   6.152   4.460   1.071 -0.9049  0.8736 -0.7982
  183MOL0     H24643   6.126   4.447   0.895  2.4220 -1.8034 -1.9708
  183MOL0     H24644   6.355   4.470   0.836  1.2863  2.8229  0.1730
  183MOL0     H24645   6.408   4.463   0.998 -0.0222 -0.4960 -2.4880
  183MOL0     H24646   6.213   4.688   0.923  0.5901  2.3275  2.2814
  183MOL0     H24647   6.306   4.673   1.057 -2.0506  0.7208 -0.3081
  183MOL0     H24648   6.454   4.812   0.933  3.5603 -1.3369  1.1964
  183MOL0     H24649   6.524   4.658   0.882  0.3248  0.5987 -1.4258
  183MOL0     H24650   6.375   4.669   0.682 -3.5004  2.5267 -1.4897
  183MOL0     H24651   6.316   4.821   0.732 -0.8853 -0.6840 -2.3717
  183MOL0     H24652   6.622   4.770   0.700  0.8349  1.7437  1.0444
  183MOL0     H24653   6.549   4.927   0.726  1.6227  2.3475 -4.5793
  183MOL0     H24654   6.509   4.763   0.470 -0.7210 -0.6526  1.2560
  183MOL0     H24655   6.432   4.916   0.509  0.4156  0.9574  1.8918
  183MOL0     H24656   6.775   4.768   0.450 -0.9372 -0.3216 -0.8325
  183MOL0     H24657   7.041   5.056   0.373 -2.6121  1.1309 -1.8698
  183MOL0     H24658   7.031   4.902   0.469 -2.1700 -1.8589  0.2200
  183MOL0     H24659   6.945   4.796   0.279  0.8616  0.6476 -0.8160
  183MOL0     H24660   7.026   4.914   0.170  0.2375  0.6486 -0.1555
  183MOL0     H24661   7.177   4.724   0.203 -0.4046 -1.4323  1.2693
  183MOL0     H24662   7.148   4.721   0.369 -0.1367  1.0370  1.2503
  183MOL0     H24663   7.368   4.792   0.316  0.1994 -0.0561 -0.8614
  183MOL0     H24664   7.280   4.908   0.424 -2.5134 -1.4632  0.6672
  183MOL0     H24665   7.541   4.946   0.392 -0.7666 -0.5835 -1.4847
  183MOL0     H24666   7.721   5.090   0.393  0.1716  1.5307  1.2105
  183MOL0     H24667   8.018   5.301   0.543  0.5535  2.2657  0.2978
  183MOL0     H24668   8.260   5.332   0.520 -0.4278 -0.3258  0.4052
  183MOL0     H24669   8.494   5.528   0.387  4.1655  0.1877  1.4445
  183MOL0     H24670   8.476   5.362   0.465  1.4071  1.9196  0.5352
  183MOL0     H24671   8.609   5.269   0.301 -1.1705 -0.8705 -3.7106
  183MOL0     H24672   8.627   5.439   0.221  1.5536 -0.8442 -0.8936
  183MOL0     H24673   8.762   5.525   0.424  2.4767 -0.8567  0.6181
  183MOL0     H24674   8.711   5.390   0.523 -1.6924 -0.1848  0.0173
  183MOL0     H24675   8.854   5.355   0.272  1.3114 -0.7443 -0.0556
  183MOL0     H24676   8.869   5.243   0.408  2.5547 -0.9175 -1.7740
  183MOL0     H24677   9.000   5.351   0.529  1.6604  0.4536  0.3502
  183MOL0     H24678   8.974   5.511   0.462 -0.3161 -0.2780  2.0680
  183MOL0     H24679   9.126   5.437   0.265  4.6111  0.3404 -0.3946
  183MOL0     H24680   9.198   5.439   0.432 -0.7256 -0.0566 -0.1658
  183MOL0     H24681   9.088   5.188   0.292 -2.4821  2.0605 -0.1609
  183MOL0     H24682   9.182   5.200   0.447 -1.1008 -0.2419  0.8269
  183MOL0     H24683   9.363   5.138   0.314 -1.4280 -0.5487 -1.0589
  183MOL0     H24684   9.295   5.213   0.168  1.7825 -3.7151 -0.4779
  183MOL0     H24685   8.215   5.388   0.103  2.3405  0.7388  1.3529
  183MOL0     H24686   7.990   5.340   0.108  1.8752 -0.2303 -0.1726
  183MOL0     H24687   7.546   5.326   0.076  0.7112 -0.4174 -0.0075
  183MOL0     H24688   7.354   5.165   0.071  0.1155 -3.8069 -2.5044
  183MOL0     H24689   6.253   4.120   0.616 -2.7697  1.9136  1.4705
  183MOL0     H24690   6.372   3.901   0.552  0.8001  1.2053 -0.4113
  183MOL0     H24691   6.484   3.515   0.535 -1.3937  1.5650  1.3428
  183MOL0     H24692   6.467   3.285   0.531 -1.0636 -1.2897  1.0867
  183MOL0     H24693   6.790   3.081   0.730  0.5454  0.2955 -1.3364
  183MOL0     H24694   6.740   2.949   0.632  1.0543  2.8936 -3.3840
  183MOL0     H24695   6.531   2.967   0.790  0.6737 -3.8662 -4.1014
  183MOL0     H24696   6.645   3.048   0.899  1.4944  1.3706 -1.3997
  183MOL0     H24697   6.679   2.748   0.787  0.4470 -1.3871  1.3276
  183MOL0     H24698   6.643   2.779   0.951 -2.1104 -2.3018 -1.5529
  183MOL0     H24699   6.871   2.737   0.938 -0.6251 -1.0097 -1.9907
  183MOL0     H24700   6.891   2.824   0.787 -2.4073 -0.9999 -1.4497
  183MOL0     H24701   7.002   3.123   1.069  0.9573 -0.2525 -1.1959
  183MOL0     H24702   6.730   3.234   0.857  1.8765 -1.8226 -3.1475
  183MOL0     H24703   6.827   3.409   0.970  0.7678 -0.4257 -0.4832
  183MOL0     H24704   6.815   3.571   0.913  0.7691  0.9428  2.0396
  183MOL0     H24705   6.683   3.518   1.015  0.0910  0.8589 -0.5610
  184MOL0     O24706   4.054   5.495   1.196 -0.2421 -0.1803  0.4747
  184MOL0     C24707   3.981   5.587   1.155 -0.5818  0.0806 -0.4436
  184MOL0     O24708   4.019   5.709   1.116  0.0623  0.1501  0.2570
  184MOL0     C24709   4.147   5.751   1.141 -0.1189  0.4727  0.5689
  184MOL0     C24710   4.221   5.782   1.030 -0.4753 -0.7837 -0.5818
  184MOL0     C24711   4.349   5.832   1.030  0.4657 -0.1868 -0.1073
  184MOL0     C24712   4.407   5.845   1.150  0.4568  0.0260 -0.6206
  184MOL0     O24713   4.525   5.921   1.144  0.1936 -0.7144 -0.6837
  184MOL0     C24714   4.623   5.898   1.249  0.0715  0.4271  0.2078
  184MOL0     C24715   4.673   5.747   1.248  0.0580  0.3988 -0.1118
  184MOL0     C24716   4.732   5.717   1.110 -0.2235  0.4868 -0.7809
  184MOL0     C24717   4.825   5.598   1.135  0.0747 -0.0606 -0.4666
  184MOL0     C24718   4.744   5.461   1.167  0.1730  1.0325 -0.5680
  184MOL0     C24719   4.640   5.432   1.060  0.1072  0.4057  0.8339
  184MOL0     C24720   4.595   5.283   1.047  0.1510  0.0219  0.4491
  184MOL0     C24721   4.457   5.261   1.099  0.1108  0.1749 -0.1597
  184MOL0     N24722   4.449   5.304   1.240  0.6282  0.1456 -0.3942
  184MOL0     C24723   4.381   5.409   1.296  0.0253 -0.6960  0.1361
  184MOL0     C24724   4.397   5.386   1.426 -0.2962  0.9541 -0.5662
  184MOL0     C24725   4.328   5.459   1.537  0.5034  0.9814  0.4599
  184MOL0     C24726   4.425   5.556   1.599  0.6372  0.1269  0.2476
  184MOL0     C24727   4.365   5.624   1.721  0.5286 -0.0587 -0.0942
  184MOL0     C24728   4.431   5.752   1.752 -0.2698  0.2586 -0.3741
  184MOL0     O24729   4.386   5.811   1.871 -0.7449 -0.1316  0.2848
  184MOL0     C24730   4.304   5.920   1.861  0.4561  0.1153  0.3122
  184MOL0     C24731   4.231   5.948   1.749 -0.0519  0.7005  0.7321
  184MOL0     C24732   4.146   6.046   1.738  1.0186 -0.4599 -0.0486
  184MOL0     C24733   4.135   6.141   1.840 -0.9925  0.2768  0.9796
  184MOL0     C24734   4.058   6.267   1.823  0.0360  0.6810  0.1343
  184MOL0     O24735   4.001   6.296   1.699 -0.2645  0.3576 -0.0303
  184MOL0     C24736   3.972   6.428   1.679  0.0394  0.2200 -0.3911
  184MOL0     C24737   3.841   6.467   1.669  0.1863 -0.5139 -0.8471
  184MOL0     C24738   3.801   6.609   1.662  0.2067  0.3456 -0.1697
  184MOL0     C24739   3.909   6.705   1.658  0.1316  0.3336 -0.1801
  184MOL0     O24740   3.879   6.842   1.664  0.1167 -0.3931  0.5895
  184MOL0     C24741   3.781   6.895   1.580 -0.0929  0.1324  0.3835
  184MOL0     C24742   3.834   7.002   1.485 -0.1592 -1.2817 -0.5649
  184MOL0     C24743   3.882   7.131   1.564 -0.5627  0.2197  0.2558
  184MOL0     C24744   3.761   7.207   1.619 -0.5570  0.1658  0.2676
  184MOL0     C24745   3.801   7.347   1.665  0.3827 -0.0664  0.0105
  184MOL0     C24746   3.672   7.429   1.715 -0.4663  0.0596 -0.3932
  184MOL0     C24747   3.709   7.577   1.726 -0.1053  0.1524  0.0982
  184MOL0     C24748   3.578   7.661   1.744 -0.0225 -0.2958 -0.7116
  184MOL0    Cl24749   3.545   7.650   1.916 -0.3892  0.2016 -0.3554
  184MOL0     C24750   4.036   6.661   1.656 -0.0686 -0.0177 -0.6399
  184MOL0     C24751   4.075   6.528   1.678 -0.6011  0.2185 -0.4988
  184MOL0     O24752   4.047   6.339   1.922  0.2305 -0.7831  0.3792
  184MOL0     C24753   4.206   6.111   1.956  0.1219 -0.6344  0.6113
  184MOL0     C24754   4.289   6.001   1.970  0.2839 -0.0957  0.3403
  184MOL0     N24755   4.489   5.281   1.448 -0.4687  1.0680 -0.0254
  184MOL0     N24756   4.524   5.243   1.335 -0.2308 -0.2608  0.7821
  184MOL0     C24757   4.329   5.825   1.272  0.0168 -0.9295  0.1855
  184MOL0     C24758   4.202   5.771   1.266 -0.4124  0.1520  0.3014
  184MOL0     C24759   3.837   5.549   1.121  0.6466 -0.0200  0.3793
  184MOL0     C24760   3.774   5.459   1.206  0.2004  0.5381  0.1106
  184MOL0     C24761   3.642   5.415   1.172  0.4764 -1.3020 -0.0464
  184MOL0     C24762   3.568   5.467   1.063 -0.2557  0.8200 -0.6540
  184MOL0     O24763   3.443   5.428   1.025  0.0436  0.2159  0.0181
  184MOL0     C24764   3.377   5.316   1.086 -0.4322 -0.1146  0.9276
  184MOL0     C24765   3.287   5.251   0.986 -0.9803  0.6204  1.0759
  184MOL0     C24766   3.178   5.345   0.931 -0.0688 -0.3622 -0.2828
  184MOL0     C24767   3.076   5.282   0.837  1.2862  0.3454 -0.0631
  184MOL0     C24768   3.145   5.242   0.714 -0.1599 -0.4118  0.1382
  184MOL0     C24769   3.212   5.215   0.616 -0.3303  0.3364  0.6060
  184MOL0     C24770   3.637   5.551   0.976 -0.4112  0.8303 -0.0672
  184MOL0     C24771   3.770   5.591   0.998  0.1053 -0.4026 -0.4325
  184MOL0     C24772   3.842   5.666   0.896 -0.7654 -0.3006  1.2781
  184MOL0     H24773   4.181   5.751   0.934 -1.8520 -1.6066  0.2116
  184MOL0     H24774   4.403   5.851   0.937  1.0930 -1.5197 -0.0327
  184MOL0     H24775   4.715   5.946   1.215  1.6183 -1.2693  1.7812
  184MOL0     H24776   4.599   5.947   1.344 -4.0219  0.6567 -0.7215
  184MOL0     H24777   4.587   5.679   1.255 -0.4114  1.0165  0.1799
  184MOL0     H24778   4.742   5.725   1.330 -0.4931 -2.6204 -0.3279
  184MOL0     H24779   4.785   5.800   1.060 -3.2571  3.1065  0.0223
  184MOL0     H24780   4.654   5.698   1.036 -0.8341 -2.3158  0.4691
  184MOL0     H24781   4.882   5.574   1.045  0.9037 -0.2205  0.0911
  184MOL0     H24782   4.897   5.616   1.215  0.8420 -0.3841 -1.0630
  184MOL0     H24783   4.815   5.377   1.171  0.3569  1.1469 -1.2547
  184MOL0     H24784   4.692   5.469   1.263 -0.0776  0.0138 -0.6033
  184MOL0     H24785   4.559   5.503   1.074 -2.7587 -2.5960  0.7996
  184MOL0     H24786   4.678   5.463   0.962  0.5077 -2.5747 -0.0744
  184MOL0     H24787   4.661   5.218   1.105 -3.8282 -1.0403  4.2881
  184MOL0     H24788   4.608   5.250   0.944  2.1470 -0.8445  0.9358
  184MOL0     H24789   4.379   5.308   1.038 -0.1098  1.2972  0.9464
  184MOL0     H24790   4.428   5.156   1.103  0.4966  0.0402 -0.7191
  184MOL0     H24791   4.330   5.492   1.249  2.8998  0.4390 -1.2175
  184MOL0     H24792   4.245   5.509   1.486 -1.2107  0.5476  2.6795
  184MOL0     H24793   4.281   5.389   1.606 -0.6934  1.5323  0.2167
  184MOL0     H24794   4.524   5.514   1.619  0.5757 -0.0402  0.2044
  184MOL0     H24795   4.435   5.627   1.517  1.1960 -2.5911 -2.1979
  184MOL0     H24796   4.370   5.562   1.811 -1.7800  0.9869  0.8432
  184MOL0     H24797   4.259   5.644   1.702  0.6675  0.8275  0.0252
  184MOL0     H24798   4.425   5.823   1.669 -2.4104  0.0716 -0.4273
  184MOL0     H24799   4.536   5.737   1.779 -0.4648 -1.9219 -0.6682
  184MOL0     H24800   4.234   5.881   1.664  1.3045 -0.3705  1.5787
  184MOL0     H24801   4.071   6.046   1.660 -0.1293  1.0366  0.9845
  184MOL0     H24802   3.760   6.395   1.673  0.2680 -0.6341 -1.2788
  184MOL0     H24803   3.697   6.638   1.666 -0.4201 -1.6576 -0.5367
  184MOL0     H24804   3.742   6.820   1.511  1.3525 -3.2807  2.9851
  184MOL0     H24805   3.699   6.939   1.638 -0.7195  0.6459 -0.8546
  184MOL0     H24806   3.913   6.978   1.414  0.5777 -2.0728  0.5024
  184MOL0     H24807   3.758   7.038   1.414 -0.6520  0.8384  0.9341
  184MOL0     H24808   3.935   7.087   1.649 -0.6202  0.6307  0.5018
  184MOL0     H24809   3.950   7.200   1.512 -1.1156  0.9465  0.4875
  184MOL0     H24810   3.713   7.150   1.699  0.3885  1.5091  1.8558
  184MOL0     H24811   3.689   7.212   1.537  0.7642 -2.3645 -1.1968
  184MOL0     H24812   3.853   7.400   1.585  2.2415  0.2790  1.3984
  184MOL0     H24813   3.869   7.353   1.750 -0.4583  1.3851  0.6271
  184MOL0     H24814   3.597   7.414   1.638 -0.9660 -3.4258  0.5986
  184MOL0     H24815   3.642   7.386   1.811 -1.5927  0.8867 -0.3579
  184MOL0     H24816   3.738   7.607   1.626  0.4499 -0.7775 -0.0344
  184MOL0     H24817   3.781   7.589   1.808 -0.3132 -3.0991  0.9036
  184MOL0     H24818   3.598   7.766   1.717  2.2341 -1.1256 -2.6516
  184MOL0     H24819   3.488   7.621   1.697  0.3399 -3.2704  0.9187
  184MOL0     H24820   4.121   6.729   1.648  0.9150 -0.8227  1.9073
  184MOL0     H24821   4.178   6.501   1.694 -0.7431  0.0549  0.1855
  184MOL0     H24822   4.187   6.181   2.036 -0.7659  1.7532 -1.5465
  184MOL0     H24823   4.346   5.977   2.059  0.4105  0.1607  0.3267
  184MOL0     H24824   4.368   5.862   1.366 -1.1006  0.6720  0.0573
  184MOL0     H24825   4.144   5.744   1.354  1.2994 -3.4411  0.5407
  184MOL0     H24826   3.831   5.434   1.295 -1.4933 -0.9898  0.8358
  184MOL0     H24827   3.590   5.344   1.235  0.5560 -0.8030  0.5894
  184MOL0     H24828   3.325   5.348   1.177 -2.0034  3.5632 -1.0585
  184MOL0     H24829   3.445   5.234   1.108 -0.9780 -0.6676  0.5587
  184MOL0     H24830   3.234   5.168   1.033 -1.5843  0.1738 -0.3278
  184MOL0     H24831   3.350   5.205   0.909 -1.9313  1.0498  0.0054
  184MOL0     H24832   3.212   5.432   0.874 -2.4400  1.1129  0.4074
  184MOL0     H24833   3.124   5.374   1.021  0.6332 -3.7139  1.3977
  184MOL0     H24834   3.020   5.195   0.872  1.3603  0.7473  1.1117
  184MOL0     H24835   2.995   5.347   0.802 -1.3098 -2.0790  1.0429
  184MOL0     H24836   3.268   5.197   0.527  0.6217 -0.8185  1.4090
  184MOL0     H24837   3.590   5.589   0.886 -0.7870  0.8585  0.1379
  184MOL0     H24838   3.772   5.656   0.812  0.1578 -1.1633  0.6029
  184MOL0     H24839   3.859   5.773   0.912 -1.9866  0.1620 -0.2490
  184MOL0     H24840   3.934   5.620   0.862 -1.5270 -0.8051 -0.2132
  185MOL0     O24841   4.959   6.688   9.418  0.8249  0.1499  0.0982
  185MOL0     C24842   4.896   6.603   9.475  0.6646  0.9467  0.4514
  185MOL0     O24843   4.861   6.598   9.606  0.0262  0.1526 -0.2612
  185MOL0     C24844   4.865   6.714   9.676  1.0731 -0.0154 -0.5633
  185MOL0     C24845   4.824   6.841   9.621  0.6559  1.4067  0.5249
  185MOL0     C24846   4.834   6.958   9.700  0.8782  0.3824 -0.3896
  185MOL0     C24847   4.870   6.949   9.836 -0.0111 -0.0707 -0.3955
  185MOL0     O24848   4.868   7.048   9.929 -0.1749  0.2977  0.3717
  185MOL0     C24849   4.838   7.179   9.894 -0.5066  0.0997  0.2885
  185MOL0     C24850   4.729   7.218   9.981 -0.0605 -0.3673  0.7552
  185MOL0     C24851   4.750   7.172  10.132  0.0464  0.1061  0.3707
  185MOL0     C24852   4.672   7.253  10.235 -1.0677  0.0767  0.0810
  185MOL0     C24853   4.525   7.259  10.203  0.6765 -0.0858 -0.1069
  185MOL0     C24854   4.454   7.116  10.207  0.0573  0.2248  0.2192
  185MOL0     C24855   4.307   7.139  10.199  0.6214  0.0894 -0.6885
  185MOL0     C24856   4.254   7.225  10.083  1.0040 -1.0092  0.4884
  185MOL0     N24857   4.317   7.185   9.956  0.1848  0.0128 -0.5774
  185MOL0     C24858   4.389   7.274   9.873  0.3735  0.0642 -0.0715
  185MOL0     C24859   4.421   7.203   9.765  1.7420 -0.1380 -0.4362
  185MOL0     C24860   4.489   7.236   9.638 -0.2957  0.5734 -0.5038
  185MOL0     C24861   4.403   7.255   9.509 -1.0580  0.0477  0.1887
  185MOL0     C24862   4.486   7.284   9.378  0.4245  0.5377  0.6313
  185MOL0     C24863   4.408   7.227   9.254 -0.5690  0.0636  0.0322
  185MOL0     O24864   4.274   7.263   9.253  0.8707 -0.5574 -0.1672
  185MOL0     C24865   4.186   7.195   9.168  0.5985 -0.1237  0.1064
  185MOL0     C24866   4.129   7.080   9.216  0.6588 -0.1782 -1.1836
  185MOL0     C24867   4.048   7.001   9.134  0.3065 -0.5101  0.1434
  185MOL0     C24868   4.018   7.035   8.998 -0.9682 -0.2850 -0.5321
  185MOL0     C24869   3.927   6.956   8.913  0.2405 -0.5125 -0.4484
  185MOL0     O24870   3.896   7.021   8.802  0.9691  0.2307  0.1418
  185MOL0     C24871   3.779   6.978   8.742  0.6220 -0.5658 -0.4031
  185MOL0     C24872   3.779   6.886   8.632  0.0611 -0.7876 -0.9642
  185MOL0     C24873   3.662   6.850   8.571  0.0751 -0.1388 -0.3127
  185MOL0     C24874   3.536   6.903   8.608  0.1066 -0.1269 -0.5525
  185MOL0     O24875   3.419   6.866   8.546  0.2082  0.0275 -0.3202
  185MOL0     C24876   3.332   6.816   8.645 -0.0060 -0.1401  0.0216
  185MOL0     C24877   3.239   6.726   8.569  0.7177  0.3758 -1.3457
  185MOL0     C24878   3.125   6.822   8.508  0.5575  0.1947  0.3497
  185MOL0     C24879   2.999   6.743   8.457  0.5598  0.1595  0.1346
  185MOL0     C24880   2.885   6.839   8.411  0.1246  1.6659  0.1846
  185MOL0     C24881   2.780   6.785   8.312  0.3101  0.4108  0.2098
  185MOL0     C24882   2.677   6.885   8.266  0.8047  0.0894  0.4452
  185MOL0     C24883   2.552   6.884   8.352 -0.3346  0.0866 -0.3428
  185MOL0    Cl24884   2.427   6.978   8.279  0.1409 -0.2844  0.5094
  185MOL0     C24885   3.543   7.010   8.704 -0.4727  0.5185 -0.1997
  185MOL0     C24886   3.660   7.027   8.787  0.0863  0.6404 -0.3688
  185MOL0     O24887   3.887   6.845   8.949 -0.2725 -0.6024  0.4153
  185MOL0     C24888   4.074   7.158   8.958 -0.2466 -0.0033 -0.6824
  185MOL0     C24889   4.154   7.238   9.042  0.0947  0.1356  0.1166
  185MOL0     N24890   4.375   7.073   9.781  0.7416  0.1821  0.9165
  185MOL0     N24891   4.313   7.070   9.889  0.9099  0.5924 -0.2928
  185MOL0     C24892   4.916   6.830   9.885  0.1733  0.2609 -0.7271
  185MOL0     C24893   4.918   6.718   9.806 -0.0724  0.8410 -0.0899
  185MOL0     C24894   4.856   6.489   9.397 -0.2985 -1.5045  0.7869
  185MOL0     C24895   4.842   6.371   9.459  0.4974  0.9846 -0.5284
  185MOL0     C24896   4.802   6.261   9.387  0.8338  0.6170 -0.1319
  185MOL0     C24897   4.769   6.251   9.251  0.4812  0.3028 -0.2522
  185MOL0     O24898   4.740   6.120   9.203 -0.0720 -0.2745  0.4870
  185MOL0     C24899   4.717   6.110   9.060 -0.0154 -0.0340 -0.1380
  185MOL0     C24900   4.696   5.969   9.020 -0.1451  0.0912 -0.4173
  185MOL0     C24901   4.586   5.895   9.094  0.5230  0.2064  0.4361
  185MOL0     C24902   4.529   5.779   9.009 -0.0232  0.0063 -1.2321
  185MOL0     C24903   4.421   5.810   8.914 -0.4306 -0.0595 -0.3246
  185MOL0     C24904   4.323   5.837   8.848 -0.1188  0.5412 -0.0649
  185MOL0     C24905   4.767   6.377   9.193 -0.1552 -0.0276  0.0260
  185MOL0     C24906   4.809   6.500   9.260 -0.1209  0.2481 -0.1461
  185MOL0     C24907   4.802   6.629   9.187 -0.8591 -0.9622  0.5864
  185MOL0     H24908   4.774   6.850   9.525 -1.2510  1.6587  1.5051
  185MOL0     H24909   4.802   7.047   9.648  1.8824  1.4797  0.7689
  185MOL0     H24910   4.923   7.244   9.915 -0.1612 -0.4106  0.4976
  185MOL0     H24911   4.811   7.210   9.793 -1.0811  3.8176  1.4509
  185MOL0     H24912   4.635   7.178   9.943 -0.7184 -1.7409  3.5098
  185MOL0     H24913   4.717   7.326   9.987  1.8823 -0.1493  1.6088
  185MOL0     H24914   4.856   7.180  10.156  0.4046  2.2794 -1.5290
  185MOL0     H24915   4.723   7.067  10.144  0.4402 -0.1539 -0.9116
  185MOL0     H24916   4.680   7.214  10.337  2.9450 -1.2395 -0.5464
  185MOL0     H24917   4.717   7.353  10.245 -2.2015  0.8918 -2.2846
  185MOL0     H24918   4.470   7.318  10.278 -3.3660  0.4638 -3.1692
  185MOL0     H24919   4.512   7.319  10.113 -1.6049 -2.8947 -1.8095
  185MOL0     H24920   4.486   7.056  10.121 -4.5019  1.6590 -2.8221
  185MOL0     H24921   4.466   7.058  10.299  1.0392  0.3068  0.1595
  185MOL0     H24922   4.272   7.178  10.295  2.3111 -0.1572  0.0497
  185MOL0     H24923   4.251   7.045  10.190 -0.2328  0.3161  1.6548
  185MOL0     H24924   4.145   7.233  10.084  0.9974  4.1020 -3.1119
  185MOL0     H24925   4.280   7.329  10.105  3.6873 -1.1483 -1.5083
  185MOL0     H24926   4.424   7.376   9.888 -0.8099  0.2039  2.0644
  185MOL0     H24927   4.543   7.328   9.659 -0.1125  0.1042  1.2616
  185MOL0     H24928   4.562   7.156   9.618  1.3670  2.1253 -0.9116
  185MOL0     H24929   4.346   7.162   9.512 -4.0797  1.7643  1.3796
  185MOL0     H24930   4.333   7.339   9.524 -1.2423  0.3542 -2.0620
  185MOL0     H24931   4.582   7.231   9.382 -0.2572 -0.7149  0.9424
  185MOL0     H24932   4.505   7.391   9.375 -0.0380  0.6050 -0.4266
  185MOL0     H24933   4.414   7.117   9.256 -5.3306 -0.3721  1.2405
  185MOL0     H24934   4.450   7.262   9.160 -1.2173  1.6223  0.2952
  185MOL0     H24935   4.142   7.041   9.316 -2.3335  2.2267  0.3061
  185MOL0     H24936   4.009   6.917   9.191 -0.7335  0.9490  1.6836
  185MOL0     H24937   3.878   6.856   8.600  1.4808  2.8633 -0.4548
  185MOL0     H24938   3.666   6.788   8.481 -3.2740  1.3464 -1.6803
  185MOL0     H24939   3.389   6.749   8.710  2.1469  2.1088  0.5807
  185MOL0     H24940   3.276   6.892   8.700 -2.4351 -0.9671 -1.1432
  185MOL0     H24941   3.292   6.676   8.488  0.7088 -0.3332 -0.9194
  185MOL0     H24942   3.192   6.651   8.633 -0.8538  2.4900  0.1241
  185MOL0     H24943   3.094   6.885   8.591  1.1839 -0.3227  0.9972
  185MOL0     H24944   3.170   6.890   8.435 -1.3834  2.3295  1.0623
  185MOL0     H24945   2.963   6.686   8.543  1.9673 -1.7835 -0.4985
  185MOL0     H24946   3.024   6.677   8.374  0.0937 -2.8779  2.2774
  185MOL0     H24947   2.938   6.918   8.357  0.3535  0.8515 -0.8296
  185MOL0     H24948   2.843   6.877   8.504  4.3287  2.2491  2.0835
  185MOL0     H24949   2.832   6.733   8.231  1.6756  0.5491  0.9604
  185MOL0     H24950   2.728   6.710   8.373  2.1613  1.1695  2.8927
  185MOL0     H24951   2.663   6.858   8.161  3.0147 -2.4177  0.6939
  185MOL0     H24952   2.720   6.985   8.258  0.4134  0.2492  0.3590
  185MOL0     H24953   2.511   6.787   8.380  0.9958 -0.2731  0.4644
  185MOL0     H24954   2.575   6.925   8.451  2.3207 -2.9317  0.4841
  185MOL0     H24955   3.452   7.065   8.728  0.3239  2.0692 -0.5963
  185MOL0     H24956   3.665   7.094   8.872  1.4122 -1.7122  1.5515
  185MOL0     H24957   4.052   7.187   8.855  1.1295 -0.5269 -1.1507
  185MOL0     H24958   4.180   7.340   9.014 -3.4160  0.5242 -2.4463
  185MOL0     H24959   4.955   6.833   9.986  1.7448 -3.5005 -1.0473
  185MOL0     H24960   4.959   6.630   9.853 -2.6692 -0.5963 -0.3475
  185MOL0     H24961   4.865   6.360   9.564 -0.9896  2.2303 -0.0484
  185MOL0     H24962   4.797   6.164   9.434 -1.8662  0.2639 -0.9604
  185MOL0     H24963   4.799   6.150   8.999  1.0831  0.7389  1.7673
  185MOL0     H24964   4.622   6.160   9.038  1.0771  2.1185 -0.2530
  185MOL0     H24965   4.782   5.904   9.033  0.9463  0.9288 -2.7828
  185MOL0     H24966   4.676   5.968   8.912 -2.4897  4.0220 -0.2402
  185MOL0     H24967   4.509   5.962   9.135 -0.2639 -2.2051  3.2137
  185MOL0     H24968   4.624   5.851   9.187 -2.3681  0.0631  1.6643
  185MOL0     H24969   4.615   5.732   8.961  1.3806  1.7097 -0.4962
  185MOL0     H24970   4.480   5.708   9.076 -0.1256 -1.0071 -2.3318
  185MOL0     H24971   4.235   5.859   8.790 -0.8188 -1.7994  0.0130
  185MOL0     H24972   4.735   6.388   9.090 -0.2142  0.9589  0.1386
  185MOL0     H24973   4.760   6.614   9.087  1.1378  2.3012 -0.8875
  185MOL0     H24974   4.751   6.703   9.249  2.0143  0.1315  1.7761
  185MOL0     H24975   4.901   6.662   9.157 -0.6201 -1.0456  1.2763
  186MOL0     O24976   5.307   7.644  10.068  0.3165  0.6620  0.9956
  186MOL0     C24977   5.225   7.561  10.108  0.5909 -0.1216 -0.1378
  186MOL0     O24978   5.134   7.502  10.028  0.4962  0.0151 -1.0515
  186MOL0     C24979   5.126   7.515   9.890 -0.2876 -0.1300  0.8477
  186MOL0     C24980   5.242   7.516   9.809  0.1495  0.2728  0.1199
  186MOL0     C24981   5.241   7.541   9.669 -0.0639  1.3758 -1.1014
  186MOL0     C24982   5.122   7.577   9.613  0.3130  0.8598  0.3584
  186MOL0     O24983   5.109   7.613   9.478  0.3820 -0.7053 -0.1065
  186MOL0     C24984   5.229   7.620   9.404  0.0982 -0.1105  0.3983
  186MOL0     C24985   5.231   7.685   9.271 -0.1061  0.4312 -0.0547
  186MOL0     C24986   5.191   7.835   9.277 -0.3348 -0.3570  0.7148
  186MOL0     C24987   5.210   7.896   9.131  0.6861 -0.4226 -0.2890
  186MOL0     C24988   5.184   8.051   9.127 -0.4081  0.1773  0.9669
  186MOL0     C24989   5.267   8.126   9.226 -0.1889  0.4679  0.0762
  186MOL0     C24990   5.248   8.274   9.199 -0.0675  0.7579 -0.3154
  186MOL0     C24991   5.259   8.339   9.334  0.6331  0.6640 -0.1671
  186MOL0     N24992   5.257   8.484   9.302  0.1070 -0.4824 -0.4504
  186MOL0     C24993   5.361   8.554   9.246 -0.7620  1.1219  0.1159
  186MOL0     C24994   5.311   8.675   9.256 -0.2359  0.3197  0.2798
  186MOL0     C24995   5.369   8.790   9.175 -0.3328 -0.4212  0.2108
  186MOL0     C24996   5.502   8.859   9.217  0.5526 -0.2913 -0.5450
  186MOL0     C24997   5.627   8.784   9.172 -0.4035 -0.1721  0.4718
  186MOL0     C24998   5.742   8.850   9.227 -0.3893  0.8160  0.5326
  186MOL0     O24999   5.861   8.770   9.199  0.5986  0.3349  0.3728
  186MOL0     C25000   5.966   8.806   9.257 -0.7073 -0.2366 -0.1410
  186MOL0     C25001   6.037   8.707   9.316  0.3213  0.5494 -0.8186
  186MOL0     C25002   6.174   8.727   9.344  0.2257  0.7832 -0.1765
  186MOL0     C25003   6.237   8.849   9.314  0.1413 -0.4659 -0.7195
  186MOL0     C25004   6.380   8.875   9.352  0.2586 -0.0422  0.1050
  186MOL0     O25005   6.411   9.001   9.390 -0.5263  0.1385  0.2705
  186MOL0     C25006   6.531   9.027   9.446  0.0706 -0.4624 -0.1997
  186MOL0     C25007   6.658   9.009   9.374  0.2500  0.0356  0.6784
  186MOL0     C25008   6.776   9.059   9.428 -0.0639 -0.1341  0.7872
  186MOL0     C25009   6.773   9.125   9.556  0.4425  0.0886  0.4681
  186MOL0     O25010   6.888   9.172   9.613  0.4509 -0.5750  0.2732
  186MOL0     C25011   6.966   9.257   9.518  0.1465  0.8513  0.4184
  186MOL0     C25012   7.115   9.196   9.502  0.4600 -1.1059  0.4051
  186MOL0     C25013   7.196   9.267   9.396 -0.3776 -0.8559 -0.1741
  186MOL0     C25014   7.236   9.406   9.451 -0.4044  0.2126  0.0261
  186MOL0     C25015   7.387   9.450   9.420  0.2611  0.0400 -0.1568
  186MOL0     C25016   7.419   9.458   9.273 -0.2874  0.4364 -0.1385
  186MOL0     C25017   7.557   9.512   9.246 -0.4585  0.4310 -0.2848
  186MOL0     C25018   7.685   9.461   9.326  0.1739  0.1253 -0.0016
  186MOL0    Cl25019   7.840   9.540   9.257 -0.4422 -0.1641  0.0117
  186MOL0     C25020   6.652   9.128   9.624  0.3747 -0.1902  0.5632
  186MOL0     C25021   6.531   9.082   9.571  0.2867 -0.2922 -0.0183
  186MOL0     O25022   6.445   8.779   9.363 -0.4041  0.2988 -0.1893
  186MOL0     C25023   6.155   8.953   9.271  0.7022 -0.0978 -0.3528
  186MOL0     C25024   6.025   8.929   9.236  0.5417  0.1320  0.4610
  186MOL0     N25025   5.192   8.678   9.328 -0.1991  0.9018  0.2142
  186MOL0     N25026   5.166   8.561   9.363  0.3029  0.1053  0.6230
  186MOL0     C25027   5.009   7.559   9.687 -0.4264  0.0451 -1.1475
  186MOL0     C25028   5.006   7.519   9.821  0.2114 -0.6655 -0.4031
  186MOL0     C25029   5.226   7.550  10.261  0.9961 -0.4178 -0.3585
  186MOL0     C25030   5.310   7.635  10.334  0.3471  0.3569  1.6763
  186MOL0     C25031   5.325   7.604  10.469 -0.1209 -0.6227  0.4030
  186MOL0     C25032   5.250   7.513  10.537  0.1313  0.6770  0.0523
  186MOL0     O25033   5.278   7.515  10.674  0.0605  0.2803  0.5352
  186MOL0     C25034   5.192   7.437  10.756 -1.3302 -1.2644  0.0307
  186MOL0     C25035   5.215   7.489  10.905 -0.4126  0.3061  0.1591
  186MOL0     C25036   5.169   7.631  10.938 -0.7312  0.4279 -0.4133
  186MOL0     C25037   5.291   7.737  10.930  0.2117  0.8822  0.4191
  186MOL0     C25038   5.253   7.862  10.995 -0.3606  0.4709  1.1265
  186MOL0     C25039   5.214   7.963  11.054  0.1964  0.3231 -0.5985
  186MOL0     C25040   5.165   7.429  10.469 -0.9547 -0.2206  0.2787
  186MOL0     C25041   5.147   7.455  10.335  0.0442 -1.3926 -0.6470
  186MOL0     C25042   5.051   7.358  10.256 -0.2725  0.9484 -0.2280
  186MOL0     H25043   5.336   7.498   9.859 -1.9407 -2.2395  3.5692
  186MOL0     H25044   5.342   7.531   9.630 -0.2590 -4.0429 -0.9486
  186MOL0     H25045   5.285   7.678   9.479 -1.4022 -1.1662  2.4356
  186MOL0     H25046   5.278   7.523   9.396  1.4956  0.2150  3.2769
  186MOL0     H25047   5.154   7.635   9.212  0.1522 -0.6521  0.4941
  186MOL0     H25048   5.327   7.674   9.222  0.5559 -0.1501  1.3144
  186MOL0     H25049   5.269   7.881   9.338  0.5570 -0.5905 -0.2109
  186MOL0     H25050   5.094   7.848   9.327 -0.4917  0.7419  0.1590
  186MOL0     H25051   5.316   7.877   9.114  0.4002 -2.1991 -0.3267
  186MOL0     H25052   5.143   7.843   9.062  1.8966 -0.9281 -1.0976
  186MOL0     H25053   5.205   8.084   9.024 -1.1929 -1.8632  0.0922
  186MOL0     H25054   5.080   8.075   9.148  0.0643  1.4941  1.8996
  186MOL0     H25055   5.255   8.103   9.332 -0.1117  0.5857  0.1116
  186MOL0     H25056   5.368   8.088   9.209 -1.2576 -3.0178  0.8278
  186MOL0     H25057   5.148   8.286   9.156 -0.2389  0.2656 -0.0663
  186MOL0     H25058   5.330   8.303   9.133  2.7699 -1.5995  1.8494
  186MOL0     H25059   5.173   8.306   9.393  3.1645 -0.0956  3.4131
  186MOL0     H25060   5.351   8.303   9.380  1.1636 -0.0210 -1.7146
  186MOL0     H25061   5.449   8.513   9.198 -0.1175  1.9663  0.5454
  186MOL0     H25062   5.374   8.745   9.075 -2.1118 -1.2893  0.4730
  186MOL0     H25063   5.300   8.874   9.169  2.3717  1.8865 -0.7103
  186MOL0     H25064   5.519   8.954   9.166  0.7236  0.0942  0.2104
  186MOL0     H25065   5.505   8.870   9.326  0.3193  1.8013 -0.7124
  186MOL0     H25066   5.646   8.778   9.065 -0.4205 -1.5791  0.5328
  186MOL0     H25067   5.625   8.683   9.214 -0.1943  0.6880  2.6960
  186MOL0     H25068   5.732   8.841   9.336 -0.4238 -0.8318  0.4204
  186MOL0     H25069   5.763   8.954   9.198  3.9851 -0.6400 -2.6911
  186MOL0     H25070   5.997   8.608   9.337  1.5712  0.2743  0.3756
  186MOL0     H25071   6.228   8.641   9.383 -0.0467  0.6483 -0.0929
  186MOL0     H25072   6.663   8.954   9.280  0.9577  1.6628 -0.2748
  186MOL0     H25073   6.871   9.042   9.378 -1.1126  0.1740 -1.4210
  186MOL0     H25074   6.919   9.262   9.420 -0.8443 -1.5076  0.7329
  186MOL0     H25075   6.980   9.359   9.557  1.8135  0.7350  0.1962
  186MOL0     H25076   7.167   9.207   9.597 -0.2458  0.0950  0.6817
  186MOL0     H25077   7.104   9.092   9.472 -2.3267 -0.3297 -1.8028
  186MOL0     H25078   7.287   9.209   9.379 -1.4666 -2.8919  0.5478
  186MOL0     H25079   7.140   9.267   9.303 -1.1641 -1.3638  0.2878
  186MOL0     H25080   7.222   9.399   9.559 -3.6414 -3.8198 -0.3864
  186MOL0     H25081   7.164   9.478   9.410  0.7072  1.6685  0.5817
  186MOL0     H25082   7.464   9.384   9.462  0.2208 -0.9786 -1.6178
  186MOL0     H25083   7.401   9.547   9.469  1.5480  0.9853 -2.2958
  186MOL0     H25084   7.402   9.360   9.227 -3.6703  1.2935 -0.9902
  186MOL0     H25085   7.356   9.534   9.226  0.4849  1.2020  0.0531
  186MOL0     H25086   7.556   9.621   9.257  0.9178  0.2398  2.6476
  186MOL0     H25087   7.589   9.501   9.142 -0.2877  1.8719 -0.4135
  186MOL0     H25088   7.673   9.475   9.434  0.9635  2.9915 -0.1975
  186MOL0     H25089   7.690   9.355   9.300  2.3392 -0.5525  2.7366
  186MOL0     H25090   6.637   9.185   9.715 -1.8456 -0.5867  0.4850
  186MOL0     H25091   6.444   9.085   9.636  0.5692  1.5514  0.3421
  186MOL0     H25092   6.194   9.054   9.258  2.2098 -0.3135  1.8306
  186MOL0     H25093   5.974   9.019   9.203  3.3232  2.1808  1.3532
  186MOL0     H25094   4.915   7.572   9.634  1.0959  0.4480 -3.9435
  186MOL0     H25095   4.908   7.501   9.864 -0.4063  1.3853 -0.7943
  186MOL0     H25096   5.370   7.712  10.286 -0.3305 -0.2862 -0.2952
  186MOL0     H25097   5.401   7.663  10.520  1.0925 -1.7525 -0.0641
  186MOL0     H25098   5.215   7.331  10.751  1.9802 -0.6864  0.4423
  186MOL0     H25099   5.085   7.449  10.735 -0.7869 -0.0171 -2.3425
  186MOL0     H25100   5.321   7.472  10.929  0.2086 -1.1839 -3.1754
  186MOL0     H25101   5.152   7.425  10.967  0.8171 -0.6609  0.4583
  186MOL0     H25102   5.124   7.630  11.038 -1.5733 -1.1205 -0.7739
  186MOL0     H25103   5.080   7.665  10.884 -1.2071  1.7903  1.1240
  186MOL0     H25104   5.384   7.699  10.973  0.0008  0.3196  0.3887
  186MOL0     H25105   5.313   7.751  10.824  1.0901 -0.7074  0.3655
  186MOL0     H25106   5.188   8.057  11.097  3.0806  0.8170  0.2608
  186MOL0     H25107   5.114   7.349  10.522 -0.4482  1.4539  3.5067
  186MOL0     H25108   5.111   7.298  10.186  3.4030  2.6457  1.2057
  186MOL0     H25109   5.000   7.278  10.311  0.3455  0.1330 -0.7997
  186MOL0     H25110   4.967   7.418  10.218 -0.6563  0.7595  0.3077
  187MOL0     O25111   1.413   6.400   5.409 -0.7351  0.0395  0.7946
  187MOL0     C25112   1.309   6.333   5.409  0.2701 -0.0448 -1.1550
  187MOL0     O25113   1.222   6.327   5.517 -1.0049  0.4078 -0.0841
  187MOL0     C25114   1.251   6.418   5.618  0.4027 -0.3673 -0.2518
  187MOL0     C25115   1.161   6.529   5.630 -0.6907 -0.2142 -0.3604
  187MOL0     C25116   1.165   6.612   5.750  0.1070  0.2325  0.1222
  187MOL0     C25117   1.275   6.588   5.837 -0.6391 -0.0386 -0.2373
  187MOL0     O25118   1.282   6.686   5.935  0.2325  0.1311 -0.0495
  187MOL0     C25119   1.392   6.673   6.026  0.1815  0.2759  0.1454
  187MOL0     C25120   1.394   6.800   6.118  0.4382 -0.2285  0.2282
  187MOL0     C25121   1.501   6.815   6.224 -0.4196 -1.1508  0.2914
  187MOL0     C25122   1.463   6.733   6.352 -0.2433  0.0553 -0.5116
  187MOL0     C25123   1.589   6.720   6.452  0.9260 -0.6666  0.0486
  187MOL0     C25124   1.546   6.624   6.571 -0.3363  0.1977  0.2548
  187MOL0     C25125   1.652   6.609   6.684  0.6508  0.2006  0.0570
  187MOL0     C25126   1.785   6.548   6.635  0.2504 -0.3769 -0.0533
  187MOL0     N25127   1.889   6.539   6.734  0.1414 -0.1193  0.0915
  187MOL0     C25128   1.891   6.603   6.857  0.0334 -1.3652  0.8454
  187MOL0     C25129   2.004   6.559   6.919 -0.0363 -0.2866  0.6431
  187MOL0     C25130   2.062   6.606   7.047 -0.0880  0.1604 -0.4747
  187MOL0     C25131   1.979   6.694   7.140  0.0205  0.0490 -0.3058
  187MOL0     C25132   2.051   6.701   7.273  0.5703  0.6893 -0.2387
  187MOL0     C25133   1.986   6.816   7.351  0.6947  1.2804  0.0888
  187MOL0     O25134   2.058   6.934   7.337 -0.4489 -0.2259 -0.1312
  187MOL0     C25135   2.033   7.042   7.406 -0.6342  0.2214 -0.5976
  187MOL0     C25136   1.934   7.138   7.366 -0.6262  1.0676  0.6150
  187MOL0     C25137   1.883   7.232   7.456  0.7944  0.3620 -0.5992
  187MOL0     C25138   1.944   7.244   7.580 -0.4987  0.0266  1.2139
  187MOL0     C25139   1.921   7.363   7.661  0.6222 -0.2835 -0.6794
  187MOL0     O25140   1.961   7.367   7.794 -0.0818  0.3123 -0.6955
  187MOL0     C25141   1.942   7.471   7.880  0.2367  0.5671  0.4276
  187MOL0     C25142   1.907   7.431   8.011 -0.6733  0.0572 -0.5732
  187MOL0     C25143   1.891   7.527   8.116 -0.2562 -0.3973  0.4609
  187MOL0     C25144   1.903   7.666   8.072  0.4224 -0.4645  0.3773
  187MOL0     O25145   1.893   7.770   8.148  1.1628  0.1142  0.0442
  187MOL0     C25146   1.851   7.745   8.284  0.4445  0.7289  0.5342
  187MOL0     C25147   1.828   7.889   8.342  0.0662  0.8236 -0.2781
  187MOL0     C25148   1.702   7.952   8.272 -0.2851  0.6572  0.6430
  187MOL0     C25149   1.673   8.090   8.322 -1.0409 -0.6029  0.0647
  187MOL0     C25150   1.583   8.176   8.228 -0.0164  0.4507 -0.5394
  187MOL0     C25151   1.449   8.113   8.219  0.1463 -0.2581  0.5082
  187MOL0     C25152   1.366   8.195   8.124 -0.6134  0.3316 -0.6219
  187MOL0     C25153   1.282   8.305   8.208 -0.4829 -0.3816  0.0489
  187MOL0    Cl25154   1.208   8.418   8.090 -0.5486 -0.1246  0.0068
  187MOL0     C25155   1.956   7.691   7.946  0.4818 -0.0674  1.1743
  187MOL0     C25156   1.960   7.603   7.840 -0.0665  0.7908  0.3367
  187MOL0     O25157   1.878   7.460   7.604 -0.8538  0.0556 -0.1773
  187MOL0     C25158   2.032   7.144   7.626  0.2351 -0.7645  0.4047
  187MOL0     C25159   2.081   7.055   7.534  0.0274  0.5751 -0.0392
  187MOL0     N25160   2.072   6.466   6.840 -0.4555  0.2471 -0.0325
  187MOL0     N25161   2.007   6.455   6.726 -0.2823 -0.1120 -0.6245
  187MOL0     C25162   1.362   6.481   5.821  0.0346 -0.5679  0.3698
  187MOL0     C25163   1.344   6.390   5.721  0.3617 -1.3144 -0.2971
  187MOL0     C25164   1.278   6.237   5.303 -0.0294  0.2976  0.9247
  187MOL0     C25165   1.211   6.119   5.334  0.7507 -0.0732  0.2472
  187MOL0     C25166   1.197   6.015   5.243  0.4280  0.4910 -0.6639
  187MOL0     C25167   1.271   6.025   5.118  0.9231  0.2369  0.5360
  187MOL0     O25168   1.271   5.939   5.015  0.0548 -0.8124  0.2266
  187MOL0     C25169   1.169   5.838   5.015 -0.3369  0.2001 -0.0126
  187MOL0     C25170   1.154   5.805   4.872  0.5795  0.1400  0.4037
  187MOL0     C25171   1.285   5.742   4.818 -0.4654  0.1371 -0.5100
  187MOL0     C25172   1.294   5.721   4.669  0.0491  0.1007  0.4915
  187MOL0     C25173   1.390   5.813   4.605 -0.8226  0.0640 -0.6938
  187MOL0     C25174   1.445   5.911   4.555 -0.7895 -0.4728 -0.9686
  187MOL0     C25175   1.330   6.149   5.082 -0.3424  0.6338 -0.3064
  187MOL0     C25176   1.338   6.253   5.174 -0.2610  0.5041 -0.1314
  187MOL0     C25177   1.390   6.386   5.128 -0.6734  0.7450 -0.5485
  187MOL0     H25178   1.076   6.546   5.565 -0.5432  1.0660 -0.2480
  187MOL0     H25179   1.102   6.695   5.778  2.7193  2.8244 -1.0856
  187MOL0     H25180   1.379   6.586   6.091  1.5119 -0.9590 -1.1402
  187MOL0     H25181   1.491   6.693   5.982  0.1239  3.7466  1.2955
  187MOL0     H25182   1.297   6.799   6.169  0.6141 -1.9719  0.5941
  187MOL0     H25183   1.398   6.894   6.063 -0.5015  1.2021  2.4625
  187MOL0     H25184   1.506   6.921   6.247  0.0522 -0.7230 -1.5798
  187MOL0     H25185   1.605   6.793   6.197  0.0579  0.8962  0.3335
  187MOL0     H25186   1.393   6.792   6.411  1.7674  1.0368  1.0391
  187MOL0     H25187   1.414   6.639   6.327  0.9588 -0.0425 -2.7817
  187MOL0     H25188   1.674   6.687   6.392  2.1923  0.3887  1.2093
  187MOL0     H25189   1.615   6.815   6.499  1.6732 -0.3766 -0.9091
  187MOL0     H25190   1.454   6.649   6.624 -0.6098 -2.6165  1.2856
  187MOL0     H25191   1.526   6.527   6.525 -0.0217  0.9607 -1.5839
  187MOL0     H25192   1.600   6.561   6.767 -0.8338  0.3631 -0.7446
  187MOL0     H25193   1.661   6.709   6.728 -0.0428  0.6835 -0.8500
  187MOL0     H25194   1.766   6.442   6.613  0.6207 -1.1097  2.7452
  187MOL0     H25195   1.809   6.602   6.543 -0.2170 -1.0967 -0.6101
  187MOL0     H25196   1.822   6.684   6.879 -1.0572 -1.2441 -2.3604
  187MOL0     H25197   2.090   6.515   7.100 -0.5243 -0.0747 -0.6421
  187MOL0     H25198   2.151   6.664   7.019  2.2346 -1.4306  2.9227
  187MOL0     H25199   1.959   6.792   7.096 -1.3358  0.1717  0.5159
  187MOL0     H25200   1.879   6.650   7.147 -0.1029  0.6132  2.7813
  187MOL0     H25201   2.158   6.724   7.268  1.7865 -4.2362 -2.4741
  187MOL0     H25202   2.034   6.609   7.329  1.3510  1.9923  2.3162
  187MOL0     H25203   1.995   6.782   7.455  0.9122 -0.3342 -0.4294
  187MOL0     H25204   1.881   6.823   7.322  0.6112  0.7132  0.2480
  187MOL0     H25205   1.898   7.130   7.264 -0.2350  2.1264  0.3730
  187MOL0     H25206   1.801   7.294   7.422 -0.5298 -0.9750  0.0800
  187MOL0     H25207   1.897   7.327   8.040  0.1025 -0.1933 -1.1559
  187MOL0     H25208   1.866   7.504   8.219 -1.2082  0.6725  0.5010
  187MOL0     H25209   1.758   7.689   8.290  0.2636  0.8663 -0.7115
  187MOL0     H25210   1.927   7.692   8.342  2.4353  0.4834 -2.0630
  187MOL0     H25211   1.817   7.884   8.450 -3.1168  0.1234 -0.5407
  187MOL0     H25212   1.914   7.954   8.326 -0.1809  1.1127 -0.4508
  187MOL0     H25213   1.717   7.944   8.164  2.3878 -3.6034  1.0816
  187MOL0     H25214   1.613   7.892   8.294  1.1491 -2.4591 -1.2302
  187MOL0     H25215   1.766   8.148   8.324 -0.7307 -1.0952  1.1881
  187MOL0     H25216   1.640   8.087   8.426 -2.9484  1.5459 -0.3981
  187MOL0     H25217   1.633   8.189   8.131  4.0086 -1.2473  1.0876
  187MOL0     H25218   1.574   8.273   8.277  2.0684 -0.0645  1.0199
  187MOL0     H25219   1.459   8.008   8.190 -1.2679 -0.2477 -0.0928
  187MOL0     H25220   1.412   8.121   8.322  1.7444  1.0069  1.0324
  187MOL0     H25221   1.292   8.139   8.066 -0.3108  2.5619 -3.3715
  187MOL0     H25222   1.428   8.255   8.057  0.2388  1.3927  1.0375
  187MOL0     H25223   1.213   8.238   8.260  0.3545 -2.5818 -1.5088
  187MOL0     H25224   1.344   8.355   8.283 -0.8197 -1.4305  1.0524
  187MOL0     H25225   1.990   7.789   7.913  5.1590 -1.9385 -0.2928
  187MOL0     H25226   1.993   7.642   7.744 -0.1550 -0.7939 -0.3575
  187MOL0     H25227   2.079   7.157   7.723 -1.3588  2.3756  0.9068
  187MOL0     H25228   2.152   6.976   7.559 -0.2486 -0.5969 -2.6943
  187MOL0     H25229   1.444   6.465   5.889  1.1786 -0.6083 -0.9799
  187MOL0     H25230   1.403   6.299   5.713 -0.0451 -1.7767  1.4709
  187MOL0     H25231   1.172   6.102   5.434 -2.5648 -2.5680 -1.2986
  187MOL0     H25232   1.135   5.928   5.262  1.0197 -0.7608 -3.8609
  187MOL0     H25233   1.074   5.876   5.053 -0.5560  0.6807 -1.0012
  187MOL0     H25234   1.207   5.755   5.076  0.7133 -2.3957 -3.8233
  187MOL0     H25235   1.133   5.894   4.810  2.1574  1.9345  2.2896
  187MOL0     H25236   1.066   5.743   4.854  1.7217 -0.9262 -1.8730
  187MOL0     H25237   1.299   5.643   4.864 -3.5965 -1.9545 -3.5676
  187MOL0     H25238   1.372   5.805   4.840 -1.3138  1.9943 -2.2680
  187MOL0     H25239   1.338   5.622   4.653  1.1248  0.5004  0.8670
  187MOL0     H25240   1.193   5.728   4.628  0.0271 -2.4439 -0.0562
  187MOL0     H25241   1.496   5.998   4.521 -0.5648 -0.6059 -0.9783
  187MOL0     H25242   1.371   6.165   4.982  1.5840  5.2049  0.9342
  187MOL0     H25243   1.325   6.472   5.145  0.5954  1.9156 -1.3882
  187MOL0     H25244   1.486   6.407   5.177 -1.7669  2.2668  1.0935
  187MOL0     H25245   1.398   6.383   5.019 -1.1216 -0.8828 -0.5766
  188MOL0     O25246   7.179   6.442  10.058  0.4630 -0.1506 -0.6364
  188MOL0     C25247   7.098   6.360  10.008  0.9059 -0.0564  0.6843
  188MOL0     O25248   6.987   6.311  10.075  0.3304 -0.2919  0.3601
  188MOL0     C25249   6.929   6.376  10.181 -0.8389 -0.3254 -0.2011
  188MOL0     C25250   6.908   6.511  10.178  0.6016 -0.4596 -0.4636
  188MOL0     C25251   6.837   6.572  10.279 -0.3549 -0.9285 -0.4030
  188MOL0     C25252   6.790   6.512  10.392 -0.4430  0.0464  0.4538
  188MOL0     O25253   6.720   6.590  10.481  0.6200 -0.2227  0.1872
  188MOL0     C25254   6.690   6.522  10.598 -0.7975  0.4886  0.4336
  188MOL0     C25255   6.610   6.623  10.677  0.1660 -0.6517  1.1666
  188MOL0     C25256   6.566   6.557  10.806  0.4088 -0.5484  1.6184
  188MOL0     C25257   6.449   6.451  10.795 -0.4723 -0.8565 -0.1726
  188MOL0     C25258   6.344   6.459  10.898 -0.2589  0.6364 -0.1172
  188MOL0     C25259   6.212   6.377  10.866 -0.7384  0.6149 -0.5583
  188MOL0     C25260   6.124   6.414  10.744 -0.5995 -0.8185  0.1922
  188MOL0     C25261   5.986   6.346  10.762  0.2750 -1.1568 -0.2098
  188MOL0     N25262   5.910   6.404  10.879  0.4541  0.5290 -1.3979
  188MOL0     C25263   5.839   6.525  10.875  0.4725  0.0550  0.9142
  188MOL0     C25264   5.783   6.541  10.995 -0.6399  0.3695 -0.8681
  188MOL0     C25265   5.705   6.657  11.062 -1.1682  0.2854  0.4545
  188MOL0     C25266   5.573   6.668  10.986 -0.5303 -0.5523  0.5536
  188MOL0     C25267   5.514   6.797  11.027 -0.2264  0.5916 -0.4935
  188MOL0     C25268   5.416   6.841  10.928  0.7596  0.3691 -0.6671
  188MOL0     O25269   5.466   6.878  10.800  0.0279  0.0921 -0.8310
  188MOL0     C25270   5.546   6.987  10.799  0.3280 -1.9025  0.5502
  188MOL0     C25271   5.484   7.122  10.807  0.1126  0.1341  1.1418
  188MOL0     C25272   5.565   7.225  10.829 -0.9001 -0.0097 -0.1584
  188MOL0     C25273   5.703   7.222  10.810 -1.1302  1.2491 -0.2280
  188MOL0     C25274   5.787   7.335  10.851 -0.0386  0.4121 -0.7191
  188MOL0     O25275   5.914   7.337  10.806 -0.1588 -0.0825  0.9345
  188MOL0     C25276   6.003   7.429  10.850  0.2613 -0.6280  0.2696
  188MOL0     C25277   6.038   7.464  10.979  0.6038 -0.1811 -0.4711
  188MOL0     C25278   6.120   7.577  11.004 -0.2594  0.8707 -0.1150
  188MOL0     C25279   6.193   7.641  10.897  0.7731 -0.4965 -0.0281
  188MOL0     O25280   6.267   7.762  10.910 -0.3382  0.2232  0.2610
  188MOL0     C25281   6.269   7.829  11.037  0.3899  0.1777  0.1573
  188MOL0     C25282   6.380   7.785  11.126  0.3804 -0.5256  0.8422
  188MOL0     C25283   6.409   7.886  11.249 -0.5018  0.7584  0.6202
  188MOL0     C25284   6.504   7.809  11.333 -0.5439  0.6090  0.4692
  188MOL0     C25285   6.561   7.857  11.467 -0.8721  0.1585 -0.4237
  188MOL0     C25286   6.459   7.900  11.571  0.1179  0.1838 -0.2090
  188MOL0     C25287   6.545   7.948  11.683 -0.6967  0.0658 -0.4528
  188MOL0     C25288   6.468   8.000  11.803 -0.7321 -0.5820 -0.9228
  188MOL0    Cl25289   6.553   8.135  11.897 -0.3362 -0.1842  0.1676
  188MOL0     C25290   6.167   7.589  10.772 -0.2702  0.3798 -0.5749
  188MOL0     C25291   6.082   7.482  10.748 -0.0898 -0.0342  0.4551
  188MOL0     O25292   5.739   7.416  10.926  0.0170  1.1853  0.5146
  188MOL0     C25293   5.757   7.098  10.766  0.0275 -0.0961 -0.4825
  188MOL0     C25294   5.685   6.978  10.780  0.5331 -0.0737  0.1297
  188MOL0     N25295   5.814   6.423  11.068 -0.1208 -0.2418  0.3716
  188MOL0     N25296   5.877   6.336  10.995 -0.1620  0.4047 -0.1837
  188MOL0     C25297   6.817   6.368  10.397 -0.7257  0.5872  0.6523
  188MOL0     C25298   6.880   6.302  10.293 -0.0568 -0.2934  0.3863
  188MOL0     C25299   7.139   6.295   9.884 -1.2734  0.0152 -0.5684
  188MOL0     C25300   7.277   6.284   9.860  0.2116  0.7007 -0.1167
  188MOL0     C25301   7.322   6.216   9.738  0.3905  0.3634  0.0189
  188MOL0     C25302   7.240   6.177   9.633 -0.1005 -0.4566  0.4050
  188MOL0     O25303   7.289   6.111   9.518 -0.9247 -0.4404  0.5806
  188MOL0     C25304   7.224   6.116   9.391  0.5082  0.7419  0.2568
  188MOL0     C25305   7.316   6.042   9.284 -0.0869  0.7349  0.1003
  188MOL0     C25306   7.275   6.095   9.140  0.3151  0.0151  0.5972
  188MOL0     C25307   7.309   6.232   9.091 -1.1894  0.3517 -0.6674
  188MOL0     C25308   7.453   6.256   9.104  0.1398  0.7605 -0.7101
  188MOL0     C25309   7.572   6.284   9.114  0.0983  0.0409  0.3457
  188MOL0     C25310   7.102   6.192   9.662 -0.2678  0.9313  0.0677
  188MOL0     C25311   7.055   6.252   9.777 -0.8783 -0.4181 -0.0495
  188MOL0     C25312   6.903   6.270   9.801  0.0248 -0.1385 -0.4192
  188MOL0     H25313   6.949   6.566  10.094  1.6626 -0.7588 -0.1545
  188MOL0     H25314   6.811   6.677  10.275  2.9949 -0.0487 -3.1657
  188MOL0     H25315   6.626   6.436  10.574 -0.0692  0.2330 -0.6353
  188MOL0     H25316   6.778   6.501  10.660 -1.6382  2.2332  2.3349
  188MOL0     H25317   6.524   6.657  10.618 -0.3603 -1.8533  1.2234
  188MOL0     H25318   6.673   6.711  10.695  2.4523 -1.8217 -0.5268
  188MOL0     H25319   6.538   6.636  10.876  0.2687  1.2061 -0.3051
  188MOL0     H25320   6.653   6.510  10.854  0.9237  0.3821  1.6105
  188MOL0     H25321   6.403   6.473  10.699  0.8907 -0.1981 -0.7014
  188MOL0     H25322   6.487   6.349  10.781 -0.2218 -1.0807  1.8238
  188MOL0     H25323   6.379   6.414  10.991 -0.3960  0.6504 -0.0567
  188MOL0     H25324   6.318   6.563  10.922  3.7618  1.5508  0.9695
  188MOL0     H25325   6.231   6.269  10.865  0.7033  0.6906  3.2945
  188MOL0     H25326   6.155   6.387  10.959  0.4220 -0.5412  0.3043
  188MOL0     H25327   6.173   6.382  10.652  1.9731  0.3988  1.0435
  188MOL0     H25328   6.135   6.523  10.747  2.8105 -1.0552 -0.0132
  188MOL0     H25329   5.933   6.371  10.669  4.6977 -3.6632 -3.8067
  188MOL0     H25330   5.999   6.238  10.771  1.6539 -1.1227 -1.3526
  188MOL0     H25331   5.851   6.600  10.797  3.8767 -0.9615  0.2897
  188MOL0     H25332   5.690   6.618  11.163  2.6854 -1.4009  0.5638
  188MOL0     H25333   5.772   6.743  11.064  0.6493 -0.8808 -2.7366
  188MOL0     H25334   5.572   6.659  10.877  0.9989 -1.8753  0.6189
  188MOL0     H25335   5.504   6.587  11.013 -1.2010 -0.5944 -1.1427
  188MOL0     H25336   5.587   6.878  11.030 -3.1888  3.3972  1.7092
  188MOL0     H25337   5.485   6.791  11.132 -0.2870 -2.4829 -0.5852
  188MOL0     H25338   5.375   6.933  10.972 -0.4164 -0.7346  0.6594
  188MOL0     H25339   5.329   6.774  10.928 -0.2294  1.5812  0.1555
  188MOL0     H25340   5.376   7.132  10.812  0.0508 -0.2445  0.6512
  188MOL0     H25341   5.517   7.320  10.851 -1.3311 -0.0603 -0.8435
  188MOL0     H25342   5.983   7.438  11.068 -0.5901 -1.3755 -1.5049
  188MOL0     H25343   6.130   7.605  11.109 -0.1681  3.7976 -0.8146
  188MOL0     H25344   6.275   7.937  11.018 -0.1944  0.1403 -0.2564
  188MOL0     H25345   6.171   7.837  11.084 -0.1325  0.2298 -0.9035
  188MOL0     H25346   6.352   7.684  11.156 -1.2007 -0.7599 -1.1407
  188MOL0     H25347   6.468   7.783  11.061  0.3155  0.0378  0.7244
  188MOL0     H25348   6.447   7.981  11.209  1.7086 -0.8245 -1.3320
  188MOL0     H25349   6.309   7.904  11.289 -1.8914  0.4362 -2.4301
  188MOL0     H25350   6.589   7.781  11.269 -1.6005  1.3033 -1.2872
  188MOL0     H25351   6.459   7.717  11.371  1.7353 -0.0878  1.7367
  188MOL0     H25352   6.631   7.938  11.445  0.0996 -0.8166 -0.9878
  188MOL0     H25353   6.629   7.780  11.506  1.2642  0.8466 -2.5589
  188MOL0     H25354   6.385   7.967  11.527 -1.1951  0.7836  2.6660
  188MOL0     H25355   6.409   7.810  11.611 -1.0027 -0.5434 -2.9991
  188MOL0     H25356   6.608   8.034  11.657  0.4686 -0.6429 -0.0808
  188MOL0     H25357   6.605   7.866  11.725 -1.3703 -0.3726 -0.3255
  188MOL0     H25358   6.373   8.043  11.769 -0.6866 -1.0310 -1.6271
  188MOL0     H25359   6.450   7.911  11.864  1.3008  1.0784  2.4292
  188MOL0     H25360   6.224   7.631  10.689  1.9406 -1.5198 -0.1063
  188MOL0     H25361   6.073   7.428  10.655 -0.4451 -2.8645  2.0068
  188MOL0     H25362   5.861   7.090  10.738 -0.6053 -0.9705 -2.8010
  188MOL0     H25363   5.741   6.886  10.763 -0.2966 -0.0511 -3.5613
  188MOL0     H25364   6.781   6.305  10.477 -3.1412  2.2093  0.9341
  188MOL0     H25365   6.897   6.195  10.284  1.6055 -0.3075  2.6851
  188MOL0     H25366   7.347   6.339   9.922 -2.2071  4.5358 -0.4614
  188MOL0     H25367   7.427   6.199   9.721  0.1718 -0.8460 -0.1822
  188MOL0     H25368   7.220   6.222   9.362  1.0969  0.8044  0.3915
  188MOL0     H25369   7.124   6.072   9.386  1.0823 -0.5888  0.0420
  188MOL0     H25370   7.295   5.934   9.284  0.8931  0.4031 -3.7823
  188MOL0     H25371   7.419   6.066   9.311 -1.2499  2.5259  3.6655
  188MOL0     H25372   7.168   6.071   9.141  0.8658 -3.0677  3.0807
  188MOL0     H25373   7.328   6.026   9.072  0.3946  0.9108 -0.2673
  188MOL0     H25374   7.277   6.242   8.987  0.4632  1.2698 -1.1224
  188MOL0     H25375   7.267   6.312   9.153 -0.5440  0.9897 -1.0330
  188MOL0     H25376   7.679   6.294   9.121  0.2808 -2.5134  3.0921
  188MOL0     H25377   7.027   6.163   9.589 -0.0372  1.1753 -0.2713
  188MOL0     H25378   6.854   6.276   9.703 -0.0916  0.0606 -0.3503
  188MOL0     H25379   6.854   6.195   9.863 -4.5351  1.7414 -1.3292
  188MOL0     H25380   6.871   6.366   9.844 -0.9549 -1.0976  1.0674
  189MOL0     O25381   1.963  10.147   6.667 -0.2493 -0.4888  0.2011
  189MOL0     C25382   2.051  10.226   6.683  0.1127 -0.4038  0.0465
  189MOL0     O25383   2.023  10.360   6.711  0.8499 -0.4821 -0.1951
  189MOL0     C25384   2.120  10.448   6.731 -0.0541  0.6102  0.0185
  189MOL0     C25385   2.225  10.485   6.644  0.0193  0.4970 -1.0457
  189MOL0     C25386   2.317  10.594   6.661  0.5243  0.4524 -0.3442
  189MOL0     C25387   2.312  10.649   6.784 -0.1928 -0.3354  0.6998
  189MOL0     O25388   2.408  10.737   6.828 -0.3728 -0.0788 -0.9513
  189MOL0     C25389   2.534  10.755   6.764 -0.5347  0.0776  0.1840
  189MOL0     C25390   2.614  10.878   6.812  0.1292 -0.7586 -0.1554
  189MOL0     C25391   2.618  10.870   6.957 -0.5286 -0.5455  0.0638
  189MOL0     C25392   2.718  10.973   7.001 -0.1556 -0.3683 -0.9925
  189MOL0     C25393   2.769  10.960   7.145 -0.0209 -1.5308 -0.5249
  189MOL0     C25394   2.898  10.879   7.167  0.0749 -0.4374  0.3538
  189MOL0     C25395   2.927  10.874   7.319  0.2690 -0.1118 -1.2522
  189MOL0     C25396   2.842  10.762   7.377 -0.7736 -0.2496  0.7777
  189MOL0     N25397   2.862  10.729   7.519 -0.3171 -0.6910 -0.0109
  189MOL0     C25398   2.786  10.801   7.619  0.2996  0.2905  0.0783
  189MOL0     C25399   2.853  10.770   7.738  0.3174 -0.6600  0.8577
  189MOL0     C25400   2.817  10.810   7.876 -0.1546  0.7513  0.2091
  189MOL0     C25401   2.886  10.927   7.928 -0.1282  0.7418  0.2371
  189MOL0     C25402   2.823  11.060   7.875  0.1272  1.6494  0.1334
  189MOL0     C25403   2.862  11.172   7.963  0.7279 -0.0576  0.2442
  189MOL0     O25404   2.998  11.160   7.999 -0.5380 -0.2098 -0.0727
  189MOL0     C25405   3.055  11.256   8.071 -0.5092 -0.5499  0.3413
  189MOL0     C25406   2.993  11.360   8.149 -1.1345  0.2803  0.3514
  189MOL0     C25407   3.077  11.444   8.222  0.4941 -0.2983 -0.4980
  189MOL0     C25408   3.224  11.440   8.224  0.1245 -0.0201  0.2012
  189MOL0     C25409   3.312  11.531   8.296 -0.2458  0.5623  0.6977
  189MOL0     O25410   3.238  11.607   8.382 -0.5939  1.4014 -0.0254
  189MOL0     C25411   3.282  11.681   8.488  0.2993 -0.6711 -0.9818
  189MOL0     C25412   3.190  11.776   8.551  0.3336  0.9582 -0.4419
  189MOL0     C25413   3.226  11.855   8.664 -0.1183  0.0746 -0.4414
  189MOL0     C25414   3.360  11.850   8.714 -0.0257  0.3341 -0.3126
  189MOL0     O25415   3.401  11.917   8.827 -0.1229  0.7555  0.8238
  189MOL0     C25416   3.304  11.997   8.903  0.8069  0.0727  0.4293
  189MOL0     C25417   3.229  11.898   9.008 -0.1867  0.4569 -0.4944
  189MOL0     C25418   3.214  11.989   9.134 -0.1571 -0.4765  0.9157
  189MOL0     C25419   3.111  11.938   9.236 -0.0738 -0.1490 -0.0597
  189MOL0     C25420   3.147  11.811   9.308  0.0936 -1.2060 -0.4891
  189MOL0     C25421   3.039  11.705   9.273  1.3377  0.7196  0.0610
  189MOL0     C25422   3.086  11.574   9.329 -0.4895  0.3136 -0.6780
  189MOL0     C25423   2.980  11.474   9.307  0.0750 -0.7215 -0.6469
  189MOL0    Cl25424   2.825  11.514   9.386  0.1437 -0.4099 -0.4223
  189MOL0     C25425   3.453  11.768   8.647 -0.0418 -0.6630  0.1515
  189MOL0     C25426   3.418  11.678   8.539  0.0612 -0.4048  0.0760
  189MOL0     O25427   3.436  11.521   8.277  0.7047  0.1226 -0.2497
  189MOL0     C25428   3.274  11.351   8.134 -0.0965  0.3423  0.3012
  189MOL0     C25429   3.192  11.266   8.057  0.3017  0.4038  0.0714
  189MOL0     N25430   2.958  10.694   7.698  0.1955  0.2367 -0.0847
  189MOL0     N25431   2.969  10.670   7.576 -0.4488  0.3401  0.2744
  189MOL0     C25432   2.209  10.621   6.869  0.6151 -0.1655  0.5158
  189MOL0     C25433   2.117  10.523   6.847  0.1637  0.6394 -0.2776
  189MOL0     C25434   2.190  10.177   6.664 -0.3942 -0.4634  0.1276
  189MOL0     C25435   2.257  10.135   6.772  0.0896 -0.0475 -0.5510
  189MOL0     C25436   2.393  10.101   6.757  0.5711 -0.8685  0.0818
  189MOL0     C25437   2.465  10.099   6.636  0.3507  0.0504  1.0167
  189MOL0     O25438   2.605  10.058   6.639  0.2397 -0.1448  0.4738
  189MOL0     C25439   2.680  10.062   6.516 -0.2129 -0.2333  0.1797
  189MOL0     C25440   2.799   9.978   6.533  1.3456 -0.5471 -0.1080
  189MOL0     C25441   2.768   9.830   6.498 -0.5546 -0.1806  0.4216
  189MOL0     C25442   2.877   9.740   6.564  0.1589  0.6093 -0.6247
  189MOL0     C25443   2.882   9.609   6.498 -0.1667 -0.1861  0.2132
  189MOL0     C25444   2.896   9.500   6.449  1.1207 -0.6118 -0.2070
  189MOL0     C25445   2.385  10.120   6.517 -0.5694 -0.5544 -0.4158
  189MOL0     C25446   2.247  10.163   6.531  0.9484  0.7031  0.2342
  189MOL0     C25447   2.167  10.206   6.409 -0.3941 -0.4527  0.1852
  189MOL0     H25448   2.220  10.434   6.549  1.0568 -0.1070 -0.7897
  189MOL0     H25449   2.383  10.611   6.576  1.8873 -0.1222  0.5607
  189MOL0     H25450   2.589  10.662   6.781  1.4656  1.3931  1.1834
  189MOL0     H25451   2.524  10.755   6.655  2.3390  1.4685 -0.1759
  189MOL0     H25452   2.591  10.973   6.763 -1.4658 -1.8422 -1.6419
  189MOL0     H25453   2.714  10.854   6.773  0.8840  0.0565  1.1745
  189MOL0     H25454   2.649  10.771   6.991 -1.2222 -1.1564 -1.0078
  189MOL0     H25455   2.515  10.900   6.980 -0.0682 -0.5984  2.3777
  189MOL0     H25456   2.793  10.989   6.924  1.4477 -2.2637  0.0716
  189MOL0     H25457   2.665  11.068   6.998  0.2903 -0.1169 -0.9163
  189MOL0     H25458   2.789  11.066   7.166  0.7289 -1.3972 -1.7866
  189MOL0     H25459   2.693  10.936   7.220 -0.0766  1.5355  0.5567
  189MOL0     H25460   2.890  10.775   7.136  1.2429 -0.0255 -1.5169
  189MOL0     H25461   2.974  10.935   7.110 -1.3852  1.0231 -0.2517
  189MOL0     H25462   2.916  10.972   7.367  0.9562 -0.4820 -0.3250
  189MOL0     H25463   3.028  10.836   7.333 -0.4234 -1.5103  0.2811
  189MOL0     H25464   2.737  10.788   7.367  0.2973  4.9016 -0.1945
  189MOL0     H25465   2.869  10.670   7.324 -2.4562 -1.9063  2.6267
  189MOL0     H25466   2.694  10.854   7.594 -0.8282 -2.0427 -1.0613
  189MOL0     H25467   2.709  10.823   7.891 -0.3087  2.6070 -1.9858
  189MOL0     H25468   2.829  10.722   7.940 -1.7386  0.5616  0.2898
  189MOL0     H25469   2.882  10.937   8.037 -1.6418  0.6389  0.2123
  189MOL0     H25470   2.991  10.905   7.908 -0.5551 -0.8250 -0.4411
  189MOL0     H25471   2.714  11.055   7.876 -0.0722  1.1694 -4.4316
  189MOL0     H25472   2.851  11.075   7.771  0.3646  0.5105  0.0232
  189MOL0     H25473   2.801  11.166   8.054  0.4502 -1.3783 -0.0034
  189MOL0     H25474   2.844  11.265   7.910 -1.7309  0.2947  1.5580
  189MOL0     H25475   2.890  11.356   8.184 -0.6222 -1.9538  1.8707
  189MOL0     H25476   3.033  11.511   8.295  3.4200 -0.4129  1.5200
  189MOL0     H25477   3.086  11.783   8.522 -0.4044 -3.4646  0.4999
  189MOL0     H25478   3.153  11.925   8.704 -0.8426 -0.9717  0.1220
  189MOL0     H25479   3.366  12.077   8.945  1.6217  1.2688 -2.7792
  189MOL0     H25480   3.231  12.051   8.843 -0.9772 -3.2525 -0.6449
  189MOL0     H25481   3.135  11.865   8.963 -0.2809  0.5350 -0.3535
  189MOL0     H25482   3.289  11.811   9.036  0.8306  0.5720 -2.1662
  189MOL0     H25483   3.315  11.985   9.176 -0.0448  0.3193  0.7208
  189MOL0     H25484   3.189  12.088   9.094  1.6329 -0.7796 -1.1536
  189MOL0     H25485   3.009  11.928   9.196 -1.1667 -4.8022  3.1043
  189MOL0     H25486   3.116  12.023   9.304  0.5619  1.5285 -2.0670
  189MOL0     H25487   3.157  11.817   9.417 -0.7295  1.8648 -0.4785
  189MOL0     H25488   3.246  11.781   9.273  0.4965  0.6579 -1.1022
  189MOL0     H25489   2.946  11.744   9.315  0.6749  1.9222 -2.3886
  189MOL0     H25490   3.031  11.707   9.164  0.7369  0.6552  0.1056
  189MOL0     H25491   3.110  11.585   9.435 -0.4457 -0.6263 -0.5790
  189MOL0     H25492   3.187  11.552   9.292  0.6666  3.3066  0.3996
  189MOL0     H25493   2.961  11.473   9.200 -0.5181 -1.7413 -0.5500
  189MOL0     H25494   3.006  11.372   9.337 -0.4230 -0.3019  1.4168
  189MOL0     H25495   3.555  11.769   8.684 -0.8971  2.8866  3.0000
  189MOL0     H25496   3.475  11.595   8.500  2.5223 -0.7927  3.9298
  189MOL0     H25497   3.383  11.349   8.128 -0.0746  1.7595 -0.3890
  189MOL0     H25498   3.228  11.199   7.980 -1.8561  0.4466 -1.0655
  189MOL0     H25499   2.197  10.698   6.944 -1.2170  1.3141 -1.1823
  189MOL0     H25500   2.026  10.507   6.904  0.9356  0.5172  0.9704
  189MOL0     H25501   2.208  10.154   6.867 -0.0864 -1.9736 -0.2095
  189MOL0     H25502   2.440  10.064   6.848 -1.0222 -1.2228  0.7926
  189MOL0     H25503   2.701  10.168   6.503 -4.6889  0.7703 -0.3644
  189MOL0     H25504   2.631  10.033   6.423  0.0386 -2.9755  0.8215
  189MOL0     H25505   2.830   9.970   6.637 -1.0689 -0.9742  0.6388
  189MOL0     H25506   2.886  10.015   6.477  0.7773 -0.7123 -1.1198
  189MOL0     H25507   2.777   9.806   6.391 -4.0272 -0.5789  0.0949
  189MOL0     H25508   2.663   9.804   6.509 -1.0223  2.0269  1.7828
  189MOL0     H25509   2.972   9.789   6.540 -1.2831  2.6983 -2.3763
  189MOL0     H25510   2.853   9.733   6.670  2.9987 -1.7688 -0.0078
  189MOL0     H25511   2.884   9.403   6.404 -0.1845  0.4863 -2.4108
  189MOL0     H25512   2.411  10.117   6.412 -1.0509  0.9355 -0.6091
  189MOL0     H25513   2.153  10.314   6.407  0.5662 -0.3105  0.4036
  189MOL0     H25514   2.216  10.171   6.317 -0.3565 -2.5153  0.9512
  189MOL0     H25515   2.069  10.158   6.404  0.3899 -2.1391  0.4296
  190MOL0     O25516   5.400   1.643   5.284  0.4925  0.4349  0.5459
  190MOL0     C25517   5.415   1.536   5.355  0.0941 -0.0025  0.4443
  190MOL0     O25518   5.443   1.531   5.490  0.5934  0.7855 -0.5201
  190MOL0     C25519   5.424   1.637   5.577  0.5518 -0.2238  0.6375
  190MOL0     C25520   5.488   1.617   5.697 -0.9646  0.1372  0.0552
  190MOL0     C25521   5.474   1.693   5.816  1.0438 -0.4868  0.3539
  190MOL0     C25522   5.389   1.808   5.799  0.2138  0.0933  0.4211
  190MOL0     O25523   5.376   1.909   5.894 -0.6078 -0.5668  0.8119
  190MOL0     C25524   5.496   1.948   5.956  0.5625 -0.2894  0.4129
  190MOL0     C25525   5.495   2.079   6.030 -0.0528  0.0822  0.4153
  190MOL0     C25526   5.402   2.061   6.158 -0.0409 -0.2602 -0.7404
  190MOL0     C25527   5.420   2.165   6.262  0.7967  0.5338  0.1430
  190MOL0     C25528   5.321   2.167   6.379  0.0001  0.0193 -0.8878
  190MOL0     C25529   5.322   2.031   6.461  0.6433  0.2121  0.7713
  190MOL0     C25530   5.180   2.018   6.537 -0.1370 -0.2155  0.1452
  190MOL0     C25531   5.147   1.883   6.607  0.4272  0.6668  1.8379
  190MOL0     N25532   5.219   1.862   6.737  0.5898 -0.1225 -1.1523
  190MOL0     C25533   5.353   1.837   6.764 -0.9523  0.5710  0.6503
  190MOL0     C25534   5.366   1.835   6.898  0.0421 -0.0913  0.6902
  190MOL0     C25535   5.502   1.826   6.973 -0.0726  0.3753 -0.1904
  190MOL0     C25536   5.592   1.952   6.958 -0.4369  0.0067 -0.1124
  190MOL0     C25537   5.691   1.969   7.074  0.5716 -0.8665 -0.2891
  190MOL0     C25538   5.784   2.096   7.043 -0.3633 -0.4032  0.5384
  190MOL0     O25539   5.879   2.055   6.937  0.4202 -0.1130  0.1815
  190MOL0     C25540   5.936   2.154   6.866 -0.7423 -0.1753 -0.2002
  190MOL0     C25541   6.041   2.106   6.784 -0.3816 -0.2290  1.4794
  190MOL0     C25542   6.118   2.196   6.703 -0.3754  0.5762  0.5059
  190MOL0     C25543   6.096   2.344   6.709 -0.2343 -0.5560 -0.8041
  190MOL0     C25544   6.179   2.436   6.638  0.0684 -1.2913 -0.3789
  190MOL0     O25545   6.157   2.573   6.668 -0.4415  0.5662  0.0290
  190MOL0     C25546   6.184   2.672   6.573 -1.1922  1.1211  0.0806
  190MOL0     C25547   6.163   2.656   6.436 -0.2293  1.1150 -0.1564
  190MOL0     C25548   6.204   2.756   6.346 -0.4282 -0.0366  0.1775
  190MOL0     C25549   6.247   2.885   6.383 -1.0848  0.4963 -0.2742
  190MOL0     O25550   6.265   2.976   6.288  0.5702 -0.0923 -0.7861
  190MOL0     C25551   6.391   3.048   6.292 -0.0352  0.0345  1.2091
  190MOL0     C25552   6.430   3.057   6.149 -0.2646  0.1546  0.1068
  190MOL0     C25553   6.492   2.932   6.084 -0.0525  0.0048 -0.2220
  190MOL0     C25554   6.519   2.954   5.934 -0.0462 -0.9913 -0.6381
  190MOL0     C25555   6.620   3.075   5.900 -0.0329 -0.7188  0.3993
  190MOL0     C25556   6.626   3.114   5.757 -0.2816 -0.3171 -0.3734
  190MOL0     C25557   6.489   3.135   5.695 -0.0837  0.2760  0.0314
  190MOL0     C25558   6.489   3.205   5.561 -0.2106 -0.1984 -0.3823
  190MOL0    Cl25559   6.324   3.227   5.502  0.2386  0.1192  0.4726
  190MOL0     C25560   6.255   2.899   6.517  0.1260  0.6173 -0.2494
  190MOL0     C25561   6.240   2.796   6.612  0.0234  1.2104 -0.8555
  190MOL0     O25562   6.256   2.400   6.550  0.5438 -0.5894 -0.4565
  190MOL0     C25563   5.994   2.383   6.795 -0.1512 -0.3136 -0.4715
  190MOL0     C25564   5.914   2.291   6.867  0.3495  0.0793 -0.7448
  190MOL0     N25565   5.238   1.857   6.949 -0.4019 -1.2237 -0.2556
  190MOL0     N25566   5.146   1.872   6.858 -0.1858 -0.1935 -0.2757
  190MOL0     C25567   5.312   1.817   5.682 -0.5851  0.3270  1.0912
  190MOL0     C25568   5.335   1.740   5.569  0.1931 -0.7006 -0.1254
  190MOL0     C25569   5.424   1.406   5.296  0.4007  0.0039 -0.6891
  190MOL0     C25570   5.341   1.301   5.344 -0.4639  0.0096  1.1229
  190MOL0     C25571   5.340   1.176   5.286 -0.0204  0.9825  0.6774
  190MOL0     C25572   5.435   1.148   5.181 -0.0181  0.2479 -0.2056
  190MOL0     O25573   5.427   1.021   5.129 -0.0383 -0.8184  0.3152
  190MOL0     C25574   5.517   0.998   5.017 -0.1444 -0.4626  0.0311
  190MOL0     C25575   5.468   0.870   4.945  0.5267 -0.2163  0.0185
  190MOL0     C25576   5.560   0.830   4.831 -0.4365 -0.2292 -0.7145
  190MOL0     C25577   5.483   0.727   4.741  0.0868  0.1637 -0.3597
  190MOL0     C25578   5.553   0.691   4.613  0.4428 -0.4080  0.0184
  190MOL0     C25579   5.607   0.651   4.509 -0.4999  0.0506  0.0723
  190MOL0     C25580   5.516   1.256   5.129  0.8336  1.4632 -0.0236
  190MOL0     C25581   5.505   1.385   5.176 -0.8060 -0.6186 -0.4746
  190MOL0     C25582   5.579   1.494   5.105  1.1930  0.0513 -0.1034
  190MOL0     H25583   5.550   1.529   5.713 -3.0546 -1.4488 -0.0413
  190MOL0     H25584   5.536   1.690   5.905  1.5401  0.7556  0.0752
  190MOL0     H25585   5.513   1.868   6.029 -0.5857 -0.8984  0.0404
  190MOL0     H25586   5.576   1.952   5.883 -0.6342 -2.7417 -1.1565
  190MOL0     H25587   5.453   2.162   5.974 -0.4641  0.0128  0.6184
  190MOL0     H25588   5.602   2.097   6.045 -0.1593  1.9086 -0.7121
  190MOL0     H25589   5.422   1.964   6.204  0.1224 -0.6355 -1.5903
  190MOL0     H25590   5.297   2.060   6.128 -0.5551 -3.2567  0.8027
  190MOL0     H25591   5.526   2.157   6.291  0.9874  1.3442 -0.3001
  190MOL0     H25592   5.397   2.261   6.216 -1.8991  0.1563  0.5553
  190MOL0     H25593   5.327   2.259   6.437 -1.3811 -0.8805  0.7961
  190MOL0     H25594   5.218   2.171   6.342 -0.8155 -3.0213  0.6426
  190MOL0     H25595   5.334   1.948   6.391  2.3156  1.1587 -0.1418
  190MOL0     H25596   5.409   2.033   6.528  1.4582 -1.4601 -0.1828
  190MOL0     H25597   5.099   2.040   6.466  0.2992  2.3159  0.3409
  190MOL0     H25598   5.165   2.085   6.622 -1.6973 -0.4029  0.0535
  190MOL0     H25599   5.038   1.875   6.610  0.1088  1.9313 -1.6527
  190MOL0     H25600   5.170   1.797   6.543 -1.2791 -0.0452  2.1238
  190MOL0     H25601   5.433   1.823   6.691 -1.7930 -2.1502  0.1124
  190MOL0     H25602   5.477   1.813   7.078 -0.8461 -1.8816 -0.5896
  190MOL0     H25603   5.554   1.735   6.940  0.2912  0.7332 -0.6209
  190MOL0     H25604   5.631   1.939   6.857  3.7528 -1.4710  1.4745
  190MOL0     H25605   5.529   2.041   6.965  0.4707  0.5287  3.1239
  190MOL0     H25606   5.738   1.874   7.099  0.5337 -0.8210 -0.0472
  190MOL0     H25607   5.632   1.991   7.163  3.7020 -0.1988  1.7827
  190MOL0     H25608   5.841   2.144   7.124  0.7891  0.2029 -0.6092
  190MOL0     H25609   5.722   2.181   7.014  1.4115  1.3730  1.6912
  190MOL0     H25610   6.056   1.998   6.782 -3.3510 -0.7686 -1.8212
  190MOL0     H25611   6.197   2.142   6.653 -1.1326 -0.4053  0.3514
  190MOL0     H25612   6.117   2.561   6.410 -0.0604  0.6580  1.1487
  190MOL0     H25613   6.185   2.734   6.241  0.1680  2.6198 -0.5608
  190MOL0     H25614   6.391   3.152   6.327  1.1731  1.4986 -2.6887
  190MOL0     H25615   6.473   2.989   6.336  0.1403  0.9895  2.2026
  190MOL0     H25616   6.355   3.103   6.083  1.8849  0.8754 -1.9647
  190MOL0     H25617   6.506   3.135   6.161  0.3845 -0.5638  0.7632
  190MOL0     H25618   6.589   2.903   6.126 -0.7272  0.8085  2.0655
  190MOL0     H25619   6.417   2.854   6.101 -0.4669  0.1008 -1.5592
  190MOL0     H25620   6.421   2.970   5.888 -1.0250 -2.9448  0.6274
  190MOL0     H25621   6.568   2.868   5.887  4.0678  1.8010 -2.0011
  190MOL0     H25622   6.721   3.044   5.927  0.1928 -0.7331 -0.4305
  190MOL0     H25623   6.608   3.171   5.952  3.1261  1.1827 -1.9759
  190MOL0     H25624   6.684   3.205   5.738  2.8979 -1.6790  1.8586
  190MOL0     H25625   6.668   3.031   5.700 -0.6662 -0.2103 -0.8197
  190MOL0     H25626   6.414   3.174   5.765 -1.3659 -3.0469  0.7174
  190MOL0     H25627   6.440   3.041   5.665  0.7840 -0.1383 -0.1045
  190MOL0     H25628   6.541   3.300   5.577 -3.4834  1.4937  1.2602
  190MOL0     H25629   6.543   3.142   5.490  3.3663  1.4488  0.5985
  190MOL0     H25630   6.288   3.000   6.542  1.9083 -0.4306  2.1272
  190MOL0     H25631   6.274   2.808   6.715  2.9631 -5.3492 -0.6208
  190MOL0     H25632   5.972   2.489   6.808 -1.2172 -0.7896  2.4411
  190MOL0     H25633   5.832   2.334   6.924 -0.8320  0.0833 -2.3684
  190MOL0     H25634   5.240   1.898   5.677  0.6858  1.4646  0.3094
  190MOL0     H25635   5.280   1.756   5.477 -0.8997  0.1031  0.6446
  190MOL0     H25636   5.269   1.322   5.423 -1.4565  0.0557  0.2205
  190MOL0     H25637   5.275   1.100   5.328  0.2016  0.4774  0.1213
  190MOL0     H25638   5.623   1.004   5.042 -0.2063  2.1524 -0.0514
  190MOL0     H25639   5.502   1.080   4.945 -0.7116 -2.4273 -2.2200
  190MOL0     H25640   5.361   0.876   4.924  0.1938 -2.4365  0.7891
  190MOL0     H25641   5.483   0.794   5.023  0.2864 -0.2285  0.0550
  190MOL0     H25642   5.645   0.787   4.885  0.9262  3.5100  0.3925
  190MOL0     H25643   5.609   0.904   4.767  0.4348 -2.0127 -2.2311
  190MOL0     H25644   5.466   0.643   4.810  0.7107  0.3675  0.0581
  190MOL0     H25645   5.384   0.765   4.716  0.3781  0.4952 -1.0449
  190MOL0     H25646   5.644   0.633   4.410 -0.3259  1.6097 -0.1736
  190MOL0     H25647   5.590   1.233   5.053  2.8425  0.5858  2.0755
  190MOL0     H25648   5.634   1.539   5.189  2.3446 -0.5971 -0.4946
  190MOL0     H25649   5.640   1.462   5.021 -0.2598  1.0685 -1.6157
  190MOL0     H25650   5.511   1.574   5.072 -0.5412 -1.3405 -0.0342
  191MOL0     O25651   4.105   4.386   0.449  0.4207 -0.5026  0.5232
  191MOL0     C25652   4.077   4.443   0.349  0.9376  0.6212 -0.1585
  191MOL0     O25653   3.945   4.437   0.285  0.3570  0.3843  0.1462
  191MOL0     C25654   3.860   4.347   0.342  0.9612 -0.2450 -0.5783
  191MOL0     C25655   3.728   4.385   0.386 -0.2408  0.2095  0.3526
  191MOL0     C25656   3.648   4.307   0.467 -0.3249 -0.9134  0.1441
  191MOL0     C25657   3.690   4.174   0.493 -1.0045 -0.5433 -0.2445
  191MOL0     O25658   3.609   4.089   0.545  0.0595  0.3963  0.3590
  191MOL0     C25659   3.660   4.024   0.663  0.3665 -0.3896  0.6888
  191MOL0     C25660   3.582   3.892   0.685  0.7184  0.3234  0.3599
  191MOL0     C25661   3.619   3.792   0.580 -0.4860  1.1933  0.1528
  191MOL0     C25662   3.531   3.666   0.600 -0.8953 -0.1544  0.8767
  191MOL0     C25663   3.568   3.550   0.500 -0.1220  0.1381 -0.2885
  191MOL0     C25664   3.536   3.582   0.356 -0.7425  0.2391  1.1744
  191MOL0     C25665   3.576   3.463   0.255  0.2854  0.4340 -0.0225
  191MOL0     C25666   3.545   3.505   0.113 -0.2136 -0.5159  0.1959
  191MOL0     N25667   3.408   3.476   0.077  0.6182  0.2946 -0.5331
  191MOL0     C25668   3.332   3.364   0.089  0.4940  0.3210  0.5267
  191MOL0     C25669   3.205   3.408   0.074  0.3747 -0.3584 -0.0025
  191MOL0     C25670   3.078   3.319   0.057 -0.0704 -0.9546  0.8233
  191MOL0     C25671   2.971   3.350   0.158  0.3269 -0.8125 -0.6321
  191MOL0     C25672   2.872   3.229   0.180 -0.3277  0.6160  1.2956
  191MOL0     C25673   2.762   3.252   0.282  0.3674  1.2550  0.0622
  191MOL0     O25674   2.649   3.161   0.282  0.2305  0.1120 -0.5080
  191MOL0     C25675   2.644   3.073   0.387  0.0793  0.6911  0.0413
  191MOL0     C25676   2.659   3.115   0.513 -0.4272 -0.8977  0.3341
  191MOL0     C25677   2.635   3.039   0.626 -0.5979  0.8308  0.1564
  191MOL0     C25678   2.584   2.903   0.603 -0.7108  0.0299  0.3775
  191MOL0     C25679   2.566   2.804   0.717 -0.5702 -0.9854  0.4531
  191MOL0     O25680   2.537   2.858   0.831 -0.4674  0.3331  0.4381
  191MOL0     C25681   2.533   2.767   0.931  0.5102 -0.3391 -0.3402
  191MOL0     C25682   2.643   2.767   1.011  0.0755  0.2350  0.0375
  191MOL0     C25683   2.654   2.682   1.127  0.4776  0.4222 -0.2957
  191MOL0     C25684   2.549   2.594   1.149 -1.1576  1.0523 -0.1983
  191MOL0     O25685   2.532   2.497   1.245 -0.7449  0.4883 -0.0008
  191MOL0     C25686   2.585   2.541   1.378  0.2171 -0.5738  0.2797
  191MOL0     C25687   2.498   2.473   1.483  0.0856  0.4353  0.6955
  191MOL0     C25688   2.345   2.482   1.474  0.2153  0.7207 -0.2191
  191MOL0     C25689   2.290   2.435   1.601  1.0001 -0.1050 -0.4112
  191MOL0     C25690   2.153   2.505   1.626  0.9076  0.2653 -1.2106
  191MOL0     C25691   2.067   2.437   1.730  0.5856 -0.3095 -0.0921
  191MOL0     C25692   1.968   2.535   1.803 -0.5675 -0.3418  0.1603
  191MOL0     C25693   1.967   2.494   1.955  0.1465 -0.1553  0.1073
  191MOL0    Cl25694   1.802   2.498   2.014  0.1504  0.3589  0.0207
  191MOL0     C25695   2.446   2.582   1.061 -0.2622  0.5186  0.3516
  191MOL0     C25696   2.429   2.672   0.951  0.0020  0.4611  0.2759
  191MOL0     O25697   2.586   2.684   0.696  0.4318  0.4954 -0.7005
  191MOL0     C25698   2.557   2.861   0.470  0.5204  0.6107  0.3865
  191MOL0     C25699   2.594   2.945   0.364 -0.0675  0.2164  0.4321
  191MOL0     N25700   3.207   3.534   0.041  0.0826  0.7727  0.1564
  191MOL0     N25701   3.327   3.576   0.042 -0.6896  0.1451  0.8522
  191MOL0     C25702   3.806   4.128   0.424 -0.6838  0.0353 -0.2170
  191MOL0     C25703   3.894   4.210   0.360 -0.8244 -0.6378 -0.2529
  191MOL0     C25704   4.180   4.523   0.275  0.0487  0.9670  0.3303
  191MOL0     C25705   4.142   4.573   0.153  0.5291 -0.0445  0.6983
  191MOL0     C25706   4.235   4.650   0.084  0.2324 -0.4863  0.0044
  191MOL0     C25707   4.365   4.671   0.138  0.4361 -0.7317  0.2321
  191MOL0     O25708   4.465   4.721   0.061  1.2464 -0.8743  0.2184
  191MOL0     C25709   4.455   4.867   0.056 -0.5471 -0.8992 -0.1144
  191MOL0     C25710   4.500   4.914  -0.082 -0.7524 -0.1892 -0.2914
  191MOL0     C25711   4.652   4.906  -0.105  0.3047  0.0619  0.2965
  191MOL0     C25712   4.732   5.028  -0.054 -0.2304  0.1341 -0.6129
  191MOL0     C25713   4.872   5.038  -0.118  0.4689 -0.0736 -0.4186
  191MOL0     C25714   4.985   5.043  -0.164 -0.3834  0.6404  0.2395
  191MOL0     C25715   4.398   4.621   0.266 -0.9957  0.5342  0.4574
  191MOL0     C25716   4.311   4.548   0.340  0.4754 -0.0985 -0.3742
  191MOL0     C25717   4.346   4.515   0.482 -0.0218 -0.8043  0.0457
  191MOL0     H25718   3.687   4.485   0.377  0.9360  0.6374 -0.5986
  191MOL0     H25719   3.564   4.349   0.520  1.4138 -0.4273  2.6733
  191MOL0     H25720   3.766   3.998   0.658  0.4905 -0.6370  3.3974
  191MOL0     H25721   3.649   4.071   0.761 -0.0140 -2.7568  1.8463
  191MOL0     H25722   3.474   3.911   0.677 -0.2090 -3.0758  2.6267
  191MOL0     H25723   3.597   3.857   0.788 -1.7099  1.7393  1.3021
  191MOL0     H25724   3.723   3.761   0.593 -1.4470 -2.5798  0.2465
  191MOL0     H25725   3.606   3.823   0.476 -1.3237 -1.0628 -0.4811
  191MOL0     H25726   3.538   3.632   0.704  0.5395  1.9620  1.5358
  191MOL0     H25727   3.425   3.687   0.581 -1.0752 -2.3808 -1.0178
  191MOL0     H25728   3.675   3.534   0.512  0.2723  0.7229 -2.6814
  191MOL0     H25729   3.490   3.476   0.523 -3.7207  3.6132 -0.1902
  191MOL0     H25730   3.430   3.605   0.347 -0.5572  0.5895 -0.3347
  191MOL0     H25731   3.596   3.667   0.324  0.5316 -1.7679 -2.3632
  191MOL0     H25732   3.535   3.365   0.281  5.1570 -1.5069  1.6560
  191MOL0     H25733   3.682   3.435   0.259 -0.3455 -2.1815  0.0634
  191MOL0     H25734   3.586   3.602   0.083 -2.2342  0.1586 -0.4889
  191MOL0     H25735   3.603   3.459   0.032 -1.8888 -0.4921 -1.0795
  191MOL0     H25736   3.374   3.264   0.096 -1.8557 -0.7364  0.6057
  191MOL0     H25737   3.039   3.341  -0.043  1.9758 -1.7524 -0.2241
  191MOL0     H25738   3.104   3.212   0.056 -1.7925 -1.4332 -1.5112
  191MOL0     H25739   3.030   3.371   0.248  1.1644  3.3419 -1.8956
  191MOL0     H25740   2.911   3.439   0.136  0.8559  0.1018  1.3244
  191MOL0     H25741   2.929   3.147   0.224 -2.2120 -2.8760 -2.1700
  191MOL0     H25742   2.822   3.209   0.085 -0.4102  3.5126  0.6255
  191MOL0     H25743   2.716   3.349   0.258 -0.2654  1.8182  3.1427
  191MOL0     H25744   2.809   3.253   0.381 -2.4507  0.6500  1.5043
  191MOL0     H25745   2.664   3.223   0.526  1.1990 -0.8103 -0.7655
  191MOL0     H25746   2.641   3.070   0.730 -1.1940  0.3822  0.3366
  191MOL0     H25747   2.714   2.847   0.993 -0.4841  0.8253  0.3817
  191MOL0     H25748   2.739   2.689   1.194 -0.4466 -2.5909  1.3767
  191MOL0     H25749   2.692   2.517   1.378  0.7079  1.1980 -2.0823
  191MOL0     H25750   2.573   2.650   1.384 -0.4303 -0.4005 -2.5273
  191MOL0     H25751   2.525   2.368   1.471 -0.7244  0.4928 -2.3474
  191MOL0     H25752   2.537   2.491   1.584 -0.1527 -0.8671  1.0419
  191MOL0     H25753   2.309   2.586   1.478 -0.5882  0.4336  3.7147
  191MOL0     H25754   2.297   2.440   1.385 -0.5236 -1.8485  1.3025
  191MOL0     H25755   2.346   2.474   1.687 -2.1896  3.2134  0.4274
  191MOL0     H25756   2.268   2.328   1.612  0.8647  0.1152  2.2880
  191MOL0     H25757   2.086   2.526   1.542 -1.9445 -1.4683  0.4760
  191MOL0     H25758   2.179   2.604   1.663 -2.5545  1.0800 -0.6029
  191MOL0     H25759   2.005   2.365   1.675  2.3602 -1.4003 -0.7696
  191MOL0     H25760   2.131   2.380   1.798  0.1881  0.1146  0.6395
  191MOL0     H25761   1.863   2.522   1.777 -0.3756 -2.2991  0.2256
  191MOL0     H25762   1.992   2.641   1.790  1.3914 -0.2126  3.4702
  191MOL0     H25763   2.005   2.393   1.972  0.6489  0.2263  1.4186
  191MOL0     H25764   2.039   2.558   2.007 -0.6123  1.2193 -0.4817
  191MOL0     H25765   2.365   2.517   1.093  1.7412 -2.3599  0.0527
  191MOL0     H25766   2.332   2.681   0.903 -0.2720 -1.9332  0.2627
  191MOL0     H25767   2.528   2.759   0.449  0.6924  0.4877  0.7432
  191MOL0     H25768   2.590   2.903   0.264  1.5556 -0.1958  0.5067
  191MOL0     H25769   3.837   4.024   0.427 -0.3483  0.1008 -1.1987
  191MOL0     H25770   3.989   4.168   0.328  1.5069  2.9205  1.3503
  191MOL0     H25771   4.046   4.558   0.105  0.7718  0.0526  0.1653
  191MOL0     H25772   4.217   4.681  -0.018  1.2837  3.5444  0.8792
  191MOL0     H25773   4.515   4.905   0.138  0.0470 -0.0499 -0.9213
  191MOL0     H25774   4.350   4.897   0.068  0.0551  1.7095 -0.7271
  191MOL0     H25775   4.466   5.018  -0.088 -0.4106 -0.1340 -1.5342
  191MOL0     H25776   4.435   4.868  -0.157 -0.2735  0.9057 -1.4325
  191MOL0     H25777   4.661   4.900  -0.214  0.7217  0.8480  0.2809
  191MOL0     H25778   4.692   4.822  -0.048 -0.0174  1.3705  2.5521
  191MOL0     H25779   4.686   5.126  -0.069 -0.5787 -0.3347 -3.0310
  191MOL0     H25780   4.752   5.015   0.053  1.9084 -1.1880 -1.1111
  191MOL0     H25781   5.083   5.046  -0.208 -0.5400  1.3505 -0.0887
  191MOL0     H25782   4.497   4.650   0.298 -2.6929  3.1139  4.1051
  191MOL0     H25783   4.258   4.523   0.546  1.3195  0.7580  1.8187
  191MOL0     H25784   4.389   4.416   0.501 -0.8050 -1.3376 -0.9176
  191MOL0     H25785   4.406   4.600   0.519  0.7815 -1.3264 -0.0425
  192MOL0     O25786   8.142   1.601   1.968 -0.3290  0.0388  0.1882
  192MOL0     C25787   8.028   1.616   1.932  0.1557  0.5333  0.0127
  192MOL0     O25788   7.965   1.739   1.916  0.1262  1.0117  0.2373
  192MOL0     C25789   8.052   1.846   1.902  1.1348 -0.1049 -1.0594
  192MOL0     C25790   8.066   1.903   1.780 -0.0695  0.0078  0.2560
  192MOL0     C25791   8.139   2.028   1.772  0.1972 -0.2941 -0.6454
  192MOL0     C25792   8.208   2.078   1.888  0.8208  0.5719 -0.2728
  192MOL0     O25793   8.279   2.194   1.885  0.8136  0.3373 -0.0171
  192MOL0     C25794   8.394   2.189   1.812 -0.0145  0.4973  0.1762
  192MOL0     C25795   8.500   2.263   1.890  0.4764 -0.0192  0.5523
  192MOL0     C25796   8.637   2.199   1.879  0.9767 -0.0190 -0.5008
  192MOL0     C25797   8.706   2.237   1.755 -0.7552  0.2159 -0.7999
  192MOL0     C25798   8.816   2.125   1.728  0.4984 -0.5871 -0.1485
  192MOL0     C25799   8.865   2.154   1.583  0.6258  0.6198 -0.9124
  192MOL0     C25800   8.785   2.073   1.475 -0.7770 -0.4055 -0.1585
  192MOL0     C25801   8.854   2.086   1.333 -0.0576 -0.2048 -0.6098
  192MOL0     N25802   8.808   1.994   1.237 -0.1893 -0.1020  0.6235
  192MOL0     C25803   8.840   1.992   1.099  0.5110 -1.2947 -1.1512
  192MOL0     C25804   8.758   1.901   1.040 -0.5563 -1.6021  0.5610
  192MOL0     C25805   8.737   1.873   0.894  0.3123 -0.9788 -0.0564
  192MOL0     C25806   8.780   1.735   0.849  0.2642 -0.8141 -0.8706
  192MOL0     C25807   8.690   1.620   0.898  0.9518 -0.3287 -0.0984
  192MOL0     C25808   8.546   1.635   0.849  0.3305  0.2571 -0.2245
  192MOL0     O25809   8.479   1.514   0.882  0.7066  0.3380 -0.5652
  192MOL0     C25810   8.350   1.505   0.829 -0.3372 -0.9357  0.4806
  192MOL0     C25811   8.273   1.610   0.779 -1.1494  1.1198  1.4909
  192MOL0     C25812   8.141   1.588   0.738  0.2306  0.1561  0.3317
  192MOL0     C25813   8.081   1.460   0.748  1.2846  0.3925  0.8263
  192MOL0     C25814   7.940   1.441   0.704 -0.8140 -0.9331  1.0778
  192MOL0     O25815   7.895   1.313   0.706 -0.1690 -0.0688  0.4145
  192MOL0     C25816   7.770   1.284   0.674  1.2923 -0.0966  0.0798
  192MOL0     C25817   7.679   1.333   0.577  0.1794 -0.0360 -1.1144
  192MOL0     C25818   7.556   1.281   0.542 -1.0997 -0.4178  0.3114
  192MOL0     C25819   7.504   1.159   0.606 -1.2277  0.6431 -0.2114
  192MOL0     O25820   7.379   1.124   0.575  0.0928 -0.1147  0.7828
  192MOL0     C25821   7.326   1.007   0.637  0.4730 -1.2505  0.0264
  192MOL0     C25822   7.376   0.876   0.574  0.3465  0.5701  0.2942
  192MOL0     C25823   7.390   0.761   0.674 -1.0550  0.4233  0.5093
  192MOL0     C25824   7.460   0.649   0.598 -0.3639  0.2075  0.2140
  192MOL0     C25825   7.404   0.513   0.664  0.0402  0.3633  0.0851
  192MOL0     C25826   7.263   0.475   0.606 -0.0863  0.1077  0.1082
  192MOL0     C25827   7.222   0.355   0.681  0.1929  1.1625 -0.3319
  192MOL0     C25828   7.074   0.330   0.685 -0.1469  0.2775 -0.4698
  192MOL0    Cl25829   6.990   0.431   0.810  0.0796 -0.5676  0.0984
  192MOL0     C25830   7.589   1.107   0.702  0.0192  0.0923 -0.4881
  192MOL0     C25831   7.711   1.170   0.742 -0.1061  0.1172 -0.1362
  192MOL0     O25832   7.882   1.540   0.660  0.4347  0.1532 -0.1000
  192MOL0     C25833   8.162   1.361   0.815 -1.2077 -0.1242 -0.3303
  192MOL0     C25834   8.292   1.383   0.854  1.1023 -0.3453  0.1423
  192MOL0     N25835   8.698   1.827   1.138  0.1090  0.4650 -0.3416
  192MOL0     N25836   8.734   1.882   1.254 -0.0445 -0.0811 -0.6687
  192MOL0     C25837   8.212   2.000   2.006 -0.5053 -0.3677  0.6027
  192MOL0     C25838   8.134   1.887   2.013  0.0131  0.5578 -0.3110
  192MOL0     C25839   7.936   1.497   1.922  0.6430 -0.6417 -0.2755
  192MOL0     C25840   7.817   1.507   1.849  0.0583 -0.6280  1.0165
  192MOL0     C25841   7.728   1.404   1.829  0.3830  0.8051  0.5077
  192MOL0     C25842   7.754   1.278   1.872 -0.4984 -0.5036  0.1188
  192MOL0     O25843   7.659   1.186   1.828 -0.1111  0.6542 -1.1234
  192MOL0     C25844   7.674   1.059   1.894 -0.9498  0.0872  0.2911
  192MOL0     C25845   7.540   0.988   1.866  0.0524  0.2256 -0.1453
  192MOL0     C25846   7.541   0.923   1.721 -0.4737  0.2723 -0.5056
  192MOL0     C25847   7.643   0.803   1.697 -0.2267 -0.5788 -0.4787
  192MOL0     C25848   7.602   0.743   1.575  0.0688 -0.3228  0.3073
  192MOL0     C25849   7.577   0.714   1.455  0.4093 -0.4544 -0.9542
  192MOL0     C25850   7.884   1.255   1.937 -0.0671 -0.4756  0.7768
  192MOL0     C25851   7.975   1.362   1.964  0.2499  0.2488  0.3220
  192MOL0     C25852   8.107   1.331   2.028  0.0691 -0.1077 -0.7436
  192MOL0     H25853   8.023   1.863   1.689  3.2263 -1.3631 -0.8568
  192MOL0     H25854   8.146   2.084   1.679 -0.2505  1.0665  0.1262
  192MOL0     H25855   8.436   2.090   1.796 -1.6384 -0.4138  1.3018
  192MOL0     H25856   8.378   2.238   1.715  2.1121  1.3248  0.1973
  192MOL0     H25857   8.467   2.261   1.994  1.0664 -0.7337  0.7300
  192MOL0     H25858   8.501   2.365   1.849 -0.3750  0.0215  0.6190
  192MOL0     H25859   8.627   2.091   1.889 -1.9242  0.1463 -0.7575
  192MOL0     H25860   8.694   2.238   1.964  0.9523  0.0489 -0.5157
  192MOL0     H25861   8.624   2.232   1.682 -3.0732 -3.7671  1.6560
  192MOL0     H25862   8.755   2.332   1.778 -1.7725 -0.1138  3.7731
  192MOL0     H25863   8.898   2.141   1.798  1.0994 -1.0944 -0.7298
  192MOL0     H25864   8.796   2.018   1.739 -1.0250 -0.0962  3.1561
  192MOL0     H25865   8.861   2.262   1.563 -0.2105  0.8050  0.1272
  192MOL0     H25866   8.972   2.133   1.581  0.2176 -1.5675 -3.0699
  192MOL0     H25867   8.680   2.104   1.465 -0.0735  2.3691  0.0486
  192MOL0     H25868   8.772   1.968   1.503  0.4172 -0.1852  1.3137
  192MOL0     H25869   8.836   2.193   1.319  2.0852  1.4815  6.0980
  192MOL0     H25870   8.960   2.062   1.345  0.2491  1.2496 -0.2171
  192MOL0     H25871   8.901   2.068   1.052  0.2081  0.6406  1.3653
  192MOL0     H25872   8.633   1.894   0.868  0.2260 -0.8853  0.3445
  192MOL0     H25873   8.796   1.945   0.837 -2.3601 -1.3961 -3.6885
  192MOL0     H25874   8.780   1.729   0.740  2.6629 -1.1025 -0.9202
  192MOL0     H25875   8.883   1.716   0.883  0.6509  0.4295 -1.2787
  192MOL0     H25876   8.689   1.589   1.003 -2.5672  0.0426  0.0940
  192MOL0     H25877   8.725   1.532   0.842  1.4396 -0.4038  0.3175
  192MOL0     H25878   8.539   1.644   0.740 -1.4154  0.9887 -0.0927
  192MOL0     H25879   8.497   1.716   0.905  1.1607 -0.1415  1.1344
  192MOL0     H25880   8.309   1.712   0.783  1.5038  0.3851 -0.4197
  192MOL0     H25881   8.082   1.674   0.708  1.4505  0.4887 -1.2569
  192MOL0     H25882   7.714   1.427   0.535 -0.1499  0.4153 -0.3856
  192MOL0     H25883   7.502   1.323   0.457  0.2159  1.1807  0.2064
  192MOL0     H25884   7.348   1.003   0.744  0.5274  0.5377  0.1099
  192MOL0     H25885   7.218   1.023   0.626  0.4642  0.7444  2.2495
  192MOL0     H25886   7.304   0.848   0.496  1.5024 -4.7737  0.7131
  192MOL0     H25887   7.475   0.899   0.535  0.9094 -2.5025 -0.3808
  192MOL0     H25888   7.443   0.791   0.765 -0.2361  2.9067 -0.6924
  192MOL0     H25889   7.288   0.735   0.704 -1.7047 -0.0097 -1.8754
  192MOL0     H25890   7.563   0.663   0.631 -0.1852 -0.1562 -0.1823
  192MOL0     H25891   7.452   0.654   0.489  1.0111 -0.2846  0.0669
  192MOL0     H25892   7.406   0.509   0.773  1.2486  0.2692  0.0732
  192MOL0     H25893   7.475   0.434   0.636 -1.2847 -0.5768 -0.7752
  192MOL0     H25894   7.185   0.552   0.617 -1.0246 -0.8514  0.2978
  192MOL0     H25895   7.276   0.452   0.499  2.0108  0.3447  0.2611
  192MOL0     H25896   7.249   0.350   0.786  0.8724 -0.9483 -0.5618
  192MOL0     H25897   7.269   0.273   0.626 -1.3552  1.4443 -2.1829
  192MOL0     H25898   7.033   0.359   0.588  0.3410  2.6692 -0.0270
  192MOL0     H25899   7.048   0.229   0.718  1.7221  0.4321  1.6938
  192MOL0     H25900   7.559   1.015   0.751 -2.4852  0.2433 -1.5522
  192MOL0     H25901   7.760   1.124   0.827 -0.2311  0.1947 -0.0209
  192MOL0     H25902   8.119   1.263   0.830 -2.8616  0.6498  0.1346
  192MOL0     H25903   8.354   1.307   0.899  0.7538  0.6865  2.4732
  192MOL0     H25904   8.288   2.022   2.082  1.2207 -0.1331 -1.1108
  192MOL0     H25905   8.121   1.843   2.112 -0.7170 -0.6334 -0.9106
  192MOL0     H25906   7.803   1.609   1.813 -0.0204 -0.4867  1.4329
  192MOL0     H25907   7.645   1.433   1.766  2.4136  1.4022 -2.0713
  192MOL0     H25908   7.683   1.052   2.002  0.9662 -1.4761  0.0795
  192MOL0     H25909   7.754   1.005   1.842 -2.1988  0.8471 -2.6360
  192MOL0     H25910   7.451   1.051   1.867 -0.7431 -0.8605 -0.1270
  192MOL0     H25911   7.534   0.906   1.938  0.6193 -0.2623 -0.6406
  192MOL0     H25912   7.558   1.003   1.649  0.6026  1.7925  1.3266
  192MOL0     H25913   7.438   0.889   1.703 -0.3980 -0.1176 -0.2087
  192MOL0     H25914   7.747   0.838   1.701 -1.1457  2.3637 -0.2331
  192MOL0     H25915   7.618   0.731   1.775 -0.9802 -2.1913 -2.1493
  192MOL0     H25916   7.569   0.690   1.351 -0.3609  1.9404 -1.5237
  192MOL0     H25917   7.918   1.154   1.957  1.1568 -0.7037 -2.0078
  192MOL0     H25918   8.193   1.353   1.965  0.6346  2.4752  0.7834
  192MOL0     H25919   8.127   1.383   2.122  2.9180  1.2475 -1.9762
  192MOL0     H25920   8.120   1.225   2.050 -3.1553 -0.7073 -1.2013
  193MOL0     O25921   0.628   6.771   9.030  0.0408  0.0496 -0.1966
  193MOL0     C25922   0.619   6.864   8.944  0.2765 -0.3952 -0.0692
  193MOL0     O25923   0.670   6.990   8.964 -0.5627  0.5698 -0.6858
  193MOL0     C25924   0.744   7.006   9.084  0.6023 -0.0616 -0.3748
  193MOL0     C25925   0.729   7.133   9.142 -0.7162  0.7905  0.1155
  193MOL0     C25926   0.789   7.160   9.266  0.0990  0.3588  0.4226
  193MOL0     C25927   0.890   7.068   9.327  1.3140 -0.2162  0.9610
  193MOL0     O25928   0.943   7.104   9.447 -0.6227 -0.9145  0.1607
  193MOL0     C25929   1.081   7.068   9.480  0.5706  0.0712  1.0167
  193MOL0     C25930   1.103   7.078   9.630  0.0096  0.5767  0.6883
  193MOL0     C25931   1.231   7.026   9.680 -0.2733  0.5767 -1.0474
  193MOL0     C25932   1.249   7.064   9.835 -0.3328 -0.4024 -0.5739
  193MOL0     C25933   1.305   7.200   9.876  0.0708  0.1605  0.6222
  193MOL0     C25934   1.298   7.208  10.032 -0.3819 -0.4775 -0.2021
  193MOL0     C25935   1.425   7.293  10.092 -0.0548  0.2654 -0.2172
  193MOL0     C25936   1.519   7.205  10.176 -0.8712  0.6059  0.8922
  193MOL0     N25937   1.631   7.145  10.101 -0.4251 -0.9575 -0.0159
  193MOL0     C25938   1.659   7.162   9.964 -1.1536  0.9063  0.6977
  193MOL0     C25939   1.766   7.081   9.946  0.3870  0.3608  0.0296
  193MOL0     C25940   1.848   7.078   9.817  0.0449 -0.0099  0.7212
  193MOL0     C25941   1.761   7.064   9.700  0.8344 -0.4639 -0.2033
  193MOL0     C25942   1.674   6.930   9.701 -0.4152 -0.4378 -0.1870
  193MOL0     C25943   1.611   6.863   9.567  0.1705 -0.5192 -0.4344
  193MOL0     O25944   1.562   6.969   9.497 -0.6135  0.2566  0.3423
  193MOL0     C25945   1.506   6.954   9.369 -0.6261 -0.5078 -0.9894
  193MOL0     C25946   1.501   6.837   9.298 -1.1069  0.6708  1.1484
  193MOL0     C25947   1.425   6.836   9.183  1.2439  0.1980 -0.6175
  193MOL0     C25948   1.343   6.951   9.139 -0.4554  0.9641 -0.7386
  193MOL0     C25949   1.280   6.941   9.013  0.5605 -0.0130  0.7258
  193MOL0     O25950   1.228   7.057   8.956  0.3963 -0.1526 -0.2220
  193MOL0     C25951   1.173   7.042   8.830 -0.1784  0.3585 -0.6921
  193MOL0     C25952   1.240   7.073   8.722  0.9382  0.1739  0.0522
  193MOL0     C25953   1.193   7.029   8.596 -0.4190 -1.1093  0.9965
  193MOL0     C25954   1.067   6.969   8.583  0.6337 -0.1724  0.7731
  193MOL0     O25955   1.013   6.942   8.468  0.0234  0.4164  0.6620
  193MOL0     C25956   1.076   6.974   8.348 -0.0075  0.3428  1.4365
  193MOL0     C25957   0.961   7.018   8.256 -0.0911 -0.9431 -1.0386
  193MOL0     C25958   1.012   7.101   8.137  0.4049  0.6275  1.2374
  193MOL0     C25959   0.917   7.089   8.011  0.3145 -1.1575 -0.9909
  193MOL0     C25960   0.946   6.964   7.934  0.3815  1.4479  0.2353
  193MOL0     C25961   0.822   6.894   7.882 -0.0510 -0.0346  0.6584
  193MOL0     C25962   0.737   6.976   7.779 -0.3771 -0.4803  0.8202
  193MOL0     C25963   0.809   7.012   7.642  0.5833  0.0723  0.1640
  193MOL0    Cl25964   0.710   7.140   7.560 -0.5878 -0.2805 -0.6260
  193MOL0     C25965   0.998   6.944   8.698  0.8144 -0.2141 -0.7668
  193MOL0     C25966   1.047   6.980   8.825  0.0128 -0.7101 -0.1075
  193MOL0     O25967   1.271   6.832   8.959 -0.7433  0.1474 -0.0550
  193MOL0     C25968   1.347   7.060   9.216 -0.1100 -0.4233  0.0634
  193MOL0     C25969   1.430   7.065   9.332  0.9358 -0.1417  1.1320
  193MOL0     N25970   1.812   7.026  10.062 -0.4394 -0.3541  0.5461
  193MOL0     N25971   1.731   7.066  10.157 -0.5568 -0.2489  1.0162
  193MOL0     C25972   0.912   6.949   9.254  0.8006  0.2597  0.4593
  193MOL0     C25973   0.843   6.921   9.136  0.6110  0.3045 -0.3234
  193MOL0     C25974   0.546   6.838   8.821  0.1927 -0.1332 -0.1682
  193MOL0     C25975   0.584   6.904   8.706  0.7042 -0.3464 -0.6100
  193MOL0     C25976   0.526   6.880   8.576 -0.1704  0.4577  0.2985
  193MOL0     C25977   0.424   6.792   8.569  0.5368 -0.2856 -0.2079
  193MOL0     O25978   0.357   6.764   8.454  0.3056  0.0795  0.0804
  193MOL0     C25979   0.396   6.839   8.337  0.4388  0.1681  0.3152
  193MOL0     C25980   0.301   6.815   8.218  0.8468 -0.3264  0.2072
  193MOL0     C25981   0.159   6.852   8.260 -0.5865  0.0429 -0.5422
  193MOL0     C25982   0.057   6.878   8.146  0.2941  0.5809 -0.9329
  193MOL0     C25983   0.066   7.015   8.099 -0.6029  0.1501  1.1303
  193MOL0     C25984   0.100   7.128   8.054  0.1286  1.2892  1.0887
  193MOL0     C25985   0.388   6.732   8.682  0.6010 -0.2464 -0.8104
  193MOL0     C25986   0.436   6.748   8.814 -0.7128  0.9394 -0.0337
  193MOL0     C25987   0.362   6.676   8.923 -0.7650 -1.1572  0.5075
  193MOL0     H25988   0.655   7.202   9.101  1.4144  3.3414  0.2640
  193MOL0     H25989   0.750   7.244   9.322 -5.6442 -2.2707  1.0264
  193MOL0     H25990   1.086   6.963   9.451  0.9016  0.1052  0.9517
  193MOL0     H25991   1.151   7.133   9.428 -2.2532  1.8648 -0.8616
  193MOL0     H25992   1.022   7.021   9.677 -0.2789  1.6577  1.5495
  193MOL0     H25993   1.092   7.183   9.657 -1.8565  0.3219  1.1023
  193MOL0     H25994   1.317   7.047   9.616 -1.2713  2.2670 -1.8992
  193MOL0     H25995   1.228   6.916   9.684  1.6998  0.5391  1.2856
  193MOL0     H25996   1.155   7.064   9.891  0.5512  1.5540  1.0416
  193MOL0     H25997   1.322   6.996   9.880 -0.0664 -0.3094 -0.8617
  193MOL0     H25998   1.408   7.205   9.841 -0.2103  0.6911 -0.1555
  193MOL0     H25999   1.244   7.285   9.842  0.3306 -0.5721 -1.8365
  193MOL0     H26000   1.204   7.254  10.062  0.1717 -2.0905  4.9863
  193MOL0     H26001   1.290   7.116  10.091 -0.2093  0.0972  0.7341
  193MOL0     H26002   1.385   7.366  10.164  2.4881  2.9695 -1.3582
  193MOL0     H26003   1.477   7.359  10.023  3.0682 -1.1170  0.6517
  193MOL0     H26004   1.569   7.253  10.260  1.3039  0.7269 -0.3771
  193MOL0     H26005   1.462   7.117  10.207  0.6798 -0.7426  0.0994
  193MOL0     H26006   1.611   7.227   9.892  1.1552  3.5097  1.3314
  193MOL0     H26007   1.910   7.168   9.810  1.6647 -1.1270  0.0454
  193MOL0     H26008   1.906   6.986   9.820 -0.7786 -0.5748 -0.1136
  193MOL0     H26009   1.692   7.149   9.700  0.7298 -0.5114 -1.8874
  193MOL0     H26010   1.827   7.066   9.613  0.3868 -1.6707 -0.5927
  193MOL0     H26011   1.597   6.938   9.779 -1.2457 -2.8450 -0.6719
  193MOL0     H26012   1.749   6.854   9.726 -0.0090 -0.5594 -1.7167
  193MOL0     H26013   1.524   6.801   9.590 -0.5061  0.4180 -0.4150
  193MOL0     H26014   1.692   6.823   9.506  1.0929  1.4378 -0.5890
  193MOL0     H26015   1.566   6.754   9.321  0.5630  0.7810 -2.5259
  193MOL0     H26016   1.424   6.753   9.113 -1.1362  1.7636 -2.6313
  193MOL0     H26017   1.328   7.134   8.742  0.4068  1.5697 -1.5683
  193MOL0     H26018   1.262   7.051   8.515  1.5875  0.3676  2.9906
  193MOL0     H26019   1.152   7.052   8.353  0.4706  0.3191 -2.2248
  193MOL0     H26020   1.115   6.882   8.304 -2.1002 -0.5701  1.3833
  193MOL0     H26021   0.909   6.929   8.220 -1.6562 -1.4101  1.9905
  193MOL0     H26022   0.897   7.067   8.331 -0.2929 -0.2173 -1.6730
  193MOL0     H26023   1.020   7.203   8.174  0.3993  0.4610  1.7034
  193MOL0     H26024   1.110   7.069   8.101  0.8647  1.7961  1.4176
  193MOL0     H26025   0.926   7.176   7.946  2.6884  0.0525  0.7832
  193MOL0     H26026   0.818   7.088   8.058 -0.1774 -1.6293 -2.0235
  193MOL0     H26027   0.994   6.892   8.001 -1.4890  0.0318  0.1618
  193MOL0     H26028   1.007   6.989   7.848  0.8896  4.7061  1.3954
  193MOL0     H26029   0.856   6.804   7.829 -0.7814 -0.2243  0.5093
  193MOL0     H26030   0.747   6.868   7.956 -1.8410 -0.2817 -1.1622
  193MOL0     H26031   0.709   7.077   7.813 -1.5670 -0.7520  0.6938
  193MOL0     H26032   0.642   6.925   7.758 -0.4720 -0.4291  1.1083
  193MOL0     H26033   0.910   7.054   7.654  0.5248 -0.2335  2.0117
  193MOL0     H26034   0.819   6.928   7.574 -0.4528 -0.0998  0.2096
  193MOL0     H26035   0.905   6.888   8.696  1.1682 -0.7928 -1.6291
  193MOL0     H26036   0.998   6.968   8.922 -0.8034  0.6618 -0.3276
  193MOL0     H26037   1.286   7.139   9.175 -1.0516 -1.5310 -0.7398
  193MOL0     H26038   1.408   7.149   9.398 -1.3024 -1.8648  2.6917
  193MOL0     H26039   0.992   6.886   9.293  0.8330  0.1672  0.2411
  193MOL0     H26040   0.869   6.830   9.082  3.2778  0.1540  1.0360
  193MOL0     H26041   0.663   6.978   8.710  1.9261 -1.6415  2.9770
  193MOL0     H26042   0.562   6.942   8.494  1.0874 -0.5223  0.0728
  193MOL0     H26043   0.501   6.819   8.318  0.8114  1.1797  1.2250
  193MOL0     H26044   0.370   6.943   8.359 -4.2463 -0.8598  0.8051
  193MOL0     H26045   0.309   6.713   8.180  3.7946 -0.6710  1.4925
  193MOL0     H26046   0.331   6.881   8.136 -1.6536  0.0466 -0.5072
  193MOL0     H26047   0.158   6.947   8.314 -4.2280 -1.2788  2.0856
  193MOL0     H26048   0.125   6.773   8.327  0.2025  1.3159  1.4325
  193MOL0     H26049   0.082   6.809   8.065  0.5306  0.1991 -0.5354
  193MOL0     H26050  -0.042   6.860   8.188  0.7178 -0.3064 -0.2892
  193MOL0     H26051   0.119   7.220   8.003 -1.8686  0.9841 -0.3116
  193MOL0     H26052   0.298   6.672   8.669  0.1613 -0.0872  1.1530
  193MOL0     H26053   0.369   6.727   9.020 -1.3659 -2.3410  1.1847
  193MOL0     H26054   0.254   6.687   8.912 -0.7736  1.0889  2.2038
  193MOL0     H26055   0.396   6.573   8.934 -4.0311 -2.5638 -1.2626
  194MOL0     O26056   2.657   1.141   4.557 -0.0529 -0.1723  0.7322
  194MOL0     C26057   2.656   1.187   4.670 -0.1167 -0.6414 -0.5314
  194MOL0     O26058   2.732   1.148   4.779 -0.6552  1.2876 -0.1191
  194MOL0     C26059   2.836   1.064   4.767  0.5598 -1.0416  0.4467
  194MOL0     C26060   2.821   0.942   4.710 -0.1637  0.8701 -0.0694
  194MOL0     C26061   2.927   0.858   4.710 -0.1688  0.5554  0.0946
  194MOL0     C26062   3.041   0.878   4.781 -0.6769 -0.6655 -0.3361
  194MOL0     O26063   3.126   0.769   4.791  0.1531  0.1580 -0.0301
  194MOL0     C26064   3.214   0.763   4.909  0.2171  0.1801  0.5476
  194MOL0     C26065   3.310   0.644   4.905  0.1841 -0.6582 -0.0174
  194MOL0     C26066   3.411   0.628   5.029  1.0127  0.6080 -0.7689
  194MOL0     C26067   3.535   0.543   4.993 -0.7138 -0.1214 -0.1134
  194MOL0     C26068   3.631   0.525   5.115 -0.0784 -0.6183 -0.5332
  194MOL0     C26069   3.761   0.445   5.072  0.4324 -0.6687 -0.3446
  194MOL0     C26070   3.882   0.425   5.164  0.0534  0.7753 -0.8850
  194MOL0     C26071   3.848   0.346   5.297 -0.6509  0.0468 -0.2912
  194MOL0     N26072   3.953   0.277   5.373 -0.3929 -0.2282  0.0872
  194MOL0     C26073   4.021   0.166   5.336  0.1130 -0.4107  0.0411
  194MOL0     C26074   4.105   0.135   5.440 -0.6749  0.7869 -0.1804
  194MOL0     C26075   4.189   0.012   5.451 -0.4355 -1.2715  0.4145
  194MOL0     C26076   4.315   0.030   5.542 -1.0339  0.1774 -0.1509
  194MOL0     C26077   4.275   0.002   5.687 -1.7976  0.4562  0.2026
  194MOL0     C26078   4.395   0.010   5.781  0.4563  0.7790 -1.1489
  194MOL0     O26079   4.468  -0.117   5.790  0.1298 -0.0170  0.5387
  194MOL0     C26080   4.516  -0.153   5.912 -0.8784 -1.4080 -0.5936
  194MOL0     C26081   4.652  -0.171   5.920 -0.9630  0.8517 -1.0477
  194MOL0     C26082   4.697  -0.200   6.054 -1.1878 -0.5214 -0.0223
  194MOL0     C26083   4.624  -0.196   6.177  0.0149 -0.5736 -0.4611
  194MOL0     C26084   4.670  -0.221   6.317  1.0417 -0.4077 -0.2212
  194MOL0     O26085   4.578  -0.189   6.419 -0.0465 -0.2572 -0.4971
  194MOL0     C26086   4.627  -0.192   6.552  0.0863 -0.6019  0.5923
  194MOL0     C26087   4.518  -0.198   6.637  0.4796  0.0677  0.5061
  194MOL0     C26088   4.546  -0.214   6.778  0.5540  0.2847 -0.0909
  194MOL0     C26089   4.675  -0.218   6.829 -0.1329  0.0461 -0.1963
  194MOL0     O26090   4.712  -0.218   6.958  0.2224 -0.2508 -0.0245
  194MOL0     C26091   4.652  -0.120   7.049 -0.6466  0.2042 -0.2042
  194MOL0     C26092   4.682   0.027   6.997  0.2312  0.3587 -0.9152
  194MOL0     C26093   4.839   0.059   7.025 -0.7385 -0.5889  0.5686
  194MOL0     C26094   4.886   0.189   6.962 -0.0623  0.1443  0.4089
  194MOL0     C26095   4.799   0.312   6.996 -1.2605 -0.1243  1.9722
  194MOL0     C26096   4.854   0.427   6.912 -0.1872 -0.3664  0.1336
  194MOL0     C26097   4.778   0.554   6.941  0.8670 -0.2337  0.7044
  194MOL0     C26098   4.819   0.678   6.846 -0.2409 -0.4395  0.1718
  194MOL0    Cl26099   4.965   0.751   6.916  0.0675 -0.0443 -0.1276
  194MOL0     C26100   4.783  -0.205   6.738  0.2488  0.1751 -0.4086
  194MOL0     C26101   4.755  -0.190   6.604 -0.1403 -0.1419  0.1843
  194MOL0     O26102   4.774  -0.282   6.326 -0.5390 -0.4277 -0.5407
  194MOL0     C26103   4.491  -0.176   6.156  0.0335 -0.6609 -1.0189
  194MOL0     C26104   4.438  -0.165   6.032 -0.1500 -0.7165 -0.5998
  194MOL0     N26105   4.083   0.232   5.539 -0.3990 -0.1862  0.4838
  194MOL0     N26106   4.007   0.322   5.487  0.3732 -0.5729 -0.4091
  194MOL0     C26107   3.060   1.005   4.836 -0.3707 -0.7131 -0.3879
  194MOL0     C26108   2.957   1.105   4.824 -0.3792  0.6756 -0.1248
  194MOL0     C26109   2.559   1.302   4.697  0.3947  0.2369 -0.4493
  194MOL0     C26110   2.522   1.333   4.827  0.4938 -0.3680 -1.1091
  194MOL0     C26111   2.434   1.432   4.861 -0.0258 -0.8587 -0.1016
  194MOL0     C26112   2.369   1.503   4.759  0.0319  0.1400 -0.8950
  194MOL0     O26113   2.281   1.603   4.788  0.5841  0.5055 -0.1912
  194MOL0     C26114   2.246   1.649   4.917 -0.3636 -0.2124  0.3374
  194MOL0     C26115   2.107   1.707   4.894  0.0112 -0.2758 -0.4742
  194MOL0     C26116   2.109   1.837   4.808 -0.2886 -0.9407 -0.0505
  194MOL0     C26117   1.992   1.921   4.828  1.3689 -0.7499  0.3087
  194MOL0     C26118   1.876   1.877   4.748  0.6408  0.2973 -0.2944
  194MOL0     C26119   1.784   1.834   4.681 -0.4945 -0.8316 -0.2028
  194MOL0     C26120   2.397   1.475   4.630  0.2744  0.7465 -0.1930
  194MOL0     C26121   2.483   1.376   4.596 -0.0383 -0.5398  0.2661
  194MOL0     C26122   2.479   1.340   4.445 -0.6173  0.0798 -0.0453
  194MOL0     H26123   2.729   0.918   4.659 -0.1481  0.0414  0.2638
  194MOL0     H26124   2.912   0.757   4.674 -2.0041 -0.9250  4.3333
  194MOL0     H26125   3.279   0.851   4.912  1.2736 -0.3592 -2.6215
  194MOL0     H26126   3.157   0.758   5.002 -0.4977 -1.0670  0.0735
  194MOL0     H26127   3.372   0.649   4.815  1.1752  0.4559  0.6922
  194MOL0     H26128   3.255   0.550   4.907  1.6661 -1.5596  0.0210
  194MOL0     H26129   3.349   0.593   5.112  0.5818 -2.1286 -2.1226
  194MOL0     H26130   3.454   0.728   5.046 -1.7339  1.9048 -0.9689
  194MOL0     H26131   3.509   0.446   4.949  1.1588  0.1565 -1.9835
  194MOL0     H26132   3.592   0.603   4.921 -0.5321 -0.2346 -0.0642
  194MOL0     H26133   3.660   0.623   5.153  0.2883 -0.4507 -1.2304
  194MOL0     H26134   3.575   0.465   5.187  0.5483 -2.4778 -1.5198
  194MOL0     H26135   3.727   0.351   5.027 -0.8589 -0.7909  0.8126
  194MOL0     H26136   3.802   0.507   4.991  0.5581 -2.4525 -1.7181
  194MOL0     H26137   3.919   0.526   5.184  1.0227  0.6795 -2.0990
  194MOL0     H26138   3.949   0.365   5.102  0.5481  0.3707  0.0314
  194MOL0     H26139   3.801   0.418   5.364 -0.0663 -2.5088  3.1771
  194MOL0     H26140   3.768   0.274   5.276  0.4851 -0.6178 -2.7196
  194MOL0     H26141   3.990   0.116   5.245 -0.8409  2.1249 -1.1100
  194MOL0     H26142   4.128  -0.074   5.481 -0.1964 -1.2191  1.0637
  194MOL0     H26143   4.210  -0.001   5.344 -1.7363 -1.4551  0.1641
  194MOL0     H26144   4.405  -0.027   5.518 -2.0710 -3.1056  2.9283
  194MOL0     H26145   4.356   0.131   5.551 -0.1327 -0.3570  3.4618
  194MOL0     H26146   4.231  -0.097   5.700  3.0480 -1.8406  1.5200
  194MOL0     H26147   4.209   0.085   5.714  0.9319  3.1497 -0.7289
  194MOL0     H26148   4.361   0.056   5.874 -2.4387 -3.2978  0.1004
  194MOL0     H26149   4.477   0.076   5.752  0.7101  1.5513  1.1273
  194MOL0     H26150   4.706  -0.161   5.827 -0.6679  0.6703 -0.8970
  194MOL0     H26151   4.801  -0.228   6.065 -1.0714 -0.5541 -1.0725
  194MOL0     H26152   4.420  -0.193   6.591  0.2265 -1.7331  0.7969
  194MOL0     H26153   4.465  -0.220   6.850  0.2096  0.7945 -0.4323
  194MOL0     H26154   4.543  -0.132   7.039 -0.4568  0.4307 -4.4222
  194MOL0     H26155   4.682  -0.129   7.153  4.8993 -1.8651 -1.6486
  194MOL0     H26156   4.659   0.039   6.891  1.1603  0.7785 -1.0849
  194MOL0     H26157   4.624   0.101   7.053  1.2747  2.7223 -2.7816
  194MOL0     H26158   4.844   0.056   7.134 -0.8408  0.6497  0.6158
  194MOL0     H26159   4.913  -0.011   6.984  2.9155  2.8272  0.6621
  194MOL0     H26160   4.885   0.176   6.853  2.0996  0.0630  0.3523
  194MOL0     H26161   4.993   0.209   6.973  0.7955 -2.6745 -1.5043
  194MOL0     H26162   4.807   0.335   7.102 -0.5303 -0.2914  1.9566
  194MOL0     H26163   4.700   0.297   6.951 -0.4022 -0.1298 -0.0105
  194MOL0     H26164   4.958   0.433   6.946  0.7745  0.4172 -2.6646
  194MOL0     H26165   4.851   0.383   6.812 -4.5927 -1.9661  0.7638
  194MOL0     H26166   4.808   0.583   7.043  4.4227 -2.9659  0.6403
  194MOL0     H26167   4.671   0.537   6.933  0.9043  0.5576 -4.7821
  194MOL0     H26168   4.841   0.641   6.745  0.3351 -2.3529  0.9442
  194MOL0     H26169   4.742   0.756   6.849  0.6138  0.3955  2.3817
  194MOL0     H26170   4.886  -0.198   6.770  0.7456  1.5839 -2.1532
  194MOL0     H26171   4.839  -0.190   6.534 -0.9296 -0.4089 -0.7898
  194MOL0     H26172   4.427  -0.179   6.244 -1.1068 -1.1353 -1.8419
  194MOL0     H26173   4.334  -0.138   6.018  0.5762  3.7642  0.7989
  194MOL0     H26174   3.152   1.048   4.873 -1.0267  0.4877 -0.0824
  194MOL0     H26175   2.951   1.196   4.881  2.2126  0.2812  0.9089
  194MOL0     H26176   2.565   1.267   4.902  3.4443  1.7842 -0.7155
  194MOL0     H26177   2.427   1.441   4.968  0.0704  1.1892 -0.2314
  194MOL0     H26178   2.327   1.718   4.945  1.5270 -1.5693 -1.4296
  194MOL0     H26179   2.233   1.563   4.983 -0.3752 -0.2994  0.2227
  194MOL0     H26180   2.060   1.721   4.992 -1.0165 -1.4158 -0.7822
  194MOL0     H26181   2.057   1.629   4.836 -3.8173  1.6994 -0.1519
  194MOL0     H26182   2.120   1.813   4.702 -1.0890  3.5228 -1.3623
  194MOL0     H26183   2.202   1.885   4.840  0.0460 -2.8033  1.9587
  194MOL0     H26184   1.952   1.909   4.929 -0.9893  1.5502 -0.2517
  194MOL0     H26185   1.998   2.028   4.809 -2.8500  0.3338  3.5627
  194MOL0     H26186   1.704   1.799   4.618 -0.2959 -0.7110 -0.5251
  194MOL0     H26187   2.331   1.526   4.562 -2.4636  0.4669  2.0640
  194MOL0     H26188   2.579   1.339   4.400 -0.6015 -0.5536 -0.0014
  194MOL0     H26189   2.425   1.249   4.417  1.2824 -0.5750 -1.8547
  194MOL0     H26190   2.422   1.409   4.383 -3.0557 -3.1534 -1.6950
  195MOL0     O26191   7.832  10.677   2.565  0.4815  0.5597  0.0419
  195MOL0     C26192   7.803  10.740   2.462 -0.0974 -0.7688 -0.6895
  195MOL0     O26193   7.869  10.850   2.421  0.1364 -0.8267 -0.3097
  195MOL0     C26194   7.945  10.931   2.501 -0.1496 -0.4328 -0.0088
  195MOL0     C26195   8.087  10.923   2.486 -0.3485  1.1335  0.2773
  195MOL0     C26196   8.171  10.984   2.583  1.4661 -0.4518  0.3429
  195MOL0     C26197   8.116  11.077   2.673  0.5591  0.6407 -0.5967
  195MOL0     O26198   8.186  11.150   2.760  0.7630 -0.0796  0.1267
  195MOL0     C26199   8.306  11.091   2.814  0.3245  0.2561  0.1421
  195MOL0     C26200   8.357  11.181   2.928  0.8203 -0.0041 -0.7459
  195MOL0     C26201   8.489  11.138   2.988 -1.1263 -0.6966  0.6612
  195MOL0     C26202   8.553  11.246   3.076 -0.1196 -0.7166  0.3313
  195MOL0     C26203   8.672  11.184   3.160  0.1272  0.3389 -0.3165
  195MOL0     C26204   8.728  11.287   3.256  0.1197 -0.6664 -0.1589
  195MOL0     C26205   8.766  11.236   3.401 -0.0038  0.0051  0.1093
  195MOL0     C26206   8.886  11.141   3.395 -0.0239  0.8012 -0.1791
  195MOL0     N26207   8.864  11.043   3.502  0.7785  0.0880 -0.5390
  195MOL0     C26208   8.852  10.902   3.487  0.1756 -0.3538 -0.4849
  195MOL0     C26209   8.852  10.845   3.617 -0.1683  0.1998  0.4336
  195MOL0     C26210   8.823  10.709   3.682 -0.2914  0.2889  0.9307
  195MOL0     C26211   8.914  10.606   3.604 -0.5800 -0.0521  0.4315
  195MOL0     C26212   8.974  10.498   3.690  0.3375 -0.4776 -0.1369
  195MOL0     C26213   8.857  10.429   3.773  0.9491  1.1243  0.4901
  195MOL0     O26214   8.743  10.372   3.690 -0.2143  0.3242 -0.5377
  195MOL0     C26215   8.761  10.242   3.655  0.9070  1.1970 -0.0565
  195MOL0     C26216   8.867  10.162   3.653  0.4101  0.0558  0.3054
  195MOL0     C26217   8.871  10.029   3.612  0.7839 -1.4814  0.7922
  195MOL0     C26218   8.755   9.975   3.557  0.2362  0.4233 -0.3293
  195MOL0     C26219   8.767   9.834   3.516 -0.5091 -0.1700 -0.0746
  195MOL0     O26220   8.889   9.779   3.525 -0.2998 -0.6216 -0.6041
  195MOL0     C26221   8.922   9.650   3.504 -0.0353  0.2125 -0.2871
  195MOL0     C26222   8.877   9.580   3.391 -0.2913 -0.0361 -0.4271
  195MOL0     C26223   8.917   9.456   3.357  0.3116  0.7010 -0.1901
  195MOL0     C26224   9.004   9.388   3.449 -0.7761  0.9963 -0.1043
  195MOL0     O26225   9.052   9.259   3.421  0.4892  0.6755 -0.2645
  195MOL0     C26226   9.077   9.179   3.540  0.3043  0.3811  0.5078
  195MOL0     C26227   8.973   9.155   3.648  1.0512  0.0930 -0.8607
  195MOL0     C26228   8.836   9.107   3.596  0.1378  0.8950 -1.0597
  195MOL0     C26229   8.838   8.943   3.573 -0.2044 -0.5133  0.3637
  195MOL0     C26230   8.704   8.892   3.543  0.4314  0.2484  0.1979
  195MOL0     C26231   8.630   8.865   3.674  0.0822 -0.2424  0.5060
  195MOL0     C26232   8.496   8.796   3.637  0.0486  0.1996  0.3057
  195MOL0     C26233   8.435   8.735   3.755  0.2527 -0.7086  0.0803
  195MOL0    Cl26234   8.279   8.716   3.714  0.6167  0.0698 -0.5990
  195MOL0     C26235   9.053   9.456   3.562 -0.0631  0.2199  0.5957
  195MOL0     C26236   9.017   9.589   3.584 -0.5856  0.1476  0.1051
  195MOL0     O26237   8.670   9.776   3.470 -0.6240  0.3253  0.6841
  195MOL0     C26238   8.635  10.052   3.566  0.5730  0.4432 -1.1025
  195MOL0     C26239   8.639  10.184   3.616 -0.9804 -0.5595 -0.3824
  195MOL0     N26240   8.865  10.958   3.699 -0.8657  0.9916 -0.2679
  195MOL0     N26241   8.873  11.065   3.636  0.0089 -0.0980  0.5890
  195MOL0     C26242   7.979  11.083   2.685  0.4892 -0.5880 -0.3057
  195MOL0     C26243   7.896  11.017   2.596  0.4444 -0.1587 -0.1963
  195MOL0     C26244   7.690  10.700   2.374  0.1377 -1.1849 -0.5621
  195MOL0     C26245   7.668  10.779   2.253 -0.3824 -0.0068 -0.3807
  195MOL0     C26246   7.568  10.748   2.165 -0.8221  0.8588  0.6057
  195MOL0     C26247   7.494  10.635   2.186 -0.1879 -0.1946  0.8640
  195MOL0     O26248   7.407  10.604   2.083  0.3039 -0.5578 -0.1994
  195MOL0     C26249   7.305  10.498   2.111  0.6571 -0.4453 -0.3701
  195MOL0     C26250   7.206  10.477   1.990 -0.4763 -0.7265 -0.8139
  195MOL0     C26251   7.064  10.433   2.028 -0.4281  0.5899 -0.2721
  195MOL0     C26252   6.989  10.391   1.906  0.2879 -0.9333 -0.5659
  195MOL0     C26253   6.858  10.327   1.954  0.5842  0.3218 -0.8534
  195MOL0     C26254   6.764  10.267   2.001  0.4421 -1.1527 -0.5074
  195MOL0     C26255   7.507  10.565   2.306  1.1788  0.9453 -0.2796
  195MOL0     C26256   7.611  10.582   2.398  0.4368  0.0534  0.0848
  195MOL0     C26257   7.622  10.491   2.522 -0.2298 -0.0892  0.4037
  195MOL0     H26258   8.125  10.856   2.410 -1.5026  0.1360  0.5302
  195MOL0     H26259   8.276  10.957   2.579  2.4683  3.1185 -2.0336
  195MOL0     H26260   8.278  11.002   2.872 -1.9190  1.0543  0.3852
  195MOL0     H26261   8.382  11.080   2.736  0.0654  3.1231 -0.6084
  195MOL0     H26262   8.281  11.190   3.006  3.7613  1.6443  2.1921
  195MOL0     H26263   8.361  11.280   2.882 -1.6508 -0.0836 -1.2275
  195MOL0     H26264   8.561  11.111   2.910 -1.1710 -1.3003  0.8258
  195MOL0     H26265   8.463  11.044   3.036 -1.9474  0.8058  3.3778
  195MOL0     H26266   8.587  11.330   3.016 -1.3455  0.6848  1.5147
  195MOL0     H26267   8.480  11.294   3.141 -0.8376 -2.0153  0.5209
  195MOL0     H26268   8.642  11.096   3.218  0.3626  2.3509  3.1259
  195MOL0     H26269   8.756  11.150   3.099  1.4758  0.4113  1.4237
  195MOL0     H26270   8.815  11.337   3.215 -1.0153 -1.5380 -3.9881
  195MOL0     H26271   8.651  11.365   3.257 -1.7445 -2.2995 -2.9095
  195MOL0     H26272   8.683  11.178   3.443  0.2799 -1.1301 -0.8387
  195MOL0     H26273   8.781  11.314   3.476 -1.4529 -0.7597  1.2287
  195MOL0     H26274   8.896  11.085   3.302  0.9130 -2.0829  1.5316
  195MOL0     H26275   8.981  11.193   3.413 -0.0919  1.3803 -1.4029
  195MOL0     H26276   8.845  10.844   3.396  0.4121  0.5302 -1.0750
  195MOL0     H26277   8.852  10.712   3.787  1.3487 -3.4576  0.7404
  195MOL0     H26278   8.717  10.687   3.667 -0.6258  2.9784 -1.4170
  195MOL0     H26279   8.851  10.565   3.525 -3.4169 -0.8826  2.8917
  195MOL0     H26280   8.996  10.659   3.556 -0.9242  0.3205  0.2454
  195MOL0     H26281   9.051  10.535   3.759 -0.0287  0.2553 -0.1174
  195MOL0     H26282   9.020  10.434   3.615 -3.9400 -0.4699 -3.1022
  195MOL0     H26283   8.797  10.495   3.836 -0.6859 -3.7103  4.6770
  195MOL0     H26284   8.905  10.353   3.835  3.7967  0.2723 -2.4871
  195MOL0     H26285   8.965  10.203   3.679  0.6820  0.0100 -0.6040
  195MOL0     H26286   8.970   9.985   3.613  2.3980  1.5215 -2.2086
  195MOL0     H26287   8.823   9.648   3.326 -0.8470  1.5269  1.5556
  195MOL0     H26288   8.893   9.395   3.270 -1.8913 -3.1783  2.7973
  195MOL0     H26289   9.098   9.089   3.482  0.6049  1.7544 -1.6327
  195MOL0     H26290   9.170   9.208   3.590 -0.0281 -1.7363  2.5178
  195MOL0     H26291   9.005   9.082   3.723  3.1079  2.6020  0.8920
  195MOL0     H26292   8.963   9.249   3.703  0.9815 -0.3183 -0.1642
  195MOL0     H26293   8.758   9.127   3.670  1.7621  1.5425  0.5606
  195MOL0     H26294   8.810   9.158   3.504  2.5967  1.4998 -1.4792
  195MOL0     H26295   8.864   8.898   3.670  1.5389 -0.4680 -0.0580
  195MOL0     H26296   8.919   8.914   3.506 -1.4974 -1.4939 -0.8280
  195MOL0     H26297   8.712   8.794   3.495  0.5047  0.6451 -0.6088
  195MOL0     H26298   8.655   8.969   3.482 -0.5610  1.2850  2.1896
  195MOL0     H26299   8.683   8.794   3.738 -0.3307 -1.2027 -0.1917
  195MOL0     H26300   8.605   8.956   3.729 -0.1314 -0.8663  1.4793
  195MOL0     H26301   8.525   8.726   3.558  1.9933  0.4622  0.7415
  195MOL0     H26302   8.425   8.871   3.600 -0.7836  1.7160  4.4541
  195MOL0     H26303   8.487   8.640   3.772  1.8046  0.0290 -0.3337
  195MOL0     H26304   8.441   8.801   3.842  1.5197 -3.7352  2.4695
  195MOL0     H26305   9.128   9.412   3.627  2.0317  0.6810 -1.3792
  195MOL0     H26306   9.051   9.643   3.672  1.7018 -0.0242 -0.5988
  195MOL0     H26307   8.540  10.025   3.522 -0.1437  0.7207  0.1991
  195MOL0     H26308   8.554  10.251   3.613  0.3124  1.1635 -0.0106
  195MOL0     H26309   7.930  11.150   2.754 -0.0597 -0.1839 -1.0815
  195MOL0     H26310   7.790  11.040   2.603  0.3150 -0.5768 -0.7346
  195MOL0     H26311   7.734  10.861   2.229 -2.0842  2.1979  1.9968
  195MOL0     H26312   7.558  10.798   2.069 -4.1126 -2.8311 -1.3213
  195MOL0     H26313   7.250  10.530   2.200  2.2756  0.6577  0.2944
  195MOL0     H26314   7.362  10.406   2.126 -3.2650 -2.5540  4.5745
  195MOL0     H26315   7.249  10.410   1.915  2.7268  0.0894  0.1715
  195MOL0     H26316   7.194  10.569   1.932  0.0288 -0.2667 -0.2070
  195MOL0     H26317   7.011  10.514   2.077 -0.5702  2.4295 -3.1998
  195MOL0     H26318   7.055  10.348   2.096 -4.0727  1.5833  0.6935
  195MOL0     H26319   6.969  10.477   1.842  2.7042 -0.6854 -1.0785
  195MOL0     H26320   7.039  10.318   1.841  1.2307  0.8076 -1.8635
  195MOL0     H26321   6.681  10.212   2.040  1.1632 -0.2201  2.5677
  195MOL0     H26322   7.447  10.478   2.330  2.4607  0.0915 -0.0751
  195MOL0     H26323   7.631  10.551   2.613 -3.1283  3.8107 -1.5942
  195MOL0     H26324   7.526  10.439   2.532 -0.3057 -1.0905 -3.7527
  195MOL0     H26325   7.702  10.416   2.516  0.6766  0.8628  0.2414
  196MOL0     O26326   0.974   6.768   3.548 -0.1644  0.0322 -0.4367
  196MOL0     C26327   0.859   6.730   3.565 -0.2758  0.4162 -0.6489
  196MOL0     O26328   0.745   6.778   3.509  0.8414 -0.4579 -0.1174
  196MOL0     C26329   0.771   6.891   3.425 -0.1358 -0.1192  0.1438
  196MOL0     C26330   0.763   7.023   3.475  0.0581 -0.0682 -0.2755
  196MOL0     C26331   0.787   7.131   3.389  0.8700  0.6577  0.9159
  196MOL0     C26332   0.832   7.106   3.257 -0.8762 -0.6725 -0.5947
  196MOL0     O26333   0.850   7.219   3.170 -0.1881  0.0645 -0.2588
  196MOL0     C26334   0.808   7.351   3.202 -0.0257 -0.2788 -0.9183
  196MOL0     C26335   0.656   7.362   3.228  0.5382  0.6835  0.4402
  196MOL0     C26336   0.616   7.488   3.300 -0.3831 -0.2570 -0.2069
  196MOL0     C26337   0.462   7.509   3.337  0.7847 -0.1042 -0.0892
  196MOL0     C26338   0.443   7.542   3.480 -0.9402 -0.1092 -1.7393
  196MOL0     C26339   0.323   7.616   3.511 -0.0483  0.5445 -0.1505
  196MOL0     C26340   0.314   7.654   3.658  1.2755  0.3012  0.0999
  196MOL0     C26341   0.379   7.791   3.698 -0.8075  0.0685  0.0315
  196MOL0     N26342   0.523   7.780   3.713 -0.4192 -0.3674  0.1530
  196MOL0     C26343   0.628   7.848   3.642 -0.2165  0.6730  0.8256
  196MOL0     C26344   0.747   7.822   3.707 -0.3109 -0.7161 -0.1493
  196MOL0     C26345   0.879   7.889   3.666  0.1200  0.2154  0.5192
  196MOL0     C26346   0.987   7.905   3.776  0.4934  0.8036 -0.2299
  196MOL0     C26347   1.102   7.979   3.713 -0.5277 -1.0756 -0.1585
  196MOL0     C26348   1.231   7.984   3.794  1.0478 -0.1920 -0.0757
  196MOL0     O26349   1.278   7.847   3.814 -0.4818  0.1423 -0.8066
  196MOL0     C26350   1.379   7.800   3.736  0.2943  1.4963  0.7425
  196MOL0     C26351   1.445   7.872   3.637 -0.5476  1.0319 -0.5078
  196MOL0     C26352   1.552   7.812   3.560 -0.7515  0.1981  0.4433
  196MOL0     C26353   1.586   7.680   3.583 -0.7803  0.0587 -0.2956
  196MOL0     C26354   1.705   7.605   3.516  0.4413 -0.2778 -0.3463
  196MOL0     O26355   1.710   7.466   3.544 -0.4050  0.0874 -0.4208
  196MOL0     C26356   1.798   7.392   3.468  0.2872 -0.0851  0.3866
  196MOL0     C26357   1.752   7.299   3.375  0.2015  0.2211  0.3957
  196MOL0     C26358   1.842   7.248   3.281 -0.5350  0.2397 -0.9579
  196MOL0     C26359   1.975   7.290   3.272  0.7282  0.6292  0.1170
  196MOL0     O26360   2.038   7.244   3.157 -0.5275  0.2873  0.2831
  196MOL0     C26361   2.175   7.223   3.170 -0.5141  0.3217  0.0696
  196MOL0     C26362   2.229   7.181   3.025  0.0794  0.3287 -0.1938
  196MOL0     C26363   2.357   7.098   3.022 -0.6894  0.1709 -0.2172
  196MOL0     C26364   2.409   7.119   2.871  0.4730  1.1932 -0.6613
  196MOL0     C26365   2.558   7.136   2.868  0.0233 -0.1481 -0.0085
  196MOL0     C26366   2.602   7.186   2.729  0.0292 -0.5062  0.0213
  196MOL0     C26367   2.752   7.238   2.751  1.0079 -0.1602 -0.0050
  196MOL0     C26368   2.778   7.348   2.656  0.4240  0.4789 -0.7104
  196MOL0    Cl26369   2.731   7.303   2.492 -0.1166  0.1676 -0.1577
  196MOL0     C26370   2.023   7.372   3.373  0.2483 -1.3840 -0.0617
  196MOL0     C26371   1.940   7.432   3.461  0.3411  0.6020 -0.7020
  196MOL0     O26372   1.758   7.670   3.429 -0.7668  0.3579  0.7306
  196MOL0     C26373   1.511   7.603   3.675  0.3834  0.3026 -0.1303
  196MOL0     C26374   1.414   7.659   3.751 -0.2601 -0.3892  0.0654
  196MOL0     N26375   0.721   7.747   3.817 -0.6100 -0.7289  0.0138
  196MOL0     N26376   0.591   7.725   3.811  0.0890 -0.8474 -0.2261
  196MOL0     C26377   0.857   6.971   3.214 -0.2335  0.0600  0.4852
  196MOL0     C26378   0.824   6.863   3.297  0.3642  0.3359  0.4750
  196MOL0     C26379   0.833   6.628   3.670  0.1176 -1.4717 -0.3850
  196MOL0     C26380   0.737   6.662   3.766  0.1147  0.1066  0.4410
  196MOL0     C26381   0.689   6.560   3.850  0.6749 -0.3728  0.3443
  196MOL0     C26382   0.747   6.435   3.864 -0.1656  0.0190  0.1433
  196MOL0     O26383   0.712   6.352   3.971 -0.4096 -0.9797 -0.0625
  196MOL0     C26384   0.810   6.247   3.993  0.2902 -0.9793 -0.1359
  196MOL0     C26385   0.785   6.175   4.124 -0.4323  0.0802  0.8505
  196MOL0     C26386   0.830   6.265   4.245  0.0313  0.1165  0.0305
  196MOL0     C26387   0.830   6.198   4.381  0.2867 -0.1832  0.4847
  196MOL0     C26388   0.703   6.143   4.407  0.2200  0.5536 -0.5187
  196MOL0     C26389   0.590   6.098   4.415 -0.1864  0.3580  1.3283
  196MOL0     C26390   0.847   6.415   3.776 -1.1139 -0.8395  0.0255
  196MOL0     C26391   0.890   6.509   3.677  0.6501  0.0828 -1.0638
  196MOL0     C26392   0.989   6.464   3.578 -0.5996 -0.2344 -0.6121
  196MOL0     H26393   0.740   7.048   3.579  0.6988  0.9320 -0.3728
  196MOL0     H26394   0.788   7.227   3.438 -1.2793  0.3469  1.7032
  196MOL0     H26395   0.861   7.391   3.290  1.2057  0.7280 -2.0650
  196MOL0     H26396   0.838   7.409   3.114 -1.8327  0.9255 -0.7938
  196MOL0     H26397   0.616   7.269   3.268 -0.7139  0.7127 -0.6751
  196MOL0     H26398   0.609   7.355   3.129  0.1004 -1.5816  0.7550
  196MOL0     H26399   0.646   7.580   3.247  2.1758  0.6561  2.5496
  196MOL0     H26400   0.670   7.480   3.394 -0.4340  1.8038  0.0427
  196MOL0     H26401   0.421   7.593   3.279 -0.8820 -0.2796  0.7435
  196MOL0     H26402   0.413   7.417   3.304  4.7915 -2.2744 -0.5054
  196MOL0     H26403   0.455   7.459   3.550  0.7031  1.2255 -0.3300
  196MOL0     H26404   0.524   7.608   3.514 -1.6324  0.4745 -1.1891
  196MOL0     H26405   0.323   7.703   3.445  0.9618 -1.0056 -2.3040
  196MOL0     H26406   0.236   7.555   3.484 -0.3901  1.1155 -0.3812
  196MOL0     H26407   0.354   7.573   3.719 -1.1634 -0.8613  0.2663
  196MOL0     H26408   0.208   7.665   3.684  0.7882 -3.5296  0.2128
  196MOL0     H26409   0.339   7.873   3.637 -4.4055  0.7824  3.0160
  196MOL0     H26410   0.342   7.822   3.795 -2.1013 -0.6214 -0.2281
  196MOL0     H26411   0.607   7.897   3.548 -1.2363 -0.9477  0.1700
  196MOL0     H26412   0.919   7.835   3.579  0.3979  0.0973  0.7193
  196MOL0     H26413   0.848   7.983   3.619 -0.7961  0.0662  0.8175
  196MOL0     H26414   0.940   7.964   3.855  0.5372 -1.0982  1.3075
  196MOL0     H26415   1.026   7.815   3.824 -1.9576  1.1847  2.8318
  196MOL0     H26416   1.059   8.076   3.685  0.7744 -0.9748 -1.9735
  196MOL0     H26417   1.120   7.927   3.619  0.6519  0.1583 -0.6367
  196MOL0     H26418   1.219   8.019   3.897  5.2321  0.2787  0.4141
  196MOL0     H26419   1.312   8.043   3.751  1.2557 -2.3857 -2.9842
  196MOL0     H26420   1.445   7.980   3.625  1.8118  1.0741 -0.5654
  196MOL0     H26421   1.605   7.876   3.490 -2.1252  2.4524  1.3297
  196MOL0     H26422   1.646   7.276   3.383  0.8231 -2.6879  1.8667
  196MOL0     H26423   1.811   7.178   3.204 -1.4687 -1.8614  1.1479
  196MOL0     H26424   2.240   7.291   3.226  0.8393 -0.5265 -0.4463
  196MOL0     H26425   2.177   7.132   3.230  2.0953  0.3720  0.1377
  196MOL0     H26426   2.143   7.138   2.973  1.0691 -2.9185  0.6165
  196MOL0     H26427   2.263   7.275   2.981 -2.1025  0.8531 -0.8692
  196MOL0     H26428   2.434   7.130   3.093 -0.2800  1.2899 -1.1450
  196MOL0     H26429   2.356   6.993   3.053  3.1932  0.3222  0.9276
  196MOL0     H26430   2.366   7.208   2.825  0.8207  1.8036  0.1720
  196MOL0     H26431   2.381   7.022   2.829 -2.2970  1.3402  0.5807
  196MOL0     H26432   2.602   7.037   2.884 -1.3788 -0.6487  0.9521
  196MOL0     H26433   2.582   7.213   2.942  1.1840 -1.7669  1.3681
  196MOL0     H26434   2.601   7.111   2.650  2.9732  1.2574 -1.8717
  196MOL0     H26435   2.545   7.273   2.694  3.2842  2.3472  1.1785
  196MOL0     H26436   2.818   7.160   2.713  0.0917  0.1018 -2.2893
  196MOL0     H26437   2.778   7.267   2.853  1.6372 -1.8176  0.3310
  196MOL0     H26438   2.710   7.432   2.674 -2.5267 -1.6065 -1.3012
  196MOL0     H26439   2.880   7.386   2.669 -0.8320  3.3140  2.5117
  196MOL0     H26440   2.115   7.429   3.359  0.7600 -2.6563 -2.4847
  196MOL0     H26441   1.983   7.520   3.507 -1.6139  0.0419  2.5236
  196MOL0     H26442   1.522   7.495   3.674  0.3221  0.2965 -0.2573
  196MOL0     H26443   1.352   7.595   3.812  0.1571 -1.3085 -0.4544
  196MOL0     H26444   0.897   6.952   3.115  2.0784 -0.9397  1.5454
  196MOL0     H26445   0.846   6.761   3.268  3.2475  0.1434  2.8512
  196MOL0     H26446   0.697   6.763   3.763  0.2323  0.1696  1.0005
  196MOL0     H26447   0.621   6.592   3.928 -0.1433 -1.8976  0.2807
  196MOL0     H26448   0.912   6.286   3.996 -0.0545  0.1155 -1.3594
  196MOL0     H26449   0.821   6.184   3.904  1.6464 -0.7035 -0.1780
  196MOL0     H26450   0.844   6.083   4.125  2.1068  1.6182  0.2965
  196MOL0     H26451   0.684   6.135   4.137 -0.5653  0.9259  2.7086
  196MOL0     H26452   0.768   6.355   4.247  0.8387  0.7188 -1.1283
  196MOL0     H26453   0.933   6.298   4.231 -0.5931  0.8827 -3.8111
  196MOL0     H26454   0.895   6.111   4.365 -3.2398 -2.7973 -0.9424
  196MOL0     H26455   0.865   6.271   4.454  1.2233 -2.3586  2.3528
  196MOL0     H26456   0.499   6.047   4.436  0.4691 -1.2093  0.5809
  196MOL0     H26457   0.907   6.325   3.773 -1.2886 -0.9479 -0.3261
  196MOL0     H26458   1.057   6.548   3.566 -1.1732  0.2247 -0.7013
  196MOL0     H26459   1.047   6.377   3.610 -1.0863 -0.8448 -1.3312
  196MOL0     H26460   0.941   6.433   3.485  0.9458 -1.1390 -1.1390
  197MOL0     O26461   9.798  11.426   1.371  0.1331 -0.0712 -0.8546
  197MOL0     C26462   9.849  11.335   1.435 -0.9980  0.5400  0.4778
  197MOL0     O26463   9.786  11.224   1.476  0.7284 -0.1172  0.2889
  197MOL0     C26464   9.665  11.183   1.443  0.4305  0.8260 -0.9247
  197MOL0     C26465   9.597  11.231   1.332 -1.8332  0.6122  0.6635
  197MOL0     C26466   9.462  11.195   1.308  0.5529  1.1808  0.4029
  197MOL0     C26467   9.408  11.084   1.379 -0.1511  0.1223  0.3902
  197MOL0     O26468   9.271  11.048   1.379 -0.3406  0.1823  0.4965
  197MOL0     C26469   9.193  11.091   1.257 -1.1464 -0.3182  0.7294
  197MOL0     C26470   9.056  11.008   1.260  0.0042 -0.4093  0.2027
  197MOL0     C26471   8.960  11.058   1.151 -0.9351 -0.6118 -0.1479
  197MOL0     C26472   8.839  10.963   1.129 -0.0199 -0.7542  0.0066
  197MOL0     C26473   8.864  10.833   1.046  0.7960  0.3087 -1.1846
  197MOL0     C26474   8.739  10.736   1.036 -0.0370 -0.1741 -0.2709
  197MOL0     C26475   8.783  10.606   0.971  0.8217 -1.2458 -0.2335
  197MOL0     C26476   8.660  10.522   0.952  0.2080 -1.0662  0.6503
  197MOL0     N26477   8.697  10.412   0.867 -0.5262 -0.4072  0.2088
  197MOL0     C26478   8.696  10.282   0.894 -0.3891  0.6630 -0.3019
  197MOL0     C26479   8.740  10.224   0.778  0.5109 -0.5135 -0.4074
  197MOL0     C26480   8.744  10.075   0.744  0.5072 -1.1553 -1.0622
  197MOL0     C26481   8.877  10.005   0.774  0.1278 -0.0350 -0.2197
  197MOL0     C26482   8.906   9.972   0.926 -0.2565 -0.5393 -0.1656
  197MOL0     C26483   9.037   9.894   0.937 -0.9191  0.0241 -0.4135
  197MOL0     O26484   9.076   9.867   1.069 -0.5103  0.8452  0.0044
  197MOL0     C26485   9.201   9.806   1.084  0.2542 -0.6426 -0.2478
  197MOL0     C26486   9.247   9.774   1.210 -0.6839  0.6026 -0.0862
  197MOL0     C26487   9.367   9.700   1.225 -0.4922  0.1047 -0.7686
  197MOL0     C26488   9.444   9.652   1.118 -0.6949 -0.1536  0.1954
  197MOL0     C26489   9.559   9.558   1.135  0.0165  0.0409 -0.0906
  197MOL0     O26490   9.657   9.564   1.045  0.4150  1.1923  0.4526
  197MOL0     C26491   9.769   9.488   1.076  0.7134  0.9899  0.4767
  197MOL0     C26492   9.833   9.411   0.970  0.6527  0.0555 -0.1327
  197MOL0     C26493   9.956   9.342   0.998 -0.1532 -1.4123  0.3336
  197MOL0     C26494  10.006   9.333   1.134  0.5128 -0.9181 -0.5539
  197MOL0     O26495  10.114   9.259   1.166  0.8296  0.3371 -0.3511
  197MOL0     C26496  10.168   9.154   1.070 -0.7139 -0.4317 -0.3124
  197MOL0     C26497  10.320   9.128   1.094  0.8569 -0.1290  0.1941
  197MOL0     C26498  10.334   9.030   1.211  0.4758  0.1105  0.4224
  197MOL0     C26499  10.480   8.984   1.218  0.1447 -0.5248 -0.2920
  197MOL0     C26500  10.584   9.092   1.241  0.4942 -0.6676 -0.4327
  197MOL0     C26501  10.721   9.029   1.241  0.6889  0.4030  0.2720
  197MOL0     C26502  10.827   9.136   1.212  0.4863 -0.9882  0.4845
  197MOL0     C26503  10.957   9.102   1.269 -0.4884 -0.1475 -0.1475
  197MOL0    Cl26504  10.995   8.928   1.246 -0.0446 -0.4251 -0.0238
  197MOL0     C26505   9.948   9.401   1.240 -1.3757  0.6377 -0.8653
  197MOL0     C26506   9.826   9.472   1.214  0.3068 -0.5764 -0.4957
  197MOL0     O26507   9.551   9.477   1.225 -0.3563 -0.5789  0.7376
  197MOL0     C26508   9.402   9.688   0.996  0.4055  0.1545 -0.0357
  197MOL0     C26509   9.281   9.759   0.977 -0.0934  0.9343 -0.3565
  197MOL0     N26510   8.732  10.320   0.672  0.0599  0.1031 -0.4050
  197MOL0     N26511   8.711  10.434   0.732  0.1764  0.0263  0.2118
  197MOL0     C26512   9.482  11.034   1.491 -0.2857  0.7496 -0.3679
  197MOL0     C26513   9.605  11.086   1.519 -0.2742  0.8964 -0.8228
  197MOL0     C26514   9.984  11.354   1.494  0.2172 -0.3592 -0.0096
  197MOL0     C26515  10.026  11.489   1.515  0.3069 -0.1132  0.1249
  197MOL0     C26516  10.147  11.525   1.568  0.2368  0.9479  0.6162
  197MOL0     C26517  10.226  11.426   1.627  0.7967 -0.0274 -0.5698
  197MOL0     O26518  10.328  11.465   1.711  0.2427  0.2168 -0.0054
  197MOL0     C26519  10.395  11.369   1.800  0.7772  0.1826 -0.0983
  197MOL0     C26520  10.507  11.448   1.879  0.9873  0.1853  1.1702
  197MOL0     C26521  10.487  11.443   2.030 -0.4590 -0.2280  0.2027
  197MOL0     C26522  10.487  11.299   2.082  0.0029 -0.2985  0.3759
  197MOL0     C26523  10.612  11.236   2.095  0.0396 -1.2324  0.3707
  197MOL0     C26524  10.726  11.193   2.113 -0.7343 -0.4180 -1.5235
  197MOL0     C26525  10.189  11.295   1.609 -0.2472  0.6487  0.6243
  197MOL0     C26526  10.069  11.258   1.548 -0.7110  0.1446  0.3567
  197MOL0     C26527  10.054  11.108   1.530  0.1637 -0.5385 -0.3541
  197MOL0     H26528   9.625  11.317   1.271  0.5214  0.4003  1.3566
  197MOL0     H26529   9.401  11.253   1.239 -0.5650 -0.3317  0.0668
  197MOL0     H26530   9.180  11.199   1.245 -1.6357 -0.4384  0.1418
  197MOL0     H26531   9.251  11.067   1.167 -0.1168  3.9344  0.0588
  197MOL0     H26532   9.015  11.039   1.357 -1.0788 -0.0871 -0.3445
  197MOL0     H26533   9.086  10.903   1.260  1.0528 -0.1230  0.3703
  197MOL0     H26534   9.015  11.079   1.059 -1.2240 -3.2569 -0.9972
  197MOL0     H26535   8.927  11.155   1.191 -1.6817  1.3070 -4.7642
  197MOL0     H26536   8.808  10.932   1.229  0.8656  2.6903  1.5179
  197MOL0     H26537   8.760  11.024   1.083  0.5107  1.4088  1.7779
  197MOL0     H26538   8.892  10.866   0.946 -1.4288  0.4147 -1.8198
  197MOL0     H26539   8.948  10.773   1.084  1.2939  2.2353  1.0087
  197MOL0     H26540   8.693  10.718   1.134  2.3390  2.5881  1.5482
  197MOL0     H26541   8.668  10.785   0.969  0.5235 -0.9239 -1.4415
  197MOL0     H26542   8.857  10.557   1.035 -0.2400 -0.2649  1.8180
  197MOL0     H26543   8.829  10.628   0.874 -1.5475 -0.9328 -1.3606
  197MOL0     H26544   8.625  10.488   1.051 -1.1410 -2.5027 -0.2688
  197MOL0     H26545   8.572  10.570   0.907 -1.9833 -3.1266  2.4296
  197MOL0     H26546   8.689  10.234   0.991 -3.1622 -0.2786 -0.9047
  197MOL0     H26547   8.670  10.029   0.811  0.6548 -0.3484 -0.3232
  197MOL0     H26548   8.710  10.072   0.641 -3.1119 -1.1889 -0.0011
  197MOL0     H26549   8.909   9.919   0.715  1.5285 -0.0251  0.4600
  197MOL0     H26550   8.944  10.081   0.732 -1.0405  0.4021 -1.3319
  197MOL0     H26551   8.825   9.906   0.958 -2.8459  1.9475 -1.1818
  197MOL0     H26552   8.899  10.058   0.993  0.6352 -2.2418  2.2633
  197MOL0     H26553   9.107   9.962   0.887  1.5055 -1.1801  1.1507
  197MOL0     H26554   9.033   9.798   0.885  0.2054  0.1600 -0.7788
  197MOL0     H26555   9.210   9.807   1.306 -0.4438  2.1012 -0.4814
  197MOL0     H26556   9.398   9.670   1.325 -3.0490  2.4590  0.8548
  197MOL0     H26557   9.786   9.385   0.876 -2.7703 -0.9318  1.7049
  197MOL0     H26558  10.020   9.293   0.926  0.6005  0.4718 -0.3330
  197MOL0     H26559  10.114   9.058   1.065 -1.8651  0.1916 -0.2766
  197MOL0     H26560  10.176   9.195   0.969  0.4614 -1.4288 -0.6459
  197MOL0     H26561  10.383   9.106   1.007  2.0421 -0.8123  1.2005
  197MOL0     H26562  10.370   9.221   1.121 -0.6173 -0.0520  3.0290
  197MOL0     H26563  10.300   9.073   1.306 -1.4429  0.4347 -0.3733
  197MOL0     H26564  10.278   8.938   1.196  0.4293  0.6946 -4.5869
  197MOL0     H26565  10.507   8.933   1.125  0.9075 -3.4924  1.4256
  197MOL0     H26566  10.499   8.901   1.287  1.1937  0.6282  0.8863
  197MOL0     H26567  10.578   9.140   1.339  2.4711 -3.3858  1.1310
  197MOL0     H26568  10.579   9.175   1.170  1.4029 -1.7709 -1.8353
  197MOL0     H26569  10.750   8.981   1.335  2.8443  1.6357  0.2883
  197MOL0     H26570  10.724   8.945   1.171 -1.2057 -0.9661  1.7044
  197MOL0     H26571  10.793   9.233   1.250  0.2724 -0.6625 -0.4855
  197MOL0     H26572  10.840   9.136   1.103  0.6701 -0.9150  0.5068
  197MOL0     H26573  11.028   9.172   1.224 -1.2956  0.5959 -0.2856
  197MOL0     H26574  10.962   9.119   1.377  0.7804 -3.5448  0.4589
  197MOL0     H26575  10.000   9.403   1.334 -1.0537 -3.6251 -0.7785
  197MOL0     H26576   9.774   9.524   1.295 -1.9199  1.3212 -2.9640
  197MOL0     H26577   9.459   9.650   0.911  0.4747 -0.9593  0.4942
  197MOL0     H26578   9.259   9.784   0.873  0.3083  2.1846 -0.1615
  197MOL0     H26579   9.447  10.948   1.548 -1.4618  0.2802 -1.7102
  197MOL0     H26580   9.661  11.033   1.595 -0.7685  0.1000 -1.0066
  197MOL0     H26581   9.962  11.572   1.485  0.0310 -0.6786 -0.8880
  197MOL0     H26582  10.159  11.633   1.575  1.3549  0.9638 -1.1211
  197MOL0     H26583  10.449  11.292   1.744 -1.3272  1.5978 -4.5094
  197MOL0     H26584  10.314  11.323   1.856 -1.4005  1.3581 -2.1282
  197MOL0     H26585  10.521  11.547   1.834  1.9111 -0.2403  0.4777
  197MOL0     H26586  10.601  11.397   1.856 -0.1543 -1.6227  0.2091
  197MOL0     H26587  10.388  11.485   2.048 -0.0095 -0.2119  2.9884
  197MOL0     H26588  10.560  11.501   2.086 -0.8944  1.2567 -0.7317
  197MOL0     H26589  10.447  11.316   2.182 -0.1007 -1.8854  0.6312
  197MOL0     H26590  10.417  11.228   2.036 -1.2350  0.8732  0.3745
  197MOL0     H26591  10.830  11.177   2.130 -0.8066  1.1629  0.9579
  197MOL0     H26592  10.260  11.219   1.643 -0.8146 -0.3453 -0.3580
  197MOL0     H26593  10.137  11.044   1.560  0.9742  0.5680 -0.1782
  197MOL0     H26594   9.977  11.074   1.600 -0.4631  2.3453  0.4933
  197MOL0     H26595  10.013  11.101   1.429 -4.9409  1.3655  1.2398
  198MOL0     O26596  10.584   1.802   5.163 -0.5033 -0.8598 -0.3047
  198MOL0     C26597  10.464   1.817   5.172  0.1886  0.1343 -1.1636
  198MOL0     O26598  10.406   1.855   5.289 -0.6072  0.4603 -0.5095
  198MOL0     C26599  10.459   1.812   5.402  0.0094  0.8683  1.4459
  198MOL0     C26600  10.475   1.673   5.417 -0.0572  0.5728  0.0761
  198MOL0     C26601  10.509   1.613   5.536  0.3448 -0.0410 -0.0828
  198MOL0     C26602  10.543   1.695   5.643  0.0990 -0.5018  0.3159
  198MOL0     O26603  10.601   1.624   5.751  0.0898  0.0441  0.3927
  198MOL0     C26604  10.663   1.692   5.855  0.3926  0.1619 -0.3355
  198MOL0     C26605  10.714   1.590   5.957  0.3137 -1.1321 -1.2376
  198MOL0     C26606  10.848   1.527   5.923  0.0816 -0.5706  0.2695
  198MOL0     C26607  10.836   1.405   5.830  0.2384  0.4464 -0.9969
  198MOL0     C26608  10.977   1.348   5.775  0.2015  0.2662 -0.3604
  198MOL0     C26609  11.022   1.222   5.845  0.4178 -0.7381 -0.3934
  198MOL0     C26610  10.947   1.096   5.830 -0.5539  0.8548  0.2408
  198MOL0     C26611  10.980   0.996   5.931  0.0694  0.5778 -0.0889
  198MOL0     N26612  10.927   0.857   5.931 -0.1800 -0.0972  0.2590
  198MOL0     C26613  10.797   0.818   5.914 -0.3581  0.2599 -0.3754
  198MOL0     C26614  10.806   0.685   5.928 -0.0972 -0.2434  0.2699
  198MOL0     C26615  10.691   0.591   5.920 -0.1802  0.4597 -0.3424
  198MOL0     C26616  10.674   0.507   6.046  0.1805  0.2673 -0.9053
  198MOL0     C26617  10.601   0.582   6.159  0.2013 -0.1600  0.8804
  198MOL0     C26618  10.705   0.670   6.236 -0.5006 -0.2585  0.4000
  198MOL0     O26619  10.692   0.656   6.379 -0.0200  0.1613  0.6496
  198MOL0     C26620  10.778   0.723   6.456  0.9858  0.7191 -0.5262
  198MOL0     C26621  10.890   0.790   6.399  0.9165 -0.9560 -0.3608
  198MOL0     C26622  10.965   0.874   6.493  0.0737 -0.2863  0.4619
  198MOL0     C26623  10.930   0.884   6.633 -0.1062 -0.8850  0.0694
  198MOL0     C26624  11.007   0.968   6.724 -0.7581 -0.1853  0.1691
  198MOL0     O26625  11.084   1.061   6.653 -0.5154 -0.4694  0.4877
  198MOL0     C26626  11.143   1.161   6.729 -0.0815  1.1387  0.7947
  198MOL0     C26627  11.248   1.144   6.812  0.5882  0.6707 -0.3811
  198MOL0     C26628  11.294   1.252   6.895 -0.1724  0.2612  0.4160
  198MOL0     C26629  11.233   1.372   6.900  0.2495 -0.2589  0.8109
  198MOL0     O26630  11.270   1.493   6.956  0.5463 -0.5295 -0.1758
  198MOL0     C26631  11.403   1.507   6.978 -0.8596  0.3017 -0.3204
  198MOL0     C26632  11.428   1.662   6.991  0.0964 -0.1290  0.0326
  198MOL0     C26633  11.406   1.746   6.868 -0.7214  0.5447 -0.6802
  198MOL0     C26634  11.416   1.889   6.926  0.1311  0.5490 -0.1990
  198MOL0     C26635  11.412   1.994   6.812  0.2281 -0.1641 -0.6228
  198MOL0     C26636  11.403   2.139   6.861  0.3635  0.1579 -0.1626
  198MOL0     C26637  11.387   2.241   6.752 -1.1679  0.4615 -0.3906
  198MOL0     C26638  11.431   2.383   6.786  0.5965 -0.4884 -0.6510
  198MOL0    Cl26639  11.317   2.455   6.914  0.0349  0.3038  0.0299
  198MOL0     C26640  11.127   1.381   6.809 -0.1315 -0.2310  1.1320
  198MOL0     C26641  11.087   1.281   6.725 -0.2298 -0.4972 -0.1947
  198MOL0     O26642  10.989   0.969   6.843  0.2828 -0.1699 -0.3978
  198MOL0     C26643  10.823   0.804   6.675 -0.4351  0.4699 -0.3787
  198MOL0     C26644  10.752   0.722   6.591 -1.1770 -0.1279  0.4883
  198MOL0     N26645  10.933   0.644   5.951  0.3846 -0.0979 -0.8570
  198MOL0     N26646  11.006   0.752   5.961  0.1379 -0.0268  0.1543
  198MOL0     C26647  10.525   1.838   5.640 -0.1185 -0.3116  0.4797
  198MOL0     C26648  10.480   1.895   5.512 -0.2125 -0.8103 -0.4933
  198MOL0     C26649  10.379   1.779   5.063  0.5799  0.3283 -0.0152
  198MOL0     C26650  10.261   1.716   5.098 -0.4667  0.0061  0.8532
  198MOL0     C26651  10.181   1.669   4.996 -0.5455  0.5114 -0.5128
  198MOL0     C26652  10.204   1.703   4.866 -0.8269 -0.1373 -0.3061
  198MOL0     O26653  10.104   1.675   4.776 -0.6098  0.0607  0.1857
  198MOL0     C26654  10.059   1.788   4.684  0.0631  0.4266  0.2453
  198MOL0     C26655   9.913   1.768   4.648  0.5699  0.5730  0.1400
  198MOL0     C26656   9.880   1.619   4.600 -0.2868  0.5060  0.2849
  198MOL0     C26657   9.733   1.593   4.543 -0.1775 -0.7033  1.1999
  198MOL0     C26658   9.743   1.616   4.391 -1.0073 -0.2795  0.1293
  198MOL0     C26659   9.751   1.640   4.270 -1.2722 -0.5025 -0.4309
  198MOL0     C26660  10.329   1.758   4.833  0.9215  0.0266  0.5289
  198MOL0     C26661  10.415   1.798   4.930 -0.1684  0.4635  0.4321
  198MOL0     C26662  10.541   1.867   4.878  0.1334 -0.7485  0.0024
  198MOL0     H26663  10.461   1.599   5.339  2.0957 -2.2871  2.2027
  198MOL0     H26664  10.507   1.504   5.540 -1.8214 -0.0408  0.3994
  198MOL0     H26665  10.734   1.765   5.815 -0.0913 -0.5512 -2.6908
  198MOL0     H26666  10.595   1.752   5.914  2.9970  2.1951  0.8028
  198MOL0     H26667  10.642   1.512   5.986 -1.9933  1.5449  0.7840
  198MOL0     H26668  10.736   1.643   6.050 -2.0991 -4.2055  1.3252
  198MOL0     H26669  10.904   1.490   6.010  3.4270 -1.0252 -1.8621
  198MOL0     H26670  10.911   1.601   5.872  0.8385 -0.1765  1.7033
  198MOL0     H26671  10.786   1.325   5.885  1.7229 -2.0198 -3.0227
  198MOL0     H26672  10.768   1.435   5.749 -0.7722  0.9826  0.0182
  198MOL0     H26673  10.976   1.306   5.674  2.7708 -2.6945  0.6865
  198MOL0     H26674  11.048   1.430   5.786 -0.2330  0.5975  0.0468
  198MOL0     H26675  11.126   1.204   5.816  0.7941 -0.3523  0.6368
  198MOL0     H26676  11.023   1.247   5.952 -1.3636  0.5053 -0.6219
  198MOL0     H26677  10.973   1.062   5.729 -1.6299 -1.0483  0.5551
  198MOL0     H26678  10.841   1.112   5.850 -0.4678  0.3686  1.1526
  198MOL0     H26679  11.088   0.978   5.932  0.4947  2.7989  0.6293
  198MOL0     H26680  10.949   1.045   6.024  0.1763 -0.4663  0.5152
  198MOL0     H26681  10.701   0.868   5.900 -0.0508  1.8195  2.4286
  198MOL0     H26682  10.600   0.641   5.884 -1.7971 -1.0630  1.4062
  198MOL0     H26683  10.725   0.516   5.848 -0.6478  1.7964 -2.0201
  198MOL0     H26684  10.597   0.435   6.017 -0.6528  1.6687 -2.3794
  198MOL0     H26685  10.757   0.460   6.099 -1.5016 -0.3041  1.4045
  198MOL0     H26686  10.562   0.500   6.221 -2.0197 -2.3986 -3.0838
  198MOL0     H26687  10.540   0.670   6.137  0.3833 -0.3247 -0.3765
  198MOL0     H26688  10.680   0.773   6.210 -1.0881  0.0646  2.1621
  198MOL0     H26689  10.806   0.641   6.208 -0.2408  0.4230  0.6188
  198MOL0     H26690  10.914   0.798   6.293  1.0781  0.9567 -0.2241
  198MOL0     H26691  11.053   0.934   6.471 -0.5030  1.6669  2.9928
  198MOL0     H26692  11.296   1.047   6.825  0.8835  1.0780  2.0443
  198MOL0     H26693  11.386   1.236   6.950  0.6960 -0.9034 -1.2676
  198MOL0     H26694  11.444   1.447   7.060  2.0273  0.0451 -1.7899
  198MOL0     H26695  11.456   1.463   6.893  1.2819  4.0646 -1.1375
  198MOL0     H26696  11.359   1.691   7.071  1.8718 -1.2902  2.0646
  198MOL0     H26697  11.530   1.680   7.025  0.6720 -0.3664 -1.4961
  198MOL0     H26698  11.483   1.732   6.792 -0.0582  1.0697 -0.1178
  198MOL0     H26699  11.306   1.735   6.826 -0.8812 -2.0867  0.1906
  198MOL0     H26700  11.511   1.907   6.977  1.6044  1.8173 -3.1570
  198MOL0     H26701  11.322   1.895   6.982  0.5091 -1.5562  0.7620
  198MOL0     H26702  11.335   1.964   6.741  1.4278 -1.3673 -1.4703
  198MOL0     H26703  11.506   1.989   6.757 -0.1008  1.3942 -1.3831
  198MOL0     H26704  11.318   2.151   6.928 -1.1436  0.7282 -2.0984
  198MOL0     H26705  11.498   2.157   6.913  0.4116  0.5243 -0.3753
  198MOL0     H26706  11.279   2.245   6.733 -1.6919 -1.2277  1.7544
  198MOL0     H26707  11.439   2.210   6.661 -0.2841 -0.4368  0.3904
  198MOL0     H26708  11.537   2.371   6.810  0.5617 -0.6477 -0.5785
  198MOL0     H26709  11.426   2.447   6.697  0.6402 -2.2368 -1.9740
  198MOL0     H26710  11.080   1.475   6.782 -1.5689 -1.2766 -0.1559
  198MOL0     H26711  11.011   1.309   6.652  1.2462  2.0511 -0.8576
  198MOL0     H26712  10.811   0.805   6.783 -1.4010 -0.0256 -0.4686
  198MOL0     H26713  10.663   0.680   6.636 -0.9593 -0.3155  0.7443
  198MOL0     H26714  10.567   1.898   5.720  0.6198 -1.3438  0.8763
  198MOL0     H26715  10.472   2.002   5.498 -1.0177 -0.4740  1.9838
  198MOL0     H26716  10.245   1.693   5.203 -0.3527 -1.4426  0.5672
  198MOL0     H26717  10.101   1.606   5.032  2.5408 -3.4937  0.0760
  198MOL0     H26718  10.122   1.784   4.594 -0.3742 -0.1928 -0.0435
  198MOL0     H26719  10.091   1.888   4.715  1.1922 -0.7761  3.2701
  198MOL0     H26720   9.887   1.837   4.567 -0.6997 -0.8172 -0.6777
  198MOL0     H26721   9.863   1.802   4.738  1.6762  0.7642  0.7038
  198MOL0     H26722   9.893   1.555   4.688 -0.3554  1.9790  1.4027
  198MOL0     H26723   9.949   1.597   4.518 -2.6458  3.6853 -2.8959
  198MOL0     H26724   9.702   1.488   4.556  0.2082 -1.1847 -1.1864
  198MOL0     H26725   9.658   1.666   4.577 -0.4479 -0.6382  0.4816
  198MOL0     H26726   9.764   1.643   4.164  2.8351 -1.3232 -0.0980
  198MOL0     H26727  10.351   1.782   4.729 -4.3883  3.5155 -0.1972
  198MOL0     H26728  10.518   1.932   4.793 -1.0436  0.9900  1.5649
  198MOL0     H26729  10.576   1.932   4.959 -1.3894 -0.6432  0.6188
  198MOL0     H26730  10.625   1.808   4.841  0.7887  1.9104 -3.2181
  199MOL0     O26731   1.988   0.081   1.875 -0.7303 -1.0062  0.6140
  199MOL0     C26732   2.077   0.164   1.912  0.2968  0.2871  0.8057
  199MOL0     O26733   2.210   0.126   1.908  0.4097 -0.6708  0.3400
  199MOL0     C26734   2.245  -0.006   1.953 -0.1738 -0.9755  0.7554
  199MOL0     C26735   2.338  -0.074   1.876  0.0769  1.2726  0.3778
  199MOL0     C26736   2.388  -0.197   1.933 -1.0572  0.9285 -0.5167
  199MOL0     C26737   2.342  -0.252   2.055  0.6095  0.5635 -0.3081
  199MOL0     O26738   2.387  -0.364   2.111  0.0798 -0.5275 -0.5745
  199MOL0     C26739   2.516  -0.357   2.166  0.0542  0.7905  0.6305
  199MOL0     C26740   2.513  -0.272   2.297  0.0081 -0.2793 -0.2489
  199MOL0     C26741   2.658  -0.282   2.348  0.5826  0.6817 -0.2311
  199MOL0     C26742   2.681  -0.180   2.465 -0.1042 -0.4663  0.2992
  199MOL0     C26743   2.772  -0.230   2.577 -0.0719  0.6797 -0.5263
  199MOL0     C26744   2.781  -0.123   2.693 -0.4458 -0.2574 -0.1328
  199MOL0     C26745   2.848  -0.174   2.825  0.3060  0.0112 -0.6508
  199MOL0     C26746   2.999  -0.182   2.816  0.4097  0.0228  0.7532
  199MOL0     N26747   3.059  -0.052   2.781 -0.4268  0.2255  0.7085
  199MOL0     C26748   3.011   0.071   2.806  0.9023 -0.0947 -0.0743
  199MOL0     C26749   3.104   0.164   2.765  0.0010 -0.3172  0.1802
  199MOL0     C26750   3.093   0.320   2.785 -0.3565  1.4708  0.1841
  199MOL0     C26751   3.116   0.369   2.930 -0.4803  0.9268  0.8658
  199MOL0     C26752   3.263   0.345   2.966 -0.2599  0.1916  0.1724
  199MOL0     C26753   3.296   0.385   3.109 -0.4860  0.1800 -0.0079
  199MOL0     O26754   3.303   0.532   3.126 -0.3779 -0.2505 -0.3580
  199MOL0     C26755   3.420   0.594   3.140  0.5493  0.8741  0.5227
  199MOL0     C26756   3.443   0.719   3.081 -0.3069  0.1897 -0.3247
  199MOL0     C26757   3.564   0.793   3.097  0.6353 -0.0150  0.1268
  199MOL0     C26758   3.662   0.754   3.187 -0.2619 -0.3914 -0.4015
  199MOL0     C26759   3.784   0.841   3.213 -0.5041 -0.5972  0.3842
  199MOL0     O26760   3.878   0.808   3.300 -0.1548 -0.2546 -0.2335
  199MOL0     C26761   3.979   0.898   3.333 -0.3138  0.9402  0.2198
  199MOL0     C26762   4.090   0.926   3.251 -0.7082 -0.0124  0.3461
  199MOL0     C26763   4.192   0.998   3.305 -0.1043 -1.1624 -0.0509
  199MOL0     C26764   4.197   1.046   3.441 -0.2980  0.2672 -0.5097
  199MOL0     O26765   4.315   1.108   3.480 -0.3580  0.2833  0.0023
  199MOL0     C26766   4.299   1.183   3.604  0.5745  0.6182  0.5474
  199MOL0     C26767   4.440   1.239   3.641 -0.0699  0.3169 -1.0940
  199MOL0     C26768   4.558   1.156   3.667 -0.4076  0.2186  0.8419
  199MOL0     C26769   4.695   1.241   3.700 -0.4962 -0.8672 -0.0144
  199MOL0     C26770   4.769   1.283   3.574 -0.4678 -0.0312 -0.6282
  199MOL0     C26771   4.900   1.361   3.593 -0.2183  0.2798 -0.3719
  199MOL0     C26772   4.914   1.461   3.709 -0.7571 -0.4467  0.2434
  199MOL0     C26773   5.043   1.549   3.689 -0.0232  1.0210  0.1281
  199MOL0    Cl26774   5.207   1.462   3.699  0.6326  0.2902  0.2501
  199MOL0     C26775   4.087   1.010   3.527 -0.3983 -0.4886 -0.4637
  199MOL0     C26776   3.973   0.940   3.465  0.2650  0.6631 -0.0363
  199MOL0     O26777   3.780   0.953   3.152 -0.6809 -0.2244  0.2312
  199MOL0     C26778   3.644   0.625   3.247  0.3274 -0.1390  1.0323
  199MOL0     C26779   3.529   0.551   3.218 -0.1120  0.4021 -0.5166
  199MOL0     N26780   3.209   0.093   2.720 -1.0842  0.4166  0.2477
  199MOL0     N26781   3.190  -0.035   2.729 -0.1601 -1.2611 -0.3774
  199MOL0     C26782   2.229  -0.186   2.114  0.7758  0.1946  0.0595
  199MOL0     C26783   2.178  -0.064   2.060 -1.0909  0.1405  1.0670
  199MOL0     C26784   2.037   0.308   1.913  0.1063  0.7262 -0.4445
  199MOL0     C26785   2.019   0.382   1.798  0.1406  0.1785  0.0763
  199MOL0     C26786   2.007   0.522   1.800 -0.1495  0.5805  0.3998
  199MOL0     C26787   1.996   0.590   1.922 -0.2909 -0.5610 -0.7874
  199MOL0     O26788   1.976   0.726   1.912 -0.3928  0.2322  0.4412
  199MOL0     C26789   2.015   0.810   2.017  0.0526  0.3667  0.1149
  199MOL0     C26790   2.168   0.805   2.037 -0.4768  0.1683 -0.0867
  199MOL0     C26791   2.248   0.836   1.914 -0.0281  0.7087 -0.4920
  199MOL0     C26792   2.388   0.880   1.935 -0.0901  0.9007  0.0535
  199MOL0     C26793   2.482   0.807   2.013 -0.0685 -0.4434  0.6478
  199MOL0     C26794   2.555   0.742   2.084  0.0934 -0.4541 -0.3273
  199MOL0     C26795   2.009   0.516   2.042  0.7758  0.2161  0.1720
  199MOL0     C26796   2.031   0.379   2.039  0.3000  0.6682  0.5118
  199MOL0     C26797   2.031   0.298   2.169  0.4544 -0.6216 -0.7433
  199MOL0     H26798   2.364  -0.020   1.785 -3.2653  1.7311 -0.4519
  199MOL0     H26799   2.469  -0.249   1.882 -2.7961 -0.3574 -2.1262
  199MOL0     H26800   2.560  -0.456   2.181 -0.1461  0.2440 -1.9349
  199MOL0     H26801   2.582  -0.302   2.097 -2.2238  2.3369 -0.4597
  199MOL0     H26802   2.441  -0.322   2.364  0.5142 -1.3377 -0.4766
  199MOL0     H26803   2.478  -0.168   2.289  0.8637  0.1717  1.4002
  199MOL0     H26804   2.731  -0.280   2.266  1.1982 -2.8609  0.0866
  199MOL0     H26805   2.676  -0.383   2.386  1.0097  0.0805 -1.9437
  199MOL0     H26806   2.714  -0.087   2.418 -2.0007  0.9074  1.5486
  199MOL0     H26807   2.585  -0.151   2.509 -1.2234  0.7020 -2.6103
  199MOL0     H26808   2.712  -0.319   2.598  1.5853 -1.7441 -4.7731
  199MOL0     H26809   2.871  -0.267   2.550 -0.3638  1.9294 -3.7235
  199MOL0     H26810   2.837  -0.034   2.662  0.2373 -0.6904 -0.1645
  199MOL0     H26811   2.681  -0.080   2.704 -0.6735 -1.2312  2.0879
  199MOL0     H26812   2.803  -0.270   2.854  2.4261 -0.6672  0.6092
  199MOL0     H26813   2.830  -0.101   2.905 -3.1461 -1.3856  0.0401
  199MOL0     H26814   3.044  -0.218   2.909  1.3740 -0.9718 -0.0787
  199MOL0     H26815   3.018  -0.257   2.738 -2.3911 -1.1871  1.1116
  199MOL0     H26816   2.923   0.092   2.866  0.8642  0.5749 -0.3588
  199MOL0     H26817   3.169   0.362   2.720  0.2481 -0.0423 -0.1325
  199MOL0     H26818   2.993   0.349   2.752 -1.0811 -1.2689 -0.2904
  199MOL0     H26819   3.096   0.476   2.922  0.6178  1.2200  1.7939
  199MOL0     H26820   3.043   0.318   2.993  1.2083 -0.7462  1.5623
  199MOL0     H26821   3.337   0.395   2.903 -0.6665  1.4858  0.6788
  199MOL0     H26822   3.289   0.239   2.960  1.1200  0.6039 -3.0047
  199MOL0     H26823   3.389   0.340   3.147 -1.3383 -1.6063  0.0598
  199MOL0     H26824   3.217   0.349   3.175  0.0882  1.7976  1.6573
  199MOL0     H26825   3.357   0.747   3.022 -0.9283  1.0319  0.9285
  199MOL0     H26826   3.569   0.887   3.042  1.4814 -0.7566 -1.1050
  199MOL0     H26827   4.089   0.881   3.152  0.0115 -2.3441  1.3329
  199MOL0     H26828   4.286   1.019   3.254 -0.3734 -2.0106 -0.9139
  199MOL0     H26829   4.222   1.258   3.583 -2.2275 -1.8361  1.2942
  199MOL0     H26830   4.265   1.124   3.690 -0.5462  2.1180  1.1904
  199MOL0     H26831   4.470   1.312   3.566 -1.9690  0.5429 -1.6853
  199MOL0     H26832   4.427   1.292   3.736  4.0500 -3.0687  1.7321
  199MOL0     H26833   4.517   1.098   3.750 -5.6705 -1.4507 -2.4854
  199MOL0     H26834   4.581   1.085   3.588 -0.2071 -0.6839  1.6878
  199MOL0     H26835   4.756   1.170   3.756 -1.5640 -2.6188 -1.0158
  199MOL0     H26836   4.669   1.333   3.754  0.8292  1.3525 -2.8438
  199MOL0     H26837   4.706   1.342   3.507  2.3443  1.5015 -2.1248
  199MOL0     H26838   4.790   1.192   3.518 -0.0148  1.4442 -2.9878
  199MOL0     H26839   4.970   1.279   3.612  0.0726  0.4484 -0.7009
  199MOL0     H26840   4.939   1.407   3.502 -2.4578  2.2457 -0.4357
  199MOL0     H26841   4.921   1.395   3.796  1.7045 -2.7664 -1.5646
  199MOL0     H26842   4.827   1.527   3.711 -0.0061  0.5634  1.9140
  199MOL0     H26843   5.026   1.593   3.590  2.1714 -0.1899 -0.8693
  199MOL0     H26844   5.052   1.621   3.770  1.6397 -1.3628  2.2179
  199MOL0     H26845   4.079   1.042   3.631 -0.1751  0.3110 -0.6885
  199MOL0     H26846   3.890   0.913   3.530  0.5769  0.3030  0.2220
  199MOL0     H26847   3.710   0.593   3.327  0.2692 -1.7276  0.4774
  199MOL0     H26848   3.520   0.455   3.267 -3.9943  0.2182 -1.2667
  199MOL0     H26849   2.172  -0.228   2.196  0.3237  0.7633  0.0417
  199MOL0     H26850   2.089  -0.012   2.095 -1.1831  3.5341 -3.2889
  199MOL0     H26851   2.030   0.331   1.703 -1.1145 -0.5052  0.2679
  199MOL0     H26852   1.999   0.586   1.713  0.1401  2.9174  1.9942
  199MOL0     H26853   1.963   0.797   2.113  0.3729  3.4270  0.8073
  199MOL0     H26854   1.988   0.912   1.989 -3.0036 -0.4871 -0.3285
  199MOL0     H26855   2.197   0.706   2.074 -2.1152 -1.4424 -2.8122
  199MOL0     H26856   2.196   0.878   2.114  0.4000  0.5742 -0.7810
  199MOL0     H26857   2.195   0.902   1.844  0.1059 -0.3703 -1.6498
  199MOL0     H26858   2.241   0.742   1.859  0.9578  0.5439 -0.3408
  199MOL0     H26859   2.425   0.910   1.837 -1.1085  0.5464 -0.4512
  199MOL0     H26860   2.383   0.975   1.990  3.4066  1.6763 -0.6890
  199MOL0     H26861   2.613   0.686   2.154 -0.7494  0.6682  1.3290
  199MOL0     H26862   2.007   0.556   2.143  4.4304 -3.4726  2.0230
  199MOL0     H26863   2.031   0.365   2.256 -4.8603 -1.7761  0.5297
  199MOL0     H26864   1.940   0.239   2.180 -1.0443  1.1978 -2.5565
  199MOL0     H26865   2.115   0.228   2.166  1.9894  1.1213  0.0720
  200MOL0     O26866   9.145   9.828   9.379 -0.7235 -0.1366 -0.1023
  200MOL0     C26867   9.081   9.924   9.352 -0.1345  0.3033 -0.4575
  200MOL0     O26868   8.944   9.936   9.373 -0.5087 -0.8695 -0.7915
  200MOL0     C26869   8.877   9.860   9.454  0.2283  0.0621  0.0954
  200MOL0     C26870   8.756   9.807   9.409  0.6304  0.5395 -0.9398
  200MOL0     C26871   8.672   9.715   9.491 -0.2690 -0.0069 -0.6551
  200MOL0     C26872   8.718   9.693   9.619  1.0742 -0.2159  0.3099
  200MOL0     O26873   8.661   9.613   9.714 -0.2140 -0.1885  0.7241
  200MOL0     C26874   8.523   9.564   9.702 -0.0876  0.9004 -0.6116
  200MOL0     C26875   8.526   9.432   9.619 -0.2431  0.0354 -0.2192
  200MOL0     C26876   8.448   9.316   9.685 -0.1671  0.4915 -0.4376
  200MOL0     C26877   8.426   9.194   9.599 -0.8830 -0.9480 -0.6406
  200MOL0     C26878   8.355   9.079   9.670 -0.0197  0.6147  0.7453
  200MOL0     C26879   8.302   8.964   9.580 -0.1677 -0.1980 -0.0900
  200MOL0     C26880   8.240   8.847   9.660  0.0969 -0.1001  0.8130
  200MOL0     C26881   8.091   8.868   9.681  0.3945 -1.0984 -0.0575
  200MOL0     N26882   8.016   8.772   9.766 -0.5464 -0.6635 -0.2058
  200MOL0     C26883   7.989   8.784   9.897 -0.3516 -0.0916  0.1366
  200MOL0     C26884   7.924   8.666   9.926  0.0348 -0.0003  0.6102
  200MOL0     C26885   7.858   8.616  10.050 -0.2408  0.4382 -0.5994
  200MOL0     C26886   7.724   8.698  10.082  0.1363 -0.1930 -0.3068
  200MOL0     C26887   7.640   8.700   9.955 -0.9782  0.0867 -0.4602
  200MOL0     C26888   7.497   8.711   9.994  0.4458  0.4788  0.0198
  200MOL0     O26889   7.424   8.739   9.869  1.2509  0.1891 -0.3479
  200MOL0     C26890   7.286   8.760   9.883 -0.3869  0.5872 -0.3587
  200MOL0     C26891   7.218   8.792  10.005  0.8288  0.0565 -0.5346
  200MOL0     C26892   7.081   8.811  10.019 -0.4079 -0.4646 -0.4655
  200MOL0     C26893   6.999   8.796   9.901  0.5722  0.2119 -1.2084
  200MOL0     C26894   6.853   8.808   9.915  0.4161 -0.5728  0.3181
  200MOL0     O26895   6.807   8.836  10.043  0.5014 -0.0022  0.0389
  200MOL0     C26896   6.669   8.840  10.059 -0.4943 -0.0591  0.8715
  200MOL0     C26897   6.609   8.956  10.018 -0.4347  0.2908  0.3344
  200MOL0     C26898   6.466   8.967  10.032 -0.4241 -0.2678  0.0069
  200MOL0     C26899   6.389   8.873  10.096  0.1032  0.7288 -0.7430
  200MOL0     O26900   6.257   8.908  10.130 -0.3633  0.7453  0.0575
  200MOL0     C26901   6.184   8.856  10.238 -0.8547 -0.0019 -1.1417
  200MOL0     C26902   6.083   8.959  10.288 -0.1145 -0.8822  0.2477
  200MOL0     C26903   5.963   8.995  10.196  0.0305 -0.1532  0.3175
  200MOL0     C26904   5.858   8.894  10.188  0.8951  0.2729  0.9795
  200MOL0     C26905   5.748   8.917  10.078 -0.1032 -0.0780  0.2244
  200MOL0     C26906   5.687   9.061  10.083 -0.3785 -0.1206  0.2039
  200MOL0     C26907   5.559   9.065   9.998  0.5922 -0.1322  0.2236
  200MOL0     C26908   5.559   9.179   9.895 -0.6213 -0.6068  0.4150
  200MOL0    Cl26909   5.613   9.342   9.954 -0.0529 -0.1539 -0.0034
  200MOL0     C26910   6.458   8.766  10.149 -0.4305 -0.4543  0.6673
  200MOL0     C26911   6.592   8.740  10.120  0.0443  0.4312 -0.5089
  200MOL0     O26912   6.782   8.813   9.820  0.2559  0.4030  0.3559
  200MOL0     C26913   7.063   8.768   9.785 -0.0534 -0.4795  0.0544
  200MOL0     C26914   7.203   8.747   9.775 -0.3446 -0.1451  0.4139
  200MOL0     N26915   7.930   8.587   9.808  0.4076 -0.2877 -0.8794
  200MOL0     N26916   7.983   8.654   9.715  0.3912  0.5432 -0.8293
  200MOL0     C26917   8.831   9.761   9.666  0.1943 -0.5932 -0.1760
  200MOL0     C26918   8.913   9.836   9.586 -0.3551 -0.5038 -0.3576
  200MOL0     C26919   9.147  10.027   9.264  1.2103 -0.9778  0.0119
  200MOL0     C26920   9.082  10.084   9.153  0.9319  0.5251 -0.4434
  200MOL0     C26921   9.159  10.157   9.066  0.7120  0.4196 -0.2323
  200MOL0     C26922   9.285  10.205   9.094 -0.1471  0.2693  0.7112
  200MOL0     O26923   9.336  10.294   9.010 -0.8046 -0.8241  0.4894
  200MOL0     C26924   9.440  10.380   9.056 -0.3361  0.3845 -0.1753
  200MOL0     C26925   9.472  10.476   8.944 -0.7072  0.0561  0.7141
  200MOL0     C26926   9.507  10.413   8.813  0.4584  0.4444 -0.0249
  200MOL0     C26927   9.600  10.514   8.731  0.1226  0.5176  0.5554
  200MOL0     C26928   9.528  10.640   8.706 -0.5630 -0.5254  0.9059
  200MOL0     C26929   9.484  10.751   8.679 -0.3439  0.9267  0.4553
  200MOL0     C26930   9.345  10.158   9.204 -0.0599 -0.3351 -0.3114
  200MOL0     C26931   9.280  10.075   9.296  0.5022 -0.6243  0.1284
  200MOL0     C26932   9.362  10.027   9.415 -0.1656  0.1746 -0.0974
  200MOL0     H26933   8.724   9.815   9.305 -2.5495  0.0130 -0.1115
  200MOL0     H26934   8.586   9.665   9.448 -0.1370 -1.4594  0.6831
  200MOL0     H26935   8.499   9.532   9.804 -1.5824 -0.1480 -1.2541
  200MOL0     H26936   8.452   9.633   9.656 -2.1104 -0.9805 -0.4119
  200MOL0     H26937   8.625   9.385   9.618 -1.7600 -3.5206  1.0194
  200MOL0     H26938   8.490   9.457   9.519  0.2769  3.9949  0.4100
  200MOL0     H26939   8.350   9.356   9.715  1.7117  4.0546  1.7054
  200MOL0     H26940   8.498   9.270   9.772  2.7884 -2.7826 -3.5410
  200MOL0     H26941   8.362   9.219   9.514 -1.6520  3.2015  0.9474
  200MOL0     H26942   8.517   9.145   9.562 -1.5319 -1.9812 -0.9272
  200MOL0     H26943   8.405   9.040   9.758  1.6337 -2.4998 -1.3746
  200MOL0     H26944   8.267   9.138   9.696  1.9435  3.7265  0.8033
  200MOL0     H26945   8.238   9.000   9.499  0.0749 -0.9096 -0.6062
  200MOL0     H26946   8.393   8.923   9.535  0.9136  0.8786  1.0313
  200MOL0     H26947   8.293   8.842   9.756 -1.3595  0.9577  1.7144
  200MOL0     H26948   8.253   8.753   9.606  1.8583 -0.2066  1.3404
  200MOL0     H26949   8.108   8.962   9.734  0.9106 -0.3641 -1.4674
  200MOL0     H26950   8.032   8.894   9.592  1.1793  1.4019  0.0727
  200MOL0     H26951   7.990   8.866   9.968  0.4443 -0.5033  0.6039
  200MOL0     H26952   7.834   8.511  10.036 -3.7792  1.0421 -0.1109
  200MOL0     H26953   7.921   8.631  10.139  1.5756  4.1450 -2.2472
  200MOL0     H26954   7.669   8.649  10.162 -0.1938  0.2487 -0.2542
  200MOL0     H26955   7.746   8.802  10.110  1.3095 -0.0028 -1.8001
  200MOL0     H26956   7.657   8.604   9.905 -0.8490  0.7476 -1.7448
  200MOL0     H26957   7.663   8.781   9.885 -3.8675 -1.1105 -3.0234
  200MOL0     H26958   7.476   8.788  10.069 -1.5853 -1.6370  1.7823
  200MOL0     H26959   7.453   8.619  10.035  0.1050 -0.7313 -2.8453
  200MOL0     H26960   7.269   8.802  10.101 -0.6413  0.2636  0.2585
  200MOL0     H26961   7.045   8.815  10.122  0.9591 -0.0339  0.0177
  200MOL0     H26962   6.665   9.040   9.980  0.1075  0.4888  1.5333
  200MOL0     H26963   6.420   9.061  10.001 -0.5621 -0.4663 -0.3894
  200MOL0     H26964   6.135   8.763  10.208  2.2028 -1.1780 -2.9526
  200MOL0     H26965   6.248   8.813  10.315 -2.3990 -1.9193 -0.8496
  200MOL0     H26966   6.047   8.926  10.386  4.3852  2.8465  3.6875
  200MOL0     H26967   6.134   9.053  10.312 -0.6192  0.6243 -3.8974
  200MOL0     H26968   5.920   9.087  10.236  1.9947  1.1958 -0.4712
  200MOL0     H26969   5.999   9.010  10.093 -0.7278  1.5055  0.2619
  200MOL0     H26970   5.793   8.909  10.275 -1.8899  1.4503 -1.1653
  200MOL0     H26971   5.894   8.790  10.193 -1.7276 -0.7494  0.5435
  200MOL0     H26972   5.662   8.852  10.098  0.3162 -0.9345 -0.7091
  200MOL0     H26973   5.791   8.883   9.983 -0.9666 -0.5191 -0.0173
  200MOL0     H26974   5.658   9.081  10.186 -1.3946 -1.3707  0.1773
  200MOL0     H26975   5.753   9.136  10.039  0.6674  0.5881  2.8329
  200MOL0     H26976   5.473   9.083  10.063  1.3862  2.7343  0.6374
  200MOL0     H26977   5.545   8.970   9.945 -0.9724  1.1346 -1.7974
  200MOL0     H26978   5.635   9.155   9.820 -0.5290 -0.9752  0.6196
  200MOL0     H26979   5.467   9.194   9.838 -0.6456 -0.5981  0.4571
  200MOL0     H26980   6.415   8.697  10.222  0.2261 -0.6794  0.8494
  200MOL0     H26981   6.647   8.651  10.151 -1.3237  0.6744  3.1860
  200MOL0     H26982   6.999   8.754   9.698 -1.5730  2.5258  0.5584
  200MOL0     H26983   7.243   8.731   9.675  0.6627  2.0580  0.4069
  200MOL0     H26984   8.857   9.737   9.768  0.0578  1.1290  0.2979
  200MOL0     H26985   9.006   9.867   9.632  0.4787 -3.5628  0.2447
  200MOL0     H26986   8.979  10.053   9.141  1.2356 -1.6945  1.8128
  200MOL0     H26987   9.096  10.208   8.993  0.9359  0.4867 -0.3817
  200MOL0     H26988   9.530  10.322   9.080  1.0346  2.0530 -1.0701
  200MOL0     H26989   9.402  10.440   9.139 -0.0060  1.6983 -0.9563
  200MOL0     H26990   9.560  10.531   8.977 -0.7637 -0.0451  1.0301
  200MOL0     H26991   9.383  10.537   8.925 -0.8015 -0.5722 -1.1430
  200MOL0     H26992   9.415  10.395   8.756 -0.8077 -0.6522  2.2117
  200MOL0     H26993   9.559  10.319   8.833  0.6596  0.0175 -2.2514
  200MOL0     H26994   9.692  10.531   8.787  0.6121 -1.2895  0.3666
  200MOL0     H26995   9.615  10.476   8.629  0.8572 -0.2442  0.9318
  200MOL0     H26996   9.439  10.844   8.650  1.1112  0.7523 -2.8697
  200MOL0     H26997   9.451  10.174   9.220  0.0583 -1.9987  0.8795
  200MOL0     H26998   9.316  10.055   9.510  2.9264  3.0618  0.7574
  200MOL0     H26999   9.369   9.918   9.402 -2.3375  0.1675 -1.7473
  200MOL0     H27000   9.460  10.076   9.417  1.6028 -2.9706 -1.7853
  201MOL0     O27001   1.617   3.446   2.373 -0.1406 -0.4626  0.4590
  201MOL0     C27002   1.546   3.428   2.475 -0.0850 -0.8915  0.2789
  201MOL0     O27003   1.524   3.524   2.578 -0.2444 -0.3078  0.1117
  201MOL0     C27004   1.601   3.634   2.587 -1.1010  0.3435  0.1282
  201MOL0     C27005   1.739   3.634   2.555  0.1893 -0.8361  0.0057
  201MOL0     C27006   1.809   3.762   2.549  0.4087  0.2844 -0.6777
  201MOL0     C27007   1.737   3.882   2.575  0.3695  0.4091 -0.1572
  201MOL0     O27008   1.793   4.006   2.595  0.5520 -0.0416  1.0791
  201MOL0     C27009   1.880   4.058   2.501  0.3184 -0.2728  0.6786
  201MOL0     C27010   1.997   4.139   2.566 -0.5002  0.0823  0.9732
  201MOL0     C27011   2.062   4.084   2.699 -0.2084  0.4075  0.5525
  201MOL0     C27012   2.145   3.950   2.671  0.7900 -0.7262  0.5887
  201MOL0     C27013   2.255   3.948   2.783 -0.2887  0.5468 -0.8232
  201MOL0     C27014   2.209   3.878   2.908  0.5681 -1.5687  0.1816
  201MOL0     C27015   2.309   3.914   3.025  0.2768 -0.9213  0.6333
  201MOL0     C27016   2.288   3.814   3.140  0.1675  0.1385 -0.4934
  201MOL0     N27017   2.334   3.869   3.269  0.0551  0.7477 -0.3705
  201MOL0     C27018   2.265   3.883   3.388 -0.0829 -0.3756  0.7316
  201MOL0     C27019   2.360   3.942   3.471 -0.9084 -1.0104 -0.0710
  201MOL0     C27020   2.342   3.996   3.607  0.0416  1.0235  0.2378
  201MOL0     C27021   2.370   4.147   3.626 -0.9806 -0.5396  0.9355
  201MOL0     C27022   2.305   4.205   3.749  0.2557  0.3198 -0.0194
  201MOL0     C27023   2.345   4.347   3.777 -1.3203 -0.4413  0.8050
  201MOL0     O27024   2.481   4.366   3.813 -0.4034  0.0333  0.6419
  201MOL0     C27025   2.529   4.491   3.859 -0.2822 -0.4448 -0.2247
  201MOL0     C27026   2.488   4.623   3.826 -0.0589  0.3332 -0.2023
  201MOL0     C27027   2.556   4.735   3.882  0.2260  0.1740  0.8809
  201MOL0     C27028   2.669   4.716   3.958  0.1903  0.2322 -0.0535
  201MOL0     C27029   2.750   4.830   4.012  1.1981 -0.7450 -0.2333
  201MOL0     O27030   2.835   4.806   4.103 -0.2424 -0.1964 -0.2408
  201MOL0     C27031   2.904   4.909   4.180 -0.6588  0.7622 -0.2734
  201MOL0     C27032   2.892   4.926   4.313 -0.3607  0.3334 -0.8871
  201MOL0     C27033   2.980   5.008   4.389 -0.3512  0.5472  0.1760
  201MOL0     C27034   3.066   5.088   4.317 -0.6669  0.4575 -0.4402
  201MOL0     O27035   3.157   5.168   4.380 -0.0948 -1.0000  0.3527
  201MOL0     C27036   3.298   5.152   4.362 -0.4452 -0.1443 -0.5056
  201MOL0     C27037   3.377   5.229   4.474 -0.4427 -0.2792  0.8414
  201MOL0     C27038   3.524   5.208   4.455 -0.7075 -0.1642  0.6691
  201MOL0     C27039   3.592   5.335   4.524  0.0857 -0.4897  0.7978
  201MOL0     C27040   3.741   5.341   4.533  0.4843 -0.1819  0.3019
  201MOL0     C27041   3.812   5.467   4.580  0.2527  0.0149  0.4471
  201MOL0     C27042   3.947   5.436   4.626  0.0829  0.3557  0.6000
  201MOL0     C27043   4.028   5.557   4.659  0.5831 -1.3130 -0.4660
  201MOL0    Cl27044   4.201   5.510   4.681 -0.3261 -0.5042 -0.4306
  201MOL0     C27045   3.077   5.080   4.181  0.6604  0.0444  0.8192
  201MOL0     C27046   2.997   4.978   4.118 -0.2799  0.7929 -1.2388
  201MOL0     O27047   2.745   4.941   3.956 -0.5486  0.3101 -0.0270
  201MOL0     C27048   2.706   4.584   3.980 -0.4024 -0.2732  0.6087
  201MOL0     C27049   2.636   4.473   3.940  0.8361 -0.1507  0.3945
  201MOL0     N27050   2.485   3.948   3.409 -0.5388 -0.3461  0.2956
  201MOL0     N27051   2.464   3.899   3.288  0.3484 -0.0698  0.3021
  201MOL0     C27052   1.614   3.867   2.631  0.2972  1.0324 -0.8599
  201MOL0     C27053   1.545   3.749   2.637 -0.0848  0.7368  0.0064
  201MOL0     C27054   1.455   3.309   2.497 -0.0421  0.4764 -0.6572
  201MOL0     C27055   1.331   3.323   2.566 -0.3750  0.1207 -0.2062
  201MOL0     C27056   1.248   3.211   2.592 -0.8610 -0.8864  0.5410
  201MOL0     C27057   1.276   3.077   2.546 -0.1526 -0.6998  0.3479
  201MOL0     O27058   1.195   2.977   2.575 -0.7256  0.5670  0.2517
  201MOL0     C27059   1.045   2.998   2.555 -1.0404  0.0448 -0.4475
  201MOL0     C27060   0.983   2.854   2.547 -0.3855 -0.1091  0.4332
  201MOL0     C27061   1.028   2.765   2.429  0.2813 -0.0485  0.6154
  201MOL0     C27062   0.925   2.778   2.312 -0.4733  0.4715 -0.4927
  201MOL0     C27063   0.797   2.716   2.343 -0.1093 -0.7308 -0.4076
  201MOL0     C27064   0.691   2.666   2.374 -0.0437 -0.1216 -0.0244
  201MOL0     C27065   1.390   3.064   2.468  0.6456 -0.5172  0.0841
  201MOL0     C27066   1.470   3.172   2.439  0.1504  0.6730 -0.4728
  201MOL0     C27067   1.584   3.144   2.357  0.7748 -0.2319  0.3271
  201MOL0     H27068   1.790   3.542   2.528 -0.7637 -2.2977  2.8325
  201MOL0     H27069   1.916   3.769   2.529  0.7283  3.5922  1.3234
  201MOL0     H27070   1.934   3.977   2.450 -2.2985 -2.7765  1.6223
  201MOL0     H27071   1.829   4.128   2.434  2.5436 -0.7345 -1.6333
  201MOL0     H27072   1.959   4.240   2.580  0.7739  1.5981 -4.2533
  201MOL0     H27073   2.078   4.153   2.494  0.8807 -1.5740  2.0938
  201MOL0     H27074   1.978   4.053   2.762 -1.4985  4.0760  0.8885
  201MOL0     H27075   2.113   4.163   2.754 -1.7328  0.6468  1.6897
  201MOL0     H27076   2.082   3.861   2.678  1.5710 -1.7181 -2.9413
  201MOL0     H27077   2.186   3.965   2.571 -0.6140 -0.4364  0.0269
  201MOL0     H27078   2.353   3.906   2.760 -0.5265 -0.4050 -0.1789
  201MOL0     H27079   2.287   4.048   2.814 -0.6910 -0.0618  1.7680
  201MOL0     H27080   2.109   3.907   2.940  1.2719 -0.1243  1.2461
  201MOL0     H27081   2.200   3.773   2.879 -0.4875 -1.7170  0.9939
  201MOL0     H27082   2.298   4.019   3.055 -3.6129 -0.0821 -2.7577
  201MOL0     H27083   2.412   3.892   2.995  0.4772  0.5458  0.1646
  201MOL0     H27084   2.185   3.779   3.151  0.5140 -2.2202 -3.3612
  201MOL0     H27085   2.354   3.733   3.108  2.1584  0.7554  1.7772
  201MOL0     H27086   2.159   3.864   3.403 -0.2934 -0.7303 -1.0805
  201MOL0     H27087   2.238   3.971   3.631  0.1421 -1.6422 -1.7180
  201MOL0     H27088   2.405   3.939   3.676  0.2940  0.5383 -0.3893
  201MOL0     H27089   2.478   4.152   3.607 -0.5249 -2.8869  2.5151
  201MOL0     H27090   2.325   4.200   3.541  0.3725 -1.9464 -0.7546
  201MOL0     H27091   2.328   4.138   3.832 -2.9941 -2.4447 -1.0916
  201MOL0     H27092   2.196   4.203   3.738  0.0405 -2.1681  1.7127
  201MOL0     H27093   2.289   4.381   3.864  1.4325 -0.4535  2.6860
  201MOL0     H27094   2.313   4.400   3.686 -2.0700 -1.7076  0.2905
  201MOL0     H27095   2.410   4.632   3.752 -0.0083  0.9075 -0.1868
  201MOL0     H27096   2.518   4.832   3.850 -2.4461 -1.3449 -0.8984
  201MOL0     H27097   2.822   4.859   4.363 -1.2533 -0.4664 -3.0934
  201MOL0     H27098   2.986   5.016   4.497 -1.7781 -0.1363  0.3327
  201MOL0     H27099   3.319   5.044   4.370  1.6003  0.3412  1.9762
  201MOL0     H27100   3.332   5.193   4.267 -2.3855  0.2495 -1.0683
  201MOL0     H27101   3.349   5.334   4.462 -3.9112 -0.4644  4.7184
  201MOL0     H27102   3.348   5.187   4.572  0.2280  0.8220  1.5278
  201MOL0     H27103   3.555   5.116   4.505  3.8452  1.3275  1.0791
  201MOL0     H27104   3.547   5.211   4.348 -2.7694  1.2621  0.2096
  201MOL0     H27105   3.564   5.335   4.630  1.0302 -0.3807  1.0606
  201MOL0     H27106   3.563   5.433   4.484  0.5554 -0.8495 -0.4834
  201MOL0     H27107   3.790   5.296   4.446  0.9382 -0.1882  0.5590
  201MOL0     H27108   3.761   5.261   4.605  0.5937 -0.3242  0.1141
  201MOL0     H27109   3.814   5.543   4.501 -0.2606  2.2967  2.4990
  201MOL0     H27110   3.758   5.514   4.663 -0.4446 -1.4358  0.8525
  201MOL0     H27111   4.007   5.387   4.549 -0.5021  1.9001 -0.9282
  201MOL0     H27112   3.934   5.377   4.717  2.2774  0.7011  1.1988
  201MOL0     H27113   4.021   5.641   4.590  2.3295  0.9820  1.9217
  201MOL0     H27114   3.991   5.604   4.750  1.4674 -4.0507  1.4618
  201MOL0     H27115   3.142   5.141   4.118 -1.8460  1.5352 -0.4695
  201MOL0     H27116   2.998   4.963   4.010  0.0181 -1.2802 -1.0005
  201MOL0     H27117   2.802   4.566   4.027  1.2329 -2.1317 -3.0582
  201MOL0     H27118   2.664   4.370   3.960 -1.2384 -1.2309 -1.6856
  201MOL0     H27119   1.552   3.947   2.669 -1.7243 -1.2566  1.0033
  201MOL0     H27120   1.444   3.736   2.673  0.8306 -1.3919  2.1165
  201MOL0     H27121   1.309   3.423   2.600  1.5293  0.0941  1.2680
  201MOL0     H27122   1.145   3.227   2.621 -1.0654  1.7115 -1.2653
  201MOL0     H27123   1.035   3.044   2.457 -1.5458  1.1327  0.0927
  201MOL0     H27124   1.005   3.055   2.640 -1.0559  1.9627 -1.6833
  201MOL0     H27125   0.874   2.863   2.549 -0.3476  1.9572 -1.7072
  201MOL0     H27126   1.010   2.796   2.635 -0.6306 -2.4865 -0.9708
  201MOL0     H27127   1.039   2.660   2.456 -0.0029 -0.7539 -1.7583
  201MOL0     H27128   1.130   2.789   2.396 -0.2477  0.6506 -0.5529
  201MOL0     H27129   0.914   2.884   2.292  0.8105  0.9999  1.3441
  201MOL0     H27130   0.964   2.736   2.219 -0.1155  0.7880 -0.4890
  201MOL0     H27131   0.602   2.610   2.392  0.4933 -0.5076  1.5665
  201MOL0     H27132   1.404   2.965   2.425  0.7918 -1.3699  1.9634
  201MOL0     H27133   1.678   3.186   2.395  2.5683 -1.5825 -2.2501
  201MOL0     H27134   1.602   3.037   2.347  0.8126 -0.1791 -0.2572
  201MOL0     H27135   1.582   3.198   2.261  2.1320 -1.7416 -0.6163
  202MOL0     O27136   8.743  10.150   8.469 -0.0145 -0.1385 -0.6629
  202MOL0     C27137   8.653  10.090   8.413  0.7436  0.9738 -0.0941
  202MOL0     O27138   8.550  10.138   8.333 -0.2536  0.1699 -0.3357
  202MOL0     C27139   8.563  10.273   8.321  0.0168  0.3624 -1.4573
  202MOL0     C27140   8.457  10.351   8.356  0.1058  0.9909 -0.7326
  202MOL0     C27141   8.467  10.489   8.334  0.2245 -0.6138 -0.1524
  202MOL0     C27142   8.577  10.551   8.276  0.5252  0.1280  1.3902
  202MOL0     O27143   8.578  10.687   8.253 -0.0864  0.3103 -0.0409
  202MOL0     C27144   8.453  10.759   8.249  0.2268 -1.1174  0.7930
  202MOL0     C27145   8.467  10.887   8.169  0.0582  0.2118 -0.6963
  202MOL0     C27146   8.519  10.869   8.024 -0.0111 -0.4850  0.3171
  202MOL0     C27147   8.423  10.789   7.929  0.7593  0.8679 -0.4671
  202MOL0     C27148   8.482  10.766   7.793 -0.3303  0.2924  0.5896
  202MOL0     C27149   8.594  10.650   7.798  0.1037  0.1588 -0.6560
  202MOL0     C27150   8.649  10.625   7.654 -0.5103 -0.6612 -0.7812
  202MOL0     C27151   8.687  10.475   7.637 -1.4607 -0.2428  0.7325
  202MOL0     N27152   8.811  10.437   7.706 -0.2413  0.5486 -0.0158
  202MOL0     C27153   8.912  10.360   7.659  0.3622  0.1112 -0.5379
  202MOL0     C27154   8.997  10.345   7.762 -0.7465  0.6548 -0.5804
  202MOL0     C27155   9.134  10.266   7.745  0.2584 -0.1696  0.6604
  202MOL0     C27156   9.140  10.155   7.862  0.0498  0.5513  0.8142
  202MOL0     C27157   9.260  10.063   7.833  0.2879 -1.0775  0.4877
  202MOL0     C27158   9.309   9.983   7.959  0.0020 -0.1299 -0.9496
  202MOL0     O27159   9.430   9.925   7.938  0.5959 -0.3117 -0.3723
  202MOL0     C27160   9.484   9.851   8.038  0.2221 -0.6540 -0.8243
  202MOL0     C27161   9.423   9.804   8.153  0.8452  0.4705 -0.1133
  202MOL0     C27162   9.495   9.732   8.256  0.1108 -0.0726 -0.5555
  202MOL0     C27163   9.635   9.717   8.241 -0.3889 -0.1077 -0.0021
  202MOL0     C27164   9.711   9.656   8.363 -0.1182  0.8577  0.2761
  202MOL0     O27165   9.646   9.555   8.432  0.2364 -0.0910 -0.2669
  202MOL0     C27166   9.670   9.537   8.569  0.7796 -0.6473 -0.2994
  202MOL0     C27167   9.715   9.631   8.663 -0.6652 -0.0969 -0.3226
  202MOL0     C27168   9.721   9.593   8.800 -0.5717 -0.6573  0.2548
  202MOL0     C27169   9.705   9.464   8.847  1.0688  0.6528  0.6012
  202MOL0     O27170   9.719   9.405   8.973  0.7952 -0.4423  0.4457
  202MOL0     C27171   9.790   9.461   9.077 -0.4120  0.0253 -0.1845
  202MOL0     C27172   9.793   9.358   9.185  0.8826 -0.0918 -0.5578
  202MOL0     C27173   9.849   9.412   9.323  1.0200  0.9103  0.2486
  202MOL0     C27174   9.993   9.450   9.331 -0.3316 -0.0885 -0.7378
  202MOL0     C27175  10.037   9.465   9.481  0.2965 -0.7289 -0.4695
  202MOL0     C27176  10.166   9.557   9.487  0.8173 -0.3476  0.3327
  202MOL0     C27177  10.193   9.611   9.632  0.8797  0.5671  0.0528
  202MOL0     C27178  10.093   9.727   9.674  0.2275  0.9723  0.8839
  202MOL0    Cl27179  10.145   9.793   9.824  0.2991  0.9177  0.2964
  202MOL0     C27180   9.676   9.372   8.745  0.1865 -1.1591 -0.2406
  202MOL0     C27181   9.661   9.404   8.611 -0.9498 -0.0087 -0.0426
  202MOL0     O27182   9.827   9.694   8.378 -0.1327  0.0471  0.2817
  202MOL0     C27183   9.702   9.773   8.130  0.2131  0.9908 -0.2673
  202MOL0     C27184   9.625   9.831   8.022  0.4494  0.7869 -0.8855
  202MOL0     N27185   8.958  10.422   7.866  0.9435 -0.9880  0.2981
  202MOL0     N27186   8.850  10.486   7.826 -0.1560  0.2482 -0.1352
  202MOL0     C27187   8.672  10.466   8.236 -0.5540 -0.4558 -0.9991
  202MOL0     C27188   8.673  10.330   8.263 -0.6722  0.4542 -0.5554
  202MOL0     C27189   8.661   9.946   8.426  0.6828  0.4395 -0.1204
  202MOL0     C27190   8.710   9.878   8.307  0.4192 -0.3153  0.2983
  202MOL0     C27191   8.729   9.741   8.305 -0.0406  0.0574 -0.1714
  202MOL0     C27192   8.717   9.665   8.425  0.9100  0.5393  0.8104
  202MOL0     O27193   8.741   9.528   8.424 -0.1417 -0.3079  0.1028
  202MOL0     C27194   8.783   9.482   8.548  0.1751  0.4726  0.3425
  202MOL0     C27195   8.668   9.419   8.623 -0.5221  0.0038  0.4093
  202MOL0     C27196   8.590   9.300   8.556 -0.8721 -0.2403  1.2531
  202MOL0     C27197   8.508   9.224   8.661 -0.6955 -0.3670 -0.0895
  202MOL0     C27198   8.419   9.123   8.608  0.0319  0.5820  0.2725
  202MOL0     C27199   8.341   9.044   8.561 -0.2642  0.1950  0.1355
  202MOL0     C27200   8.678   9.738   8.540  0.4398 -0.2419 -0.9230
  202MOL0     C27201   8.661   9.876   8.542 -0.1469 -0.2284 -0.3160
  202MOL0     C27202   8.631   9.933   8.682  0.2469 -0.3401 -0.0647
  202MOL0     H27203   8.378  10.314   8.422  0.9747 -1.5411 -1.0124
  202MOL0     H27204   8.379  10.537   8.376 -0.3833  0.4712 -2.4717
  202MOL0     H27205   8.369  10.701   8.209  0.4718  0.5225 -2.3772
  202MOL0     H27206   8.426  10.786   8.352 -0.8238  0.8381  0.0426
  202MOL0     H27207   8.539  10.956   8.216 -3.1011  1.4513  2.7967
  202MOL0     H27208   8.370  10.937   8.159 -0.5669 -0.6402  0.9018
  202MOL0     H27209   8.618  10.825   8.030  0.1590 -0.2618 -0.6006
  202MOL0     H27210   8.540  10.963   7.972 -0.6124 -0.3860  0.2379
  202MOL0     H27211   8.411  10.689   7.971  1.4786  0.9354 -0.0784
  202MOL0     H27212   8.321  10.826   7.931 -0.3081 -1.7515  2.8932
  202MOL0     H27213   8.404  10.730   7.725 -0.4189  2.9978 -0.8715
  202MOL0     H27214   8.526  10.855   7.749  0.5038  1.0797  2.9093
  202MOL0     H27215   8.681  10.690   7.851  1.6326  1.9042 -4.1667
  202MOL0     H27216   8.552  10.556   7.834  1.3334  0.4953  1.9079
  202MOL0     H27217   8.728  10.698   7.635 -0.8531 -0.0144  0.2473
  202MOL0     H27218   8.568  10.658   7.588 -1.0878  1.2048  0.7669
  202MOL0     H27219   8.604  10.412   7.671 -2.8135 -0.7784 -3.0735
  202MOL0     H27220   8.697  10.450   7.531 -1.8538  2.1431  0.0672
  202MOL0     H27221   8.916  10.330   7.555 -0.1456  1.1821 -0.8826
  202MOL0     H27222   9.141  10.226   7.644  0.1213 -1.8533  1.2837
  202MOL0     H27223   9.204  10.350   7.743 -0.5858  0.5529 -1.7035
  202MOL0     H27224   9.164  10.206   7.956  3.1950 -3.2542  2.3629
  202MOL0     H27225   9.046  10.100   7.860 -0.8206  1.9933  0.8239
  202MOL0     H27226   9.338  10.135   7.808 -0.1490 -1.9039 -4.0608
  202MOL0     H27227   9.246   9.993   7.751  0.3562 -0.8675  0.2953
  202MOL0     H27228   9.240   9.910   8.001  0.6860  0.0842  0.6100
  202MOL0     H27229   9.308  10.056   8.040 -1.4791  0.3948 -1.4066
  202MOL0     H27230   9.315   9.812   8.164  1.1033  0.7256  3.4035
  202MOL0     H27231   9.441   9.696   8.343 -1.4213 -0.4400 -1.6233
  202MOL0     H27232   9.727   9.735   8.635  2.2932  0.2758  1.8288
  202MOL0     H27233   9.753   9.670   8.870  0.4508  0.0678 -0.9764
  202MOL0     H27234   9.897   9.473   9.055 -0.0204 -0.8571  1.0901
  202MOL0     H27235   9.762   9.563   9.104  2.6445  0.7121  0.8278
  202MOL0     H27236   9.692   9.321   9.203  0.8274 -0.6520 -1.8909
  202MOL0     H27237   9.858   9.277   9.151 -0.2169 -1.0657 -0.4052
  202MOL0     H27238   9.787   9.493   9.362 -0.1466  0.4600 -0.6260
  202MOL0     H27239   9.836   9.323   9.385  0.9342  0.4585 -0.4112
  202MOL0     H27240   9.996   9.553   9.292  1.1575  0.6810  1.2135
  202MOL0     H27241  10.053   9.387   9.264 -0.9693 -1.2565 -0.2375
  202MOL0     H27242  10.047   9.365   9.525  3.8088 -0.3937 -0.2566
  202MOL0     H27243   9.965   9.516   9.545  3.7498  2.2718  1.3778
  202MOL0     H27244  10.250   9.494   9.459 -0.5388 -1.3701 -1.6551
  202MOL0     H27245  10.149   9.634   9.410  0.0557 -1.7745 -0.9901
  202MOL0     H27246  10.296   9.647   9.632  0.8662  0.7029  1.9654
  202MOL0     H27247  10.187   9.528   9.702  3.0790  0.8085  0.5853
  202MOL0     H27248  10.084   9.807   9.600  0.0465  1.1038  1.0480
  202MOL0     H27249   9.994   9.686   9.694  0.0734  0.9237  0.0800
  202MOL0     H27250   9.653   9.268   8.766  0.3612 -1.0636  0.4443
  202MOL0     H27251   9.636   9.328   8.537  1.5553 -2.9974  1.8973
  202MOL0     H27252   9.809   9.757   8.119  0.5453  0.8231  2.5076
  202MOL0     H27253   9.675   9.862   7.931 -0.1749 -0.2509 -1.6045
  202MOL0     H27254   8.759  10.514   8.192  0.1066 -0.4115  0.3311
  202MOL0     H27255   8.752  10.269   8.221 -0.6334  0.4782 -0.5145
  202MOL0     H27256   8.719   9.936   8.215  0.9630 -1.7638 -0.6030
  202MOL0     H27257   8.773   9.698   8.217  1.3714  0.4216  0.3316
  202MOL0     H27258   8.843   9.551   8.608  3.9157 -3.1038  1.2351
  202MOL0     H27259   8.846   9.397   8.519 -2.3897 -2.2014  1.9241
  202MOL0     H27260   8.588   9.494   8.620  0.5198  1.1890  1.2525
  202MOL0     H27261   8.705   9.393   8.723  0.4803  1.0007  0.3121
  202MOL0     H27262   8.657   9.232   8.503 -2.8309 -0.6559 -0.8721
  202MOL0     H27263   8.529   9.348   8.479 -0.2610 -0.1256  0.8309
  202MOL0     H27264   8.584   9.179   8.725 -1.6400 -0.8181  0.7484
  202MOL0     H27265   8.451   9.292   8.725 -2.0566 -0.1967 -1.4313
  202MOL0     H27266   8.273   8.975   8.515 -1.7985  2.1590 -0.7077
  202MOL0     H27267   8.674   9.682   8.633 -0.6533  0.1794 -0.7005
  202MOL0     H27268   8.728   9.939   8.733 -0.6875 -3.4126  2.3910
  202MOL0     H27269   8.580  10.028   8.666  1.9770  0.2538 -2.4736
  202MOL0     H27270   8.565   9.864   8.736 -0.0119  0.5035  0.7235
  203MOL0     O27271   8.157   0.292   1.925 -0.2122  0.1400 -0.2339
  203MOL0     C27272   8.144   0.286   2.047  0.6271 -0.6865  0.2803
  203MOL0     O27273   8.068   0.190   2.112 -0.3236  0.7457  0.2874
  203MOL0     C27274   8.018   0.087   2.036 -0.0415 -0.2142 -0.0561
  203MOL0     C27275   7.903   0.124   1.982  0.4839  1.2212  0.7920
  203MOL0     C27276   7.844   0.024   1.886 -0.7399 -1.1151 -0.7388
  203MOL0     C27277   7.905  -0.096   1.853 -0.4361 -0.2039  0.0749
  203MOL0     O27278   7.851  -0.207   1.776  0.2274  0.5521  0.2170
  203MOL0     C27279   7.713  -0.238   1.801 -0.4144 -0.1235  1.0415
  203MOL0     C27280   7.690  -0.375   1.863  0.3683  0.0530  0.1813
  203MOL0     C27281   7.769  -0.409   1.990  0.4770 -0.4177  0.6500
  203MOL0     C27282   7.748  -0.304   2.101 -0.0672  0.0451  0.1678
  203MOL0     C27283   7.782  -0.369   2.242 -0.3401  0.4623  0.7520
  203MOL0     C27284   7.782  -0.272   2.361  0.7016 -0.3934  0.0146
  203MOL0     C27285   7.888  -0.159   2.346 -0.4362  0.3203 -0.8640
  203MOL0     C27286   7.957  -0.131   2.480  1.2065 -0.4772  0.5871
  203MOL0     N27287   8.066  -0.037   2.457 -0.3437  0.2254 -0.5595
  203MOL0     C27288   8.186  -0.079   2.410 -0.0213  0.9726  0.2906
  203MOL0     C27289   8.281   0.013   2.422  0.4438 -0.0621 -0.0169
  203MOL0     C27290   8.430   0.000   2.379 -0.3229 -1.4273  0.1041
  203MOL0     C27291   8.490  -0.117   2.449  0.2972  1.3924 -0.0491
  203MOL0     C27292   8.510  -0.085   2.598 -0.5953  0.3472 -0.1030
  203MOL0     C27293   8.651  -0.110   2.644  0.9037 -0.0038 -2.3049
  203MOL0     O27294   8.687  -0.252   2.646 -0.7174 -0.2177  0.6026
  203MOL0     C27295   8.783  -0.305   2.732  0.3990  0.0699  0.3124
  203MOL0     C27296   8.822  -0.433   2.689 -0.6856  0.3528 -0.0688
  203MOL0     C27297   8.917  -0.504   2.753  0.1359 -0.5222 -0.4673
  203MOL0     C27298   8.971  -0.450   2.870 -0.0333 -0.4270  0.1455
  203MOL0     C27299   9.086  -0.523   2.942 -0.1796 -0.3329  0.4312
  203MOL0     O27300   9.113  -0.495   3.080 -0.4886 -0.2484  0.2429
  203MOL0     C27301   9.191  -0.580   3.156  0.3960  0.7001 -0.4489
  203MOL0     C27302   9.327  -0.552   3.167  0.0421  0.7045 -0.9587
  203MOL0     C27303   9.411  -0.619   3.261 -0.3164 -1.1682 -0.3805
  203MOL0     C27304   9.350  -0.698   3.362 -0.1524 -0.6195  0.8404
  203MOL0     O27305   9.436  -0.722   3.473  0.0286  0.4895 -0.8191
  203MOL0     C27306   9.375  -0.741   3.601  0.3323 -0.0246 -0.2019
  203MOL0     C27307   9.459  -0.674   3.701 -0.0147 -0.0890 -0.0932
  203MOL0     C27308   9.393  -0.687   3.833 -0.6217  0.6886  0.3950
  203MOL0     C27309   9.242  -0.642   3.844 -0.4885  0.0976 -0.1851
  203MOL0     C27310   9.182  -0.636   3.991 -0.2226 -0.7604 -0.5388
  203MOL0     C27311   9.176  -0.774   4.070  0.3232 -0.4715 -0.3062
  203MOL0     C27312   9.235  -0.757   4.209  0.4828  0.2813 -0.6930
  203MOL0     C27313   9.157  -0.672   4.298  0.1554  0.9498  0.0088
  203MOL0    Cl27314   9.015  -0.758   4.330  0.4429 -0.2316 -0.4936
  203MOL0     C27315   9.224  -0.749   3.333  0.5571  0.0290  0.6637
  203MOL0     C27316   9.146  -0.691   3.229  0.7300  0.0093 -0.4811
  203MOL0     O27317   9.145  -0.611   2.874 -0.5446 -0.0658 -0.0630
  203MOL0     C27318   8.935  -0.324   2.910  0.3425 -0.2604 -0.6549
  203MOL0     C27319   8.845  -0.237   2.839 -0.5664 -0.0292 -0.6489
  203MOL0     N27320   8.218   0.119   2.483  0.2832  0.2396  0.4392
  203MOL0     N27321   8.094   0.086   2.507 -0.0110 -0.2234 -0.4730
  203MOL0     C27322   8.034  -0.109   1.902  1.0828  0.0018 -0.6853
  203MOL0     C27323   8.083  -0.024   1.996 -1.3402  0.5401  0.4928
  203MOL0     C27324   8.214   0.384   2.132  1.1768  0.2826  0.2668
  203MOL0     C27325   8.248   0.341   2.256 -0.3265 -0.0377  0.2840
  203MOL0     C27326   8.295   0.427   2.355 -0.0444  0.2210  0.8988
  203MOL0     C27327   8.335   0.558   2.317  0.4129 -0.2527  0.1028
  203MOL0     O27328   8.400   0.631   2.415  0.4429 -0.1332 -0.3378
  203MOL0     C27329   8.432   0.769   2.394  0.0273 -0.7684 -0.1898
  203MOL0     C27330   8.448   0.841   2.529  0.1795 -0.3187 -0.0485
  203MOL0     C27331   8.489   0.987   2.510 -0.0032  0.0722  0.1036
  203MOL0     C27332   8.488   1.055   2.650 -0.4409 -0.3490 -0.4691
  203MOL0     C27333   8.530   1.192   2.651 -0.2616 -0.4006  0.1106
  203MOL0     C27334   8.582   1.298   2.639 -0.2086  0.3106 -0.0216
  203MOL0     C27335   8.297   0.608   2.192  0.4868 -1.2769  0.9720
  203MOL0     C27336   8.232   0.524   2.099  1.3124  0.4143  0.3624
  203MOL0     C27337   8.184   0.592   1.968 -0.2696 -0.6946  0.1240
  203MOL0     H27338   7.863   0.223   2.000 -1.5891  0.6217 -0.1735
  203MOL0     H27339   7.749   0.061   1.847 -1.6531 -1.4173  1.1402
  203MOL0     H27340   7.662  -0.163   1.862 -3.8570 -0.8143 -0.7707
  203MOL0     H27341   7.656  -0.234   1.708  2.8949 -1.1075 -1.2355
  203MOL0     H27342   7.701  -0.456   1.790 -2.9375 -1.5128  1.2329
  203MOL0     H27343   7.584  -0.387   1.890  0.2588 -1.5731 -0.8230
  203MOL0     H27344   7.876  -0.418   1.969  1.0351  1.7259  2.2939
  203MOL0     H27345   7.740  -0.511   2.016  1.4902 -1.1207 -0.8033
  203MOL0     H27346   7.814  -0.219   2.084 -0.6109  0.3903 -0.2817
  203MOL0     H27347   7.643  -0.274   2.107  0.0543  0.1457  2.7416
  203MOL0     H27348   7.715  -0.453   2.266 -0.5383 -0.0115 -1.2499
  203MOL0     H27349   7.883  -0.412   2.238 -0.0151  1.1099  1.7353
  203MOL0     H27350   7.678  -0.241   2.370  0.3371 -1.1225 -1.3699
  203MOL0     H27351   7.803  -0.338   2.446 -0.3435  1.5378  1.8765
  203MOL0     H27352   7.851  -0.071   2.292  0.5918 -1.4712 -4.8584
  203MOL0     H27353   7.960  -0.195   2.272 -1.8544  0.3089 -2.3122
  203MOL0     H27354   7.896  -0.083   2.557  0.6818 -2.6876  1.6237
  203MOL0     H27355   7.980  -0.228   2.526  1.0112 -0.4515  0.7404
  203MOL0     H27356   8.207  -0.173   2.361  1.8017  1.8399 -0.6977
  203MOL0     H27357   8.426  -0.016   2.271 -1.1735  0.2438 -0.1568
  203MOL0     H27358   8.492   0.088   2.395 -0.4570 -1.0416 -1.2905
  203MOL0     H27359   8.432  -0.209   2.439 -0.1194  1.4750  1.4097
  203MOL0     H27360   8.587  -0.145   2.408 -0.6950 -0.3815 -1.3108
  203MOL0     H27361   8.441  -0.145   2.658  0.8659  0.2660  1.6065
  203MOL0     H27362   8.474   0.016   2.618 -2.2970  0.2491 -2.4169
  203MOL0     H27363   8.665  -0.068   2.744  3.8869 -1.3479 -2.0641
  203MOL0     H27364   8.716  -0.045   2.585  0.6190  1.9648 -0.5783
  203MOL0     H27365   8.797  -0.467   2.589 -0.2083  3.0008 -1.1683
  203MOL0     H27366   8.959  -0.595   2.713  0.1445 -0.4285 -0.6729
  203MOL0     H27367   9.371  -0.472   3.109  0.6708  1.2922  0.2985
  203MOL0     H27368   9.513  -0.580   3.266  0.3663 -2.9669  0.6422
  203MOL0     H27369   9.276  -0.697   3.590  1.0385  0.8649 -4.7422
  203MOL0     H27370   9.363  -0.849   3.614  1.1396 -0.1340 -0.3081
  203MOL0     H27371   9.560  -0.715   3.708  0.7838  1.7529 -0.2866
  203MOL0     H27372   9.477  -0.570   3.674  2.2204 -1.3301 -4.2365
  203MOL0     H27373   9.423  -0.785   3.870 -2.8210 -0.1002  0.2434
  203MOL0     H27374   9.448  -0.626   3.905 -0.1148  3.4110 -2.1188
  203MOL0     H27375   9.177  -0.703   3.780  5.0249 -2.7560 -3.9022
  203MOL0     H27376   9.254  -0.541   3.804  0.0046 -0.3056 -1.0854
  203MOL0     H27377   9.087  -0.581   3.995  1.7810  2.8610  1.2206
  203MOL0     H27378   9.236  -0.563   4.051 -2.3308  3.2154 -3.0379
  203MOL0     H27379   9.071  -0.806   4.076  0.4490 -0.9285 -0.5383
  203MOL0     H27380   9.232  -0.851   4.017  1.5571  0.9061 -1.0725
  203MOL0     H27381   9.331  -0.706   4.197  0.5585  0.0312 -1.1713
  203MOL0     H27382   9.251  -0.855   4.255  0.0121  1.4894  2.2197
  203MOL0     H27383   9.217  -0.660   4.389 -1.7020  1.6279  1.2001
  203MOL0     H27384   9.133  -0.570   4.267 -0.1316  0.5105 -1.3030
  203MOL0     H27385   9.187  -0.827   3.398 -0.3365  0.1572  0.3225
  203MOL0     H27386   9.045  -0.730   3.227  0.9107 -0.4995  0.2283
  203MOL0     H27387   8.985  -0.270   2.990  3.4757 -2.8297 -0.6731
  203MOL0     H27388   8.822  -0.139   2.877  0.8424  0.4501 -0.9517
  203MOL0     H27389   8.085  -0.201   1.875 -1.7490 -1.7352 -0.5873
  203MOL0     H27390   8.181  -0.048   2.038 -0.7445  1.9005 -0.0364
  203MOL0     H27391   8.223   0.237   2.274 -0.0352 -0.0412  0.7038
  203MOL0     H27392   8.324   0.393   2.454  1.3565 -0.9050  0.1369
  203MOL0     H27393   8.360   0.832   2.341  1.7055  1.5615  0.1030
  203MOL0     H27394   8.526   0.777   2.339  0.2145 -2.8926 -0.2600
  203MOL0     H27395   8.520   0.790   2.593  0.8716  1.2559  0.4657
  203MOL0     H27396   8.348   0.841   2.573  0.2376  0.5977  0.1096
  203MOL0     H27397   8.439   1.048   2.433  1.4518  0.4214 -0.6063
  203MOL0     H27398   8.594   0.980   2.480  0.1440  0.2052  0.5826
  203MOL0     H27399   8.389   1.061   2.698  1.1989 -2.4600  3.7219
  203MOL0     H27400   8.545   0.992   2.719 -0.5895 -3.1624 -2.7502
  203MOL0     H27401   8.641   1.385   2.619  1.1942 -1.4364 -4.6695
  203MOL0     H27402   8.326   0.711   2.172 -2.4086 -0.4040  0.7029
  203MOL0     H27403   8.262   0.568   1.895  1.4551 -1.9145  2.2160
  203MOL0     H27404   8.091   0.553   1.927  0.6760 -1.3560 -1.4839
  203MOL0     H27405   8.173   0.699   1.985  1.7851 -0.6804  1.8419
  204MOL0     O27406  10.242   4.260  11.382 -0.0640 -0.8115  0.5679
  204MOL0     C27407  10.133   4.219  11.341  0.0030 -0.3493  0.7098
  204MOL0     O27408  10.119   4.114  11.252  0.1439  1.5544 -0.3768
  204MOL0     C27409  10.221   4.027  11.224 -1.0194 -0.1452  0.4736
  204MOL0     C27410  10.361   4.058  11.210 -0.6944  0.8274  0.7823
  204MOL0     C27411  10.457   3.968  11.158  0.4805  0.3899 -0.6958
  204MOL0     C27412  10.422   3.838  11.126  1.3441 -0.2428 -0.1753
  204MOL0     O27413  10.513   3.767  11.058  0.5214 -0.1493 -0.4171
  204MOL0     C27414  10.541   3.630  11.104  0.1111 -0.9055 -0.7016
  204MOL0     C27415  10.693   3.611  11.089 -0.4218  0.2803 -0.2704
  204MOL0     C27416  10.777   3.728  11.132 -0.3736 -0.5404  0.4176
  204MOL0     C27417  10.909   3.669  11.185 -0.4944  0.4785 -0.8810
  204MOL0     C27418  11.002   3.788  11.219 -0.5584 -0.5444 -0.4533
  204MOL0     C27419  11.139   3.744  11.272  0.4829  0.8938  0.8419
  204MOL0     C27420  11.240   3.858  11.263 -0.2910  0.8201 -0.5648
  204MOL0     C27421  11.222   3.959  11.380  0.5827 -0.4340  0.7103
  204MOL0     N27422  11.348   4.027  11.425  0.2748 -0.2359  0.5156
  204MOL0     C27423  11.426   3.989  11.525 -1.1081  0.3271  0.0155
  204MOL0     C27424  11.540   4.059  11.504  0.1294 -0.3417 -0.3195
  204MOL0     C27425  11.669   4.042  11.582 -0.7116  0.2475 -0.0318
  204MOL0     C27426  11.789   4.024  11.495 -0.8885 -0.1872  1.5415
  204MOL0     C27427  11.910   3.994  11.565 -0.2986 -0.3497  0.8009
  204MOL0     C27428  11.966   4.117  11.626 -0.2068  0.7935 -0.5985
  204MOL0     O27429  12.075   4.074  11.714  0.3717  0.3549 -0.8679
  204MOL0     C27430  12.197   4.072  11.656 -0.0288  1.1359  0.3813
  204MOL0     C27431  12.280   4.185  11.655  0.1581  0.2181  0.4903
  204MOL0     C27432  12.401   4.184  11.584 -0.6545  0.7575  0.1169
  204MOL0     C27433  12.443   4.070  11.521 -0.1117  0.5891  0.1882
  204MOL0     C27434  12.576   4.060  11.460  0.2249  0.6042 -0.2700
  204MOL0     O27435  12.670   4.152  11.492  0.4055 -0.1851 -0.2931
  204MOL0     C27436  12.781   4.149  11.409  0.2839 -0.4175  0.6847
  204MOL0     C27437  12.796   4.264  11.330  0.3156 -0.1246 -0.2918
  204MOL0     C27438  12.904   4.296  11.248 -0.5495 -0.3758 -0.0567
  204MOL0     C27439  13.015   4.206  11.250  0.4210 -0.0413  0.0544
  204MOL0     O27440  13.138   4.213  11.192 -1.2025 -0.1626  0.0776
  204MOL0     C27441  13.190   4.327  11.123  0.2048 -0.0479  0.0926
  204MOL0     C27442  13.173   4.304  10.973 -0.7124  0.0596 -1.0275
  204MOL0     C27443  13.262   4.186  10.932 -0.6012 -1.0931 -0.4495
  204MOL0     C27444  13.276   4.156  10.785 -0.2946 -0.0723  0.2997
  204MOL0     C27445  13.385   4.063  10.764  0.2036 -0.2046 -0.1393
  204MOL0     C27446  13.520   4.122  10.773 -1.0727  0.1709 -0.5851
  204MOL0     C27447  13.630   4.013  10.759  0.0875 -0.3753 -0.8146
  204MOL0     C27448  13.744   4.049  10.852  0.1644 -0.3924  0.5407
  204MOL0    Cl27449  13.884   3.939  10.807  0.2524  0.3936 -0.5437
  204MOL0     C27450  12.990   4.091  11.326 -0.6236  0.0913  0.5408
  204MOL0     C27451  12.882   4.058  11.403 -0.6098  0.5926 -0.0167
  204MOL0     O27452  12.595   3.966  11.378  0.4516  0.3760 -0.2306
  204MOL0     C27453  12.361   3.954  11.514 -0.3533  1.7328 -0.8569
  204MOL0     C27454  12.237   3.958  11.583 -0.6934  0.4752 -1.0474
  204MOL0     N27455  11.525   4.139  11.400 -0.0430 -0.9691 -0.0921
  204MOL0     N27456  11.402   4.131  11.351 -0.2752  0.4839 -0.1722
  204MOL0     C27457  10.288   3.798  11.150  0.9841  0.3988 -0.7186
  204MOL0     C27458  10.192   3.895  11.191  0.2064 -0.2541 -0.7688
  204MOL0     C27459  10.008   4.275  11.396 -0.0202 -0.2505  0.4091
  204MOL0     C27460   9.893   4.199  11.400  0.7284  1.4270  0.0409
  204MOL0     C27461   9.768   4.256  11.425  0.3681 -0.1863  0.1535
  204MOL0     C27462   9.746   4.391  11.448 -1.0945  0.6404  0.2893
  204MOL0     O27463   9.625   4.456  11.457 -0.0953  0.0557  0.6835
  204MOL0     C27464   9.540   4.399  11.549 -0.3173 -0.0230  0.3263
  204MOL0     C27465   9.451   4.503  11.601  0.4505 -0.5829  0.1569
  204MOL0     C27466   9.517   4.626  11.670  0.3243  0.2765  0.0559
  204MOL0     C27467   9.555   4.604  11.817 -0.3538  0.5921  0.2236
  204MOL0     C27468   9.461   4.547  11.916 -0.4251 -0.6251  0.1277
  204MOL0     C27469   9.372   4.515  11.992 -0.8459 -0.3449  0.1420
  204MOL0     C27470   9.863   4.469  11.448 -1.0842 -0.3881  0.5793
  204MOL0     C27471   9.996   4.414  11.427  0.7607  0.9919 -0.2522
  204MOL0     C27472  10.103   4.518  11.423  0.5523  0.5162 -0.2253
  204MOL0     H27473  10.392   4.160  11.229  0.1956  0.4294  1.5442
  204MOL0     H27474  10.558   4.000  11.134  0.5515  0.1023 -0.7926
  204MOL0     H27475  10.524   3.629  11.212  3.0899 -1.2402 -0.1389
  204MOL0     H27476  10.482   3.550  11.059  0.1720 -1.6001  0.4393
  204MOL0     H27477  10.708   3.584  10.984 -0.6895  1.1305 -0.5407
  204MOL0     H27478  10.706   3.524  11.153 -2.6353 -1.5978 -2.1802
  204MOL0     H27479  10.730   3.792  11.208 -0.4980  1.5881 -1.3602
  204MOL0     H27480  10.796   3.792  11.045  2.9435  2.0633  2.8033
  204MOL0     H27481  10.873   3.608  11.269 -1.6426 -0.9951 -2.3870
  204MOL0     H27482  10.956   3.604  11.111 -0.8184  1.3386 -1.8592
  204MOL0     H27483  11.017   3.865  11.143 -1.1706  0.9460  0.8579
  204MOL0     H27484  10.951   3.837  11.303  0.2652  0.5818 -0.5829
  204MOL0     H27485  11.141   3.704  11.374  0.8061 -3.8440 -0.7889
  204MOL0     H27486  11.178   3.666  11.207  1.0324 -0.6755  2.9391
  204MOL0     H27487  11.230   3.904  11.164 -8.1452 -0.3627 -0.9630
  204MOL0     H27488  11.336   3.807  11.271 -1.0834 -0.5612  0.5346
  204MOL0     H27489  11.150   4.041  11.371  2.8579  2.0017  3.0121
  204MOL0     H27490  11.192   3.901  11.467  1.9181 -2.0710  0.1408
  204MOL0     H27491  11.414   3.911  11.599 -0.4289 -0.6107 -0.8431
  204MOL0     H27492  11.666   4.133  11.642  1.6278  1.3933 -1.5074
  204MOL0     H27493  11.660   3.959  11.652  2.3389  1.0872  1.4973
  204MOL0     H27494  11.763   3.945  11.424 -0.8092  2.9317 -2.3880
  204MOL0     H27495  11.808   4.116  11.438 -3.4277 -0.0825  0.7326
  204MOL0     H27496  11.977   3.962  11.485 -2.1628  1.8540 -1.8320
  204MOL0     H27497  11.908   3.919  11.645  0.5265 -0.4449  0.7360
  204MOL0     H27498  11.888   4.161  11.689  0.1822 -0.7458  1.0345
  204MOL0     H27499  12.012   4.179  11.549  0.8720  0.5046 -0.2054
  204MOL0     H27500  12.244   4.272  11.710 -0.4480 -0.7245  1.6359
  204MOL0     H27501  12.465   4.269  11.610 -0.2316  0.7210 -0.7631
  204MOL0     H27502  12.712   4.333  11.326 -2.3193 -3.1121 -0.2947
  204MOL0     H27503  12.912   4.380  11.180 -0.4549  0.0092  0.4244
  204MOL0     H27504  13.134   4.412  11.165 -1.7972 -1.5229  0.5578
  204MOL0     H27505  13.293   4.334  11.158  0.0575 -1.1588  0.7934
  204MOL0     H27506  13.069   4.284  10.946 -0.5729  0.2731 -1.7602
  204MOL0     H27507  13.209   4.389  10.913  1.7556 -1.2212 -1.5068
  204MOL0     H27508  13.361   4.205  10.973 -0.4659 -1.8786 -0.4088
  204MOL0     H27509  13.216   4.095  10.971 -0.1781 -1.8005 -1.5445
  204MOL0     H27510  13.296   4.248  10.729 -1.9156 -1.1808 -2.2699
  204MOL0     H27511  13.187   4.107  10.745 -0.7898  1.1360 -0.1349
  204MOL0     H27512  13.378   4.015  10.666 -0.0525  0.3002 -0.3725
  204MOL0     H27513  13.374   3.973  10.825 -2.5890  0.1152 -0.0740
  204MOL0     H27514  13.536   4.195  10.693  0.9986 -0.8789 -1.1847
  204MOL0     H27515  13.540   4.179  10.864  2.9531  3.3349 -3.0941
  204MOL0     H27516  13.673   4.016  10.658  0.2008 -0.1383 -0.7614
  204MOL0     H27517  13.606   3.910  10.787 -1.0805 -0.0491 -0.5809
  204MOL0     H27518  13.778   4.152  10.845  0.4006 -0.4455  0.8884
  204MOL0     H27519  13.700   4.046  10.952 -2.8366  2.4178 -0.5114
  204MOL0     H27520  13.073   4.023  11.338 -0.4102 -0.0590 -1.5088
  204MOL0     H27521  12.904   3.970  11.464  2.5194 -0.2778 -2.1323
  204MOL0     H27522  12.397   3.864  11.464 -0.9104  2.4520 -2.6134
  204MOL0     H27523  12.164   3.878  11.587  1.9017 -2.0298  0.4684
  204MOL0     H27524  10.251   3.697  11.134 -2.5984  1.3371  0.6643
  204MOL0     H27525  10.088   3.863  11.190  0.0967  0.1026 -0.7647
  204MOL0     H27526   9.898   4.095  11.371 -1.6572  1.1210  0.5068
  204MOL0     H27527   9.683   4.188  11.413  0.6923 -0.3389 -1.5207
  204MOL0     H27528   9.606   4.366  11.630 -0.4718  2.9077  1.7950
  204MOL0     H27529   9.488   4.316  11.501 -0.8697  1.2516 -1.3751
  204MOL0     H27530   9.375   4.465  11.669  0.1064  3.6346  2.4757
  204MOL0     H27531   9.399   4.537  11.511  4.0373  1.8287 -1.2523
  204MOL0     H27532   9.439   4.702  11.669 -0.4650 -0.5086  0.5468
  204MOL0     H27533   9.598   4.666  11.608 -1.3530  1.5460 -1.4040
  204MOL0     H27534   9.642   4.537  11.814 -0.7560 -0.1283  2.5188
  204MOL0     H27535   9.573   4.703  11.860  3.3965  0.1760 -0.0118
  204MOL0     H27536   9.297   4.482  12.061 -1.8224 -1.6704 -1.4506
  204MOL0     H27537   9.856   4.578  11.454 -2.8707 -0.4477  0.1462
  204MOL0     H27538  10.197   4.488  11.472  1.1346  0.0840 -1.5439
  204MOL0     H27539  10.121   4.545  11.318  0.8380  1.3431  0.0331
  204MOL0     H27540  10.070   4.608  11.475  0.2486 -0.3094  1.0622
  205MOL0     O27541  11.227   2.519  10.846 -0.2023  0.8669  0.3620
  205MOL0     C27542  11.315   2.508  10.930 -0.0535 -0.3757 -0.1128
  205MOL0     O27543  11.285   2.487  11.069  0.7854  0.7334  0.0503
  205MOL0     C27544  11.163   2.507  11.124  0.5991  0.1055 -0.1713
  205MOL0     C27545  11.043   2.444  11.079  0.0044  1.2127 -0.1039
  205MOL0     C27546  10.928   2.479  11.147  0.3380  0.1701 -0.1100
  205MOL0     C27547  10.926   2.566  11.258  0.1652 -0.9600 -0.1386
  205MOL0     O27548  10.813   2.594  11.329  0.4129 -0.0075  0.1548
  205MOL0     C27549  10.678   2.546  11.290  0.5210  0.2084 -0.8735
  205MOL0     C27550  10.577   2.578  11.384  0.0402 -0.1212  0.3033
  205MOL0     C27551  10.446   2.507  11.333  1.5721  0.3981  0.0890
  205MOL0     C27552  10.321   2.556  11.407  0.5620 -0.3855  0.4657
  205MOL0     C27553  10.269   2.696  11.363 -0.0549 -0.0392 -0.5372
  205MOL0     C27554  10.206   2.702  11.222  0.0514  0.4419  1.0537
  205MOL0     C27555  10.066   2.659  11.226  0.4878 -0.2318  0.0829
  205MOL0     C27556  10.010   2.604  11.095 -0.0762 -0.9617 -0.1978
  205MOL0     N27557  10.010   2.701  10.981  0.5360 -0.3694  0.9170
  205MOL0     C27558  10.110   2.775  10.930 -1.8983  0.4064 -0.0264
  205MOL0     C27559  10.057   2.836  10.823 -0.1696  0.5709 -0.0528
  205MOL0     C27560  10.111   2.950  10.731 -0.3660 -0.4833  0.6574
  205MOL0     C27561  10.047   3.083  10.762 -0.0576 -1.3629 -0.8874
  205MOL0     C27562  10.108   3.186  10.856 -0.3406 -0.6345 -0.8779
  205MOL0     C27563   9.992   3.281  10.892 -0.5869  1.0843  0.4422
  205MOL0     O27564  10.046   3.362  10.993  0.0583  0.3312  0.0177
  205MOL0     C27565   9.970   3.459  11.055  0.3619  0.5767  0.6455
  205MOL0     C27566   9.845   3.499  11.009 -0.4766 -0.3084 -0.6522
  205MOL0     C27567   9.774   3.584  11.087  0.2797  0.4720  0.1443
  205MOL0     C27568   9.817   3.642  11.210 -0.2704  1.2423  0.7646
  205MOL0     C27569   9.743   3.745  11.280 -0.7628  0.8484 -0.1113
  205MOL0     O27570   9.607   3.749  11.276  0.1350  0.2196  0.4055
  205MOL0     C27571   9.522   3.836  11.352 -0.0107  0.6075  0.4768
  205MOL0     C27572   9.394   3.846  11.303  0.7730  0.5286  0.2189
  205MOL0     C27573   9.307   3.940  11.351 -0.6032  0.8336  0.3578
  205MOL0     C27574   9.326   4.015  11.466  0.2723 -0.8492 -0.2951
  205MOL0     O27575   9.227   4.087  11.524 -0.1149 -0.7334  0.3920
  205MOL0     C27576   9.241   4.170  11.641  0.7645  0.1545  0.8739
  205MOL0     C27577   9.109   4.247  11.645 -0.4649 -0.5532 -0.7078
  205MOL0     C27578   9.075   4.344  11.762  0.6118 -0.5422 -0.6228
  205MOL0     C27579   8.934   4.422  11.742 -0.5862  0.0797 -0.0661
  205MOL0     C27580   8.930   4.529  11.849  0.3274  0.0118 -1.0386
  205MOL0     C27581   9.004   4.650  11.808 -1.0534  0.3181 -0.1757
  205MOL0     C27582   9.039   4.745  11.922  0.0734 -0.7659 -0.0556
  205MOL0     C27583   9.081   4.880  11.863  0.3186  0.0582  0.4739
  205MOL0    Cl27584   9.226   4.853  11.773 -0.2033 -0.2178 -0.2769
  205MOL0     C27585   9.453   4.003  11.523 -0.8885 -0.3052 -0.2072
  205MOL0     C27586   9.549   3.919  11.463 -0.3352 -0.4244 -0.2984
  205MOL0     O27587   9.812   3.834  11.325  0.2039 -0.1274 -0.9923
  205MOL0     C27588   9.951   3.624  11.243 -0.4583 -0.3594  0.2443
  205MOL0     C27589  10.025   3.529  11.159 -1.1063  0.1870 -0.2437
  205MOL0     N27590   9.935   2.788  10.811  0.1278  0.6271 -0.2684
  205MOL0     N27591   9.900   2.726  10.909  0.6322 -0.0627 -0.0137
  205MOL0     C27592  11.045   2.609  11.308  0.1951 -0.3959 -0.2244
  205MOL0     C27593  11.163   2.584  11.233 -0.2672 -0.6452 -1.0051
  205MOL0     C27594  11.462   2.481  10.891  1.0067 -0.5158  0.0646
  205MOL0     C27595  11.505   2.549  10.773 -0.1215  0.9931  0.1408
  205MOL0     C27596  11.640   2.545  10.731  0.9335 -0.0543 -0.8360
  205MOL0     C27597  11.725   2.465  10.810 -0.5141 -0.4556 -1.2289
  205MOL0     O27598  11.853   2.432  10.779  0.5470  0.0017 -0.2057
  205MOL0     C27599  11.914   2.516  10.680 -0.3695  0.1026 -0.4961
  205MOL0     C27600  12.062   2.512  10.697 -0.6574 -0.2144  0.1016
  205MOL0     C27601  12.126   2.370  10.695  0.1532 -0.3431  0.2473
  205MOL0     C27602  12.274   2.364  10.664 -0.5064  0.3226 -0.0242
  205MOL0     C27603  12.324   2.230  10.653  0.6191  0.0323  0.4980
  205MOL0     C27604  12.377   2.123  10.626  0.0393 -0.0345 -0.2748
  205MOL0     C27605  11.686   2.400  10.925  0.4333  0.7689  0.4190
  205MOL0     C27606  11.554   2.415  10.979  0.2480  0.2978  0.3868
  205MOL0     C27607  11.526   2.333  11.095  0.0574  1.0683  0.1678
  205MOL0     H27608  11.058   2.371  11.000  2.6186  1.3258  0.1967
  205MOL0     H27609  10.835   2.433  11.115  0.4137  1.2421 -2.0402
  205MOL0     H27610  10.638   2.601  11.204 -1.0090  0.3850 -0.0707
  205MOL0     H27611  10.663   2.440  11.271  1.1319 -0.2203  0.8931
  205MOL0     H27612  10.559   2.685  11.383  2.8999  0.5754  3.2903
  205MOL0     H27613  10.604   2.564  11.490 -1.5540 -1.6654  0.5516
  205MOL0     H27614  10.453   2.401  11.360  1.3814  0.1048 -0.9816
  205MOL0     H27615  10.407   2.530  11.234 -1.9535  2.4770  1.7822
  205MOL0     H27616  10.238   2.489  11.380  2.7706 -2.9554 -0.4275
  205MOL0     H27617  10.335   2.541  11.514  0.8899  0.0641  0.4842
  205MOL0     H27618  10.197   2.738  11.434  0.0032  3.6444 -2.4244
  205MOL0     H27619  10.350   2.769  11.371  1.2202 -1.5745  1.8373
  205MOL0     H27620  10.212   2.807  11.191 -1.0022 -0.1939 -1.6320
  205MOL0     H27621  10.255   2.639  11.148  2.2655  0.9958  1.9829
  205MOL0     H27622  10.008   2.746  11.259  2.3933  0.4456  1.8378
  205MOL0     H27623  10.041   2.581  11.298 -1.7477 -2.6270 -3.0107
  205MOL0     H27624  10.058   2.515  11.052 -1.3009 -1.5938 -0.2953
  205MOL0     H27625   9.911   2.561  11.110  0.5168 -2.2833  0.0835
  205MOL0     H27626  10.210   2.790  10.971 -1.8882 -2.6663  1.4004
  205MOL0     H27627  10.220   2.955  10.742  0.0003  0.3751 -2.5810
  205MOL0     H27628  10.084   2.920  10.630  1.5866  0.3250 -0.1462
  205MOL0     H27629  10.023   3.134  10.668 -2.0932 -2.2811 -0.9136
  205MOL0     H27630   9.954   3.062  10.816 -0.2357  2.2285  0.5067
  205MOL0     H27631  10.173   3.244  10.790 -0.4004  0.7505  0.2373
  205MOL0     H27632  10.168   3.140  10.935 -1.1879  1.3083  1.0313
  205MOL0     H27633   9.895   3.236  10.918 -2.3727  2.0435 -3.7829
  205MOL0     H27634   9.972   3.337  10.801  6.1420  0.9929 -1.6296
  205MOL0     H27635   9.805   3.452  10.920  0.1385  0.6746 -1.4606
  205MOL0     H27636   9.675   3.613  11.054  0.2199  1.8820  1.4360
  205MOL0     H27637   9.369   3.775  11.225 -1.2915 -0.6480  1.8451
  205MOL0     H27638   9.217   3.950  11.291  0.7768  0.4887 -1.9159
  205MOL0     H27639   9.270   4.104  11.723 -0.3098 -1.3263  0.0922
  205MOL0     H27640   9.314   4.251  11.633  0.1542  0.5787 -0.9208
  205MOL0     H27641   9.092   4.303  11.553 -0.3198 -0.2398 -0.5460
  205MOL0     H27642   9.027   4.174  11.649 -1.4470  0.5253 -0.6317
  205MOL0     H27643   9.067   4.299  11.861 -0.4129 -0.2185 -0.5488
  205MOL0     H27644   9.159   4.415  11.761  0.5292 -0.4347 -2.5248
  205MOL0     H27645   8.853   4.351  11.763 -2.9685  2.3645 -1.0319
  205MOL0     H27646   8.927   4.453  11.638 -1.3804 -1.3108 -0.4542
  205MOL0     H27647   8.966   4.497  11.947 -1.4432 -0.5105 -0.5156
  205MOL0     H27648   8.828   4.563  11.869  0.7712 -0.0839  1.8227
  205MOL0     H27649   9.090   4.627  11.744 -0.2781  1.9541  0.2145
  205MOL0     H27650   8.944   4.703  11.734  1.3294  2.0976 -0.9772
  205MOL0     H27651   9.110   4.681  11.975 -1.1890 -2.3834 -0.2222
  205MOL0     H27652   8.947   4.756  11.980 -1.9429  1.1144 -3.2799
  205MOL0     H27653   9.006   4.923  11.796  0.2175 -1.4651 -0.4286
  205MOL0     H27654   9.096   4.956  11.941 -0.6282 -0.5194  1.2485
  205MOL0     H27655   9.473   4.048  11.620 -0.0702  0.9339 -0.9249
  205MOL0     H27656   9.650   3.915  11.504 -0.0583 -0.4304 -0.9681
  205MOL0     H27657   9.999   3.683  11.320  0.5643  1.9869 -2.0108
  205MOL0     H27658  10.127   3.513  11.191 -1.6497 -1.3231  0.8671
  205MOL0     H27659  11.044   2.659  11.405  1.3161 -3.3231  1.4014
  205MOL0     H27660  11.257   2.627  11.267 -2.9464  2.7898  3.1333
  205MOL0     H27661  11.431   2.592  10.706 -0.7747  0.3438  0.4307
  205MOL0     H27662  11.676   2.608  10.650  2.4921  1.1008  0.6746
  205MOL0     H27663  11.880   2.619  10.696 -0.9528 -0.2924  0.9977
  205MOL0     H27664  11.887   2.484  10.579  0.7080  0.0502 -0.7765
  205MOL0     H27665  12.093   2.566  10.787  1.6496 -3.6756  1.5715
  205MOL0     H27666  12.117   2.572  10.623  0.2471 -1.8651 -0.6106
  205MOL0     H27667  12.090   2.308  10.612  0.2460 -0.4466  0.2824
  205MOL0     H27668  12.120   2.322  10.792  1.7659  1.1452  1.1502
  205MOL0     H27669  12.275   2.416  10.567 -1.2500  0.8568  0.2396
  205MOL0     H27670  12.346   2.412  10.730  0.0724 -1.1534  0.4585
  205MOL0     H27671  12.438   2.035  10.632 -1.1772 -1.0124 -1.5463
  205MOL0     H27672  11.757   2.329  10.967 -1.2396 -0.5173  1.1739
  205MOL0     H27673  11.529   2.394  11.186  0.8486  0.8863  0.2716
  205MOL0     H27674  11.430   2.285  11.074  1.1632 -0.6358 -1.3079
  205MOL0     H27675  11.607   2.261  11.111 -0.4003  0.8077  1.4386
  206MOL0     O27676   6.677   1.277   5.984  0.0894 -0.7945 -0.4467
  206MOL0     C27677   6.733   1.339   6.073 -0.4074  0.0070  1.7928
  206MOL0     O27678   6.776   1.464   6.067 -0.1921  1.5091  0.5596
  206MOL0     C27679   6.785   1.530   5.946  0.0261  0.5984 -0.0385
  206MOL0     C27680   6.751   1.665   5.942 -0.7747  0.1216  0.2645
  206MOL0     C27681   6.759   1.742   5.830  0.4071  0.0613  0.1633
  206MOL0     C27682   6.795   1.695   5.702 -0.0394 -0.3963  0.2773
  206MOL0     O27683   6.782   1.766   5.581 -0.8386  0.1638 -0.7204
  206MOL0     C27684   6.728   1.895   5.572 -0.0896 -0.6287 -0.2043
  206MOL0     C27685   6.682   1.926   5.429 -0.5661 -0.2346 -0.3359
  206MOL0     C27686   6.791   1.909   5.321  0.6044  0.3395 -0.2511
  206MOL0     C27687   6.724   1.925   5.183 -0.3167 -0.3559 -0.5950
  206MOL0     C27688   6.823   1.969   5.079  0.3082 -0.3308 -0.9663
  206MOL0     C27689   6.958   1.894   5.075  1.3662  0.1569 -0.2779
  206MOL0     C27690   6.943   1.750   5.029 -0.7366 -0.6074  1.2260
  206MOL0     C27691   6.888   1.736   4.880  0.0452 -0.3026  0.8022
  206MOL0     N27692   6.933   1.606   4.833  0.1815 -0.3206 -0.3636
  206MOL0     C27693   6.905   1.493   4.891  0.7207  0.6805  1.1558
  206MOL0     C27694   6.918   1.391   4.797 -0.4515  0.6322  0.7819
  206MOL0     C27695   6.891   1.237   4.817 -1.1407 -0.2341 -0.2595
  206MOL0     C27696   6.742   1.182   4.821  0.3832 -0.7077  0.0270
  206MOL0     C27697   6.668   1.196   4.957 -0.2190  0.0749  0.5102
  206MOL0     C27698   6.519   1.150   4.945 -0.0568  0.6679 -0.5617
  206MOL0     O27699   6.522   1.004   4.930  0.5868  0.3332  0.0286
  206MOL0     C27700   6.415   0.940   4.985  0.1234  0.5002 -0.5151
  206MOL0     C27701   6.294   0.917   4.910 -0.3691  0.9082  0.4140
  206MOL0     C27702   6.176   0.859   4.975  0.2303 -0.1394  0.3783
  206MOL0     C27703   6.174   0.825   5.113 -0.4757 -0.4201  1.3990
  206MOL0     C27704   6.063   0.774   5.181  0.3675  0.4311 -1.2974
  206MOL0     O27705   5.944   0.822   5.138  0.3150  0.0654 -0.1259
  206MOL0     C27706   5.832   0.797   5.209  0.1435 -0.9258 -0.5542
  206MOL0     C27707   5.795   0.864   5.330  0.7865 -0.3890 -0.2991
  206MOL0     C27708   5.663   0.850   5.369 -0.3711  0.2917  0.2397
  206MOL0     C27709   5.572   0.753   5.315  0.4002 -0.4906  0.5081
  206MOL0     O27710   5.449   0.724   5.362  0.3007 -0.6776  0.3598
  206MOL0     C27711   5.355   0.831   5.397  0.1237  0.5537 -0.0147
  206MOL0     C27712   5.226   0.789   5.468 -0.8487 -0.1400  0.4623
  206MOL0     C27713   5.132   0.904   5.492 -0.0707 -0.1969 -0.7207
  206MOL0     C27714   5.165   1.015   5.596  0.5603 -0.8925  0.4124
  206MOL0     C27715   5.042   1.073   5.666  0.2987 -0.1002  0.2446
  206MOL0     C27716   5.071   1.211   5.733 -0.1853 -0.8135  0.1962
  206MOL0     C27717   5.137   1.198   5.868 -0.6036 -0.0280 -0.3755
  206MOL0     C27718   5.160   1.335   5.930  0.3769 -0.8479 -0.7553
  206MOL0    Cl27719   5.314   1.379   5.882 -0.2434  0.3259  0.5249
  206MOL0     C27720   5.615   0.673   5.207 -0.2609 -0.0734 -0.3652
  206MOL0     C27721   5.741   0.698   5.158  0.0955  0.6628  0.7462
  206MOL0     O27722   6.079   0.684   5.263  0.0422 -0.6390  0.5608
  206MOL0     C27723   6.294   0.843   5.179  0.1892  0.2976  0.2814
  206MOL0     C27724   6.411   0.894   5.113  0.0281 -0.7671 -1.9585
  206MOL0     N27725   6.963   1.460   4.685  0.3944  0.3673  0.2135
  206MOL0     N27726   6.965   1.582   4.705 -0.1796 -0.1209  0.1361
  206MOL0     C27727   6.833   1.557   5.706  0.0225 -1.2896  0.3655
  206MOL0     C27728   6.830   1.478   5.821  0.0437 -0.1830  0.1898
  206MOL0     C27729   6.762   1.270   6.203 -0.1504 -0.7148 -0.3283
  206MOL0     C27730   6.676   1.295   6.323  0.4969  0.6900  0.5806
  206MOL0     C27731   6.688   1.217   6.430  0.3350  0.4604 -0.6300
  206MOL0     C27732   6.789   1.120   6.433 -1.0771 -1.3577 -0.6567
  206MOL0     O27733   6.808   1.054   6.543 -0.5065  0.1569 -0.8100
  206MOL0     C27734   6.799   1.135   6.666 -0.2803 -0.8155  0.0184
  206MOL0     C27735   6.902   1.067   6.764 -0.6572 -0.1094 -0.8564
  206MOL0     C27736   6.941   1.161   6.886 -0.1527 -0.5382  0.4185
  206MOL0     C27737   7.030   1.283   6.830 -0.5564 -0.1243 -0.2455
  206MOL0     C27738   7.095   1.354   6.942 -0.4702 -1.0044 -0.3051
  206MOL0     C27739   7.144   1.409   7.035 -0.9427 -0.4949 -0.9383
  206MOL0     C27740   6.869   1.099   6.324  0.3251 -0.1645 -0.7891
  206MOL0     C27741   6.851   1.167   6.204 -0.6278 -0.5497 -0.3390
  206MOL0     C27742   6.941   1.135   6.087 -0.3184  0.3023 -0.5880
  206MOL0     H27743   6.701   1.689   6.036 -3.4475 -5.5104  0.7367
  206MOL0     H27744   6.729   1.846   5.822  2.6264  0.7095 -0.3504
  206MOL0     H27745   6.638   1.899   5.635 -0.5179 -0.1389 -0.8419
  206MOL0     H27746   6.790   1.973   5.617  0.6796 -0.7016 -1.1118
  206MOL0     H27747   6.653   2.032   5.431  2.4680  0.7077 -1.0782
  206MOL0     H27748   6.594   1.864   5.409  0.3562 -0.9603 -2.3845
  206MOL0     H27749   6.836   1.809   5.329 -1.8941 -1.1400 -2.9297
  206MOL0     H27750   6.868   1.987   5.330 -0.5179  1.2749  2.0324
  206MOL0     H27751   6.672   1.834   5.150 -0.4644 -0.0951 -1.1014
  206MOL0     H27752   6.640   1.995   5.177 -0.4354 -0.5721 -2.0058
  206MOL0     H27753   6.773   1.959   4.982 -0.1417  2.4606 -1.1053
  206MOL0     H27754   6.841   2.076   5.092  3.0630 -0.7085 -1.1335
  206MOL0     H27755   7.022   1.948   5.006 -0.4877 -0.1598 -2.3497
  206MOL0     H27756   7.010   1.890   5.171  2.7166  0.7636 -0.9596
  206MOL0     H27757   6.885   1.689   5.099 -0.8026 -0.4051  1.3473
  206MOL0     H27758   7.047   1.714   5.028  0.9730  3.6742  1.1012
  206MOL0     H27759   6.780   1.751   4.872  0.1927 -0.0778 -0.9684
  206MOL0     H27760   6.932   1.813   4.816  0.1356 -0.4882  0.6418
  206MOL0     H27761   6.869   1.476   4.992 -1.8033 -0.8263  0.1172
  206MOL0     H27762   6.943   1.193   4.731  2.1889  2.2102  0.3185
  206MOL0     H27763   6.947   1.194   4.901 -1.9919 -1.3593 -0.2504
  206MOL0     H27764   6.688   1.211   4.731  2.7027 -1.4196 -1.6686
  206MOL0     H27765   6.755   1.075   4.808  0.0782 -1.1998  2.9829
  206MOL0     H27766   6.671   1.300   4.992  3.8841  0.7150 -1.1675
  206MOL0     H27767   6.709   1.140   5.041 -0.1752 -0.0007  0.4386
  206MOL0     H27768   6.477   1.200   4.857 -0.2442  0.0467 -0.8301
  206MOL0     H27769   6.467   1.179   5.037 -1.0246 -3.1238  0.2599
  206MOL0     H27770   6.297   0.951   4.807 -1.1206 -0.9068 -0.2645
  206MOL0     H27771   6.090   0.835   4.913  0.4007 -1.3797  0.5882
  206MOL0     H27772   5.877   0.918   5.376  0.8584 -0.5628 -0.2251
  206MOL0     H27773   5.630   0.924   5.441  2.2344 -1.1968  3.2172
  206MOL0     H27774   5.401   0.909   5.458 -0.2581  0.7145  0.0743
  206MOL0     H27775   5.315   0.877   5.306  0.3761 -0.5417 -0.7069
  206MOL0     H27776   5.166   0.716   5.413  2.3320 -2.1168 -0.6355
  206MOL0     H27777   5.252   0.727   5.554 -1.1130 -3.2136 -1.5376
  206MOL0     H27778   5.108   0.955   5.398  0.8367  1.7638  0.0570
  206MOL0     H27779   5.039   0.854   5.521  2.2809 -3.8744  1.1783
  206MOL0     H27780   5.229   1.083   5.539 -1.6397  0.2373 -0.8391
  206MOL0     H27781   5.225   0.964   5.673 -1.7637 -0.7952  2.4013
  206MOL0     H27782   5.003   1.014   5.750  1.5006 -0.8415  0.2995
  206MOL0     H27783   4.970   1.081   5.584  2.2359 -2.2682 -1.8249
  206MOL0     H27784   5.129   1.277   5.668  0.7737 -1.9983 -0.1959
  206MOL0     H27785   4.976   1.265   5.741  0.8403  0.9872  0.7404
  206MOL0     H27786   5.228   1.139   5.856 -0.9393 -0.2095 -2.2612
  206MOL0     H27787   5.065   1.149   5.934 -0.3605  0.6233  0.3926
  206MOL0     H27788   5.089   1.412   5.898  2.1621 -0.2412 -3.5861
  206MOL0     H27789   5.171   1.330   6.039  2.3423  0.9579 -0.8033
  206MOL0     H27790   5.538   0.603   5.173 -3.7292  2.3663  1.7803
  206MOL0     H27791   5.775   0.634   5.077 -0.7427  0.4543  0.5566
  206MOL0     H27792   6.299   0.820   5.285 -0.0945  3.5706  1.1203
  206MOL0     H27793   6.497   0.912   5.177 -1.0177 -0.3369 -0.6171
  206MOL0     H27794   6.877   1.536   5.609 -2.5449  1.3647 -1.5512
  206MOL0     H27795   6.873   1.380   5.806 -0.9911 -0.6082 -0.1319
  206MOL0     H27796   6.622   1.389   6.324  1.0554  1.0368  2.7563
  206MOL0     H27797   6.619   1.225   6.513  2.5743 -0.3998  1.4397
  206MOL0     H27798   6.702   1.137   6.718 -0.9366 -0.6026 -1.1875
  206MOL0     H27799   6.826   1.240   6.656 -0.1417 -0.9329 -0.9201
  206MOL0     H27800   6.984   1.017   6.712  0.4989  0.7889  0.0529
  206MOL0     H27801   6.855   0.980   6.810  1.4207 -0.8118  0.0114
  206MOL0     H27802   6.994   1.093   6.953  0.0152  0.1854  1.0299
  206MOL0     H27803   6.854   1.202   6.939 -3.2340 -5.4731 -0.1176
  206MOL0     H27804   7.106   1.243   6.763 -2.1698  0.4468 -2.5076
  206MOL0     H27805   6.968   1.353   6.774  2.4942  0.5071 -3.1291
  206MOL0     H27806   7.211   1.433   7.115  1.9643  0.1715 -3.3831
  206MOL0     H27807   6.948   1.025   6.335 -0.2208 -0.5809  0.6088
  206MOL0     H27808   6.869   1.116   6.006 -3.1808  2.5676  1.2008
  206MOL0     H27809   6.997   1.228   6.074 -2.0544  1.3451 -0.9753
  206MOL0     H27810   7.002   1.050   6.118 -1.4769  0.4110  2.3105
  207MOL0     O27811   5.506   1.426  10.071  0.6431  0.0381 -0.3209
  207MOL0     C27812   5.525   1.540  10.113 -0.3343 -0.5273  0.1679
  207MOL0     O27813   5.461   1.588  10.229 -0.3484 -0.4209 -0.5076
  207MOL0     C27814   5.381   1.514  10.312 -0.0545 -0.5850  0.4874
  207MOL0     C27815   5.298   1.418  10.266  1.1765  1.2132  0.0924
  207MOL0     C27816   5.195   1.348  10.339 -0.3373 -0.7059 -0.6894
  207MOL0     C27817   5.202   1.370  10.483  0.4042 -0.4957  0.7504
  207MOL0     O27818   5.113   1.304  10.562 -0.0456 -0.6132  0.3852
  207MOL0     C27819   5.183   1.191  10.612  0.1516 -0.1723 -0.2736
  207MOL0     C27820   5.084   1.079  10.629  0.0020  0.1571  0.8567
  207MOL0     C27821   4.998   1.043  10.503  1.0233  0.7018  0.2496
  207MOL0     C27822   4.919   0.916  10.518 -0.7080 -0.4017  0.0935
  207MOL0     C27823   4.839   0.877  10.393 -0.1873 -0.4790 -0.3062
  207MOL0     C27824   4.783   0.742  10.403 -0.1389  0.9678  0.5239
  207MOL0     C27825   4.673   0.726  10.298  0.1132 -1.1923  0.3441
  207MOL0     C27826   4.592   0.598  10.334 -0.0933  0.4310  0.0845
  207MOL0     N27827   4.472   0.585  10.254 -0.2182 -0.0484  0.7480
  207MOL0     C27828   4.347   0.614  10.309 -0.3869  0.2603  0.7166
  207MOL0     C27829   4.259   0.578  10.214 -0.2726  0.5741  0.1949
  207MOL0     C27830   4.113   0.604  10.218  0.8246  0.4495 -0.3179
  207MOL0     C27831   4.031   0.473  10.164 -0.2161 -0.6854  0.7229
  207MOL0     C27832   3.987   0.503  10.023 -0.4665 -0.3008 -0.1026
  207MOL0     C27833   3.854   0.444   9.974  0.9728  0.1200 -0.3763
  207MOL0     O27834   3.747   0.540   9.980  0.4781 -0.0310 -0.0060
  207MOL0     C27835   3.692   0.569  10.101  0.3013  0.1272 -0.6150
  207MOL0     C27836   3.695   0.503  10.226 -0.3456 -0.4272  0.4945
  207MOL0     C27837   3.625   0.552  10.335  0.5899 -0.1136  0.3448
  207MOL0     C27838   3.536   0.664  10.316 -0.2638  0.2758 -0.8787
  207MOL0     C27839   3.467   0.707  10.435  0.4510 -0.3311  0.6694
  207MOL0     O27840   3.466   0.838  10.469 -0.8275  0.5715  0.3085
  207MOL0     C27841   3.381   0.891  10.569 -1.3529 -0.3600  1.0756
  207MOL0     C27842   3.257   0.943  10.540  0.2624 -0.8159  0.1078
  207MOL0     C27843   3.167   0.981  10.643  0.1438  0.1024 -0.8032
  207MOL0     C27844   3.200   0.963  10.776  1.1520 -0.2172  0.0560
  207MOL0     O27845   3.112   1.019  10.869  0.4234 -0.3178  0.6204
  207MOL0     C27846   3.145   1.027  11.010  0.2605 -0.7521  0.4707
  207MOL0     C27847   3.073   1.164  11.053  0.4233  0.0026 -0.6317
  207MOL0     C27848   3.058   1.190  11.211 -0.7085 -0.0571  0.6857
  207MOL0     C27849   3.200   1.178  11.275 -0.6288 -0.0930 -0.1347
  207MOL0     C27850   3.198   1.190  11.429 -0.0315  1.0401  0.6210
  207MOL0     C27851   3.120   1.083  11.494  0.3888  0.2655 -0.3933
  207MOL0     C27852   2.998   1.133  11.558  0.2887  0.1785 -0.0223
  207MOL0     C27853   2.877   1.048  11.541  0.2048  1.4611  1.3479
  207MOL0    Cl27854   2.754   1.056  11.676  0.3394 -0.1350  0.1544
  207MOL0     C27855   3.327   0.898  10.803  0.1989 -0.0718 -1.0597
  207MOL0     C27856   3.412   0.859  10.699 -0.3321  0.8892 -0.8598
  207MOL0     O27857   3.404   0.624  10.501  0.0215 -0.0374 -0.1794
  207MOL0     C27858   3.532   0.730  10.197  0.6366  0.2023  0.2684
  207MOL0     C27859   3.608   0.682  10.092  0.3397 -0.2095 -0.7666
  207MOL0     N27860   4.328   0.515  10.113  0.7138 -1.1034 -0.9080
  207MOL0     N27861   4.453   0.520  10.135  0.2942  0.0643  0.4148
  207MOL0     C27862   5.288   1.473  10.534 -0.1538  0.2101 -0.3926
  207MOL0     C27863   5.372   1.555  10.448 -0.7463  0.1904 -0.6952
  207MOL0     C27864   5.616   1.635  10.042 -0.1292  0.0016  1.2047
  207MOL0     C27865   5.646   1.753  10.109 -0.0545  0.8541  0.4145
  207MOL0     C27866   5.749   1.841  10.058 -0.7014  0.4738 -0.7254
  207MOL0     C27867   5.823   1.804   9.938  0.2544 -0.2208 -0.5290
  207MOL0     O27868   5.908   1.892   9.883 -0.3971 -0.5388  0.1854
  207MOL0     C27869   5.979   1.985   9.957  0.4016 -0.7412  0.5819
  207MOL0     C27870   6.090   1.914  10.039 -0.0428  0.3747 -1.4403
  207MOL0     C27871   6.199   1.996  10.118 -0.8346 -0.6119  0.7886
  207MOL0     C27872   6.138   2.087  10.218  0.3259  0.7359  0.0378
  207MOL0     C27873   6.226   2.194  10.251  0.2869  0.1876 -0.1247
  207MOL0     C27874   6.303   2.278  10.276  0.2046 -0.6555 -0.1514
  207MOL0     C27875   5.796   1.690   9.879  0.6799 -0.1438 -0.8658
  207MOL0     C27876   5.688   1.609   9.923 -0.5660  0.9991 -0.7198
  207MOL0     C27877   5.673   1.494   9.833  0.9520  0.4364  0.1719
  207MOL0     H27878   5.287   1.407  10.159  0.9919  0.5526  0.1733
  207MOL0     H27879   5.121   1.284  10.292 -1.4655  0.8626 -1.1272
  207MOL0     H27880   5.263   1.162  10.543  1.9690  3.1750  0.1989
  207MOL0     H27881   5.226   1.218  10.708 -2.1513 -0.9665  1.0655
  207MOL0     H27882   5.011   1.114  10.702 -0.2073  1.5391  0.0256
  207MOL0     H27883   5.135   0.987  10.657  0.4023  0.1234  0.0671
  207MOL0     H27884   5.054   1.037  10.409  1.2209 -2.1802  0.4894
  207MOL0     H27885   4.931   1.126  10.479 -0.4396 -0.9353 -1.6454
  207MOL0     H27886   4.992   0.836  10.536 -1.3482 -0.8198  0.8482
  207MOL0     H27887   4.849   0.927  10.600 -2.4811 -0.6761 -1.3217
  207MOL0     H27888   4.766   0.958  10.380 -1.0356 -1.3940 -1.4254
  207MOL0     H27889   4.907   0.883  10.308 -1.9720 -0.9426 -1.8281
  207MOL0     H27890   4.862   0.669  10.384  1.7023  2.8276  0.7358
  207MOL0     H27891   4.752   0.719  10.506  2.9817 -0.2803  1.2887
  207MOL0     H27892   4.715   0.721  10.197  1.3044 -0.2356  0.7765
  207MOL0     H27893   4.608   0.813  10.309 -2.0725 -3.0290  3.5175
  207MOL0     H27894   4.659   0.513  10.322  0.1297  0.4852  0.8748
  207MOL0     H27895   4.574   0.601  10.442  1.4099 -2.5447  0.5306
  207MOL0     H27896   4.328   0.668  10.401 -0.7307  4.4825 -1.6034
  207MOL0     H27897   4.081   0.623  10.321 -0.0540  0.0259 -0.5025
  207MOL0     H27898   4.087   0.685  10.150 -1.4253 -0.4326 -0.6027
  207MOL0     H27899   4.094   0.384  10.176 -0.9402 -1.5428 -1.2536
  207MOL0     H27900   3.941   0.459  10.224 -1.9380  1.1574 -1.2529
  207MOL0     H27901   4.063   0.474   9.950 -0.0969 -0.1868  0.2325
  207MOL0     H27902   3.976   0.611  10.016 -0.7584  0.1321  4.2058
  207MOL0     H27903   3.828   0.358  10.037 -0.6500 -0.7248 -2.0898
  207MOL0     H27904   3.863   0.392   9.878  3.7629 -1.2254  0.5212
  207MOL0     H27905   3.753   0.413  10.244 -1.2972 -1.4128 -1.0878
  207MOL0     H27906   3.613   0.483  10.418 -2.9884  1.8944  1.7145
  207MOL0     H27907   3.211   0.944  10.442 -0.6168 -0.8679  0.5063
  207MOL0     H27908   3.071   1.026  10.619 -2.3998 -3.0456  2.4196
  207MOL0     H27909   3.108   0.936  11.057  1.5880 -2.2240 -1.1702
  207MOL0     H27910   3.253   1.039  11.018  0.1427  0.3693  0.5448
  207MOL0     H27911   3.120   1.255  11.014  0.4337 -0.3929 -1.5436
  207MOL0     H27912   2.972   1.160  11.011 -0.2638  0.3172  0.9203
  207MOL0     H27913   3.020   1.292  11.219  0.9132  0.6905 -0.6146
  207MOL0     H27914   2.988   1.111  11.237  0.0699 -1.1142 -0.3123
  207MOL0     H27915   3.268   1.252  11.232  0.2460 -0.0259  1.3009
  207MOL0     H27916   3.245   1.086  11.235  0.2033  0.8627 -1.4998
  207MOL0     H27917   3.158   1.287  11.460  0.9589  1.2216  1.3893
  207MOL0     H27918   3.306   1.190  11.449  0.5093 -1.9049 -1.5344
  207MOL0     H27919   3.107   1.000  11.425 -1.2904  0.8504 -0.8185
  207MOL0     H27920   3.182   1.034  11.570  0.0331 -0.6089 -0.6510
  207MOL0     H27921   2.963   1.230  11.522 -2.1579 -0.2361  1.0356
  207MOL0     H27922   3.014   1.142  11.665  1.3870 -0.8497 -0.0776
  207MOL0     H27923   2.838   1.072  11.442 -0.2178 -0.2490  1.0689
  207MOL0     H27924   2.909   0.943  11.534 -2.3682  0.6554  0.6183
  207MOL0     H27925   3.355   0.870  10.904  0.0032 -2.9274 -1.7271
  207MOL0     H27926   3.496   0.799  10.731 -1.2449  0.1801  0.3010
  207MOL0     H27927   3.473   0.821  10.185  2.1714  1.0235 -1.5533
  207MOL0     H27928   3.593   0.727   9.995  2.8928 -0.6456 -1.4481
  207MOL0     H27929   5.291   1.492  10.641 -0.7695  0.6101 -0.4423
  207MOL0     H27930   5.437   1.636  10.482 -4.0069  2.3425  0.9493
  207MOL0     H27931   5.604   1.797  10.199  2.3674  2.2457  0.9352
  207MOL0     H27932   5.776   1.926  10.120  0.8287  0.7929 -1.7746
  207MOL0     H27933   5.919   2.040  10.030  0.1483 -0.5584  0.2425
  207MOL0     H27934   6.002   2.067   9.888  0.0638  1.3137  2.7667
  207MOL0     H27935   6.133   1.845   9.966 -1.2818  0.4287 -2.2708
  207MOL0     H27936   6.054   1.845  10.115  1.7444  1.4121  0.4400
  207MOL0     H27937   6.259   2.059  10.052 -1.0168 -0.4052  0.8165
  207MOL0     H27938   6.264   1.918  10.158  0.8498  0.3101 -0.0701
  207MOL0     H27939   6.046   2.133  10.182 -0.3386 -1.0233 -0.5950
  207MOL0     H27940   6.109   2.026  10.304 -3.1906  2.3503  0.1696
  207MOL0     H27941   6.359   2.360  10.314 -0.4548 -0.2521 -0.0251
  207MOL0     H27942   5.855   1.682   9.789  0.7387  2.5244 -1.1455
  207MOL0     H27943   5.766   1.453   9.792 -0.4297 -1.0793 -1.6189
  207MOL0     H27944   5.649   1.404   9.890  1.8290 -1.3753 -2.1239
  207MOL0     H27945   5.595   1.507   9.758 -2.8383 -2.9660  3.1092
  208MOL0     O27946   3.934   2.909  11.335 -0.1079  0.3672  0.2079
  208MOL0     C27947   3.917   2.818  11.419  0.2730 -0.7339 -0.4439
  208MOL0     O27948   3.804   2.740  11.414 -0.0105  0.5672 -1.0489
  208MOL0     C27949   3.699   2.748  11.327  0.2618 -0.2191 -0.1370
  208MOL0     C27950   3.596   2.658  11.348  0.3566  0.5171  0.5157
  208MOL0     C27951   3.480   2.662  11.264 -0.5389  0.6711  0.4732
  208MOL0     C27952   3.471   2.729  11.143 -0.4394 -0.1343 -0.1299
  208MOL0     O27953   3.356   2.724  11.066 -0.0673 -0.1352 -0.6537
  208MOL0     C27954   3.367   2.793  10.938 -0.6284  0.2119  0.1139
  208MOL0     C27955   3.238   2.782  10.873 -0.1759  0.3337  0.7701
  208MOL0     C27956   3.255   2.810  10.725  0.5377  0.0562 -0.4052
  208MOL0     C27957   3.318   2.691  10.656 -1.7236 -0.1222 -0.6012
  208MOL0     C27958   3.292   2.717  10.502  0.2983 -0.8144 -0.4692
  208MOL0     C27959   3.331   2.609  10.403  0.6264  1.1913  0.8132
  208MOL0     C27960   3.227   2.600  10.291  0.4971  0.5482 -0.6877
  208MOL0     C27961   3.101   2.525  10.324  0.0047 -0.2379 -0.0157
  208MOL0     N27962   3.017   2.503  10.201  0.1562  0.0770 -0.5483
  208MOL0     C27963   2.944   2.601  10.138 -0.6540  0.5249 -0.0282
  208MOL0     C27964   2.894   2.521  10.035  0.2894  0.1122 -0.7612
  208MOL0     C27965   2.799   2.591   9.945 -0.4119 -1.3152  0.1751
  208MOL0     C27966   2.732   2.488   9.850  0.6012  0.7846 -0.1894
  208MOL0     C27967   2.665   2.548   9.718  0.0023  0.4303  0.8498
  208MOL0     C27968   2.576   2.669   9.737  0.4489  0.5715 -1.4981
  208MOL0     O27969   2.551   2.757   9.628  0.3546  1.0207  0.8744
  208MOL0     C27970   2.478   2.872   9.650  0.4600 -0.8430  1.0925
  208MOL0     C27971   2.420   2.932   9.537 -0.0074 -0.2032  0.3825
  208MOL0     C27972   2.374   3.065   9.538  0.3614  0.7220  0.7407
  208MOL0     C27973   2.370   3.138   9.659 -0.1209 -0.2220  0.2953
  208MOL0     C27974   2.335   3.284   9.656  0.3180 -0.1151  0.9318
  208MOL0     O27975   2.301   3.341   9.536 -0.0339  0.5810  0.4066
  208MOL0     C27976   2.335   3.469   9.510 -0.6576 -0.7262 -1.4540
  208MOL0     C27977   2.258   3.528   9.421  0.0133 -0.0520  0.4958
  208MOL0     C27978   2.281   3.655   9.368 -0.1348 -0.3349  1.2984
  208MOL0     C27979   2.385   3.732   9.418 -0.5085  0.1856 -0.1946
  208MOL0     O27980   2.412   3.855   9.359 -1.7515  0.5904  0.2699
  208MOL0     C27981   2.550   3.900   9.378  0.5097  0.0696 -0.5590
  208MOL0     C27982   2.555   4.022   9.286  0.2571 -0.3756  0.1051
  208MOL0     C27983   2.470   4.137   9.338 -0.1309 -1.4487  1.1713
  208MOL0     C27984   2.484   4.260   9.239  0.0692 -0.1030 -0.3437
  208MOL0     C27985   2.393   4.373   9.283 -0.2647 -1.2881 -0.2339
  208MOL0     C27986   2.399   4.494   9.189  0.7431 -0.2315  0.4797
  208MOL0     C27987   2.305   4.605   9.244  0.8625 -0.1596 -0.8672
  208MOL0     C27988   2.320   4.737   9.162  0.9713  0.4004 -0.0944
  208MOL0    Cl27989   2.242   4.712   9.005 -0.1767 -0.2210 -0.0701
  208MOL0     C27990   2.466   3.682   9.522  0.0871  0.3607 -0.7160
  208MOL0     C27991   2.439   3.548   9.565 -0.9825 -0.1318  0.1935
  208MOL0     O27992   2.355   3.350   9.759  0.0195 -0.3003 -0.6521
  208MOL0     C27993   2.404   3.076   9.778 -0.5435  0.3988  0.5287
  208MOL0     C27994   2.448   2.942   9.771  0.0542 -0.2315  0.0866
  208MOL0     N27995   2.923   2.389  10.046  0.5421 -0.2911  0.5058
  208MOL0     N27996   3.003   2.385  10.142  0.4203  0.5328  0.3627
  208MOL0     C27997   3.573   2.825  11.126 -0.1459  0.2183 -0.0929
  208MOL0     C27998   3.682   2.841  11.212 -0.1346 -0.0224  0.7649
  208MOL0     C27999   4.009   2.807  11.531  0.3754  0.1586 -0.0518
  208MOL0     C28000   4.106   2.915  11.542 -0.3636  0.3004  0.1221
  208MOL0     C28001   4.205   2.920  11.642  0.8310 -0.6816 -0.1034
  208MOL0     C28002   4.210   2.821  11.736  0.0170 -0.0418  0.5557
  208MOL0     O28003   4.316   2.801  11.822  0.1531  0.6462  0.4013
  208MOL0     C28004   4.402   2.912  11.851 -0.2148  0.7324 -0.0167
  208MOL0     C28005   4.468   2.905  11.984 -0.0542  0.1489  0.2077
  208MOL0     C28006   4.569   3.024  11.981  0.4385  0.5075 -0.7119
  208MOL0     C28007   4.695   3.002  11.898 -0.7027  0.8138 -0.2046
  208MOL0     C28008   4.754   2.878  11.952 -0.4525 -0.0819  0.3367
  208MOL0     C28009   4.793   2.771  11.994 -0.2342 -0.4937 -0.2866
  208MOL0     C28010   4.110   2.715  11.727  0.3010  0.1040  0.3303
  208MOL0     C28011   4.010   2.703  11.627  0.2481 -0.1387 -0.5905
  208MOL0     C28012   3.907   2.601  11.651 -0.6132  0.7792  1.0772
  208MOL0     H28013   3.590   2.584  11.427  1.7411 -3.4020 -2.7548
  208MOL0     H28014   3.400   2.596  11.295 -0.8493  0.3211 -0.9852
  208MOL0     H28015   3.377   2.900  10.960  0.1505 -0.2713  2.4394
  208MOL0     H28016   3.453   2.751  10.883  0.3036 -0.8847  2.2803
  208MOL0     H28017   3.182   2.866  10.914 -2.1025  0.6025 -2.1014
  208MOL0     H28018   3.182   2.690  10.894  1.5562 -1.1401 -0.6914
  208MOL0     H28019   3.317   2.900  10.714  1.2157 -0.5782 -2.1870
  208MOL0     H28020   3.155   2.836  10.689  0.2075  2.9378  2.2194
  208MOL0     H28021   3.424   2.701  10.679 -2.3519  3.9678  1.4071
  208MOL0     H28022   3.285   2.592  10.689 -0.4668 -1.6403 -3.5284
  208MOL0     H28023   3.190   2.754  10.499  1.5746  3.7092  2.3743
  208MOL0     H28024   3.350   2.807  10.479  3.4086 -2.7309 -0.7517
  208MOL0     H28025   3.421   2.645  10.352 -0.1804  2.2967  0.1182
  208MOL0     H28026   3.349   2.505  10.432  2.3531  0.2256 -3.0468
  208MOL0     H28027   3.284   2.577  10.201  1.0022 -1.3967  0.0783
  208MOL0     H28028   3.179   2.696  10.268  2.7929  1.4744 -1.9469
  208MOL0     H28029   3.141   2.433  10.369 -0.9064 -0.1665  0.9631
  208MOL0     H28030   3.044   2.576  10.402 -0.3006 -1.1513  0.3739
  208MOL0     H28031   2.937   2.708  10.155 -0.4819  0.5434 -0.0720
  208MOL0     H28032   2.715   2.640   9.995 -1.7688 -1.7049 -1.5894
  208MOL0     H28033   2.856   2.660   9.882  1.9208 -1.1852  2.2700
  208MOL0     H28034   2.805   2.415   9.813 -0.6126 -1.7528  2.0834
  208MOL0     H28035   2.667   2.421   9.907  1.2599  1.6673  1.6907
  208MOL0     H28036   2.601   2.471   9.675  0.8371  1.5832 -2.8146
  208MOL0     H28037   2.744   2.574   9.646  0.6129  2.7265  2.2149
  208MOL0     H28038   2.633   2.731   9.807  1.8791  0.1713 -2.2776
  208MOL0     H28039   2.488   2.630   9.788  0.0654  0.3977 -2.2722
  208MOL0     H28040   2.430   2.871   9.447  3.3981 -0.5576  0.8604
  208MOL0     H28041   2.355   3.095   9.435  3.5800 -0.6618 -0.4052
  208MOL0     H28042   2.180   3.482   9.362 -1.5480  0.1260  2.3520
  208MOL0     H28043   2.233   3.700   9.281  2.2991 -0.1309 -0.0107
  208MOL0     H28044   2.581   3.933   9.478 -0.1045 -0.0451 -0.3248
  208MOL0     H28045   2.620   3.827   9.337 -1.4203 -2.6117  0.6435
  208MOL0     H28046   2.660   4.053   9.279 -0.3359  2.5324  2.2458
  208MOL0     H28047   2.526   3.991   9.185  1.5548 -0.0379 -0.3869
  208MOL0     H28048   2.367   4.115   9.367  0.5796 -1.6924  3.8522
  208MOL0     H28049   2.515   4.169   9.433  3.2191 -1.3944 -0.2931
  208MOL0     H28050   2.462   4.236   9.134  0.6905 -1.9025 -0.1079
  208MOL0     H28051   2.587   4.297   9.242 -0.0714  0.3475 -0.9764
  208MOL0     H28052   2.425   4.399   9.384 -1.1437 -0.7844 -0.0806
  208MOL0     H28053   2.296   4.323   9.293 -1.2408  0.8254  1.6421
  208MOL0     H28054   2.499   4.538   9.194 -0.4067  2.7180 -0.3067
  208MOL0     H28055   2.361   4.468   9.090  1.3693  1.2227 -0.1748
  208MOL0     H28056   2.321   4.614   9.352 -1.3893 -0.4430 -0.4581
  208MOL0     H28057   2.202   4.571   9.232  0.8179 -0.1400 -0.5441
  208MOL0     H28058   2.272   4.811   9.226 -2.1213 -2.3395  1.0818
  208MOL0     H28059   2.421   4.779   9.150  1.5245  0.6632  4.0454
  208MOL0     H28060   2.545   3.731   9.579  0.8790 -0.9635 -0.6381
  208MOL0     H28061   2.519   3.505   9.626  0.6464  0.5917 -1.3310
  208MOL0     H28062   2.410   3.136   9.869 -3.5425  3.1861 -0.9315
  208MOL0     H28063   2.468   2.894   9.867  1.1229  2.9778  1.5917
  208MOL0     H28064   3.568   2.897  11.045 -1.1132  2.5081  1.8980
  208MOL0     H28065   3.752   2.920  11.189 -0.8248  0.4797  0.3393
  208MOL0     H28066   4.095   3.004  11.482  0.1300  0.3589  0.1119
  208MOL0     H28067   4.266   3.008  11.660 -0.8553  0.5289  0.0375
  208MOL0     H28068   4.345   3.005  11.860 -1.5371 -0.0815  0.4376
  208MOL0     H28069   4.473   2.931  11.771  1.1223  1.2753  1.2526
  208MOL0     H28070   4.505   2.803  11.998  1.7709  1.2050  5.3765
  208MOL0     H28071   4.396   2.919  12.065  0.0966 -1.4413  0.6516
  208MOL0     H28072   4.592   3.034  12.088 -2.8516 -0.8479  0.2357
  208MOL0     H28073   4.528   3.120  11.948 -1.1035  0.6195  1.3754
  208MOL0     H28074   4.674   2.975  11.794 -0.8525 -1.3133  0.3300
  208MOL0     H28075   4.764   3.085  11.914  0.9131 -0.3759 -0.7076
  208MOL0     H28076   4.845   2.685  12.029  0.4696 -0.0962 -0.3223
  208MOL0     H28077   4.131   2.636  11.798  0.0163  1.3521  1.8684
  208MOL0     H28078   3.811   2.650  11.670 -1.2805  1.3186 -2.7708
  208MOL0     H28079   3.892   2.527  11.572  1.0623 -1.0729  2.4157
  208MOL0     H28080   3.929   2.540  11.739 -1.0908  1.1424  1.4501
  209MOL0     O28081   5.418   9.070   5.148  0.3659  0.4594  0.2979
  209MOL0     C28082   5.416   9.131   5.044  0.6371 -0.2564  0.1233
  209MOL0     O28083   5.345   9.094   4.934 -0.3317  0.9122  0.4853
  209MOL0     C28084   5.210   9.042   4.946 -0.2876 -0.7522  0.7708
  209MOL0     C28085   5.144   8.985   5.059 -1.2331  0.0550  0.5819
  209MOL0     C28086   5.023   8.921   5.056  0.2292  0.2277 -0.6693
  209MOL0     C28087   4.949   8.902   4.937 -1.1366  0.4830 -1.1845
  209MOL0     O28088   4.840   8.825   4.914 -0.1470 -0.2073 -1.1298
  209MOL0     C28089   4.732   8.848   5.009  0.2100  1.0363  0.2487
  209MOL0     C28090   4.600   8.832   4.934 -1.1279  0.0837  0.7197
  209MOL0     C28091   4.491   8.856   5.034  0.1384 -0.7632  0.0826
  209MOL0     C28092   4.359   8.873   4.949 -0.2042 -0.9823  1.0121
  209MOL0     C28093   4.252   8.951   5.019 -0.5041  0.1606 -0.4269
  209MOL0     C28094   4.134   8.968   4.924  0.1902  0.7851 -0.6876
  209MOL0     C28095   4.019   9.044   5.002 -0.4916 -0.6981 -0.5034
  209MOL0     C28096   3.935   8.970   5.107 -0.1778 -0.0697  1.7072
  209MOL0     N28097   3.889   8.852   5.048 -0.8800 -0.4448  0.1978
  209MOL0     C28098   3.787   8.834   4.955 -0.1650  0.2675  0.1936
  209MOL0     C28099   3.813   8.714   4.886  0.8191  0.2450 -0.1869
  209MOL0     C28100   3.725   8.654   4.782 -0.4766 -0.1373  0.7204
  209MOL0     C28101   3.762   8.691   4.636 -0.1014  0.4037  0.3792
  209MOL0     C28102   3.910   8.666   4.597  0.0358  0.2294 -0.1293
  209MOL0     C28103   3.986   8.793   4.581  0.2591 -1.4274  0.2300
  209MOL0     O28104   4.118   8.756   4.530  0.0052 -0.2024  0.1086
  209MOL0     C28105   4.215   8.850   4.504  0.6746 -1.6951 -0.1992
  209MOL0     C28106   4.334   8.803   4.454 -0.8072  0.2849  1.0022
  209MOL0     C28107   4.438   8.891   4.427  0.1904  0.7563  0.6749
  209MOL0     C28108   4.433   9.022   4.460  0.1627  1.2931  0.0799
  209MOL0     C28109   4.554   9.100   4.432  0.0040  0.0073 -0.2635
  209MOL0     O28110   4.658   9.023   4.380  0.3287 -0.3868  0.2109
  209MOL0     C28111   4.774   9.084   4.355  0.4171  0.2993  0.0900
  209MOL0     C28112   4.849   9.157   4.447  0.2557 -0.7966  0.1566
  209MOL0     C28113   4.966   9.212   4.399  0.3112  0.2629 -0.6335
  209MOL0     C28114   5.025   9.184   4.273  0.6248  1.3707 -0.5798
  209MOL0     O28115   5.149   9.223   4.231  0.1867 -0.7469  0.7569
  209MOL0     C28116   5.156   9.364   4.190 -0.2798  0.1959  0.8379
  209MOL0     C28117   5.252   9.364   4.072 -0.1205 -0.6177 -0.3782
  209MOL0     C28118   5.220   9.277   3.952  0.3554 -1.1235 -0.0926
  209MOL0     C28119   5.130   9.354   3.851  0.2170 -0.0156  0.6128
  209MOL0     C28120   5.171   9.495   3.799 -0.8299 -0.3319  0.3405
  209MOL0     C28121   5.300   9.502   3.726 -0.2555 -0.1642  0.3241
  209MOL0     C28122   5.351   9.640   3.674  0.6426  0.7453  0.0449
  209MOL0     C28123   5.496   9.626   3.628 -0.0135 -0.1922  0.1438
  209MOL0    Cl28124   5.562   9.787   3.581  0.0831  0.0023 -0.1117
  209MOL0     C28125   4.950   9.098   4.192 -0.4201 -0.6335  0.5360
  209MOL0     C28126   4.822   9.060   4.225 -0.1359  0.0113 -0.7265
  209MOL0     O28127   4.548   9.221   4.432  1.0715 -0.4176  0.7350
  209MOL0     C28128   4.314   9.067   4.512 -0.4850 -0.7800  0.2312
  209MOL0     C28129   4.198   8.992   4.529  0.0057 -0.7455  0.0607
  209MOL0     N28130   3.910   8.651   4.954 -0.4449  0.2140  0.3669
  209MOL0     N28131   3.960   8.731   5.048  0.8506  0.0581  0.2745
  209MOL0     C28132   5.002   8.969   4.829  0.1353  0.8913 -0.2958
  209MOL0     C28133   5.128   9.036   4.825 -0.3190  0.0828  0.7942
  209MOL0     C28134   5.501   9.251   5.019 -0.3662  0.1319 -0.0920
  209MOL0     C28135   5.511   9.303   4.886 -0.2013  0.7272 -0.3100
  209MOL0     C28136   5.568   9.418   4.852  0.4594 -0.2980  0.1915
  209MOL0     C28137   5.625   9.493   4.957  0.4947 -0.3740  0.0428
  209MOL0     O28138   5.679   9.618   4.924  0.3522  0.5882  0.1892
  209MOL0     C28139   5.736   9.632   4.797 -0.7268 -0.0640  0.7114
  209MOL0     C28140   5.877   9.702   4.802 -0.8798  0.0609 -0.6543
  209MOL0     C28141   5.926   9.704   4.654 -0.6527 -0.2891  0.7991
  209MOL0     C28142   6.049   9.790   4.640 -0.4380  0.0638 -0.1530
  209MOL0     C28143   6.029   9.937   4.632  0.3587 -1.0778 -0.0855
  209MOL0     C28144   6.015  10.057   4.648  1.1316  0.5349  0.0095
  209MOL0     C28145   5.628   9.443   5.093  0.2974 -0.2002  0.2903
  209MOL0     C28146   5.566   9.326   5.118  0.2980 -0.6365 -0.1048
  209MOL0     C28147   5.559   9.303   5.275 -0.4078 -0.1718  0.0708
  209MOL0     H28148   5.204   8.977   5.149  1.4575 -0.6924 -1.1359
  209MOL0     H28149   4.983   8.879   5.148  1.1411  1.4630  0.3299
  209MOL0     H28150   4.747   8.774   5.088  1.0211 -1.8294 -2.3981
  209MOL0     H28151   4.732   8.952   5.043 -2.0151  1.9270 -2.1113
  209MOL0     H28152   4.594   8.734   4.887  0.1615  0.5412 -0.4570
  209MOL0     H28153   4.605   8.906   4.854 -0.4873 -1.6482 -0.9109
  209MOL0     H28154   4.514   8.947   5.090 -0.7247 -0.1642 -0.5127
  209MOL0     H28155   4.473   8.775   5.105 -1.2512  0.2316  0.9156
  209MOL0     H28156   4.383   8.929   4.858  2.7009  0.1926  2.3778
  209MOL0     H28157   4.298   8.785   4.925 -1.3339  0.2738 -1.0134
  209MOL0     H28158   4.226   8.897   5.111 -4.0049 -0.1636 -1.4468
  209MOL0     H28159   4.300   9.047   5.036  0.5390  0.3571 -3.7147
  209MOL0     H28160   4.165   9.021   4.834  0.4742 -0.8446 -1.5806
  209MOL0     H28161   4.102   8.873   4.881 -0.2847 -0.5514  2.3490
  209MOL0     H28162   3.951   9.083   4.926 -0.8061  2.4317  1.2421
  209MOL0     H28163   4.065   9.127   5.056  1.4446 -0.4989 -2.3288
  209MOL0     H28164   4.001   8.944   5.190 -0.6946  0.6232  2.3364
  209MOL0     H28165   3.855   9.038   5.135 -0.8873  0.4088 -1.1670
  209MOL0     H28166   3.707   8.907   4.957 -2.3063 -1.7919  4.8818
  209MOL0     H28167   3.731   8.545   4.788  1.4913 -0.0985  0.2793
  209MOL0     H28168   3.622   8.689   4.795 -0.5661  0.1900 -0.7567
  209MOL0     H28169   3.685   8.639   4.577  1.1706 -1.9541  0.7009
  209MOL0     H28170   3.746   8.799   4.626  1.2045  0.4999 -1.1169
  209MOL0     H28171   3.911   8.604   4.506  1.3880  1.6184 -1.0972
  209MOL0     H28172   3.946   8.599   4.676 -2.5622 -2.0184 -0.6723
  209MOL0     H28173   3.984   8.846   4.676  0.7346 -0.9629 -0.0106
  209MOL0     H28174   3.928   8.855   4.512 -1.4666 -4.0891 -0.8669
  209MOL0     H28175   4.346   8.697   4.436  0.4127  0.2151  2.0672
  209MOL0     H28176   4.523   8.836   4.387 -0.3250  0.6868 -0.3496
  209MOL0     H28177   4.801   9.181   4.542  0.9095  3.0285 -0.3199
  209MOL0     H28178   5.019   9.282   4.463  1.9589  0.1157 -1.7835
  209MOL0     H28179   5.062   9.402   4.147  1.5247  2.7841 -1.1481
  209MOL0     H28180   5.180   9.433   4.271 -1.0540 -0.9323  2.0665
  209MOL0     H28181   5.290   9.463   4.046 -1.5632 -0.2253 -1.1310
  209MOL0     H28182   5.341   9.326   4.123 -1.2375  1.3848  3.4865
  209MOL0     H28183   5.312   9.255   3.898  0.8620  1.3383 -0.3460
  209MOL0     H28184   5.160   9.188   3.974 -3.8342  1.2893 -0.5095
  209MOL0     H28185   5.032   9.372   3.896  0.8852  0.8187  1.8030
  209MOL0     H28186   5.111   9.291   3.763  0.4209  1.6153 -0.6465
  209MOL0     H28187   5.167   9.563   3.884 -1.4232  0.5557 -0.3724
  209MOL0     H28188   5.098   9.537   3.730  0.5434  1.1660 -0.2759
  209MOL0     H28189   5.374   9.487   3.806  1.8912  2.7831 -0.8999
  209MOL0     H28190   5.296   9.429   3.645  0.2477 -0.6684  0.7430
  209MOL0     H28191   5.334   9.708   3.758 -1.5344  0.0060  0.2631
  209MOL0     H28192   5.292   9.663   3.584 -0.3227 -1.0524  0.1881
  209MOL0     H28193   5.555   9.574   3.704  1.3259 -0.5388 -1.0863
  209MOL0     H28194   5.502   9.562   3.539 -1.6374 -3.2786  2.0972
  209MOL0     H28195   4.999   9.053   4.107  1.2745 -3.2919  2.7668
  209MOL0     H28196   4.762   8.994   4.164 -3.1229 -0.1041  2.0604
  209MOL0     H28197   4.308   9.172   4.542  0.0409 -1.0337  1.2854
  209MOL0     H28198   4.100   9.030   4.556 -0.0229 -1.3213  0.7825
  209MOL0     H28199   4.956   8.961   4.731 -1.5561 -0.4967  0.5529
  209MOL0     H28200   5.175   9.084   4.740 -1.3991 -1.3543 -0.6948
  209MOL0     H28201   5.450   9.256   4.809 -0.6015  1.8723 -0.7082
  209MOL0     H28202   5.577   9.451   4.749  6.0173 -0.7948  0.2098
  209MOL0     H28203   5.669   9.692   4.735  0.5160 -1.3904 -2.0432
  209MOL0     H28204   5.750   9.536   4.747 -2.1859  0.2501 -0.3597
  209MOL0     H28205   5.934   9.649   4.879 -2.7257 -1.9427 -0.5638
  209MOL0     H28206   5.863   9.806   4.835  1.7346  0.1467  0.4663
  209MOL0     H28207   5.849   9.757   4.597 -0.1322  0.0220  0.3815
  209MOL0     H28208   5.944   9.602   4.617  4.1201  0.5088  0.2828
  209MOL0     H28209   6.109   9.766   4.728  1.3728  1.0440 -1.0571
  209MOL0     H28210   6.111   9.764   4.553  1.0738 -1.6563  1.3457
  209MOL0     H28211   5.989  10.160   4.657 -2.7237 -0.0488 -2.2905
  209MOL0     H28212   5.680   9.499   5.169 -2.0473  0.8402  1.2291
  209MOL0     H28213   5.611   9.373   5.341 -1.0097 -0.2920  0.6827
  209MOL0     H28214   5.458   9.288   5.312  0.0004 -4.9510 -0.1618
  209MOL0     H28215   5.600   9.207   5.308 -1.6364 -0.6132  0.3831
  210MOL0     O28216  10.213   3.484  10.618 -0.0408  0.1182  0.2326
  210MOL0     C28217  10.212   3.560  10.719 -0.3689 -0.2489 -0.3560
  210MOL0     O28218  10.319   3.572  10.806 -0.0391  0.1811 -0.2677
  210MOL0     C28219  10.427   3.496  10.768 -0.9749  0.6237  0.0133
  210MOL0     C28220  10.550   3.557  10.739 -0.3752  0.2204 -0.2506
  210MOL0     C28221  10.663   3.491  10.690  0.2033  0.4507  1.1730
  210MOL0     C28222  10.668   3.351  10.683  0.3831 -0.0284 -0.3225
  210MOL0     O28223  10.766   3.268  10.620 -0.3329 -0.8650  0.0227
  210MOL0     C28224  10.863   3.353  10.540  0.4758 -0.1333 -0.3308
  210MOL0     C28225  10.965   3.258  10.496 -0.1304  0.1284 -0.0791
  210MOL0     C28226  11.043   3.323  10.381 -0.3406 -0.6328  0.0186
  210MOL0     C28227  11.150   3.229  10.314 -0.3454  0.0266 -0.0838
  210MOL0     C28228  11.247   3.295  10.213  0.2364  0.1099  0.1537
  210MOL0     C28229  11.343   3.397  10.279 -0.0946 -0.5911  0.1654
  210MOL0     C28230  11.437   3.456  10.184 -0.0445  0.4321  0.6737
  210MOL0     C28231  11.392   3.597  10.131 -0.2088  0.1300  0.2109
  210MOL0     N28232  11.283   3.602  10.043  0.6204  1.0468 -0.5251
  210MOL0     C28233  11.152   3.634  10.075 -0.2411  0.4155 -0.1041
  210MOL0     C28234  11.084   3.608   9.958  0.0916 -1.1431 -0.0878
  210MOL0     C28235  10.939   3.637   9.939 -0.5876 -0.1963  1.1027
  210MOL0     C28236  10.864   3.515   9.991 -0.7295 -0.1677 -0.2059
  210MOL0     C28237  10.888   3.393   9.898 -1.2537 -0.5012 -0.1030
  210MOL0     C28238  10.797   3.279   9.928  0.0611 -0.2655  0.0082
  210MOL0     O28239  10.660   3.321   9.907 -0.3233  0.1264  1.2557
  210MOL0     C28240  10.570   3.217   9.893  0.6455 -0.8410 -0.4291
  210MOL0     C28241  10.444   3.246   9.845 -0.4403 -0.5967 -0.1756
  210MOL0     C28242  10.348   3.150   9.825 -0.1379 -0.1287 -0.2442
  210MOL0     C28243  10.368   3.015   9.857 -0.2502  0.4508 -0.2182
  210MOL0     C28244  10.265   2.906   9.843 -0.3093  0.7074 -0.0231
  210MOL0     O28245  10.135   2.947   9.810  0.0517  0.1323  0.1880
  210MOL0     C28246  10.041   2.858   9.761  0.7327  0.7542 -0.9928
  210MOL0     C28247   9.909   2.880   9.801 -0.7130 -0.5890  0.1585
  210MOL0     C28248   9.805   2.795   9.765  0.1620  1.0554  0.0133
  210MOL0     C28249   9.837   2.676   9.697 -0.0315 -1.1549 -0.3282
  210MOL0     O28250   9.745   2.579   9.673 -1.1978  0.0300 -0.2097
  210MOL0     C28251   9.650   2.543   9.772  0.4335 -0.1521  0.1259
  210MOL0     C28252   9.536   2.465   9.727  0.2327 -0.1576  0.1139
  210MOL0     C28253   9.493   2.375   9.838 -0.3555  0.1551  1.0604
  210MOL0     C28254   9.378   2.280   9.798 -0.0547 -0.1589  0.0315
  210MOL0     C28255   9.331   2.182   9.910  0.0913  0.5444 -0.2429
  210MOL0     C28256   9.443   2.076   9.955 -0.2412  0.6558  0.5218
  210MOL0     C28257   9.373   1.956  10.020  0.7542 -0.7054 -0.2618
  210MOL0     C28258   9.466   1.834  10.067 -0.0078  1.2487  0.3791
  210MOL0    Cl28259   9.428   1.775  10.231 -0.2179 -0.2925 -0.2791
  210MOL0     C28260   9.972   2.653   9.653 -0.0839  0.4967  0.2432
  210MOL0     C28261  10.066   2.745   9.690 -0.2069  0.6483 -0.3109
  210MOL0     O28262  10.303   2.790   9.857 -0.4253  0.2498  0.2187
  210MOL0     C28263  10.496   2.985   9.903 -0.3220  0.8059 -0.3046
  210MOL0     C28264  10.593   3.081   9.930  0.4244  0.2210 -0.9893
  210MOL0     N28265  11.168   3.548   9.869  0.1799  1.0144  1.1919
  210MOL0     N28266  11.287   3.553   9.915 -0.2037 -0.4913  0.9529
  210MOL0     C28267  10.556   3.284  10.737  1.3709  0.6159  0.8030
  210MOL0     C28268  10.440   3.352  10.775 -0.0737 -0.6137 -0.0923
  210MOL0     C28269  10.101   3.654  10.734  1.2531  0.0541  0.3517
  210MOL0     C28270  10.127   3.752  10.824 -0.0013 -0.4088  0.8000
  210MOL0     C28271  10.018   3.824  10.862 -0.4748  0.4274 -0.5899
  210MOL0     C28272   9.886   3.816  10.805  0.5083 -0.4886  0.1689
  210MOL0     O28273   9.773   3.876  10.854 -0.2242 -0.3293  0.6775
  210MOL0     C28274   9.790   3.971  10.961  0.9764 -0.1351  0.3919
  210MOL0     C28275   9.648   4.048  10.965 -0.4577 -0.7707  0.3107
  210MOL0     C28276   9.641   4.119  11.105  0.4660  0.6090  0.1700
  210MOL0     C28277   9.539   4.235  11.115  0.1674 -0.5117  0.1839
  210MOL0     C28278   9.409   4.199  11.055 -0.4325 -0.5128 -0.2130
  210MOL0     C28279   9.306   4.175  10.995  0.2186 -0.4547 -0.3436
  210MOL0     C28280   9.872   3.740  10.691 -1.2310 -0.3772  0.8383
  210MOL0     C28281   9.976   3.654  10.664 -0.1448  0.6928  1.1096
  210MOL0     C28282   9.939   3.545  10.560 -0.2987 -0.0561 -0.2935
  210MOL0     H28283  10.556   3.664  10.754 -1.4903  0.2311  0.2267
  210MOL0     H28284  10.753   3.549  10.674 -2.4892  4.2108 -2.5395
  210MOL0     H28285  10.817   3.399  10.452 -1.0613  1.0525  1.0326
  210MOL0     H28286  10.921   3.429  10.594 -2.5998  1.9673  0.2745
  210MOL0     H28287  10.915   3.168  10.460 -2.2793  1.2949 -0.1925
  210MOL0     H28288  11.017   3.234  10.589 -0.5867  1.8151  0.6515
  210MOL0     H28289  11.087   3.418  10.412 -1.6710 -0.9841  3.3055
  210MOL0     H28290  10.964   3.340  10.306 -0.9801 -0.3367  0.7519
  210MOL0     H28291  11.200   3.179  10.397  0.9662 -0.0232 -0.8644
  210MOL0     H28292  11.099   3.145  10.265 -0.3250  0.8440 -1.5676
  210MOL0     H28293  11.305   3.207  10.186 -1.5861 -1.3216  0.6603
  210MOL0     H28294  11.201   3.340  10.124  1.2386 -0.9591 -0.9501
  210MOL0     H28295  11.273   3.478  10.306 -1.6491 -1.8824  0.1691
  210MOL0     H28296  11.396   3.370  10.370  3.6984 -2.1145 -2.2462
  210MOL0     H28297  11.441   3.385  10.101  2.4598 -1.2479  2.1024
  210MOL0     H28298  11.530   3.480  10.235 -0.3220 -0.6161  1.7160
  210MOL0     H28299  11.370   3.662  10.217 -1.7894 -0.8878  0.6128
  210MOL0     H28300  11.480   3.638  10.081 -1.7361  4.0419  0.3386
  210MOL0     H28301  11.128   3.688  10.166  3.3735  0.3582  1.0195
  210MOL0     H28302  10.888   3.723   9.984 -0.1122 -0.6060  2.4704
  210MOL0     H28303  10.923   3.648   9.832  1.4212  2.0428  0.9700
  210MOL0     H28304  10.896   3.500  10.094 -0.1502  1.7874 -0.0611
  210MOL0     H28305  10.755   3.523   9.989 -0.8861 -1.8950 -1.6775
  210MOL0     H28306  10.993   3.363   9.886 -1.1241  0.1027 -0.5433
  210MOL0     H28307  10.856   3.415   9.796 -0.0251  1.3179 -0.1598
  210MOL0     H28308  10.805   3.261  10.035 -0.3541 -1.3421 -0.1282
  210MOL0     H28309  10.818   3.194   9.862  2.0677  0.2495 -0.0875
  210MOL0     H28310  10.433   3.341   9.793  1.5360 -1.3728 -2.1441
  210MOL0     H28311  10.258   3.195   9.785 -0.8044 -0.5263  0.7702
  210MOL0     H28312   9.872   2.968   9.853 -5.0178 -0.5411 -2.5242
  210MOL0     H28313   9.704   2.821   9.797 -0.4629 -2.0939  0.8793
  210MOL0     H28314   9.708   2.482   9.842 -1.3549  1.5183  3.2644
  210MOL0     H28315   9.618   2.620   9.843 -1.3821 -2.1452  1.6141
  210MOL0     H28316   9.460   2.536   9.693  0.2250 -0.4935 -0.5700
  210MOL0     H28317   9.563   2.413   9.635 -1.4545  2.0414 -1.7468
  210MOL0     H28318   9.575   2.304   9.857 -1.7014 -1.5111  0.9206
  210MOL0     H28319   9.470   2.432   9.929 -1.0107  2.3907 -0.4550
  210MOL0     H28320   9.399   2.220   9.709 -3.6218 -2.4234  0.4935
  210MOL0     H28321   9.300   2.350   9.768 -0.7562 -0.9501 -0.0244
  210MOL0     H28322   9.255   2.120   9.862 -0.0719  0.8295 -0.3532
  210MOL0     H28323   9.272   2.222   9.993  0.5918 -3.7717  2.5275
  210MOL0     H28324   9.476   2.029   9.862 -4.7652 -2.3037  0.1112
  210MOL0     H28325   9.526   2.118  10.012  1.6998  2.3493 -3.2110
  210MOL0     H28326   9.295   1.925   9.950  0.7012  1.0833 -1.0719
  210MOL0     H28327   9.325   1.992  10.112  0.9697  1.4997 -0.9357
  210MOL0     H28328   9.444   1.757   9.993 -1.3789  0.4535  1.5754
  210MOL0     H28329   9.571   1.864  10.051 -0.0662  0.6487 -1.3359
  210MOL0     H28330  10.004   2.556   9.616 -2.0935 -0.3970  0.7265
  210MOL0     H28331  10.166   2.721   9.656 -0.5574  1.7752 -2.2792
  210MOL0     H28332  10.529   2.883   9.924 -0.6421  1.0203  1.3662
  210MOL0     H28333  10.688   3.056   9.975 -0.3817 -1.3798 -0.0994
  210MOL0     H28334  10.555   3.176  10.730 -2.4258  0.6064 -1.2684
  210MOL0     H28335  10.361   3.279  10.793 -0.5461 -1.1066 -3.5559
  210MOL0     H28336  10.214   3.761  10.887  0.2400 -2.0288  0.7189
  210MOL0     H28337  10.040   3.881  10.952  0.1869 -0.2678 -0.3039
  210MOL0     H28338   9.861   4.047  10.926  2.0496 -1.6066 -0.7407
  210MOL0     H28339   9.827   3.940  11.059  1.5746  1.8755  0.8520
  210MOL0     H28340   9.567   3.975  10.968 -3.3264  2.1781  1.7782
  210MOL0     H28341   9.635   4.131  10.895 -1.3498  1.6057  3.0773
  210MOL0     H28342   9.740   4.161  11.128  2.1483 -3.3240  0.9880
  210MOL0     H28343   9.626   4.048  11.187 -0.8015  1.5350  0.7683
  210MOL0     H28344   9.541   4.247  11.224  1.9793 -1.3716  0.2797
  210MOL0     H28345   9.582   4.324  11.070 -1.2586 -0.2793 -0.7913
  210MOL0     H28346   9.220   4.167  10.931 -0.5244 -2.1946  0.7604
  210MOL0     H28347   9.777   3.731  10.640 -1.4214 -1.7957  1.4008
  210MOL0     H28348   9.993   3.455  10.592  2.7579  2.5191  2.5454
  210MOL0     H28349   9.833   3.522  10.571  0.0238 -1.4922 -0.0071
  210MOL0     H28350   9.968   3.582  10.461  1.2293  3.0137  1.1629
  211MOL0     O28351   3.799   7.986   0.850 -0.1513  0.7920 -0.6354
  211MOL0     C28352   3.687   8.014   0.804  0.3528  0.5241  0.1159
  211MOL0     O28353   3.594   8.089   0.863  0.0712 -0.1746 -0.9025
  211MOL0     C28354   3.631   8.129   0.996  0.4566 -0.3627  0.0776
  211MOL0     C28355   3.732   8.215   1.011  0.3065 -0.4623 -0.0815
  211MOL0     C28356   3.765   8.249   1.149  0.2021 -1.3257  0.2621
  211MOL0     C28357   3.688   8.199   1.251 -0.4211 -0.1986 -0.2700
  211MOL0     O28358   3.725   8.240   1.382 -0.1704 -0.3230  0.8426
  211MOL0     C28359   3.685   8.148   1.482 -0.1905 -0.1414  0.3439
  211MOL0     C28360   3.767   8.176   1.612 -0.3568 -0.0738  0.5101
  211MOL0     C28361   3.707   8.131   1.740  0.9235 -0.2416  0.8943
  211MOL0     C28362   3.799   8.103   1.863  0.3211 -0.1603  0.2317
  211MOL0     C28363   3.897   8.230   1.887  0.0820 -0.3494  0.4411
  211MOL0     C28364   4.020   8.193   1.987  0.4950 -0.4850  0.1356
  211MOL0     C28365   3.968   8.150   2.131  0.3955  0.2259 -0.7434
  211MOL0     C28366   3.877   8.250   2.211  0.9239 -0.2881  0.4219
  211MOL0     N28367   3.851   8.202   2.349 -1.2160 -0.5817  0.3613
  211MOL0     C28368   3.927   8.145   2.448 -0.1854 -0.1367  1.3292
  211MOL0     C28369   3.856   8.171   2.561 -0.5169  0.9206 -0.0922
  211MOL0     C28370   3.903   8.120   2.691  0.0384  0.0948 -0.6220
  211MOL0     C28371   3.961   8.229   2.782  0.4506  0.3012  0.1448
  211MOL0     C28372   4.044   8.160   2.907  0.3534  1.0551 -0.5142
  211MOL0     C28373   3.950   8.152   3.025  0.3989 -0.4700  0.3579
  211MOL0     O28374   3.839   8.059   3.006  0.2959 -0.2747  0.1435
  211MOL0     C28375   3.744   8.039   3.100  0.5371  0.2726 -0.1451
  211MOL0     C28376   3.610   8.040   3.066 -0.3556  0.0306 -0.4413
  211MOL0     C28377   3.516   7.994   3.158 -0.1987 -0.6824  0.6356
  211MOL0     C28378   3.549   7.980   3.297 -0.0080 -0.1567  0.0355
  211MOL0     C28379   3.441   7.960   3.392  0.2077  0.8586 -0.0870
  211MOL0     O28380   3.472   7.972   3.529  0.4054 -0.0779  0.3703
  211MOL0     C28381   3.381   7.964   3.631 -0.0626  0.0551  0.2746
  211MOL0     C28382   3.438   7.948   3.759  0.2933 -0.0207 -0.4023
  211MOL0     C28383   3.362   7.934   3.873 -0.1629 -0.6833  0.6661
  211MOL0     C28384   3.224   7.904   3.866 -0.8696 -0.2156  0.0990
  211MOL0     O28385   3.153   7.870   3.984 -0.1750 -0.4750 -0.9133
  211MOL0     C28386   3.175   7.956   4.095  1.0319 -1.1707  0.0162
  211MOL0     C28387   3.097   8.091   4.088 -1.1804  0.6261 -0.3250
  211MOL0     C28388   3.045   8.123   4.222  0.0953  1.1652  0.3205
  211MOL0     C28389   2.965   8.261   4.224  0.0054  0.0935 -0.3870
  211MOL0     C28390   2.882   8.272   4.349  0.1936 -0.0795  0.4026
  211MOL0     C28391   2.957   8.278   4.480 -0.2592  0.0363  0.0924
  211MOL0     C28392   3.069   8.386   4.485  0.1957  0.5260  0.7099
  211MOL0     C28393   3.136   8.387   4.627 -1.3184  0.1509 -1.2219
  211MOL0    Cl28394   3.010   8.412   4.763  0.6002  0.3561 -0.4514
  211MOL0     C28395   3.163   7.911   3.741 -0.1611  0.2778 -0.1344
  211MOL0     C28396   3.240   7.944   3.628 -0.3002 -0.1956  0.0879
  211MOL0     O28397   3.332   7.946   3.346  0.1292 -0.3454 -0.7883
  211MOL0     C28398   3.686   7.973   3.331 -1.2601 -0.2136  0.1417
  211MOL0     C28399   3.788   7.999   3.225 -0.0048 -0.8083 -0.4993
  211MOL0     N28400   3.752   8.254   2.539 -0.3154 -0.2534  0.6011
  211MOL0     N28401   3.746   8.268   2.410  0.1597 -0.1359 -0.1438
  211MOL0     C28402   3.587   8.109   1.230  0.2106  0.2838  0.7123
  211MOL0     C28403   3.556   8.071   1.098  0.3565  0.1914 -0.2134
  211MOL0     C28404   3.652   7.941   0.674  0.1277 -0.5487  0.2372
  211MOL0     C28405   3.537   7.986   0.609 -0.4067  0.1697  0.4252
  211MOL0     C28406   3.513   7.935   0.479 -0.3585 -0.3314  0.2159
  211MOL0     C28407   3.576   7.818   0.431  1.3437 -0.0545  0.5503
  211MOL0     O28408   3.546   7.746   0.318 -0.0741 -0.5340 -0.0077
  211MOL0     C28409   3.431   7.778   0.245  0.2185  0.0869  0.0098
  211MOL0     C28410   3.423   7.693   0.119 -0.5775  0.0312  0.5609
  211MOL0     C28411   3.303   7.731   0.021 -0.2145 -0.1789  0.4667
  211MOL0     C28412   3.284   7.627  -0.093 -0.2561  0.0246 -0.2365
  211MOL0     C28413   3.178   7.670  -0.181  0.2373  0.2166 -0.3092
  211MOL0     C28414   3.086   7.725  -0.244  1.0672  0.5147  0.3375
  211MOL0     C28415   3.685   7.782   0.503 -0.2712 -0.2374 -0.3627
  211MOL0     C28416   3.729   7.838   0.621 -0.1388 -0.3328  0.1616
  211MOL0     C28417   3.862   7.777   0.671  0.3955 -0.1538 -0.2531
  211MOL0     H28418   3.782   8.250   0.922 -0.3955  1.0297  0.0830
  211MOL0     H28419   3.845   8.314   1.183 -0.2949 -1.0554  0.9489
  211MOL0     H28420   3.577   8.152   1.496 -0.3454 -0.6685 -0.6490
  211MOL0     H28421   3.724   8.046   1.472  2.6291  1.0514 -2.0590
  211MOL0     H28422   3.785   8.284   1.618  0.2666  0.3611 -4.6148
  211MOL0     H28423   3.872   8.148   1.599 -0.4714 -0.1872 -0.2296
  211MOL0     H28424   3.660   8.036   1.713  0.5055  0.5253 -1.3471
  211MOL0     H28425   3.629   8.194   1.783  0.4986 -1.6786  2.3105
  211MOL0     H28426   3.738   8.091   1.953  2.0787  0.4596  1.5438
  211MOL0     H28427   3.858   8.011   1.853  0.7784 -0.0868  2.0068
  211MOL0     H28428   3.943   8.261   1.792 -0.0835  1.0523  0.8071
  211MOL0     H28429   3.854   8.319   1.932  0.6653 -1.2536  2.9540
  211MOL0     H28430   4.085   8.115   1.946 -0.8457 -1.0676 -0.9918
  211MOL0     H28431   4.083   8.277   2.015  1.0183 -0.3069 -1.4551
  211MOL0     H28432   4.057   8.147   2.196 -0.8611  0.9829  1.1147
  211MOL0     H28433   3.917   8.054   2.124  0.8257 -0.0244 -0.4510
  211MOL0     H28434   3.923   8.349   2.216 -0.1308  0.2101  0.3196
  211MOL0     H28435   3.788   8.253   2.148  1.4551  1.2123 -0.2994
  211MOL0     H28436   4.012   8.080   2.432 -0.0314  0.4625 -0.5324
  211MOL0     H28437   3.809   8.086   2.735  0.4647  0.7515  0.8756
  211MOL0     H28438   3.981   8.044   2.688  0.0588  0.0484  0.4617
  211MOL0     H28439   4.031   8.282   2.717 -0.8880 -1.8448 -3.3806
  211MOL0     H28440   3.881   8.296   2.815  1.5932  2.3157 -0.9964
  211MOL0     H28441   4.135   8.212   2.938  0.5874  0.7496 -0.6870
  211MOL0     H28442   4.069   8.059   2.872 -1.1880  0.8266 -1.0395
  211MOL0     H28443   3.919   8.255   3.041 -1.0690 -1.0605  1.4827
  211MOL0     H28444   4.019   8.125   3.106  1.4972  1.1431  0.0200
  211MOL0     H28445   3.588   8.070   2.964 -2.3329  0.3132  0.0109
  211MOL0     H28446   3.417   7.990   3.114 -0.2440 -1.6309  0.8107
  211MOL0     H28447   3.545   7.965   3.770  0.2603 -1.4475  5.1765
  211MOL0     H28448   3.414   7.939   3.968 -0.9496 -1.6802  1.1710
  211MOL0     H28449   3.138   7.899   4.181 -1.5426 -1.5928 -1.2713
  211MOL0     H28450   3.283   7.965   4.113  1.0946 -0.0374 -0.7779
  211MOL0     H28451   3.162   8.175   4.062 -2.6940  2.0957  0.4775
  211MOL0     H28452   3.017   8.081   4.014 -1.4365  1.2134 -0.1331
  211MOL0     H28453   2.981   8.039   4.251  0.3755  0.2730 -1.5013
  211MOL0     H28454   3.134   8.119   4.286 -0.2031  0.1747  0.6896
  211MOL0     H28455   2.908   8.265   4.130 -0.1492  0.9277 -0.2580
  211MOL0     H28456   3.032   8.347   4.216  1.0467 -0.7867 -1.5210
  211MOL0     H28457   2.816   8.185   4.362 -1.7023  1.3412  0.7193
  211MOL0     H28458   2.825   8.366   4.347  0.3830  0.0196 -1.3179
  211MOL0     H28459   2.888   8.301   4.562 -2.5224 -0.2398 -1.6468
  211MOL0     H28460   3.010   8.186   4.506  2.6901  0.7570 -2.7362
  211MOL0     H28461   3.030   8.485   4.461  0.4587  0.0342 -2.0421
  211MOL0     H28462   3.140   8.363   4.405 -1.7692  1.3446 -1.3674
  211MOL0     H28463   3.194   8.294   4.635  0.1709  1.0344 -1.5233
  211MOL0     H28464   3.214   8.462   4.637  0.9729 -2.1805 -0.4957
  211MOL0     H28465   3.056   7.892   3.738  0.0066 -0.7047 -2.7774
  211MOL0     H28466   3.183   7.955   3.536  2.1978 -0.0362 -1.5521
  211MOL0     H28467   3.738   7.954   3.424  2.9902  6.0576 -0.3242
  211MOL0     H28468   3.893   7.999   3.252  0.1452  4.2767 -0.2423
  211MOL0     H28469   3.516   8.077   1.305 -3.3006  3.8142 -0.7461
  211MOL0     H28470   3.480   7.996   1.079 -0.1670  1.0145 -1.5563
  211MOL0     H28471   3.486   8.075   0.644  1.7475  1.6074  0.0915
  211MOL0     H28472   3.449   7.991   0.412  1.4719  1.5959 -0.0289
  211MOL0     H28473   3.422   7.886   0.225  0.2495  0.2857  1.0287
  211MOL0     H28474   3.346   7.754   0.309  1.4369  1.3094  2.1890
  211MOL0     H28475   3.439   7.587   0.139  0.8428  0.8370  4.4867
  211MOL0     H28476   3.517   7.713   0.067 -0.2525 -0.8686  0.7808
  211MOL0     H28477   3.312   7.836  -0.010 -0.9150  0.0958  1.1289
  211MOL0     H28478   3.206   7.718   0.070  0.2112  0.1111  1.4125
  211MOL0     H28479   3.370   7.633  -0.161  0.8810  0.0540  1.1618
  211MOL0     H28480   3.274   7.531  -0.042  4.3465 -0.7342 -0.3842
  211MOL0     H28481   2.995   7.766  -0.283 -0.2597 -0.3912  2.2656
  211MOL0     H28482   3.733   7.694   0.460 -2.2972 -1.3450 -0.4855
  211MOL0     H28483   3.889   7.705   0.594 -2.1383 -1.3719 -0.0834
  211MOL0     H28484   3.945   7.849   0.675  1.3441 -1.2479  2.7765
  211MOL0     H28485   3.848   7.710   0.757  2.2670 -1.8635 -1.2067
  212MOL0     O28486   6.956   6.657   2.187 -0.8038 -0.3471 -0.4273
  212MOL0     C28487   7.009   6.765   2.190 -0.2170  0.4484 -0.1627
  212MOL0     O28488   6.987   6.864   2.286 -0.5332 -0.4835 -0.2291
  212MOL0     C28489   6.913   6.833   2.396  1.2368 -0.3928 -0.7033
  212MOL0     C28490   6.968   6.804   2.525 -0.2144  0.4962  0.1483
  212MOL0     C28491   6.892   6.741   2.628 -0.6446 -0.1832  0.1220
  212MOL0     C28492   6.759   6.697   2.595  0.8601 -0.2136  0.6262
  212MOL0     O28493   6.685   6.631   2.684  0.6087 -0.2858  1.1417
  212MOL0     C28494   6.581   6.549   2.633  0.5693 -0.1027  0.2466
  212MOL0     C28495   6.550   6.444   2.742  0.0802 -0.6252  0.1032
  212MOL0     C28496   6.447   6.482   2.850  0.3861  0.1188  0.0988
  212MOL0     C28497   6.407   6.360   2.939 -0.8415 -0.1369  0.2070
  212MOL0     C28498   6.531   6.292   2.999 -0.2346  0.0342 -0.1645
  212MOL0     C28499   6.617   6.393   3.077 -0.0975 -1.0782  0.0855
  212MOL0     C28500   6.707   6.324   3.191  0.4330 -0.3156  0.3898
  212MOL0     C28501   6.795   6.414   3.281  0.3033 -0.1542  0.0531
  212MOL0     N28502   6.888   6.332   3.357 -0.9183 -0.4710 -0.1256
  212MOL0     C28503   7.008   6.298   3.297 -0.0149  0.3732 -0.8361
  212MOL0     C28504   7.074   6.217   3.399  0.7760 -0.3095  1.0235
  212MOL0     C28505   7.210   6.159   3.390 -0.4382 -0.4372  1.1850
  212MOL0     C28506   7.313   6.270   3.379  0.1193  0.5605  0.1397
  212MOL0     C28507   7.448   6.205   3.349 -0.4124  0.3918  0.0742
  212MOL0     C28508   7.530   6.270   3.230 -0.7096  0.5106 -0.5070
  212MOL0     O28509   7.492   6.208   3.107 -0.3251  0.3299 -0.0232
  212MOL0     C28510   7.552   6.247   2.993 -0.0770  0.0072  0.5894
  212MOL0     C28511   7.503   6.196   2.867 -0.1509 -0.3563 -0.1290
  212MOL0     C28512   7.538   6.246   2.744 -0.0531 -0.3933  0.1139
  212MOL0     C28513   7.630   6.352   2.734 -0.3322  0.4313  0.0928
  212MOL0     C28514   7.665   6.424   2.610 -0.8948  0.6941 -0.9021
  212MOL0     O28515   7.774   6.495   2.609  0.2779 -0.0341 -0.6737
  212MOL0     C28516   7.812   6.565   2.496  0.3175  0.3418  0.3537
  212MOL0     C28517   7.834   6.700   2.499 -0.5092 -0.2759 -0.8799
  212MOL0     C28518   7.862   6.769   2.374  0.6732 -0.2834 -0.4901
  212MOL0     C28519   7.903   6.690   2.270  0.1996 -0.1235  0.1696
  212MOL0     O28520   7.957   6.741   2.151 -0.1165  0.1739 -0.3023
  212MOL0     C28521   7.973   6.884   2.128  0.4045  0.1432 -0.6445
  212MOL0     C28522   7.992   6.904   1.981  0.6458  0.1812  0.4852
  212MOL0     C28523   8.039   7.038   1.941  0.2716 -0.8743 -0.0245
  212MOL0     C28524   8.006   7.071   1.790 -0.4349 -0.0922 -1.1873
  212MOL0     C28525   8.027   7.220   1.756  0.8469 -1.0118 -0.6348
  212MOL0     C28526   8.020   7.237   1.602 -0.9103  1.0021 -0.2715
  212MOL0     C28527   7.875   7.239   1.548  0.2360  0.5358  0.2482
  212MOL0     C28528   7.863   7.278   1.406 -0.1250  0.0747 -0.4541
  212MOL0    Cl28529   7.931   7.153   1.300 -0.0243  0.0298 -0.0500
  212MOL0     C28530   7.907   6.552   2.281  0.6097 -0.0747  0.0298
  212MOL0     C28531   7.848   6.482   2.387  0.1795 -0.8574  0.2210
  212MOL0     O28532   7.585   6.420   2.526 -0.2218 -0.1224 -0.4471
  212MOL0     C28533   7.691   6.397   2.855 -0.4320  0.0224  0.3129
  212MOL0     C28534   7.646   6.346   2.975  0.1186 -0.5049 -0.2738
  212MOL0     N28535   6.983   6.208   3.495 -0.1425 -0.5258 -0.0009
  212MOL0     N28536   6.867   6.269   3.478 -0.7575  0.2335  0.4875
  212MOL0     C28537   6.697   6.751   2.477 -0.1444  0.1395 -0.0404
  212MOL0     C28538   6.774   6.815   2.383 -0.7795  1.0599 -0.7392
  212MOL0     C28539   7.092   6.799   2.076 -0.0439 -0.9966  0.2307
  212MOL0     C28540   7.164   6.917   2.088 -0.7570 -0.9993 -0.9604
  212MOL0     C28541   7.237   6.969   1.978 -0.6008  1.1354 -0.8960
  212MOL0     C28542   7.239   6.898   1.861 -0.0099  1.1837 -0.2078
  212MOL0     O28543   7.303   6.945   1.752  0.1975 -0.6377  0.2279
  212MOL0     C28544   7.438   6.909   1.721  1.1121  0.3237 -1.2511
  212MOL0     C28545   7.465   6.942   1.580  0.2122  0.1355 -0.3341
  212MOL0     C28546   7.516   7.085   1.552  0.9372  0.1356  0.2928
  212MOL0     C28547   7.502   7.139   1.406  0.3883  0.2271 -2.2057
  212MOL0     C28548   7.560   7.044   1.312  0.3457 -0.1654 -0.3723
  212MOL0     C28549   7.610   6.958   1.239  0.4602  0.7369 -0.2564
  212MOL0     C28550   7.174   6.773   1.850 -0.0391 -0.3113  0.5818
  212MOL0     C28551   7.102   6.725   1.956 -1.0194  0.5168  0.8511
  212MOL0     C28552   7.021   6.602   1.929 -0.0688 -0.8113  0.0844
  212MOL0     H28553   7.071   6.819   2.553  0.3175 -1.0399 -0.8512
  212MOL0     H28554   6.936   6.719   2.725  1.9090 -2.8090 -1.4809
  212MOL0     H28555   6.491   6.603   2.601  0.5101 -0.9973 -1.1550
  212MOL0     H28556   6.627   6.502   2.546  1.2015 -0.9246  1.0024
  212MOL0     H28557   6.648   6.419   2.785 -0.9675 -1.7439  1.9844
  212MOL0     H28558   6.516   6.355   2.689 -0.4984 -0.6075  0.4411
  212MOL0     H28559   6.354   6.520   2.808 -1.5837 -0.8714  3.2477
  212MOL0     H28560   6.497   6.562   2.906  0.9533 -1.1037  1.4023
  212MOL0     H28561   6.344   6.390   3.023  1.2643  1.6476  1.2439
  212MOL0     H28562   6.363   6.283   2.875  1.4675 -0.4935 -1.0791
  212MOL0     H28563   6.495   6.210   3.062 -1.0294  0.6906  0.2510
  212MOL0     H28564   6.589   6.233   2.927 -0.1195 -0.2865  0.1942
  212MOL0     H28565   6.685   6.440   3.005 -0.4332 -0.4919  0.1516
  212MOL0     H28566   6.554   6.474   3.113 -0.4984 -0.4402 -1.9066
  212MOL0     H28567   6.770   6.252   3.137 -1.4558 -2.6839  1.1611
  212MOL0     H28568   6.647   6.269   3.264  1.9149  0.6343  2.3936
  212MOL0     H28569   6.854   6.477   3.214  1.3796 -0.0357  1.0746
  212MOL0     H28570   6.725   6.478   3.336  2.5973  0.7666  2.1271
  212MOL0     H28571   7.040   6.324   3.196 -0.9205  1.5035 -0.8457
  212MOL0     H28572   7.230   6.096   3.477  1.0050 -0.1811  1.0587
  212MOL0     H28573   7.221   6.103   3.297  0.1666  2.8558 -0.9247
  212MOL0     H28574   7.282   6.344   3.305  0.8298  3.1555  2.2921
  212MOL0     H28575   7.313   6.321   3.476 -2.8438 -4.4823  3.2901
  212MOL0     H28576   7.444   6.098   3.327 -2.3128 -0.0357  2.0676
  212MOL0     H28577   7.504   6.215   3.442 -1.8906  0.1786  1.0301
  212MOL0     H28578   7.638   6.256   3.246 -1.3539 -1.3022  3.4683
  212MOL0     H28579   7.516   6.378   3.218  0.5792  0.6414 -1.0096
  212MOL0     H28580   7.430   6.116   2.866 -3.9750  2.8890 -0.1752
  212MOL0     H28581   7.483   6.199   2.663 -3.9854  2.1547  1.0267
  212MOL0     H28582   7.795   6.750   2.587 -2.2605 -1.5267 -0.8937
  212MOL0     H28583   7.851   6.876   2.361  0.3715 -0.1378  0.8228
  212MOL0     H28584   7.890   6.946   2.167  1.2161 -0.1467  1.7256
  212MOL0     H28585   8.064   6.909   2.183  1.3027  0.4585 -2.2395
  212MOL0     H28586   8.063   6.828   1.946 -0.6448 -1.4090  1.2183
  212MOL0     H28587   7.896   6.883   1.933  1.2560  2.8003 -2.2008
  212MOL0     H28588   7.989   7.113   2.004  1.5053  1.6073 -1.8384
  212MOL0     H28589   8.143   7.055   1.968  0.1361  2.8347 -1.2067
  212MOL0     H28590   7.899   7.059   1.767 -0.3970 -0.4556 -1.1914
  212MOL0     H28591   8.064   7.014   1.717  0.8207 -0.6206  0.1771
  212MOL0     H28592   8.128   7.242   1.792  0.8972 -3.3480  0.8538
  212MOL0     H28593   7.954   7.278   1.812  2.3054 -1.0969  1.4637
  212MOL0     H28594   8.069   7.332   1.577 -0.7124  0.8795 -0.3507
  212MOL0     H28595   8.082   7.165   1.549  1.2154  0.0792  3.1353
  212MOL0     H28596   7.816   7.307   1.610  1.4071  0.2751  1.7085
  212MOL0     H28597   7.832   7.142   1.575 -0.3211  1.3595  2.5776
  212MOL0     H28598   7.757   7.288   1.382 -0.8028 -2.5023  1.0482
  212MOL0     H28599   7.920   7.371   1.393  0.2991 -0.4767 -3.2412
  212MOL0     H28600   7.950   6.497   2.198 -0.6707 -2.5397  0.8869
  212MOL0     H28601   7.847   6.373   2.391 -2.0568 -0.9207 -0.7007
  212MOL0     H28602   7.769   6.472   2.854 -0.7290  0.3673 -1.7075
  212MOL0     H28603   7.685   6.403   3.059  0.3669  2.9949 -2.5490
  212MOL0     H28604   6.592   6.743   2.450 -1.6226  1.8814  4.3509
  212MOL0     H28605   6.735   6.853   2.289 -1.9742  0.0588 -0.6690
  212MOL0     H28606   7.170   6.969   2.183  2.8476  0.9973 -2.0893
  212MOL0     H28607   7.289   7.062   1.995 -0.6650  0.9328  0.4757
  212MOL0     H28608   7.443   6.800   1.722 -2.7684 -0.0115 -0.0066
  212MOL0     H28609   7.514   6.947   1.790 -0.1243 -0.0711  0.3860
  212MOL0     H28610   7.371   6.941   1.524  0.1456 -2.2196 -0.2635
  212MOL0     H28611   7.530   6.860   1.550  0.4273 -0.8276  2.5143
  212MOL0     H28612   7.618   7.086   1.592  1.3009 -5.2711  0.2701
  212MOL0     H28613   7.460   7.151   1.619  0.3414 -1.3623  1.3095
  212MOL0     H28614   7.394   7.136   1.388 -0.3127 -3.6999  1.2542
  212MOL0     H28615   7.539   7.242   1.397 -0.7989  0.6791 -2.1323
  212MOL0     H28616   7.663   6.892   1.174 -1.2305 -0.5082 -0.4454
  212MOL0     H28617   7.193   6.716   1.759  1.4392  3.2144 -1.5073
  212MOL0     H28618   7.051   6.560   1.832 -1.8062  1.8960 -1.7868
  212MOL0     H28619   7.050   6.526   2.002 -0.4677 -0.6199  0.4435
  212MOL0     H28620   6.913   6.621   1.932 -0.0754 -0.4857 -1.4388
  213MOL0     O28621   4.569   6.071   1.608  0.3438  1.1126 -0.9419
  213MOL0     C28622   4.636   6.167   1.573 -0.9528 -0.8599  0.3069
  213MOL0     O28623   4.771   6.177   1.567 -0.4737  0.1446 -0.1325
  213MOL0     C28624   4.860   6.069   1.579  0.5278 -0.3491 -0.4612
  213MOL0     C28625   4.839   5.962   1.677  0.6308 -1.1553  1.1440
  213MOL0     C28626   4.912   5.849   1.691 -0.4610  0.1166  0.3744
  213MOL0     C28627   5.011   5.828   1.597 -1.0107  0.5346 -0.3429
  213MOL0     O28628   5.068   5.706   1.612 -0.1654 -0.4791 -0.3772
  213MOL0     C28629   5.150   5.653   1.515 -0.2123  0.0920 -0.3621
  213MOL0     C28630   5.147   5.502   1.545  0.5049 -0.8674 -0.9367
  213MOL0     C28631   5.008   5.435   1.501  0.0607  0.1361  0.1691
  213MOL0     C28632   5.020   5.278   1.499 -0.2921  0.1932  0.3966
  213MOL0     C28633   4.890   5.209   1.460 -0.3252 -0.7147  0.4580
  213MOL0     C28634   4.783   5.195   1.564  0.0262  1.2696 -0.1955
  213MOL0     C28635   4.828   5.113   1.684  0.3907  0.3402 -0.9243
  213MOL0     C28636   4.710   5.031   1.734  0.6181 -0.2532 -0.6355
  213MOL0     N28637   4.766   4.934   1.826 -0.0924  0.1934 -0.5094
  213MOL0     C28638   4.847   4.828   1.801 -1.4752 -0.5120 -0.5565
  213MOL0     C28639   4.882   4.784   1.926  0.5736  0.8559 -0.0384
  213MOL0     C28640   4.967   4.658   1.965 -0.0103  0.0172 -0.2206
  213MOL0     C28641   5.052   4.591   1.851 -1.1824  1.6026 -0.9878
  213MOL0     C28642   5.198   4.645   1.856 -0.3030  0.4857 -0.1151
  213MOL0     C28643   5.275   4.595   1.735 -1.1174 -0.6799 -0.2026
  213MOL0     O28644   5.297   4.451   1.741  0.2434  0.5748  0.2462
  213MOL0     C28645   5.336   4.390   1.626  0.1943  0.7623  0.0342
  213MOL0     C28646   5.384   4.456   1.507 -1.0284 -0.1221  0.3026
  213MOL0     C28647   5.440   4.387   1.399  0.4350  0.5058  0.0024
  213MOL0     C28648   5.456   4.250   1.407 -0.6350 -0.2851 -0.9716
  213MOL0     C28649   5.510   4.177   1.294  0.2539  0.6439  0.6143
  213MOL0     O28650   5.531   4.049   1.314 -0.3033  0.1703  0.0811
  213MOL0     C28651   5.541   3.953   1.214  0.6479 -0.3990  1.1805
  213MOL0     C28652   5.439   3.918   1.115 -0.9677  0.3815 -0.3175
  213MOL0     C28653   5.454   3.792   1.047  0.6754  0.0949  0.1184
  213MOL0     C28654   5.553   3.705   1.059 -0.4074  0.3546 -0.4664
  213MOL0     O28655   5.545   3.588   0.989  0.0334  1.1998  0.3588
  213MOL0     C28656   5.641   3.484   0.977 -0.6457  0.3358 -0.6477
  213MOL0     C28657   5.640   3.430   0.829  0.3883  0.7227 -0.6505
  213MOL0     C28658   5.675   3.275   0.827 -0.0575  0.5069  0.6199
  213MOL0     C28659   5.575   3.187   0.750  0.0605 -0.1100  0.3729
  213MOL0     C28660   5.630   3.042   0.744  0.6803 -0.5279  0.1630
  213MOL0     C28661   5.605   2.957   0.864  0.5978 -0.2110 -0.3795
  213MOL0     C28662   5.680   2.823   0.869 -0.2950  0.1964  0.1822
  213MOL0     C28663   5.655   2.741   0.740  0.6803 -0.2995  0.1679
  213MOL0    Cl28664   5.749   2.591   0.746  0.7465 -0.2918  0.3978
  213MOL0     C28665   5.654   3.742   1.146  0.3692  0.2533  0.9470
  213MOL0     C28666   5.647   3.856   1.216 -0.1381  0.9429 -0.7526
  213MOL0     O28667   5.503   4.228   1.180  0.1467 -0.6969 -0.3516
  213MOL0     C28668   5.420   4.185   1.529  0.2193 -0.0867 -0.1525
  213MOL0     C28669   5.363   4.251   1.636 -1.2262  0.8207  0.2724
  213MOL0     N28670   4.824   4.876   2.012  0.3538  0.6059 -0.4815
  213MOL0     N28671   4.756   4.961   1.952  0.4468  0.4363 -0.1947
  213MOL0     C28672   5.038   5.925   1.500  0.0288  0.2010  0.0462
  213MOL0     C28673   4.966   6.042   1.491  0.0636  0.6728 -0.4272
  213MOL0     C28674   4.573   6.299   1.559  0.2331 -0.0070  0.0907
  213MOL0     C28675   4.644   6.408   1.601  0.3819  0.3455  0.0797
  213MOL0     C28676   4.592   6.528   1.585 -0.2153  0.1099 -0.2551
  213MOL0     C28677   4.464   6.540   1.534  1.0435  0.8947  0.3842
  213MOL0     O28678   4.411   6.669   1.533  0.2180 -0.0786 -0.2539
  213MOL0     C28679   4.367   6.726   1.407 -0.4636 -0.5940  0.0745
  213MOL0     C28680   4.300   6.868   1.440  0.0893  0.4410 -0.0606
  213MOL0     C28681   4.230   6.937   1.315 -0.6834  0.2287 -0.7143
  213MOL0     C28682   4.302   7.047   1.243  1.0048 -0.1698  0.0648
  213MOL0     C28683   4.421   7.003   1.171  1.3301 -0.9737  0.1672
  213MOL0     C28684   4.518   6.965   1.114  0.0772  0.6601 -0.5643
  213MOL0     C28685   4.388   6.431   1.501  0.8343  0.4301  0.7025
  213MOL0     C28686   4.444   6.306   1.509 -0.7386 -0.5219  0.9077
  213MOL0     C28687   4.365   6.185   1.449 -0.3758 -0.2753 -0.3502
  213MOL0     H28688   4.744   5.966   1.730  0.4313  2.5731  0.8134
  213MOL0     H28689   4.883   5.777   1.767  0.6131 -2.3081 -1.3882
  213MOL0     H28690   5.104   5.651   1.416 -0.2102 -0.9825 -0.3549
  213MOL0     H28691   5.248   5.698   1.496 -1.0346  1.7514 -0.8518
  213MOL0     H28692   5.171   5.480   1.650 -0.5270  0.5689 -0.3645
  213MOL0     H28693   5.228   5.450   1.494  2.5380 -0.5997  1.7827
  213MOL0     H28694   4.978   5.475   1.404  5.2133  2.5051 -0.8142
  213MOL0     H28695   4.937   5.450   1.582  2.6849  0.5175  2.5576
  213MOL0     H28696   5.093   5.250   1.423  0.6752 -2.9108  2.2342
  213MOL0     H28697   5.053   5.236   1.595  3.9797 -0.3651 -1.1099
  213MOL0     H28698   4.837   5.254   1.375 -2.1620 -2.6521  0.4963
  213MOL0     H28699   4.917   5.115   1.412 -0.3562  1.0091 -3.2492
  213MOL0     H28700   4.752   5.291   1.604  2.2657  2.1355 -0.4164
  213MOL0     H28701   4.700   5.139   1.518  2.0278 -1.1061 -1.1734
  213MOL0     H28702   4.858   5.180   1.765 -0.5150 -2.3792  1.8874
  213MOL0     H28703   4.922   5.058   1.673  0.1397  0.1071 -2.0632
  213MOL0     H28704   4.638   5.099   1.780  2.0769  1.2064 -0.4029
  213MOL0     H28705   4.649   4.988   1.653 -0.9064  0.4202  0.1144
  213MOL0     H28706   4.870   4.796   1.700  2.0080 -1.7109  0.4782
  213MOL0     H28707   5.027   4.701   2.045 -4.0868 -0.0137  3.2333
  213MOL0     H28708   4.904   4.584   2.016 -1.0790  0.0692 -1.4163
  213MOL0     H28709   5.063   4.484   1.873 -0.6090  1.8558  0.0215
  213MOL0     H28710   5.020   4.608   1.748  1.0320  0.3781 -1.9282
  213MOL0     H28711   5.246   4.614   1.949 -2.9017 -0.5165  0.9866
  213MOL0     H28712   5.186   4.753   1.852 -0.0733  0.5162  0.0257
  213MOL0     H28713   5.370   4.648   1.721 -0.1569 -1.9281  1.2996
  213MOL0     H28714   5.222   4.629   1.645 -0.9409  0.1598  0.0031
  213MOL0     H28715   5.391   4.563   1.493  0.4545 -0.2504 -0.1600
  213MOL0     H28716   5.460   4.449   1.312  2.4106 -0.4903 -0.3008
  213MOL0     H28717   5.349   3.975   1.097 -1.8505 -0.3594  1.4893
  213MOL0     H28718   5.378   3.753   0.980  1.2546 -1.7231  0.4682
  213MOL0     H28719   5.741   3.514   1.008 -0.2180 -2.6293  1.2525
  213MOL0     H28720   5.614   3.400   1.042 -1.1461  0.7188 -0.3469
  213MOL0     H28721   5.534   3.419   0.804  0.2668 -1.4301  0.5585
  213MOL0     H28722   5.695   3.497   0.762  0.3815  1.6296  0.2327
  213MOL0     H28723   5.770   3.272   0.773 -0.1614  0.2874  0.4475
  213MOL0     H28724   5.695   3.232   0.926 -0.3360  2.6081  1.6622
  213MOL0     H28725   5.560   3.218   0.647 -1.6569  1.5602  1.0713
  213MOL0     H28726   5.479   3.206   0.800 -0.6447  0.6160 -1.1958
  213MOL0     H28727   5.739   3.043   0.740  0.7494 -0.7499  1.6652
  213MOL0     H28728   5.599   2.996   0.649 -0.1139  0.6038 -0.1555
  213MOL0     H28729   5.638   3.014   0.951  3.2412 -1.1512 -0.6911
  213MOL0     H28730   5.497   2.942   0.878  0.8241 -0.0947  1.8667
  213MOL0     H28731   5.648   2.761   0.953 -2.4217  0.3644 -0.4336
  213MOL0     H28732   5.787   2.841   0.878 -0.1923  0.2601 -0.9753
  213MOL0     H28733   5.547   2.727   0.729  0.3302  0.4909  2.2723
  213MOL0     H28734   5.680   2.795   0.648 -0.6163 -0.6874 -0.4362
  213MOL0     H28735   5.735   3.671   1.154  0.4527  0.4922  2.7905
  213MOL0     H28736   5.719   3.894   1.288 -0.6810  1.8337 -0.6645
  213MOL0     H28737   5.442   4.082   1.554 -0.6825  0.2732  2.4094
  213MOL0     H28738   5.348   4.206   1.733  3.1793 -0.7361  0.4636
  213MOL0     H28739   5.109   5.898   1.423 -0.4468 -3.2921  0.6287
  213MOL0     H28740   4.985   6.122   1.421 -3.8925  2.6931  0.5256
  213MOL0     H28741   4.746   6.404   1.637 -0.3228  0.7763  2.2362
  213MOL0     H28742   4.665   6.603   1.616 -0.9301  0.2394  1.1577
  213MOL0     H28743   4.296   6.659   1.358  0.3819 -0.0362 -2.0513
  213MOL0     H28744   4.457   6.729   1.345 -0.1913 -1.7139  0.4052
  213MOL0     H28745   4.373   6.939   1.479  1.6000 -0.2325 -1.5666
  213MOL0     H28746   4.228   6.835   1.516 -1.6405 -0.1080 -1.8355
  213MOL0     H28747   4.136   6.978   1.354  0.1650 -1.4917  3.8092
  213MOL0     H28748   4.205   6.866   1.236  2.0488 -0.0611 -1.4127
  213MOL0     H28749   4.234   7.091   1.169  0.3966 -0.0901  0.6633
  213MOL0     H28750   4.323   7.135   1.304 -2.5585  1.2120 -0.4328
  213MOL0     H28751   4.604   6.929   1.061 -1.3811 -3.9705 -0.2477
  213MOL0     H28752   4.283   6.441   1.473  1.4077  2.3683 -1.0725
  213MOL0     H28753   4.426   6.121   1.384  4.0387  3.5594 -0.5424
  213MOL0     H28754   4.327   6.130   1.536  1.0965  1.3882  1.4409
  213MOL0     H28755   4.273   6.223   1.405 -0.1971  0.9103  0.2644
  214MOL0     O28756   4.178   9.503   9.818  0.1965  0.3468 -0.2579
  214MOL0     C28757   4.233   9.403   9.771  0.2443 -0.4327 -0.0496
  214MOL0     O28758   4.247   9.386   9.636  0.0660 -0.0522  0.1045
  214MOL0     C28759   4.216   9.503   9.562 -0.5234  0.6306  0.3354
  214MOL0     C28760   4.089   9.554   9.547  1.0459  0.8572 -0.0730
  214MOL0     C28761   4.065   9.659   9.463  0.5925  0.6756  0.2352
  214MOL0     C28762   4.163   9.729   9.397 -0.6148 -0.0009 -0.6361
  214MOL0     O28763   4.121   9.843   9.333 -0.2854 -0.1852 -0.3649
  214MOL0     C28764   4.217   9.939   9.297  0.0055  0.2511 -0.2185
  214MOL0     C28765   4.144  10.074   9.296 -0.1612  0.1718  0.3236
  214MOL0     C28766   4.238  10.199   9.273  0.6031  0.6775 -0.0775
  214MOL0     C28767   4.156  10.333   9.232  0.1440  1.1289 -0.6756
  214MOL0     C28768   4.245  10.463   9.205 -0.5057  1.0220  0.2643
  214MOL0     C28769   4.149  10.573   9.206 -1.1095 -0.6080  0.0843
  214MOL0     C28770   4.234  10.691   9.151  0.0572  0.6720  1.2390
  214MOL0     C28771   4.146  10.817   9.138  0.1598  0.2685 -0.1919
  214MOL0     N28772   4.230  10.937   9.117  0.0214  0.7971  1.2311
  214MOL0     C28773   4.293  10.984   9.006  0.0276  0.7343  0.3206
  214MOL0     C28774   4.333  11.107   9.030 -0.6027  1.1255  0.7032
  214MOL0     C28775   4.430  11.187   8.949 -0.8416 -0.0491 -0.7766
  214MOL0     C28776   4.362  11.230   8.826 -0.4057 -0.3581  0.9286
  214MOL0     C28777   4.465  11.280   8.729  0.3347 -0.0320 -0.5442
  214MOL0     C28778   4.386  11.320   8.598 -0.4198  0.1788 -0.3776
  214MOL0     O28779   4.469  11.375   8.492  0.6932  1.0671 -0.1487
  214MOL0     C28780   4.502  11.507   8.490 -0.2824 -0.0477 -0.8900
  214MOL0     C28781   4.603  11.540   8.402 -0.3682  0.5919  0.5762
  214MOL0     C28782   4.650  11.676   8.396 -0.0259 -0.0660 -0.8684
  214MOL0     C28783   4.596  11.768   8.491  0.2284  0.3176  0.5123
  214MOL0     C28784   4.641  11.902   8.489 -0.1038 -1.4907  0.0508
  214MOL0     O28785   4.561  12.005   8.546  0.6410  0.6033 -0.2294
  214MOL0     C28786   4.609  12.133   8.550  0.9242  0.4580 -0.7612
  214MOL0     C28787   4.637  12.206   8.433 -0.0015 -0.7898  0.7846
  214MOL0     C28788   4.692  12.333   8.438 -0.1253 -0.5660 -0.5886
  214MOL0     C28789   4.735  12.390   8.565 -0.6179 -0.7998  0.1963
  214MOL0     O28790   4.774  12.523   8.591 -0.3417 -0.2995  0.0471
  214MOL0     C28791   4.837  12.589   8.477  1.0398  0.0495  0.5295
  214MOL0     C28792   4.937  12.694   8.522  0.2754  0.7770  1.0526
  214MOL0     C28793   4.920  12.819   8.438 -0.1732  0.3301 -0.4264
  214MOL0     C28794   5.034  12.913   8.465 -0.3772  0.4618 -0.0165
  214MOL0     C28795   5.014  13.062   8.435 -0.0508 -0.1057 -0.6672
  214MOL0     C28796   4.990  13.087   8.293  0.5023 -0.0289 -0.9111
  214MOL0     C28797   4.913  13.219   8.265 -0.4496  0.2558  0.7452
  214MOL0     C28798   4.898  13.243   8.109  0.9262 -0.6097  0.0310
  214MOL0    Cl28799   4.849  13.415   8.079  0.0370  0.0327  0.1627
  214MOL0     C28800   4.699  12.315   8.676 -0.1088 -0.5891 -0.2939
  214MOL0     C28801   4.638  12.190   8.674 -0.4874  0.1476  0.3958
  214MOL0     O28802   4.751  11.919   8.430 -0.1879 -0.9295 -0.4220
  214MOL0     C28803   4.495  11.730   8.576 -0.1124 -0.4393  0.8263
  214MOL0     C28804   4.442  11.606   8.587  0.0619  0.0308 -0.2686
  214MOL0     N28805   4.294  11.134   9.155  0.6344  0.4487 -0.3281
  214MOL0     N28806   4.232  11.037   9.204  0.1806 -0.5452  0.6575
  214MOL0     C28807   4.292   9.682   9.407 -0.3274 -0.4995 -0.5117
  214MOL0     C28808   4.319   9.569   9.490  0.2100 -0.2069 -0.5962
  214MOL0     C28809   4.280   9.295   9.864  0.0561  0.1196 -0.1498
  214MOL0     C28810   4.308   9.171   9.803 -0.5589  0.4450  0.3175
  214MOL0     C28811   4.355   9.056   9.864  0.1015  0.2739 -0.1154
  214MOL0     C28812   4.370   9.058  10.001 -0.5804 -0.7532 -0.1047
  214MOL0     O28813   4.428   8.962  10.086  0.5549 -0.0224  0.3613
  214MOL0     C28814   4.503   8.862  10.026 -0.2989 -0.1992 -0.6173
  214MOL0     C28815   4.607   8.814  10.128  0.1346 -0.6682 -0.5813
  214MOL0     C28816   4.643   8.911  10.226  0.7750  0.5072  0.0854
  214MOL0     C28817   4.764   8.861  10.309 -0.2911 -0.0775 -0.0847
  214MOL0     C28818   4.726   8.778  10.421 -0.4914  0.2487  0.6319
  214MOL0     C28819   4.699   8.724  10.527 -0.1265  0.7026 -0.4122
  214MOL0     C28820   4.341   9.176  10.068  0.1063 -0.5456 -0.9308
  214MOL0     C28821   4.289   9.290  10.004 -0.9912 -0.1849  0.1472
  214MOL0     C28822   4.248   9.409  10.087 -0.1272  0.3498 -0.3361
  214MOL0     H28823   4.018   9.488   9.597  2.5714 -2.2706 -1.6967
  214MOL0     H28824   3.962   9.692   9.466 -0.3172 -1.9639  1.5752
  214MOL0     H28825   4.306   9.947   9.360 -0.0758  1.2867 -0.2265
  214MOL0     H28826   4.247   9.906   9.197  3.3805 -1.6054  1.2451
  214MOL0     H28827   4.086  10.087   9.388 -1.0665  1.8085 -0.4227
  214MOL0     H28828   4.069  10.065   9.217 -0.2245 -1.5605  0.5382
  214MOL0     H28829   4.318  10.174   9.202  0.8147 -2.0142  1.0134
  214MOL0     H28830   4.293  10.232   9.362  1.0419  0.1938 -0.1669
  214MOL0     H28831   4.098  10.309   9.143  2.4041  0.8166 -2.1634
  214MOL0     H28832   4.091  10.359   9.316  0.1898 -2.1232  0.5025
  214MOL0     H28833   4.314  10.479   9.288 -1.0526  0.6382  0.8075
  214MOL0     H28834   4.300  10.444   9.112 -0.9158  1.2774 -0.0343
  214MOL0     H28835   4.066  10.558   9.136 -1.4862  1.5710  0.0033
  214MOL0     H28836   4.100  10.596   9.301 -1.4388 -1.0582  0.0274
  214MOL0     H28837   4.285  10.668   9.057 -2.0041  4.5949 -1.1473
  214MOL0     H28838   4.309  10.706   9.230  1.0019  0.3109  0.4377
  214MOL0     H28839   4.076  10.799   9.056  1.3158 -0.1650 -1.1178
  214MOL0     H28840   4.087  10.818   9.230  3.0518 -2.6716  1.9430
  214MOL0     H28841   4.332  10.930   8.920  1.7870  0.8409  1.0098
  214MOL0     H28842   4.463  11.279   8.999  2.4628 -1.4902 -0.0532
  214MOL0     H28843   4.523  11.129   8.938 -1.6845 -1.5548 -0.1764
  214MOL0     H28844   4.310  11.147   8.777 -1.6352 -0.3638  2.1784
  214MOL0     H28845   4.288  11.307   8.846  2.7049  2.8284  1.1857
  214MOL0     H28846   4.533  11.202   8.693 -0.3646 -0.0413 -1.9135
  214MOL0     H28847   4.518  11.364   8.773 -1.9958  0.8753  0.7383
  214MOL0     H28848   4.301  11.388   8.608 -0.5995  0.0308 -0.8495
  214MOL0     H28849   4.340  11.232   8.553  0.4891 -0.2809 -0.4203
  214MOL0     H28850   4.661  11.470   8.344  0.7667  0.8469  1.3679
  214MOL0     H28851   4.732  11.710   8.334 -0.7014  2.9962 -0.2450
  214MOL0     H28852   4.607  12.167   8.336 -1.1195  0.2842  0.6700
  214MOL0     H28853   4.701  12.399   8.352  0.7080  0.4239  0.2203
  214MOL0     H28854   4.887  12.513   8.417 -0.5112 -2.6660  2.4412
  214MOL0     H28855   4.762  12.628   8.408  3.8892  0.8889 -2.3226
  214MOL0     H28856   4.918  12.715   8.627  0.3044 -0.5682  1.3444
  214MOL0     H28857   5.037  12.655   8.502 -0.0784  0.0169  0.6855
  214MOL0     H28858   4.913  12.791   8.332 -2.7912  1.6839 -0.6899
  214MOL0     H28859   4.827  12.865   8.474 -0.0251 -0.7743  1.4849
  214MOL0     H28860   5.119  12.874   8.409 -0.5115  1.6072 -1.0594
  214MOL0     H28861   5.058  12.926   8.571  1.0185  1.0216 -0.3807
  214MOL0     H28862   5.099  13.123   8.468 -0.3674  1.6499 -2.8221
  214MOL0     H28863   4.923  13.091   8.488  0.2029 -1.0388  0.3149
  214MOL0     H28864   5.086  13.072   8.244  0.3049  0.0801 -1.3386
  214MOL0     H28865   4.932  12.998   8.267 -0.2517  0.3016 -0.4283
  214MOL0     H28866   4.981  13.291   8.313 -0.8108  2.1148 -1.4013
  214MOL0     H28867   4.814  13.227   8.309  0.9109 -0.2681  4.2524
  214MOL0     H28868   4.999  13.221   8.075  1.0990  0.0119  0.1255
  214MOL0     H28869   4.830  13.174   8.058 -0.3099  0.2633  0.4401
  214MOL0     H28870   4.714  12.357   8.775  0.3611 -2.1453  0.3345
  214MOL0     H28871   4.638  12.140   8.771  1.1677 -0.9572 -0.1281
  214MOL0     H28872   4.450  11.801   8.646  2.2489  0.5642  1.4269
  214MOL0     H28873   4.366  11.591   8.662 -0.6466  2.4734 -0.4163
  214MOL0     H28874   4.380   9.723   9.358  0.4828 -2.0116 -0.3959
  214MOL0     H28875   4.416   9.523   9.476  0.1364 -0.4390 -0.3436
  214MOL0     H28876   4.283   9.154   9.699  1.3831 -0.5254 -0.0521
  214MOL0     H28877   4.370   8.965   9.807 -1.7543  0.3418 -0.7584
  214MOL0     H28878   4.555   8.901   9.938  0.2880 -2.9403 -1.5707
  214MOL0     H28879   4.454   8.772   9.990  2.1721 -2.2311  0.7424
  214MOL0     H28880   4.699   8.791  10.074  1.7120  5.0701 -1.0310
  214MOL0     H28881   4.577   8.721  10.177  0.9092  0.5370  2.4499
  214MOL0     H28882   4.564   8.948  10.292  2.8495 -0.2639  3.1830
  214MOL0     H28883   4.673   9.002  10.172 -1.6443  0.5339 -1.3696
  214MOL0     H28884   4.842   8.821  10.244 -0.6993  1.0235 -1.3023
  214MOL0     H28885   4.812   8.945  10.361  1.8045 -0.9669 -0.4943
  214MOL0     H28886   4.674   8.686  10.624  3.3206  2.4577  1.3442
  214MOL0     H28887   4.349   9.159  10.174 -1.3967 -0.9398 -0.8572
  214MOL0     H28888   4.237   9.374  10.190  0.6976  2.8969  0.6941
  214MOL0     H28889   4.324   9.487  10.097 -2.2704  2.2399  3.8807
  214MOL0     H28890   4.156   9.456  10.053 -0.2513  0.4071  0.0780
  215MOL0     O28891   7.503   7.028   4.470 -0.1774 -0.5752  0.7118
  215MOL0     C28892   7.404   6.959   4.472 -0.5693  1.2958  0.0831
  215MOL0     O28893   7.406   6.816   4.495  0.2361 -0.1634 -0.4988
  215MOL0     C28894   7.519   6.742   4.507  0.1510 -0.2048 -0.2379
  215MOL0     C28895   7.575   6.664   4.412 -0.4790  0.2022  0.3693
  215MOL0     C28896   7.658   6.560   4.431  0.1207  0.4277 -0.4737
  215MOL0     C28897   7.715   6.541   4.557  1.0365  0.1413  0.4999
  215MOL0     O28898   7.803   6.443   4.576 -0.2166 -0.1737 -0.4222
  215MOL0     C28899   7.805   6.389   4.708 -0.0462  0.6705 -0.0333
  215MOL0     C28900   7.902   6.265   4.726  0.5557 -0.1233  0.2813
  215MOL0     C28901   7.868   6.175   4.605 -1.0213  0.3761 -0.3130
  215MOL0     C28902   7.922   6.022   4.611 -0.3497  0.1267  0.5163
  215MOL0     C28903   8.078   5.999   4.597  1.0385 -0.2531  0.7450
  215MOL0     C28904   8.146   5.986   4.732 -0.5002  0.4804  0.4729
  215MOL0     C28905   8.294   6.010   4.703  0.5299  0.6434 -0.9363
  215MOL0     C28906   8.330   6.157   4.692 -0.1589  0.4343  0.8791
  215MOL0     N28907   8.467   6.181   4.736 -1.3559  0.8565  0.0108
  215MOL0     C28908   8.573   6.108   4.687  0.6709 -0.0438 -0.7065
  215MOL0     C28909   8.676   6.145   4.768 -0.3762 -0.2293 -0.5054
  215MOL0     C28910   8.815   6.102   4.758 -1.0002 -0.8431 -0.2049
  215MOL0     C28911   8.850   5.961   4.809  0.1538  0.0276 -0.2406
  215MOL0     C28912   8.923   5.874   4.706 -0.4029 -0.1923  0.3190
  215MOL0     C28913   8.823   5.818   4.612  0.4714  0.3857  0.5973
  215MOL0     O28914   8.755   5.711   4.681  0.2424  0.1889  0.0519
  215MOL0     C28915   8.621   5.685   4.646 -0.3036  0.1690  0.6293
  215MOL0     C28916   8.527   5.641   4.739 -0.2208  0.5071 -0.6199
  215MOL0     C28917   8.399   5.604   4.697 -0.2061  0.4778 -0.6862
  215MOL0     C28918   8.351   5.621   4.570  0.2198 -0.0669 -0.1278
  215MOL0     C28919   8.209   5.604   4.541 -0.2166  0.6074 -0.1203
  215MOL0     O28920   8.169   5.620   4.399 -0.8815  0.4292  0.4940
  215MOL0     C28921   8.038   5.634   4.373  0.1865  0.6418  1.1092
  215MOL0     C28922   7.923   5.660   4.457  0.0066  0.6470 -0.7752
  215MOL0     C28923   7.790   5.653   4.410  0.2933  0.0280  0.5669
  215MOL0     C28924   7.763   5.618   4.273 -0.9187 -0.1334  0.0954
  215MOL0     O28925   7.644   5.607   4.215  0.6197  0.4289  0.1835
  215MOL0     C28926   7.530   5.554   4.293 -1.4019 -1.2462 -0.5753
  215MOL0     C28927   7.410   5.514   4.203  0.2656  0.2213  0.0338
  215MOL0     C28928   7.315   5.628   4.182  0.2192 -0.7254 -0.7878
  215MOL0     C28929   7.186   5.582   4.107  0.0298  0.6585 -0.8073
  215MOL0     C28930   7.063   5.659   4.138 -0.1049 -0.5283 -0.9312
  215MOL0     C28931   6.938   5.610   4.060 -0.4246  0.4276 -0.5639
  215MOL0     C28932   6.804   5.672   4.079 -0.0952  0.4932 -0.8888
  215MOL0     C28933   6.749   5.684   4.222  0.9257  0.2535 -0.2692
  215MOL0    Cl28934   6.665   5.544   4.284  0.1881  0.3289 -0.2846
  215MOL0     C28935   7.870   5.614   4.187  0.1303  0.7936 -0.0286
  215MOL0     C28936   8.009   5.616   4.235  0.4811  0.1633  0.6815
  215MOL0     O28937   8.132   5.567   4.634  0.3170  0.4344 -1.0307
  215MOL0     C28938   8.442   5.677   4.477 -0.7420  0.3590 -0.2491
  215MOL0     C28939   8.577   5.707   4.515  0.4536 -0.7566 -0.0091
  215MOL0     N28940   8.627   6.243   4.853 -0.3677  0.2785 -0.6320
  215MOL0     N28941   8.507   6.267   4.828  0.4943  0.4358 -0.5904
  215MOL0     C28942   7.683   6.638   4.652  0.4323  0.4081  0.2349
  215MOL0     C28943   7.584   6.736   4.632 -0.6456  0.1742 -0.2562
  215MOL0     C28944   7.267   7.020   4.476  0.4413 -1.1953  0.3515
  215MOL0     C28945   7.172   6.951   4.553 -0.8440 -0.9163  0.2081
  215MOL0     C28946   7.046   7.008   4.585  0.5237 -0.5136  0.8256
  215MOL0     C28947   7.008   7.128   4.525  0.9677  0.7020 -0.1335
  215MOL0     O28948   6.882   7.173   4.550  0.9573  0.4085 -0.0953
  215MOL0     C28949   6.877   7.285   4.641  0.2270  0.3198  0.5900
  215MOL0     C28950   6.729   7.321   4.678 -0.2342 -0.7321 -0.7802
  215MOL0     C28951   6.636   7.200   4.725  0.8328  0.2808 -0.0408
  215MOL0     C28952   6.604   7.209   4.880  0.1757 -0.3918  0.9462
  215MOL0     C28953   6.718   7.150   4.949  0.3962  0.2064 -0.1739
  215MOL0     C28954   6.816   7.099   5.006 -1.1688 -0.1222  0.1862
  215MOL0     C28955   7.099   7.192   4.456 -0.7341 -0.4707 -0.2639
  215MOL0     C28956   7.228   7.140   4.427  0.1078 -0.9550  0.3349
  215MOL0     C28957   7.322   7.238   4.360  0.9060 -0.7573 -1.1171
  215MOL0     H28958   7.530   6.665   4.314  1.9931 -1.8532 -0.9094
  215MOL0     H28959   7.697   6.500   4.350  1.7116  1.7986 -0.7734
  215MOL0     H28960   7.838   6.464   4.781 -0.9541 -0.4933  1.6407
  215MOL0     H28961   7.703   6.360   4.735  0.6447 -3.3230 -1.0473
  215MOL0     H28962   7.881   6.209   4.818  0.0315  2.3121  1.7619
  215MOL0     H28963   8.005   6.300   4.719  0.3691  0.1891 -1.1089
  215MOL0     H28964   7.920   6.226   4.523 -0.9979  0.9761  0.0762
  215MOL0     H28965   7.760   6.181   4.585 -0.9214  2.0803 -0.4838
  215MOL0     H28966   7.884   5.982   4.706 -0.3701  0.4537  0.6492
  215MOL0     H28967   7.859   5.972   4.537 -2.7533  1.0589  1.8093
  215MOL0     H28968   8.100   5.921   4.524 -0.8936  1.2713 -1.6070
  215MOL0     H28969   8.106   6.094   4.551  0.9501  0.4632  2.1014
  215MOL0     H28970   8.102   6.056   4.803 -2.3944 -1.4960  1.3415
  215MOL0     H28971   8.127   5.884   4.765  1.1497  0.2707  0.8798
  215MOL0     H28972   8.310   5.962   4.606 -0.5550  0.2695 -0.9423
  215MOL0     H28973   8.356   5.956   4.775 -0.3908 -0.4055 -0.9125
  215MOL0     H28974   8.326   6.188   4.587  0.3955 -0.4260  0.5909
  215MOL0     H28975   8.263   6.210   4.760  0.9032  0.9608  1.5290
  215MOL0     H28976   8.576   6.038   4.604  3.4198 -1.8286  0.7376
  215MOL0     H28977   8.852   6.130   4.659 -0.7389  1.7110  0.5374
  215MOL0     H28978   8.865   6.174   4.824 -1.1541 -0.1659 -0.8060
  215MOL0     H28979   8.925   5.967   4.889 -1.9588 -1.5195  2.0334
  215MOL0     H28980   8.758   5.908   4.837 -0.9607  0.0563 -3.4494
  215MOL0     H28981   8.976   5.796   4.762  1.1810  2.1222  2.2994
  215MOL0     H28982   8.999   5.939   4.661  1.3829  0.2725  3.6891
  215MOL0     H28983   8.874   5.779   4.523 -1.2578  0.2814 -0.3961
  215MOL0     H28984   8.750   5.896   4.587 -1.8035 -0.9244  2.7006
  215MOL0     H28985   8.564   5.644   4.841  1.3731  1.1224 -1.1789
  215MOL0     H28986   8.341   5.570   4.782 -0.6147  4.3841  0.7758
  215MOL0     H28987   7.931   5.670   4.565 -1.3764  1.7615 -0.7577
  215MOL0     H28988   7.706   5.662   4.479 -2.8985 -0.2960 -2.9652
  215MOL0     H28989   7.576   5.473   4.350  1.4412 -0.0271 -0.9381
  215MOL0     H28990   7.484   5.625   4.363 -0.5887 -0.4108 -0.8678
  215MOL0     H28991   7.443   5.475   4.106 -1.7395 -1.6673  0.0233
  215MOL0     H28992   7.359   5.431   4.254 -2.3231 -1.9939 -5.3272
  215MOL0     H28993   7.283   5.685   4.270 -1.3150 -1.4440 -0.8420
  215MOL0     H28994   7.362   5.705   4.120 -0.6097 -1.1858 -2.0236
  215MOL0     H28995   7.168   5.475   4.125 -0.7468  0.9515  0.2970
  215MOL0     H28996   7.208   5.581   4.000  0.1584  0.1301 -0.7810
  215MOL0     H28997   7.090   5.764   4.121 -4.0800  0.4881 -2.0620
  215MOL0     H28998   7.038   5.663   4.245  0.2920  0.2927 -0.8556
  215MOL0     H28999   6.962   5.611   3.954 -0.9004 -0.1145 -0.6833
  215MOL0     H29000   6.923   5.503   4.080  0.2416  0.3962 -0.2238
  215MOL0     H29001   6.732   5.612   4.023  1.0561 -4.6370  2.4807
  215MOL0     H29002   6.812   5.768   4.027  1.3085  0.6344 -0.4689
  215MOL0     H29003   6.823   5.719   4.294 -1.0558  4.4581  0.0494
  215MOL0     H29004   6.674   5.763   4.225 -0.4094 -0.9363 -1.0088
  215MOL0     H29005   7.844   5.611   4.082 -1.6866 -0.1668  0.4128
  215MOL0     H29006   8.081   5.607   4.155  3.3750 -3.7130  3.3689
  215MOL0     H29007   8.412   5.715   4.380  1.2062 -1.9867 -1.8778
  215MOL0     H29008   8.652   5.737   4.443  2.0446 -1.7414  1.1702
  215MOL0     H29009   7.723   6.634   4.753 -3.1654 -1.2713  1.7835
  215MOL0     H29010   7.557   6.816   4.700 -1.2592  0.4315 -0.7872
  215MOL0     H29011   7.215   6.868   4.608 -1.1101 -1.2258 -0.0420
  215MOL0     H29012   6.974   6.966   4.655  0.6929  0.7041  1.7539
  215MOL0     H29013   6.916   7.367   4.580  0.1399 -0.9123 -1.2284
  215MOL0     H29014   6.935   7.267   4.732 -1.2655 -1.1319  1.2995
  215MOL0     H29015   6.684   7.369   4.591  1.4441 -1.9817 -2.4090
  215MOL0     H29016   6.726   7.394   4.760  1.1226  0.2397 -1.5543
  215MOL0     H29017   6.675   7.105   4.688  1.7392  1.1276 -1.3384
  215MOL0     H29018   6.536   7.205   4.682  0.9666 -1.6370 -0.6915
  215MOL0     H29019   6.588   7.316   4.896  0.6507 -0.2394  0.4069
  215MOL0     H29020   6.513   7.150   4.891 -0.0051 -0.2899  0.0348
  215MOL0     H29021   6.892   7.059   5.070 -2.5329 -0.3863  1.7191
  215MOL0     H29022   7.065   7.284   4.410 -3.0842 -0.9628  0.3137
  215MOL0     H29023   7.386   7.188   4.288  2.9672  1.8205 -1.2327
  215MOL0     H29024   7.266   7.317   4.310 -1.6388 -0.2977  2.1125
  215MOL0     H29025   7.395   7.286   4.427 -1.1809  2.2094 -0.7531
  216MOL0     O29026  11.037   0.862   8.666 -0.2116 -0.0345  0.2887
  216MOL0     C29027  10.958   0.957   8.684  0.4260  0.8399  0.7174
  216MOL0     O29028  10.965   1.050   8.783 -0.5437 -0.0130  0.6457
  216MOL0     C29029  11.076   1.123   8.802 -0.3442  0.0855 -0.2855
  216MOL0     C29030  11.088   1.192   8.920  0.3702 -0.4197  0.0011
  216MOL0     C29031  11.203   1.274   8.950 -1.1986  0.3748  0.2260
  216MOL0     C29032  11.307   1.280   8.858 -0.5891 -0.6109 -0.1423
  216MOL0     O29033  11.409   1.357   8.888  0.0246  0.0432 -0.7900
  216MOL0     C29034  11.522   1.373   8.799  0.9785 -0.8354  0.5249
  216MOL0     C29035  11.481   1.483   8.694 -0.0975  0.2353  1.5306
  216MOL0     C29036  11.445   1.623   8.757  0.0876  0.3642 -1.5520
  216MOL0     C29037  11.299   1.662   8.742 -0.8041  0.3720 -0.0215
  216MOL0     C29038  11.274   1.813   8.752  0.2516 -0.1594  0.4628
  216MOL0     C29039  11.132   1.867   8.792  0.0428 -0.4738  0.0193
  216MOL0     C29040  11.120   2.014   8.776 -0.4121 -0.0783  0.5806
  216MOL0     C29041  11.161   2.072   8.638 -0.3384 -0.4770  0.6908
  216MOL0     N29042  11.103   2.203   8.605 -0.5213 -0.1497 -0.2274
  216MOL0     C29043  10.975   2.249   8.639 -0.7290  0.3979  0.4158
  216MOL0     C29044  10.985   2.377   8.605  1.5077 -0.2809 -0.0277
  216MOL0     C29045  10.864   2.476   8.615  0.2582  0.3662  0.1380
  216MOL0     C29046  10.845   2.558   8.483  0.8243  0.4168 -0.0758
  216MOL0     C29047  10.702   2.587   8.442 -0.0688 -0.0566  0.3175
  216MOL0     C29048  10.691   2.700   8.337  0.0467 -0.3587 -0.4454
  216MOL0     O29049  10.719   2.821   8.401 -1.3847 -0.3486 -0.0630
  216MOL0     C29050  10.703   2.926   8.315  0.5535  0.3116 -0.6341
  216MOL0     C29051  10.735   2.931   8.185  0.8017 -0.6028  0.5965
  216MOL0     C29052  10.713   3.041   8.105  1.0417 -0.0196  1.2318
  216MOL0     C29053  10.646   3.155   8.161  0.0268  0.1478 -1.0197
  216MOL0     C29054  10.631   3.276   8.090  1.1523  0.2141 -0.8095
  216MOL0     O29055  10.571   3.386   8.158  0.1237 -0.4769 -0.5197
  216MOL0     C29056  10.549   3.502   8.082 -0.0804 -0.0201 -1.0914
  216MOL0     C29057  10.646   3.574   8.012  0.6157 -0.9452 -0.4066
  216MOL0     C29058  10.608   3.697   7.950 -0.2841 -0.0994 -0.2840
  216MOL0     C29059  10.485   3.751   7.952  0.6396 -0.3584 -1.5549
  216MOL0     O29060  10.448   3.869   7.897 -0.2468 -0.4672 -0.1340
  216MOL0     C29061  10.465   3.888   7.757  0.7949  0.5259 -0.7907
  216MOL0     C29062  10.588   3.950   7.698  0.2014  0.1376  0.8232
  216MOL0     C29063  10.574   3.939   7.546  0.1020  0.7965  0.2775
  216MOL0     C29064  10.681   4.011   7.473 -0.0842 -0.4658  0.2580
  216MOL0     C29065  10.652   4.000   7.321  0.6227 -0.0954 -0.4036
  216MOL0     C29066  10.740   4.079   7.227  0.4044  0.4852 -0.3977
  216MOL0     C29067  10.730   4.018   7.079 -0.0474 -0.0228  1.0007
  216MOL0     C29068  10.806   4.100   6.965  0.2405  0.1868 -0.4704
  216MOL0    Cl29069  10.952   4.021   6.906  0.4414  0.2038  0.4396
  216MOL0     C29070  10.379   3.672   8.017  0.1687  0.0246  0.7695
  216MOL0     C29071  10.419   3.550   8.079  0.3663 -0.5523 -0.6206
  216MOL0     O29072  10.669   3.273   7.974  0.3142 -0.5340  0.2316
  216MOL0     C29073  10.610   3.153   8.304 -0.2180 -0.1871 -0.5920
  216MOL0     C29074  10.639   3.030   8.371  0.3218 -0.5087 -0.4299
  216MOL0     N29075  11.103   2.407   8.550  0.1424 -0.6284 -0.5152
  216MOL0     N29076  11.172   2.304   8.543 -0.0177 -0.4566  0.0606
  216MOL0     C29077  11.298   1.207   8.737 -0.3147  0.1978 -0.0357
  216MOL0     C29078  11.188   1.126   8.715  0.2574  0.7220  0.8836
  216MOL0     C29079  10.839   0.955   8.604  0.3105  0.1370  0.7793
  216MOL0     C29080  10.727   1.044   8.639  0.0314 -0.1869  0.2609
  216MOL0     C29081  10.615   1.065   8.560 -0.5093 -0.6437  0.7700
  216MOL0     C29082  10.598   0.977   8.447  0.3691  0.0444 -0.4479
  216MOL0     O29083  10.484   0.969   8.373 -0.1173 -0.4848  0.9090
  216MOL0     C29084  10.375   1.046   8.421  0.1206 -0.1328 -0.0917
  216MOL0     C29085  10.230   1.023   8.356  0.6063 -0.0075 -0.1425
  216MOL0     C29086  10.204   0.878   8.315  0.4864  0.1887  1.1601
  216MOL0     C29087  10.113   0.855   8.192 -0.4411 -0.6119  0.0902
  216MOL0     C29088   9.978   0.881   8.209  0.2239 -0.3065  0.8079
  216MOL0     C29089   9.857   0.905   8.200  0.4383  0.0025 -0.2381
  216MOL0     C29090  10.700   0.885   8.414  0.5714 -0.1393  0.5056
  216MOL0     C29091  10.827   0.877   8.484  1.5280 -0.3029  0.2821
  216MOL0     C29092  10.933   0.798   8.404 -0.4828 -1.3858  0.1710
  216MOL0     H29093  11.009   1.173   8.991  0.1706 -1.6485 -0.5165
  216MOL0     H29094  11.209   1.339   9.038 -2.1989  1.6541 -0.6135
  216MOL0     H29095  11.614   1.405   8.850  1.7316 -2.4291  0.2436
  216MOL0     H29096  11.557   1.286   8.743  4.0690  1.6964 -1.8700
  216MOL0     H29097  11.399   1.455   8.627  1.6622 -1.1763 -0.1504
  216MOL0     H29098  11.563   1.500   8.624 -0.5541 -1.0369  0.6452
  216MOL0     H29099  11.505   1.695   8.701  0.4608  0.2281 -1.3278
  216MOL0     H29100  11.475   1.639   8.861 -1.0631  2.1651 -1.4469
  216MOL0     H29101  11.252   1.624   8.651 -0.2994 -1.8437  0.6017
  216MOL0     H29102  11.257   1.612   8.830  2.1557  1.0671  1.9355
  216MOL0     H29103  11.345   1.862   8.819 -0.8491  0.2346  1.3819
  216MOL0     H29104  11.296   1.840   8.649 -1.4022  0.9339  0.3576
  216MOL0     H29105  11.065   1.825   8.716 -1.3624  0.5889  0.6212
  216MOL0     H29106  11.106   1.833   8.892 -0.2958 -0.4740 -0.0684
  216MOL0     H29107  11.176   2.066   8.854 -4.2107  0.1504  3.4057
  216MOL0     H29108  11.014   2.028   8.799 -0.5581  1.2911 -0.7290
  216MOL0     H29109  11.269   2.086   8.636 -0.2640 -1.1382 -0.1292
  216MOL0     H29110  11.144   2.004   8.554 -2.6213 -1.2710  1.7201
  216MOL0     H29111  10.891   2.189   8.670  1.4067 -3.1421 -0.1022
  216MOL0     H29112  10.777   2.425   8.657 -0.0510  2.5943  2.3758
  216MOL0     H29113  10.891   2.551   8.690  1.0806  0.8788 -0.6428
  216MOL0     H29114  10.902   2.650   8.500  0.9925  0.1833  0.6785
  216MOL0     H29115  10.908   2.505   8.412  0.3602  0.2442 -0.3595
  216MOL0     H29116  10.645   2.612   8.531  1.1780 -2.3623  1.8587
  216MOL0     H29117  10.657   2.495   8.402 -2.6151  1.0998  0.3311
  216MOL0     H29118  10.589   2.701   8.298 -0.3993 -2.4223  0.4978
  216MOL0     H29119  10.766   2.692   8.257  0.4219  2.9470 -0.5384
  216MOL0     H29120  10.797   2.852   8.141  2.0812  1.1524 -0.9218
  216MOL0     H29121  10.748   3.037   8.002 -0.3955 -0.8144  0.7481
  216MOL0     H29122  10.750   3.543   8.013  0.8923 -0.1344 -1.5822
  216MOL0     H29123  10.680   3.753   7.892 -0.4246  0.7860  0.3614
  216MOL0     H29124  10.457   3.791   7.707  0.4891 -0.2778  0.7654
  216MOL0     H29125  10.384   3.956   7.727  1.6073  0.3902 -3.5695
  216MOL0     H29126  10.604   4.051   7.736  0.5313 -1.0059  4.0701
  216MOL0     H29127  10.675   3.888   7.723 -0.3220 -1.2090 -0.5741
  216MOL0     H29128  10.567   3.837   7.507  0.8552  1.4586 -1.7505
  216MOL0     H29129  10.480   3.987   7.518  0.7404  2.2526  0.5582
  216MOL0     H29130  10.777   3.962   7.495 -1.1503 -2.8314 -0.0181
  216MOL0     H29131  10.688   4.114   7.508  0.0204  0.2652 -1.7431
  216MOL0     H29132  10.551   4.039   7.306 -0.1673 -1.5194  0.9198
  216MOL0     H29133  10.660   3.893   7.298  0.4948  0.1160 -1.4636
  216MOL0     H29134  10.707   4.182   7.213 -1.2847  0.2115  1.1379
  216MOL0     H29135  10.840   4.083   7.270 -0.6385 -0.4209  2.3528
  216MOL0     H29136  10.628   3.997   7.044  0.1864 -2.3463  1.5861
  216MOL0     H29137  10.780   3.921   7.076 -1.6688 -0.9088  1.3985
  216MOL0     H29138  10.737   4.100   6.880  1.4084  2.7854 -1.5231
  216MOL0     H29139  10.837   4.203   6.988 -1.0777  0.0890  2.0535
  216MOL0     H29140  10.279   3.714   8.023 -0.3146 -1.2257  6.3228
  216MOL0     H29141  10.364   3.482   8.143  5.5359 -2.8479  2.0159
  216MOL0     H29142  10.571   3.237   8.360 -0.2075 -0.4011 -0.2617
  216MOL0     H29143  10.605   3.020   8.473  0.0212  0.9004 -0.3733
  216MOL0     H29144  11.380   1.179   8.672 -0.3243 -0.7594  0.3439
  216MOL0     H29145  11.183   1.056   8.633  1.7278 -0.6845  1.9182
  216MOL0     H29146  10.735   1.105   8.729 -0.8885 -0.3381  0.4561
  216MOL0     H29147  10.546   1.134   8.608 -0.7376 -2.6765  3.6614
  216MOL0     H29148  10.397   1.153   8.425  0.5618 -0.2578  2.2059
  216MOL0     H29149  10.349   1.002   8.518 -0.7994  1.3192  0.3564
  216MOL0     H29150  10.214   1.094   8.275 -1.3955 -0.5483 -0.2751
  216MOL0     H29151  10.160   1.047   8.437  1.2648  1.7258 -0.0504
  216MOL0     H29152  10.165   0.808   8.390 -0.6782 -1.8568 -1.1755
  216MOL0     H29153  10.298   0.839   8.276  0.7434  1.7263  0.1372
  216MOL0     H29154  10.154   0.924   8.118 -2.2455  3.1236  2.2680
  216MOL0     H29155  10.133   0.753   8.161  2.8225  0.1037 -0.5172
  216MOL0     H29156   9.755   0.927   8.175  1.5610  2.0718 -3.7422
  216MOL0     H29157  10.685   0.813   8.333  1.5628 -0.7239  0.8335
  216MOL0     H29158  11.030   0.848   8.393  0.4068 -3.2217 -0.7932
  216MOL0     H29159  10.942   0.695   8.441  0.0059 -0.5998  2.4254
  216MOL0     H29160  10.911   0.784   8.298  1.0411  2.1098 -0.7471
  217MOL0     O29161   2.017   5.351   4.216  0.4928  0.8294  0.0088
  217MOL0     C29162   1.952   5.435   4.159 -0.4213  0.0945  0.1580
  217MOL0     O29163   1.819   5.434   4.156 -0.6930 -1.0148  0.0686
  217MOL0     C29164   1.751   5.325   4.197 -0.0331  0.1704  0.0987
  217MOL0     C29165   1.663   5.257   4.109 -0.0952 -0.1706 -0.5733
  217MOL0     C29166   1.572   5.161   4.147  0.0761 -0.1428  0.7347
  217MOL0     C29167   1.560   5.121   4.278  0.6737  0.2936  0.6196
  217MOL0     O29168   1.485   5.015   4.326  1.1640 -0.1542  0.6044
  217MOL0     C29169   1.444   4.915   4.232  1.2808 -1.5034  0.8457
  217MOL0     C29170   1.392   4.796   4.321 -0.0901 -0.1869  0.4784
  217MOL0     C29171   1.407   4.660   4.246  0.2181 -0.3567 -0.5959
  217MOL0     C29172   1.344   4.555   4.348  0.2540 -0.9420  0.6382
  217MOL0     C29173   1.332   4.412   4.291  0.7852 -0.2291  0.7684
  217MOL0     C29174   1.295   4.308   4.398  1.4503  0.2375 -0.6501
  217MOL0     C29175   1.235   4.178   4.328 -0.4386  0.3528  0.0576
  217MOL0     C29176   1.101   4.184   4.272  0.0619 -0.2978 -0.7243
  217MOL0     N29177   1.067   4.059   4.207  0.0286 -0.3024 -0.5843
  217MOL0     C29178   1.033   4.041   4.074 -0.1097  0.5124 -0.0773
  217MOL0     C29179   1.017   3.903   4.070 -1.0181 -0.0539  1.6133
  217MOL0     C29180   0.988   3.827   3.944 -0.0920 -0.7037  0.5193
  217MOL0     C29181   0.876   3.881   3.862  0.2061  0.0231  0.2187
  217MOL0     C29182   0.745   3.899   3.941  0.2245  0.2454 -0.7778
  217MOL0     C29183   0.687   4.038   3.921 -1.0306 -0.5283 -0.3838
  217MOL0     O29184   0.552   4.041   3.954  0.8062 -0.7909 -0.5390
  217MOL0     C29185   0.511   4.084   4.083  1.0558  0.1581 -0.0718
  217MOL0     C29186   0.596   4.112   4.185 -1.3582  0.1772  0.3993
  217MOL0     C29187   0.545   4.162   4.304 -0.2724  0.1796  0.6068
  217MOL0     C29188   0.412   4.182   4.334  0.3111 -0.1860 -0.1623
  217MOL0     C29189   0.349   4.233   4.465 -0.6204 -0.2591 -0.0658
  217MOL0     O29190   0.220   4.277   4.451  0.0679  0.3453 -0.2327
  217MOL0     C29191   0.161   4.342   4.561 -0.9495 -0.4523  0.1145
  217MOL0     C29192   0.089   4.274   4.661  0.7922  0.5419  0.7215
  217MOL0     C29193   0.040   4.326   4.772  1.0031 -0.0949 -0.0618
  217MOL0     C29194   0.047   4.468   4.789 -0.2813 -0.5261  0.5074
  217MOL0     O29195   0.014   4.546   4.899 -0.0076  0.5491 -0.4510
  217MOL0     C29196  -0.088   4.506   4.987 -0.5561 -0.3006  0.5311
  217MOL0     C29197  -0.222   4.574   4.957 -0.1192  0.1925  0.1654
  217MOL0     C29198  -0.310   4.561   5.079 -0.2996  0.2903 -0.1536
  217MOL0     C29199  -0.447   4.625   5.075  0.1808 -0.0701  0.3374
  217MOL0     C29200  -0.528   4.565   5.186 -0.4133 -0.9579  0.6162
  217MOL0     C29201  -0.469   4.600   5.323  0.3900  0.1520  0.1659
  217MOL0     C29202  -0.578   4.597   5.433  0.0445  0.5780  0.4488
  217MOL0     C29203  -0.658   4.722   5.461 -0.1478  0.5284  0.5342
  217MOL0    Cl29204  -0.551   4.850   5.509  0.0265 -0.2457  0.0290
  217MOL0     C29205   0.105   4.549   4.686 -0.0233  0.6595 -0.2229
  217MOL0     C29206   0.162   4.485   4.579 -0.9942 -0.5947 -0.5591
  217MOL0     O29207   0.425   4.250   4.559  0.1955  0.2434  0.6064
  217MOL0     C29208   0.325   4.132   4.235 -0.1932 -0.5267  0.2081
  217MOL0     C29209   0.374   4.089   4.106 -0.7957 -0.7639  0.0496
  217MOL0     N29210   1.021   3.854   4.192 -0.4247 -0.3306  0.0440
  217MOL0     N29211   1.062   3.944   4.276 -0.3197 -0.2780 -0.1340
  217MOL0     C29212   1.634   5.197   4.371 -0.3114 -0.1974 -0.2282
  217MOL0     C29213   1.728   5.303   4.341  0.2881  0.4185  1.4933
  217MOL0     C29214   2.019   5.547   4.094  0.0698  0.7288 -0.6183
  217MOL0     C29215   1.945   5.637   4.009 -0.7399  0.1106 -1.0494
  217MOL0     C29216   2.008   5.750   3.958 -0.5748  0.8611  0.7822
  217MOL0     C29217   2.135   5.780   3.990 -0.0184 -0.4866 -0.6168
  217MOL0     O29218   2.210   5.888   3.942  0.2845  0.4157 -0.1231
  217MOL0     C29219   2.130   6.001   3.886  0.4724  0.1522 -0.7865
  217MOL0     C29220   2.227   6.117   3.878  0.2192 -0.0603  0.0449
  217MOL0     C29221   2.285   6.157   4.013 -0.6449 -0.6722  0.3007
  217MOL0     C29222   2.363   6.290   4.005  0.5654  0.5502  0.0857
  217MOL0     C29223   2.472   6.278   3.904  0.1314  0.0591  0.1535
  217MOL0     C29224   2.561   6.256   3.824 -0.0629  0.1650 -0.5606
  217MOL0     C29225   2.216   5.699   4.069  0.4572  0.2738  0.1331
  217MOL0     C29226   2.157   5.579   4.115 -1.3296 -0.2630  0.9545
  217MOL0     C29227   2.257   5.480   4.169 -0.4876 -0.0399  0.3281
  217MOL0     H29228   1.653   5.287   4.005  0.6527 -2.4895 -1.3778
  217MOL0     H29229   1.490   5.126   4.084  1.7639  1.8061 -2.8250
  217MOL0     H29230   1.364   4.955   4.169  1.3957  0.3454  1.8110
  217MOL0     H29231   1.534   4.884   4.179  1.1979  0.4465 -0.5460
  217MOL0     H29232   1.289   4.821   4.349  0.6315  1.5599  1.7379
  217MOL0     H29233   1.449   4.789   4.414  2.0413 -0.8181 -0.8097
  217MOL0     H29234   1.511   4.630   4.237 -0.6596 -4.1277  0.0300
  217MOL0     H29235   1.361   4.648   4.147 -2.4222 -4.8632  0.8506
  217MOL0     H29236   1.405   4.555   4.438  0.7223  1.0989  0.3639
  217MOL0     H29237   1.243   4.585   4.379 -0.1453 -3.3630  1.9753
  217MOL0     H29238   1.263   4.423   4.207  1.4423 -2.0715 -0.0693
  217MOL0     H29239   1.428   4.390   4.243  1.1688  2.1896  0.2799
  217MOL0     H29240   1.386   4.269   4.446  0.2236 -2.8315 -0.5903
  217MOL0     H29241   1.227   4.355   4.470 -0.7067 -0.2092 -2.3115
  217MOL0     H29242   1.233   4.100   4.404  0.3915  0.3248  0.0603
  217MOL0     H29243   1.297   4.156   4.241  1.3711 -2.8213  1.9679
  217MOL0     H29244   1.030   4.201   4.354  0.4753 -0.9305 -0.2240
  217MOL0     H29245   1.102   4.271   4.206  2.3210 -0.2864 -0.7626
  217MOL0     H29246   1.022   4.113   3.993  0.8804  1.1657  0.3424
  217MOL0     H29247   1.075   3.816   3.879 -0.0097 -1.7735  0.7915
  217MOL0     H29248   0.968   3.722   3.970 -0.6128 -0.6891  0.1873
  217MOL0     H29249   0.899   3.974   3.810 -1.6040 -0.2746 -1.2130
  217MOL0     H29250   0.848   3.812   3.782  2.4143 -0.2695 -0.3641
  217MOL0     H29251   0.745   3.877   4.048 -5.3182 -3.0876 -1.0858
  217MOL0     H29252   0.669   3.827   3.911 -0.1989 -0.6285  2.0808
  217MOL0     H29253   0.696   4.049   3.812 -1.5072 -0.2265 -0.3964
  217MOL0     H29254   0.755   4.109   3.969 -2.0300  0.3046 -0.1737
  217MOL0     H29255   0.703   4.100   4.170 -1.6357 -2.6232  0.1078
  217MOL0     H29256   0.610   4.198   4.383 -0.9383  1.4775  0.5957
  217MOL0     H29257   0.084   4.166   4.650  1.6884  0.6533 -1.1634
  217MOL0     H29258   0.010   4.253   4.847  4.2425  0.4170  1.9586
  217MOL0     H29259  -0.089   4.399   5.009  0.7239  0.0670  2.6560
  217MOL0     H29260  -0.053   4.546   5.083  0.3388 -1.2984  0.6366
  217MOL0     H29261  -0.191   4.673   4.924 -2.3673  0.6796 -0.6591
  217MOL0     H29262  -0.259   4.525   4.866  1.4729  0.2446 -0.5497
  217MOL0     H29263  -0.311   4.458   5.117 -2.1067  1.2053  2.5693
  217MOL0     H29264  -0.264   4.611   5.165 -0.8003  0.8523 -0.2092
  217MOL0     H29265  -0.499   4.601   4.982  1.8691 -0.9034 -0.4350
  217MOL0     H29266  -0.419   4.729   5.095  2.1065 -0.3774 -0.5354
  217MOL0     H29267  -0.540   4.456   5.179 -1.8570 -0.7468 -0.5882
  217MOL0     H29268  -0.630   4.602   5.178 -0.4471 -1.3587 -1.3540
  217MOL0     H29269  -0.386   4.530   5.338  0.6568 -0.7805 -4.3111
  217MOL0     H29270  -0.422   4.699   5.317 -1.4892  0.9933 -3.4298
  217MOL0     H29271  -0.524   4.565   5.523 -1.0396 -0.2163  0.8429
  217MOL0     H29272  -0.653   4.521   5.409 -1.8886  2.8865 -1.3464
  217MOL0     H29273  -0.717   4.757   5.376  0.3135  1.9807  0.7832
  217MOL0     H29274  -0.732   4.696   5.536  1.2501 -1.6729  1.2444
  217MOL0     H29275   0.112   4.656   4.698  0.9648  0.6097 -0.2488
  217MOL0     H29276   0.226   4.542   4.513 -2.0858  2.0179  0.4922
  217MOL0     H29277   0.218   4.129   4.253 -0.0666 -2.7059  0.8900
  217MOL0     H29278   0.300   4.060   4.031 -2.7727  0.5031  1.4245
  217MOL0     H29279   1.623   5.164   4.474 -0.9105  0.8990  0.0719
  217MOL0     H29280   1.792   5.356   4.411  1.5228  3.3260 -1.5282
  217MOL0     H29281   1.841   5.619   3.982 -0.6621 -1.2101 -0.5624
  217MOL0     H29282   1.939   5.810   3.901 -0.2101  0.2091 -0.3756
  217MOL0     H29283   2.040   6.032   3.939  0.6518  0.3445 -0.5968
  217MOL0     H29284   2.079   5.977   3.791 -0.9986 -1.0435  0.2517
  217MOL0     H29285   2.171   6.200   3.834 -1.3433 -1.4707 -0.6919
  217MOL0     H29286   2.309   6.098   3.808  1.7211  1.0036  1.4120
  217MOL0     H29287   2.364   6.093   4.053  1.7361  0.7517 -1.9018
  217MOL0     H29288   2.199   6.174   4.079 -1.4955 -2.1891 -0.3597
  217MOL0     H29289   2.299   6.375   3.982  2.9947  2.3917 -0.3363
  217MOL0     H29290   2.397   6.319   4.105 -1.2305 -0.5110  1.0524
  217MOL0     H29291   2.638   6.259   3.749  1.8667 -2.3320  1.1501
  217MOL0     H29292   2.319   5.725   4.090  1.3292 -0.7141 -2.5265
  217MOL0     H29293   2.257   5.382   4.121 -0.4888  0.6987 -1.2579
  217MOL0     H29294   2.352   5.529   4.147 -1.2866  2.4632  1.9605
  217MOL0     H29295   2.245   5.476   4.278  0.8954 -0.2433  0.4990
  218MOL0     O29296   0.976  10.312   2.898 -0.1488  0.1831 -0.5581
  218MOL0     C29297   0.864  10.334   2.941 -0.0556 -0.2106 -0.5386
  218MOL0     O29298   0.751  10.336   2.868  0.1454  0.0325 -0.0096
  218MOL0     C29299   0.759  10.318   2.731 -1.3073 -0.2997 -0.0193
  218MOL0     C29300   0.751  10.195   2.669 -0.6202  0.4325  0.0065
  218MOL0     C29301   0.785  10.173   2.534 -0.0905  0.1028 -0.7601
  218MOL0     C29302   0.815  10.283   2.452  0.9689  0.6255  1.4367
  218MOL0     O29303   0.822  10.255   2.318 -0.1661 -0.4465  0.4838
  218MOL0     C29304   0.839  10.363   2.228 -0.1287  0.1804 -0.0183
  218MOL0     C29305   0.797  10.342   2.082 -0.1742 -0.1991 -0.2176
  218MOL0     C29306   0.652  10.307   2.084  0.3949 -0.4199  0.4031
  218MOL0     C29307   0.596  10.262   1.944 -0.6167 -0.5316 -0.1853
  218MOL0     C29308   0.443  10.271   1.935  0.0306 -0.0014 -0.7776
  218MOL0     C29309   0.379  10.166   2.025  0.3789  0.3661 -0.5623
  218MOL0     C29310   0.224  10.184   2.038 -0.1704 -0.5411  0.3535
  218MOL0     C29311   0.142  10.082   2.117 -0.0882 -0.7963  0.2433
  218MOL0     N29312   0.154  10.119   2.250  0.1616 -0.0302  0.0387
  218MOL0     C29313   0.061  10.177   2.314 -0.7100 -0.3832 -0.7984
  218MOL0     C29314   0.081  10.149   2.446  0.8342  0.2792  0.3682
  218MOL0     C29315  -0.007  10.205   2.554 -0.2693  0.1281  0.1809
  218MOL0     C29316  -0.059  10.106   2.653  0.5715 -0.6392  0.0514
  218MOL0     C29317  -0.185  10.171   2.715  0.5627  0.5315  0.4365
  218MOL0     C29318  -0.179  10.183   2.872 -0.8425 -0.3086  0.6963
  218MOL0     O29319  -0.316  10.202   2.902 -0.4588  0.1497 -0.5694
  218MOL0     C29320  -0.360  10.207   3.033  0.0687 -0.5392 -0.7498
  218MOL0     C29321  -0.277  10.189   3.151  1.0100  0.5754  0.7836
  218MOL0     C29322  -0.337  10.203   3.277  0.5576  0.3748 -0.4090
  218MOL0     C29323  -0.469  10.244   3.282 -1.0255  0.7588  1.0107
  218MOL0     C29324  -0.529  10.266   3.414  0.8490 -1.8275 -0.3093
  218MOL0     O29325  -0.636  10.351   3.413 -0.4348 -0.1814  0.2640
  218MOL0     C29326  -0.727  10.343   3.518 -0.7684 -0.2874  1.2020
  218MOL0     C29327  -0.854  10.299   3.504 -0.1745  0.9290  0.4323
  218MOL0     C29328  -0.944  10.297   3.611 -0.0606  0.7681 -0.0936
  218MOL0     C29329  -0.907  10.346   3.742 -0.6491 -0.0123  0.1767
  218MOL0     O29330  -0.999  10.352   3.847  0.4772  0.6054  0.0999
  218MOL0     C29331  -0.957  10.323   3.987 -0.1641 -0.0018  0.5566
  218MOL0     C29332  -1.076  10.312   4.088 -0.5453 -0.3582  0.2066
  218MOL0     C29333  -1.177  10.197   4.048 -0.7941  0.1859  0.7629
  218MOL0     C29334  -1.105  10.067   4.077 -0.1254  0.5955  0.1588
  218MOL0     C29335  -1.191   9.936   4.057 -0.9421 -0.7668 -0.0118
  218MOL0     C29336  -1.256   9.919   3.922  0.5382  0.0254 -0.5141
  218MOL0     C29337  -1.317   9.779   3.911 -0.4138 -0.5944 -0.4926
  218MOL0     C29338  -1.416   9.779   3.799 -0.3831  0.9256  0.8684
  218MOL0    Cl29339  -1.345   9.812   3.639  0.2132 -0.3115  0.1028
  218MOL0     C29340  -0.775  10.386   3.749 -0.7518  0.0806 -0.5585
  218MOL0     C29341  -0.679  10.367   3.645  0.2969  0.4175  0.0745
  218MOL0     O29342  -0.506  10.186   3.500  0.0111 -0.2210 -0.5938
  218MOL0     C29343  -0.542  10.265   3.168  0.2653  0.3641 -0.4579
  218MOL0     C29344  -0.494  10.245   3.039  0.6385  0.0222  0.0647
  218MOL0     N29345   0.205  10.087   2.462 -0.3811  0.6827 -0.4963
  218MOL0     N29346   0.238  10.065   2.345 -0.7809  0.2369  0.9411
  218MOL0     C29347   0.821  10.406   2.521 -0.0530  1.1807  0.9100
  218MOL0     C29348   0.795  10.426   2.658 -0.5102  0.3119  0.6347
  218MOL0     C29349   0.863  10.349   3.091 -0.4432  0.2736  0.3426
  218MOL0     C29350   0.979  10.381   3.161 -0.0296  0.2895 -0.0442
  218MOL0     C29351   0.997  10.388   3.297  0.5153  0.5890  1.2670
  218MOL0     C29352   0.885  10.350   3.383 -0.2316  0.2508 -0.1598
  218MOL0     O29353   0.888  10.343   3.514 -0.3926  0.4686  0.3518
  218MOL0     C29354   1.015  10.335   3.581  0.2250 -0.4195 -0.2195
  218MOL0     C29355   1.013  10.422   3.709  0.7840 -0.2750 -0.5553
  218MOL0     C29356   1.011  10.572   3.681  0.5541  0.6098  0.6376
  218MOL0     C29357   1.089  10.644   3.784 -0.4951  0.0312  0.3050
  218MOL0     C29358   1.072  10.794   3.759  0.3636  0.3380 -0.9533
  218MOL0     C29359   1.068  10.908   3.733  0.2286  0.0816  0.0568
  218MOL0     C29360   0.766  10.301   3.312 -1.0839  0.6118  0.6671
  218MOL0     C29361   0.749  10.311   3.171 -1.0195  1.3219 -0.2972
  218MOL0     C29362   0.624  10.258   3.114 -0.9110 -0.7571 -0.0568
  218MOL0     H29363   0.721  10.107   2.725  3.0878 -1.3925 -0.5812
  218MOL0     H29364   0.764  10.070   2.506 -1.4654  0.0416  0.3605
  218MOL0     H29365   0.787  10.449   2.270 -4.1217 -1.6018 -0.8531
  218MOL0     H29366   0.946  10.385   2.226 -0.2170  2.0748  4.5123
  218MOL0     H29367   0.842  10.250   2.044 -0.4534 -0.4067 -0.0571
  218MOL0     H29368   0.837  10.426   2.026 -1.0367  0.3834  0.0265
  218MOL0     H29369   0.595  10.396   2.112 -0.1132 -0.4541 -0.4968
  218MOL0     H29370   0.638  10.233   2.163 -0.0175  0.9079  1.6217
  218MOL0     H29371   0.640  10.337   1.878  0.3611 -0.4488  0.5378
  218MOL0     H29372   0.632  10.161   1.921  0.0777 -0.0535 -1.3213
  218MOL0     H29373   0.406  10.369   1.969 -1.3142 -0.9594  0.6427
  218MOL0     H29374   0.414  10.252   1.831  0.2829  1.2653 -1.0986
  218MOL0     H29375   0.404  10.067   1.986 -2.8409 -0.0690 -1.8563
  218MOL0     H29376   0.417  10.184   2.126  4.0063  0.7560 -1.8625
  218MOL0     H29377   0.181  10.189   1.937 -0.4383  1.5335  0.5270
  218MOL0     H29378   0.220  10.286   2.079  0.6875  0.5599 -2.0491
  218MOL0     H29379   0.038  10.086   2.084  0.9190 -0.8249 -3.3754
  218MOL0     H29380   0.189   9.984   2.102  2.1513  0.3978 -1.0447
  218MOL0     H29381  -0.026  10.229   2.274  1.3651  1.9068 -2.6093
  218MOL0     H29382   0.052  10.279   2.610 -1.2314  0.2190  1.1152
  218MOL0     H29383  -0.080  10.264   2.497  2.4290  1.0057 -2.6511
  218MOL0     H29384  -0.082  10.019   2.592 -0.6167  1.0161 -2.0039
  218MOL0     H29385   0.016  10.082   2.729 -2.5782  0.6342  3.9192
  218MOL0     H29386  -0.272  10.109   2.690  1.7584 -0.6107 -1.1185
  218MOL0     H29387  -0.212  10.268   2.671 -0.7467 -0.6905 -1.6259
  218MOL0     H29388  -0.106  10.263   2.888 -0.8369  0.8926 -3.9089
  218MOL0     H29389  -0.128  10.092   2.905  0.3974 -0.8854 -2.4893
  218MOL0     H29390  -0.170  10.172   3.141  0.5211 -1.5856 -2.0408
  218MOL0     H29391  -0.273  10.200   3.365  0.5985  1.7067 -0.3867
  218MOL0     H29392  -0.890  10.283   3.403  1.9670  2.6456 -0.7007
  218MOL0     H29393  -1.047  10.266   3.598  0.0004 -0.0499  1.1757
  218MOL0     H29394  -0.896  10.233   3.993 -1.6676 -1.0529  0.7629
  218MOL0     H29395  -0.887  10.400   4.020 -2.2544  3.4849 -2.4090
  218MOL0     H29396  -1.033  10.290   4.186  1.1803  0.0543 -0.4269
  218MOL0     H29397  -1.132  10.406   4.093 -1.8526 -1.1708  2.9612
  218MOL0     H29398  -1.276  10.209   4.093 -0.6858 -1.4241  1.4653
  218MOL0     H29399  -1.199  10.200   3.940  1.0770 -0.4273  0.3336
  218MOL0     H29400  -1.067  10.071   4.180 -0.2268 -1.7385  0.3404
  218MOL0     H29401  -1.024  10.058   4.004 -1.2548  0.8975 -1.1639
  218MOL0     H29402  -1.250   9.912   4.146  0.9375 -0.8576  1.2776
  218MOL0     H29403  -1.112   9.861   4.061  1.0575  1.2611  1.1140
  218MOL0     H29404  -1.326  10.002   3.908  2.2385  1.9711  1.8620
  218MOL0     H29405  -1.183   9.921   3.840 -0.3223 -2.7150 -1.4480
  218MOL0     H29406  -1.364   9.749   4.005 -0.5158  0.6815 -0.1081
  218MOL0     H29407  -1.231   9.717   3.882  2.4484  2.8087 -0.0300
  218MOL0     H29408  -1.453   9.677   3.788 -0.5139  1.2439 -3.3660
  218MOL0     H29409  -1.503   9.841   3.819 -0.0334  0.4731  4.2925
  218MOL0     H29410  -0.746  10.430   3.845 -0.9815  3.0086 -1.7152
  218MOL0     H29411  -0.577  10.402   3.651  0.2487  1.0903 -2.0752
  218MOL0     H29412  -0.645  10.301   3.175  1.1311  2.9152  0.4474
  218MOL0     H29413  -0.564  10.255   2.957  0.2208  2.4360  0.6125
  218MOL0     H29414   0.871  10.484   2.466  1.6868 -0.3396  0.2381
  218MOL0     H29415   0.823  10.521   2.703 -0.5065  0.5303  0.1757
  218MOL0     H29416   1.064  10.418   3.106  1.0752  0.0168  1.4205
  218MOL0     H29417   1.092  10.434   3.326  0.1904  0.9097  1.8533
  218MOL0     H29418   1.106  10.363   3.526  1.8567 -0.0579  2.4291
  218MOL0     H29419   1.026  10.232   3.615 -2.3116 -0.7171 -0.1824
  218MOL0     H29420   1.090  10.383   3.776  0.5430 -1.2177 -0.8049
  218MOL0     H29421   0.917  10.397   3.754  1.0770 -0.4038 -0.0021
  218MOL0     H29422   0.908  10.606   3.666  0.8605  0.4401 -2.7469
  218MOL0     H29423   1.060  10.588   3.584  1.4257 -0.5418  0.8656
  218MOL0     H29424   1.052  10.620   3.884  1.2356  0.8849  1.2155
  218MOL0     H29425   1.197  10.628   3.787 -0.3468  1.0132  1.0602
  218MOL0     H29426   1.086  11.012   3.717 -2.3284  0.7279  0.9318
  218MOL0     H29427   0.683  10.268   3.373 -3.0798  1.5080 -1.4201
  218MOL0     H29428   0.635  10.193   3.027 -0.9455  0.6060 -1.1066
  218MOL0     H29429   0.563  10.201   3.186 -1.9438 -0.1960 -0.4734
  218MOL0     H29430   0.569  10.344   3.076  3.5857  2.7354  0.5044
  219MOL0     O29431   1.981   1.601   3.939  0.4019  0.4891 -0.5935
  219MOL0     C29432   2.069   1.654   4.006  0.5762 -0.5075  0.3895
  219MOL0     O29433   2.049   1.766   4.077 -0.5016  0.3544 -0.6070
  219MOL0     C29434   1.925   1.823   4.115 -0.0251  0.0795  0.1951
  219MOL0     C29435   1.817   1.730   4.154  0.6898 -0.9824  0.1978
  219MOL0     C29436   1.701   1.804   4.187  0.9019  0.0290  0.2751
  219MOL0     C29437   1.690   1.948   4.195  0.1305 -0.3846 -1.0112
  219MOL0     O29438   1.580   2.015   4.234  0.2866 -0.0128  0.5900
  219MOL0     C29439   1.491   2.047   4.121  0.3073  0.1468 -0.2815
  219MOL0     C29440   1.374   2.118   4.190  0.1962 -0.1241  0.2232
  219MOL0     C29441   1.275   2.020   4.244  1.3417  0.2986  0.2947
  219MOL0     C29442   1.172   2.101   4.319  0.2848  0.2988  0.0549
  219MOL0     C29443   1.053   2.013   4.362  0.9319 -0.8201  0.4125
  219MOL0     C29444   0.973   1.967   4.240  0.7334  0.1998 -0.1734
  219MOL0     C29445   0.834   1.922   4.274 -0.2731 -0.3780 -0.3767
  219MOL0     C29446   0.771   1.816   4.186  0.2095  0.3142  1.3580
  219MOL0     N29447   0.831   1.681   4.204 -0.7486 -0.1529 -1.0236
  219MOL0     C29448   0.876   1.628   4.329 -0.2145  0.2605  1.3504
  219MOL0     C29449   0.877   1.495   4.316  0.4111  0.3253 -0.0204
  219MOL0     C29450   0.916   1.402   4.433  0.1561 -0.2587 -0.0510
  219MOL0     C29451   0.794   1.314   4.473  0.1330  0.2468 -0.0652
  219MOL0     C29452   0.692   1.405   4.536  0.6924 -0.6114  0.6886
  219MOL0     C29453   0.706   1.433   4.686 -0.1194  0.0012 -0.3289
  219MOL0     O29454   0.709   1.310   4.768  0.6195  0.2475  0.5695
  219MOL0     C29455   0.753   1.317   4.898  0.5084  0.2555 -0.8416
  219MOL0     C29456   0.709   1.211   4.982  1.5480 -0.3590  0.3963
  219MOL0     C29457   0.728   1.221   5.118 -0.0372  0.5130 -0.3043
  219MOL0     C29458   0.808   1.322   5.182  0.9013  0.2175 -0.1850
  219MOL0     C29459   0.826   1.333   5.328  0.0517 -0.8704 -0.4443
  219MOL0     O29460   0.792   1.220   5.395  0.2577 -0.0952  1.0604
  219MOL0     C29461   0.792   1.208   5.529  0.2270  0.1677  0.5821
  219MOL0     C29462   0.689   1.229   5.624  0.1699  0.1970  1.2112
  219MOL0     C29463   0.714   1.230   5.759  0.0165 -0.1775  1.1640
  219MOL0     C29464   0.833   1.185   5.804 -0.2119 -0.1690  0.6891
  219MOL0     O29465   0.867   1.167   5.937  0.5794  0.9563 -0.4577
  219MOL0     C29466   0.782   1.197   6.045  0.2011  0.3839 -0.0009
  219MOL0     C29467   0.853   1.317   6.123 -0.4357 -0.2986 -0.1511
  219MOL0     C29468   1.005   1.292   6.141  0.1076 -0.2092 -1.2874
  219MOL0     C29469   1.054   1.364   6.272 -0.2282 -0.1547 -0.3811
  219MOL0     C29470   1.032   1.517   6.280 -0.3447 -0.1957  0.0876
  219MOL0     C29471   1.140   1.581   6.182 -0.7913  0.2387  0.3244
  219MOL0     C29472   1.167   1.730   6.191  0.3627  1.0614 -0.5391
  219MOL0     C29473   1.198   1.801   6.057  0.3470 -0.0258 -0.1265
  219MOL0    Cl29474   1.366   1.764   6.010  0.4694  0.1987  0.1044
  219MOL0     C29475   0.934   1.155   5.713  0.8040  0.6698 -0.0392
  219MOL0     C29476   0.908   1.170   5.579 -0.2953 -0.1098  0.9778
  219MOL0     O29477   0.856   1.443   5.383  0.4667 -0.1943 -0.3937
  219MOL0     C29478   0.860   1.414   5.089  0.0602  1.1854 -0.3109
  219MOL0     C29479   0.833   1.412   4.952  0.3360 -0.7587 -0.1333
  219MOL0     N29480   0.827   1.471   4.190  0.6029  0.7023 -0.4246
  219MOL0     N29481   0.771   1.579   4.141 -0.2457  0.4390  0.4380
  219MOL0     C29482   1.803   2.025   4.176 -0.4116  0.3792 -0.1794
  219MOL0     C29483   1.918   1.965   4.136  0.1456  0.2386  0.0706
  219MOL0     C29484   2.210   1.599   4.013  0.5482 -1.1582 -0.3186
  219MOL0     C29485   2.284   1.631   4.121 -0.9356 -0.9706 -0.0337
  219MOL0     C29486   2.417   1.586   4.141  0.9559  0.4991  1.0045
  219MOL0     C29487   2.477   1.490   4.056 -0.6666  0.1882 -1.0346
  219MOL0     O29488   2.611   1.447   4.068  0.0723  0.2961 -0.8499
  219MOL0     C29489   2.701   1.506   4.170  0.4813 -0.4524  0.0493
  219MOL0     C29490   2.727   1.661   4.154 -0.0308  0.0178  0.6833
  219MOL0     C29491   2.836   1.692   4.054 -0.2514 -0.3711  1.0222
  219MOL0     C29492   2.985   1.659   4.092 -0.2874 -0.1675 -0.5362
  219MOL0     C29493   3.025   1.702   4.226  1.2590  1.1190 -0.2178
  219MOL0     C29494   3.041   1.745   4.334 -0.0195  0.2498 -0.6115
  219MOL0     C29495   2.396   1.446   3.955  0.1250  0.7521 -0.4407
  219MOL0     C29496   2.267   1.500   3.925 -0.1633 -0.1283 -0.4437
  219MOL0     C29497   2.191   1.433   3.816 -0.4935 -0.4624  0.3474
  219MOL0     H29498   1.822   1.622   4.152 -1.1381 -1.1816  2.1716
  219MOL0     H29499   1.614   1.742   4.203  2.7200 -2.6956  0.2490
  219MOL0     H29500   1.537   2.121   4.054 -1.5110  2.8585  1.2918
  219MOL0     H29501   1.455   1.955   4.072 -2.2189  1.2746 -0.6956
  219MOL0     H29502   1.329   2.193   4.124  2.1495  1.0695  0.1828
  219MOL0     H29503   1.407   2.182   4.272 -2.7836  3.0137 -0.7487
  219MOL0     H29504   1.318   1.945   4.311 -0.5957 -1.0898  0.0550
  219MOL0     H29505   1.228   1.965   4.162  1.1316  2.8936 -1.4552
  219MOL0     H29506   1.224   2.132   4.411  1.4758 -0.9617 -0.1594
  219MOL0     H29507   1.145   2.191   4.262  1.2602  1.5132  1.4218
  219MOL0     H29508   1.088   1.927   4.419  1.0094 -1.6118 -0.7791
  219MOL0     H29509   0.977   2.058   4.426  0.6329 -1.4181  0.4851
  219MOL0     H29510   0.983   2.051   4.170  2.8013  0.0403 -0.1431
  219MOL0     H29511   1.021   1.881   4.193 -1.9145 -2.0267  0.9097
  219MOL0     H29512   0.773   2.013   4.274 -0.4777 -0.4619  1.6831
  219MOL0     H29513   0.828   1.899   4.381  1.0233  0.1585 -0.1626
  219MOL0     H29514   0.662   1.814   4.203  0.6172  1.1428  4.7021
  219MOL0     H29515   0.782   1.846   4.082 -0.9893 -0.5815  0.9412
  219MOL0     H29516   0.907   1.691   4.413 -2.3475  2.7500  0.3882
  219MOL0     H29517   0.998   1.343   4.392 -0.9190 -0.5125 -1.9679
  219MOL0     H29518   0.955   1.459   4.518  1.1335  2.8215 -2.3933
  219MOL0     H29519   0.770   1.255   4.384 -1.1774  0.3851  0.1779
  219MOL0     H29520   0.827   1.249   4.555  1.0473  2.1971  1.2033
  219MOL0     H29521   0.601   1.348   4.515  0.7281 -1.5917  2.8962
  219MOL0     H29522   0.695   1.499   4.480  5.5018  1.4464  3.7430
  219MOL0     H29523   0.635   1.508   4.722  2.6344  1.1848  3.2547
  219MOL0     H29524   0.801   1.488   4.689 -1.3659  2.2769  0.1407
  219MOL0     H29525   0.658   1.129   4.933 -0.1870  0.4145  0.8026
  219MOL0     H29526   0.693   1.140   5.181 -0.6845  1.1783  0.2189
  219MOL0     H29527   0.595   1.273   5.590  1.5474  2.3409 -0.0491
  219MOL0     H29528   0.633   1.269   5.821 -0.3166  3.1429 -1.1000
  219MOL0     H29529   0.682   1.228   6.015 -0.0746 -0.0062  0.5160
  219MOL0     H29530   0.774   1.103   6.101  0.0224 -0.5720 -1.5663
  219MOL0     H29531   0.838   1.404   6.058  0.2937  0.8434  1.1583
  219MOL0     H29532   0.805   1.316   6.221 -1.8266 -2.0982 -0.7984
  219MOL0     H29533   1.024   1.185   6.154 -1.0616 -0.4474 -1.4168
  219MOL0     H29534   1.055   1.319   6.048 -1.6506  0.2798 -2.1364
  219MOL0     H29535   1.161   1.342   6.274 -0.4696 -1.7345 -2.0720
  219MOL0     H29536   1.012   1.324   6.364  2.7361  0.0788  1.1895
  219MOL0     H29537   1.032   1.549   6.384 -0.8120  2.7599 -0.7357
  219MOL0     H29538   0.933   1.539   6.239  0.3203 -1.4014 -2.3691
  219MOL0     H29539   1.233   1.523   6.181  0.6439  2.4157  0.1479
  219MOL0     H29540   1.113   1.557   6.078  0.8867 -0.5062  0.0166
  219MOL0     H29541   1.256   1.756   6.250  1.0461  2.5123 -2.1408
  219MOL0     H29542   1.080   1.777   6.236 -2.4828 -0.1290 -4.2859
  219MOL0     H29543   1.127   1.770   5.979  1.4689  0.7229 -1.4941
  219MOL0     H29544   1.168   1.905   6.069 -2.5982 -0.6927 -0.9520
  219MOL0     H29545   1.032   1.122   5.748  0.6200  1.1736  0.9827
  219MOL0     H29546   0.978   1.134   5.503 -1.0558 -1.6473  0.9672
  219MOL0     H29547   0.922   1.489   5.138  0.1101  0.8679  0.1156
  219MOL0     H29548   0.851   1.501   4.892  2.8273 -0.3700  1.0873
  219MOL0     H29549   1.803   2.134   4.178  0.0816  0.3745  0.2871
  219MOL0     H29550   2.014   2.013   4.127  0.2403  0.1263  0.4704
  219MOL0     H29551   2.235   1.702   4.187 -0.9982 -0.5041 -0.5700
  219MOL0     H29552   2.471   1.615   4.230  1.1782  0.4811  0.8788
  219MOL0     H29553   2.797   1.456   4.184  1.1698  1.0337  0.8132
  219MOL0     H29554   2.666   1.482   4.271  2.1235  0.7915  0.9726
  219MOL0     H29555   2.760   1.707   4.248 -2.8520  0.3554  1.6112
  219MOL0     H29556   2.638   1.720   4.129 -1.6426 -1.8464  1.7269
  219MOL0     H29557   2.836   1.798   4.029  0.2735 -1.0167 -2.1923
  219MOL0     H29558   2.816   1.643   3.958 -0.4021 -1.5241  1.6229
  219MOL0     H29559   3.002   1.554   4.068  0.8721 -0.2425  0.4852
  219MOL0     H29560   3.047   1.705   4.014 -1.2971  2.2343 -0.0353
  219MOL0     H29561   3.062   1.771   4.436 -1.3924  1.7626 -0.6693
  219MOL0     H29562   2.444   1.376   3.888  3.7562  4.8746 -2.6788
  219MOL0     H29563   2.118   1.495   3.763  0.5379 -0.5991 -1.2872
  219MOL0     H29564   2.261   1.389   3.744  0.3011  1.5158 -0.1595
  219MOL0     H29565   2.140   1.344   3.853 -0.6490 -0.8160 -0.6974
  220MOL0     O29566   8.612   2.645   9.323 -0.5823 -0.5062 -0.2663
  220MOL0     C29567   8.609   2.761   9.358  0.3873 -0.3468  0.4168
  220MOL0     O29568   8.566   2.803   9.481  0.2974 -0.9745 -0.1160
  220MOL0     C29569   8.549   2.704   9.572 -0.1554 -1.1254 -0.9326
  220MOL0     C29570   8.435   2.701   9.647 -0.0808  0.0313  0.6176
  220MOL0     C29571   8.422   2.597   9.749  0.1687  0.0083 -0.3213
  220MOL0     C29572   8.515   2.489   9.773  0.4335 -1.0728 -0.3868
  220MOL0     O29573   8.477   2.389   9.859 -0.4880  0.5168 -0.3482
  220MOL0     C29574   8.589   2.306   9.912  0.2419  0.1756  0.1378
  220MOL0     C29575   8.549   2.173   9.986 -0.4604  1.0250  0.5485
  220MOL0     C29576   8.481   2.081   9.892  0.8728  0.6101 -0.0148
  220MOL0     C29577   8.443   1.953   9.962 -0.8760 -0.7557 -0.1904
  220MOL0     C29578   8.388   1.867   9.853  0.4324  0.8345 -0.8474
  220MOL0     C29579   8.348   1.726   9.905  0.1412 -1.3967  0.2710
  220MOL0     C29580   8.285   1.627   9.792 -0.0880  0.2440  0.4424
  220MOL0     C29581   8.269   1.490   9.844  0.9066  0.7153  0.6902
  220MOL0     N29582   8.188   1.494   9.970  0.4324 -0.6543  0.5459
  220MOL0     C29583   8.050   1.529   9.973 -0.4884  0.8399  0.9826
  220MOL0     C29584   8.027   1.542  10.101 -0.5901 -1.3912 -0.4405
  220MOL0     C29585   7.901   1.587  10.167  0.3725 -0.4929  0.9355
  220MOL0     C29586   7.862   1.504  10.284  0.7593 -0.4316 -0.2560
  220MOL0     C29587   7.857   1.353  10.259 -0.0655  0.3020 -0.0804
  220MOL0     C29588   7.972   1.272  10.333  0.8423  0.1394  0.0173
  220MOL0     O29589   7.983   1.323  10.472 -0.6276 -0.3007  0.8653
  220MOL0     C29590   7.879   1.295  10.554  1.2773 -0.0819  0.1981
  220MOL0     C29591   7.799   1.391  10.607  0.0354 -1.1054 -0.7595
  220MOL0     C29592   7.685   1.357  10.687  1.0213  0.5184  0.1353
  220MOL0     C29593   7.653   1.223  10.714 -0.1327  0.1097 -0.5991
  220MOL0     C29594   7.527   1.193  10.792  1.0153 -0.2795 -0.6246
  220MOL0     O29595   7.486   1.277  10.893 -0.2450  0.5762 -0.0599
  220MOL0     C29596   7.394   1.230  10.983  0.0770  0.1211 -0.2498
  220MOL0     C29597   7.426   1.239  11.120  0.9473 -0.8975 -0.3236
  220MOL0     C29598   7.339   1.197  11.221 -1.0607  0.3265  0.0875
  220MOL0     C29599   7.216   1.142  11.190 -0.1338 -0.5411  0.3215
  220MOL0     O29600   7.131   1.103  11.291 -0.2429 -0.1308  0.2464
  220MOL0     C29601   7.011   1.038  11.251  0.2915 -0.3538  0.3704
  220MOL0     C29602   6.926   1.029  11.376 -0.3273 -0.5058 -1.2061
  220MOL0     C29603   6.799   0.938  11.371  0.1473  0.0225  0.8503
  220MOL0     C29604   6.745   0.937  11.509 -0.3208  0.5761 -0.5361
  220MOL0     C29605   6.618   0.859  11.527 -0.7114  0.2366 -0.1220
  220MOL0     C29606   6.609   0.714  11.466  0.5211 -0.1858  0.0503
  220MOL0     C29607   6.719   0.626  11.536 -0.5397  0.4266  0.6755
  220MOL0     C29608   6.753   0.504  11.452  0.5390 -0.9721 -0.3514
  220MOL0    Cl29609   6.829   0.371  11.546 -0.2441 -0.0073  0.4719
  220MOL0     C29610   7.179   1.146  11.056 -0.2952  0.2294 -0.1091
  220MOL0     C29611   7.267   1.182  10.949  0.7385  0.0233 -0.9578
  220MOL0     O29612   7.471   1.086  10.757 -0.0556  0.4542  0.6871
  220MOL0     C29613   7.738   1.129  10.657 -0.0068 -0.2820 -0.9069
  220MOL0     C29614   7.845   1.167  10.582 -0.5869  0.5482  0.5373
  220MOL0     N29615   8.143   1.511  10.179 -0.6481 -0.8783  0.0603
  220MOL0     N29616   8.231   1.479  10.099 -0.2095  0.0887 -0.4348
  220MOL0     C29617   8.634   2.507   9.697  0.4569 -0.3360 -1.0677
  220MOL0     C29618   8.644   2.600   9.599 -0.4183  0.4328 -0.6082
  220MOL0     C29619   8.625   2.859   9.246 -0.6666  0.0884 -0.3835
  220MOL0     C29620   8.612   2.818   9.113 -1.0553  0.4242  0.3911
  220MOL0     C29621   8.613   2.913   9.008 -0.6838  1.2755 -0.3076
  220MOL0     C29622   8.627   3.044   9.023 -0.0926  0.6809  0.9947
  220MOL0     O29623   8.624   3.121   8.899 -0.0326  0.3557 -0.6079
  220MOL0     C29624   8.590   3.261   8.922 -0.0565  0.2477 -0.6337
  220MOL0     C29625   8.637   3.331   8.789 -0.4642 -0.5249  0.2213
  220MOL0     C29626   8.617   3.494   8.794  0.1810  0.4884 -0.5589
  220MOL0     C29627   8.476   3.546   8.832  0.1060  0.3228  0.9936
  220MOL0     C29628   8.448   3.658   8.734 -0.2438 -0.3573  0.0835
  220MOL0     C29629   8.447   3.736   8.643  0.5660 -0.1435 -0.3855
  220MOL0     C29630   8.646   3.090   9.155 -0.8095  0.0675 -0.6120
  220MOL0     C29631   8.641   3.003   9.271  0.8725  0.3065  0.7116
  220MOL0     C29632   8.678   3.058   9.404  0.1390  0.1959  0.5316
  220MOL0     H29633   8.363   2.779   9.626  0.2767  0.1648 -0.1604
  220MOL0     H29634   8.327   2.590   9.802 -0.3264 -1.3736 -1.3335
  220MOL0     H29635   8.653   2.270   9.831 -0.6783  1.6065 -1.2931
  220MOL0     H29636   8.645   2.371   9.981 -2.7281  1.2373  1.7220
  220MOL0     H29637   8.490   2.201  10.074 -1.8046 -0.2446  0.0830
  220MOL0     H29638   8.636   2.115  10.019 -2.6829 -3.9690 -1.4395
  220MOL0     H29639   8.542   2.062   9.803 -0.9971 -0.2999 -1.1828
  220MOL0     H29640   8.392   2.136   9.862 -0.7428 -0.2504  2.8523
  220MOL0     H29641   8.536   1.904   9.992 -0.2581 -0.4690 -1.5524
  220MOL0     H29642   8.371   1.958  10.045  0.4816 -0.4234  1.0100
  220MOL0     H29643   8.309   1.923   9.801  2.4189  2.6159 -2.1037
  220MOL0     H29644   8.465   1.857   9.776  0.6312  1.5548 -0.7456
  220MOL0     H29645   8.445   1.685   9.936  0.6608 -0.2778  0.1815
  220MOL0     H29646   8.280   1.731   9.990  1.8955  1.2181  1.6488
  220MOL0     H29647   8.343   1.625   9.700 -0.9330 -3.3211 -0.1388
  220MOL0     H29648   8.183   1.657   9.767  0.3078  2.5242  1.2820
  220MOL0     H29649   8.215   1.436   9.766  0.3438  1.5502  0.4936
  220MOL0     H29650   8.366   1.445   9.867  1.8692  2.1752 -0.3280
  220MOL0     H29651   7.972   1.536   9.898 -1.4283  0.8364  1.9310
  220MOL0     H29652   7.925   1.690  10.193  1.3634 -1.3553  3.7774
  220MOL0     H29653   7.831   1.590  10.083  1.6980 -2.4792 -0.3300
  220MOL0     H29654   7.947   1.528  10.349  2.6992  0.5542 -2.9587
  220MOL0     H29655   7.767   1.535  10.329  1.6116 -0.2653  1.5294
  220MOL0     H29656   7.872   1.333  10.152 -1.7227  0.3701 -0.3454
  220MOL0     H29657   7.760   1.311  10.285 -0.5902  2.5155  1.8246
  220MOL0     H29658   8.064   1.281  10.275  1.0230 -0.9387  0.1112
  220MOL0     H29659   7.938   1.168  10.335 -2.2801  1.0542  0.0189
  220MOL0     H29660   7.817   1.497  10.591 -2.5442 -0.5917 -0.7943
  220MOL0     H29661   7.621   1.440  10.715  0.8205  0.8871 -1.3494
  220MOL0     H29662   7.526   1.272  11.145  2.1515 -3.2987 -1.5730
  220MOL0     H29663   7.372   1.191  11.325 -1.0753 -2.1052  0.0061
  220MOL0     H29664   6.939   1.086  11.184  1.4961 -2.8718 -2.9976
  220MOL0     H29665   7.022   0.940  11.204 -3.5577  0.0883 -1.8312
  220MOL0     H29666   7.002   0.997  11.448 -0.3728 -1.6802 -1.6498
  220MOL0     H29667   6.897   1.133  11.394  2.1432  0.8072 -3.9064
  220MOL0     H29668   6.715   0.981  11.316  0.2222  3.2151  2.9437
  220MOL0     H29669   6.816   0.833  11.346 -1.5669 -0.6153  2.2335
  220MOL0     H29670   6.727   1.034  11.557  0.4457  0.0887  0.8016
  220MOL0     H29671   6.826   0.898  11.571 -1.5648 -1.0304  0.1445
  220MOL0     H29672   6.531   0.904  11.478 -0.6212  0.8618  0.2776
  220MOL0     H29673   6.597   0.869  11.634 -0.9997 -0.9731 -0.0479
  220MOL0     H29674   6.514   0.665  11.488 -0.6710  1.5167 -0.9881
  220MOL0     H29675   6.625   0.713  11.357 -2.2388  0.5792 -0.4547
  220MOL0     H29676   6.682   0.587  11.631 -1.6994  0.5135  0.2799
  220MOL0     H29677   6.808   0.687  11.553  1.1649 -1.2098 -1.8318
  220MOL0     H29678   6.660   0.463  11.412 -0.5590 -0.1252  1.2063
  220MOL0     H29679   6.816   0.537  11.369  0.0596  2.4769  0.4753
  220MOL0     H29680   7.077   1.114  11.037  0.5194 -1.7941 -1.3626
  220MOL0     H29681   7.225   1.191  10.849  1.3384 -1.6567 -1.3841
  220MOL0     H29682   7.716   1.023  10.668 -2.5110  0.0391 -2.0566
  220MOL0     H29683   7.906   1.084  10.546 -2.6647 -0.1066 -1.7921
  220MOL0     H29684   8.710   2.430   9.706 -0.2568 -0.7920  2.5778
  220MOL0     H29685   8.732   2.584   9.539 -1.0413 -1.2160 -1.1435
  220MOL0     H29686   8.613   2.712   9.089  2.5137 -0.1624  2.4604
  220MOL0     H29687   8.592   2.875   8.909 -3.4441  1.3003  0.1920
  220MOL0     H29688   8.648   3.309   9.002  2.8079 -0.4904 -2.1180
  220MOL0     H29689   8.482   3.259   8.938 -0.0892  1.2119 -0.6584
  220MOL0     H29690   8.583   3.292   8.702  1.6415 -2.1862 -0.4247
  220MOL0     H29691   8.743   3.308   8.774 -0.3663  0.5129 -0.8789
  220MOL0     H29692   8.647   3.547   8.703  0.9036  2.2495  0.6588
  220MOL0     H29693   8.685   3.525   8.873  1.0868 -0.9449 -0.7527
  220MOL0     H29694   8.408   3.462   8.815  0.7611  0.4120 -3.0577
  220MOL0     H29695   8.474   3.586   8.934 -1.2931 -3.1331  2.4835
  220MOL0     H29696   8.443   3.821   8.578  0.7571 -0.7109 -1.1505
  220MOL0     H29697   8.661   3.196   9.173  2.8219 -0.6867  1.8946
  220MOL0     H29698   8.591   3.093   9.461 -0.9220 -0.5768 -0.5510
  220MOL0     H29699   8.720   2.977   9.464 -0.6969 -1.3125 -0.8356
  220MOL0     H29700   8.751   3.138   9.393  0.2449  0.0626  0.2420
  221MOL0     O29701   5.267   5.467   5.468  0.9221 -0.0918 -0.0710
  221MOL0     C29702   5.373   5.469   5.531 -0.7629  0.0243  0.8442
  221MOL0     O29703   5.450   5.355   5.555 -0.4351  0.2386  0.0462
  221MOL0     C29704   5.412   5.242   5.492 -0.4189 -1.3880  0.4245
  221MOL0     C29705   5.384   5.228   5.353  0.5498 -0.1325 -0.1464
  221MOL0     C29706   5.344   5.100   5.308 -0.1955  0.0887 -0.1475
  221MOL0     C29707   5.338   4.989   5.389 -0.1044 -0.4333 -0.2927
  221MOL0     O29708   5.324   4.864   5.339 -0.1464 -0.4506 -1.0126
  221MOL0     C29709   5.185   4.823   5.353 -0.8838 -0.0584  0.4174
  221MOL0     C29710   5.160   4.691   5.263 -0.4511 -0.6464 -0.7444
  221MOL0     C29711   5.011   4.666   5.268  0.2105  0.1195 -0.4727
  221MOL0     C29712   4.993   4.527   5.216 -0.4295 -0.0800  0.8014
  221MOL0     C29713   4.846   4.508   5.185  0.1242  1.1512 -0.6852
  221MOL0     C29714   4.759   4.550   5.296 -0.3823 -0.1638 -0.1466
  221MOL0     C29715   4.617   4.477   5.293 -0.0701  0.1556 -0.5620
  221MOL0     C29716   4.631   4.336   5.357  0.2499  0.0774 -0.3117
  221MOL0     N29717   4.510   4.261   5.319  0.0769  1.0646 -0.1241
  221MOL0     C29718   4.423   4.217   5.418  0.3606 -0.6310 -0.1065
  221MOL0     C29719   4.356   4.114   5.357 -0.4581 -0.6601 -0.2110
  221MOL0     C29720   4.248   4.019   5.409  0.6139 -0.3354  0.1593
  221MOL0     C29721   4.183   4.071   5.535  0.6651  0.6573 -0.7215
  221MOL0     C29722   4.112   4.192   5.495  0.8158  0.2784  0.0908
  221MOL0     C29723   4.100   4.283   5.621  0.0717 -0.1556  0.4335
  221MOL0     O29724   4.229   4.330   5.683  0.5961 -0.5848  0.3009
  221MOL0     C29725   4.215   4.412   5.797 -0.2452 -0.1020  0.7019
  221MOL0     C29726   4.340   4.465   5.840  0.5274  0.6286  0.3868
  221MOL0     C29727   4.340   4.535   5.962  0.2539 -0.2412 -0.6060
  221MOL0     C29728   4.225   4.563   6.040 -0.5257  0.5056 -0.8948
  221MOL0     C29729   4.227   4.650   6.166 -0.0049  0.8646  0.6071
  221MOL0     O29730   4.095   4.691   6.217  0.6553 -0.2804  0.7454
  221MOL0     C29731   4.078   4.762   6.332 -0.1058 -0.2619  0.5008
  221MOL0     C29732   4.142   4.732   6.450  1.3592  0.9802 -0.0900
  221MOL0     C29733   4.117   4.811   6.563  0.3293 -0.6159  0.5638
  221MOL0     C29734   4.050   4.932   6.555  0.2829  0.6662 -0.0611
  221MOL0     O29735   4.042   5.016   6.659 -0.4870  0.7422  0.1172
  221MOL0     C29736   3.940   5.119   6.658  0.0572  0.6268  0.2821
  221MOL0     C29737   3.955   5.214   6.781  1.7942  0.0461 -1.7931
  221MOL0     C29738   3.888   5.155   6.908 -0.8338 -0.8181  0.5371
  221MOL0     C29739   3.924   5.241   7.034 -0.0933 -0.8518 -0.0603
  221MOL0     C29740   3.840   5.184   7.154 -0.0199  0.4579 -0.4874
  221MOL0     C29741   3.873   5.244   7.294  0.9087  0.3666  0.1903
  221MOL0     C29742   3.764   5.222   7.397 -0.4924  0.3485 -0.8229
  221MOL0     C29743   3.789   5.303   7.533  0.4645 -0.1509  0.0568
  221MOL0    Cl29744   3.631   5.287   7.626  0.3583 -0.4443 -0.0118
  221MOL0     C29745   3.997   4.965   6.428  0.0867 -0.7576  0.1557
  221MOL0     C29746   4.000   4.879   6.312 -0.7134  0.1578 -0.0464
  221MOL0     O29747   4.334   4.663   6.226  0.2413  0.2263  0.6245
  221MOL0     C29748   4.105   4.517   5.985 -0.9323  0.2191 -0.4478
  221MOL0     C29749   4.106   4.441   5.871  0.7707 -0.4659  0.1694
  221MOL0     N29750   4.400   4.101   5.224  0.4930  0.5715 -1.2607
  221MOL0     N29751   4.503   4.181   5.209  0.7745  0.5335 -0.3631
  221MOL0     C29752   5.369   5.016   5.522  0.2797 -0.0420  0.3070
  221MOL0     C29753   5.409   5.135   5.574 -0.1154 -0.0195 -0.1493
  221MOL0     C29754   5.425   5.604   5.585  1.1353  0.6510  0.1160
  221MOL0     C29755   5.351   5.718   5.556 -0.9308  0.3438 -0.8489
  221MOL0     C29756   5.393   5.839   5.601 -0.3736 -0.8511 -0.3990
  221MOL0     C29757   5.508   5.852   5.680 -0.3672 -0.1607 -0.6313
  221MOL0     O29758   5.549   5.964   5.736  0.7656  0.1219  0.8199
  221MOL0     C29759   5.583   6.075   5.647  0.6553  0.9159  0.1140
  221MOL0     C29760   5.736   6.096   5.635  0.0145  0.3599 -0.6331
  221MOL0     C29761   5.797   6.133   5.764 -0.3743  0.6515  0.3360
  221MOL0     C29762   5.945   6.094   5.776 -0.2390 -0.0783  0.0808
  221MOL0     C29763   6.040   6.179   5.709  0.6880 -0.0912 -0.2318
  221MOL0     C29764   6.117   6.252   5.646 -1.1766 -0.3335  0.3711
  221MOL0     C29765   5.579   5.736   5.712 -0.8885 -0.8507 -0.3811
  221MOL0     C29766   5.540   5.611   5.672 -0.2291 -0.4592  0.2443
  221MOL0     C29767   5.625   5.493   5.716 -0.1694 -0.2332 -0.1118
  221MOL0     H29768   5.390   5.318   5.294 -0.3523 -2.3181 -3.9022
  221MOL0     H29769   5.329   5.086   5.201 -1.2390  1.1713 -0.1551
  221MOL0     H29770   5.153   4.806   5.456 -1.2114 -0.6277  0.2233
  221MOL0     H29771   5.140   4.910   5.305 -1.2825 -1.2239 -1.4016
  221MOL0     H29772   5.214   4.606   5.308  0.0691 -0.6994 -1.4417
  221MOL0     H29773   5.196   4.702   5.160 -0.0029 -3.2705 -0.9464
  221MOL0     H29774   4.957   4.741   5.209 -0.7137 -0.7080 -0.7074
  221MOL0     H29775   4.978   4.674   5.372  1.7060  1.7082 -0.0956
  221MOL0     H29776   5.046   4.504   5.122 -0.3394 -1.1931  1.1084
  221MOL0     H29777   5.034   4.459   5.291 -0.5800 -0.8985  0.1541
  221MOL0     H29778   4.810   4.553   5.091 -0.8469 -1.2915 -1.5436
  221MOL0     H29779   4.832   4.401   5.172 -0.3450  1.2558 -1.0652
  221MOL0     H29780   4.813   4.534   5.390  1.1150 -2.9622 -1.3647
  221MOL0     H29781   4.728   4.654   5.289 -1.6361 -0.6029 -1.5348
  221MOL0     H29782   4.570   4.462   5.196  0.2737 -4.1991 -0.2500
  221MOL0     H29783   4.547   4.532   5.356 -0.7353  3.3647 -3.7958
  221MOL0     H29784   4.724   4.285   5.329 -0.4077 -0.0622 -2.4607
  221MOL0     H29785   4.638   4.361   5.463  0.2060  3.3466 -0.9731
  221MOL0     H29786   4.417   4.247   5.522  0.9305 -0.3232 -0.1567
  221MOL0     H29787   4.167   4.008   5.336  0.5374  1.6326 -0.1081
  221MOL0     H29788   4.294   3.920   5.411 -2.1345 -1.7733 -1.3356
  221MOL0     H29789   4.108   4.003   5.576  2.0299 -0.4204  0.1167
  221MOL0     H29790   4.255   4.085   5.616  1.0711 -1.3030 -0.6933
  221MOL0     H29791   4.011   4.165   5.463  1.2050  1.1458 -2.0067
  221MOL0     H29792   4.158   4.250   5.415  0.2907  1.4493  0.6030
  221MOL0     H29793   4.034   4.240   5.697 -1.0262  2.7858  1.2747
  221MOL0     H29794   4.047   4.374   5.592 -1.3303 -0.7273  1.1429
  221MOL0     H29795   4.432   4.444   5.786  0.4302 -0.4069  0.5880
  221MOL0     H29796   4.436   4.553   6.008  0.9807  1.1254 -2.5035
  221MOL0     H29797   4.217   4.654   6.457  0.3567 -0.1506 -1.3054
  221MOL0     H29798   4.160   4.798   6.662  1.2183  1.0599  0.4458
  221MOL0     H29799   3.961   5.189   6.576  0.8979 -0.1003 -0.1538
  221MOL0     H29800   3.839   5.091   6.628 -1.4425  5.0218  0.6051
  221MOL0     H29801   4.059   5.234   6.808  0.7085  0.2679  3.3524
  221MOL0     H29802   3.909   5.311   6.763  0.1226 -0.1888  0.6373
  221MOL0     H29803   3.780   5.156   6.889 -0.2792  1.1922 -3.5460
  221MOL0     H29804   3.920   5.052   6.928  3.5718 -0.4156 -2.8637
  221MOL0     H29805   3.893   5.344   7.012  0.3051 -0.8099 -0.4381
  221MOL0     H29806   4.033   5.246   7.037 -0.0877 -0.3541 -0.7314
  221MOL0     H29807   3.850   5.077   7.175  1.0313  0.7157  0.4795
  221MOL0     H29808   3.736   5.205   7.130 -0.7614 -1.2732  0.9426
  221MOL0     H29809   3.961   5.194   7.335  0.3691 -0.3171  0.5477
  221MOL0     H29810   3.895   5.348   7.273  2.1461 -0.0223 -0.5186
  221MOL0     H29811   3.754   5.116   7.421  2.9349 -0.0195 -0.5694
  221MOL0     H29812   3.671   5.247   7.345 -0.2131 -0.9808 -2.0376
  221MOL0     H29813   3.871   5.273   7.599 -0.4665  4.4498  3.9415
  221MOL0     H29814   3.803   5.408   7.505 -0.0555  0.2303  1.1587
  221MOL0     H29815   3.941   5.057   6.414  1.4472  0.1323  0.3848
  221MOL0     H29816   3.946   4.891   6.219  2.2447 -1.8515 -2.1769
  221MOL0     H29817   4.009   4.522   6.034 -1.6685 -1.4967 -1.6124
  221MOL0     H29818   4.007   4.415   5.836  1.4165 -2.4144 -0.3165
  221MOL0     H29819   5.372   4.933   5.593  0.4446 -0.6219 -0.3685
  221MOL0     H29820   5.450   5.142   5.674 -1.1974 -0.8735  0.3684
  221MOL0     H29821   5.262   5.724   5.495 -3.3498 -1.7688  2.1422
  221MOL0     H29822   5.327   5.912   5.556  0.1136 -0.6347 -0.7799
  221MOL0     H29823   5.525   6.156   5.692 -1.9052 -0.3593 -0.6958
  221MOL0     H29824   5.542   6.055   5.548 -0.0122 -3.1327  1.0356
  221MOL0     H29825   5.752   6.178   5.564  1.5262  1.4842  0.9024
  221MOL0     H29826   5.781   6.008   5.588  0.6701  0.6616 -0.5927
  221MOL0     H29827   5.745   6.092   5.852 -0.3531  2.0963  1.0591
  221MOL0     H29828   5.783   6.239   5.786 -0.4191  0.1478  3.2485
  221MOL0     H29829   5.965   6.099   5.883 -1.7955 -1.9616  0.5353
  221MOL0     H29830   5.964   5.991   5.745  2.8558  1.6809 -5.1493
  221MOL0     H29831   6.193   6.319   5.611 -1.8110 -0.3027 -0.9906
  221MOL0     H29832   5.669   5.762   5.768 -2.2291  3.4565  0.1375
  221MOL0     H29833   5.653   5.430   5.632  0.0504  0.8121 -0.8462
  221MOL0     H29834   5.709   5.527   5.777  0.8279 -2.5245 -0.1304
  221MOL0     H29835   5.563   5.432   5.783  0.4417 -4.1943 -2.8733
  222MOL0     O29836   3.501  10.466  11.288 -0.0161 -0.0172  0.1259
  222MOL0     C29837   3.608  10.407  11.278  0.4631 -1.3219 -0.4286
  222MOL0     O29838   3.727  10.468  11.289  1.2804 -0.4859 -0.2223
  222MOL0     C29839   3.748  10.606  11.298  0.2966  0.4131  0.6815
  222MOL0     C29840   3.865  10.641  11.359  0.3375 -0.6311 -0.0260
  222MOL0     C29841   3.898  10.778  11.374  1.0036 -0.0550  0.1270
  222MOL0     C29842   3.812  10.883  11.323 -0.0336 -0.3850 -0.3343
  222MOL0     O29843   3.850  11.014  11.352  0.1366  0.2354  0.3622
  222MOL0     C29844   3.785  11.127  11.290  0.5081 -0.1162 -0.1467
  222MOL0     C29845   3.838  11.262  11.362 -0.3248  0.0743 -0.6780
  222MOL0     C29846   3.947  11.332  11.276 -0.3323 -0.2602 -0.7485
  222MOL0     C29847   4.086  11.259  11.279 -0.6210 -0.3987 -0.0356
  222MOL0     C29848   4.189  11.337  11.191  0.2677 -0.0398 -0.2711
  222MOL0     C29849   4.305  11.243  11.138 -0.6950 -0.0408 -0.0984
  222MOL0     C29850   4.432  11.327  11.091  0.1139 -0.3718 -0.2202
  222MOL0     C29851   4.407  11.432  10.986  0.4648  0.2210 -0.3956
  222MOL0     N29852   4.443  11.566  11.028 -0.8751 -0.9358  0.1068
  222MOL0     C29853   4.572  11.627  11.033 -0.2748 -0.3543 -0.4001
  222MOL0     C29854   4.547  11.749  11.093  0.7636  0.9371  0.4596
  222MOL0     C29855   4.655  11.845  11.140  1.2110  0.2346 -0.5089
  222MOL0     C29856   4.719  11.795  11.265 -0.6640  0.3590 -0.3829
  222MOL0     C29857   4.815  11.681  11.251 -0.3469  0.8306  0.1495
  222MOL0     C29858   4.926  11.703  11.355 -0.0757 -0.2526  0.7536
  222MOL0     O29859   4.995  11.582  11.378  0.0609 -0.3711  1.1037
  222MOL0     C29860   5.120  11.570  11.440 -0.6096  0.9191 -0.4715
  222MOL0     C29861   5.168  11.438  11.459 -0.6760 -0.2907 -0.1024
  222MOL0     C29862   5.299  11.424  11.519  0.1525  0.4479 -0.4184
  222MOL0     C29863   5.379  11.540  11.555  0.8130 -0.1449 -0.2890
  222MOL0     C29864   5.510  11.523  11.611 -0.2341  0.5396  1.1104
  222MOL0     O29865   5.555  11.621  11.690 -0.4841  1.2738  0.2421
  222MOL0     C29866   5.680  11.596  11.748 -0.5113  0.2421 -0.4737
  222MOL0     C29867   5.799  11.659  11.705 -0.4770 -0.1593  0.7340
  222MOL0     C29868   5.919  11.635  11.778  0.0445 -0.7189  0.1030
  222MOL0     C29869   5.926  11.556  11.884  0.1755  0.9171 -0.1197
  222MOL0     O29870   6.050  11.551  11.939 -1.2753  0.0490 -0.3327
  222MOL0     C29871   6.090  11.436  12.014 -0.7684  0.1780  0.4179
  222MOL0     C29872   6.226  11.457  12.082 -0.1990 -0.5931 -0.1930
  222MOL0     C29873   6.223  11.583  12.169  0.4005 -0.4719  1.0689
  222MOL0     C29874   6.316  11.568  12.284 -0.5127  0.3558  0.3624
  222MOL0     C29875   6.460  11.534  12.235  0.5004  0.3630 -0.4893
  222MOL0     C29876   6.528  11.626  12.137 -0.1055  0.3467  0.8153
  222MOL0     C29877   6.675  11.612  12.144 -0.5844  0.5549  0.3412
  222MOL0     C29878   6.736  11.469  12.143 -1.5071 -0.4426  0.0718
  222MOL0    Cl29879   6.688  11.357  12.007 -0.2165  0.2128  0.1570
  222MOL0     C29880   5.805  11.486  11.918 -0.2565  0.1059 -0.7295
  222MOL0     C29881   5.684  11.510  11.857 -0.3900  0.2943  0.0465
  222MOL0     O29882   5.568  11.421  11.582  0.1270  0.7147  0.1605
  222MOL0     C29883   5.324  11.666  11.526 -0.1188 -0.4890  1.0035
  222MOL0     C29884   5.194  11.674  11.474  0.3559 -0.8484 -0.8847
  222MOL0     N29885   4.407  11.768  11.106 -0.0205 -0.4910 -0.1532
  222MOL0     N29886   4.353  11.658  11.075 -0.1289 -0.3764 -0.0634
  222MOL0     C29887   3.695  10.847  11.259  0.9007 -0.0566 -0.1072
  222MOL0     C29888   3.665  10.709  11.241  0.7993  0.5368 -0.4503
  222MOL0     C29889   3.619  10.254  11.260 -0.6824 -0.1664  0.0521
  222MOL0     C29890   3.745  10.191  11.264  0.6569 -0.5067  0.9072
  222MOL0     C29891   3.759  10.058  11.265 -0.0709 -0.1640  0.1694
  222MOL0     C29892   3.645   9.971  11.270 -0.5645 -0.0172  0.9052
  222MOL0     O29893   3.649   9.835  11.262 -0.4114 -0.1656  0.3231
  222MOL0     C29894   3.760   9.775  11.345 -0.8677 -0.6502  0.5707
  222MOL0     C29895   3.739   9.648  11.417 -0.8431  0.8219 -0.3043
  222MOL0     C29896   3.699   9.525  11.338  0.0932 -1.3082 -0.7495
  222MOL0     C29897   3.775   9.407  11.380  0.0362 -0.6432 -0.2739
  222MOL0     C29898   3.741   9.370  11.515  0.2870  0.2687  0.1356
  222MOL0     C29899   3.721   9.320  11.622 -0.5380 -1.1151 -0.1584
  222MOL0     C29900   3.523  10.031  11.244 -0.3832  0.3385 -0.3301
  222MOL0     C29901   3.506  10.170  11.242 -0.3619 -0.8281 -0.2861
  222MOL0     C29902   3.372  10.231  11.220 -0.2932  0.4761 -1.1785
  222MOL0     H29903   3.918  10.561  11.410  0.4455  0.7802  2.2213
  222MOL0     H29904   3.970  10.812  11.448 -1.5428  0.9772  2.2656
  222MOL0     H29905   3.807  11.130  11.182  0.7632 -1.7188 -0.1680
  222MOL0     H29906   3.677  11.128  11.308  0.4493 -1.5555 -0.2648
  222MOL0     H29907   3.873  11.238  11.463 -0.5497  4.0215  0.4927
  222MOL0     H29908   3.756  11.330  11.385  0.5864  0.4015  1.8932
  222MOL0     H29909   3.962  11.433  11.315  2.9051 -0.7611 -0.4229
  222MOL0     H29910   3.912  11.336  11.172 -1.3369 -0.0338 -0.4104
  222MOL0     H29911   4.135  11.248  11.376 -0.2658 -1.9310 -0.3603
  222MOL0     H29912   4.074  11.156  11.244 -0.6995 -0.7715  1.0562
  222MOL0     H29913   4.141  11.379  11.102  3.2946  0.3201 -1.8702
  222MOL0     H29914   4.237  11.415  11.250  1.3613 -0.1218 -1.0156
  222MOL0     H29915   4.336  11.178  11.220 -0.9099  0.5799  0.4857
  222MOL0     H29916   4.269  11.179  11.057  1.6404  2.0740 -3.0261
  222MOL0     H29917   4.501  11.260  11.038 -1.2315 -0.7730 -1.5289
  222MOL0     H29918   4.497  11.373  11.166 -0.1099  0.2666 -0.4087
  222MOL0     H29919   4.463  11.404  10.896  0.3848  0.2150 -0.4433
  222MOL0     H29920   4.302  11.430  10.958  0.5453  0.4100 -0.7177
  222MOL0     H29921   4.669  11.581  11.024 -0.1555 -0.2525  0.3367
  222MOL0     H29922   4.722  11.872  11.058 -0.0129  0.4233 -1.4855
  222MOL0     H29923   4.602  11.935  11.171  1.8747 -0.5078  3.2959
  222MOL0     H29924   4.766  11.882  11.312  3.5797 -2.3186  0.8794
  222MOL0     H29925   4.645  11.766  11.340  0.6442  2.2652  1.7630
  222MOL0     H29926   4.869  11.678  11.155 -0.5684 -0.7211  0.0410
  222MOL0     H29927   4.762  11.588  11.272 -0.3808  0.9329  0.5070
  222MOL0     H29928   4.885  11.731  11.452  1.6267  0.7158  1.2303
  222MOL0     H29929   4.994  11.786  11.330 -1.0986  0.0568 -1.2070
  222MOL0     H29930   5.111  11.352  11.423  1.9246 -0.7552 -3.6689
  222MOL0     H29931   5.339  11.325  11.538  2.0102  1.0670 -0.9141
  222MOL0     H29932   5.786  11.741  11.635 -2.8064 -2.3773 -1.6634
  222MOL0     H29933   6.002  11.705  11.770 -0.1079 -0.6066 -0.6381
  222MOL0     H29934   6.012  11.405  12.083 -0.9233 -0.7676 -0.1613
  222MOL0     H29935   6.103  11.348  11.950 -1.9428 -0.1882  0.6703
  222MOL0     H29936   6.250  11.375  12.150 -0.9262 -2.8929 -2.5349
  222MOL0     H29937   6.292  11.485  12.000 -4.5837  1.0012 -3.6442
  222MOL0     H29938   6.248  11.669  12.106 -1.9381 -0.7421 -0.3145
  222MOL0     H29939   6.122  11.600  12.206  0.6746  1.0777  1.1791
  222MOL0     H29940   6.295  11.484  12.350  0.8460  0.8509  1.4908
  222MOL0     H29941   6.301  11.650  12.355  0.9159  0.7007  0.2964
  222MOL0     H29942   6.473  11.429  12.208  0.7580  0.6049 -1.3395
  222MOL0     H29943   6.508  11.545  12.333 -0.6414 -0.7565  0.2228
  222MOL0     H29944   6.486  11.596  12.041 -2.1286 -1.8425  2.2676
  222MOL0     H29945   6.494  11.729  12.149  0.4917  1.2179 -3.3941
  222MOL0     H29946   6.706  11.657  12.239 -1.0197  0.9053  0.3252
  222MOL0     H29947   6.723  11.665  12.061  0.1069 -0.5027  0.0478
  222MOL0     H29948   6.845  11.470  12.149 -1.5101  2.2720  1.6370
  222MOL0     H29949   6.703  11.413  12.230 -1.2696  0.6365  0.8801
  222MOL0     H29950   5.803  11.408  11.993  3.0743 -0.3978 -0.9768
  222MOL0     H29951   5.591  11.466  11.891 -0.9268  0.9354 -0.5600
  222MOL0     H29952   5.380  11.758  11.540  1.5811 -1.6639  2.5356
  222MOL0     H29953   5.171  11.780  11.465 -1.2355 -1.1248 -0.4278
  222MOL0     H29954   3.620  10.915  11.218  1.2631  0.5392  0.2167
  222MOL0     H29955   3.582  10.679  11.178 -0.9538  1.3964  1.3392
  222MOL0     H29956   3.839  10.245  11.270  2.5138 -3.5051  0.9532
  222MOL0     H29957   3.861  10.020  11.261  0.7499  1.8774 -3.6214
  222MOL0     H29958   3.797   9.838  11.426  0.3048  2.0285 -1.8854
  222MOL0     H29959   3.852   9.775  11.286 -1.9096  1.0241 -1.1902
  222MOL0     H29960   3.667   9.655  11.499 -0.0479 -0.7246  0.5700
  222MOL0     H29961   3.836   9.626  11.462 -1.9033 -1.5584  1.0430
  222MOL0     H29962   3.708   9.539  11.229 -1.3367 -2.0465 -0.9823
  222MOL0     H29963   3.593   9.528  11.363  0.0998  1.6363 -0.7355
  222MOL0     H29964   3.742   9.325  11.315  0.3297  1.1844 -2.8845
  222MOL0     H29965   3.883   9.423  11.377 -0.0846  0.8194  1.4896
  222MOL0     H29966   3.706   9.266  11.713 -2.5445  0.3214  0.4461
  222MOL0     H29967   3.436   9.966  11.236 -0.1550 -0.6838  3.4112
  222MOL0     H29968   3.376  10.309  11.144 -0.2113  0.2092 -1.4486
  222MOL0     H29969   3.299  10.157  11.186 -0.2402 -0.2066  0.1143
  222MOL0     H29970   3.339  10.259  11.321  0.9444  0.9143 -0.8812
  223MOL0     O29971   2.053  11.235   0.251  0.2114  0.2792  0.1611
  223MOL0     C29972   1.952  11.238   0.325  0.6137 -0.7128  0.2516
  223MOL0     O29973   1.833  11.196   0.294 -0.6103  0.5311 -0.0328
  223MOL0     C29974   1.828  11.101   0.188 -0.0627  0.4859  0.3688
  223MOL0     C29975   1.867  10.966   0.217  0.3525 -0.7377  0.6297
  223MOL0     C29976   1.893  10.873   0.118 -0.0285  0.1027  0.8640
  223MOL0     C29977   1.872  10.909  -0.018 -0.8716 -0.1142 -0.4304
  223MOL0     O29978   1.878  10.803  -0.101 -0.0609 -0.0178  0.4151
  223MOL0     C29979   1.840  10.821  -0.238  0.0436 -0.0153 -0.0595
  223MOL0     C29980   1.764  10.704  -0.296 -0.1749  0.5085  0.6647
  223MOL0     C29981   1.623  10.735  -0.343  0.2442  0.3010 -0.2354
  223MOL0     C29982   1.516  10.686  -0.248 -0.0983  0.6470 -0.3015
  223MOL0     C29983   1.370  10.682  -0.303 -0.5317 -0.1166  0.1907
  223MOL0     C29984   1.329  10.800  -0.395  0.5464 -0.4618  0.3542
  223MOL0     C29985   1.175  10.780  -0.439 -0.3177 -0.2119  0.1022
  223MOL0     C29986   1.073  10.831  -0.342 -0.5360  0.4294 -0.7704
  223MOL0     N29987   1.095  10.970  -0.310  0.7271  0.4083  0.5555
  223MOL0     C29988   1.155  11.012  -0.193  0.3831 -0.0641 -0.3194
  223MOL0     C29989   1.163  11.149  -0.202 -0.1270 -0.4776 -0.4443
  223MOL0     C29990   1.218  11.243  -0.106 -0.9702  0.0738 -0.5500
  223MOL0     C29991   1.373  11.245  -0.107  0.3367 -0.0292  0.5504
  223MOL0     C29992   1.429  11.312  -0.233 -0.0135  0.0480 -0.1959
  223MOL0     C29993   1.581  11.360  -0.202 -0.0707 -0.1529  0.3264
  223MOL0     O29994   1.590  11.440  -0.076  0.0880  1.3618  0.2896
  223MOL0     C29995   1.687  11.537  -0.074  1.2854 -0.6231 -1.1594
  223MOL0     C29996   1.686  11.647  -0.162 -0.4450  0.0283 -0.4170
  223MOL0     C29997   1.772  11.757  -0.135 -0.9431 -0.3002 -0.9907
  223MOL0     C29998   1.864  11.749  -0.028  0.4363  0.6085 -0.3861
  223MOL0     C29999   1.975  11.859  -0.010  0.8348  0.5476 -0.4351
  223MOL0     O30000   1.963  11.972  -0.086 -0.0397  0.7496 -0.1038
  223MOL0     C30001   2.055  12.073  -0.060 -1.0206  0.7207 -0.7614
  223MOL0     C30002   2.032  12.169   0.045 -0.4142  0.0696  0.9498
  223MOL0     C30003   2.107  12.288   0.057  0.0727  0.0954  0.8905
  223MOL0     C30004   2.226  12.300  -0.013 -0.1078  1.0317  0.1149
  223MOL0     O30005   2.306  12.401   0.028  1.2272  0.7302 -0.4613
  223MOL0     C30006   2.356  12.471  -0.083 -0.5927 -0.4270  0.0288
  223MOL0     C30007   2.386  12.608  -0.029 -0.6825 -0.0504 -0.6170
  223MOL0     C30008   2.420  12.700  -0.144 -0.6692  0.1198 -0.2378
  223MOL0     C30009   2.558  12.650  -0.201  0.1609  0.6965  0.0554
  223MOL0     C30010   2.616  12.750  -0.296  0.5424 -0.9666 -0.3547
  223MOL0     C30011   2.518  12.821  -0.406  0.4295 -0.8322 -0.1071
  223MOL0     C30012   2.587  12.905  -0.518  0.6854  0.0891 -0.3871
  223MOL0     C30013   2.625  12.804  -0.634 -1.3036 -0.0216  0.2508
  223MOL0    Cl30014   2.489  12.757  -0.734  0.1494  0.1042 -0.0784
  223MOL0     C30015   2.257  12.203  -0.112  0.0370 -0.6331  1.0067
  223MOL0     C30016   2.168  12.092  -0.139 -0.0899  0.2294  0.1215
  223MOL0     O30017   2.053  11.837   0.082  0.1253  0.2276 -0.4420
  223MOL0     C30018   1.864  11.632   0.052 -0.2741 -0.1631 -0.2217
  223MOL0     C30019   1.770  11.532   0.033  0.2156 -0.6906  0.0808
  223MOL0     N30020   1.102  11.187  -0.317 -0.2100  0.8930  0.0608
  223MOL0     N30021   1.071  11.076  -0.385 -1.0270 -0.0335  0.3000
  223MOL0     C30022   1.837  11.046  -0.045  0.0541 -0.2156  0.7527
  223MOL0     C30023   1.816  11.138   0.052 -0.6946  0.9461 -0.3659
  223MOL0     C30024   1.977  11.321   0.450  0.3444  0.1170  0.2086
  223MOL0     C30025   1.860  11.357   0.526  0.0584  0.4134 -0.1677
  223MOL0     C30026   1.861  11.443   0.642 -0.2804  0.3363  0.7777
  223MOL0     C30027   1.987  11.495   0.676  0.4911 -0.1008  0.3439
  223MOL0     O30028   1.999  11.586   0.778 -0.3862  0.7279  0.3702
  223MOL0     C30029   1.899  11.616   0.866  0.0574 -0.5421 -0.0813
  223MOL0     C30030   1.848  11.500   0.962 -0.1185  0.2872  0.9301
  223MOL0     C30031   1.949  11.424   1.046 -0.3502  0.6471  0.7680
  223MOL0     C30032   1.967  11.277   0.994 -0.0553 -0.3008 -0.2117
  223MOL0     C30033   2.033  11.189   1.091 -0.5993 -0.3430 -0.7519
  223MOL0     C30034   2.063  11.115   1.183 -0.6061 -0.3155  0.2221
  223MOL0     C30035   2.099  11.438   0.622  0.5542  0.2642 -0.5634
  223MOL0     C30036   2.102  11.354   0.512  0.1807 -0.0662  0.6417
  223MOL0     C30037   2.241  11.326   0.447  0.0608 -1.0969 -1.0096
  223MOL0     H30038   1.884  10.941   0.321  0.9561  0.1358  0.7566
  223MOL0     H30039   1.926  10.771   0.133 -0.6983 -0.5071 -1.3871
  223MOL0     H30040   1.774  10.907  -0.250  0.9216  0.7824  0.6675
  223MOL0     H30041   1.934  10.840  -0.292  1.1754  0.1968  1.8721
  223MOL0     H30042   1.761  10.612  -0.237  1.1951 -1.2583 -1.8333
  223MOL0     H30043   1.828  10.659  -0.372  1.5606  1.4592  1.5014
  223MOL0     H30044   1.607  10.679  -0.435  1.3671  0.9781 -0.8668
  223MOL0     H30045   1.610  10.842  -0.362  1.2003  0.8477  1.8811
  223MOL0     H30046   1.548  10.584  -0.224  0.7974  1.0839  0.3890
  223MOL0     H30047   1.513  10.739  -0.152  0.3206  0.0390  0.0528
  223MOL0     H30048   1.371  10.608  -0.383 -4.3550  0.9784 -1.1006
  223MOL0     H30049   1.300  10.670  -0.219 -0.5821 -3.3183 -0.1854
  223MOL0     H30050   1.344  10.892  -0.338 -0.5305 -0.8308  1.2579
  223MOL0     H30051   1.393  10.794  -0.484 -1.2633  2.4262 -1.3208
  223MOL0     H30052   1.163  10.674  -0.462 -2.6184 -0.1691  0.8803
  223MOL0     H30053   1.179  10.837  -0.532  2.9417  2.7326  1.7655
  223MOL0     H30054   0.971  10.821  -0.380 -1.8171 -2.2847  2.8140
  223MOL0     H30055   1.082  10.772  -0.251 -0.3654  2.5735  0.6763
  223MOL0     H30056   1.199  10.946  -0.119  2.0112  1.1114 -0.1971
  223MOL0     H30057   1.174  11.341  -0.125 -1.6194  0.8035  3.7609
  223MOL0     H30058   1.194  11.207  -0.006  1.5242 -0.6593 -0.1459
  223MOL0     H30059   1.409  11.313  -0.029  1.6553 -1.2553  1.0614
  223MOL0     H30060   1.415  11.145  -0.092  1.4713  0.5262  1.2395
  223MOL0     H30061   1.355  11.386  -0.264 -4.6354 -4.4826 -1.4537
  223MOL0     H30062   1.440  11.236  -0.312  0.4405  1.8962 -1.9957
  223MOL0     H30063   1.602  11.425  -0.288 -1.0148 -0.3981 -0.1079
  223MOL0     H30064   1.649  11.275  -0.198  0.4148  0.2443  0.6477
  223MOL0     H30065   1.617  11.643  -0.246 -0.3135  2.3877 -0.7039
  223MOL0     H30066   1.793  11.834  -0.209  3.5351 -0.4105 -0.0743
  223MOL0     H30067   1.952  12.136   0.110  0.1672 -2.8876  0.2914
  223MOL0     H30068   2.078  12.358   0.136  1.8308  0.2146  1.4951
  223MOL0     H30069   2.442  12.414  -0.120 -1.8901 -1.4012 -1.6023
  223MOL0     H30070   2.281  12.484  -0.161  1.3995 -1.9908 -2.2675
  223MOL0     H30071   2.290  12.646   0.006 -1.6825 -1.4132 -1.7362
  223MOL0     H30072   2.469  12.621   0.040 -1.6347  0.2859  0.5038
  223MOL0     H30073   2.342  12.698  -0.220 -0.8110 -0.8400 -0.0836
  223MOL0     H30074   2.432  12.807  -0.123  0.6119  0.4547 -2.3737
  223MOL0     H30075   2.549  12.555  -0.253  0.0168  0.3959  0.6168
  223MOL0     H30076   2.627  12.648  -0.116  0.5950 -1.1469 -0.3021
  223MOL0     H30077   2.705  12.717  -0.352  1.4866  0.5766  0.1716
  223MOL0     H30078   2.652  12.830  -0.230 -0.8600  0.7908 -1.6139
  223MOL0     H30079   2.447  12.749  -0.449 -2.1693  0.4532  1.7406
  223MOL0     H30080   2.467  12.905  -0.357 -0.4449 -2.4711  1.9313
  223MOL0     H30081   2.666  12.969  -0.479  2.3488  0.0123 -3.2987
  223MOL0     H30082   2.512  12.973  -0.561 -0.6866 -0.2979  1.2989
  223MOL0     H30083   2.705  12.845  -0.696  0.1950 -3.8518 -0.6295
  223MOL0     H30084   2.666  12.711  -0.595 -0.9882 -1.2396 -2.7783
  223MOL0     H30085   2.352  12.208  -0.164 -1.0601 -0.5066 -1.1106
  223MOL0     H30086   2.183  12.028  -0.225 -3.1711  0.5968 -0.7960
  223MOL0     H30087   1.935  11.627   0.134  0.8785  4.7261 -0.5702
  223MOL0     H30088   1.766  11.443   0.096  3.8953 -1.4025 -0.4626
  223MOL0     H30089   1.836  11.082  -0.147  0.7058  2.6590  1.6804
  223MOL0     H30090   1.801  11.243   0.026 -2.9271  0.9566  0.7159
  223MOL0     H30091   1.763  11.325   0.488 -0.4447 -0.8114  2.0312
  223MOL0     H30092   1.771  11.451   0.702 -3.0729 -4.2884 -2.2470
  223MOL0     H30093   1.816  11.655   0.807 -1.7698 -0.0834  2.6129
  223MOL0     H30094   1.938  11.702   0.922 -2.9337  1.5095 -0.9291
  223MOL0     H30095   1.789  11.420   0.915  0.0423 -0.6519  2.2625
  223MOL0     H30096   1.785  11.559   1.030 -0.6559  1.2514 -0.3654
  223MOL0     H30097   1.903  11.420   1.146 -1.1794  3.3117  0.5456
  223MOL0     H30098   2.044  11.474   1.068  0.1684 -0.3786  0.9713
  223MOL0     H30099   1.868  11.234   0.978 -0.1151 -0.2252 -0.0588
  223MOL0     H30100   2.026  11.283   0.902 -1.2336 -1.3683 -1.0666
  223MOL0     H30101   2.089  11.048   1.262  2.2041 -0.2896 -0.5662
  223MOL0     H30102   2.196  11.468   0.660  0.8105 -0.0165 -0.9751
  223MOL0     H30103   2.248  11.226   0.402  2.3409 -1.3886 -0.1159
  223MOL0     H30104   2.279  11.403   0.380  5.6045 -0.5177  2.2229
  223MOL0     H30105   2.315  11.335   0.527  0.2184  0.7152 -1.3167
  224MOL0     O30106   1.957   8.183  11.498 -0.6883 -0.2187 -0.7808
  224MOL0     C30107   2.046   8.204  11.425 -1.1533 -0.3284  0.1235
  224MOL0     O30108   2.162   8.125  11.413  0.9126 -0.3866  0.1119
  224MOL0     C30109   2.154   7.990  11.426  0.4815  0.7093 -0.0671
  224MOL0     C30110   2.268   7.910  11.419  0.5398 -0.9480 -0.5354
  224MOL0     C30111   2.266   7.771  11.441 -0.4110 -0.5207 -0.3485
  224MOL0     C30112   2.140   7.699  11.424  0.2099 -0.2992  0.1947
  224MOL0     O30113   2.107   7.563  11.435  0.0929  0.2017  0.2784
  224MOL0     C30114   2.212   7.464  11.405  0.4356  0.3484 -0.5022
  224MOL0     C30115   2.259   7.368  11.525  0.6638  0.6790  0.1835
  224MOL0     C30116   2.363   7.263  11.491  1.2943 -0.8507 -0.8416
  224MOL0     C30117   2.404   7.186  11.607  0.4938 -0.1173 -0.6224
  224MOL0     C30118   2.410   7.032  11.574 -0.2930  0.5197 -0.2875
  224MOL0     C30119   2.547   6.995  11.518  0.1048  0.1827 -0.6499
  224MOL0     C30120   2.549   6.840  11.510 -0.4161 -0.4376 -0.1469
  224MOL0     C30121   2.678   6.798  11.449  0.4881  0.1449  0.4047
  224MOL0     N30122   2.739   6.667  11.482  0.5259 -0.3211 -0.3856
  224MOL0     C30123   2.680   6.550  11.485 -0.6746 -0.1226  0.4107
  224MOL0     C30124   2.780   6.454  11.491  0.6837 -0.6458 -0.8324
  224MOL0     C30125   2.749   6.312  11.478  0.1195  0.9117  0.2598
  224MOL0     C30126   2.875   6.231  11.439  0.2179 -0.0587 -0.2520
  224MOL0     C30127   2.834   6.087  11.408 -0.8049  0.5032  0.2631
  224MOL0     C30128   2.941   5.990  11.467  0.0775  0.3076  0.1003
  224MOL0     O30129   2.932   5.997  11.617  0.2575  0.1242 -0.1903
  224MOL0     C30130   2.996   5.890  11.670  0.4545  0.9226 -0.7889
  224MOL0     C30131   3.093   5.909  11.774 -0.7578  0.2640 -0.3378
  224MOL0     C30132   3.177   5.806  11.813 -1.1925 -1.4266 -0.5703
  224MOL0     C30133   3.142   5.676  11.776 -0.1924  0.2601  0.5611
  224MOL0     C30134   3.220   5.557  11.833  0.1320  0.2262  0.6884
  224MOL0     O30135   3.334   5.587  11.894 -0.1916  0.0143  0.0940
  224MOL0     C30136   3.417   5.486  11.952  0.2650  0.0075 -0.0084
  224MOL0     C30137   3.440   5.477  12.091 -0.1991 -0.4519  0.6442
  224MOL0     C30138   3.523   5.372  12.147 -0.5145  0.1279  1.1585
  224MOL0     C30139   3.579   5.277  12.055  0.0355  0.7272  0.7858
  224MOL0     O30140   3.647   5.178  12.091 -0.0876 -0.1885  0.4655
  224MOL0     C30141   3.751   5.213  12.183  1.4186 -0.2508  0.3338
  224MOL0     C30142   3.729   5.121  12.304  0.3452 -0.5646 -0.2697
  224MOL0     C30143   3.842   5.153  12.401  0.3717 -0.0370  0.8220
  224MOL0     C30144   3.820   5.068  12.522 -0.2325 -0.6693 -0.1064
  224MOL0     C30145   3.948   5.052  12.607 -0.4975 -0.1551 -0.9787
  224MOL0     C30146   3.971   5.172  12.703 -0.1902  1.2745 -0.4248
  224MOL0     C30147   4.093   5.147  12.807  0.5383  0.6812  0.2547
  224MOL0     C30148   4.039   5.116  12.944  0.6103 -0.1522  0.1084
  224MOL0    Cl30149   3.943   5.264  12.992  0.3834  0.3601 -0.1691
  224MOL0     C30150   3.562   5.297  11.918 -0.0571 -0.0743 -0.0511
  224MOL0     C30151   3.486   5.399  11.868 -0.6575  0.2266  0.4525
  224MOL0     O30152   3.160   5.451  11.836 -0.4967  0.7761 -0.1445
  224MOL0     C30153   3.036   5.650  11.682 -0.1291  0.1468 -0.0423
  224MOL0     C30154   2.967   5.757  11.631  0.3506  0.0859 -0.0485
  224MOL0     N30155   2.897   6.524  11.505 -0.1070  0.3390 -0.2452
  224MOL0     N30156   2.874   6.654  11.497 -0.3556  0.6386  0.1531
  224MOL0     C30157   2.023   7.784  11.399 -0.3508 -0.8335 -1.3760
  224MOL0     C30158   2.036   7.924  11.399 -0.2696 -0.9062 -0.6302
  224MOL0     C30159   2.055   8.326  11.339 -0.2198 -0.8134  1.1340
  224MOL0     C30160   2.183   8.365  11.288  0.5968  0.8495  0.4030
  224MOL0     C30161   2.202   8.460  11.186  0.4274  0.6160  0.0905
  224MOL0     C30162   2.088   8.527  11.147 -0.2525 -0.8448 -0.2016
  224MOL0     O30163   2.109   8.609  11.038 -0.0647 -0.7056 -0.0133
  224MOL0     C30164   2.003   8.647  10.956 -0.7067 -0.2726  0.0507
  224MOL0     C30165   2.072   8.757  10.879  0.7124  0.5788  0.2866
  224MOL0     C30166   2.091   8.885  10.967  0.2902 -0.3222 -0.5594
  224MOL0     C30167   2.138   8.871  11.114 -0.3855 -0.0397  0.3695
  224MOL0     C30168   2.160   8.992  11.190 -0.0971 -0.6504  0.3194
  224MOL0     C30169   2.168   9.108  11.233  0.3082  0.5618  0.1988
  224MOL0     C30170   1.965   8.501  11.200  0.1422  0.8647 -0.2011
  224MOL0     C30171   1.939   8.399  11.296  0.5735 -0.2701  0.2207
  224MOL0     C30172   1.797   8.375  11.355  0.5009  0.4089 -0.1829
  224MOL0     H30173   2.358   7.969  11.424 -1.0670  1.6792 -0.4752
  224MOL0     H30174   2.360   7.719  11.452  0.3135  0.4918 -1.4311
  224MOL0     H30175   2.179   7.404  11.320  3.0146  1.2917 -2.2906
  224MOL0     H30176   2.304   7.516  11.375  1.0647  0.6752  1.7514
  224MOL0     H30177   2.170   7.306  11.541  0.5763  0.1285 -2.0549
  224MOL0     H30178   2.291   7.430  11.609 -0.6581 -0.4007  1.5605
  224MOL0     H30179   2.452   7.307  11.447 -0.7671  3.4030 -1.2478
  224MOL0     H30180   2.314   7.199  11.417 -1.2489 -0.8732  0.7390
  224MOL0     H30181   2.499   7.223  11.647  1.0632 -0.4423 -1.6247
  224MOL0     H30182   2.322   7.192  11.678 -0.7716 -1.0392 -1.9450
  224MOL0     H30183   2.396   6.978  11.668  3.0408  1.8544  1.1302
  224MOL0     H30184   2.325   7.010  11.510 -0.1602  2.0815 -1.0421
  224MOL0     H30185   2.583   7.042  11.426  1.0716 -1.5618 -1.2069
  224MOL0     H30186   2.621   7.033  11.588  0.7483  1.5060 -1.9942
  224MOL0     H30187   2.461   6.810  11.452  0.8399 -1.3029 -1.6913
  224MOL0     H30188   2.546   6.795  11.610 -1.4865  0.4395  0.2361
  224MOL0     H30189   2.662   6.813  11.342 -3.4335  0.7683  0.9399
  224MOL0     H30190   2.762   6.861  11.479  0.2454 -0.0328  1.5244
  224MOL0     H30191   2.572   6.537  11.481 -0.4548 -2.5458  1.0525
  224MOL0     H30192   2.706   6.263  11.566  0.9173  0.3245  0.3388
  224MOL0     H30193   2.681   6.294  11.394 -0.4121 -0.5000  0.9482
  224MOL0     H30194   2.915   6.255  11.340 -1.5602  0.0194 -0.9780
  224MOL0     H30195   2.951   6.230  11.518  1.3892 -0.8352 -1.3395
  224MOL0     H30196   2.816   6.067  11.301 -1.9910  1.3578  0.2805
  224MOL0     H30197   2.743   6.062  11.463 -0.6799 -1.5753 -0.3566
  224MOL0     H30198   3.041   6.001  11.424 -0.5379 -2.6755 -2.4584
  224MOL0     H30199   2.916   5.893  11.424 -0.2009  0.1878  0.5240
  224MOL0     H30200   3.101   6.005  11.824  0.9331 -1.3561  2.8144
  224MOL0     H30201   3.266   5.823  11.872 -0.7771 -1.6309 -1.1342
  224MOL0     H30202   3.383   5.543  12.156 -0.7721  0.0997 -0.3871
  224MOL0     H30203   3.539   5.369  12.254  0.3474  1.2794  1.0876
  224MOL0     H30204   3.852   5.215  12.143  1.2590 -1.7013 -0.1996
  224MOL0     H30205   3.738   5.314  12.223 -1.6233  1.4088 -4.0260
  224MOL0     H30206   3.635   5.154  12.350 -0.3121  1.6965 -2.9457
  224MOL0     H30207   3.731   5.015  12.275  1.3989 -0.6030 -0.1131
  224MOL0     H30208   3.936   5.124  12.352 -0.5641  1.0806 -1.8330
  224MOL0     H30209   3.838   5.261  12.422 -0.8534  0.1089 -0.0314
  224MOL0     H30210   3.789   4.967  12.495  3.0635 -1.9444  0.4220
  224MOL0     H30211   3.741   5.116  12.581  0.4335  0.1359  0.1564
  224MOL0     H30212   4.039   5.046  12.546 -1.3814 -0.7534 -2.3003
  224MOL0     H30213   3.944   4.961  12.667  2.4987 -0.3488 -0.9610
  224MOL0     H30214   4.001   5.254  12.638  0.1237  1.3587 -0.1744
  224MOL0     H30215   3.873   5.190  12.747  0.7140  0.7268  1.9994
  224MOL0     H30216   4.137   5.245  12.825 -2.2967  2.8589 -3.3459
  224MOL0     H30217   4.167   5.071  12.779 -0.9453 -1.6014  2.1565
  224MOL0     H30218   3.968   5.033  12.949  0.4801 -0.0422  0.1119
  224MOL0     H30219   4.108   5.100  13.028  0.1109 -4.5471 -0.0855
  224MOL0     H30220   3.611   5.235  11.844 -2.1564 -0.6835 -1.0041
  224MOL0     H30221   3.476   5.417  11.762 -1.1900  0.9111  0.6137
  224MOL0     H30222   2.994   5.552  11.662  0.5358  0.1866 -1.8898
  224MOL0     H30223   2.895   5.730  11.555  0.1188 -2.1568  0.9122
  224MOL0     H30224   1.923   7.746  11.379 -1.5223  2.0349 -1.5506
  224MOL0     H30225   1.943   7.978  11.395 -1.1972 -2.4236 -0.2806
  224MOL0     H30226   2.274   8.319  11.327 -0.1400  0.2283  1.4209
  224MOL0     H30227   2.293   8.502  11.143  0.4646  1.7451  1.2148
  224MOL0     H30228   1.919   8.683  11.016  0.3202 -2.0906  2.7582
  224MOL0     H30229   1.962   8.566  10.894 -0.9029 -0.0090 -0.1663
  224MOL0     H30230   2.016   8.786  10.790 -2.2644  1.3402  2.2412
  224MOL0     H30231   2.171   8.723  10.848 -0.6738 -2.0701 -1.6695
  224MOL0     H30232   1.997   8.941  10.966  0.9039  0.8484 -3.7590
  224MOL0     H30233   2.168   8.947  10.919 -0.2385  2.3277  1.7113
  224MOL0     H30234   2.060   8.823  11.172 -1.4753 -0.1212 -1.0962
  224MOL0     H30235   2.225   8.805  11.117  0.3241  0.6854 -1.7426
  224MOL0     H30236   2.189   9.208  11.265  0.5550  0.9878 -1.2503
  224MOL0     H30237   1.886   8.549  11.143  0.8310  0.7573 -1.2762
  224MOL0     H30238   1.732   8.443  11.298  1.7212  0.2456 -1.8414
  224MOL0     H30239   1.760   8.273  11.341 -1.1372  0.4498  2.9779
  224MOL0     H30240   1.799   8.390  11.463  0.0035  0.2298 -0.1453
  225MOL0     O30241   1.228   2.275  10.118  0.1422 -0.3458 -0.2431
  225MOL0     C30242   1.232   2.163  10.171  0.1082  0.2118  0.1115
  225MOL0     O30243   1.344   2.096  10.197 -0.1045  0.5408 -0.1299
  225MOL0     C30244   1.464   2.167  10.197  0.2494  0.0602  0.5127
  225MOL0     C30245   1.571   2.151  10.110  0.2501  1.3810 -0.1155
  225MOL0     C30246   1.693   2.217  10.135 -0.2045 -0.6357  1.2202
  225MOL0     C30247   1.708   2.300  10.245  0.2608 -0.0839  0.6012
  225MOL0     O30248   1.825   2.375  10.241  0.3703 -0.0415  0.1024
  225MOL0     C30249   1.817   2.500  10.164 -0.0046  1.4410  0.0927
  225MOL0     C30250   1.935   2.588  10.186  0.4141  0.5583 -0.0674
  225MOL0     C30251   2.064   2.542  10.107  0.2326 -0.3573  0.2997
  225MOL0     C30252   2.180   2.641  10.155  0.0753 -0.1489 -0.3335
  225MOL0     C30253   2.321   2.615  10.099 -0.2235 -0.3315  0.0309
  225MOL0     C30254   2.421   2.672  10.190 -0.7914 -0.1794  1.1859
  225MOL0     C30255   2.437   2.829  10.153 -0.5679  0.0994  0.3018
  225MOL0     C30256   2.404   2.911  10.279  0.4809 -0.2254  0.1929
  225MOL0     N30257   2.371   3.053  10.251  0.8044  0.2457 -0.1665
  225MOL0     C30258   2.270   3.127  10.309  0.5964 -0.1839  0.0236
  225MOL0     C30259   2.281   3.247  10.246 -0.4755 -0.1205 -0.3021
  225MOL0     C30260   2.217   3.375  10.297 -0.1476 -0.1642 -0.2906
  225MOL0     C30261   2.112   3.436  10.186 -0.0263  0.4355  0.0940
  225MOL0     C30262   2.135   3.410  10.030 -0.2174  0.0136  0.1038
  225MOL0     C30263   2.006   3.432   9.948 -0.4032 -0.1421 -0.4594
  225MOL0     O30264   2.023   3.406   9.814 -0.1369  0.2174  0.2937
  225MOL0     C30265   1.920   3.355   9.742  0.2714  0.2727 -0.4071
  225MOL0     C30266   1.789   3.400   9.748  0.4974 -0.0725  0.1464
  225MOL0     C30267   1.686   3.349   9.660  0.0827 -0.1154 -0.4716
  225MOL0     C30268   1.720   3.249   9.571  0.6976 -0.4747 -0.1986
  225MOL0     C30269   1.611   3.172   9.504  0.8111  0.4633  0.1542
  225MOL0     O30270   1.638   3.041   9.471 -0.6800 -0.4104 -0.2968
  225MOL0     C30271   1.545   2.965   9.404  0.1470  0.3048 -0.3323
  225MOL0     C30272   1.495   2.996   9.275  0.2133 -0.4934  0.0292
  225MOL0     C30273   1.409   2.892   9.220  0.4091 -0.8510 -0.4742
  225MOL0     C30274   1.388   2.771   9.287  0.3439 -0.0169  0.2634
  225MOL0     O30275   1.305   2.672   9.231 -1.2613 -0.2647 -0.1838
  225MOL0     C30276   1.366   2.593   9.125  0.8343 -1.5822  0.9929
  225MOL0     C30277   1.265   2.498   9.069 -0.6419  0.5628  0.0566
  225MOL0     C30278   1.302   2.421   8.943 -0.4862 -0.0793  0.0616
  225MOL0     C30279   1.179   2.347   8.886  0.4377 -0.3001  1.1173
  225MOL0     C30280   1.201   2.198   8.860  0.4999 -0.2856  0.4141
  225MOL0     C30281   1.070   2.149   8.819  1.1055  0.5640 -1.2779
  225MOL0     C30282   1.060   1.999   8.792  0.0576  1.2356  0.3644
  225MOL0     C30283   0.914   1.944   8.820 -0.0420 -0.6909  0.2637
  225MOL0    Cl30284   0.789   2.075   8.794 -0.1727 -0.1108 -0.2172
  225MOL0     C30285   1.449   2.747   9.409 -0.6856 -0.3200  0.1753
  225MOL0     C30286   1.530   2.844   9.465  0.0906  0.0394  0.3904
  225MOL0     O30287   1.495   3.227   9.493 -0.5506 -0.2241  0.0522
  225MOL0     C30288   1.849   3.198   9.564 -1.1506 -0.7070 -0.3510
  225MOL0     C30289   1.951   3.249   9.653 -0.4267  0.5795  0.1418
  225MOL0     N30290   2.387   3.246  10.157 -0.9695 -0.6005  0.8499
  225MOL0     N30291   2.441   3.130  10.162 -0.4708  0.3750 -0.2521
  225MOL0     C30292   1.613   2.315  10.340  1.0137 -0.5968  0.5210
  225MOL0     C30293   1.489   2.255  10.304 -0.8149 -0.8011 -0.5271
  225MOL0     C30294   1.103   2.090  10.212 -0.2413 -0.0974  0.6019
  225MOL0     C30295   1.122   1.946  10.241 -0.1977 -0.7543  0.7020
  225MOL0     C30296   1.010   1.860  10.271 -0.1054  0.3402 -0.1785
  225MOL0     C30297   0.880   1.909  10.260 -0.1023  0.5094  0.1925
  225MOL0     O30298   0.756   1.849  10.274  0.3103  0.2924  0.0624
  225MOL0     C30299   0.752   1.726  10.349  0.4814 -0.3723 -0.4960
  225MOL0     C30300   0.729   1.741  10.497 -0.4123 -0.2281  0.6175
  225MOL0     C30301   0.745   1.615  10.584  0.3199 -0.1454  0.4865
  225MOL0     C30302   0.629   1.512  10.571  0.5314  0.7963  0.3000
  225MOL0     C30303   0.673   1.377  10.623 -0.3498 -0.9534  0.0789
  225MOL0     C30304   0.724   1.266  10.647  0.3423 -0.6800 -0.1237
  225MOL0     C30305   0.869   2.049  10.232  0.5553 -0.7783 -0.6612
  225MOL0     C30306   0.974   2.148  10.210 -1.7171 -0.2264 -0.6800
  225MOL0     C30307   0.935   2.278  10.165 -0.4596 -0.8193 -0.8707
  225MOL0     H30308   1.553   2.077  10.033  1.4452  1.8656 -0.8815
  225MOL0     H30309   1.772   2.208  10.061 -1.3355  2.6940 -0.6288
  225MOL0     H30310   1.793   2.479  10.060 -0.8686 -3.6781  1.0729
  225MOL0     H30311   1.725   2.549  10.200 -0.1458  0.4243  1.1822
  225MOL0     H30312   1.960   2.591  10.293 -0.9912  1.5088  0.2676
  225MOL0     H30313   1.910   2.692  10.162  3.3923  1.8830  1.9868
  225MOL0     H30314   2.039   2.558  10.002  0.9864  1.1600  0.3188
  225MOL0     H30315   2.096   2.442  10.138 -0.2758 -0.9620 -1.0754
  225MOL0     H30316   2.158   2.745  10.132 -1.9060  0.0232  1.9461
  225MOL0     H30317   2.184   2.625  10.263  1.5731  2.2214  0.0079
  225MOL0     H30318   2.337   2.510  10.072 -3.7163 -1.1613  0.7488
  225MOL0     H30319   2.328   2.654   9.997  4.0432 -4.2572 -1.5345
  225MOL0     H30320   2.392   2.664  10.295  1.8582  0.1759  2.0301
  225MOL0     H30321   2.519   2.624  10.187 -0.5323  0.3578  0.8426
  225MOL0     H30322   2.358   2.868  10.088  2.1691  3.2740 -1.4343
  225MOL0     H30323   2.535   2.851  10.109  0.4879 -0.6845  2.1380
  225MOL0     H30324   2.320   2.875  10.339  0.2727  1.0238  0.6967
  225MOL0     H30325   2.491   2.909  10.346 -0.6967  1.5891  1.8699
  225MOL0     H30326   2.199   3.109  10.388 -1.9878 -1.3785 -2.3949
  225MOL0     H30327   2.155   3.349  10.383 -2.6551 -1.1633 -2.2730
  225MOL0     H30328   2.299   3.445  10.316  0.9487 -0.8535 -2.2743
  225MOL0     H30329   2.014   3.394  10.211 -0.3560 -0.4422 -2.4079
  225MOL0     H30330   2.098   3.541  10.212 -3.1047 -0.2754  1.7956
  225MOL0     H30331   2.180   3.313  10.007 -1.7870 -0.4266 -1.2318
  225MOL0     H30332   2.207   3.486   9.997 -0.3506  1.1340  2.1891
  225MOL0     H30333   1.978   3.537   9.958 -1.7623 -0.6832  2.8960
  225MOL0     H30334   1.934   3.368  10.001  1.4670  0.7243  3.5407
  225MOL0     H30335   1.772   3.490   9.806  1.9599  3.6060 -4.4297
  225MOL0     H30336   1.590   3.399   9.665 -0.3785 -1.0618  0.9437
  225MOL0     H30337   1.511   3.084   9.214  0.6484 -1.4139 -1.2261
  225MOL0     H30338   1.369   2.912   9.121  1.2406 -0.2823 -0.7081
  225MOL0     H30339   1.403   2.657   9.045  1.0596 -1.4905  1.1712
  225MOL0     H30340   1.442   2.527   9.167 -0.8021 -2.9858  1.9309
  225MOL0     H30341   1.223   2.431   9.144 -1.2984  2.0578  1.0719
  225MOL0     H30342   1.187   2.572   9.046  1.9968  2.7818 -2.6472
  225MOL0     H30343   1.351   2.484   8.868  3.1578 -0.8931  1.5928
  225MOL0     H30344   1.375   2.342   8.960 -3.2451 -2.8544 -0.1609
  225MOL0     H30345   1.159   2.383   8.785  2.2458 -1.8609  0.1421
  225MOL0     H30346   1.097   2.368   8.955 -0.5428 -2.3234  0.6489
  225MOL0     H30347   1.237   2.143   8.947 -0.1277 -0.0644  0.8198
  225MOL0     H30348   1.267   2.189   8.773 -2.2777  0.0784 -1.8951
  225MOL0     H30349   1.001   2.176   8.899  0.8910  2.4818 -2.0613
  225MOL0     H30350   1.051   2.202   8.725  1.2541  1.2588 -0.9185
  225MOL0     H30351   1.126   1.945   8.860  1.3713  1.0672 -0.9908
  225MOL0     H30352   1.102   1.986   8.692  1.7827  1.8503  0.9828
  225MOL0     H30353   0.902   1.848   8.771 -1.9394  0.1438 -1.0096
  225MOL0     H30354   0.891   1.921   8.924 -2.4826 -1.9112 -0.4722
  225MOL0     H30355   1.419   2.654   9.456 -2.6405  0.2634  0.1664
  225MOL0     H30356   1.583   2.828   9.559 -0.5153  2.4617  1.2324
  225MOL0     H30357   1.861   3.107   9.507  0.7622 -2.7013  2.9450
  225MOL0     H30358   2.054   3.218   9.655 -0.0258  1.3322 -3.1089
  225MOL0     H30359   1.617   2.379  10.428 -2.7697  1.7218 -0.7329
  225MOL0     H30360   1.409   2.278  10.374 -0.4036 -1.6269  0.2327
  225MOL0     H30361   1.221   1.902  10.233  0.1491  0.3253 -2.6600
  225MOL0     H30362   1.042   1.763  10.307 -1.9300  0.1966  1.1781
  225MOL0     H30363   0.842   1.665  10.332  1.0640  0.0798  0.8210
  225MOL0     H30364   0.675   1.656  10.315  1.7194 -2.6927  1.1257
  225MOL0     H30365   0.624   1.767  10.511  0.1057  2.7696 -0.2555
  225MOL0     H30366   0.784   1.825  10.541  0.3906 -0.7107  0.5499
  225MOL0     H30367   0.756   1.652  10.687  1.3208  1.3108 -0.1121
  225MOL0     H30368   0.836   1.555  10.580  1.1670  1.0198  1.3754
  225MOL0     H30369   0.553   1.528  10.649 -2.9362 -0.1334 -2.5831
  225MOL0     H30370   0.575   1.503  10.476  0.7370 -0.7986  0.2940
  225MOL0     H30371   0.778   1.179  10.677  0.1555 -1.3361 -1.6016
  225MOL0     H30372   0.768   2.088  10.223  0.6097  0.1561  1.8352
  225MOL0     H30373   0.953   2.353  10.243 -1.1573 -1.1835 -0.3537
  225MOL0     H30374   0.987   2.305  10.072 -3.0804  1.0087 -1.9096
  225MOL0     H30375   0.828   2.281  10.144 -0.5928 -2.4618 -0.5928
  226MOL0     O30376   1.897   3.576   6.792 -0.6757  0.3293 -0.4615
  226MOL0     C30377   1.960   3.569   6.683 -0.9810 -0.1547 -0.9147
  226MOL0     O30378   1.900   3.574   6.563  0.1573  0.9554 -0.7631
  226MOL0     C30379   1.766   3.563   6.572  0.2834 -0.1958  0.3285
  226MOL0     C30380   1.707   3.454   6.515 -0.5860 -0.0521 -0.3069
  226MOL0     C30381   1.575   3.420   6.525  1.5597 -0.4054  0.4065
  226MOL0     C30382   1.489   3.515   6.574  0.3239  0.2969  0.2819
  226MOL0     O30383   1.356   3.482   6.564  0.8020 -0.5806 -0.0478
  226MOL0     C30384   1.251   3.581   6.570  0.7941  0.3660  0.0174
  226MOL0     C30385   1.250   3.661   6.431 -0.0204 -0.1160  0.3413
  226MOL0     C30386   1.179   3.597   6.322  0.1136  0.1200 -0.0513
  226MOL0     C30387   1.033   3.539   6.352  0.1785 -0.1150  0.0261
  226MOL0     C30388   0.951   3.512   6.226 -0.0339 -1.1489 -0.1385
  226MOL0     C30389   0.824   3.439   6.257  0.6882 -0.3829 -0.2214
  226MOL0     C30390   0.722   3.428   6.136 -0.4578 -0.2729  0.1127
  226MOL0     C30391   0.652   3.286   6.138 -0.1364  0.1200  0.1093
  226MOL0     N30392   0.600   3.227   6.260 -0.0353 -0.1304  0.2848
  226MOL0     C30393   0.648   3.113   6.319  0.1847  0.4397  0.2563
  226MOL0     C30394   0.558   3.091   6.417  0.4931 -0.1276 -0.1720
  226MOL0     C30395   0.569   2.974   6.506  0.4900 -0.7474 -0.1531
  226MOL0     C30396   0.522   2.844   6.434  0.8431 -0.5152  0.2396
  226MOL0     C30397   0.532   2.737   6.541 -0.5872  0.5515 -0.0606
  226MOL0     C30398   0.450   2.607   6.506 -0.3823  0.0386  0.6970
  226MOL0     O30399   0.461   2.504   6.608  0.1121 -0.7053  1.0707
  226MOL0     C30400   0.414   2.376   6.573  0.1531  0.0891 -0.8023
  226MOL0     C30401   0.288   2.360   6.520 -1.3822 -0.3933  0.5523
  226MOL0     C30402   0.253   2.227   6.481  0.7665 -0.8188  0.7541
  226MOL0     C30403   0.329   2.120   6.486  0.7302 -0.5817 -0.8538
  226MOL0     C30404   0.290   1.994   6.428  0.4220  0.7202 -0.9451
  226MOL0     O30405   0.154   1.976   6.390  0.3591  0.0825 -1.3209
  226MOL0     C30406   0.135   1.882   6.285 -1.0070 -0.4905  0.3918
  226MOL0     C30407   0.213   1.895   6.167  0.0120 -0.6752  0.3751
  226MOL0     C30408   0.189   1.798   6.066  0.2049  0.3001  0.8552
  226MOL0     C30409   0.099   1.687   6.091  0.2932  1.0221 -0.1976
  226MOL0     O30410   0.084   1.571   6.015 -0.1571  0.1804 -1.0208
  226MOL0     C30411   0.191   1.527   5.939  0.4934 -0.3203  0.6691
  226MOL0     C30412   0.211   1.379   5.944 -0.7512  0.5249 -0.0427
  226MOL0     C30413   0.291   1.310   6.057  0.1213  0.3487 -0.1649
  226MOL0     C30414   0.224   1.317   6.195  0.4698 -0.3180  0.5302
  226MOL0     C30415   0.329   1.361   6.295 -0.2859 -0.3518 -0.5401
  226MOL0     C30416   0.362   1.511   6.279 -0.4659 -0.4219 -0.0961
  226MOL0     C30417   0.465   1.545   6.384 -0.0535 -0.4099 -0.6623
  226MOL0     C30418   0.599   1.486   6.348 -0.1173 -0.6078 -0.6184
  226MOL0    Cl30419   0.673   1.403   6.482  0.2268  0.2535 -0.1115
  226MOL0     C30420   0.025   1.683   6.205 -0.1407  0.3325 -0.3003
  226MOL0     C30421   0.040   1.776   6.305  0.3441  0.7205  0.2368
  226MOL0     O30422   0.380   1.910   6.409  0.2436  0.1145  0.7402
  226MOL0     C30423   0.461   2.139   6.541 -0.5049 -0.2123 -0.3626
  226MOL0     C30424   0.497   2.267   6.584  0.9854  0.5079  0.1029
  226MOL0     N30425   0.460   3.193   6.411  1.0638  0.2612  0.4268
  226MOL0     N30426   0.482   3.266   6.308 -0.6653  0.4192  0.2049
  226MOL0     C30427   1.540   3.633   6.634 -0.5049 -0.0660 -0.4855
  226MOL0     C30428   1.679   3.657   6.644  0.1811  0.0984  0.6818
  226MOL0     C30429   2.108   3.559   6.676 -1.1894  0.2497 -0.2753
  226MOL0     C30430   2.180   3.552   6.796  0.4227  0.3298  0.9967
  226MOL0     C30431   2.323   3.561   6.795  0.8234  0.3978  0.8520
  226MOL0     C30432   2.398   3.566   6.680  0.5654 -0.3584  0.5679
  226MOL0     O30433   2.538   3.558   6.678  0.4648  0.0344 -0.0931
  226MOL0     C30434   2.618   3.593   6.793  0.1548  0.8363  0.3918
  226MOL0     C30435   2.763   3.613   6.759 -1.2963  0.5694  0.1870
  226MOL0     C30436   2.772   3.748   6.669  0.3580 -0.0953  0.7066
  226MOL0     C30437   2.920   3.790   6.658 -0.0386  0.3601  0.0002
  226MOL0     C30438   2.940   3.878   6.539 -0.1558  0.2588 -0.3187
  226MOL0     C30439   2.946   3.942   6.431  0.2349  0.2492 -0.1202
  226MOL0     C30440   2.330   3.563   6.561  0.5312  0.2556  0.2634
  226MOL0     C30441   2.190   3.562   6.558 -0.3397 -0.3506  0.5668
  226MOL0     C30442   2.127   3.539   6.421  0.3394 -0.2157  0.1165
  226MOL0     H30443   1.758   3.379   6.455 -0.9969  0.2864 -1.0920
  226MOL0     H30444   1.538   3.338   6.464 -0.1554  2.5829 -2.9712
  226MOL0     H30445   1.151   3.540   6.584  0.8524  0.7337  1.7658
  226MOL0     H30446   1.269   3.655   6.648  1.4645  0.8563 -0.5873
  226MOL0     H30447   1.352   3.688   6.401 -0.2648  1.3573  0.7482
  226MOL0     H30448   1.212   3.762   6.451  0.0724 -0.2728  1.4122
  226MOL0     H30449   1.240   3.524   6.267 -0.3749 -2.6843  2.8362
  226MOL0     H30450   1.178   3.685   6.257  3.7938  1.3901  1.3717
  226MOL0     H30451   1.044   3.444   6.406  3.0394  1.2355  2.1032
  226MOL0     H30452   0.977   3.607   6.416  1.2290 -2.1608  3.4013
  226MOL0     H30453   0.910   3.600   6.177 -0.8459 -1.9163 -0.8713
  226MOL0     H30454   1.011   3.456   6.154  1.5205 -1.0906  1.0461
  226MOL0     H30455   0.841   3.336   6.289 -1.9164  0.1124  3.4733
  226MOL0     H30456   0.779   3.496   6.340 -0.9036  0.8836 -1.8558
  226MOL0     H30457   0.774   3.444   6.041  3.1739  3.7137  2.3919
  226MOL0     H30458   0.649   3.507   6.152 -0.4371  1.0188 -4.5376
  226MOL0     H30459   0.570   3.308   6.069  0.7537  5.5501  0.3343
  226MOL0     H30460   0.720   3.220   6.085  2.0358  1.1078  1.5449
  226MOL0     H30461   0.706   3.030   6.282 -0.4030 -0.8313  2.0413
  226MOL0     H30462   0.672   2.959   6.537  0.1446 -0.0874  1.4018
  226MOL0     H30463   0.519   2.982   6.603  2.2067  1.0805  0.6411
  226MOL0     H30464   0.419   2.858   6.399  0.1251 -0.5666  2.2322
  226MOL0     H30465   0.586   2.819   6.349 -2.1643 -3.3517 -1.3955
  226MOL0     H30466   0.489   2.764   6.638 -2.5747 -3.3024  0.3581
  226MOL0     H30467   0.640   2.720   6.542 -0.4108  1.2355 -2.4749
  226MOL0     H30468   0.495   2.570   6.414 -0.8184 -2.3940  1.3722
  226MOL0     H30469   0.345   2.626   6.482  0.0784 -0.3174 -1.8021
  226MOL0     H30470   0.224   2.447   6.513 -1.9197 -0.6655  1.9035
  226MOL0     H30471   0.155   2.227   6.434  1.2943  2.4330 -0.6270
  226MOL0     H30472   0.276   1.983   6.151 -0.4143 -0.2534  0.9639
  226MOL0     H30473   0.239   1.800   5.970 -1.4840  1.1453 -0.0448
  226MOL0     H30474   0.165   1.540   5.834 -4.6375 -1.1486  1.5695
  226MOL0     H30475   0.291   1.566   5.959  2.8038 -5.0154 -0.2465
  226MOL0     H30476   0.113   1.331   5.933 -3.0806  3.6826  4.2179
  226MOL0     H30477   0.265   1.358   5.851  0.4767  0.1944  0.7266
  226MOL0     H30478   0.308   1.210   6.017 -0.3926  0.1970 -0.0062
  226MOL0     H30479   0.385   1.367   6.049  0.8698 -1.0306 -1.9221
  226MOL0     H30480   0.184   1.219   6.224 -0.7058  0.3234  1.1356
  226MOL0     H30481   0.129   1.370   6.204  1.5559  1.6354  1.1511
  226MOL0     H30482   0.419   1.301   6.279 -0.4537 -0.9038  0.5072
  226MOL0     H30483   0.293   1.347   6.397  0.5294  1.1736 -0.0044
  226MOL0     H30484   0.390   1.545   6.179 -0.5653  1.8135  0.5581
  226MOL0     H30485   0.269   1.568   6.293 -0.5713  0.2008 -2.8456
  226MOL0     H30486   0.428   1.519   6.483 -2.0656 -3.0966 -1.9811
  226MOL0     H30487   0.485   1.652   6.388  1.0044 -0.5044 -2.4810
  226MOL0     H30488   0.603   1.413   6.267 -0.8387 -1.0054 -0.2970
  226MOL0     H30489   0.667   1.565   6.314  0.9151 -1.7721 -1.3367
  226MOL0     H30490  -0.034   1.593   6.220  0.3801  0.2807  1.7632
  226MOL0     H30491  -0.024   1.768   6.392  2.4714  2.8419  2.1180
  226MOL0     H30492   0.536   2.061   6.548  0.4280  0.7425  0.7664
  226MOL0     H30493   0.599   2.274   6.620  1.6845  0.7643 -1.8027
  226MOL0     H30494   1.473   3.701   6.687 -1.2874  0.8903 -2.5951
  226MOL0     H30495   1.714   3.746   6.696  1.1513 -1.7033  3.3226
  226MOL0     H30496   2.125   3.544   6.890 -1.2722 -0.1071  0.0070
  226MOL0     H30497   2.380   3.555   6.888  0.8217  3.1691  1.1053
  226MOL0     H30498   2.603   3.519   6.872  0.0959  1.0002  0.5348
  226MOL0     H30499   2.579   3.686   6.834 -3.1175 -0.4415  0.4399
  226MOL0     H30500   2.801   3.523   6.710 -1.5551 -0.2557  1.4426
  226MOL0     H30501   2.820   3.628   6.852  1.0546 -2.5943 -0.5708
  226MOL0     H30502   2.715   3.830   6.715  0.2379  0.1803  0.0720
  226MOL0     H30503   2.723   3.723   6.575  0.6663 -4.4066  1.4847
  226MOL0     H30504   2.956   3.832   6.752 -1.4147 -2.6600  2.0142
  226MOL0     H30505   2.984   3.707   6.629 -0.5961  0.8653 -3.0009
  226MOL0     H30506   2.962   3.981   6.332  1.0106 -2.0923 -0.9860
  226MOL0     H30507   2.386   3.550   6.469  1.9308 -0.4604  1.1754
  226MOL0     H30508   2.077   3.625   6.376  0.3036 -1.0446 -1.5282
  226MOL0     H30509   2.206   3.509   6.351 -0.3109  1.0353 -1.2144
  226MOL0     H30510   2.054   3.458   6.430  0.3177  0.0135  2.7810
  227MOL0     O30511   4.916   1.246  10.093 -0.2524  0.5627 -0.2262
  227MOL0     C30512   4.848   1.331  10.144 -0.2061 -0.0680 -0.1641
  227MOL0     O30513   4.860   1.467  10.122 -0.1230  0.0153  0.3849
  227MOL0     C30514   4.971   1.508  10.056 -0.3092  0.5002 -1.3992
  227MOL0     C30515   5.062   1.602  10.114 -0.5606  0.2939  0.5406
  227MOL0     C30516   5.160   1.668  10.042  0.2147  0.3995 -0.0985
  227MOL0     C30517   5.200   1.616   9.922  0.5769  0.1143  1.4567
  227MOL0     O30518   5.300   1.669   9.842 -0.0405  0.1525  0.5327
  227MOL0     C30519   5.327   1.805   9.855 -0.5065 -0.5051 -0.3479
  227MOL0     C30520   5.401   1.853   9.732  0.8150 -0.4020  0.7521
  227MOL0     C30521   5.309   1.877   9.616  0.1258 -0.6171  0.3417
  227MOL0     C30522   5.364   1.982   9.517  0.0680 -0.0634  0.1093
  227MOL0     C30523   5.280   1.982   9.393 -0.2305  0.3676  0.2182
  227MOL0     C30524   5.359   2.067   9.287  0.4487 -0.0492  0.4622
  227MOL0     C30525   5.291   2.031   9.150 -0.3176 -1.9746 -0.9390
  227MOL0     C30526   5.344   1.914   9.081  1.1985  0.4125  0.2583
  227MOL0     N30527   5.282   1.878   8.953  0.5079  0.7007  0.8263
  227MOL0     C30528   5.280   1.960   8.840  0.3726  0.0295 -0.4999
  227MOL0     C30529   5.213   1.890   8.748 -0.0599 -0.4393  1.1833
  227MOL0     C30530   5.189   1.941   8.605  0.0905  0.2124 -0.3030
  227MOL0     C30531   5.074   2.036   8.608 -0.4797 -0.3069 -0.7520
  227MOL0     C30532   5.059   2.107   8.468  0.5238  0.2681 -0.4698
  227MOL0     C30533   4.928   2.188   8.470 -0.7472  1.1032 -0.2154
  227MOL0     O30534   4.933   2.294   8.580  0.0713  0.3049 -0.1168
  227MOL0     C30535   4.898   2.427   8.552 -0.6124  0.6439 -0.3712
  227MOL0     C30536   4.943   2.525   8.638  0.0066 -0.1266  0.8065
  227MOL0     C30537   4.898   2.652   8.630 -0.5248 -0.3089  0.1467
  227MOL0     C30538   4.838   2.699   8.516 -1.3597 -0.4982 -0.7170
  227MOL0     C30539   4.811   2.848   8.496 -0.2944  0.7968  0.3973
  227MOL0     O30540   4.903   2.934   8.561 -0.0401 -0.4744 -0.0080
  227MOL0     C30541   4.885   3.063   8.528 -0.0401 -0.1527  0.5027
  227MOL0     C30542   5.002   3.117   8.465  0.3124 -0.6628  0.0416
  227MOL0     C30543   4.984   3.249   8.423  0.5001 -0.8088  0.2468
  227MOL0     C30544   4.865   3.331   8.454 -0.7385  0.0009  0.4204
  227MOL0     O30545   4.845   3.463   8.423 -0.3028 -0.2282  0.6944
  227MOL0     C30546   4.940   3.518   8.328  0.2153  0.2954  0.4288
  227MOL0     C30547   4.901   3.651   8.303  0.3257  0.2259  0.0247
  227MOL0     C30548   4.773   3.653   8.226 -0.2548 -0.8133  0.6035
  227MOL0     C30549   4.712   3.792   8.241  0.2340 -0.2774 -0.3545
  227MOL0     C30550   4.587   3.786   8.152  0.1497  0.0160  0.8425
  227MOL0     C30551   4.463   3.836   8.221  0.4874 -0.0348 -0.2770
  227MOL0     C30552   4.359   3.861   8.108  0.6043  0.0039 -0.1870
  227MOL0     C30553   4.259   3.956   8.167 -0.5912 -0.4820  0.1276
  227MOL0    Cl30554   4.107   3.918   8.073 -0.4557  0.2776 -0.5244
  227MOL0     C30555   4.768   3.268   8.524 -0.6881 -0.4952  1.3187
  227MOL0     C30556   4.769   3.129   8.551  0.2152 -0.8188  0.1083
  227MOL0     O30557   4.719   2.877   8.416 -0.1992 -0.6325 -0.0217
  227MOL0     C30558   4.810   2.600   8.416 -0.2725 -0.4324 -1.1148
  227MOL0     C30559   4.823   2.462   8.444  0.2785 -0.9034 -0.1763
  227MOL0     N30560   5.178   1.767   8.801  0.5319 -0.6363  0.1657
  227MOL0     N30561   5.217   1.766   8.924  0.7329  0.0362 -0.0101
  227MOL0     C30562   5.130   1.508   9.866  0.0229  0.5851  0.5216
  227MOL0     C30563   5.007   1.464   9.923 -0.0175  0.2357 -0.4629
  227MOL0     C30564   4.734   1.290  10.216  0.7159  0.2324 -0.2106
  227MOL0     C30565   4.744   1.291  10.356  1.0164 -0.3915 -0.1792
  227MOL0     C30566   4.646   1.261  10.444  0.8749 -0.0534 -0.5989
  227MOL0     C30567   4.534   1.196  10.392  1.0313 -0.5545 -0.1815
  227MOL0     O30568   4.435   1.166  10.481  0.2366 -0.1304  0.5476
  227MOL0     C30569   4.382   1.027  10.478  0.0721  0.7616  0.4383
  227MOL0     C30570   4.248   1.016  10.398 -0.1779  0.7689  0.1572
  227MOL0     C30571   4.141   1.099  10.463  0.0862  0.2304 -0.8189
  227MOL0     C30572   3.994   1.085  10.421 -1.1069 -0.1446  0.2724
  227MOL0     C30573   3.940   0.951  10.450  0.8812  0.4957  0.5511
  227MOL0     C30574   3.894   0.844  10.483  0.0154  0.6931 -0.2766
  227MOL0     C30575   4.526   1.172  10.260 -0.4173 -0.0268  0.4395
  227MOL0     C30576   4.620   1.227  10.166 -0.3138  0.2442  0.1453
  227MOL0     C30577   4.585   1.213  10.016  0.5604  0.5222  0.1923
  227MOL0     H30578   5.057   1.628  10.219  0.4054  1.0009  0.4320
  227MOL0     H30579   5.214   1.748  10.092 -1.8048  0.8632  1.4842
  227MOL0     H30580   5.231   1.859   9.855 -0.1311  0.2997 -3.0113
  227MOL0     H30581   5.390   1.837   9.939 -4.1456 -0.1124  2.5079
  227MOL0     H30582   5.471   1.774   9.701 -2.8506 -3.6094 -0.1015
  227MOL0     H30583   5.452   1.945   9.760 -0.2201  1.1685 -2.0587
  227MOL0     H30584   5.226   1.933   9.659  1.8391  2.0018  0.4924
  227MOL0     H30585   5.279   1.783   9.568  1.6045 -0.1187 -1.7288
  227MOL0     H30586   5.387   2.084   9.548  1.0952 -0.1333 -0.3743
  227MOL0     H30587   5.463   1.944   9.491  0.1684 -0.5165  1.1180
  227MOL0     H30588   5.261   1.878   9.365 -0.4789 -0.6550  3.6985
  227MOL0     H30589   5.184   2.029   9.415 -0.3427 -0.2942  1.2431
  227MOL0     H30590   5.352   2.174   9.308  1.6383 -0.2737  2.2359
  227MOL0     H30591   5.465   2.040   9.280  0.7569  1.1873  0.2054
  227MOL0     H30592   5.296   2.124   9.092  0.1622 -1.7633 -0.5664
  227MOL0     H30593   5.182   2.025   9.156 -0.3909 -0.7035 -0.8700
  227MOL0     H30594   5.452   1.911   9.062  0.6726 -2.4431 -3.3789
  227MOL0     H30595   5.323   1.831   9.150 -3.3119  2.1882  1.3424
  227MOL0     H30596   5.329   2.054   8.815 -2.2407  1.4861 -0.4275
  227MOL0     H30597   5.277   1.997   8.574  0.1579  1.9799  2.6441
  227MOL0     H30598   5.170   1.858   8.537 -0.2786  2.6798 -3.4464
  227MOL0     H30599   4.986   1.985   8.648 -0.2587  1.1523  1.8087
  227MOL0     H30600   5.093   2.120   8.676  0.5485  0.0902 -1.5021
  227MOL0     H30601   5.054   2.032   8.388  0.0224  1.7727 -1.9131
  227MOL0     H30602   5.143   2.174   8.445  0.8492 -0.3050 -0.9915
  227MOL0     H30603   4.849   2.115   8.488 -0.7553  1.5892  2.1459
  227MOL0     H30604   4.917   2.217   8.365 -0.2662 -0.6826 -0.7884
  227MOL0     H30605   5.007   2.495   8.721  1.0242 -1.8718 -0.5459
  227MOL0     H30606   4.920   2.716   8.715 -0.7833 -0.2322  0.1574
  227MOL0     H30607   5.091   3.061   8.439 -0.0713 -1.0083 -0.5756
  227MOL0     H30608   5.068   3.289   8.366 -1.8833  2.6194 -1.2006
  227MOL0     H30609   5.040   3.505   8.370  0.9122 -0.1410 -1.2908
  227MOL0     H30610   4.937   3.452   8.241 -1.8478  0.3281  0.4194
  227MOL0     H30611   4.886   3.696   8.402 -0.3650 -0.7241  0.3723
  227MOL0     H30612   4.977   3.701   8.242 -1.2557  1.1964 -1.2489
  227MOL0     H30613   4.790   3.631   8.121 -3.5215  0.4586 -0.3413
  227MOL0     H30614   4.700   3.578   8.259 -3.7803  1.1834 -1.8947
  227MOL0     H30615   4.776   3.874   8.208  0.3456  0.1794  0.9319
  227MOL0     H30616   4.688   3.810   8.346  2.1096 -1.1650  0.2707
  227MOL0     H30617   4.566   3.684   8.118  2.7108 -0.2823 -0.1398
  227MOL0     H30618   4.608   3.857   8.072 -2.2370 -0.0519  0.0818
  227MOL0     H30619   4.422   3.755   8.282  0.3600 -0.3326 -0.7539
  227MOL0     H30620   4.480   3.924   8.285  0.4220 -1.8255  2.3842
  227MOL0     H30621   4.322   3.761   8.085 -1.5991 -0.2261  3.5699
  227MOL0     H30622   4.409   3.908   8.023  0.7410  2.0479  0.9660
  227MOL0     H30623   4.242   3.928   8.271 -2.1153 -1.1617 -0.2664
  227MOL0     H30624   4.293   4.057   8.144 -2.7658  0.0773 -0.9784
  227MOL0     H30625   4.685   3.336   8.540 -0.9636 -0.8848  1.5764
  227MOL0     H30626   4.688   3.086   8.609  0.3362 -0.2548  0.7107
  227MOL0     H30627   4.776   2.637   8.320  0.8516  1.0354 -0.9913
  227MOL0     H30628   4.781   2.384   8.382  0.0296  0.4201 -1.7513
  227MOL0     H30629   5.161   1.475   9.768  0.3618  3.0046 -0.2397
  227MOL0     H30630   4.950   1.391   9.866 -0.3216  0.9217 -1.0475
  227MOL0     H30631   4.826   1.348  10.398  1.4485  0.3289 -1.9340
  227MOL0     H30632   4.641   1.285  10.550 -0.0924 -1.1771 -0.3686
  227MOL0     H30633   4.355   0.990  10.577 -0.1320 -1.0661 -0.2705
  227MOL0     H30634   4.447   0.948  10.439 -0.0927  0.0905  1.4847
  227MOL0     H30635   4.210   0.913  10.401 -0.0905  0.7487  1.0374
  227MOL0     H30636   4.259   1.048  10.294  1.2542  0.8991  0.3298
  227MOL0     H30637   4.183   1.200  10.464  3.6542 -1.1034  0.7410
  227MOL0     H30638   4.141   1.060  10.565 -0.9239 -0.4236 -1.0587
  227MOL0     H30639   3.937   1.158  10.478 -2.4606 -1.3327  0.4979
  227MOL0     H30640   3.992   1.116  10.316 -0.1712  3.1841  1.1119
  227MOL0     H30641   3.861   0.748  10.517 -0.8508  1.9139  2.6650
  227MOL0     H30642   4.432   1.128  10.227 -0.4340  0.0981  0.3153
  227MOL0     H30643   4.674   1.231   9.955  0.4348  0.0401 -0.1438
  227MOL0     H30644   4.555   1.110   9.996  2.0950  0.3329 -1.3663
  227MOL0     H30645   4.494   1.270   9.995 -0.9969 -2.4431 -1.9051
  228MOL0     O30646   0.740   1.356   3.358  0.4039  1.0310  0.1581
  228MOL0     C30647   0.703   1.462   3.299 -0.4698 -0.6558 -0.1336
  228MOL0     O30648   0.797   1.554   3.251  0.4207 -0.6213 -0.1843
  228MOL0     C30649   0.923   1.569   3.302 -0.0346  0.1976  0.4784
  228MOL0     C30650   1.008   1.666   3.240  0.7171  0.6114 -0.2105
  228MOL0     C30651   1.138   1.685   3.291 -0.4852 -0.0787  0.1595
  228MOL0     C30652   1.183   1.624   3.409 -0.9188 -0.1399  0.1693
  228MOL0     O30653   1.300   1.659   3.469 -0.0364  0.2476 -0.2527
  228MOL0     C30654   1.405   1.669   3.377 -0.1936 -0.5418  1.0172
  228MOL0     C30655   1.508   1.559   3.419 -0.9317 -0.7888 -0.6074
  228MOL0     C30656   1.559   1.583   3.565 -0.3665  0.3641  0.4940
  228MOL0     C30657   1.606   1.727   3.595  0.6805 -0.6768  0.0102
  228MOL0     C30658   1.635   1.750   3.741 -0.8688  0.1947  0.6652
  228MOL0     C30659   1.625   1.897   3.779  0.7330 -0.9342  0.1778
  228MOL0     C30660   1.754   1.975   3.729 -0.7165 -0.7411 -0.1017
  228MOL0     C30661   1.724   2.096   3.644 -0.2175  0.2794 -0.4396
  228MOL0     N30662   1.631   2.190   3.701  0.0852  0.2700  0.5474
  228MOL0     C30663   1.654   2.309   3.770  0.3667  0.2736  0.2259
  228MOL0     C30664   1.545   2.366   3.812  0.7446  0.4277 -0.5827
  228MOL0     C30665   1.551   2.491   3.899 -0.6415 -0.1053  0.3775
  228MOL0     C30666   1.643   2.475   4.019  0.3689  0.0432 -0.6534
  228MOL0     C30667   1.661   2.604   4.096  0.1426 -0.5127 -0.0701
  228MOL0     C30668   1.703   2.723   3.999 -0.1256  0.4797 -0.0154
  228MOL0     O30669   1.770   2.831   4.070 -0.7593 -0.6886 -0.2952
  228MOL0     C30670   1.689   2.932   4.119  0.2356  0.8634 -0.3323
  228MOL0     C30671   1.558   2.923   4.160 -0.6507 -0.5673 -0.4730
  228MOL0     C30672   1.495   3.038   4.216 -0.5917  0.2618  0.2359
  228MOL0     C30673   1.569   3.151   4.243  0.3735 -0.5007 -0.1243
  228MOL0     C30674   1.505   3.271   4.300 -0.1737 -0.3743  0.7348
  228MOL0     O30675   1.369   3.279   4.312 -0.1808 -0.0737 -0.5924
  228MOL0     C30676   1.316   3.384   4.381 -0.4627  0.6387  0.8683
  228MOL0     C30677   1.240   3.478   4.318  0.3199 -0.1029  0.0367
  228MOL0     C30678   1.187   3.584   4.397 -0.3351 -0.2220  0.3469
  228MOL0     C30679   1.201   3.589   4.538  0.3086  1.0853 -0.4037
  228MOL0     O30680   1.161   3.685   4.630 -0.2374 -0.1640 -0.1580
  228MOL0     C30681   1.129   3.809   4.568  0.0306 -0.2416 -0.1762
  228MOL0     C30682   1.146   3.919   4.673 -0.3453  0.1682 -1.0509
  228MOL0     C30683   1.039   3.928   4.772  0.6238  0.6529  0.0979
  228MOL0     C30684   1.065   3.990   4.910  0.2604 -0.1413  0.8861
  228MOL0     C30685   0.954   3.973   5.013  0.4203  0.4280 -0.5711
  228MOL0     C30686   0.812   4.014   4.961 -1.0472  0.5682 -0.5397
  228MOL0     C30687   0.715   3.970   5.075 -0.3218 -0.2257  0.4380
  228MOL0     C30688   0.669   4.083   5.162 -0.6507 -0.3412  0.2240
  228MOL0    Cl30689   0.544   4.031   5.277  0.4067 -0.6636 -0.2651
  228MOL0     C30690   1.261   3.480   4.598  0.1849  0.1776  0.3849
  228MOL0     C30691   1.318   3.388   4.516 -0.4144 -0.2394  0.5313
  228MOL0     O30692   1.591   3.350   4.355  0.2088 -0.1902  0.3984
  228MOL0     C30693   1.710   3.152   4.206 -0.9172 -0.5284 -1.0445
  228MOL0     C30694   1.767   3.051   4.134 -0.3576  0.4492 -0.1073
  228MOL0     N30695   1.441   2.274   3.783 -0.2381  0.5262  0.5839
  228MOL0     N30696   1.494   2.173   3.717  0.2912 -1.3435  0.6763
  228MOL0     C30697   1.094   1.540   3.475 -0.0989  1.2636 -0.4267
  228MOL0     C30698   0.976   1.498   3.414  0.6184  0.3376 -0.0004
  228MOL0     C30699   0.576   1.465   3.244  0.9360  0.7369  0.3089
  228MOL0     C30700   0.532   1.590   3.205  0.9208 -0.1769  0.3925
  228MOL0     C30701   0.424   1.607   3.134 -0.2187 -0.0796  0.7051
  228MOL0     C30702   0.328   1.506   3.115  1.0270 -0.7371  0.1829
  228MOL0     O30703   0.204   1.524   3.053  0.3973 -0.5702  0.6098
  228MOL0     C30704   0.174   1.627   2.954  0.1141  0.9505 -0.3085
  228MOL0     C30705   0.097   1.579   2.847 -0.3789 -0.1391 -0.3848
  228MOL0     C30706   0.083   1.704   2.759  0.7360  0.5285 -0.9997
  228MOL0     C30707  -0.048   1.684   2.680  0.5415 -1.0479 -1.0338
  228MOL0     C30708  -0.048   1.553   2.617  0.5187 -0.5506  0.0728
  228MOL0     C30709  -0.045   1.440   2.579  0.2227 -0.3494 -0.2327
  228MOL0     C30710   0.356   1.381   3.165  0.2720  1.4404 -0.7296
  228MOL0     C30711   0.487   1.350   3.221  0.2556 -0.7512  0.2671
  228MOL0     C30712   0.506   1.213   3.278  0.3149  0.4909 -0.1510
  228MOL0     H30713   0.962   1.713   3.154 -2.2050 -0.7586  0.4689
  228MOL0     H30714   1.204   1.757   3.244  0.1147 -1.8389 -1.8428
  228MOL0     H30715   1.393   1.633   3.274  3.3722  0.0825  0.2429
  228MOL0     H30716   1.456   1.766   3.371  0.8401 -1.1608 -1.9827
  228MOL0     H30717   1.589   1.566   3.345 -0.9959  2.1271 -0.5361
  228MOL0     H30718   1.461   1.461   3.405 -4.1650  0.7214 -1.3802
  228MOL0     H30719   1.632   1.505   3.589 -0.9201 -0.9880 -1.9400
  228MOL0     H30720   1.471   1.558   3.624 -0.7531  0.9123  0.1580
  228MOL0     H30721   1.694   1.744   3.533 -0.7939  2.9070 -1.3426
  228MOL0     H30722   1.540   1.810   3.568  2.1764  0.3943 -0.4733
  228MOL0     H30723   1.563   1.692   3.798  0.2026 -0.6511  1.1977
  228MOL0     H30724   1.736   1.711   3.761 -1.2664 -2.0433 -1.1894
  228MOL0     H30725   1.528   1.936   3.747 -0.6847 -2.2100  2.5950
  228MOL0     H30726   1.629   1.906   3.888  1.3674 -2.6959  0.3325
  228MOL0     H30727   1.818   1.906   3.673  0.8878  0.2957  0.4097
  228MOL0     H30728   1.808   2.001   3.820 -3.1587 -1.2203  1.5850
  228MOL0     H30729   1.817   2.145   3.613  0.2617 -0.1731  0.2557
  228MOL0     H30730   1.694   2.067   3.542  4.8865  2.5709 -2.9808
  228MOL0     H30731   1.754   2.350   3.771  1.0049 -1.2047  0.7868
  228MOL0     H30732   1.592   2.569   3.835 -2.9415  2.0522  1.3854
  228MOL0     H30733   1.449   2.518   3.927 -0.9913  2.3513 -2.7502
  228MOL0     H30734   1.607   2.402   4.093  1.8019  0.1205  0.1685
  228MOL0     H30735   1.736   2.429   3.985  0.2237 -0.1931 -0.7329
  228MOL0     H30736   1.738   2.594   4.173  0.6449 -2.3687 -0.7656
  228MOL0     H30737   1.568   2.626   4.149  0.2304  2.6620 -1.0086
  228MOL0     H30738   1.615   2.751   3.940 -0.6555 -0.7014  0.1908
  228MOL0     H30739   1.780   2.678   3.937  1.6024 -0.2590  2.4898
  228MOL0     H30740   1.489   2.840   4.149 -0.7425 -0.5809  0.1607
  228MOL0     H30741   1.389   3.028   4.237 -1.1298  3.9336 -0.0122
  228MOL0     H30742   1.216   3.464   4.213  1.4108 -1.1175 -0.0954
  228MOL0     H30743   1.131   3.663   4.347  0.0065  1.0319  1.8386
  228MOL0     H30744   1.204   3.841   4.495  0.9605  2.7391  1.8694
  228MOL0     H30745   1.035   3.802   4.513  0.1989 -0.3320 -0.4520
  228MOL0     H30746   1.243   3.910   4.723  0.1271 -0.0518 -1.9627
  228MOL0     H30747   1.159   4.014   4.620 -2.2030  1.7694  1.1964
  228MOL0     H30748   0.955   3.978   4.724  1.4984  1.7308 -0.3538
  228MOL0     H30749   1.010   3.826   4.799 -1.8966  1.8132  2.2348
  228MOL0     H30750   1.086   4.097   4.898  0.9263 -0.4510 -1.2313
  228MOL0     H30751   1.162   3.961   4.951  1.3831 -2.2734 -2.7648
  228MOL0     H30752   0.972   4.038   5.100  2.2692  0.1600 -0.7230
  228MOL0     H30753   0.948   3.870   5.048  0.1422  0.5773 -0.1611
  228MOL0     H30754   0.807   4.122   4.943 -3.0521  0.1973 -2.6459
  228MOL0     H30755   0.799   3.955   4.870  3.1844  0.1198 -1.0425
  228MOL0     H30756   0.756   3.893   5.141 -1.2551 -1.3799 -0.2740
  228MOL0     H30757   0.619   3.937   5.034 -0.7980  2.4806 -0.8689
  228MOL0     H30758   0.744   4.143   5.215 -0.9548  0.0365  0.2323
  228MOL0     H30759   0.613   4.146   5.093 -3.1221  0.3005  2.6194
  228MOL0     H30760   1.274   3.467   4.705  3.1362 -0.8572  0.0064
  228MOL0     H30761   1.384   3.318   4.565 -0.2138 -0.2980  0.1770
  228MOL0     H30762   1.765   3.245   4.218  1.8231 -2.0794 -0.7842
  228MOL0     H30763   1.872   3.060   4.108 -0.0751  0.2273  0.9169
  228MOL0     H30764   1.127   1.485   3.563 -0.6337  1.0832 -0.3377
  228MOL0     H30765   0.916   1.429   3.472  1.4055 -0.8726 -0.5803
  228MOL0     H30766   0.578   1.686   3.227  1.1642 -0.4500  1.0847
  228MOL0     H30767   0.405   1.712   3.115  0.7243  0.1463  0.9725
  228MOL0     H30768   0.270   1.666   2.919  0.0669 -1.1040 -3.1174
  228MOL0     H30769   0.127   1.709   3.009  0.0492  0.3375  0.5740
  228MOL0     H30770  -0.005   1.549   2.875 -0.6683 -1.2544 -2.4279
  228MOL0     H30771   0.151   1.498   2.797 -0.5640  0.5847 -1.8156
  228MOL0     H30772   0.170   1.710   2.693  0.2800 -2.1536 -1.9739
  228MOL0     H30773   0.075   1.796   2.817  0.9143 -1.1818  2.0020
  228MOL0     H30774  -0.136   1.703   2.742  1.3186  2.4390 -0.7962
  228MOL0     H30775  -0.051   1.759   2.601  1.1826  0.8330  0.6283
  228MOL0     H30776  -0.035   1.337   2.551 -2.1261 -1.2499  1.8776
  228MOL0     H30777   0.288   1.297   3.158  1.5797  0.2514  0.1237
  228MOL0     H30778   0.436   1.134   3.248 -1.3933  1.5192  0.9093
  228MOL0     H30779   0.604   1.170   3.257 -0.3010 -1.6875  1.0969
  228MOL0     H30780   0.491   1.211   3.387 -2.5078 -1.2953 -0.4597
  229MOL0     O30781   7.804   4.830   3.627  0.6051  0.6036  0.1202
  229MOL0     C30782   7.684   4.831   3.656  1.3644  0.1045  1.1128
  229MOL0     O30783   7.633   4.767   3.756  0.5964 -0.1686  0.1100
  229MOL0     C30784   7.715   4.741   3.870  0.2917 -0.1215  0.5678
  229MOL0     C30785   7.751   4.612   3.908  0.2854  0.0838 -0.1517
  229MOL0     C30786   7.792   4.589   4.038  0.0335 -0.5711 -0.0333
  229MOL0     C30787   7.831   4.699   4.121  0.2941 -0.3080 -0.0863
  229MOL0     O30788   7.878   4.679   4.252  0.0448  1.2025  1.0291
  229MOL0     C30789   8.014   4.733   4.259 -0.6327 -0.7582 -0.1071
  229MOL0     C30790   8.107   4.645   4.345  0.4185  0.4536  0.6188
  229MOL0     C30791   8.148   4.527   4.274  0.5473  0.0175  0.4651
  229MOL0     C30792   8.270   4.459   4.324 -0.1327  0.4023  0.0723
  229MOL0     C30793   8.397   4.529   4.270  0.4243 -0.1955  0.5706
  229MOL0     C30794   8.535   4.455   4.308  0.4357 -0.5450  0.4659
  229MOL0     C30795   8.645   4.458   4.201 -0.0487  0.6012  0.7289
  229MOL0     C30796   8.772   4.414   4.270  0.3931 -0.0469  0.5690
  229MOL0     N30797   8.888   4.420   4.180 -1.1458  0.4031 -0.3216
  229MOL0     C30798   8.953   4.543   4.148  0.7019  1.1132 -0.2611
  229MOL0     C30799   9.063   4.505   4.068  0.0835 -0.4500 -0.5070
  229MOL0     C30800   9.153   4.590   3.980  0.7700 -0.2298 -0.2732
  229MOL0     C30801   9.223   4.712   4.038  0.0045  0.0373  0.3303
  229MOL0     C30802   9.349   4.665   4.118 -0.0572 -0.0904 -0.1462
  229MOL0     C30803   9.455   4.604   4.032  0.1901 -0.3484 -0.7109
  229MOL0     O30804   9.490   4.692   3.924 -0.3044 -0.2293  0.7351
  229MOL0     C30805   9.562   4.802   3.939 -0.6477 -0.6097 -0.1926
  229MOL0     C30806   9.583   4.876   3.822 -0.3603  0.1693  0.8531
  229MOL0     C30807   9.661   4.986   3.823  0.5294  0.3780 -0.2653
  229MOL0     C30808   9.730   5.029   3.935 -0.4873  0.0396 -0.1075
  229MOL0     C30809   9.833   5.141   3.927 -0.4135  0.3314  0.4558
  229MOL0     O30810   9.861   5.212   3.815  0.3989  1.0550 -0.4429
  229MOL0     C30811   9.973   5.304   3.814 -0.2343  0.0303 -0.5078
  229MOL0     C30812   9.952   5.432   3.865  0.1660 -0.3142 -0.0569
  229MOL0     C30813  10.068   5.516   3.870  0.2575  0.2766 -0.0725
  229MOL0     C30814  10.187   5.479   3.814  0.0129  0.6805 -0.2008
  229MOL0     O30815  10.290   5.570   3.810 -0.7633 -0.8153 -0.2288
  229MOL0     C30816  10.289   5.660   3.708  0.3266  0.2130  1.1015
  229MOL0     C30817  10.276   5.607   3.565  0.7351  0.6982 -0.2044
  229MOL0     C30818  10.351   5.685   3.459  1.4348 -0.2550 -0.7915
  229MOL0     C30819  10.262   5.798   3.410 -0.7667  0.2307 -0.5999
  229MOL0     C30820  10.345   5.910   3.348 -0.2510 -0.6426 -0.3513
  229MOL0     C30821  10.416   5.864   3.218 -0.1494 -0.8393  0.9388
  229MOL0     C30822  10.465   5.988   3.140 -0.0967 -0.6906  0.0703
  229MOL0     C30823  10.566   5.942   3.033  0.5875  0.1127  0.6682
  229MOL0    Cl30824  10.686   6.060   2.980  0.1216 -0.3096 -0.4208
  229MOL0     C30825  10.208   5.349   3.769 -0.5661  0.5581 -0.4527
  229MOL0     C30826  10.096   5.263   3.762  0.3409  0.0573  0.5348
  229MOL0     O30827   9.887   5.162   4.028 -0.8969 -0.5133 -0.5804
  229MOL0     C30828   9.708   4.962   4.058 -0.3957  0.7779  0.0192
  229MOL0     C30829   9.627   4.847   4.059 -0.0657  0.4743  0.2656
  229MOL0     N30830   9.061   4.360   4.070  0.6686 -0.0423  0.7954
  229MOL0     N30831   8.954   4.308   4.132 -0.8058 -0.0272 -0.2804
  229MOL0     C30832   7.801   4.829   4.072 -0.0853 -0.7205  0.1074
  229MOL0     C30833   7.738   4.849   3.958 -0.6204 -0.3520  0.6936
  229MOL0     C30834   7.589   4.880   3.553  0.0526 -0.5045  0.3397
  229MOL0     C30835   7.630   4.888   3.421 -0.8217 -0.1448  0.6338
  229MOL0     C30836   7.547   4.917   3.314  0.4930 -0.9390 -0.2557
  229MOL0     C30837   7.404   4.938   3.334 -0.1340 -0.5952  0.1973
  229MOL0     O30838   7.324   4.963   3.227  0.9032 -0.2450 -0.2868
  229MOL0     C30839   7.186   4.993   3.258 -0.7763  0.5984  0.2015
  229MOL0     C30840   7.107   5.018   3.139 -0.1764  0.4284 -1.0780
  229MOL0     C30841   7.103   5.164   3.092 -0.0797 -0.2567 -0.6509
  229MOL0     C30842   7.215   5.212   3.002  0.1549  0.5610 -0.6214
  229MOL0     C30843   7.167   5.325   2.927  0.8820 -0.3504 -0.0229
  229MOL0     C30844   7.122   5.428   2.869  0.0885 -0.3963 -0.5938
  229MOL0     C30845   7.363   4.936   3.460 -0.2159 -0.0831 -0.0826
  229MOL0     C30846   7.451   4.916   3.571  0.4621 -0.4727 -0.7576
  229MOL0     C30847   7.403   4.923   3.707  0.5766 -0.4085  0.4091
  229MOL0     H30848   7.738   4.526   3.843  1.5745  1.6963 -2.7216
  229MOL0     H30849   7.808   4.488   4.076 -0.5867 -1.5179 -2.1469
  229MOL0     H30850   8.063   4.736   4.162  0.0353  0.6826  0.2530
  229MOL0     H30851   8.002   4.838   4.287 -0.3490 -0.8071  0.2070
  229MOL0     H30852   8.054   4.618   4.437 -1.5733 -0.5866 -0.7787
  229MOL0     H30853   8.199   4.700   4.365  0.3354  1.1353 -0.7563
  229MOL0     H30854   8.174   4.572   4.178  0.5852 -3.1574 -1.1529
  229MOL0     H30855   8.063   4.458   4.268 -0.5871  0.8762  3.9792
  229MOL0     H30856   8.266   4.461   4.433 -0.0190 -2.9453  0.2186
  229MOL0     H30857   8.282   4.358   4.283  3.3015  0.6913  0.0933
  229MOL0     H30858   8.387   4.507   4.163  0.7316  1.3140  0.2003
  229MOL0     H30859   8.410   4.637   4.284 -2.1181  0.0303  1.5464
  229MOL0     H30860   8.571   4.496   4.403  1.2972 -1.7078  0.6597
  229MOL0     H30861   8.521   4.347   4.320  1.0403 -0.6006  0.6715
  229MOL0     H30862   8.642   4.561   4.165 -1.5197  0.3613  0.1026
  229MOL0     H30863   8.618   4.389   4.120  2.2876 -1.5715  1.6679
  229MOL0     H30864   8.802   4.475   4.356 -0.8009  0.6074  0.5465
  229MOL0     H30865   8.766   4.312   4.310 -1.0301 -0.0246  0.4521
  229MOL0     H30866   8.931   4.648   4.166  5.0913  2.5371 -1.7552
  229MOL0     H30867   9.227   4.521   3.939  0.9327  0.3253 -0.9341
  229MOL0     H30868   9.088   4.624   3.898 -0.6036 -3.4360 -0.6782
  229MOL0     H30869   9.254   4.777   3.956 -0.5575 -2.0225 -1.5950
  229MOL0     H30870   9.161   4.773   4.105 -1.7102  0.2705 -1.3935
  229MOL0     H30871   9.309   4.588   4.184  2.1085 -1.3952 -0.2585
  229MOL0     H30872   9.387   4.746   4.181  3.1769 -1.5783  0.0058
  229MOL0     H30873   9.422   4.507   3.993 -2.5837  0.5974 -0.9390
  229MOL0     H30874   9.540   4.584   4.098 -0.7724  0.8286  0.9746
  229MOL0     H30875   9.555   4.834   3.727  3.0919 -2.8581  0.9415
  229MOL0     H30876   9.687   5.034   3.730 -0.0700  1.0919 -0.0731
  229MOL0     H30877   9.851   5.466   3.884 -0.2919 -0.3872 -2.1409
  229MOL0     H30878  10.049   5.617   3.903 -2.5561  0.1812 -1.0983
  229MOL0     H30879  10.207   5.731   3.724  0.6611  0.7372  0.5201
  229MOL0     H30880  10.379   5.722   3.702  0.1140  0.4214 -0.1690
  229MOL0     H30881  10.307   5.502   3.565 -0.0483  0.4612 -0.1821
  229MOL0     H30882  10.170   5.604   3.539  1.0543 -2.1602 -1.6761
  229MOL0     H30883  10.448   5.720   3.497  0.3210  0.7823  1.2692
  229MOL0     H30884  10.368   5.611   3.381 -1.2978  0.4272 -2.1571
  229MOL0     H30885  10.214   5.839   3.500 -1.1306 -0.0071 -0.6809
  229MOL0     H30886  10.185   5.753   3.346  0.5037 -1.3910 -1.0484
  229MOL0     H30887  10.417   5.945   3.423 -0.1661  0.1874 -0.8111
  229MOL0     H30888  10.278   5.997   3.344  1.2334  0.6169  0.8550
  229MOL0     H30889  10.502   5.800   3.240  1.9883  1.3820 -0.3596
  229MOL0     H30890  10.343   5.817   3.151 -0.0427  0.5615 -0.2088
  229MOL0     H30891  10.514   6.059   3.208 -1.2688  0.3334 -0.1208
  229MOL0     H30892  10.379   6.025   3.083  2.5983  0.1871 -3.8189
  229MOL0     H30893  10.626   5.869   3.088  2.0956  1.0086  0.2613
  229MOL0     H30894  10.516   5.893   2.949  4.5186  1.9736 -3.0735
  229MOL0     H30895  10.309   5.320   3.744 -1.0356  0.6827 -2.6846
  229MOL0     H30896  10.099   5.167   3.711  0.5122  1.5107 -2.3785
  229MOL0     H30897   9.767   4.993   4.144 -2.0139  1.0599  1.0754
  229MOL0     H30898   9.619   4.785   4.148 -0.4059  0.8929  0.5301
  229MOL0     H30899   7.840   4.903   4.141  0.3910 -1.7806  1.0152
  229MOL0     H30900   7.711   4.951   3.932  0.2736 -0.9812 -3.2630
  229MOL0     H30901   7.733   4.871   3.392 -0.7322  0.6689  0.4458
  229MOL0     H30902   7.577   4.915   3.209  0.6663  3.4198 -0.4650
  229MOL0     H30903   7.185   5.072   3.334 -2.1291  0.4871  0.3258
  229MOL0     H30904   7.143   4.903   3.304 -1.7872  0.3137 -1.2225
  229MOL0     H30905   7.003   4.995   3.163  0.6364 -1.1315  1.3246
  229MOL0     H30906   7.135   4.953   3.055  2.0588 -1.2356  0.8172
  229MOL0     H30907   7.093   5.227   3.180 -1.9829 -0.2110 -0.8442
  229MOL0     H30908   7.007   5.165   3.038 -1.5625  0.9412  1.8344
  229MOL0     H30909   7.311   5.226   3.054  0.9010 -1.6584 -1.2993
  229MOL0     H30910   7.240   5.144   2.920  0.5640 -0.7624  0.5560
  229MOL0     H30911   7.083   5.524   2.840 -3.9842 -1.8780 -0.7455
  229MOL0     H30912   7.260   4.941   3.492 -0.1261  0.0791  0.1845
  229MOL0     H30913   7.306   4.970   3.719  0.6930 -0.0989  0.1673
  229MOL0     H30914   7.390   4.825   3.753 -1.2246 -0.1478  0.5049
  229MOL0     H30915   7.467   4.983   3.773  1.0433  1.6656 -1.7456
  230MOL0     O30916   1.392   6.312   6.992  0.3105 -0.3911 -0.6012
  230MOL0     C30917   1.512   6.327   6.970  1.1971  0.8869  0.0323
  230MOL0     O30918   1.585   6.425   7.021  0.2450 -0.3531  0.1274
  230MOL0     C30919   1.532   6.482   7.136  0.1934  0.7081 -0.7311
  230MOL0     C30920   1.426   6.572   7.128  0.0469 -0.0860 -0.7607
  230MOL0     C30921   1.376   6.643   7.244  0.1149 -0.8128  0.7683
  230MOL0     C30922   1.441   6.617   7.362  0.2351 -0.3930  0.0421
  230MOL0     O30923   1.401   6.671   7.481 -0.8075 -0.5042  0.2678
  230MOL0     C30924   1.277   6.732   7.497  0.4153  0.1175 -0.8186
  230MOL0     C30925   1.254   6.762   7.641  0.0761  0.0653  0.1999
  230MOL0     C30926   1.254   6.637   7.733  0.0010  0.2194 -0.2320
  230MOL0     C30927   1.227   6.688   7.873  0.4340  0.3182  0.9950
  230MOL0     C30928   1.240   6.581   7.979  0.5072  0.0317  0.1574
  230MOL0     C30929   1.223   6.626   8.125 -0.5134  0.0002  0.0203
  230MOL0     C30930   1.239   6.498   8.215  0.0730 -0.0621  1.4952
  230MOL0     C30931   1.235   6.530   8.369 -0.0609  0.6843 -0.1331
  230MOL0     N30932   1.366   6.583   8.398 -0.1628  0.1600  0.6740
  230MOL0     C30933   1.389   6.701   8.468 -0.6906 -0.1680 -0.3863
  230MOL0     C30934   1.515   6.701   8.505 -1.0694 -0.9167  0.0650
  230MOL0     C30935   1.597   6.802   8.578  0.6987 -0.2382  0.7581
  230MOL0     C30936   1.523   6.852   8.702  0.3594  0.3670 -0.4708
  230MOL0     C30937   1.580   6.992   8.742  0.6073 -0.3042  0.8273
  230MOL0     C30938   1.730   6.986   8.779  0.5560 -0.7328 -0.5484
  230MOL0     O30939   1.771   7.099   8.855  0.0214 -0.2733  0.7193
  230MOL0     C30940   1.894   7.090   8.916 -0.4619  0.7374 -0.4884
  230MOL0     C30941   1.936   7.198   8.990 -0.0166 -0.1329 -0.4159
  230MOL0     C30942   2.058   7.191   9.061  0.3510  0.4821 -0.4139
  230MOL0     C30943   2.143   7.080   9.057  1.0640  0.7570 -0.5860
  230MOL0     C30944   2.265   7.072   9.134 -0.5999 -0.1691  0.4741
  230MOL0     O30945   2.359   6.985   9.095 -0.1962 -0.0634 -0.3690
  230MOL0     C30946   2.486   7.007   9.144 -0.0830 -0.6951 -0.0077
  230MOL0     C30947   2.563   7.122   9.118  0.5150  0.8851  0.0051
  230MOL0     C30948   2.693   7.143   9.187  0.8137 -0.3522 -0.1470
  230MOL0     C30949   2.746   7.047   9.278  0.5876 -0.1658 -0.1790
  230MOL0     O30950   2.869   7.054   9.344 -0.4231  0.2393  1.0738
  230MOL0     C30951   2.966   7.141   9.277 -0.3130 -0.7857 -1.2284
  230MOL0     C30952   3.084   7.149   9.384 -0.5663 -0.3770  0.2878
  230MOL0     C30953   3.147   7.013   9.413 -0.0203  0.6274  0.3004
  230MOL0     C30954   3.244   7.023   9.530 -0.1482  0.5466 -0.4961
  230MOL0     C30955   3.336   6.896   9.534  0.0746 -0.4163  0.0543
  230MOL0     C30956   3.462   6.926   9.611 -0.0773  0.1841 -0.2425
  230MOL0     C30957   3.445   6.926   9.769 -0.7630  0.2514  0.6385
  230MOL0     C30958   3.589   6.921   9.834  0.6395 -0.6024 -0.1064
  230MOL0    Cl30959   3.581   6.992   9.995 -0.0391  0.0302 -0.3397
  230MOL0     C30960   2.664   6.939   9.303  0.0675  0.0805 -0.1696
  230MOL0     C30961   2.545   6.920   9.234  1.1115 -0.1203 -0.2961
  230MOL0     O30962   2.276   7.154   9.230 -0.2809 -0.4590  0.7112
  230MOL0     C30963   2.095   6.970   8.976 -0.6771  0.3783 -0.4699
  230MOL0     C30964   1.978   6.977   8.905 -0.2066  0.7909  0.1801
  230MOL0     N30965   1.565   6.585   8.466 -0.2352  0.0962  0.0956
  230MOL0     N30966   1.480   6.513   8.396 -0.7243 -0.6355  0.5705
  230MOL0     C30967   1.546   6.525   7.375  0.0008 -0.6214  0.1319
  230MOL0     C30968   1.598   6.468   7.258 -1.1668  0.8613  0.0173
  230MOL0     C30969   1.556   6.218   6.879 -0.1217 -0.5921  0.0129
  230MOL0     C30970   1.464   6.149   6.797 -0.8759  0.5013  0.3983
  230MOL0     C30971   1.505   6.027   6.741 -0.5860  0.3279  0.2373
  230MOL0     C30972   1.639   5.980   6.740  0.4794 -0.3774 -1.0537
  230MOL0     O30973   1.671   5.864   6.679 -0.0880  0.0777 -0.2566
  230MOL0     C30974   1.808   5.812   6.682  0.3659 -0.7587  0.1066
  230MOL0     C30975   1.829   5.699   6.586 -1.0040 -0.6708 -0.4338
  230MOL0     C30976   1.874   5.738   6.448  0.1572 -0.0068 -0.1713
  230MOL0     C30977   1.774   5.829   6.378 -1.1793 -0.2468 -1.0073
  230MOL0     C30978   1.820   5.856   6.242  0.7085 -1.1615  0.3100
  230MOL0     C30979   1.855   5.881   6.127  0.2543  0.4423 -0.1431
  230MOL0     C30980   1.725   6.063   6.811  0.2285  0.2812  0.5413
  230MOL0     C30981   1.689   6.175   6.879 -0.3136  1.0845 -0.2243
  230MOL0     C30982   1.796   6.236   6.958  0.3675  0.0859 -0.0741
  230MOL0     H30983   1.388   6.583   7.027 -2.3288 -0.7162 -0.0228
  230MOL0     H30984   1.289   6.707   7.237  0.3318 -0.3054  2.2605
  230MOL0     H30985   1.277   6.829   7.447  0.9815 -0.1745 -1.3938
  230MOL0     H30986   1.191   6.679   7.454 -1.9292  1.2463  2.1061
  230MOL0     H30987   1.165   6.826   7.639 -1.0345 -1.4184 -2.4096
  230MOL0     H30988   1.335   6.822   7.684  2.8440 -2.4569 -1.1474
  230MOL0     H30989   1.350   6.586   7.727  1.0669  2.2872 -2.2499
  230MOL0     H30990   1.171   6.573   7.700 -0.4802  0.1557  1.0377
  230MOL0     H30991   1.272   6.787   7.888 -1.4184  2.1985 -3.8818
  230MOL0     H30992   1.120   6.708   7.860  0.5317 -1.1475 -4.1501
  230MOL0     H30993   1.169   6.500   7.962 -0.6121  1.1235 -0.5204
  230MOL0     H30994   1.337   6.534   7.963  0.6887  0.7178 -0.8952
  230MOL0     H30995   1.312   6.685   8.147 -0.5666  0.0402  0.1276
  230MOL0     H30996   1.127   6.675   8.149  0.0779 -0.4282  4.0752
  230MOL0     H30997   1.334   6.449   8.190  0.5760  1.7953 -0.5134
  230MOL0     H30998   1.159   6.430   8.187 -0.1639  0.3533  1.1646
  230MOL0     H30999   1.156   6.600   8.397 -0.3605 -0.4487  2.1720
  230MOL0     H31000   1.205   6.440   8.424  1.0084  0.5526  0.2674
  230MOL0     H31001   1.319   6.779   8.493 -0.9105 -0.2668 -0.6938
  230MOL0     H31002   1.700   6.776   8.604  0.7688  1.5646  2.5153
  230MOL0     H31003   1.594   6.887   8.509 -1.6759 -0.4887  0.4947
  230MOL0     H31004   1.418   6.869   8.680  0.9804  2.5742 -2.0744
  230MOL0     H31005   1.521   6.793   8.794  0.8600  0.4328 -0.4130
  230MOL0     H31006   1.523   7.029   8.828 -1.1974  1.8244 -1.1909
  230MOL0     H31007   1.578   7.068   8.664  2.0653  0.2228  1.2475
  230MOL0     H31008   1.785   6.985   8.685  0.8176 -0.4367 -0.4010
  230MOL0     H31009   1.746   6.903   8.849  0.0838  0.4886  1.0678
  230MOL0     H31010   1.895   7.298   8.987 -0.8026 -0.4616 -1.2531
  230MOL0     H31011   2.076   7.279   9.122 -2.5032  2.1327 -1.7307
  230MOL0     H31012   2.519   7.181   9.039  0.6002  0.3225 -0.4700
  230MOL0     H31013   2.752   7.227   9.151  3.7229 -3.0199 -2.1120
  230MOL0     H31014   3.003   7.095   9.185  1.6260  3.2157 -2.6623
  230MOL0     H31015   2.933   7.244   9.258  0.2454 -0.9481 -3.3092
  230MOL0     H31016   3.160   7.208   9.331 -1.1928  1.3675  1.2583
  230MOL0     H31017   3.045   7.198   9.474 -1.8795  2.7943 -1.8354
  230MOL0     H31018   3.069   6.943   9.445 -0.1391  0.3643 -0.5369
  230MOL0     H31019   3.204   6.986   9.324 -1.0986  1.8386 -0.7897
  230MOL0     H31020   3.195   7.030   9.627  0.9686 -3.8228  0.6078
  230MOL0     H31021   3.309   7.109   9.515 -1.2115  1.4005 -0.3246
  230MOL0     H31022   3.362   6.877   9.429 -2.4190 -2.2720 -0.3419
  230MOL0     H31023   3.291   6.808   9.581  1.7388 -1.7948 -0.8181
  230MOL0     H31024   3.527   6.843   9.582 -0.3149 -0.2250  0.3762
  230MOL0     H31025   3.504   7.021   9.578 -1.3927  1.0580  0.5235
  230MOL0     H31026   3.393   6.835   9.800  1.7156 -1.9268 -1.2080
  230MOL0     H31027   3.379   7.011   9.790  0.0784  1.8968 -2.6762
  230MOL0     H31028   3.628   6.819   9.827 -0.3746 -0.8893 -2.4713
  230MOL0     H31029   3.661   6.987   9.785  0.5887 -0.8804 -0.5574
  230MOL0     H31030   2.717   6.863   9.359 -1.0971  0.7543  1.9771
  230MOL0     H31031   2.495   6.829   9.266  0.4229  0.2787 -0.2170
  230MOL0     H31032   2.153   6.879   8.975 -2.2263 -0.6900 -2.8680
  230MOL0     H31033   1.940   6.890   8.852 -2.0499  1.8408 -0.3026
  230MOL0     H31034   1.581   6.493   7.472 -0.1868 -4.1475 -0.8310
  230MOL0     H31035   1.684   6.401   7.265 -1.9126 -0.1480 -0.2855
  230MOL0     H31036   1.362   6.179   6.776 -0.7230 -0.4437 -2.0410
  230MOL0     H31037   1.439   5.978   6.671  1.8498  2.7369 -4.1753
  230MOL0     H31038   1.826   5.770   6.782 -1.7533  0.4384  1.0730
  230MOL0     H31039   1.878   5.894   6.663 -0.7564  1.2693  3.6854
  230MOL0     H31040   1.737   5.639   6.588 -0.8788 -0.8536  0.3631
  230MOL0     H31041   1.906   5.630   6.622  0.2670 -0.6727 -2.9819
  230MOL0     H31042   1.885   5.648   6.388  0.5528  0.6356 -1.0975
  230MOL0     H31043   1.973   5.782   6.463 -0.7112  0.7408  5.4095
  230MOL0     H31044   1.677   5.779   6.377 -1.9322  0.8472  2.6411
  230MOL0     H31045   1.755   5.918   6.439  1.8766  1.1442 -1.8912
  230MOL0     H31046   1.884   5.915   6.030  0.2916  2.0386  0.3854
  230MOL0     H31047   1.828   6.028   6.813  0.4661  0.2471 -3.3268
  230MOL0     H31048   1.889   6.185   6.931 -0.2464 -1.1769  0.1272
  230MOL0     H31049   1.808   6.344   6.946 -4.1926  0.9936  1.4392
  230MOL0     H31050   1.772   6.220   7.064  3.0156  0.7722  0.7058
  231MOL0     O31051   5.362   7.205   4.831 -0.0130  0.5626 -0.0972
  231MOL0     C31052   5.357   7.315   4.888 -1.2250  0.3691 -0.4857
  231MOL0     O31053   5.333   7.435   4.826 -0.4920  0.6736  0.0528
  231MOL0     C31054   5.324   7.426   4.698  0.5090 -0.1926  0.4779
  231MOL0     C31055   5.190   7.414   4.646 -0.0810  1.3565  0.4154
  231MOL0     C31056   5.190   7.400   4.504 -0.1974 -0.2748 -0.4266
  231MOL0     C31057   5.305   7.405   4.426  0.1379 -0.1219 -0.7335
  231MOL0     O31058   5.302   7.379   4.290  0.2095 -0.0326 -0.3334
  231MOL0     C31059   5.195   7.316   4.222 -0.3553  0.9008 -0.6152
  231MOL0     C31060   5.273   7.283   4.095 -0.6217  0.3404  0.3537
  231MOL0     C31061   5.416   7.224   4.127 -0.9562  0.1182 -0.1589
  231MOL0     C31062   5.532   7.318   4.077  0.5195  0.5644 -0.4852
  231MOL0     C31063   5.673   7.258   4.090  0.4416 -0.3561  0.0676
  231MOL0     C31064   5.780   7.343   4.024  0.0886  0.0088 -0.2148
  231MOL0     C31065   5.910   7.267   3.988 -0.1015  0.8298  0.5150
  231MOL0     C31066   5.985   7.214   4.104 -0.1786  0.6251 -1.2914
  231MOL0     N31067   6.090   7.117   4.057 -0.7105  0.4225  0.3438
  231MOL0     C31068   6.220   7.140   4.019  0.0381 -0.0020  1.3141
  231MOL0     C31069   6.273   7.025   3.982  0.3298  0.4076 -0.1708
  231MOL0     C31070   6.412   7.019   3.919  0.4697  0.2800 -0.5892
  231MOL0     C31071   6.399   7.045   3.768  0.0829 -0.0138  0.1357
  231MOL0     C31072   6.330   6.942   3.684  0.6304 -0.6264 -0.3827
  231MOL0     C31073   6.282   6.975   3.539  0.6938 -0.8148 -0.8563
  231MOL0     O31074   6.190   7.079   3.555  0.6188  0.1720 -0.1205
  231MOL0     C31075   6.129   7.128   3.448 -0.2131 -0.9915  0.8768
  231MOL0     C31076   6.032   7.229   3.471 -0.0592 -0.1968  0.5072
  231MOL0     C31077   5.964   7.294   3.378 -1.0194 -0.1331  0.8763
  231MOL0     C31078   5.989   7.273   3.242 -0.7335  0.5256 -0.4301
  231MOL0     C31079   5.919   7.348   3.129 -0.3391  0.2394 -0.5462
  231MOL0     O31080   5.926   7.291   3.010  0.2400  0.5001 -0.7605
  231MOL0     C31081   5.861   7.338   2.897 -0.4457 -0.2605  0.4420
  231MOL0     C31082   5.929   7.323   2.775  0.2610 -0.7241  0.5051
  231MOL0     C31083   5.879   7.368   2.656 -0.3546 -0.3003 -0.3874
  231MOL0     C31084   5.762   7.446   2.650 -0.3796 -0.9698  0.2058
  231MOL0     O31085   5.704   7.504   2.538 -0.0246 -0.8052 -0.2185
  231MOL0     C31086   5.788   7.536   2.428 -0.1675 -0.2120  0.4135
  231MOL0     C31087   5.672   7.571   2.323  0.1159 -0.1119 -0.0210
  231MOL0     C31088   5.722   7.663   2.214  0.1337 -0.0301 -0.3795
  231MOL0     C31089   5.682   7.815   2.232  0.3485 -0.0313  0.0640
  231MOL0     C31090   5.676   7.898   2.104  0.8927  0.9976 -0.2380
  231MOL0     C31091   5.789   7.874   2.014  0.3539  0.5527  1.0153
  231MOL0     C31092   5.797   7.985   1.908 -0.3416 -0.3601  0.2277
  231MOL0     C31093   5.915   7.963   1.816  0.0170 -0.6954  0.9017
  231MOL0    Cl31094   6.064   7.968   1.900 -0.7675 -0.1567 -0.5782
  231MOL0     C31095   5.697   7.474   2.770  1.2086 -0.0081 -0.4467
  231MOL0     C31096   5.738   7.417   2.890 -0.7300 -0.0189  1.0942
  231MOL0     O31097   5.866   7.456   3.152  0.1253  0.3614 -0.1724
  231MOL0     C31098   6.095   7.176   3.214  0.6493  0.3777  0.0659
  231MOL0     C31099   6.165   7.118   3.320  0.2257  1.1022 -0.3244
  231MOL0     N31100   6.181   6.929   4.003  0.1113 -0.2611  0.0137
  231MOL0     N31101   6.073   6.985   4.039  0.3042  0.8110  0.4030
  231MOL0     C31102   5.433   7.407   4.483  0.3520 -1.1764 -0.9050
  231MOL0     C31103   5.436   7.420   4.623 -0.8094 -0.3657  0.4116
  231MOL0     C31104   5.372   7.330   5.041 -0.1922 -0.4675  0.3220
  231MOL0     C31105   5.339   7.460   5.099 -0.3999 -0.2817 -0.1755
  231MOL0     C31106   5.343   7.476   5.233 -0.1113 -0.5009  0.4285
  231MOL0     C31107   5.350   7.368   5.325  0.3463  0.0129  0.5063
  231MOL0     O31108   5.354   7.367   5.468 -0.0280  0.1258  0.5048
  231MOL0     C31109   5.331   7.496   5.531 -0.8267 -0.4363 -0.5679
  231MOL0     C31110   5.338   7.499   5.687  0.3114 -0.9235  0.0254
  231MOL0     C31111   5.324   7.644   5.751 -0.1460  0.4753 -0.1382
  231MOL0     C31112   5.222   7.740   5.701 -0.2654 -0.2022  0.8224
  231MOL0     C31113   5.085   7.691   5.721  0.3497  0.7898 -0.6668
  231MOL0     C31114   4.975   7.642   5.724  0.7496 -0.0359  0.1984
  231MOL0     C31115   5.358   7.242   5.267 -0.5079  0.4453  0.2114
  231MOL0     C31116   5.384   7.223   5.135  0.6230 -0.5530  0.5000
  231MOL0     C31117   5.370   7.082   5.080 -0.1290  0.2408  0.4474
  231MOL0     H31118   5.105   7.411   4.713  0.8016  1.7908  1.6049
  231MOL0     H31119   5.091   7.366   4.473 -0.4072 -0.0635  0.0040
  231MOL0     H31120   5.169   7.227   4.281 -0.4975  2.0988  1.2028
  231MOL0     H31121   5.113   7.389   4.220 -0.4349  0.9322  1.4666
  231MOL0     H31122   5.270   7.370   4.029 -0.3453  1.6133  1.9600
  231MOL0     H31123   5.212   7.210   4.040 -3.9973  0.5970  3.4219
  231MOL0     H31124   5.427   7.133   4.068 -1.8174  0.1254 -0.3398
  231MOL0     H31125   5.439   7.216   4.234 -0.7612 -0.8176 -0.2649
  231MOL0     H31126   5.514   7.353   3.975  2.2630  2.5413 -0.1958
  231MOL0     H31127   5.528   7.394   4.156  0.9198 -0.1970  0.2775
  231MOL0     H31128   5.696   7.250   4.197  3.1056  0.0276 -0.4038
  231MOL0     H31129   5.666   7.159   4.044  0.1509  0.4565 -1.6911
  231MOL0     H31130   5.759   7.391   3.928  1.0887  1.4085  0.2321
  231MOL0     H31131   5.802   7.421   4.098 -0.4938 -1.9758  2.1785
  231MOL0     H31132   5.971   7.336   3.928 -1.0910 -0.2722 -1.8715
  231MOL0     H31133   5.878   7.180   3.931  2.7663 -2.5620  3.6272
  231MOL0     H31134   6.029   7.296   4.162 -0.5751 -0.2343  0.2608
  231MOL0     H31135   5.921   7.160   4.174  0.1364  2.5293  0.5807
  231MOL0     H31136   6.272   7.235   4.014  4.0304 -1.9764 -2.3090
  231MOL0     H31137   6.479   7.088   3.971 -3.4770  3.6643  0.5819
  231MOL0     H31138   6.441   6.915   3.930 -0.9489 -0.3005 -1.8903
  231MOL0     H31139   6.357   7.146   3.765  0.5307  0.2710  2.1862
  231MOL0     H31140   6.498   7.052   3.724 -0.1774 -2.6429 -1.0615
  231MOL0     H31141   6.242   6.902   3.736  0.6035  1.3611  1.2094
  231MOL0     H31142   6.403   6.861   3.672 -0.2836 -1.8033  1.5483
  231MOL0     H31143   6.232   6.887   3.499  0.2531  0.4308 -3.1985
  231MOL0     H31144   6.370   6.994   3.476  0.0870 -0.2390 -1.5459
  231MOL0     H31145   6.024   7.265   3.574  2.0295  0.7461  0.3837
  231MOL0     H31146   5.893   7.370   3.408  2.7127  3.7775  0.7439
  231MOL0     H31147   6.029   7.281   2.768  0.3331 -0.2863 -3.6311
  231MOL0     H31148   5.925   7.362   2.558 -3.2661 -1.0097 -1.8453
  231MOL0     H31149   5.848   7.626   2.436  0.2982 -0.3312 -1.2705
  231MOL0     H31150   5.858   7.463   2.385  0.6385  1.1735 -0.7176
  231MOL0     H31151   5.637   7.480   2.275 -1.8768  0.3855  0.3926
  231MOL0     H31152   5.591   7.624   2.374 -0.9103 -0.8773 -0.8208
  231MOL0     H31153   5.831   7.656   2.215  0.4172  2.6498  1.8075
  231MOL0     H31154   5.672   7.629   2.123 -0.0040  1.8373 -1.0496
  231MOL0     H31155   5.755   7.859   2.300  0.4643 -0.1111 -0.0066
  231MOL0     H31156   5.588   7.810   2.286  0.6986  0.7447  0.7623
  231MOL0     H31157   5.666   8.003   2.130  0.6694  0.8883  0.1370
  231MOL0     H31158   5.580   7.876   2.055 -0.2635  1.3625  1.7311
  231MOL0     H31159   5.882   7.857   2.069  0.2863 -3.5498  0.1450
  231MOL0     H31160   5.776   7.784   1.954 -2.1471  0.9367  0.9032
  231MOL0     H31161   5.792   8.088   1.943 -4.9936 -0.6759  1.1405
  231MOL0     H31162   5.705   7.981   1.848 -1.6548  0.3539  2.1179
  231MOL0     H31163   5.902   7.862   1.775 -2.4161 -0.6070  1.3192
  231MOL0     H31164   5.913   8.030   1.730 -2.0374  3.0662  3.5937
  231MOL0     H31165   5.612   7.542   2.772  0.8636 -0.3951 -1.2962
  231MOL0     H31166   5.686   7.443   2.982 -1.6677 -0.2784  0.6509
  231MOL0     H31167   6.116   7.125   3.121  2.8695 -0.8228  1.1607
  231MOL0     H31168   6.247   7.056   3.285 -1.9414 -1.8661 -0.5484
  231MOL0     H31169   5.524   7.421   4.426  0.0043  0.8071 -1.0416
  231MOL0     H31170   5.534   7.429   4.668  0.3706 -2.8979 -1.4456
  231MOL0     H31171   5.320   7.537   5.025 -0.9548  0.0861  0.3407
  231MOL0     H31172   5.329   7.573   5.280  1.5549  1.0742 -2.0636
  231MOL0     H31173   5.237   7.534   5.489  0.9019  2.7571 -1.8860
  231MOL0     H31174   5.410   7.568   5.508  0.9525 -1.1714  2.5650
  231MOL0     H31175   5.434   7.456   5.717  1.7659  3.3332  2.3438
  231MOL0     H31176   5.256   7.437   5.723  2.2172 -3.1293  0.8124
  231MOL0     H31177   5.421   7.693   5.736  0.3039 -0.0400  0.9466
  231MOL0     H31178   5.316   7.638   5.860  1.6969  0.1725  0.0148
  231MOL0     H31179   5.231   7.836   5.752 -0.0998 -0.2643  0.9104
  231MOL0     H31180   5.232   7.763   5.594  0.1340  0.6416  1.0311
  231MOL0     H31181   4.879   7.594   5.718  0.5011  0.5530 -0.7967
  231MOL0     H31182   5.354   7.159   5.338 -1.0611 -0.5803 -0.9756
  231MOL0     H31183   5.272   7.058   5.040  1.0381 -2.6098 -0.9398
  231MOL0     H31184   5.444   7.048   5.007 -2.4291 -1.1248 -1.3788
  231MOL0     H31185   5.381   7.010   5.161 -0.2359 -1.5388 -1.0639
  232MOL0     O31186   8.827   9.436   0.702 -0.4569  0.0450 -0.1258
  232MOL0     C31187   8.933   9.477   0.745 -0.1539  0.1791 -0.0978
  232MOL0     O31188   9.008   9.582   0.703 -0.0995  0.0858  0.6328
  232MOL0     C31189   8.977   9.666   0.597 -0.3750  0.0675  0.2551
  232MOL0     C31190   9.077   9.748   0.551  0.3517 -0.0901  0.6168
  232MOL0     C31191   9.058   9.850   0.461  0.6582  0.4233  0.2862
  232MOL0     C31192   8.936   9.870   0.404 -0.0121  0.3627 -0.4989
  232MOL0     O31193   8.926   9.989   0.345 -0.3959  0.6506  0.3348
  232MOL0     C31194   8.839  10.007   0.230  0.6350  0.2255 -0.5222
  232MOL0     C31195   8.868   9.910   0.115  0.4271 -0.0452  0.6802
  232MOL0     C31196   9.021   9.894   0.091 -1.0889  0.4982  0.0315
  232MOL0     C31197   9.039   9.841  -0.057  0.0115 -0.1530 -0.1327
  232MOL0     C31198   9.040   9.967  -0.140 -0.4098  0.2355  0.7288
  232MOL0     C31199   9.066   9.910  -0.284  0.0685 -0.2370 -0.6516
  232MOL0     C31200   9.066  10.023  -0.379  0.6152 -1.0738  0.8150
  232MOL0     C31201   9.091   9.984  -0.529 -0.6885 -0.3046  0.3729
  232MOL0     N31202   8.994   9.893  -0.578 -0.0721  0.3905 -0.3571
  232MOL0     C31203   9.026   9.798  -0.666  0.2605  0.4630 -0.0279
  232MOL0     C31204   8.916   9.721  -0.695  0.3469 -0.2494  0.2949
  232MOL0     C31205   8.905   9.597  -0.781  0.4133 -0.6886  0.2698
  232MOL0     C31206   9.035   9.558  -0.854 -0.0914 -0.4123  0.0106
  232MOL0     C31207   9.013   9.440  -0.936 -0.0347  0.3425 -0.0068
  232MOL0     C31208   9.149   9.371  -0.970  1.4011  0.1798  0.3629
  232MOL0     O31209   9.131   9.327  -1.111  0.3388  0.4291 -1.0675
  232MOL0     C31210   9.062   9.199  -1.131 -0.9749  0.3098 -0.4334
  232MOL0     C31211   9.019   9.108  -1.038 -0.1711 -0.6665 -1.1007
  232MOL0     C31212   8.954   8.991  -1.074 -0.6833  0.0604 -0.1740
  232MOL0     C31213   8.954   8.953  -1.212  0.0154 -0.1956  0.4747
  232MOL0     C31214   8.871   8.837  -1.255 -0.0316  0.0314 -1.2045
  232MOL0     O31215   8.819   8.752  -1.161  0.4554 -0.2753 -0.1275
  232MOL0     C31216   8.759   8.629  -1.193 -0.3146 -0.2013  0.1746
  232MOL0     C31217   8.809   8.512  -1.148  0.5373  0.0615 -0.0099
  232MOL0     C31218   8.743   8.390  -1.160  0.3253 -0.0049  0.5948
  232MOL0     C31219   8.615   8.390  -1.222  0.6513  0.5396  0.3095
  232MOL0     O31220   8.539   8.279  -1.246  0.8415  0.0071  0.3509
  232MOL0     C31221   8.605   8.157  -1.257 -0.1989  1.2520  0.1246
  232MOL0     C31222   8.515   8.038  -1.297  0.0856 -0.7042 -0.1740
  232MOL0     C31223   8.392   8.020  -1.210 -0.3228  0.6274  0.9875
  232MOL0     C31224   8.440   7.952  -1.083 -0.8105 -0.8201  0.3646
  232MOL0     C31225   8.331   7.930  -0.976  0.3433 -0.5374 -0.1535
  232MOL0     C31226   8.388   7.869  -0.856  0.1531 -0.5587 -0.6415
  232MOL0     C31227   8.312   7.898  -0.729  0.0982  0.4484  0.0667
  232MOL0     C31228   8.331   7.787  -0.625  0.2816 -0.4510 -0.9072
  232MOL0    Cl31229   8.479   7.692  -0.622 -0.0759  0.0886 -0.1445
  232MOL0     C31230   8.566   8.509  -1.271  0.6794  0.2216 -0.1732
  232MOL0     C31231   8.635   8.625  -1.248 -0.1504 -0.4484  0.0231
  232MOL0     O31232   8.858   8.823  -1.375 -0.3125  0.4162 -0.6228
  232MOL0     C31233   9.014   9.032  -1.306 -0.2001 -0.9363 -1.0523
  232MOL0     C31234   9.058   9.155  -1.262  0.0741  0.7534  0.3235
  232MOL0     N31235   8.809   9.780  -0.625 -0.0588  0.4408 -0.4581
  232MOL0     N31236   8.863   9.874  -0.557  0.0026 -0.0502 -0.7278
  232MOL0     C31237   8.824   9.790   0.442 -0.4071 -0.1783 -0.9017
  232MOL0     C31238   8.850   9.680   0.533  0.1771  0.6070  0.3559
  232MOL0     C31239   8.989   9.410   0.861  0.9756 -0.8481 -1.0709
  232MOL0     C31240   9.018   9.492   0.975 -0.4101  0.7629  0.6989
  232MOL0     C31241   9.054   9.425   1.093  0.6848 -0.2799  0.4501
  232MOL0     C31242   9.053   9.282   1.100  0.3083 -0.5191 -0.0670
  232MOL0     O31243   9.080   9.220   1.226 -0.0511 -0.1716 -0.3629
  232MOL0     C31244   9.036   9.273   1.355  0.3438 -0.7657  0.9022
  232MOL0     C31245   8.939   9.182   1.428 -0.1796  0.2927 -0.3810
  232MOL0     C31246   8.800   9.194   1.352  0.5516  0.6032 -0.2613
  232MOL0     C31247   8.731   9.330   1.355 -0.3663  0.0263  0.3062
  232MOL0     C31248   8.602   9.344   1.294  0.6097  0.1426  0.5072
  232MOL0     C31249   8.490   9.347   1.251 -0.1587  0.3203 -0.0370
  232MOL0     C31250   9.035   9.205   0.986  0.1439  0.1024  0.3489
  232MOL0     C31251   8.992   9.272   0.870  0.3977  0.6843 -0.1605
  232MOL0     C31252   8.980   9.179   0.749  0.6614  0.2703 -0.6250
  232MOL0     H31253   9.167   9.739   0.612  0.2057  1.0637  1.0277
  232MOL0     H31254   9.130   9.931   0.456  0.0632  0.9040 -1.0890
  232MOL0     H31255   8.738   9.999   0.270  1.8646  1.4806  3.3107
  232MOL0     H31256   8.834  10.111   0.197  2.7666  0.2862 -0.8171
  232MOL0     H31257   8.819   9.951   0.027 -2.6099  0.8678  2.6384
  232MOL0     H31258   8.823   9.813   0.134  0.5734 -0.5687 -1.4060
  232MOL0     H31259   9.059   9.828   0.169 -0.1845  1.4477  0.4324
  232MOL0     H31260   9.066   9.990   0.118 -5.2579  2.2122  1.7925
  232MOL0     H31261   9.133   9.787  -0.070  0.1475 -0.5541  2.0171
  232MOL0     H31262   8.962   9.769  -0.086 -0.8919  0.7501 -0.0447
  232MOL0     H31263   8.949  10.028  -0.136 -0.1811  1.0154 -2.7478
  232MOL0     H31264   9.118  10.042  -0.123  0.3220 -0.4661  0.5705
  232MOL0     H31265   9.163   9.861  -0.272  0.1405 -0.2950 -1.3948
  232MOL0     H31266   8.996   9.828  -0.303  1.9139 -2.5193  1.7167
  232MOL0     H31267   9.137  10.102  -0.352  1.7331 -0.7036 -2.6448
  232MOL0     H31268   8.970  10.075  -0.388  1.1313  0.2051  2.2511
  232MOL0     H31269   9.097  10.074  -0.590  0.8377 -1.0218 -0.5906
  232MOL0     H31270   9.188   9.933  -0.530  1.5702  3.4962  1.8440
  232MOL0     H31271   9.121   9.797  -0.720  0.0447 -0.1788 -0.4125
  232MOL0     H31272   8.881   9.514  -0.713  2.4954  0.3845  2.4633
  232MOL0     H31273   8.827   9.601  -0.857  0.9084  1.8102 -0.2030
  232MOL0     H31274   9.078   9.642  -0.910  0.0144  0.3501  1.1901
  232MOL0     H31275   9.110   9.527  -0.780  1.3087 -1.0101 -1.5972
  232MOL0     H31276   8.967   9.468  -1.031 -1.7885 -0.9722  0.4091
  232MOL0     H31277   8.949   9.366  -0.887  0.4588  0.0289  0.1685
  232MOL0     H31278   9.160   9.286  -0.902 -3.2208 -0.4072  0.6513
  232MOL0     H31279   9.231   9.444  -0.977 -0.9598  3.5698  4.0703
  232MOL0     H31280   9.021   9.136  -0.933 -2.1122  3.9092 -2.0523
  232MOL0     H31281   8.911   8.931  -0.994  0.4149 -3.7288 -2.1896
  232MOL0     H31282   8.907   8.517  -1.102 -0.7391 -0.9308  3.1556
  232MOL0     H31283   8.784   8.294  -1.130 -0.4317  0.1162  2.1315
  232MOL0     H31284   8.686   8.164  -1.330  1.8253  3.1282  2.3800
  232MOL0     H31285   8.647   8.126  -1.161 -1.3252 -0.3808  0.1231
  232MOL0     H31286   8.482   8.038  -1.401 -1.0047 -0.5688  0.1548
  232MOL0     H31287   8.573   7.945  -1.300  1.2168  0.0059 -0.6357
  232MOL0     H31288   8.336   8.113  -1.193 -2.4116 -0.4522  0.3342
  232MOL0     H31289   8.329   7.948  -1.262  0.0728  1.5497 -0.8376
  232MOL0     H31290   8.517   8.019  -1.043 -0.4855 -2.5686  2.9183
  232MOL0     H31291   8.492   7.860  -1.109  3.8845  1.7453 -0.5293
  232MOL0     H31292   8.249   7.873  -1.020 -0.1994 -0.4020  0.6787
  232MOL0     H31293   8.289   8.024  -0.938 -2.1504 -2.5405  2.3850
  232MOL0     H31294   8.382   7.763  -0.879  1.5116  0.0186 -4.3134
  232MOL0     H31295   8.495   7.888  -0.849  0.0425 -0.6015  1.8839
  232MOL0     H31296   8.209   7.920  -0.759  0.0455 -3.0671 -3.2054
  232MOL0     H31297   8.353   7.981  -0.671  0.2853  1.0054 -0.8458
  232MOL0     H31298   8.325   7.834  -0.527 -0.8378 -1.6862 -0.3585
  232MOL0     H31299   8.249   7.716  -0.636 -0.0611  0.1935 -2.8960
  232MOL0     H31300   8.466   8.509  -1.313 -0.4859 -1.7586  2.3306
  232MOL0     H31301   8.582   8.714  -1.281  1.6159 -0.1512 -2.2550
  232MOL0     H31302   9.012   9.011  -1.412 -2.4693 -2.3135 -0.8020
  232MOL0     H31303   9.095   9.220  -1.341 -2.0380  2.0536  0.3429
  232MOL0     H31304   8.723   9.810   0.406 -0.5284 -1.4990 -1.3334
  232MOL0     H31305   8.764   9.617   0.556  0.0815  0.2737 -0.8273
  232MOL0     H31306   9.019   9.600   0.983 -0.6726  0.6165  3.8511
  232MOL0     H31307   9.105   9.473   1.176  4.7494 -2.2436 -0.6447
  232MOL0     H31308   8.995   9.374   1.352 -0.3137 -1.0266  0.9686
  232MOL0     H31309   9.120   9.278   1.425 -2.9662 -0.1330  5.2546
  232MOL0     H31310   8.919   9.212   1.531  0.2906 -0.5213 -0.0461
  232MOL0     H31311   8.979   9.080   1.425  1.0572  0.6603  1.8835
  232MOL0     H31312   8.723   9.131   1.396 -0.0596  1.7416  0.3541
  232MOL0     H31313   8.806   9.170   1.246 -4.0298  0.7244 -0.7431
  232MOL0     H31314   8.715   9.356   1.460  1.8152 -1.7496  1.1445
  232MOL0     H31315   8.803   9.403   1.317  0.0864  0.2805  1.6194
  232MOL0     H31316   8.389   9.348   1.214 -0.2783  5.4967 -0.3940
  232MOL0     H31317   9.042   9.097   0.992 -0.5584 -0.1370 -2.1032
  232MOL0     H31318   9.024   9.220   0.658  3.3201 -4.4689 -1.8558
  232MOL0     H31319   9.037   9.088   0.771 -2.5615 -2.4976 -2.6991
  232MOL0     H31320   8.877   9.142   0.743  0.0820  1.2416  2.0851
  233MOL0     O31321   1.732   8.799   6.724  0.2569 -0.7478 -0.2011
  233MOL0     C31322   1.605   8.810   6.710 -0.4214 -0.4462 -0.2385
  233MOL0     O31323   1.527   8.925   6.715 -0.5248 -0.2734  0.0448
  233MOL0     C31324   1.595   9.033   6.748 -0.3675  0.1418 -0.2770
  233MOL0     C31325   1.675   9.098   6.656  0.0675 -0.9635  0.8578
  233MOL0     C31326   1.739   9.215   6.695  0.1427  0.9103  1.0543
  233MOL0     C31327   1.719   9.266   6.822  0.4878 -0.6793 -1.0095
  233MOL0     O31328   1.762   9.394   6.866 -0.3622 -0.1679 -1.0189
  233MOL0     C31329   1.876   9.445   6.795 -1.3194 -1.5868  0.4816
  233MOL0     C31330   1.963   9.546   6.864 -1.0280  0.6299 -0.0582
  233MOL0     C31331   1.921   9.687   6.881  0.4465  0.2481  0.2947
  233MOL0     C31332   2.026   9.782   6.956  0.1874  0.1178  0.0200
  233MOL0     C31333   1.979   9.923   6.991  0.9546  0.9858 -0.0589
  233MOL0     C31334   2.049   9.970   7.130 -0.3706  0.0131  0.1023
  233MOL0     C31335   2.203  10.002   7.112  0.0438 -0.9377  0.7217
  233MOL0     C31336   2.278   9.971   7.230  0.4479 -0.1162 -1.0013
  233MOL0     N31337   2.249  10.032   7.363 -0.8880 -0.0186 -0.0365
  233MOL0     C31338   2.320  10.142   7.410  0.5191  0.0622  0.3127
  233MOL0     C31339   2.240  10.216   7.481 -0.1743 -1.1714 -0.3237
  233MOL0     C31340   2.265  10.354   7.537  0.5317  0.0432  0.1114
  233MOL0     C31341   2.235  10.443   7.422 -0.5225 -0.5156  0.4193
  233MOL0     C31342   2.250  10.591   7.461  0.7370 -0.5439  0.1950
  233MOL0     C31343   2.152  10.650   7.567  0.5955  0.4023 -0.5587
  233MOL0     O31344   2.024  10.632   7.506 -0.1250 -1.3551 -0.0982
  233MOL0     C31345   1.915  10.630   7.583  0.3945  0.6986 -0.0675
  233MOL0     C31346   1.809  10.561   7.531  0.2736  0.4364  0.6298
  233MOL0     C31347   1.700  10.540   7.606  0.9444  0.7316 -0.2365
  233MOL0     C31348   1.689  10.600   7.733 -0.0025 -0.2968  0.9370
  233MOL0     C31349   1.567  10.588   7.821 -0.0456  0.5803 -1.0806
  233MOL0     O31350   1.538  10.460   7.866  0.7865 -0.0070 -0.7499
  233MOL0     C31351   1.413  10.442   7.921 -0.8356  0.0727 -0.1921
  233MOL0     C31352   1.302  10.517   7.890  0.5928  0.5286 -0.1154
  233MOL0     C31353   1.182  10.507   7.962  0.2245  0.2850 -0.6036
  233MOL0     C31354   1.162  10.395   8.041  0.4608  1.4236  0.4771
  233MOL0     O31355   1.031  10.372   8.080  0.5579 -0.1262  0.0483
  233MOL0     C31356   1.005  10.245   8.144  0.3230  1.1028 -0.4724
  233MOL0     C31357   0.848  10.222   8.163 -0.6002  0.2430 -0.4786
  233MOL0     C31358   0.811  10.083   8.205  0.2324  0.2252 -0.9382
  233MOL0     C31359   0.712  10.074   8.326  0.4355 -0.0347 -0.1095
  233MOL0     C31360   0.659   9.929   8.354  0.3210 -0.8480 -0.4680
  233MOL0     C31361   0.746   9.862   8.458 -0.2762  0.4535 -0.2380
  233MOL0     C31362   0.706   9.720   8.470  0.6751 -0.0179 -0.2762
  233MOL0     C31363   0.810   9.650   8.560  1.4782 -0.6239 -0.4411
  233MOL0    Cl31364   0.755   9.481   8.584 -0.5432 -0.1668  0.1404
  233MOL0     C31365   1.274  10.307   8.065  0.2376 -0.2234 -0.1303
  233MOL0     C31366   1.393  10.334   8.008  0.0162 -0.7070 -0.1817
  233MOL0     O31367   1.522  10.700   7.859 -0.3460  0.1618  0.7605
  233MOL0     C31368   1.794  10.682   7.779 -0.4035 -0.5260  0.0030
  233MOL0     C31369   1.906  10.693   7.709 -0.1809  0.1989 -0.8670
  233MOL0     N31370   2.120  10.146   7.485 -0.0346 -0.0996 -1.0055
  233MOL0     N31371   2.125  10.046   7.414  0.4461  0.0532  0.4451
  233MOL0     C31372   1.646   9.189   6.916 -0.2208 -0.2274  0.2109
  233MOL0     C31373   1.581   9.073   6.875  0.5883  0.2872  0.0532
  233MOL0     C31374   1.538   8.686   6.666 -0.4277  0.6483 -0.2367
  233MOL0     C31375   1.417   8.695   6.595 -0.4133 -0.1874 -0.3840
  233MOL0     C31376   1.349   8.591   6.548  0.0816 -0.2488  0.1888
  233MOL0     C31377   1.408   8.463   6.557 -0.3481  0.4693 -1.0407
  233MOL0     O31378   1.367   8.355   6.477 -0.0529 -0.2099 -0.3754
  233MOL0     C31379   1.222   8.326   6.458 -0.1500 -0.9993  0.2524
  233MOL0     C31380   1.220   8.208   6.354  0.2870  0.4801 -0.9306
  233MOL0     C31381   1.243   8.072   6.423 -0.4468  0.8269  0.0480
  233MOL0     C31382   1.397   8.042   6.463 -0.7941  0.2305 -0.6612
  233MOL0     C31383   1.402   7.909   6.509 -0.2555  0.7168 -0.6850
  233MOL0     C31384   1.389   7.790   6.538  0.0563 -0.1046  0.6114
  233MOL0     C31385   1.522   8.444   6.633  0.7249 -0.6287 -0.9170
  233MOL0     C31386   1.587   8.556   6.694 -0.7825 -0.8193  0.1131
  233MOL0     C31387   1.712   8.531   6.760  0.3655 -0.4180 -0.3817
  233MOL0     H31388   1.692   9.046   6.563  1.7376 -0.6988  0.9752
  233MOL0     H31389   1.794   9.261   6.613  1.3074 -1.8168  0.1748
  233MOL0     H31390   1.945   9.364   6.772  0.3719 -0.2638  0.6897
  233MOL0     H31391   1.841   9.486   6.699 -0.5147 -2.6211 -0.2692
  233MOL0     H31392   2.049   9.559   6.797 -0.4433 -4.1207 -0.6008
  233MOL0     H31393   1.992   9.498   6.958  3.1666  0.8745 -1.0156
  233MOL0     H31394   1.824   9.687   6.932 -0.3332  1.7284 -1.0639
  233MOL0     H31395   1.893   9.727   6.782  0.2563  0.1700  0.3156
  233MOL0     H31396   2.062   9.725   7.041  1.3261 -1.1942 -1.2855
  233MOL0     H31397   2.110   9.792   6.887  1.3820 -1.2464  1.2084
  233MOL0     H31398   2.008   9.990   6.909 -2.0510  0.3455 -1.7877
  233MOL0     H31399   1.870   9.920   6.986  1.0223  0.0671 -2.5954
  233MOL0     H31400   1.997  10.062   7.158  0.5011  0.5201  0.0997
  233MOL0     H31401   2.016   9.901   7.207 -1.9295 -1.8538 -2.0961
  233MOL0     H31402   2.214  10.109   7.092 -0.3263 -1.2171 -1.1861
  233MOL0     H31403   2.249   9.944   7.031  3.0921  0.7322  1.1169
  233MOL0     H31404   2.255   9.864   7.242  1.3449 -0.4701 -2.2009
  233MOL0     H31405   2.385   9.995   7.224  1.0933 -2.2422  0.5271
  233MOL0     H31406   2.419  10.167   7.374  0.8246 -1.1266  0.2786
  233MOL0     H31407   2.197  10.367   7.622 -2.1133 -2.7813 -1.3862
  233MOL0     H31408   2.372  10.354   7.562  1.2501 -1.6966 -2.5107
  233MOL0     H31409   2.308  10.419   7.344 -0.2541  1.9242 -0.1517
  233MOL0     H31410   2.133  10.425   7.386 -0.1570 -1.6349 -0.0847
  233MOL0     H31411   2.243  10.649   7.368  1.0450 -5.8556 -3.5885
  233MOL0     H31412   2.355  10.600   7.490  0.5061  1.8236  0.4791
  233MOL0     H31413   2.169  10.755   7.589 -1.8675  1.1550 -1.8564
  233MOL0     H31414   2.175  10.587   7.654  0.2123 -3.4756 -3.0245
  233MOL0     H31415   1.805  10.525   7.428 -2.0367 -0.7915  1.0778
  233MOL0     H31416   1.615  10.483   7.568  1.1480 -0.9626  1.6659
  233MOL0     H31417   1.301  10.603   7.824  3.3322  1.9986  1.5460
  233MOL0     H31418   1.097  10.571   7.945  0.6958  1.5146  1.3681
  233MOL0     H31419   1.046  10.161   8.086 -0.8363 -1.1398  1.7798
  233MOL0     H31420   1.039  10.250   8.248 -3.5722 -0.8240  1.0846
  233MOL0     H31421   0.804  10.299   8.227  1.3202  0.5984  0.5106
  233MOL0     H31422   0.792  10.238   8.070 -1.6540 -0.1582  0.0676
  233MOL0     H31423   0.763  10.035   8.119  0.4661 -0.3218 -0.7702
  233MOL0     H31424   0.903  10.034   8.236  0.1493  1.6082  1.7784
  233MOL0     H31425   0.629  10.137   8.291  1.0174  0.3201 -0.8828
  233MOL0     H31426   0.759  10.123   8.412 -1.2862  1.1143  0.2360
  233MOL0     H31427   0.656   9.874   8.260  2.7727 -1.2433 -0.3870
  233MOL0     H31428   0.556   9.934   8.391  0.2377  0.1609 -0.8058
  233MOL0     H31429   0.847   9.877   8.417 -1.0469 -0.1996 -2.5392
  233MOL0     H31430   0.749   9.919   8.551 -0.6800  2.2756 -1.2834
  233MOL0     H31431   0.708   9.686   8.365  2.6838 -0.5107 -0.1233
  233MOL0     H31432   0.608   9.708   8.516  1.4643  0.7719  1.7111
  233MOL0     H31433   0.909   9.669   8.518  1.6848 -2.1490 -0.7028
  233MOL0     H31434   0.807   9.697   8.659  3.3363  1.1389 -1.1570
  233MOL0     H31435   1.256  10.210   8.110  0.9217 -0.8717 -1.2065
  233MOL0     H31436   1.479  10.271   8.026  2.2596  1.5892 -2.0209
  233MOL0     H31437   1.776  10.732   7.874 -0.8897 -0.8813  0.1088
  233MOL0     H31438   1.982  10.765   7.737  1.4473 -1.5457 -0.5850
  233MOL0     H31439   1.640   9.231   7.016  0.8076  4.7437 -1.5516
  233MOL0     H31440   1.509   9.028   6.943 -0.0472  2.3491  0.8261
  233MOL0     H31441   1.378   8.795   6.576  0.4241 -0.1063 -1.7558
  233MOL0     H31442   1.257   8.608   6.492  0.1148  2.2503  0.7553
  233MOL0     H31443   1.174   8.420   6.429  0.7790  0.3170  2.6883
  233MOL0     H31444   1.169   8.288   6.546 -0.3691 -2.6603 -0.5577
  233MOL0     H31445   1.296   8.229   6.278  0.2574  4.8624 -0.0238
  233MOL0     H31446   1.124   8.187   6.305  0.2421 -3.3557  0.4444
  233MOL0     H31447   1.211   7.998   6.349 -3.1895  1.8399  0.0773
  233MOL0     H31448   1.176   8.066   6.509 -1.0411 -0.9807 -0.4941
  233MOL0     H31449   1.466   8.051   6.379  0.8514  2.5360  0.8464
  233MOL0     H31450   1.419   8.106   6.549 -0.9378 -1.5916  0.8004
  233MOL0     H31451   1.388   7.686   6.563  5.2418 -0.9811 -1.5798
  233MOL0     H31452   1.565   8.344   6.630 -0.6855 -1.2401 -2.8711
  233MOL0     H31453   1.722   8.427   6.792  0.3223  0.1303  1.5397
  233MOL0     H31454   1.799   8.560   6.700  0.4911  1.9228  0.8414
  233MOL0     H31455   1.725   8.583   6.855  0.8755 -0.4483 -0.4336
  234MOL0     O31456   8.391   2.926  10.203  0.0912 -0.6989 -0.2275
  234MOL0     C31457   8.310   3.004  10.153  0.0164  0.3584  0.2319
  234MOL0     O31458   8.323   3.067  10.039 -0.6794 -0.2369  0.4617
  234MOL0     C31459   8.441   3.033   9.963 -0.1733 -1.3631 -0.1753
  234MOL0     C31460   8.487   2.903   9.943 -0.9070 -0.2099  0.1171
  234MOL0     C31461   8.611   2.884   9.878  0.2905 -0.4564 -0.0848
  234MOL0     C31462   8.673   2.998   9.826  0.5295 -0.2692  0.3581
  234MOL0     O31463   8.791   2.977   9.757  0.0413  0.0436 -0.2271
  234MOL0     C31464   8.874   2.851   9.774 -0.4839  0.3699  0.3923
  234MOL0     C31465   9.010   2.880   9.720  0.6455  0.9253 -0.8989
  234MOL0     C31466   9.006   2.916   9.573  0.0317 -0.7453 -0.9293
  234MOL0     C31467   8.983   2.798   9.476 -0.2127 -0.2016  0.3980
  234MOL0     C31468   9.011   2.834   9.330  0.1040  0.4867  0.2667
  234MOL0     C31469   9.003   2.709   9.236 -0.1694 -0.8504  0.4432
  234MOL0     C31470   9.042   2.753   9.092  0.1493 -0.2910  0.5719
  234MOL0     C31471   9.041   2.633   8.995  0.1609 -0.9957 -0.2005
  234MOL0     N31472   8.908   2.574   8.953 -0.9645  0.4918  0.0896
  234MOL0     C31473   8.809   2.533   9.032  0.3538  0.6641  0.2633
  234MOL0     C31474   8.712   2.499   8.946  0.2688  0.2502  0.8706
  234MOL0     C31475   8.574   2.438   8.990  0.6616 -0.6427  0.6132
  234MOL0     C31476   8.588   2.289   9.047  0.3090  0.0917 -0.4988
  234MOL0     C31477   8.457   2.232   9.099  0.6253  0.1180  0.8768
  234MOL0     C31478   8.445   2.077   9.111 -0.0019 -0.7142  0.4279
  234MOL0     O31479   8.412   2.027   8.983 -0.4662  0.5356 -0.2144
  234MOL0     C31480   8.394   1.890   8.976  0.5781  0.1272  0.4299
  234MOL0     C31481   8.386   1.806   9.093 -0.1809 -0.0033  0.0756
  234MOL0     C31482   8.344   1.679   9.083 -0.4446  0.7007 -0.4513
  234MOL0     C31483   8.316   1.616   8.961  1.0403 -0.2608  0.0176
  234MOL0     C31484   8.266   1.477   8.948 -0.2107  0.4244  0.3950
  234MOL0     O31485   8.212   1.412   9.053 -0.1135 -0.5010 -0.2267
  234MOL0     C31486   8.176   1.278   9.048 -0.3991  0.3219 -0.5281
  234MOL0     C31487   8.099   1.220   8.945 -0.9244 -0.1312 -0.0888
  234MOL0     C31488   8.073   1.083   8.945 -0.0035 -0.4587 -0.5354
  234MOL0     C31489   8.097   1.011   9.054  0.2373  0.4424 -1.4101
  234MOL0     O31490   8.050   0.885   9.057  0.4184  0.0386  1.2145
  234MOL0     C31491   8.035   0.814   9.179 -0.7836  0.5014  0.4348
  234MOL0     C31492   7.932   0.695   9.150 -1.8239  0.8183  0.3781
  234MOL0     C31493   7.792   0.731   9.152  0.9736 -0.3289  0.3233
  234MOL0     C31494   7.752   0.831   9.038 -0.6687  1.2832  0.3275
  234MOL0     C31495   7.750   0.765   8.899 -0.2984 -0.0189 -0.1693
  234MOL0     C31496   7.646   0.658   8.893  0.6603 -0.1245  0.4296
  234MOL0     C31497   7.606   0.629   8.749 -0.4819  0.5449  0.0269
  234MOL0     C31498   7.464   0.567   8.715  0.6039 -0.8174 -0.5871
  234MOL0    Cl31499   7.393   0.448   8.820  0.6235  0.0972 -0.2312
  234MOL0     C31500   8.169   1.063   9.163 -0.2532  0.1209  0.5021
  234MOL0     C31501   8.205   1.195   9.161  0.1279 -0.4146  0.6451
  234MOL0     O31502   8.281   1.430   8.837 -1.3819  0.7605  0.0184
  234MOL0     C31503   8.318   1.706   8.849  1.8598  1.3593 -0.7979
  234MOL0     C31504   8.356   1.833   8.860  0.2225 -0.7852  0.6117
  234MOL0     N31505   8.754   2.534   8.819 -0.3494  0.0541  0.2275
  234MOL0     N31506   8.873   2.582   8.831  0.7269 -0.2208 -0.2487
  234MOL0     C31507   8.611   3.120   9.818 -0.2782 -0.4279 -0.8078
  234MOL0     C31508   8.489   3.148   9.886  0.1434 -0.3802  0.9227
  234MOL0     C31509   8.175   3.016  10.230  0.0245 -0.6106  0.1894
  234MOL0     C31510   8.119   3.143  10.258 -0.0516 -0.0697 -0.4242
  234MOL0     C31511   8.002   3.157  10.341  0.4148 -0.1526  0.1072
  234MOL0     C31512   7.942   3.043  10.395 -0.6792 -0.1478  0.2549
  234MOL0     O31513   7.828   3.057  10.467  0.0034  0.0505  0.1141
  234MOL0     C31514   7.807   2.967  10.579  0.6433  0.1717  0.2866
  234MOL0     C31515   7.898   2.988  10.694 -0.0874  0.0922  0.6203
  234MOL0     C31516   7.831   2.954  10.832 -0.4166  0.4813 -0.2147
  234MOL0     C31517   7.831   2.813  10.853  0.4617 -0.0215  0.2951
  234MOL0     C31518   7.701   2.752  10.886 -1.3575 -0.9017 -0.2358
  234MOL0     C31519   7.587   2.720  10.897 -0.6878 -1.1741  0.2324
  234MOL0     C31520   8.002   2.924  10.368 -0.5190 -0.0974 -0.7358
  234MOL0     C31521   8.118   2.905  10.288  0.1637  0.8159 -0.0994
  234MOL0     C31522   8.172   2.770  10.264  0.2765 -0.5922 -0.2957
  234MOL0     H31523   8.428   2.824   9.989  3.0366 -0.9325  4.7311
  234MOL0     H31524   8.651   2.784   9.864 -1.2243 -1.6409  3.0828
  234MOL0     H31525   8.885   2.822   9.879  2.2362  0.3281  0.1780
  234MOL0     H31526   8.832   2.763   9.725 -0.1775 -0.7037  1.9849
  234MOL0     H31527   9.075   2.792   9.724 -1.7337 -1.0293 -2.4414
  234MOL0     H31528   9.046   2.967   9.777  2.3980  1.7042 -3.0255
  234MOL0     H31529   9.104   2.959   9.552  0.4834 -0.4178  1.5387
  234MOL0     H31530   8.916   2.979   9.571  0.5184  0.1646  1.6597
  234MOL0     H31531   9.039   2.710   9.509 -0.1995 -0.6907 -0.8822
  234MOL0     H31532   8.878   2.767   9.484  0.6201 -3.0910  1.2538
  234MOL0     H31533   8.938   2.909   9.298 -1.1553 -1.3071 -1.2543
  234MOL0     H31534   9.113   2.873   9.320  1.6984 -3.6103 -1.5970
  234MOL0     H31535   9.081   2.639   9.269  2.6647  1.4884 -0.7535
  234MOL0     H31536   8.900   2.673   9.242  0.1453 -1.4925  3.1193
  234MOL0     H31537   9.134   2.811   9.095  0.7529 -1.2453  3.5220
  234MOL0     H31538   8.969   2.826   9.055  3.2212  1.7339 -2.0924
  234MOL0     H31539   9.093   2.672   8.907 -3.6332  1.2179 -1.6703
  234MOL0     H31540   9.104   2.554   9.038  0.6514 -0.6735 -0.3100
  234MOL0     H31541   8.798   2.517   9.139  0.4819 -0.6727  0.1026
  234MOL0     H31542   8.529   2.500   9.067  0.6099 -1.7481  1.4922
  234MOL0     H31543   8.505   2.442   8.905  0.0550 -1.1987  1.0735
  234MOL0     H31544   8.604   2.231   8.956 -4.1791 -0.0035 -1.4820
  234MOL0     H31545   8.664   2.268   9.122  0.3227 -1.8721 -0.9989
  234MOL0     H31546   8.383   2.271   9.029  1.3613 -0.1205 -0.0479
  234MOL0     H31547   8.420   2.282   9.190  0.2617  3.1548 -0.8091
  234MOL0     H31548   8.362   2.049   9.177 -0.8781  2.2747  0.7443
  234MOL0     H31549   8.545   2.042   9.139  0.5248  0.2598 -0.1997
  234MOL0     H31550   8.396   1.850   9.191  0.8698  1.1504 -0.5232
  234MOL0     H31551   8.330   1.617   9.171 -0.6128 -0.7417 -1.4664
  234MOL0     H31552   8.079   1.278   8.855  1.8357 -1.4760 -1.7214
  234MOL0     H31553   8.021   1.037   8.861  2.2963  0.1113 -2.3504
  234MOL0     H31554   8.134   0.777   9.209 -1.2416 -1.4111 -0.2907
  234MOL0     H31555   8.000   0.887   9.252  0.6196  1.5489  0.1269
  234MOL0     H31556   7.953   0.641   9.057 -1.7888 -0.6344  1.1893
  234MOL0     H31557   7.966   0.617   9.219 -0.0964  1.7186  0.6062
  234MOL0     H31558   7.733   0.639   9.141 -0.5633  0.2479  2.9648
  234MOL0     H31559   7.751   0.778   9.242 -0.7664  2.0009 -1.5238
  234MOL0     H31560   7.819   0.917   9.036 -0.1659  0.9150  0.8825
  234MOL0     H31561   7.652   0.868   9.061 -0.5003  1.7484  0.3293
  234MOL0     H31562   7.849   0.725   8.876 -1.6168 -2.9209 -1.2915
  234MOL0     H31563   7.729   0.841   8.823  1.0751  1.5955  0.9830
  234MOL0     H31564   7.685   0.560   8.921  1.6878 -0.2043 -1.1565
  234MOL0     H31565   7.564   0.676   8.964  0.5417 -0.1830  0.3071
  234MOL0     H31566   7.676   0.554   8.713  1.0523  1.9563 -0.0486
  234MOL0     H31567   7.634   0.713   8.684  2.4880  1.8043  2.6750
  234MOL0     H31568   7.390   0.646   8.698 -1.5300 -2.7300 -0.7861
  234MOL0     H31569   7.470   0.513   8.620 -1.7952  0.1405 -1.3769
  234MOL0     H31570   8.200   0.995   9.241  1.5710 -1.5452 -1.5450
  234MOL0     H31571   8.253   1.230   9.251  1.2351 -0.7690  0.2084
  234MOL0     H31572   8.274   1.668   8.758 -2.1439 -2.4598  2.3105
  234MOL0     H31573   8.355   1.894   8.771 -1.4205  0.2532  1.3067
  234MOL0     H31574   8.669   3.195   9.766  1.8646 -2.0079 -0.8353
  234MOL0     H31575   8.453   3.251   9.888 -2.2466 -1.1094  4.3350
  234MOL0     H31576   8.176   3.228  10.221  0.0860  0.1711  0.3167
  234MOL0     H31577   7.970   3.257  10.369  1.7980  0.0639  0.9838
  234MOL0     H31578   7.814   2.863  10.544 -0.4814  0.2739 -0.2931
  234MOL0     H31579   7.708   2.989  10.618  1.4996  3.4629  0.8702
  234MOL0     H31580   7.914   3.096  10.695  0.6358  0.1250 -2.6627
  234MOL0     H31581   7.997   2.943  10.682 -0.4196 -0.3254 -0.6613
  234MOL0     H31582   7.728   2.987  10.837 -0.4816  0.4846 -1.3225
  234MOL0     H31583   7.897   3.000  10.906 -0.5466 -0.4945  0.5232
  234MOL0     H31584   7.855   2.764  10.759  1.0193  1.1070 -0.1749
  234MOL0     H31585   7.907   2.797  10.930 -0.6614  3.4778  2.4053
  234MOL0     H31586   7.489   2.703  10.937  0.1078 -0.7204  2.5161
  234MOL0     H31587   7.961   2.829  10.403  1.1167 -1.6502 -2.7392
  234MOL0     H31588   8.274   2.746  10.297  1.5333  0.2033 -3.2463
  234MOL0     H31589   8.112   2.696  10.317 -1.4923  1.6695  1.0525
  234MOL0     H31590   8.158   2.744  10.159  1.2699 -3.7859  0.2611
  235MOL0     O31591   2.714   3.371   3.335  0.4402 -0.0294  0.3872
  235MOL0     C31592   2.756   3.374   3.451 -0.1106 -0.6661 -0.5914
  235MOL0     O31593   2.866   3.441   3.488  0.5136 -0.6534 -0.2496
  235MOL0     C31594   2.946   3.501   3.396 -0.3788  0.4568 -0.5893
  235MOL0     C31595   3.070   3.437   3.368  0.0168 -0.0766 -0.3897
  235MOL0     C31596   3.162   3.493   3.275  0.1871 -0.0850 -0.1642
  235MOL0     C31597   3.128   3.601   3.205  0.4344  0.0380  1.2730
  235MOL0     O31598   3.209   3.647   3.106  0.4953  0.2104 -0.2738
  235MOL0     C31599   3.202   3.784   3.074  1.1014  0.6645 -0.4448
  235MOL0     C31600   3.324   3.825   2.997 -0.5259  0.5354 -0.1772
  235MOL0     C31601   3.351   3.749   2.868 -0.6885 -0.3079 -0.2192
  235MOL0     C31602   3.216   3.730   2.798 -0.3758 -0.6401 -1.0958
  235MOL0     C31603   3.226   3.667   2.667 -0.3697 -0.1510  1.2423
  235MOL0     C31604   3.281   3.752   2.552 -0.2741  0.3871 -0.5081
  235MOL0     C31605   3.291   3.674   2.432  0.4790  0.0260  0.6025
  235MOL0     C31606   3.305   3.770   2.307  0.0255 -0.2818  0.4874
  235MOL0     N31607   3.440   3.809   2.269 -0.7880 -0.1642 -0.5273
  235MOL0     C31608   3.528   3.726   2.206  0.6832 -0.5675 -0.3673
  235MOL0     C31609   3.631   3.806   2.182 -0.0707 -0.8570  0.4235
  235MOL0     C31610   3.741   3.774   2.086 -0.0962  0.0123  1.6254
  235MOL0     C31611   3.712   3.835   1.950  0.2850 -0.8231 -0.0045
  235MOL0     C31612   3.780   3.968   1.925  0.4520  0.4572  0.1496
  235MOL0     C31613   3.748   4.012   1.788  0.3207 -0.4058  0.8174
  235MOL0     O31614   3.782   3.937   1.673  0.1537  0.5155 -0.4500
  235MOL0     C31615   3.749   3.969   1.546  0.4288 -1.1299  0.3307
  235MOL0     C31616   3.792   3.900   1.438  0.1629  0.7506  0.2618
  235MOL0     C31617   3.735   3.920   1.313 -0.0605 -0.7467  0.2794
  235MOL0     C31618   3.664   4.041   1.278 -0.2260 -0.2956 -0.3584
  235MOL0     C31619   3.590   4.050   1.147  0.2320 -0.9689 -0.2272
  235MOL0     O31620   3.536   4.175   1.125  0.7594  0.0483  0.3021
  235MOL0     C31621   3.482   4.203   1.000  0.3319  0.5142 -0.2584
  235MOL0     C31622   3.514   4.325   0.943  0.3320  0.2545 -0.4379
  235MOL0     C31623   3.457   4.349   0.817 -0.1698  0.3673  0.3337
  235MOL0     C31624   3.366   4.262   0.754  0.3819  0.0120 -0.6645
  235MOL0     O31625   3.328   4.302   0.634  0.8359 -0.6553  0.2227
  235MOL0     C31626   3.232   4.224   0.564  0.3218 -0.1510  0.5325
  235MOL0     C31627   3.248   4.250   0.413  0.4275  0.0620 -0.8515
  235MOL0     C31628   3.175   4.147   0.325  0.0011  0.9052  0.9609
  235MOL0     C31629   3.267   4.052   0.247  0.2558 -0.4962  0.2205
  235MOL0     C31630   3.350   4.129   0.149  0.4904  0.2890 -0.9866
  235MOL0     C31631   3.393   4.048   0.032  0.0589  0.4140  0.0370
  235MOL0     C31632   3.501   3.941   0.062  0.1363 -0.2057 -0.5289
  235MOL0     C31633   3.639   3.986   0.057 -0.2263 -0.6083  0.8017
  235MOL0    Cl31634   3.743   3.860   0.100  0.6227  0.1036 -0.1436
  235MOL0     C31635   3.334   4.142   0.818 -0.1563 -0.1868 -0.2056
  235MOL0     C31636   3.381   4.117   0.945 -0.1896  0.2352  1.1767
  235MOL0     O31637   3.599   3.955   1.063 -0.1861 -0.6945 -0.2568
  235MOL0     C31638   3.626   4.122   1.391 -0.2294 -0.2136 -0.1497
  235MOL0     C31639   3.667   4.084   1.521  0.9980  0.1399 -0.2036
  235MOL0     N31640   3.607   3.936   2.218  0.8108  0.3151 -0.6100
  235MOL0     N31641   3.492   3.931   2.278  1.0184  0.3122 -0.3792
  235MOL0     C31642   2.994   3.663   3.226 -0.3092  0.1994  0.5277
  235MOL0     C31643   2.904   3.618   3.325 -0.1478 -0.4545 -0.0462
  235MOL0     C31644   2.662   3.317   3.563  0.0133  0.4643 -0.1977
  235MOL0     C31645   2.698   3.324   3.698  0.4070  0.0703 -0.0545
  235MOL0     C31646   2.618   3.263   3.804 -0.5890 -0.5393  0.3428
  235MOL0     C31647   2.508   3.178   3.775  0.6012  0.3390 -0.4204
  235MOL0     O31648   2.440   3.127   3.887 -0.0623 -0.4115 -0.1436
  235MOL0     C31649   2.324   3.055   3.854  0.1254 -0.3419  0.5498
  235MOL0     C31650   2.241   3.042   3.987  0.4868  0.3144 -0.1189
  235MOL0     C31651   2.334   2.983   4.094  0.6582 -0.3176  0.4082
  235MOL0     C31652   2.389   2.845   4.053 -0.5040  0.3019 -0.2380
  235MOL0     C31653   2.280   2.745   4.079 -0.0021 -1.1759 -0.2852
  235MOL0     C31654   2.190   2.668   4.088 -0.3544  0.0783  0.9083
  235MOL0     C31655   2.492   3.152   3.631 -0.0841  0.4356 -0.3912
  235MOL0     C31656   2.546   3.229   3.531 -0.4290 -0.2880  0.1693
  235MOL0     C31657   2.473   3.229   3.405  0.4477  0.7919  0.1805
  235MOL0     H31658   3.103   3.347   3.419  1.5756  1.7058  1.9521
  235MOL0     H31659   3.266   3.464   3.261  0.2414 -0.6747  1.2854
  235MOL0     H31660   3.109   3.794   3.016  0.2591 -1.0135  0.5449
  235MOL0     H31661   3.183   3.856   3.154  0.4840  1.2760 -1.1174
  235MOL0     H31662   3.409   3.823   3.066 -0.3777 -0.7265 -0.3819
  235MOL0     H31663   3.319   3.923   2.949 -2.4244 -0.8828 -3.1797
  235MOL0     H31664   3.398   3.653   2.888  1.1050  0.6250  0.2860
  235MOL0     H31665   3.417   3.802   2.798 -1.5286  0.4928 -0.4324
  235MOL0     H31666   3.166   3.661   2.865 -1.7239  0.5628 -0.8238
  235MOL0     H31667   3.162   3.824   2.783  0.6845  0.7098  2.5294
  235MOL0     H31668   3.289   3.577   2.663  1.1951  0.9101 -2.6674
  235MOL0     H31669   3.125   3.637   2.641  0.1367  0.7947 -2.3304
  235MOL0     H31670   3.229   3.848   2.552 -0.5181  0.2588  0.0552
  235MOL0     H31671   3.385   3.777   2.575 -0.1409  0.3389 -1.0559
  235MOL0     H31672   3.205   3.609   2.414  1.6924 -0.7473 -3.3954
  235MOL0     H31673   3.373   3.602   2.439  1.0632  0.6332  0.1232
  235MOL0     H31674   3.259   3.718   2.222  2.0578 -0.0283 -0.8178
  235MOL0     H31675   3.248   3.859   2.334 -2.5613 -2.1520  1.6924
  235MOL0     H31676   3.502   3.629   2.165 -0.4008 -0.4235 -0.0433
  235MOL0     H31677   3.833   3.823   2.116  0.0998  2.1082 -1.8449
  235MOL0     H31678   3.756   3.666   2.073 -4.3162 -0.5763 -0.2573
  235MOL0     H31679   3.737   3.765   1.869  0.0190  1.1884 -1.9237
  235MOL0     H31680   3.603   3.840   1.944  0.2568 -2.4616 -2.0339
  235MOL0     H31681   3.887   3.951   1.944  1.0109  2.4587 -0.9095
  235MOL0     H31682   3.747   4.052   1.987  1.9197  1.3651 -0.2489
  235MOL0     H31683   3.801   4.104   1.761  1.5815 -1.2436  0.3336
  235MOL0     H31684   3.640   4.026   1.789  0.1205 -1.4059 -1.3159
  235MOL0     H31685   3.860   3.818   1.455  0.1202  0.9278  1.3553
  235MOL0     H31686   3.743   3.851   1.229  1.1881 -1.3934  0.9072
  235MOL0     H31687   3.579   4.397   0.991 -1.0794 -0.7960  3.3999
  235MOL0     H31688   3.507   4.434   0.772  0.5307  0.0611  0.5226
  235MOL0     H31689   3.245   4.117   0.584  2.5133 -0.2711 -1.1020
  235MOL0     H31690   3.130   4.251   0.594  0.7341 -2.3319  4.6061
  235MOL0     H31691   3.211   4.351   0.395 -0.7245  0.9423  4.5461
  235MOL0     H31692   3.357   4.244   0.405  0.4815  1.9881 -1.9013
  235MOL0     H31693   3.113   4.075   0.380 -0.0039  1.2912  1.4659
  235MOL0     H31694   3.109   4.190   0.249  1.1886  0.8953 -0.0932
  235MOL0     H31695   3.222   3.962   0.204 -0.2904  0.4440 -1.2196
  235MOL0     H31696   3.339   4.006   0.316 -1.3155  0.0842  2.3404
  235MOL0     H31697   3.441   4.164   0.198  0.1987 -0.2367 -0.0225
  235MOL0     H31698   3.296   4.218   0.116  2.2542  1.2551 -1.4010
  235MOL0     H31699   3.305   4.005  -0.017 -1.0224  1.9423  0.5431
  235MOL0     H31700   3.449   4.112  -0.037  0.5206  0.4616  0.4489
  235MOL0     H31701   3.487   3.864  -0.015  1.1516  1.8887 -2.9628
  235MOL0     H31702   3.472   3.906   0.161  0.4331  1.2531  0.0947
  235MOL0     H31703   3.668   4.026  -0.040 -3.3972  2.7504  1.0224
  235MOL0     H31704   3.667   4.060   0.132  0.1965 -1.1339  1.1733
  235MOL0     H31705   3.259   4.070   0.788  0.9041 -2.4750  2.2047
  235MOL0     H31706   3.337   4.030   0.993 -1.3869  0.2708  0.2127
  235MOL0     H31707   3.551   4.201   1.384  1.2336  1.1119 -1.5548
  235MOL0     H31708   3.629   4.143   1.603  0.6042 -2.2707  1.4452
  235MOL0     H31709   2.974   3.749   3.163 -1.1357 -0.6418 -0.3889
  235MOL0     H31710   2.814   3.675   3.344  0.2668 -0.6285  2.9024
  235MOL0     H31711   2.766   3.398   3.738 -0.4249  1.9002 -1.8411
  235MOL0     H31712   2.647   3.296   3.903  0.6274  1.4647 -0.6161
  235MOL0     H31713   2.346   2.958   3.809 -0.5872  0.0504 -0.6957
  235MOL0     H31714   2.261   3.122   3.795  0.2723 -0.4791  0.2346
  235MOL0     H31715   2.156   2.975   3.969  1.6969 -1.3106 -0.0069
  235MOL0     H31716   2.206   3.141   4.017  1.5454  0.9151 -0.8174
  235MOL0     H31717   2.276   2.986   4.187  0.4687  0.0170  0.2835
  235MOL0     H31718   2.419   3.049   4.116  2.4533 -2.4178  0.1527
  235MOL0     H31719   2.427   2.837   3.950 -3.5263 -2.4004 -1.3003
  235MOL0     H31720   2.466   2.817   4.125 -1.1183 -3.4099 -0.8392
  235MOL0     H31721   2.099   2.611   4.082  1.0664 -2.2583 -0.0222
  235MOL0     H31722   2.410   3.085   3.605  2.1567 -2.0830 -1.4395
  235MOL0     H31723   2.385   3.166   3.407  0.7466  0.3449 -0.4496
  235MOL0     H31724   2.449   3.333   3.382 -3.0081  0.3163  1.0910
  235MOL0     H31725   2.528   3.184   3.322  0.3947  1.8213 -0.4372
  236MOL0     O31726   6.202   7.932   5.715  0.4868  0.3697 -0.6722
  236MOL0     C31727   6.109   7.860   5.686  0.6272 -0.0117  0.2217
  236MOL0     O31728   5.995   7.846   5.763 -0.2354 -0.1128 -0.0054
  236MOL0     C31729   5.973   7.906   5.884  0.0516  0.2098 -0.0914
  236MOL0     C31730   5.982   7.833   6.003 -0.7894  0.4231  0.5223
  236MOL0     C31731   5.926   7.875   6.119  0.1220  0.0210  0.0956
  236MOL0     C31732   5.880   8.005   6.126  0.2669  0.1892  0.3397
  236MOL0     O31733   5.850   8.066   6.248 -0.0359 -0.8068  0.0236
  236MOL0     C31734   5.810   7.988   6.364 -0.7019 -0.3915 -0.1749
  236MOL0     C31735   5.803   8.090   6.485  0.7817  0.4036  1.0090
  236MOL0     C31736   5.942   8.145   6.521  0.0785  0.1009  0.0354
  236MOL0     C31737   5.931   8.223   6.650  0.1346  0.4900 -0.8982
  236MOL0     C31738   6.063   8.268   6.705 -0.0102 -0.1644 -0.5532
  236MOL0     C31739   6.074   8.298   6.854 -0.4375  0.7065 -0.7231
  236MOL0     C31740   6.217   8.347   6.896  0.7378  0.5787  0.3508
  236MOL0     C31741   6.231   8.344   7.050 -0.0388  0.0796 -0.4729
  236MOL0     N31742   6.371   8.388   7.082 -1.0382  0.0855 -0.1198
  236MOL0     C31743   6.452   8.467   7.008  0.0258 -0.7056  0.4628
  236MOL0     C31744   6.570   8.471   7.084  0.2669  0.3434 -0.0765
  236MOL0     C31745   6.714   8.519   7.045 -0.2101  0.1500  0.8362
  236MOL0     C31746   6.800   8.402   6.982  0.2089 -0.5372  0.5249
  236MOL0     C31747   6.840   8.292   7.080 -0.1183 -0.2275 -0.3988
  236MOL0     C31748   6.901   8.174   7.005 -0.4710  0.2626 -0.5136
  236MOL0     O31749   6.816   8.099   6.913  0.2620  0.3016  0.4969
  236MOL0     C31750   6.713   8.033   6.981  0.8296  0.4566 -0.7902
  236MOL0     C31751   6.589   8.078   6.991  0.5596  0.1034  0.4895
  236MOL0     C31752   6.496   8.014   7.075 -0.1406 -0.4371 -0.7484
  236MOL0     C31753   6.529   7.897   7.150 -1.0218 -0.3915 -0.5976
  236MOL0     C31754   6.428   7.834   7.248 -0.0618 -0.5332  0.4328
  236MOL0     O31755   6.465   7.731   7.322  0.2030 -0.3084  0.7109
  236MOL0     C31756   6.368   7.683   7.409 -0.2767 -0.5544  0.0945
  236MOL0     C31757   6.340   7.751   7.520  0.2975 -1.0949 -0.0738
  236MOL0     C31758   6.246   7.720   7.608  1.2190 -0.1753 -0.4003
  236MOL0     C31759   6.157   7.606   7.594 -1.1683  0.6711  0.6306
  236MOL0     O31760   6.058   7.583   7.689 -0.2817  0.3809 -0.2573
  236MOL0     C31761   5.978   7.704   7.714  0.1377  0.0614 -0.7335
  236MOL0     C31762   5.840   7.678   7.779  0.2753 -0.6457 -0.4134
  236MOL0     C31763   5.781   7.539   7.767  0.9942  0.0637 -0.1888
  236MOL0     C31764   5.748   7.519   7.619  0.5176 -0.4456 -0.5478
  236MOL0     C31765   5.669   7.395   7.584  0.1245  0.7088  0.7376
  236MOL0     C31766   5.725   7.264   7.639 -0.6956 -0.1641  0.3993
  236MOL0     C31767   5.657   7.138   7.571  0.6583  0.1464 -0.2053
  236MOL0     C31768   5.713   7.012   7.610  0.0369  0.9332 -0.1156
  236MOL0    Cl31769   5.895   7.011   7.551 -0.1211  0.9268 -0.1225
  236MOL0     C31770   6.190   7.527   7.481 -1.2684  0.1416  1.0547
  236MOL0     C31771   6.285   7.569   7.390 -1.2385 -0.5823 -0.1278
  236MOL0     O31772   6.313   7.889   7.248  0.4961  0.2701  0.5481
  236MOL0     C31773   6.668   7.861   7.138  0.4124 -0.3224  0.3156
  236MOL0     C31774   6.749   7.919   7.052  0.5136 -0.4945  0.6818
  236MOL0     N31775   6.552   8.391   7.192  0.2996  0.2661 -0.1521
  236MOL0     N31776   6.434   8.344   7.199 -0.0897 -0.5913 -0.1983
  236MOL0     C31777   5.876   8.088   6.011 -0.0490 -0.2267  0.4263
  236MOL0     C31778   5.922   8.033   5.890  0.4917  0.0700 -0.2586
  236MOL0     C31779   6.126   7.767   5.575  0.5151 -0.0776 -0.0847
  236MOL0     C31780   6.190   7.823   5.466 -0.8958 -0.3495  1.1409
  236MOL0     C31781   6.218   7.746   5.349 -0.1624  0.4549 -0.3949
  236MOL0     C31782   6.180   7.608   5.342  0.5594 -0.0479  0.1910
  236MOL0     O31783   6.220   7.547   5.227  0.2190 -0.4041 -0.3112
  236MOL0     C31784   6.120   7.537   5.131  0.9024 -0.9999  0.0201
  236MOL0     C31785   6.162   7.442   5.020 -0.4506  0.8993 -0.5302
  236MOL0     C31786   6.319   7.439   4.990  0.2047 -0.3998 -0.2196
  236MOL0     C31787   6.343   7.432   4.836 -1.2332  1.0233  0.5285
  236MOL0     C31788   6.290   7.301   4.782  0.2222  0.4209  0.0106
  236MOL0     C31789   6.247   7.198   4.735 -0.3134 -0.3502 -0.1206
  236MOL0     C31790   6.114   7.547   5.458 -1.2357  0.6552  0.0942
  236MOL0     C31791   6.092   7.626   5.575  0.3596  0.3219 -0.0648
  236MOL0     C31792   6.029   7.556   5.696 -0.5785 -0.7604  0.3375
  236MOL0     H31793   6.029   7.736   6.011 -0.3102  0.7307  1.7461
  236MOL0     H31794   5.943   7.819   6.210  2.0488  3.2190  1.9030
  236MOL0     H31795   5.713   7.939   6.355 -2.3392  2.8944 -1.9308
  236MOL0     H31796   5.882   7.907   6.381 -1.1961 -0.7800  0.0859
  236MOL0     H31797   5.785   8.024   6.570 -1.1420 -2.3081 -1.3053
  236MOL0     H31798   5.726   8.166   6.466 -2.3446 -2.2393  2.0675
  236MOL0     H31799   5.984   8.209   6.443 -0.3178 -0.1962 -0.4310
  236MOL0     H31800   6.016   8.066   6.541 -2.5061 -1.9412  2.4161
  236MOL0     H31801   5.866   8.306   6.620 -0.2037  0.2459 -0.8398
  236MOL0     H31802   5.886   8.152   6.719  0.5800  1.0739  0.0121
  236MOL0     H31803   6.141   8.199   6.673 -1.6748 -1.4429 -2.0357
  236MOL0     H31804   6.082   8.369   6.665 -0.5545 -0.0745 -0.5883
  236MOL0     H31805   6.004   8.378   6.879  1.2133  1.3543  2.2904
  236MOL0     H31806   6.052   8.203   6.905 -0.8655  0.8168 -0.6977
  236MOL0     H31807   6.237   8.447   6.856 -0.4953 -0.1461 -2.2544
  236MOL0     H31808   6.297   8.280   6.863 -0.5530 -1.3007  0.8641
  236MOL0     H31809   6.160   8.403   7.108  1.1933  0.5368  0.6185
  236MOL0     H31810   6.223   8.237   7.073  2.0893 -0.0224  0.0690
  236MOL0     H31811   6.445   8.522   6.914 -0.0720 -1.0794  0.2475
  236MOL0     H31812   6.707   8.601   6.973 -2.0667  3.5787  4.5491
  236MOL0     H31813   6.769   8.550   7.135  0.4891 -0.2449  0.5583
  236MOL0     H31814   6.743   8.356   6.901 -4.2184  2.2473  1.6650
  236MOL0     H31815   6.897   8.443   6.952  0.3713 -2.2930 -1.6154
  236MOL0     H31816   6.755   8.261   7.141 -0.2329  0.0865 -0.3932
  236MOL0     H31817   6.914   8.328   7.152 -1.2541  0.5653  0.4092
  236MOL0     H31818   6.963   8.113   7.071  2.2746  3.1410 -0.1922
  236MOL0     H31819   6.978   8.220   6.942 -1.3188  1.4398 -0.7102
  236MOL0     H31820   6.571   8.162   6.925 -2.2658  0.4664  1.5773
  236MOL0     H31821   6.391   8.038   7.071  0.1945  0.9909 -1.7203
  236MOL0     H31822   6.390   7.845   7.539 -0.7224 -0.4452 -0.5747
  236MOL0     H31823   6.233   7.792   7.688  2.6172 -1.2917  0.8740
  236MOL0     H31824   6.041   7.764   7.780  1.0234 -1.7241  0.1264
  236MOL0     H31825   5.961   7.760   7.621  1.2881 -1.2744 -1.8088
  236MOL0     H31826   5.848   7.682   7.888  1.0000  0.3146 -0.4922
  236MOL0     H31827   5.766   7.750   7.744  0.1910 -0.5164  0.0255
  236MOL0     H31828   5.845   7.458   7.803  1.2589  0.3787  0.0500
  236MOL0     H31829   5.682   7.533   7.812  0.9488 -1.3082 -0.4297
  236MOL0     H31830   5.845   7.537   7.570  2.0002 -2.1030  1.5882
  236MOL0     H31831   5.676   7.600   7.602 -1.5244 -2.5650 -2.8232
  236MOL0     H31832   5.650   7.388   7.476 -0.9979  0.2864  0.9522
  236MOL0     H31833   5.575   7.395   7.639 -1.0728 -1.6996 -1.1006
  236MOL0     H31834   5.825   7.262   7.597 -0.6394 -3.6844  0.4131
  236MOL0     H31835   5.730   7.258   7.748 -0.7775 -1.6757  0.3295
  236MOL0     H31836   5.682   7.149   7.464 -1.9068  1.1420 -0.7558
  236MOL0     H31837   5.549   7.151   7.574  0.5994 -0.3544  0.0127
  236MOL0     H31838   5.707   7.003   7.719 -3.5878  1.1392 -0.1799
  236MOL0     H31839   5.645   6.945   7.557 -0.4422  2.6378 -1.7985
  236MOL0     H31840   6.126   7.441   7.462 -0.4951 -0.0305 -1.1365
  236MOL0     H31841   6.302   7.513   7.299  1.3937 -0.8887  0.4599
  236MOL0     H31842   6.705   7.774   7.193 -0.2037 -0.5573  0.3652
  236MOL0     H31843   6.850   7.878   7.050  0.6881 -0.2380  2.3788
  236MOL0     H31844   5.853   8.194   6.015  0.8558 -0.0485  1.2442
  236MOL0     H31845   5.914   8.098   5.804 -1.3829 -0.2507 -0.3630
  236MOL0     H31846   6.232   7.922   5.473 -2.4316  0.4275  0.0625
  236MOL0     H31847   6.271   7.795   5.269 -1.1659 -1.0500 -2.0569
  236MOL0     H31848   6.102   7.626   5.070  0.3908 -1.3212 -0.3087
  236MOL0     H31849   6.019   7.527   5.173  0.6412  3.1577  0.8530
  236MOL0     H31850   6.098   7.452   4.932 -1.3554  0.5145  0.0678
  236MOL0     H31851   6.145   7.339   5.052  1.2001  0.4118 -1.0845
  236MOL0     H31852   6.370   7.360   5.046  0.1418  1.4310  2.6141
  236MOL0     H31853   6.348   7.540   5.021 -0.6316 -0.1441 -0.2533
  236MOL0     H31854   6.282   7.508   4.786 -2.4991 -0.6034 -0.5081
  236MOL0     H31855   6.448   7.443   4.806 -0.8692  0.4579  1.5301
  236MOL0     H31856   6.199   7.107   4.704  0.8538 -0.2332 -2.4334
  236MOL0     H31857   6.081   7.444   5.461  0.4142  0.0642 -0.7977
  236MOL0     H31858   5.927   7.584   5.724 -0.2079  0.6921  0.3254
  236MOL0     H31859   6.038   7.447   5.695  1.1632 -0.7915  3.6621
  236MOL0     H31860   6.104   7.587   5.770  2.1342 -1.4921 -1.9006
  237MOL0     O31861   1.478   4.639  10.311  0.3769 -0.5624  0.1539
  237MOL0     C31862   1.400   4.683  10.220  0.6991 -0.4924  0.0438
  237MOL0     O31863   1.443   4.701  10.089  0.4474  0.3823 -0.1488
  237MOL0     C31864   1.570   4.670  10.038  0.4634  1.2703  0.4753
  237MOL0     C31865   1.636   4.554  10.055  0.2803  0.3917 -0.7097
  237MOL0     C31866   1.766   4.523  10.007  1.1950  0.6377 -0.3455
  237MOL0     C31867   1.831   4.607   9.926 -0.4178 -0.9146 -0.7017
  237MOL0     O31868   1.956   4.576   9.878 -0.3778 -0.4291  1.1151
  237MOL0     C31869   2.022   4.679   9.801  0.0237  0.5019 -0.0399
  237MOL0     C31870   2.167   4.640   9.774 -0.6968  0.1843  0.1781
  237MOL0     C31871   2.190   4.519   9.678 -0.2080 -1.1138  0.7621
  237MOL0     C31872   2.331   4.472   9.652  0.2435 -0.4348 -0.1799
  237MOL0     C31873   2.356   4.337   9.723 -0.2905  0.4185 -0.2340
  237MOL0     C31874   2.500   4.294   9.730  1.2730  0.0864 -0.0814
  237MOL0     C31875   2.513   4.161   9.796 -0.2754 -0.1504 -0.3112
  237MOL0     C31876   2.638   4.117   9.864 -0.0820 -0.0766  0.4775
  237MOL0     N31877   2.647   4.155  10.002  0.1572  0.5351 -0.3239
  237MOL0     C31878   2.647   4.275  10.060  0.8012  0.3981 -0.6150
  237MOL0     C31879   2.649   4.257  10.194 -0.6648 -0.5394  0.5222
  237MOL0     C31880   2.657   4.364  10.298  0.4284  0.1916 -0.4935
  237MOL0     C31881   2.703   4.314  10.432 -0.4811  0.4576 -0.1050
  237MOL0     C31882   2.580   4.276  10.521 -0.4002 -0.0133  0.4868
  237MOL0     C31883   2.631   4.221  10.654 -0.5494  0.8630 -0.2022
  237MOL0     O31884   2.719   4.297  10.737  0.0997 -0.2171 -0.2453
  237MOL0     C31885   2.667   4.393  10.818 -0.4078  0.3930  1.0323
  237MOL0     C31886   2.540   4.439  10.809  0.0273 -0.0856 -1.0266
  237MOL0     C31887   2.496   4.538  10.901  1.1351  0.0294  0.5077
  237MOL0     C31888   2.582   4.601  10.993  0.1096 -0.8283  0.0917
  237MOL0     C31889   2.537   4.717  11.075 -0.5097  1.1147 -0.1307
  237MOL0     O31890   2.614   4.763  11.177  0.4713 -0.2925  0.6626
  237MOL0     C31891   2.577   4.863  11.255 -0.6179 -0.9023 -0.1315
  237MOL0     C31892   2.444   4.896  11.304 -0.7800  0.4164  0.4012
  237MOL0     C31893   2.422   4.999  11.392 -1.1351 -0.4429 -0.8448
  237MOL0     C31894   2.534   5.069  11.446 -0.0371  0.1291  0.6851
  237MOL0     O31895   2.519   5.183  11.533 -0.1532 -0.4561  0.0273
  237MOL0     C31896   2.388   5.247  11.531 -0.5492  0.6843  0.3194
  237MOL0     C31897   2.386   5.337  11.653 -0.8908 -0.2703  0.1764
  237MOL0     C31898   2.255   5.425  11.675  0.2642  0.5024 -0.1266
  237MOL0     C31899   2.135   5.341  11.700  0.1987  0.5204 -0.9617
  237MOL0     C31900   2.029   5.411  11.784  0.4212 -0.6695 -0.8052
  237MOL0     C31901   1.975   5.541  11.719 -0.1082  0.0162  0.6320
  237MOL0     C31902   1.862   5.594  11.804  0.2657 -0.7739  0.0122
  237MOL0     C31903   1.778   5.711  11.757 -0.1976  0.1575  0.3254
  237MOL0    Cl31904   1.687   5.646  11.616 -0.5133 -0.1319 -0.0077
  237MOL0     C31905   2.657   5.025  11.407 -0.6471 -0.0653  0.1854
  237MOL0     C31906   2.681   4.927  11.311  0.1940  0.8786 -0.4096
  237MOL0     O31907   2.431   4.769  11.037 -0.5312 -0.3101  0.7802
  237MOL0     C31908   2.709   4.549  10.998 -0.6689 -0.7097 -0.2616
  237MOL0     C31909   2.751   4.453  10.915  0.2572 -0.3762 -0.6595
  237MOL0     N31910   2.654   4.123  10.220 -0.5530 -0.1044  0.8107
  237MOL0     N31911   2.653   4.066  10.106  0.4006 -0.1389 -0.3903
  237MOL0     C31912   1.760   4.719   9.897  0.7608 -0.1566 -0.7707
  237MOL0     C31913   1.627   4.749   9.943 -1.0137 -0.0647  0.0306
  237MOL0     C31914   1.264   4.733  10.254 -0.4846 -0.9371  0.3885
  237MOL0     C31915   1.220   4.734  10.379  0.1706 -0.1156  0.2586
  237MOL0     C31916   1.101   4.789  10.423  1.1577  0.0813 -0.0772
  237MOL0     C31917   1.010   4.843  10.333 -0.2899  0.1278 -0.7134
  237MOL0     O31918   0.898   4.895  10.395 -0.1964  0.2004 -0.1939
  237MOL0     C31919   0.796   4.951  10.306 -1.0421 -0.0838 -0.3780
  237MOL0     C31920   0.671   5.003  10.358 -0.4451  0.2953  0.0994
  237MOL0     C31921   0.557   4.909  10.387  1.1486 -1.3694  1.0455
  237MOL0     C31922   0.428   5.002  10.427  0.0620 -0.0183  0.5650
  237MOL0     C31923   0.444   5.074  10.558 -0.1308  0.2179  0.0507
  237MOL0     C31924   0.461   5.133  10.664 -0.3918 -0.1900  0.2025
  237MOL0     C31925   1.043   4.838  10.196  0.9672  0.3579  0.7124
  237MOL0     C31926   1.170   4.784  10.165 -0.4987  0.4183  0.3736
  237MOL0     C31927   1.196   4.806  10.018  0.3361  0.0530 -0.0144
  237MOL0     H31928   1.587   4.480  10.118  1.6169  1.3482  1.5815
  237MOL0     H31929   1.810   4.426  10.029 -2.4489 -0.6035  2.3744
  237MOL0     H31930   1.962   4.695   9.711  0.2433 -1.4601 -0.5879
  237MOL0     H31931   2.031   4.765   9.868  0.5594 -0.2513  0.8817
  237MOL0     H31932   2.215   4.633   9.872  0.1476  1.2886 -0.1235
  237MOL0     H31933   2.210   4.727   9.724  1.4342 -1.4160 -0.9561
  237MOL0     H31934   2.153   4.544   9.579  2.1647 -2.2015 -0.4968
  237MOL0     H31935   2.136   4.434   9.719 -0.4048 -1.7827 -0.8133
  237MOL0     H31936   2.320   4.455   9.545 -1.3779  2.4803 -0.5911
  237MOL0     H31937   2.400   4.555   9.672 -1.9839  1.5974 -0.4692
  237MOL0     H31938   2.325   4.331   9.828  1.3119  2.5466  0.4262
  237MOL0     H31939   2.308   4.260   9.662  0.8205 -1.8628  1.6409
  237MOL0     H31940   2.548   4.294   9.632  2.6638 -1.2423  0.5673
  237MOL0     H31941   2.545   4.368   9.798 -4.8991  2.2110  2.4636
  237MOL0     H31942   2.493   4.099   9.708 -0.1938  0.7216 -0.9599
  237MOL0     H31943   2.433   4.143   9.868 -0.2861 -0.4434 -0.3951
  237MOL0     H31944   2.645   4.008   9.857 -0.7434 -0.0602 -0.8540
  237MOL0     H31945   2.723   4.170   9.822 -0.6322  1.0173  0.7091
  237MOL0     H31946   2.651   4.375  10.018  1.8094  0.4543 -0.4235
  237MOL0     H31947   2.729   4.440  10.265  1.8109 -2.1023 -3.3332
  237MOL0     H31948   2.558   4.410  10.304  0.5470  1.0828 -3.4979
  237MOL0     H31949   2.768   4.226  10.428  2.1986  2.1573  2.3029
  237MOL0     H31950   2.753   4.392  10.490 -1.5829 -1.2857  3.4696
  237MOL0     H31951   2.511   4.207  10.472 -3.9217  1.6432  2.7369
  237MOL0     H31952   2.523   4.368  10.536  4.1427  3.5023 -1.2326
  237MOL0     H31953   2.684   4.127  10.636  1.3309  1.8381 -0.0268
  237MOL0     H31954   2.546   4.192  10.717 -0.6320  2.8919  0.7007
  237MOL0     H31955   2.467   4.404  10.737  0.0707 -0.8037 -0.7324
  237MOL0     H31956   2.392   4.569  10.898  0.8395 -0.7253  2.0278
  237MOL0     H31957   2.363   4.832  11.273 -0.3672 -0.2760  0.7287
  237MOL0     H31958   2.322   5.010  11.433  0.3870 -0.7810  3.4202
  237MOL0     H31959   2.358   5.301  11.441 -0.8144 -2.2545 -1.4653
  237MOL0     H31960   2.315   5.167  11.545  0.8156 -1.1813 -2.3144
  237MOL0     H31961   2.402   5.271  11.739  1.8887  2.4845  1.9991
  237MOL0     H31962   2.471   5.404  11.671 -1.6132  0.3731  1.3643
  237MOL0     H31963   2.272   5.501  11.752  0.5834 -0.6810  1.0028
  237MOL0     H31964   2.244   5.480  11.581 -0.8247 -1.4748 -1.2250
  237MOL0     H31965   2.179   5.257  11.753  4.0557  1.3816 -2.4574
  237MOL0     H31966   2.091   5.307  11.606  1.7705 -0.9882 -1.1957
  237MOL0     H31967   2.075   5.424  11.882  1.2467  1.0237 -1.3555
  237MOL0     H31968   1.947   5.340  11.796 -1.4025  1.3192 -0.9342
  237MOL0     H31969   2.058   5.612  11.718  0.7228 -0.9291  0.2514
  237MOL0     H31970   1.950   5.520  11.615  3.5988  0.5699 -0.5374
  237MOL0     H31971   1.893   5.619  11.906 -2.9304 -0.2943  0.9968
  237MOL0     H31972   1.795   5.510  11.826  2.0888 -1.6999  2.5387
  237MOL0     H31973   1.708   5.726  11.840 -1.2084 -3.6342  0.3756
  237MOL0     H31974   1.833   5.803  11.735  0.2023  0.3639  2.0042
  237MOL0     H31975   2.743   5.076  11.447 -0.7808 -0.3243  0.8073
  237MOL0     H31976   2.776   4.893  11.271 -0.8442  0.6927 -2.9368
  237MOL0     H31977   2.774   4.579  11.080 -2.7074 -1.6231  1.8150
  237MOL0     H31978   2.847   4.405  10.930  0.4561 -0.2983 -1.6470
  237MOL0     H31979   1.797   4.803   9.838  0.2310  1.4489  1.0749
  237MOL0     H31980   1.590   4.842   9.902  1.2150  0.4034 -1.0723
  237MOL0     H31981   1.280   4.693  10.460  1.5425 -1.3368 -1.2935
  237MOL0     H31982   1.063   4.759  10.520 -0.9242 -0.0220 -0.8691
  237MOL0     H31983   0.768   4.868  10.241  1.1222 -1.6271  0.5307
  237MOL0     H31984   0.840   5.029  10.243 -3.2205  1.6636  0.1286
  237MOL0     H31985   0.647   5.081  10.287  0.3737 -0.7896 -1.4287
  237MOL0     H31986   0.691   5.053  10.453  0.3328  2.8582 -1.3214
  237MOL0     H31987   0.574   4.830  10.460 -1.4405 -2.7516  0.2547
  237MOL0     H31988   0.533   4.857  10.294 -0.1883 -0.5543  0.9132
  237MOL0     H31989   0.420   5.084  10.356 -2.9448 -0.8060 -0.1643
  237MOL0     H31990   0.331   4.952  10.425 -1.2656  2.3831  1.0550
  237MOL0     H31991   0.455   5.190  10.755  1.3973 -2.2420  1.7013
  237MOL0     H31992   0.991   4.895  10.120 -0.2902 -2.3811 -0.5857
  237MOL0     H31993   1.105   4.835   9.964  0.2594 -0.5946 -0.2389
  237MOL0     H31994   1.263   4.890   9.995 -0.3683  0.7044  0.2510
  237MOL0     H31995   1.232   4.726   9.953 -2.3085 -0.9913 -0.3492
  238MOL0     O31996   7.595   4.241  10.391  0.0198 -0.6020  0.1673
  238MOL0     C31997   7.594   4.141  10.465 -0.5096 -0.7982 -0.3765
  238MOL0     O31998   7.483   4.079  10.499  0.1027  0.1595  0.2474
  238MOL0     C31999   7.355   4.133  10.501 -0.1668 -1.4410  0.6586
  238MOL0     C32000   7.320   4.263  10.533 -0.4151  0.1952 -0.9505
  238MOL0     C32001   7.183   4.298  10.543 -0.5504 -0.5709 -0.5351
  238MOL0     C32002   7.081   4.206  10.521 -0.1234  0.1704 -0.8090
  238MOL0     O32003   6.951   4.246  10.523  0.6446  0.1335  0.0480
  238MOL0     C32004   6.855   4.179  10.436  1.1965  0.2259 -0.4876
  238MOL0     C32005   6.745   4.283  10.384 -0.2554  0.5496 -0.8964
  238MOL0     C32006   6.775   4.343  10.247 -0.6175 -0.5164 -0.0865
  238MOL0     C32007   6.684   4.461  10.190  0.1353  0.2821  0.5480
  238MOL0     C32008   6.680   4.455  10.035  0.3354 -0.2441  1.0332
  238MOL0     C32009   6.809   4.489   9.978  0.5847  0.2061  1.6942
  238MOL0     C32010   6.797   4.493   9.822 -0.3751  0.3590 -0.2695
  238MOL0     C32011   6.936   4.535   9.753 -0.6431 -0.4246 -0.0959
  238MOL0     N32012   6.937   4.678   9.725 -0.4838  0.0719 -0.0547
  238MOL0     C32013   6.969   4.743   9.597  0.1946  0.0028 -0.0760
  238MOL0     C32014   6.957   4.874   9.626 -0.3571  0.1368 -0.3764
  238MOL0     C32015   6.987   4.981   9.529  0.3365 -0.5500 -1.2436
  238MOL0     C32016   6.864   5.009   9.439 -1.0920  0.1910 -0.6352
  238MOL0     C32017   6.880   5.144   9.366 -0.4578 -0.3745  0.7928
  238MOL0     C32018   7.018   5.167   9.296  0.1286  0.3432  0.6678
  238MOL0     O32019   7.060   5.051   9.215  0.0766 -0.3111  0.3416
  238MOL0     C32020   7.162   5.086   9.130 -0.3504  0.4706 -0.1452
  238MOL0     C32021   7.180   5.004   9.020  0.1801 -1.0574  0.6212
  238MOL0     C32022   7.272   5.030   8.918  1.0561 -1.0240  0.2002
  238MOL0     C32023   7.347   5.145   8.923  0.5280 -0.8412 -0.3578
  238MOL0     C32024   7.449   5.179   8.821  0.1302 -0.8503 -0.3537
  238MOL0     O32025   7.541   5.265   8.848  0.7488  0.4954 -0.1020
  238MOL0     C32026   7.639   5.296   8.758  0.6835  0.7628 -0.2948
  238MOL0     C32027   7.774   5.247   8.791 -0.1769 -0.2768 -0.0331
  238MOL0     C32028   7.879   5.262   8.705  0.5507  0.0127  0.7973
  238MOL0     C32029   7.842   5.308   8.576  0.6754 -0.1305 -0.7993
  238MOL0     O32030   7.935   5.340   8.486 -0.3180  0.5169 -0.5857
  238MOL0     C32031   7.928   5.270   8.367  0.1098  1.2409 -0.0621
  238MOL0     C32032   7.914   5.358   8.250  0.8924  0.0837  0.1346
  238MOL0     C32033   7.954   5.287   8.123 -0.4603  0.8382 -0.0423
  238MOL0     C32034   7.952   5.367   7.994 -0.3415 -0.1551  0.4309
  238MOL0     C32035   8.068   5.318   7.895 -0.3597  0.3661 -1.4709
  238MOL0     C32036   8.039   5.349   7.752  0.1839 -0.3762  0.4522
  238MOL0     C32037   8.080   5.484   7.698 -0.4317  0.1339  0.8696
  238MOL0     C32038   7.977   5.583   7.717  0.2229  0.7800 -0.1513
  238MOL0    Cl32039   7.994   5.684   7.575 -0.3355 -0.3421  0.2475
  238MOL0     C32040   7.724   5.368   8.544  0.6114  0.3571 -0.2568
  238MOL0     C32041   7.626   5.365   8.643  0.1212  0.7342 -0.1423
  238MOL0     O32042   7.441   5.116   8.724  0.0788  0.1014  0.1513
  238MOL0     C32043   7.341   5.222   9.039  0.3539 -0.4734 -0.0823
  238MOL0     C32044   7.246   5.199   9.142 -0.4135  0.4954  0.5316
  238MOL0     N32045   6.913   4.893   9.757  0.0207 -0.3356 -0.7707
  238MOL0     N32046   6.911   4.775   9.816 -0.2511 -0.4006  1.0358
  238MOL0     C32047   7.124   4.075  10.492  0.3764  0.4188 -0.3286
  238MOL0     C32048   7.256   4.031  10.486 -0.0515  0.4866 -0.4352
  238MOL0     C32049   7.727   4.098  10.516  0.3594  0.7789 -0.4005
  238MOL0     C32050   7.714   4.002  10.620 -0.3995  0.0343 -0.8149
  238MOL0     C32051   7.827   3.945  10.687  0.5924 -0.3587 -0.5852
  238MOL0     C32052   7.953   3.990  10.649 -0.4810 -0.0893 -0.4697
  238MOL0     O32053   8.073   3.940  10.692 -0.0897  0.7946  0.0597
  238MOL0     C32054   8.078   3.856  10.810  0.0646 -0.9110  0.0656
  238MOL0     C32055   8.226   3.844  10.850 -0.4930 -0.3514 -0.1626
  238MOL0     C32056   8.252   3.749  10.969  0.4125 -0.1322 -0.5193
  238MOL0     C32057   8.364   3.794  11.050 -0.3802  0.0667  0.1240
  238MOL0     C32058   8.373   3.912  11.132  0.7991 -0.1530 -0.4899
  238MOL0     C32059   8.371   4.013  11.195  0.7706 -0.6193 -1.3794
  238MOL0     C32060   7.968   4.084  10.549  0.2412 -0.4879 -0.2598
  238MOL0     C32061   7.854   4.130  10.477 -0.0482 -0.1685 -0.3672
  238MOL0     C32062   7.876   4.195  10.347  0.0260  0.1784  0.7686
  238MOL0     H32063   7.395   4.336  10.561  0.3375 -0.1937 -1.8782
  238MOL0     H32064   7.172   4.406  10.554 -0.8343 -0.7989  1.8645
  238MOL0     H32065   6.898   4.121  10.354  0.0098  2.7226 -3.0167
  238MOL0     H32066   6.807   4.104  10.499  1.8665 -0.1865 -0.4488
  238MOL0     H32067   6.745   4.366  10.456  2.0848 -0.1632  0.0224
  238MOL0     H32068   6.653   4.225  10.377  0.2959 -0.5866  0.5867
  238MOL0     H32069   6.764   4.261  10.175 -2.0676  1.2407 -1.9906
  238MOL0     H32070   6.876   4.385  10.242 -0.8903  0.2046  0.3879
  238MOL0     H32071   6.586   4.433  10.228  1.8500 -0.5851  5.0642
  238MOL0     H32072   6.710   4.559  10.232  0.3251  1.4197 -2.0506
  238MOL0     H32073   6.653   4.358   9.993 -0.9168  0.2420  0.6774
  238MOL0     H32074   6.616   4.537  10.001  0.3303 -0.6881 -0.0548
  238MOL0     H32075   6.849   4.583  10.017  0.5366  0.3944  1.2999
  238MOL0     H32076   6.889   4.422  10.010  0.6116 -1.1069 -0.8939
  238MOL0     H32077   6.713   4.552   9.785  0.1788  0.1573 -1.9568
  238MOL0     H32078   6.773   4.394   9.782 -0.1851  0.0875  0.2676
  238MOL0     H32079   7.023   4.505   9.812 -1.6866  1.6656  2.7645
  238MOL0     H32080   6.947   4.497   9.651  0.8835  1.5044 -0.7232
  238MOL0     H32081   6.989   4.695   9.502 -0.4426 -1.4224  0.4672
  238MOL0     H32082   7.003   5.070   9.591  0.0191  0.9713 -3.2309
  238MOL0     H32083   7.074   4.950   9.470  0.0792 -0.3110 -1.7510
  238MOL0     H32084   6.854   4.925   9.370 -1.7110 -0.6496  0.4373
  238MOL0     H32085   6.767   5.009   9.490 -1.0358 -1.4719 -0.4621
  238MOL0     H32086   6.875   5.221   9.442  2.3712  2.0520 -1.2311
  238MOL0     H32087   6.805   5.171   9.290  0.1779 -2.3728 -0.6440
  238MOL0     H32088   7.086   5.184   9.380  0.7563  2.1736 -0.1598
  238MOL0     H32089   7.025   5.262   9.243 -1.2536  0.0663 -0.0603
  238MOL0     H32090   7.103   4.928   9.011  0.0389 -0.8182 -0.3946
  238MOL0     H32091   7.271   4.957   8.838 -2.8940 -0.7990 -0.1819
  238MOL0     H32092   7.788   5.207   8.891 -1.1475  0.9675  0.6294
  238MOL0     H32093   7.983   5.237   8.725  1.0189  2.0423  1.1052
  238MOL0     H32094   8.023   5.216   8.361 -0.3117  0.2827  1.4299
  238MOL0     H32095   7.844   5.200   8.363 -0.6815  2.2071 -1.3528
  238MOL0     H32096   7.810   5.390   8.236  0.4151 -2.4381 -4.1142
  238MOL0     H32097   7.976   5.447   8.263 -2.4956  2.5639  0.5294
  238MOL0     H32098   8.058   5.255   8.128 -0.4692  0.0342 -3.2112
  238MOL0     H32099   7.881   5.207   8.111 -1.4310  1.6685  0.1348
  238MOL0     H32100   7.959   5.475   8.010  1.8976  0.2152 -2.2143
  238MOL0     H32101   7.857   5.341   7.947  0.9539 -3.5548 -0.6463
  238MOL0     H32102   8.092   5.212   7.910  2.5949  1.3757  2.9286
  238MOL0     H32103   8.158   5.374   7.925 -2.0485  1.0812  3.2090
  238MOL0     H32104   8.094   5.275   7.693 -1.5523 -0.4770 -1.1442
  238MOL0     H32105   7.937   5.325   7.720  1.5234 -1.6665 -3.5580
  238MOL0     H32106   8.088   5.462   7.591  2.6876 -2.6276  1.4967
  238MOL0     H32107   8.172   5.526   7.739  0.4114  3.0275 -3.3161
  238MOL0     H32108   7.877   5.544   7.734 -0.3877  2.4739  0.3815
  238MOL0     H32109   8.001   5.632   7.813 -1.9268 -0.8201  1.2902
  238MOL0     H32110   7.698   5.422   8.453 -2.0079  1.1967  0.8664
  238MOL0     H32111   7.523   5.398   8.638  0.1209  0.6722 -0.5146
  238MOL0     H32112   7.397   5.315   9.044  0.1033 -0.2126 -1.6716
  238MOL0     H32113   7.261   5.266   9.226 -1.0992  0.0519  1.0134
  238MOL0     H32114   7.049   4.001  10.464  1.8783 -2.8489  3.3440
  238MOL0     H32115   7.294   3.932  10.463  1.6757  0.5336  1.9260
  238MOL0     H32116   7.621   3.976  10.668 -0.3707  0.7745 -0.3396
  238MOL0     H32117   7.809   3.854  10.742  0.4312 -0.9488 -1.5755
  238MOL0     H32118   8.033   3.761  10.778  1.4174 -1.5528  0.0250
  238MOL0     H32119   8.023   3.887  10.899 -0.1011 -1.8545  0.3015
  238MOL0     H32120   8.276   3.938  10.872 -4.1840  1.3342  2.1279
  238MOL0     H32121   8.283   3.795  10.771 -0.0822  0.7960 -0.5834
  238MOL0     H32122   8.275   3.649  10.932  1.2266 -0.7643  1.6082
  238MOL0     H32123   8.164   3.750  11.034  2.3657  1.1562  2.2789
  238MOL0     H32124   8.391   3.721  11.128  0.2190  3.0237  2.9170
  238MOL0     H32125   8.448   3.791  10.980 -0.9550 -2.3702 -0.5723
  238MOL0     H32126   8.352   4.108  11.240  0.7139 -1.4610  0.4872
  238MOL0     H32127   8.065   4.118  10.514 -0.5298  1.4044 -0.6825
  238MOL0     H32128   7.842   4.299  10.350  4.2024  1.7245  1.4409
  238MOL0     H32129   7.979   4.209  10.310  0.0323 -0.4672  0.5308
  238MOL0     H32130   7.819   4.145  10.268  1.5669  1.0861 -1.0197
  239MOL0     O32131   8.436   9.249   2.759 -0.4103 -0.7673  0.3999
  239MOL0     C32132   8.372   9.343   2.714 -0.5870  0.5919  0.7716
  239MOL0     O32133   8.239   9.355   2.727 -0.1185 -0.1057  0.2105
  239MOL0     C32134   8.161   9.290   2.821 -0.6427  0.1395 -0.6683
  239MOL0     C32135   8.026   9.256   2.790  0.1368  0.1151  0.2613
  239MOL0     C32136   7.935   9.192   2.883 -0.8511  0.4660  0.4047
  239MOL0     C32137   7.990   9.146   3.000 -1.0224  0.2263 -0.1052
  239MOL0     O32138   7.931   9.057   3.084 -0.0395 -0.8912 -0.0887
  239MOL0     C32139   7.813   8.987   3.036  0.2223  0.1726  0.1542
  239MOL0     C32140   7.829   8.843   3.074  0.2558  0.0099 -0.0647
  239MOL0     C32141   7.970   8.794   3.043  0.0296  0.1529 -0.1333
  239MOL0     C32142   7.984   8.648   3.060 -1.0717 -0.0682 -0.0818
  239MOL0     C32143   8.124   8.594   3.004 -0.3712  0.4328  0.9286
  239MOL0     C32144   8.129   8.451   3.028  0.2955 -0.0941  0.1195
  239MOL0     C32145   8.254   8.383   2.976 -0.3272 -0.0293 -0.0656
  239MOL0     C32146   8.296   8.425   2.838 -0.0553 -0.5643 -0.5716
  239MOL0     N32147   8.401   8.333   2.793  0.7884 -0.4311 -0.3551
  239MOL0     C32148   8.387   8.218   2.734 -1.0033  0.1935 -0.7249
  239MOL0     C32149   8.510   8.164   2.712  0.3957 -1.5276  0.1514
  239MOL0     C32150   8.542   8.023   2.672 -0.0208 -0.0113 -0.2477
  239MOL0     C32151   8.544   8.007   2.518 -0.2156  0.6799 -0.6525
  239MOL0     C32152   8.412   8.034   2.440  0.1648 -0.0641  0.4957
  239MOL0     C32153   8.434   8.044   2.286 -0.0298 -0.7514 -0.4155
  239MOL0     O32154   8.325   8.131   2.243  0.2836  0.3502  1.0969
  239MOL0     C32155   8.300   8.142   2.108 -0.0057 -0.3031  0.2692
  239MOL0     C32156   8.408   8.151   2.025  0.9562 -0.6113 -0.3030
  239MOL0     C32157   8.376   8.166   1.883 -0.4946 -0.1593  0.3999
  239MOL0     C32158   8.244   8.173   1.834 -0.6055  0.0553  0.7086
  239MOL0     C32159   8.216   8.204   1.687 -0.6610  0.3502 -0.0366
  239MOL0     O32160   8.331   8.217   1.609  0.2880  0.9958 -0.7773
  239MOL0     C32161   8.301   8.267   1.492  0.5746 -0.1125 -0.6830
  239MOL0     C32162   8.259   8.191   1.377  0.2801 -0.3027 -0.5452
  239MOL0     C32163   8.242   8.255   1.254 -0.1971 -0.1085  0.3946
  239MOL0     C32164   8.271   8.394   1.248  0.1762 -0.8535  0.6333
  239MOL0     O32165   8.259   8.451   1.122 -0.8983  0.6276  0.6337
  239MOL0     C32166   8.290   8.589   1.097 -0.1776 -0.0032 -0.2855
  239MOL0     C32167   8.242   8.614   0.953  0.3660 -0.0484 -0.6203
  239MOL0     C32168   8.308   8.742   0.895  0.7547 -0.4534 -0.5804
  239MOL0     C32169   8.256   8.774   0.766 -0.0857 -0.2525  0.5780
  239MOL0     C32170   8.315   8.909   0.721 -0.1314 -0.4506  0.5961
  239MOL0     C32171   8.229   8.942   0.589  0.0542 -0.7462 -0.4835
  239MOL0     C32172   8.293   9.059   0.519  0.2255 -0.1482  0.2386
  239MOL0     C32173   8.261   9.192   0.576 -0.3153  0.3175  0.4245
  239MOL0    Cl32174   8.355   9.316   0.497 -0.5133 -0.4669  0.2859
  239MOL0     C32175   8.299   8.468   1.364  0.2650 -0.2496  0.3027
  239MOL0     C32176   8.311   8.407   1.488 -0.0913  0.1701  0.0694
  239MOL0     O32177   8.099   8.216   1.652 -0.4150  0.6264  0.2067
  239MOL0     C32178   8.136   8.158   1.923 -0.2239  0.1542  0.8930
  239MOL0     C32179   8.167   8.130   2.050  0.2258  0.5773 -0.1094
  239MOL0     N32180   8.597   8.267   2.750 -0.2927  0.5732 -0.8897
  239MOL0     N32181   8.534   8.359   2.820  0.6434  0.3735 -0.1665
  239MOL0     C32182   8.121   9.180   3.031  0.1390 -0.8324 -0.5000
  239MOL0     C32183   8.199   9.257   2.947  0.1160  0.2456  0.2626
  239MOL0     C32184   8.439   9.448   2.628 -0.2244  0.1209 -0.4492
  239MOL0     C32185   8.354   9.529   2.550 -0.3133  0.4916 -0.4267
  239MOL0     C32186   8.406   9.596   2.441  0.6643 -0.0711 -0.7555
  239MOL0     C32187   8.542   9.611   2.425  0.1444  0.2741 -0.2162
  239MOL0     O32188   8.597   9.705   2.345  0.2682  0.0048  0.1401
  239MOL0     C32189   8.528   9.719   2.225  0.3595  1.6125  0.4847
  239MOL0     C32190   8.634   9.754   2.112  0.1247  0.1352  0.1070
  239MOL0     C32191   8.706   9.882   2.143 -0.2129  0.4520 -0.7399
  239MOL0     C32192   8.862   9.878   2.119 -0.4937  0.7610  0.7134
  239MOL0     C32193   8.882   9.805   1.997  0.3735  0.5333  0.0190
  239MOL0     C32194   8.905   9.762   1.891 -0.5964 -0.2291  0.2622
  239MOL0     C32195   8.628   9.544   2.510 -1.1976 -0.6311 -0.6222
  239MOL0     C32196   8.576   9.459   2.614 -0.5475 -0.4603  0.4882
  239MOL0     C32197   8.689   9.402   2.695 -0.5710  0.2032  0.2214
  239MOL0     H32198   8.003   9.274   2.685  0.4595  0.2427  0.2110
  239MOL0     H32199   7.831   9.175   2.859 -1.0520 -1.5515  2.3716
  239MOL0     H32200   7.720   9.033   3.070 -0.6210 -0.0462 -1.7550
  239MOL0     H32201   7.814   8.987   2.927  1.5915  1.6922  0.1337
  239MOL0     H32202   7.754   8.785   3.020  0.2966  0.4259 -0.5738
  239MOL0     H32203   7.801   8.822   3.177  2.1466 -0.0878  0.4547
  239MOL0     H32204   8.040   8.854   3.103  0.8451  0.7913 -1.6462
  239MOL0     H32205   7.983   8.826   2.939 -3.0249  0.5208 -0.4886
  239MOL0     H32206   7.986   8.635   3.169  2.4934 -0.2115 -0.0428
  239MOL0     H32207   7.909   8.604   2.995 -1.4470  3.3846 -2.2846
  239MOL0     H32208   8.127   8.608   2.895 -1.1407 -3.1208  0.3390
  239MOL0     H32209   8.207   8.646   3.053 -0.5556 -0.9059  2.7368
  239MOL0     H32210   8.117   8.438   3.136 -2.4283  2.1510  0.1856
  239MOL0     H32211   8.049   8.389   2.987  0.2504  1.7619 -2.8557
  239MOL0     H32212   8.239   8.275   2.979  1.2110 -0.2915 -0.7605
  239MOL0     H32213   8.336   8.406   3.045  0.7982  0.8241 -1.6096
  239MOL0     H32214   8.204   8.416   2.779 -0.5683  0.1314  0.1045
  239MOL0     H32215   8.326   8.531   2.837  0.0265 -0.5765  0.1228
  239MOL0     H32216   8.298   8.159   2.713 -0.4352 -0.2353 -1.9830
  239MOL0     H32217   8.644   7.995   2.700  0.6494  1.6530 -0.9036
  239MOL0     H32218   8.467   7.963   2.724  0.8852 -2.3993 -1.5347
  239MOL0     H32219   8.620   8.084   2.504  2.1349 -1.2213  0.8934
  239MOL0     H32220   8.586   7.907   2.505  0.8827  0.9427  0.6611
  239MOL0     H32221   8.363   8.126   2.472  1.4659  0.6816  0.3772
  239MOL0     H32222   8.331   7.966   2.471 -2.1723  2.2957 -0.0174
  239MOL0     H32223   8.436   7.947   2.234 -0.0712  0.1237 -2.1418
  239MOL0     H32224   8.528   8.098   2.270 -0.3903  0.3572  1.0103
  239MOL0     H32225   8.513   8.130   2.045  1.2579 -1.7579 -2.6828
  239MOL0     H32226   8.471   8.171   1.830 -0.4144 -0.0499  0.5540
  239MOL0     H32227   8.249   8.084   1.388  0.5902 -0.2450  0.3860
  239MOL0     H32228   8.230   8.199   1.162  2.1484  1.6839 -1.1376
  239MOL0     H32229   8.235   8.658   1.162  1.3681  0.1019  0.9822
  239MOL0     H32230   8.396   8.602   1.118 -0.4355 -1.6492  2.4364
  239MOL0     H32231   8.269   8.542   0.876 -1.6499 -0.1644 -1.2720
  239MOL0     H32232   8.133   8.608   0.956  0.3419  0.5843  0.5129
  239MOL0     H32233   8.274   8.828   0.955 -2.1872 -0.2347 -2.3633
  239MOL0     H32234   8.417   8.737   0.894  1.0016  1.5289  2.3677
  239MOL0     H32235   8.149   8.792   0.778  0.0549  2.4075 -1.1810
  239MOL0     H32236   8.283   8.699   0.691 -0.9028 -1.9534  1.9339
  239MOL0     H32237   8.422   8.897   0.699  0.3804 -1.9854  3.3738
  239MOL0     H32238   8.313   8.987   0.797 -0.9525  1.4356 -1.2555
  239MOL0     H32239   8.228   8.856   0.521 -0.5893 -1.1916  0.0700
  239MOL0     H32240   8.127   8.971   0.615  0.4591  2.4835 -2.0486
  239MOL0     H32241   8.269   9.059   0.413 -1.7060 -2.1521  0.5995
  239MOL0     H32242   8.402   9.055   0.516  0.2001 -0.9615  0.2122
  239MOL0     H32243   8.156   9.217   0.556  0.4185  1.3763 -2.6420
  239MOL0     H32244   8.283   9.198   0.683  3.9096  2.6859 -0.3642
  239MOL0     H32245   8.315   8.574   1.350 -2.3333 -0.1420 -3.1276
  239MOL0     H32246   8.327   8.473   1.573  0.3248 -0.7940  0.7558
  239MOL0     H32247   8.040   8.175   1.875  0.0303 -4.4842 -1.8709
  239MOL0     H32248   8.080   8.115   2.112  1.3109  0.4700  1.4383
  239MOL0     H32249   8.176   9.157   3.121  1.3054 -4.3499 -1.9201
  239MOL0     H32250   8.300   9.276   2.984 -1.0036  1.1870  3.0821
  239MOL0     H32251   8.246   9.513   2.553 -0.0983 -1.7140 -2.1739
  239MOL0     H32252   8.346   9.656   2.373  0.2788  1.6791  1.0528
  239MOL0     H32253   8.448   9.794   2.217 -1.2944 -0.2839 -2.9108
  239MOL0     H32254   8.473   9.627   2.203  2.3056  0.0997  1.6441
  239MOL0     H32255   8.582   9.769   2.016 -2.2772  0.2419  1.3408
  239MOL0     H32256   8.696   9.665   2.102 -1.4777 -0.9554 -0.5248
  239MOL0     H32257   8.696   9.921   2.244  0.5706 -0.9864 -0.0689
  239MOL0     H32258   8.669   9.959   2.074 -1.2631  1.8045  1.2506
  239MOL0     H32259   8.899   9.980   2.116  0.4996  0.4614  1.9639
  239MOL0     H32260   8.928   9.821   2.186 -1.0598  0.3043  0.8964
  239MOL0     H32261   8.940   9.745   1.791  0.9744  1.5805  0.4386
  239MOL0     H32262   8.735   9.533   2.499 -1.1642 -1.4847  0.4103
  239MOL0     H32263   8.754   9.334   2.640  0.1924  1.4183 -0.4088
  239MOL0     H32264   8.743   9.491   2.728 -4.4664  2.7779  0.3184
  239MOL0     H32265   8.661   9.333   2.776  2.9335 -2.7405 -0.8072
  240MOL0     O32266   3.710   1.696   6.341  0.2050  0.2803  0.1409
  240MOL0     C32267   3.593   1.724   6.355  0.0671  0.5289  0.1351
  240MOL0     O32268   3.494   1.646   6.421  0.5172  0.0641  0.2649
  240MOL0     C32269   3.528   1.526   6.469  0.3778 -0.2034 -0.2458
  240MOL0     C32270   3.542   1.499   6.602  0.5974  0.0676 -0.6894
  240MOL0     C32271   3.592   1.374   6.647  0.4226  0.4690 -0.4239
  240MOL0     C32272   3.634   1.274   6.558  0.5170  0.6745 -0.3696
  240MOL0     O32273   3.689   1.155   6.593 -0.2676  0.2843 -0.6229
  240MOL0     C32274   3.628   1.099   6.711  0.4137  0.7389  0.1159
  240MOL0     C32275   3.582   0.951   6.678  0.3180 -0.3505  0.7637
  240MOL0     C32276   3.519   0.880   6.790  0.3631 -0.0113 -0.0058
  240MOL0     C32277   3.524   0.735   6.777  0.4795  0.8171 -0.2096
  240MOL0     C32278   3.415   0.691   6.890 -0.4836  0.7740  0.1865
  240MOL0     C32279   3.396   0.539   6.917  0.3437 -0.0648 -0.0430
  240MOL0     C32280   3.306   0.504   7.035  1.0474  1.6465  0.1478
  240MOL0     C32281   3.294   0.347   7.067 -1.0623 -0.0736  0.6130
  240MOL0     N32282   3.290   0.263   6.940 -0.1206 -0.2254 -0.9780
  240MOL0     C32283   3.197   0.266   6.850  0.3504  0.2911 -0.0364
  240MOL0     C32284   3.250   0.208   6.740  0.2619 -0.9428  0.6567
  240MOL0     C32285   3.191   0.179   6.606 -0.6435 -0.4201 -0.5773
  240MOL0     C32286   3.095   0.061   6.607 -0.3401 -0.4011 -0.0487
  240MOL0     C32287   3.091   0.014   6.461  0.0328  0.3419 -0.2129
  240MOL0     C32288   2.992  -0.094   6.447  0.0209  0.1744  0.0163
  240MOL0     O32289   3.004  -0.158   6.315 -0.2057  0.5323  0.5923
  240MOL0     C32290   2.892  -0.156   6.227  0.3579 -0.2622 -0.0776
  240MOL0     C32291   2.833  -0.034   6.177 -0.5328  1.4145 -0.2445
  240MOL0     C32292   2.709  -0.033   6.116 -0.6430 -0.7776 -0.0649
  240MOL0     C32293   2.654  -0.161   6.077  0.0489 -0.2458  0.2429
  240MOL0     C32294   2.526  -0.166   5.997 -0.2720  0.0708  0.2093
  240MOL0     O32295   2.514  -0.071   5.904 -0.1017  0.3862 -1.0957
  240MOL0     C32296   2.413  -0.069   5.806  0.7139 -0.0082  1.0317
  240MOL0     C32297   2.395   0.059   5.743  0.0678  0.2608  0.5746
  240MOL0     C32298   2.313   0.079   5.635  0.9669  0.7727  0.0547
  240MOL0     C32299   2.230  -0.026   5.596 -0.5113  0.2715  0.3541
  240MOL0     O32300   2.121  -0.013   5.515  0.6922  0.2623 -1.0905
  240MOL0     C32301   2.009   0.055   5.585  0.5906 -0.2295 -0.0403
  240MOL0     C32302   1.879  -0.005   5.529 -0.5617 -0.0673  1.0597
  240MOL0     C32303   1.837   0.081   5.416 -0.0761  0.7948  0.0927
  240MOL0     C32304   1.712   0.009   5.342  0.0883  0.3845 -1.0908
  240MOL0     C32305   1.633   0.101   5.246 -1.2748 -0.1341 -0.6297
  240MOL0     C32306   1.715   0.145   5.129 -0.4283  0.0210 -0.0222
  240MOL0     C32307   1.637   0.188   5.004  0.7103 -0.4851  0.9378
  240MOL0     C32308   1.547   0.080   4.939  0.5777 -0.9608  0.2055
  240MOL0    Cl32309   1.632  -0.074   4.920 -0.1548 -0.1684  0.2051
  240MOL0     C32310   2.240  -0.151   5.657 -0.1766 -0.6678  0.2048
  240MOL0     C32311   2.331  -0.174   5.764 -0.3483 -0.0340  0.3718
  240MOL0     O32312   2.437  -0.242   6.036  0.4840 -0.2675  0.4435
  240MOL0     C32313   2.707  -0.280   6.126 -0.6356  0.3138 -0.6851
  240MOL0     C32314   2.819  -0.270   6.212 -0.1538  0.4970 -0.0270
  240MOL0     N32315   3.377   0.168   6.775  0.3626  0.3269  0.1736
  240MOL0     N32316   3.392   0.188   6.899 -0.4027  0.5636 -0.5423
  240MOL0     C32317   3.611   1.297   6.419 -0.5798 -0.2326 -0.4041
  240MOL0     C32318   3.563   1.423   6.382 -0.3073 -0.8811 -0.0265
  240MOL0     C32319   3.544   1.848   6.295 -0.8047 -0.5491  0.3861
  240MOL0     C32320   3.404   1.870   6.277  0.0811  0.1685 -0.4145
  240MOL0     C32321   3.344   1.979   6.223 -0.3277  0.1574 -0.1088
  240MOL0     C32322   3.422   2.075   6.158 -0.0710 -1.2275 -0.5258
  240MOL0     O32323   3.365   2.190   6.090  0.5155  0.3754  0.1814
  240MOL0     C32324   3.231   2.198   6.073  0.5944 -0.6211  0.6508
  240MOL0     C32325   3.198   2.310   5.965 -0.7557 -0.3719  0.6716
  240MOL0     C32326   3.248   2.449   6.016 -0.1281  0.0340 -0.3753
  240MOL0     C32327   3.190   2.556   5.929 -0.2064 -0.4323  0.8708
  240MOL0     C32328   3.296   2.625   5.852 -0.4811 -0.0373 -0.2906
  240MOL0     C32329   3.390   2.680   5.809 -0.0825 -0.6035  0.4108
  240MOL0     C32330   3.551   2.051   6.150 -0.4364  0.1559 -0.0006
  240MOL0     C32331   3.616   1.943   6.220 -0.1378 -0.0341 -0.5980
  240MOL0     C32332   3.763   1.930   6.197 -0.1286 -0.5592  0.0760
  240MOL0     H32333   3.509   1.557   6.687 -1.0374 -0.8645 -0.6517
  240MOL0     H32334   3.595   1.375   6.755  1.9162  0.0883 -0.4344
  240MOL0     H32335   3.700   1.101   6.793  0.5717  0.4586 -0.0163
  240MOL0     H32336   3.529   1.142   6.728 -1.5147 -2.6471 -1.4663
  240MOL0     H32337   3.671   0.895   6.648 -0.8413 -2.0693  0.4107
  240MOL0     H32338   3.521   0.960   6.587  3.6546 -0.0777 -1.6261
  240MOL0     H32339   3.416   0.916   6.788 -0.4856 -2.3040 -0.4121
  240MOL0     H32340   3.563   0.909   6.885  0.3989  0.5108 -0.1774
  240MOL0     H32341   3.499   0.700   6.676 -0.2213  1.1060 -0.1434
  240MOL0     H32342   3.616   0.686   6.809 -0.3657 -1.6352 -1.2743
  240MOL0     H32343   3.444   0.727   6.989 -0.3669  3.1477 -0.6252
  240MOL0     H32344   3.326   0.752   6.871  2.4901  4.7648 -2.8194
  240MOL0     H32345   3.358   0.489   6.826 -0.9601 -1.7630  1.3535
  240MOL0     H32346   3.491   0.489   6.939 -0.6495 -1.2653  1.7900
  240MOL0     H32347   3.203   0.535   7.012  0.9707  1.4476  0.2258
  240MOL0     H32348   3.336   0.546   7.131  0.6772 -0.5988  1.3176
  240MOL0     H32349   3.385   0.313   7.118  0.3020  1.1783 -0.8251
  240MOL0     H32350   3.198   0.343   7.118 -2.0588 -0.9334 -1.2276
  240MOL0     H32351   3.097   0.305   6.864 -0.3782 -1.2306 -0.7339
  240MOL0     H32352   3.144   0.272   6.574  1.5680  1.7381  1.9568
  240MOL0     H32353   3.267   0.162   6.529 -2.3553 -0.9292 -2.2282
  240MOL0     H32354   3.132  -0.020   6.670  0.2567 -3.4732 -3.9444
  240MOL0     H32355   2.997   0.093   6.645  0.3069 -1.2314  2.4376
  240MOL0     H32356   3.184  -0.032   6.426 -1.2977 -1.6297 -1.3455
  240MOL0     H32357   3.080   0.105   6.400  1.3118  1.1592  0.7116
  240MOL0     H32358   2.900  -0.035   6.442 -1.1611 -1.5779  0.0868
  240MOL0     H32359   2.994  -0.170   6.526  1.0623 -2.7920 -2.6678
  240MOL0     H32360   2.886   0.059   6.193  3.7337 -0.6057 -1.1241
  240MOL0     H32361   2.657   0.060   6.100 -3.3607 -2.2210 -0.2139
  240MOL0     H32362   2.466   0.137   5.766 -0.9539  1.1083  0.9105
  240MOL0     H32363   2.319   0.167   5.572  3.6282 -0.9498 -2.3267
  240MOL0     H32364   2.026   0.052   5.693 -0.2734  1.2038  0.1673
  240MOL0     H32365   2.012   0.164   5.571 -0.3263  0.0263  1.4868
  240MOL0     H32366   1.896  -0.111   5.510  1.6800 -0.3599  4.0317
  240MOL0     H32367   1.803   0.003   5.607 -2.3863  4.4493 -0.8355
  240MOL0     H32368   1.786   0.169   5.457 -1.4943  0.5028 -0.9530
  240MOL0     H32369   1.920   0.114   5.352  0.5328  3.6219  2.1158
  240MOL0     H32370   1.637  -0.027   5.414  2.1261 -0.1047  0.8935
  240MOL0     H32371   1.743  -0.080   5.287 -0.5391 -1.8076  1.8837
  240MOL0     H32372   1.617   0.191   5.306 -1.5179  0.4573 -1.5564
  240MOL0     H32373   1.541   0.047   5.223 -0.5988 -1.2145 -0.8498
  240MOL0     H32374   1.783   0.223   5.165 -0.6376  0.4003 -0.4380
  240MOL0     H32375   1.777   0.063   5.090 -0.8401  1.2122 -3.5791
  240MOL0     H32376   1.714   0.214   4.930 -0.8929 -1.6359 -1.2626
  240MOL0     H32377   1.581   0.279   5.028  2.5591  0.7075  0.9656
  240MOL0     H32378   1.460   0.067   5.003  1.7537 -5.3715  1.2207
  240MOL0     H32379   1.518   0.114   4.839  1.6005  0.8189  0.4572
  240MOL0     H32380   2.192  -0.247   5.640 -1.6769 -0.0059  0.5404
  240MOL0     H32381   2.344  -0.275   5.801 -1.4230 -0.0072  0.8657
  240MOL0     H32382   2.654  -0.374   6.115 -1.1026  0.6652 -1.5999
  240MOL0     H32383   2.855  -0.358   6.264  0.8440 -0.7598 -2.6360
  240MOL0     H32384   3.635   1.220   6.346 -3.9003 -0.3550 -1.5379
  240MOL0     H32385   3.548   1.446   6.277 -0.7677 -0.0242  0.2192
  240MOL0     H32386   3.339   1.795   6.319 -2.4422  1.1405 -2.3143
  240MOL0     H32387   3.237   1.996   6.214 -0.3008  0.0835 -0.6144
  240MOL0     H32388   3.194   2.218   6.174 -3.8337  2.0922 -1.2229
  240MOL0     H32389   3.185   2.109   6.031  1.0283  0.3882 -2.1494
  240MOL0     H32390   3.090   2.312   5.954 -0.7236 -0.9770  0.1749
  240MOL0     H32391   3.240   2.282   5.868 -1.6709  1.3969 -0.2894
  240MOL0     H32392   3.357   2.450   6.013 -0.0735  1.2776  0.8674
  240MOL0     H32393   3.215   2.466   6.118  2.1611 -0.9277  0.5965
  240MOL0     H32394   3.124   2.510   5.855 -0.6504  2.7263 -0.9004
  240MOL0     H32395   3.134   2.622   5.996  0.1589 -1.6256  2.3894
  240MOL0     H32396   3.480   2.730   5.781 -1.7070  1.4829 -1.4655
  240MOL0     H32397   3.612   2.121   6.094  0.1328 -0.5863 -0.3313
  240MOL0     H32398   3.794   1.846   6.134 -0.7199 -1.1136  0.5061
  240MOL0     H32399   3.793   2.024   6.149 -0.7778  1.3129  3.0811
  240MOL0     H32400   3.815   1.926   6.293  1.1196  1.2640 -0.4747
  241MOL0     O32401  10.040   3.813   7.958 -1.2481  0.2537 -0.5535
  241MOL0     C32402   9.999   3.771   7.854 -0.3242  0.9905  0.3859
  241MOL0     O32403   9.889   3.690   7.841 -0.5981 -0.3336  0.4164
  241MOL0     C32404   9.816   3.691   7.954  0.1004 -0.5181  0.0803
  241MOL0     C32405   9.687   3.744   7.960 -0.0642  0.6350 -1.2572
  241MOL0     C32406   9.609   3.737   8.079  0.4639  0.3086 -0.4911
  241MOL0     C32407   9.670   3.697   8.202  0.3081 -0.0491  0.4818
  241MOL0     O32408   9.622   3.708   8.327 -0.0090  0.3048  0.6303
  241MOL0     C32409   9.516   3.804   8.336  0.2356  0.4940  0.1136
  241MOL0     C32410   9.455   3.791   8.477  0.0938  0.0288 -0.1611
  241MOL0     C32411   9.360   3.671   8.478 -0.0040 -1.4644  0.5735
  241MOL0     C32412   9.371   3.602   8.612 -0.5577  0.5999 -0.2058
  241MOL0     C32413   9.270   3.482   8.636 -0.0678 -0.7568 -0.4619
  241MOL0     C32414   9.135   3.529   8.686 -0.3203  0.1017 -0.2988
  241MOL0     C32415   9.029   3.414   8.715  0.4194  1.1087  0.0784
  241MOL0     C32416   9.038   3.279   8.627  0.3284 -0.2147 -0.1458
  241MOL0     N32417   9.036   3.315   8.488 -0.6932 -0.4020 -0.1487
  241MOL0     C32418   8.952   3.407   8.431 -0.6551  0.0664 -0.4698
  241MOL0     C32419   8.980   3.415   8.301  0.0626 -0.0990 -0.1110
  241MOL0     C32420   8.923   3.515   8.207  1.3940 -0.8293 -0.1034
  241MOL0     C32421   8.983   3.520   8.071 -1.3725  0.0814 -0.2454
  241MOL0     C32422   9.132   3.562   8.061 -0.2514 -0.6552  0.7895
  241MOL0     C32423   9.184   3.573   7.916  0.2199  0.6913  0.6280
  241MOL0     O32424   9.295   3.660   7.914  0.6007 -0.2218 -0.7093
  241MOL0     C32425   9.374   3.656   7.798 -0.0015 -0.5007  0.1058
  241MOL0     C32426   9.371   3.772   7.724  0.7820  0.2716 -0.3293
  241MOL0     C32427   9.462   3.780   7.616 -0.2065  0.2990 -0.1274
  241MOL0     C32428   9.557   3.671   7.591  0.1354  0.2730  0.1110
  241MOL0     C32429   9.659   3.696   7.498 -0.2990  0.1066  0.3527
  241MOL0     O32430   9.716   3.580   7.449  0.1674 -0.1586 -1.1051
  241MOL0     C32431   9.805   3.606   7.353 -0.0691  0.6224  0.2687
  241MOL0     C32432   9.786   3.542   7.226  0.5779  0.7784 -0.1163
  241MOL0     C32433   9.882   3.538   7.126  0.5488  0.6596  0.4797
  241MOL0     C32434  10.010   3.598   7.145 -0.7664  0.2596  0.4811
  241MOL0     O32435  10.122   3.605   7.066 -0.1688  0.3677 -0.1417
  241MOL0     C32436  10.097   3.548   6.933 -0.4130  1.2186  0.7063
  241MOL0     C32437  10.237   3.512   6.862 -0.4153  0.0021 -0.5808
  241MOL0     C32438  10.303   3.386   6.918 -1.0607  0.1956 -0.0813
  241MOL0     C32439  10.202   3.281   6.965  0.4126  1.1426 -0.3638
  241MOL0     C32440  10.134   3.219   6.845  1.0225 -0.0979  0.1251
  241MOL0     C32441  10.010   3.135   6.888  0.7726  0.4486  0.1049
  241MOL0     C32442  10.032   3.025   6.981  1.1551  0.4381  0.9670
  241MOL0     C32443  10.111   2.904   6.922 -0.2048  0.1261  0.5879
  241MOL0    Cl32444  10.104   2.760   7.037 -0.1752 -0.1573 -0.2783
  241MOL0     C32445  10.026   3.668   7.267 -0.3598  0.5743  0.6183
  241MOL0     C32446   9.925   3.671   7.374  0.9975  0.1337  0.5524
  241MOL0     O32447   9.682   3.811   7.448  0.3139  0.3290 -0.4861
  241MOL0     C32448   9.558   3.557   7.665  1.2971  0.5867  1.0190
  241MOL0     C32449   9.454   3.549   7.765 -0.3290 -0.6750 -0.2832
  241MOL0     N32450   9.094   3.337   8.282 -0.9584  0.1420 -0.2847
  241MOL0     N32451   9.127   3.268   8.391 -0.8812 -1.3896  1.5399
  241MOL0     C32452   9.801   3.646   8.201 -0.5646 -0.8107  0.2655
  241MOL0     C32453   9.862   3.628   8.072  0.4206  1.1628 -0.0816
  241MOL0     C32454  10.041   3.827   7.725  0.4590 -0.6230  0.2743
  241MOL0     C32455  10.140   3.763   7.661  1.0603  0.1665  0.0099
  241MOL0     C32456  10.205   3.815   7.552 -0.5764 -0.1083  0.6968
  241MOL0     C32457  10.160   3.934   7.493  1.1458  1.1162  0.0831
  241MOL0     O32458  10.216   3.951   7.367 -0.1524 -0.5919  0.5624
  241MOL0     C32459  10.160   4.032   7.274  0.4798 -0.2730 -0.0262
  241MOL0     C32460  10.234   3.996   7.139  0.1536  0.0812  0.4360
  241MOL0     C32461  10.191   4.085   7.022 -0.2281  0.7864 -0.3963
  241MOL0     C32462  10.227   4.237   7.037  0.4515 -0.2568  0.0196
  241MOL0     C32463  10.207   4.307   6.905  0.8924 -0.5856 -0.3791
  241MOL0     C32464  10.180   4.346   6.797 -0.4029 -0.1294 -0.5264
  241MOL0     C32465  10.052   4.000   7.554 -0.1103  0.7098 -1.1103
  241MOL0     C32466  10.003   3.957   7.682 -1.0289  0.1919  1.0919
  241MOL0     C32467   9.899   4.031   7.744  0.0581 -1.1699  1.4679
  241MOL0     H32468   9.636   3.768   7.867 -0.0294  1.2053 -1.1342
  241MOL0     H32469   9.503   3.758   8.071  0.2914 -0.7486 -1.3072
  241MOL0     H32470   9.547   3.908   8.328  0.8108  0.4283  1.2733
  241MOL0     H32471   9.426   3.778   8.279 -0.5932 -1.4361  2.1362
  241MOL0     H32472   9.394   3.874   8.513  1.1336  1.4013 -1.4344
  241MOL0     H32473   9.534   3.780   8.552  3.4774  3.4956 -2.8247
  241MOL0     H32474   9.389   3.599   8.402  2.7793 -3.4376  3.3136
  241MOL0     H32475   9.259   3.712   8.464  0.2614 -1.5175 -1.8068
  241MOL0     H32476   9.472   3.566   8.633 -0.5304  1.5987  1.5211
  241MOL0     H32477   9.368   3.673   8.695  6.1122 -0.7855  1.8143
  241MOL0     H32478   9.260   3.430   8.541 -3.3575  1.4507 -1.4880
  241MOL0     H32479   9.296   3.413   8.717 -2.1942 -0.6258  0.4000
  241MOL0     H32480   9.147   3.584   8.780 -1.5104  2.2313 -1.3194
  241MOL0     H32481   9.095   3.604   8.618 -0.1986  0.2810 -0.1780
  241MOL0     H32482   8.928   3.455   8.719 -1.4187 -3.0458  1.0363
  241MOL0     H32483   9.045   3.361   8.809 -2.2729 -1.2758 -0.6831
  241MOL0     H32484   9.130   3.232   8.663  0.8040  0.3172 -0.6496
  241MOL0     H32485   8.964   3.202   8.648 -0.2099  0.6524  1.2769
  241MOL0     H32486   8.874   3.462   8.483 -0.2441  0.3683 -0.1682
  241MOL0     H32487   8.821   3.483   8.184 -0.9128  3.9714  1.9309
  241MOL0     H32488   8.919   3.614   8.253 -0.6059 -0.2580 -1.3910
  241MOL0     H32489   8.985   3.419   8.030  0.3545 -0.2450  0.5563
  241MOL0     H32490   8.918   3.583   8.009 -0.6014  0.6507 -0.4896
  241MOL0     H32491   9.204   3.491   8.102  0.5365  0.3740  1.2371
  241MOL0     H32492   9.152   3.644   8.130 -0.8546 -0.7468  1.0795
  241MOL0     H32493   9.106   3.619   7.854 -0.6060 -1.8352 -0.3517
  241MOL0     H32494   9.202   3.476   7.868 -1.7682  1.2455 -1.4378
  241MOL0     H32495   9.306   3.854   7.752  2.1781  1.2762  0.0767
  241MOL0     H32496   9.466   3.873   7.560 -0.3201  1.1874  1.2811
  241MOL0     H32497   9.692   3.488   7.221 -0.0206  1.6089  1.5488
  241MOL0     H32498   9.854   3.482   7.037  0.8407 -1.5364  1.6938
  241MOL0     H32499  10.030   3.461   6.935  2.8619 -1.4942  1.8495
  241MOL0     H32500  10.041   3.612   6.864 -2.0851 -1.8666 -1.0537
  241MOL0     H32501  10.227   3.513   6.753 -1.2676 -1.2323 -0.5266
  241MOL0     H32502  10.303   3.596   6.886  0.1467 -0.2566 -1.2089
  241MOL0     H32503  10.366   3.345   6.838 -2.8007 -1.5187 -0.6691
  241MOL0     H32504  10.361   3.419   7.004 -0.2889 -1.1445 -0.0680
  241MOL0     H32505  10.123   3.301   7.039 -3.0931 -4.2491 -2.0465
  241MOL0     H32506  10.259   3.205   7.018 -0.4845 -0.5770 -1.7481
  241MOL0     H32507  10.206   3.158   6.790 -0.6155 -1.4472 -0.6100
  241MOL0     H32508  10.098   3.297   6.777 -1.0762 -1.0021  0.1265
  241MOL0     H32509   9.931   3.201   6.924  3.1731  2.5230  1.9546
  241MOL0     H32510   9.973   3.077   6.803 -0.2348 -0.8548  1.3924
  241MOL0     H32511   9.940   2.979   7.018  2.8788 -2.2509  2.2820
  241MOL0     H32512  10.096   3.061   7.062  1.5086 -0.7863  1.2556
  241MOL0     H32513  10.078   2.873   6.823 -0.1353 -3.0028  1.4552
  241MOL0     H32514  10.216   2.937   6.918 -0.4012  0.6324 -2.0923
  241MOL0     H32515  10.121   3.720   7.272  1.0393 -1.9085  1.5746
  241MOL0     H32516   9.950   3.722   7.467  3.9262 -0.9572  0.4918
  241MOL0     H32517   9.624   3.472   7.655 -3.1567 -3.0405 -0.8158
  241MOL0     H32518   9.443   3.470   7.838  1.8699  0.7830  1.8038
  241MOL0     H32519   9.840   3.619   8.299  1.9856  1.5306  0.0106
  241MOL0     H32520   9.962   3.585   8.076 -0.8402 -1.9929  3.5774
  241MOL0     H32521  10.169   3.666   7.700  0.1148 -0.7743 -1.4815
  241MOL0     H32522  10.289   3.763   7.506 -1.1389 -1.1107  0.7677
  241MOL0     H32523  10.166   4.138   7.300 -0.5651  0.2548 -1.7233
  241MOL0     H32524  10.052   4.013   7.264  0.1831  0.4611  1.5100
  241MOL0     H32525  10.220   3.891   7.114  1.0652 -0.5656  2.4374
  241MOL0     H32526  10.340   4.023   7.145  0.0339  1.7435 -2.8940
  241MOL0     H32527  10.085   4.073   7.003 -0.4817 -0.6178  1.5552
  241MOL0     H32528  10.248   4.046   6.937 -0.7057 -2.9618  0.8168
  241MOL0     H32529  10.151   4.263   7.111  0.5875 -1.3281  0.5486
  241MOL0     H32530  10.320   4.261   7.091  0.1439  0.9075  0.0584
  241MOL0     H32531  10.155   4.376   6.698  1.1541 -1.8860 -1.5193
  241MOL0     H32532  10.007   4.087   7.508  0.3291  1.7078  0.2965
  241MOL0     H32533   9.888   4.136   7.715 -3.2530 -1.4426  1.3849
  241MOL0     H32534   9.810   3.978   7.708 -0.1008 -0.5981  1.0051
  241MOL0     H32535   9.897   4.047   7.853 -0.2631  4.9086  0.9412
  242MOL0     O32536   6.416   1.468   5.201  0.5316  0.4878  1.1981
  242MOL0     C32537   6.392   1.584   5.213  0.5381 -1.5568 -0.6558
  242MOL0     O32538   6.345   1.638   5.329  0.3961 -0.4162  0.4835
  242MOL0     C32539   6.335   1.563   5.443 -0.1614  0.1983  0.9116
  242MOL0     C32540   6.240   1.458   5.450  0.0015 -0.2362  1.2285
  242MOL0     C32541   6.229   1.393   5.577 -0.6273  0.3311  0.4217
  242MOL0     C32542   6.316   1.426   5.680 -1.0112 -0.2475  1.2503
  242MOL0     O32543   6.304   1.374   5.801 -0.1262  0.4601 -0.5217
  242MOL0     C32544   6.358   1.244   5.817 -0.0343 -0.6208  0.4981
  242MOL0     C32545   6.303   1.169   5.934  0.0117 -0.5456  0.4459
  242MOL0     C32546   6.318   1.253   6.058  0.2533 -0.3346 -0.4425
  242MOL0     C32547   6.265   1.185   6.189 -0.0291 -0.3705 -0.2435
  242MOL0     C32548   6.358   1.076   6.231 -0.6174  0.2591 -0.4176
  242MOL0     C32549   6.351   1.042   6.380 -0.5762 -0.3383 -0.3429
  242MOL0     C32550   6.213   1.002   6.447 -0.0725 -0.0298 -0.0882
  242MOL0     C32551   6.250   0.919   6.571 -0.0949 -0.2784 -0.1381
  242MOL0     N32552   6.307   0.999   6.673  0.2696 -0.1457 -0.2603
  242MOL0     C32553   6.244   1.041   6.781 -0.0515  0.4174 -0.6461
  242MOL0     C32554   6.338   1.066   6.868 -0.8677  0.1052  0.0253
  242MOL0     C32555   6.306   1.131   7.009 -0.4095 -0.1322  0.0024
  242MOL0     C32556   6.335   1.038   7.128  0.4466  0.0612  0.2138
  242MOL0     C32557   6.476   0.968   7.137  0.8259  0.2408  0.1625
  242MOL0     C32558   6.601   1.057   7.130  0.3846 -0.6736 -0.3984
  242MOL0     O32559   6.636   1.108   7.262  1.2982 -0.2204  0.2152
  242MOL0     C32560   6.697   1.231   7.271 -0.1255  0.3940  0.8147
  242MOL0     C32561   6.734   1.321   7.172 -0.6810 -0.3656 -0.0291
  242MOL0     C32562   6.813   1.437   7.201 -0.6843  0.4954 -0.0224
  242MOL0     C32563   6.853   1.454   7.337  0.9508  0.4690 -0.5157
  242MOL0     C32564   6.939   1.573   7.378  0.4603 -0.1233  0.0941
  242MOL0     O32565   6.926   1.607   7.516 -1.1119  0.5268  0.3613
  242MOL0     C32566   6.997   1.716   7.565 -0.3976 -0.0326  0.5541
  242MOL0     C32567   6.919   1.802   7.634 -1.1731 -0.1847 -0.0886
  242MOL0     C32568   6.978   1.903   7.704  0.2814 -0.2542  1.0649
  242MOL0     C32569   7.118   1.911   7.718  0.0477  0.8275  0.5171
  242MOL0     O32570   7.158   2.003   7.814 -0.3129 -0.0702 -0.7818
  242MOL0     C32571   7.291   1.990   7.876  0.4439  0.3722 -0.1901
  242MOL0     C32572   7.325   1.885   7.982  0.0977 -0.2269 -0.2367
  242MOL0     C32573   7.475   1.872   8.014 -0.3848  0.3578  0.1038
  242MOL0     C32574   7.526   1.981   8.109 -0.3303 -0.1480 -0.1576
  242MOL0     C32575   7.663   1.937   8.164 -0.1207 -0.4284 -0.0269
  242MOL0     C32576   7.699   1.986   8.303 -0.7151  0.3733 -0.1594
  242MOL0     C32577   7.851   1.952   8.342  0.5621 -0.5767 -0.6111
  242MOL0     C32578   7.858   1.966   8.489  0.4885 -0.1009 -0.6527
  242MOL0    Cl32579   8.003   1.878   8.547  0.5717  0.2186 -0.5427
  242MOL0     C32580   7.197   1.822   7.644  0.1322  0.1930 -0.2824
  242MOL0     C32581   7.136   1.729   7.556  0.0056 -0.0655  0.3748
  242MOL0     O32582   7.001   1.633   7.292  0.2014  0.5868 -0.8638
  242MOL0     C32583   6.799   1.373   7.433 -0.2748 -0.0003 -0.2968
  242MOL0     C32584   6.723   1.262   7.403 -0.4730 -0.4868 -0.0751
  242MOL0     N32585   6.462   1.051   6.817 -0.8156  0.6656  0.5730
  242MOL0     N32586   6.443   0.988   6.703  0.9450  0.3030 -0.0541
  242MOL0     C32587   6.411   1.531   5.665  0.2007  0.0738  0.5014
  242MOL0     C32588   6.419   1.605   5.549  0.2549 -0.2037  0.0413
  242MOL0     C32589   6.377   1.672   5.102 -0.6393  0.2872  0.2623
  242MOL0     C32590   6.381   1.812   5.138 -1.1080  0.0976 -0.2643
  242MOL0     C32591   6.375   1.920   5.044 -1.2284  0.4523 -0.9092
  242MOL0     C32592   6.394   1.892   4.913  0.5047 -0.6404  1.3451
  242MOL0     O32593   6.402   1.982   4.814 -0.1247  0.7572  0.3798
  242MOL0     C32594   6.484   2.095   4.833  0.0699 -0.2286 -0.4494
  242MOL0     C32595   6.570   2.119   4.711 -0.3647 -0.0881  0.0314
  242MOL0     C32596   6.678   2.013   4.688 -0.1506  0.1575 -0.3849
  242MOL0     C32597   6.747   2.015   4.543 -0.3541  0.1366 -0.1310
  242MOL0     C32598   6.684   1.931   4.447 -0.0882  0.7540 -0.2960
  242MOL0     C32599   6.634   1.872   4.353 -0.4815 -0.5140  0.7904
  242MOL0     C32600   6.416   1.761   4.879  0.7380  0.6976  0.0915
  242MOL0     C32601   6.412   1.653   4.963 -0.1181 -0.1607 -0.3084
  242MOL0     C32602   6.436   1.521   4.905 -1.2409  0.5482  0.1948
  242MOL0     H32603   6.171   1.432   5.371  1.8716  0.5165 -0.7305
  242MOL0     H32604   6.140   1.331   5.586  0.5301 -1.4336  0.2133
  242MOL0     H32605   6.336   1.190   5.724 -3.2572  2.2468 -0.6374
  242MOL0     H32606   6.467   1.254   5.821  0.2860 -3.4250  1.1625
  242MOL0     H32607   6.362   1.078   5.950  1.7309  0.6165  0.8769
  242MOL0     H32608   6.203   1.128   5.912 -0.1008 -0.1826  0.2824
  242MOL0     H32609   6.255   1.340   6.036  0.8200 -0.0177 -0.8029
  242MOL0     H32610   6.421   1.288   6.069 -1.4084  4.4148  5.5133
  242MOL0     H32611   6.266   1.258   6.269 -2.2084 -1.6234  1.0257
  242MOL0     H32612   6.164   1.143   6.179 -0.7446  1.2818 -0.1703
  242MOL0     H32613   6.342   0.988   6.168  0.6492  1.0158 -1.8580
  242MOL0     H32614   6.457   1.115   6.208 -0.7276  0.2768 -0.8654
  242MOL0     H32615   6.425   0.964   6.400 -0.7655 -0.4152  0.0605
  242MOL0     H32616   6.381   1.137   6.425 -0.8153 -0.2430 -0.3849
  242MOL0     H32617   6.153   0.940   6.380 -0.8518  0.4157  0.1860
  242MOL0     H32618   6.142   1.076   6.486 -2.1929 -0.9518 -2.0346
  242MOL0     H32619   6.155   0.879   6.610 -1.0163  1.8258 -0.0992
  242MOL0     H32620   6.312   0.832   6.546  1.5762  0.6371  0.6616
  242MOL0     H32621   6.137   1.036   6.800 -0.0852 -1.6592 -1.0724
  242MOL0     H32622   6.377   1.213   7.021  0.8111 -0.9055 -1.5508
  242MOL0     H32623   6.205   1.172   7.018 -0.4290 -0.2885  0.4890
  242MOL0     H32624   6.308   1.095   7.218 -0.5729 -2.4209  1.5906
  242MOL0     H32625   6.268   0.952   7.132  0.9666 -0.4186 -0.8731
  242MOL0     H32626   6.483   0.894   7.056  0.0064  1.3008 -0.9049
  242MOL0     H32627   6.478   0.907   7.228  2.2499  0.1798  0.1211
  242MOL0     H32628   6.575   1.132   7.054  1.3156 -1.0986 -1.1598
  242MOL0     H32629   6.688   1.004   7.091 -0.4020 -0.2302 -3.0216
  242MOL0     H32630   6.705   1.294   7.071  1.2761 -4.4926  0.2826
  242MOL0     H32631   6.860   1.501   7.127 -1.1478  1.6721  0.6917
  242MOL0     H32632   6.813   1.778   7.631 -1.2786  0.3727 -1.3039
  242MOL0     H32633   6.923   1.973   7.766  0.5830  1.2723 -0.3182
  242MOL0     H32634   7.367   1.985   7.798  1.0499 -1.2674  0.4644
  242MOL0     H32635   7.300   2.084   7.931 -0.0252  1.9013 -2.5899
  242MOL0     H32636   7.279   1.906   8.079  1.7733 -0.9199  0.7406
  242MOL0     H32637   7.283   1.797   7.932  1.3299  0.3968 -2.4752
  242MOL0     H32638   7.476   1.772   8.059 -1.9576  1.2583  2.3647
  242MOL0     H32639   7.532   1.870   7.921 -5.0004 -0.6003 -3.0367
  242MOL0     H32640   7.445   1.989   8.182 -2.8830 -0.5647 -2.7526
  242MOL0     H32641   7.527   2.081   8.065 -0.0455  0.8088  1.9475
  242MOL0     H32642   7.733   1.987   8.097  0.1456 -1.4816 -0.5704
  242MOL0     H32643   7.679   1.828   8.162  0.1743 -0.4408  1.8554
  242MOL0     H32644   7.689   2.095   8.309  1.0542  0.7185 -2.1596
  242MOL0     H32645   7.625   1.935   8.365 -1.2758  1.3246 -0.0120
  242MOL0     H32646   7.923   2.028   8.309 -0.8486  1.4074  0.6369
  242MOL0     H32647   7.874   1.851   8.308 -1.4583 -0.6368 -2.0006
  242MOL0     H32648   7.846   2.067   8.531  0.5315 -1.0105  1.7042
  242MOL0     H32649   7.773   1.912   8.531 -1.6156  1.7929 -2.1691
  242MOL0     H32650   7.305   1.817   7.655  0.0257  2.0165  2.7783
  242MOL0     H32651   7.206   1.665   7.503  1.4381  0.5947  1.4055
  242MOL0     H32652   6.825   1.382   7.538  0.9765  0.0128 -0.5967
  242MOL0     H32653   6.693   1.197   7.484  0.6208 -2.0149 -0.8304
  242MOL0     H32654   6.474   1.573   5.744  2.1847 -1.3356 -0.2638
  242MOL0     H32655   6.488   1.688   5.534 -1.4599  1.0083 -1.5631
  242MOL0     H32656   6.376   1.844   5.241 -1.9616 -1.6181  0.2644
  242MOL0     H32657   6.343   2.017   5.081 -2.4906 -1.4286  3.5276
  242MOL0     H32658   6.551   2.078   4.919  0.3347 -1.3451 -0.8615
  242MOL0     H32659   6.427   2.187   4.846  2.3755  1.0854  1.1542
  242MOL0     H32660   6.621   2.215   4.725 -0.4090 -0.1812  0.8355
  242MOL0     H32661   6.507   2.135   4.622 -4.3845 -3.1703  2.0000
  242MOL0     H32662   6.637   1.914   4.710  3.1240 -0.7054  2.8784
  242MOL0     H32663   6.758   2.044   4.757 -1.1113  1.2876  0.2544
  242MOL0     H32664   6.769   2.113   4.501 -1.8181  1.7450  2.5560
  242MOL0     H32665   6.846   1.973   4.557 -0.0432  0.4835 -1.1889
  242MOL0     H32666   6.581   1.829   4.271  1.2929 -0.0123 -0.6807
  242MOL0     H32667   6.448   1.745   4.776 -1.2135 -2.1361 -0.1820
  242MOL0     H32668   6.351   1.457   4.926 -0.3084 -0.6790  0.3526
  242MOL0     H32669   6.437   1.527   4.795 -1.5178 -0.1149  0.1551
  242MOL0     H32670   6.531   1.478   4.938 -1.5806  0.3422  0.9102
  243MOL0     O32671   6.992   7.708   3.476  0.1315  0.5116 -0.0456
  243MOL0     C32672   6.939   7.819   3.481  0.1294  0.3895  0.3502
  243MOL0     O32673   6.949   7.904   3.581  0.2767 -0.2030 -0.0445
  243MOL0     C32674   7.084   7.919   3.629 -0.2852 -1.0026  0.6007
  243MOL0     C32675   7.099   7.999   3.744 -0.3562 -0.7406 -0.3367
  243MOL0     C32676   7.221   8.019   3.805 -0.2020  0.3166  0.2961
  243MOL0     C32677   7.339   7.963   3.748 -0.5119  0.2506 -0.7217
  243MOL0     O32678   7.462   7.995   3.796 -0.1152  0.3917 -1.0605
  243MOL0     C32679   7.574   7.908   3.770  0.2021 -0.0370 -0.0224
  243MOL0     C32680   7.691   7.921   3.866 -1.1419  0.1809  0.7428
  243MOL0     C32681   7.756   8.053   3.844 -0.7743  0.3737 -0.6864
  243MOL0     C32682   7.891   8.068   3.923 -0.4245  0.0180 -0.0772
  243MOL0     C32683   7.964   8.204   3.899  0.6970  0.7486  0.4842
  243MOL0     C32684   8.034   8.213   3.765  1.1114  0.5011  1.2786
  243MOL0     C32685   8.106   8.342   3.740  0.7501 -0.3845 -0.3533
  243MOL0     C32686   8.146   8.345   3.595 -0.8299 -0.5429 -0.3376
  243MOL0     N32687   8.041   8.373   3.492 -0.7325  0.7710 -0.3378
  243MOL0     C32688   7.969   8.497   3.492 -0.0338 -0.0681  0.9760
  243MOL0     C32689   7.894   8.488   3.370  0.2008 -0.1229 -1.0508
  243MOL0     C32690   7.812   8.595   3.340  0.8078 -0.0399  1.3160
  243MOL0     C32691   7.707   8.626   3.448 -0.6685 -0.6159 -0.9980
  243MOL0     C32692   7.574   8.560   3.423  0.3883  0.4785 -0.0206
  243MOL0     C32693   7.594   8.413   3.427  0.5071  0.0828  0.0973
  243MOL0     O32694   7.657   8.359   3.546 -0.3823 -0.4577 -0.0782
  243MOL0     C32695   7.599   8.398   3.664  0.0228  0.4449  0.0917
  243MOL0     C32696   7.693   8.440   3.762  0.3828  0.4774 -0.3579
  243MOL0     C32697   7.649   8.473   3.892  0.5201 -0.1017 -0.1711
  243MOL0     C32698   7.507   8.462   3.925  1.0645  0.3903 -0.2752
  243MOL0     C32699   7.451   8.523   4.050 -0.6588 -0.0762  0.0755
  243MOL0     O32700   7.321   8.547   4.056  0.1810 -0.5730 -0.5561
  243MOL0     C32701   7.261   8.622   4.167  0.1551 -0.1301 -0.9347
  243MOL0     C32702   7.156   8.715   4.154 -0.3859 -0.0617 -0.3873
  243MOL0     C32703   7.117   8.804   4.253 -0.1511  0.6242 -0.0654
  243MOL0     C32704   7.140   8.773   4.385 -1.2179 -1.1223 -0.1329
  243MOL0     O32705   7.069   8.848   4.467  0.9669  0.2980  0.1766
  243MOL0     C32706   7.042   8.786   4.598 -0.1988  0.2205 -0.3197
  243MOL0     C32707   6.951   8.868   4.674  0.5197 -0.5667 -0.7896
  243MOL0     C32708   6.804   8.858   4.634 -0.0657  0.2798 -0.4422
  243MOL0     C32709   6.765   8.712   4.635 -0.2056 -0.0564 -0.0356
  243MOL0     C32710   6.615   8.696   4.667 -0.8697 -0.5468 -0.1357
  243MOL0     C32711   6.584   8.547   4.684  0.5003  0.3555  0.5665
  243MOL0     C32712   6.435   8.524   4.692 -0.5640 -0.1029  0.6604
  243MOL0     C32713   6.419   8.383   4.740  0.9453  0.2676  0.5736
  243MOL0    Cl32714   6.454   8.257   4.600  0.0900 -0.0385 -0.5113
  243MOL0     C32715   7.233   8.663   4.411 -0.6688  0.8634 -0.0256
  243MOL0     C32716   7.291   8.593   4.304  0.4544  0.4487  0.3226
  243MOL0     O32717   7.537   8.563   4.133  0.3924 -0.5233 -0.1770
  243MOL0     C32718   7.420   8.404   3.833  0.1824  0.2825 -0.4649
  243MOL0     C32719   7.472   8.364   3.704  0.2231  0.2823 -0.2053
  243MOL0     N32720   7.917   8.370   3.308  0.6558  0.4924  0.4285
  243MOL0     N32721   8.002   8.300   3.379 -0.0105  0.3407 -0.4585
  243MOL0     C32722   7.320   7.879   3.644 -0.2065 -0.9507 -0.5085
  243MOL0     C32723   7.206   7.860   3.580  0.5892 -0.9962  0.1306
  243MOL0     C32724   6.846   7.864   3.376  0.3246  0.2812  0.5307
  243MOL0     C32725   6.835   7.999   3.353  0.6554 -0.5480 -0.3472
  243MOL0     C32726   6.763   8.056   3.243 -0.8782 -0.1570 -0.1832
  243MOL0     C32727   6.686   7.976   3.159  0.4902 -0.2897  0.4087
  243MOL0     O32728   6.581   8.037   3.086 -0.2078 -0.8672  0.1810
  243MOL0     C32729   6.554   7.986   2.949  0.7568  0.0391  0.0385
  243MOL0     C32730   6.541   8.100   2.847 -0.0862  0.9925 -0.7638
  243MOL0     C32731   6.472   8.056   2.713 -1.2655 -0.8812 -0.4648
  243MOL0     C32732   6.568   8.061   2.593  0.0248 -0.3903  0.8338
  243MOL0     C32733   6.505   8.003   2.475  0.4625  0.4100  0.6189
  243MOL0     C32734   6.451   7.953   2.373 -0.4493 -0.4804  0.2758
  243MOL0     C32735   6.682   7.840   3.197  1.3863 -1.3108  0.6492
  243MOL0     C32736   6.762   7.787   3.293 -0.0680  0.1187 -0.2564
  243MOL0     C32737   6.770   7.635   3.314 -0.2059 -0.6460 -0.3942
  243MOL0     H32738   7.010   8.050   3.778  0.3781 -1.1147  2.4388
  243MOL0     H32739   7.226   8.083   3.892 -0.4445  0.0213  0.5273
  243MOL0     H32740   7.543   7.805   3.752 -4.3364  0.9240  1.1046
  243MOL0     H32741   7.607   7.940   3.671  0.2284  0.1016  0.0307
  243MOL0     H32742   7.759   7.836   3.848 -2.0820 -0.6169  0.8705
  243MOL0     H32743   7.653   7.902   3.966 -2.4944 -2.8881 -0.2143
  243MOL0     H32744   7.691   8.131   3.882 -2.7626 -1.3525 -0.3805
  243MOL0     H32745   7.776   8.067   3.738 -1.3289  0.4481 -0.7829
  243MOL0     H32746   7.865   8.071   4.029  1.0461  1.5945  0.2777
  243MOL0     H32747   7.957   7.983   3.901 -2.3069 -1.0308 -2.0625
  243MOL0     H32748   7.898   8.290   3.916  1.2789  0.8326  2.6230
  243MOL0     H32749   8.039   8.216   3.978  1.1446  0.9188  0.0359
  243MOL0     H32750   8.107   8.132   3.754 -0.7606 -1.0104 -1.1035
  243MOL0     H32751   7.970   8.196   3.678  0.6959  3.2457  0.9590
  243MOL0     H32752   8.185   8.353   3.815 -1.7230  0.0108  2.3732
  243MOL0     H32753   8.028   8.415   3.766 -1.9499 -4.0089  2.8707
  243MOL0     H32754   8.216   8.429   3.591 -0.9702 -0.4411 -0.6550
  243MOL0     H32755   8.209   8.259   3.572 -2.3103 -1.0144 -2.9226
  243MOL0     H32756   7.971   8.584   3.556 -1.5829  1.0805 -0.4448
  243MOL0     H32757   7.870   8.686   3.324 -0.7124  0.5559 -1.5028
  243MOL0     H32758   7.773   8.577   3.240 -0.5210  1.0987  1.5975
  243MOL0     H32759   7.750   8.594   3.543 -0.6337 -0.7675 -1.0650
  243MOL0     H32760   7.676   8.731   3.452  1.1182 -0.0826  1.0435
  243MOL0     H32761   7.532   8.574   3.323 -2.3611 -2.6799  0.5414
  243MOL0     H32762   7.504   8.607   3.493 -1.7069  0.5209 -2.0397
  243MOL0     H32763   7.649   8.379   3.340  0.6010 -2.0783  0.9456
  243MOL0     H32764   7.497   8.365   3.412  0.9634 -0.7656 -0.1807
  243MOL0     H32765   7.797   8.454   3.734  0.6105  1.8936  1.0458
  243MOL0     H32766   7.726   8.511   3.958 -0.4134  1.8581 -0.1352
  243MOL0     H32767   7.114   8.726   4.055 -0.3562 -1.7423 -0.6154
  243MOL0     H32768   7.067   8.899   4.238  2.3055  1.8317 -1.2420
  243MOL0     H32769   6.999   8.687   4.577 -1.3660  0.5412  0.4560
  243MOL0     H32770   7.135   8.761   4.649 -0.7938 -2.1589 -0.2780
  243MOL0     H32771   6.942   8.835   4.778 -0.1524  1.5930 -0.1036
  243MOL0     H32772   6.990   8.970   4.686 -0.2315 -0.4230  0.6922
  243MOL0     H32773   6.739   8.910   4.704  2.3867  3.1969 -0.0721
  243MOL0     H32774   6.788   8.903   4.535 -2.8935 -0.6373 -0.4695
  243MOL0     H32775   6.813   8.650   4.712 -2.5347 -0.0934  1.5028
  243MOL0     H32776   6.801   8.687   4.535 -0.7076  0.9554 -0.4786
  243MOL0     H32777   6.548   8.732   4.588  0.3851  1.2006 -0.4533
  243MOL0     H32778   6.591   8.746   4.762 -3.3212  1.7543 -1.8131
  243MOL0     H32779   6.611   8.486   4.598 -2.4970 -0.4075  0.0332
  243MOL0     H32780   6.635   8.518   4.777  2.8130  0.0166 -0.7505
  243MOL0     H32781   6.396   8.545   4.591  3.9500  3.1895 -0.7254
  243MOL0     H32782   6.399   8.598   4.764  0.3871 -1.2205  2.3444
  243MOL0     H32783   6.489   8.367   4.822  3.6200  3.4890 -0.8628
  243MOL0     H32784   6.316   8.374   4.777  0.7511  0.8084  0.1754
  243MOL0     H32785   7.264   8.642   4.513  1.2064 -1.7986 -1.0226
  243MOL0     H32786   7.365   8.519   4.332  1.2864 -1.0412 -4.7736
  243MOL0     H32787   7.318   8.393   3.869  0.3291  3.9816  1.6084
  243MOL0     H32788   7.405   8.308   3.639  2.2680 -2.1878 -0.3616
  243MOL0     H32789   7.408   7.844   3.591  2.7389  1.6527  2.1306
  243MOL0     H32790   7.226   7.796   3.494  0.8277 -0.8650  0.0882
  243MOL0     H32791   6.889   8.069   3.416  2.8034  1.7535 -4.3755
  243MOL0     H32792   6.771   8.163   3.228  3.2710 -0.3815 -0.6317
  243MOL0     H32793   6.454   7.944   2.957  0.6173  0.5964  1.7697
  243MOL0     H32794   6.634   7.918   2.918  0.6859 -1.1718  2.2630
  243MOL0     H32795   6.640   8.138   2.822  0.6554  0.9344  1.7940
  243MOL0     H32796   6.487   8.185   2.889 -1.2606 -0.3795  0.6923
  243MOL0     H32797   6.384   8.115   2.689  0.3502  1.2920 -1.3246
  243MOL0     H32798   6.439   7.951   2.715 -2.1692 -0.6297 -1.4655
  243MOL0     H32799   6.609   8.159   2.570  0.6049 -0.9262 -0.5396
  243MOL0     H32800   6.650   7.991   2.610 -0.5962 -1.4604 -0.3675
  243MOL0     H32801   6.417   7.908   2.282  4.6755  2.0529 -3.3903
  243MOL0     H32802   6.629   7.770   3.132 -1.7507 -0.7194  2.3803
  243MOL0     H32803   6.868   7.591   3.289 -0.4104 -2.0254  1.0327
  243MOL0     H32804   6.742   7.594   3.412 -1.4907 -0.9219 -0.8565
  243MOL0     H32805   6.696   7.588   3.249 -1.9435  3.5265 -1.7423
  244MOL0     O32806   2.874   0.674   0.167 -0.0066  0.4141  0.0335
  244MOL0     C32807   2.919   0.654   0.278 -1.2690 -0.0807  1.2638
  244MOL0     O32808   3.044   0.617   0.307 -0.0242 -0.8708 -0.0009
  244MOL0     C32809   3.151   0.646   0.232 -0.3045 -0.5342 -0.0734
  244MOL0     C32810   3.264   0.582   0.273 -0.8268 -0.4202 -0.1898
  244MOL0     C32811   3.381   0.615   0.214 -0.4909  0.0996  0.0371
  244MOL0     C32812   3.390   0.687   0.101  0.6208 -0.5998  0.4658
  244MOL0     O32813   3.506   0.717   0.038  0.2623 -0.0835  0.2887
  244MOL0     C32814   3.612   0.624   0.042  0.2982  0.1736  0.3404
  244MOL0     C32815   3.712   0.649  -0.071 -0.6792 -1.2124 -0.4737
  244MOL0     C32816   3.762   0.789  -0.056 -0.1963  0.0365 -0.1109
  244MOL0     C32817   3.901   0.798  -0.125  0.5643 -0.0920 -0.1500
  244MOL0     C32818   3.961   0.931  -0.072 -0.1383 -0.2582 -0.3878
  244MOL0     C32819   4.095   0.969  -0.143  0.2498  0.1821  0.2495
  244MOL0     C32820   4.131   1.119  -0.107 -0.1204 -0.4174  0.3079
  244MOL0     C32821   4.275   1.159  -0.087 -0.0412 -0.0427  0.9369
  244MOL0     N32822   4.360   1.165  -0.208  0.5130 -0.9589 -0.0597
  244MOL0     C32823   4.382   1.075  -0.306 -0.4290  0.0082  0.2116
  244MOL0     C32824   4.475   1.114  -0.393  1.1578  0.3837  0.1882
  244MOL0     C32825   4.526   1.023  -0.501 -0.6284  0.0409 -0.3336
  244MOL0     C32826   4.672   0.976  -0.468  0.4855 -0.5151 -0.8393
  244MOL0     C32827   4.672   0.861  -0.365 -0.1356 -0.3735 -0.3614
  244MOL0     C32828   4.772   0.743  -0.405 -0.1485  0.5774 -0.3338
  244MOL0     O32829   4.902   0.803  -0.419 -0.3080 -0.1283  0.0949
  244MOL0     C32830   5.012   0.725  -0.438  0.5573  0.1333  0.2053
  244MOL0     C32831   5.124   0.783  -0.507  0.1665 -1.0318 -0.2741
  244MOL0     C32832   5.233   0.703  -0.531 -1.1334  0.6571  0.4838
  244MOL0     C32833   5.251   0.572  -0.471 -0.7710 -0.3626 -0.9169
  244MOL0     C32834   5.371   0.489  -0.511  0.6549 -0.7769 -0.5197
  244MOL0     O32835   5.371   0.355  -0.476  0.2526  0.1556 -0.2245
  244MOL0     C32836   5.492   0.294  -0.443 -0.2995  0.5054 -0.6442
  244MOL0     C32837   5.604   0.279  -0.528 -1.0079 -0.0979  0.5114
  244MOL0     C32838   5.715   0.212  -0.487 -0.5487 -1.0080 -0.7641
  244MOL0     C32839   5.728   0.154  -0.362  0.8350  1.6774  0.0838
  244MOL0     O32840   5.843   0.088  -0.327 -0.0008 -0.1681  0.6531
  244MOL0     C32841   5.846  -0.013  -0.226 -0.4975 -0.8028 -0.1443
  244MOL0     C32842   5.983  -0.085  -0.189  0.5548 -0.8178 -0.5723
  244MOL0     C32843   6.112   0.008  -0.181  0.5238 -0.4251  0.5798
  244MOL0     C32844   6.100   0.143  -0.110  0.1612  0.0497 -0.3872
  244MOL0     C32845   6.235   0.181  -0.040  0.5270 -0.4457  0.4023
  244MOL0     C32846   6.271   0.105   0.093  1.0089 -0.1384  0.1617
  244MOL0     C32847   6.411   0.148   0.157  0.1842  0.0137  0.8503
  244MOL0     C32848   6.386   0.250   0.260  0.2664  0.2812 -0.0030
  244MOL0    Cl32849   6.542   0.294   0.327 -0.0711  0.3419 -0.5717
  244MOL0     C32850   5.613   0.155  -0.276  0.2539  0.2597 -1.5832
  244MOL0     C32851   5.498   0.223  -0.328 -0.7546  0.1400 -0.1148
  244MOL0     O32852   5.464   0.548  -0.558  0.2273  0.1022  0.3351
  244MOL0     C32853   5.144   0.528  -0.389 -0.7436 -0.1684 -0.0616
  244MOL0     C32854   5.030   0.605  -0.372 -1.5822  0.8528  0.4100
  244MOL0     N32855   4.513   1.243  -0.345  0.2694  0.7523 -0.4989
  244MOL0     N32856   4.450   1.265  -0.235 -0.7422  0.0041 -0.2742
  244MOL0     C32857   3.276   0.742   0.054  0.1483 -0.5356  0.4689
  244MOL0     C32858   3.153   0.731   0.119 -0.1613  0.6312  0.4121
  244MOL0     C32859   2.831   0.663   0.392 -0.3411  0.2676  0.2385
  244MOL0     C32860   2.898   0.657   0.519  0.2967 -0.3589  0.1407
  244MOL0     C32861   2.838   0.649   0.646 -0.0597  0.6007  0.7745
  244MOL0     C32862   2.698   0.626   0.645 -0.5894 -0.7791  0.6962
  244MOL0     O32863   2.636   0.580   0.760  0.6025 -0.4074 -0.2752
  244MOL0     C32864   2.499   0.532   0.767  0.7539 -0.2077 -0.1485
  244MOL0     C32865   2.464   0.451   0.894 -1.2315 -0.1957 -0.1999
  244MOL0     C32866   2.312   0.442   0.929  0.8540  0.6855 -1.1975
  244MOL0     C32867   2.288   0.335   1.036 -0.3062 -1.2520 -0.7254
  244MOL0     C32868   2.313   0.196   1.001 -0.0268  0.0205 -0.1344
  244MOL0     C32869   2.353   0.090   0.962  0.7421  0.2026  0.3848
  244MOL0     C32870   2.627   0.648   0.529 -0.0296 -0.5485  0.2712
  244MOL0     C32871   2.690   0.677   0.400  0.1466  0.0306  0.3862
  244MOL0     C32872   2.608   0.697   0.277 -0.0892  0.7147 -0.2342
  244MOL0     H32873   3.244   0.515   0.356  0.2421 -0.5130  0.0092
  244MOL0     H32874   3.471   0.590   0.269 -0.8640  0.2657  0.7294
  244MOL0     H32875   3.670   0.643   0.133  0.0645  0.6746  0.3869
  244MOL0     H32876   3.591   0.516   0.045  2.8990 -0.4151  0.6186
  244MOL0     H32877   3.673   0.629  -0.171 -0.3793  0.1675 -0.8740
  244MOL0     H32878   3.794   0.581  -0.044  0.6913  0.8441  0.8737
  244MOL0     H32879   3.765   0.808   0.051 -4.4589  1.8656 -0.1086
  244MOL0     H32880   3.690   0.855  -0.105 -3.5384 -0.2079  3.9583
  244MOL0     H32881   3.962   0.713  -0.094  1.5242 -0.1028 -1.9463
  244MOL0     H32882   3.887   0.783  -0.232 -0.3400 -2.7081  0.2625
  244MOL0     H32883   3.884   1.008  -0.067 -0.7613 -0.9407  0.8032
  244MOL0     H32884   3.989   0.916   0.032  0.2176  2.0766 -0.0932
  244MOL0     H32885   4.176   0.914  -0.094  1.2464  2.0866  0.8562
  244MOL0     H32886   4.096   0.954  -0.252  2.8644  1.3212  0.0384
  244MOL0     H32887   4.098   1.142  -0.005  0.7452  0.2781  0.4408
  244MOL0     H32888   4.098   1.184  -0.188 -0.2588 -1.3629 -0.4095
  244MOL0     H32889   4.282   1.258  -0.040 -0.1820  1.4701 -2.0051
  244MOL0     H32890   4.325   1.082  -0.027 -0.5780 -0.2027  1.1926
  244MOL0     H32891   4.329   0.981  -0.320  2.3677 -1.5106 -0.9750
  244MOL0     H32892   4.458   0.937  -0.496 -2.0690  1.2070  1.5673
  244MOL0     H32893   4.506   1.057  -0.603 -1.4886  0.7917  0.0665
  244MOL0     H32894   4.707   0.934  -0.563 -0.3054 -0.9131 -0.9669
  244MOL0     H32895   4.721   1.068  -0.437  0.8720 -0.6541 -1.0172
  244MOL0     H32896   4.580   0.804  -0.346  1.8706 -2.8112  3.2758
  244MOL0     H32897   4.706   0.910  -0.273  1.1151  2.0592 -2.0175
  244MOL0     H32898   4.739   0.698  -0.498 -0.5333 -2.7065  1.2434
  244MOL0     H32899   4.778   0.672  -0.322 -0.9190 -0.7063 -1.3504
  244MOL0     H32900   5.119   0.886  -0.540  0.8004  0.2483  3.1410
  244MOL0     H32901   5.300   0.737  -0.609 -0.8715  3.1955  1.6946
  244MOL0     H32902   5.609   0.326  -0.626  1.6311  0.2102  0.7332
  244MOL0     H32903   5.813   0.219  -0.534 -1.3234  0.5844 -2.2929
  244MOL0     H32904   5.811   0.038  -0.136  2.2394  1.6032 -0.3072
  244MOL0     H32905   5.770  -0.082  -0.264 -3.5492  2.3170 -0.2220
  244MOL0     H32906   5.968  -0.139  -0.095  0.9533  0.9879  0.5775
  244MOL0     H32907   6.020  -0.155  -0.265  2.4847 -0.9049  0.4032
  244MOL0     H32908   6.197  -0.053  -0.148  0.7596  1.1325  3.0996
  244MOL0     H32909   6.128   0.043  -0.283 -0.4036  0.5405  0.7462
  244MOL0     H32910   6.012   0.130  -0.046  1.5769  2.6384  2.2525
  244MOL0     H32911   6.063   0.218  -0.181 -1.0849  1.0962  1.2895
  244MOL0     H32912   6.239   0.290  -0.037 -0.7232 -0.2531 -2.0045
  244MOL0     H32913   6.314   0.149  -0.109 -0.6277  1.2354 -1.8511
  244MOL0     H32914   6.193   0.094   0.170  0.7150 -2.9330 -0.4372
  244MOL0     H32915   6.276   0.000   0.063  0.0100 -0.1538 -0.0013
  244MOL0     H32916   6.477   0.186   0.078 -2.7716 -0.5248 -2.0731
  244MOL0     H32917   6.468   0.061   0.191  2.6417  0.8302 -0.8813
  244MOL0     H32918   6.339   0.336   0.211  2.6281  1.5891 -0.0948
  244MOL0     H32919   6.321   0.223   0.344  0.5669  4.1021  1.6615
  244MOL0     H32920   5.594   0.109  -0.179  3.2687 -0.9530 -1.4587
  244MOL0     H32921   5.412   0.231  -0.263  1.1213 -1.3132  2.7323
  244MOL0     H32922   5.148   0.426  -0.350  1.6918  0.1853  0.8034
  244MOL0     H32923   4.946   0.562  -0.318 -0.5909 -0.1500  1.2211
  244MOL0     H32924   3.271   0.798  -0.040 -3.9791  1.5129  1.6634
  244MOL0     H32925   3.074   0.796   0.084  0.6993  1.4896  0.0237
  244MOL0     H32926   3.006   0.652   0.529  0.1064 -0.6549  2.7033
  244MOL0     H32927   2.892   0.648   0.740  0.4087 -3.5080  0.6779
  244MOL0     H32928   2.462   0.474   0.682 -3.5612  2.4166 -0.3816
  244MOL0     H32929   2.432   0.617   0.750 -0.2949 -1.1293 -0.7322
  244MOL0     H32930   2.527   0.489   0.975 -0.3647 -3.1591  0.6273
  244MOL0     H32931   2.501   0.349   0.880 -1.6419 -0.1692 -1.6747
  244MOL0     H32932   2.249   0.411   0.845 -2.0941 -0.6747  1.3146
  244MOL0     H32933   2.276   0.540   0.964 -1.7854 -1.0584  1.4102
  244MOL0     H32934   2.345   0.355   1.127 -0.7480 -2.5174 -0.1500
  244MOL0     H32935   2.181   0.349   1.057  0.2268  1.5422  0.5286
  244MOL0     H32936   2.396   0.004   0.913 -1.0843 -1.2553  1.1997
  244MOL0     H32937   2.518   0.653   0.528  0.0128  3.2332 -0.4811
  244MOL0     H32938   2.641   0.790   0.229  3.1404 -0.8734 -1.4085
  244MOL0     H32939   2.627   0.620   0.202  0.0171  1.0912 -0.5997
  244MOL0     H32940   2.499   0.690   0.277 -0.0720 -0.9018 -2.6952
  245MOL0     O32941   3.489   9.786   0.300  0.1122 -0.0911  0.1232
  245MOL0     C32942   3.407   9.785   0.209 -0.5162 -0.0732 -0.2094
  245MOL0     O32943   3.348   9.894   0.149 -0.4677 -0.2800 -0.0582
  245MOL0     C32944   3.373  10.022   0.198  0.7160 -0.8000 -0.7205
  245MOL0     C32945   3.381  10.130   0.107 -0.5466 -0.2825  1.1033
  245MOL0     C32946   3.392  10.263   0.150  0.1273 -0.1744  0.1292
  245MOL0     C32947   3.408  10.300   0.284  1.6159 -0.6493  0.0864
  245MOL0     O32948   3.427  10.432   0.317 -0.8276 -0.6687 -0.4093
  245MOL0     C32949   3.432  10.467   0.456 -0.2843  1.3140  0.2004
  245MOL0     C32950   3.447  10.620   0.454 -0.6556 -1.1248 -0.1221
  245MOL0     C32951   3.465  10.668   0.602  0.0418 -0.0516  0.4841
  245MOL0     C32952   3.489  10.817   0.610  0.5010  0.1139 -0.1189
  245MOL0     C32953   3.481  10.861   0.758 -0.4769  0.7278  0.5643
  245MOL0     C32954   3.521  11.000   0.786 -0.5928  0.1230  0.8621
  245MOL0     C32955   3.430  11.115   0.729 -0.3093 -0.5838 -0.0701
  245MOL0     C32956   3.477  11.159   0.589 -0.6740 -0.6088  0.4957
  245MOL0     N32957   3.620  11.204   0.578 -0.5361 -0.6388  0.1375
  245MOL0     C32958   3.731  11.128   0.573  0.2499  0.9768  0.0445
  245MOL0     C32959   3.831  11.222   0.579  0.2380 -0.3163  1.0699
  245MOL0     C32960   3.976  11.183   0.578  0.0113 -0.4862  0.1157
  245MOL0     C32961   4.025  11.118   0.453 -1.4900 -0.5922  0.3330
  245MOL0     C32962   4.042  11.220   0.336  1.2217  0.9379 -0.2175
  245MOL0     C32963   4.071  11.175   0.201  1.1885  0.8342  0.5603
  245MOL0     O32964   4.198  11.107   0.198 -0.4218 -1.5817  0.2039
  245MOL0     C32965   4.208  10.984   0.151  0.0486  0.2392  0.3770
  245MOL0     C32966   4.139  10.879   0.207 -0.1802  0.5441  0.4082
  245MOL0     C32967   4.169  10.744   0.171  0.7809  0.1424  0.9735
  245MOL0     C32968   4.258  10.723   0.069 -0.2956  0.0302 -1.3272
  245MOL0     C32969   4.280  10.586   0.020  0.4968 -0.0274 -0.6247
  245MOL0     O32970   4.185  10.489   0.038  0.0482  0.4474 -0.0727
  245MOL0     C32971   4.190  10.365  -0.029  0.9228 -0.3208 -0.8321
  245MOL0     C32972   4.257  10.338  -0.152 -0.1274  0.1919  0.1437
  245MOL0     C32973   4.249  10.213  -0.211  0.5886  0.1137 -0.2635
  245MOL0     C32974   4.157  10.125  -0.162  0.7712 -0.3383  0.5310
  245MOL0     O32975   4.127  10.011  -0.228 -0.3163 -0.5929 -1.2150
  245MOL0     C32976   4.170   9.987  -0.359 -0.3466  0.2702  0.1552
  245MOL0     C32977   4.088   9.878  -0.406  0.0985  0.0704 -0.8066
  245MOL0     C32978   4.098   9.727  -0.357  0.3562 -0.3128 -0.2478
  245MOL0     C32979   4.022   9.619  -0.426 -0.2147 -0.4068  0.0102
  245MOL0     C32980   4.070   9.596  -0.574  0.0708 -0.0654 -0.1092
  245MOL0     C32981   3.960   9.630  -0.682  1.1945 -0.4589 -0.4367
  245MOL0     C32982   4.024   9.601  -0.821  0.2810 -0.7122 -0.4561
  245MOL0     C32983   3.933   9.526  -0.917  0.2974  0.1475  0.3093
  245MOL0    Cl32984   3.935   9.338  -0.897 -0.1317  0.2827 -0.4052
  245MOL0     C32985   4.096  10.151  -0.037  0.1154 -0.1860  0.2831
  245MOL0     C32986   4.113  10.270   0.021 -0.5582 -0.3199 -0.0737
  245MOL0     O32987   4.386  10.572  -0.035 -0.2350 -0.7902 -0.1960
  245MOL0     C32988   4.326  10.834   0.010  0.0573  0.5022 -0.0775
  245MOL0     C32989   4.304  10.965   0.056 -0.9434  1.6885  1.0167
  245MOL0     N32990   3.789  11.358   0.586  0.9464 -0.4033 -0.1826
  245MOL0     N32991   3.657  11.342   0.585  0.0419  0.3195 -0.0096
  245MOL0     C32992   3.388  10.191   0.378 -0.7222 -0.3377 -0.2787
  245MOL0     C32993   3.367  10.059   0.335  0.2488 -0.1675  0.4920
  245MOL0     C32994   3.366   9.652   0.147 -0.3283 -0.0443 -0.0246
  245MOL0     C32995   3.320   9.647   0.012  0.1219  0.0450  0.5109
  245MOL0     C32996   3.281   9.525  -0.039  0.3345  0.0495  0.0219
  245MOL0     C32997   3.282   9.407   0.025 -0.1101 -1.5820  0.5126
  245MOL0     O32998   3.242   9.297  -0.028 -0.2983  0.5152  0.0784
  245MOL0     C32999   3.347   9.196  -0.054  0.4607  0.8492 -0.8617
  245MOL0     C33000   3.281   9.078  -0.118  0.1005  0.4895  0.9350
  245MOL0     C33001   3.189   9.003  -0.018  0.0801  0.0484 -0.5141
  245MOL0     C33002   3.059   8.971  -0.090  0.0782  0.0471  0.7188
  245MOL0     C33003   3.063   8.910  -0.224  0.6997  0.5949  1.1013
  245MOL0     C33004   3.083   8.859  -0.333 -1.1404 -0.4067 -0.4959
  245MOL0     C33005   3.334   9.407   0.158 -0.4108 -0.5497  0.2352
  245MOL0     C33006   3.382   9.533   0.222 -0.1011 -0.0147 -0.3183
  245MOL0     C33007   3.421   9.515   0.364 -1.0007  0.1289 -0.3151
  245MOL0     H33008   3.388  10.098   0.004 -0.2660  0.7415  0.7906
  245MOL0     H33009   3.397  10.332   0.067  3.4657  0.5918  0.7955
  245MOL0     H33010   3.345  10.438   0.517 -0.6609  0.0647 -0.8862
  245MOL0     H33011   3.519  10.423   0.506 -0.4897 -1.4820 -1.6778
  245MOL0     H33012   3.355  10.662   0.415 -1.1871 -0.9428  1.2577
  245MOL0     H33013   3.535  10.654   0.398 -0.3629  2.4533  2.1514
  245MOL0     H33014   3.558  10.621   0.637  1.8670  2.8234 -0.0989
  245MOL0     H33015   3.378  10.637   0.661 -0.2559 -0.6327 -0.2486
  245MOL0     H33016   3.579  10.850   0.557  0.1434  1.4988  0.0815
  245MOL0     H33017   3.399  10.858   0.563  1.0851  0.4322 -0.9769
  245MOL0     H33018   3.380  10.832   0.788  0.0247 -1.0609  0.5961
  245MOL0     H33019   3.550  10.794   0.809 -1.7916 -2.3935 -1.4034
  245MOL0     H33020   3.498  11.020   0.891 -6.9175  0.4298 -0.2281
  245MOL0     H33021   3.626  11.028   0.776 -0.4586 -0.8936 -1.1900
  245MOL0     H33022   3.446  11.194   0.803  2.2284 -1.7719  0.7415
  245MOL0     H33023   3.326  11.087   0.750  0.1201  0.4092  4.3408
  245MOL0     H33024   3.466  11.084   0.510 -0.5185 -1.9879  1.7402
  245MOL0     H33025   3.408  11.238   0.557 -1.6636 -1.5867  0.1278
  245MOL0     H33026   3.746  11.021   0.567  1.6909  0.9909  2.2066
  245MOL0     H33027   4.040  11.269   0.599 -1.1817  0.3254  0.5159
  245MOL0     H33028   3.980  11.100   0.650  2.4119 -3.6449 -3.2541
  245MOL0     H33029   4.125  11.075   0.463  0.1690  2.4588 -1.5745
  245MOL0     H33030   3.955  11.036   0.434 -0.2780 -0.9133 -3.7732
  245MOL0     H33031   4.129  11.266   0.385  1.7783 -1.9704  1.7647
  245MOL0     H33032   3.949  11.277   0.332  0.8686  0.7856  2.8728
  245MOL0     H33033   4.070  11.269   0.145  3.6246  1.2168  1.0343
  245MOL0     H33034   3.982  11.118   0.175  2.0189  0.4554 -1.5679
  245MOL0     H33035   4.063  10.894   0.283  0.8893 -2.5056  2.2738
  245MOL0     H33036   4.105  10.667   0.211 -0.6073  2.0967  2.7217
  245MOL0     H33037   4.322  10.410  -0.200  0.3088 -0.9927 -1.1359
  245MOL0     H33038   4.307  10.184  -0.298  0.8328 -0.4135  0.0747
  245MOL0     H33039   4.172  10.069  -0.432 -1.1321 -0.1232 -0.3181
  245MOL0     H33040   4.265   9.933  -0.352 -1.2403 -1.2987  0.5767
  245MOL0     H33041   3.981   9.897  -0.392 -0.0727 -2.4142  2.2213
  245MOL0     H33042   4.126   9.868  -0.508 -0.1008 -1.4117 -0.7521
  245MOL0     H33043   4.202   9.697  -0.372  0.6747  0.1025  1.0218
  245MOL0     H33044   4.087   9.737  -0.248 -0.4288  1.2701 -0.4391
  245MOL0     H33045   3.916   9.645  -0.415 -0.6669 -2.9484  3.3038
  245MOL0     H33046   4.032   9.524  -0.372  2.5752 -1.8176 -2.7256
  245MOL0     H33047   4.105   9.492  -0.570  3.4057  0.8581  5.1320
  245MOL0     H33048   4.161   9.652  -0.596  0.7015 -2.0358 -3.1199
  245MOL0     H33049   3.872   9.566  -0.671  1.3005 -1.1260 -2.8349
  245MOL0     H33050   3.919   9.731  -0.673  1.4351 -0.3276 -0.7766
  245MOL0     H33051   4.107   9.530  -0.812  0.9592  0.2875  2.1258
  245MOL0     H33052   4.043   9.694  -0.874 -2.9432 -0.1854 -0.8899
  245MOL0     H33053   3.829   9.558  -0.905 -0.1315 -1.3611  0.8598
  245MOL0     H33054   3.942   9.545  -1.024 -1.0037 -1.0651 -0.0466
  245MOL0     H33055   4.028  10.077   0.004  0.5323 -0.8994 -0.2919
  245MOL0     H33056   4.055  10.281   0.112 -2.4236 -0.7108 -1.1557
  245MOL0     H33057   4.386  10.808  -0.077  0.9101 -0.6226  0.8113
  245MOL0     H33058   4.368  11.044   0.017 -0.6616  0.4315 -1.2350
  245MOL0     H33059   3.392  10.208   0.485 -0.1643 -2.7109  0.1507
  245MOL0     H33060   3.352   9.982   0.410  3.5406 -1.6852 -0.1931
  245MOL0     H33061   3.321   9.742  -0.040  1.5163  0.5933  1.4784
  245MOL0     H33062   3.242   9.534  -0.140 -0.4018  0.8853  0.3690
  245MOL0     H33063   3.389   9.169   0.044 -2.5042  0.2916  0.3564
  245MOL0     H33064   3.432   9.229  -0.115  0.8721 -1.3487 -1.5967
  245MOL0     H33065   3.355   9.002  -0.145 -0.2775  0.7187 -0.8928
  245MOL0     H33066   3.232   9.122  -0.206  0.3328  0.7818  0.9540
  245MOL0     H33067   3.171   9.060   0.073 -0.0186 -0.7690 -0.0137
  245MOL0     H33068   3.246   8.912   0.006  1.2451  0.5652 -1.2364
  245MOL0     H33069   3.001   8.905  -0.024 -0.5893 -1.6903 -1.4862
  245MOL0     H33070   3.007   9.067  -0.096 -3.1770 -1.5887  0.2449
  245MOL0     H33071   3.078   8.812  -0.429  0.3412 -1.0844 -0.2684
  245MOL0     H33072   3.351   9.312   0.208  1.4088  0.0796  0.9190
  245MOL0     H33073   3.523   9.547   0.388 -0.1455 -2.8605  0.4152
  245MOL0     H33074   3.357   9.583   0.421 -2.6266 -0.4746 -1.3487
  245MOL0     H33075   3.392   9.416   0.398  0.2721  0.0981  0.7553
  246MOL0     O33076   5.835   8.685   3.094 -0.0692  0.9896 -0.6395
  246MOL0     C33077   5.731   8.664   3.159  0.2599  0.9009 -0.3324
  246MOL0     O33078   5.633   8.577   3.118 -0.3397 -0.0151 -0.2126
  246MOL0     C33079   5.602   8.565   2.983 -0.2879 -0.0801  0.3502
  246MOL0     C33080   5.467   8.568   2.947 -0.2196  0.5872  0.0532
  246MOL0     C33081   5.434   8.545   2.814 -0.4797 -0.6131 -0.3315
  246MOL0     C33082   5.525   8.540   2.711 -0.0799 -0.1241  0.1196
  246MOL0     O33083   5.493   8.537   2.569  0.1370 -0.0072 -0.8557
  246MOL0     C33084   5.370   8.597   2.526 -0.0599  0.3358  0.0319
  246MOL0     C33085   5.353   8.621   2.378 -0.7635 -0.1413  0.1115
  246MOL0     C33086   5.260   8.737   2.353 -0.8156  0.8485 -0.8378
  246MOL0     C33087   5.310   8.834   2.243 -0.7008  1.1061  0.3234
  246MOL0     C33088   5.235   8.963   2.249 -0.2791 -0.2351 -0.4484
  246MOL0     C33089   5.293   9.065   2.147  0.4326 -0.1150  0.2339
  246MOL0     C33090   5.240   9.207   2.158 -0.0709 -0.4560  0.1327
  246MOL0     C33091   5.296   9.314   2.062 -0.4568  0.4448  0.1939
  246MOL0     N33092   5.262   9.292   1.927 -0.5609 -0.5492 -0.1667
  246MOL0     C33093   5.348   9.221   1.845 -0.2851  0.7917  0.8214
  246MOL0     C33094   5.278   9.214   1.724 -1.2087 -0.5462 -0.0677
  246MOL0     C33095   5.322   9.124   1.610  0.8859 -0.2427  0.8854
  246MOL0     C33096   5.240   8.996   1.614 -0.4186 -0.0649 -0.3100
  246MOL0     C33097   5.303   8.901   1.522  0.6791  1.0575  0.9704
  246MOL0     C33098   5.207   8.782   1.513  1.0604 -0.2790 -0.0463
  246MOL0     O33099   5.237   8.700   1.396  0.0942 -0.2107  0.4676
  246MOL0     C33100   5.231   8.752   1.259 -0.2613 -0.4882 -0.2303
  246MOL0     C33101   5.149   8.861   1.223  0.9697 -0.3247 -0.0955
  246MOL0     C33102   5.137   8.905   1.095 -0.2891  0.6400  0.1608
  246MOL0     C33103   5.223   8.846   0.998 -0.2735  0.3056  0.7888
  246MOL0     C33104   5.235   8.901   0.853  0.1641  0.0252 -0.1044
  246MOL0     O33105   5.140   9.003   0.821 -0.1165 -0.5727 -0.2634
  246MOL0     C33106   5.146   9.064   0.703 -0.1549  0.1972  0.1962
  246MOL0     C33107   5.017   9.078   0.647  0.6906 -0.2320  0.5371
  246MOL0     C33108   4.999   9.158   0.535 -0.2635 -0.9761  1.1845
  246MOL0     C33109   5.110   9.213   0.470 -0.4254 -0.2802  0.1578
  246MOL0     O33110   5.103   9.291   0.361 -0.4654  0.8689  0.1871
  246MOL0     C33111   4.981   9.319   0.293 -0.1176 -0.1017 -0.4693
  246MOL0     C33112   4.996   9.425   0.194 -0.9735  0.0458 -0.4984
  246MOL0     C33113   4.861   9.442   0.124 -0.3349  0.1663  0.6096
  246MOL0     C33114   4.843   9.335   0.011  0.4891  0.6183  0.0322
  246MOL0     C33115   4.944   9.345  -0.100 -1.0099  0.9906 -0.3120
  246MOL0     C33116   4.910   9.292  -0.236  0.4939  0.1926  0.3956
  246MOL0     C33117   4.869   9.145  -0.221 -0.4775  1.1297 -0.1869
  246MOL0     C33118   4.839   9.066  -0.358 -0.2558  0.2955  0.8647
  246MOL0    Cl33119   4.823   8.893  -0.316  0.0693  0.3759  0.0472
  246MOL0     C33120   5.239   9.188   0.522  0.3202 -0.0568 -0.4545
  246MOL0     C33121   5.261   9.120   0.644  0.8601  0.0908  0.4153
  246MOL0     O33122   5.348   8.892   0.798 -0.0675 -0.5769  0.1139
  246MOL0     C33123   5.315   8.742   1.027  0.3109  0.3890 -0.2588
  246MOL0     C33124   5.309   8.686   1.158  0.0825  0.5908  0.1636
  246MOL0     N33125   5.164   9.292   1.735 -0.4201 -0.7941 -0.7497
  246MOL0     N33126   5.159   9.348   1.850 -0.6431 -0.4450 -0.8377
  246MOL0     C33127   5.663   8.542   2.748 -1.0625  0.4052  0.4197
  246MOL0     C33128   5.699   8.545   2.888 -0.5695 -0.6475  0.2075
  246MOL0     C33129   5.723   8.719   3.293  0.3362  0.3191  0.9665
  246MOL0     C33130   5.615   8.678   3.364  0.4656  0.4127  0.4981
  246MOL0     C33131   5.571   8.725   3.488 -0.2579  0.5599  0.0854
  246MOL0     C33132   5.658   8.814   3.559  0.2092 -0.7314 -0.4230
  246MOL0     O33133   5.632   8.860   3.684  0.0769 -0.3155  0.9604
  246MOL0     C33134   5.533   8.780   3.760 -0.5885 -0.3964 -0.3982
  246MOL0     C33135   5.554   8.816   3.914  0.3421  0.4215 -0.0372
  246MOL0     C33136   5.515   8.955   3.944 -0.5465 -0.5920 -0.2871
  246MOL0     C33137   5.503   9.003   4.094  0.3209  0.3450  0.5989
  246MOL0     C33138   5.630   9.048   4.136 -0.1737 -0.0129 -0.5329
  246MOL0     C33139   5.736   9.108   4.170  0.0425 -0.4425  0.2642
  246MOL0     C33140   5.772   8.860   3.485 -0.2976 -0.4076  0.3134
  246MOL0     C33141   5.804   8.819   3.352 -0.6565  0.7391  0.0258
  246MOL0     C33142   5.914   8.881   3.277 -1.4438 -0.0375 -0.6129
  246MOL0     H33143   5.394   8.584   3.026 -0.3141  1.3473 -0.1831
  246MOL0     H33144   5.330   8.541   2.784 -0.3129  1.6548 -1.4245
  246MOL0     H33145   5.292   8.535   2.571  0.6263  1.3646  2.8514
  246MOL0     H33146   5.367   8.695   2.574  2.6836 -0.5719  2.4053
  246MOL0     H33147   5.321   8.524   2.338  0.5181 -0.0113 -1.2897
  246MOL0     H33148   5.445   8.636   2.321 -0.7271 -0.5640  0.0548
  246MOL0     H33149   5.233   8.794   2.443  0.0981 -0.1474  0.0842
  246MOL0     H33150   5.163   8.695   2.325 -1.1594  1.3161 -0.3615
  246MOL0     H33151   5.419   8.841   2.244 -0.5052  0.1976  4.3196
  246MOL0     H33152   5.293   8.783   2.148 -1.2002  0.9430  0.4935
  246MOL0     H33153   5.131   8.941   2.225 -0.0948 -1.1374 -0.4432
  246MOL0     H33154   5.243   9.004   2.350 -0.9927  1.2442 -0.9631
  246MOL0     H33155   5.401   9.074   2.153  0.3520  1.5523 -0.4979
  246MOL0     H33156   5.268   9.032   2.045  0.3565  2.0989 -0.4994
  246MOL0     H33157   5.252   9.247   2.259 -0.6681  1.7856 -0.6354
  246MOL0     H33158   5.131   9.210   2.151 -0.2548 -1.3749  1.9121
  246MOL0     H33159   5.260   9.416   2.081 -1.2209  1.0530 -3.7563
  246MOL0     H33160   5.405   9.308   2.071 -0.2980  0.4808 -1.4679
  246MOL0     H33161   5.432   9.159   1.875 -0.4023  0.4707  0.5055
  246MOL0     H33162   5.320   9.174   1.513  2.9249  1.6550  1.7311
  246MOL0     H33163   5.430   9.110   1.622  1.2080 -0.3411 -1.5691
  246MOL0     H33164   5.220   8.955   1.713  3.1184  0.4438  0.7774
  246MOL0     H33165   5.147   9.039   1.576 -0.4918  2.6737  2.5835
  246MOL0     H33166   5.398   8.857   1.553  0.6950 -1.1408 -1.7747
  246MOL0     H33167   5.322   8.958   1.430  2.1393  2.2297  1.9600
  246MOL0     H33168   5.106   8.823   1.512 -0.0054 -2.5928 -3.0019
  246MOL0     H33169   5.214   8.723   1.605  0.2402 -0.7640 -0.2816
  246MOL0     H33170   5.088   8.916   1.294  1.0158 -0.9110  0.4089
  246MOL0     H33171   5.066   8.983   1.072 -1.5222 -1.4163 -3.9864
  246MOL0     H33172   4.935   9.030   0.700 -0.5310  1.2907  0.0858
  246MOL0     H33173   4.897   9.166   0.501  0.2393 -0.7220 -0.3098
  246MOL0     H33174   4.948   9.227   0.244 -2.9698  0.8916 -0.5964
  246MOL0     H33175   4.899   9.343   0.360 -0.0304 -0.2513 -0.3081
  246MOL0     H33176   5.036   9.510   0.251  3.1119 -2.8876  1.5199
  246MOL0     H33177   5.074   9.397   0.121 -0.8494  0.0797 -0.3780
  246MOL0     H33178   4.778   9.439   0.195  0.4166 -1.3702  1.4867
  246MOL0     H33179   4.847   9.539   0.076  0.2805  1.1069  2.2815
  246MOL0     H33180   4.738   9.344  -0.020  0.2355  0.8014  0.8960
  246MOL0     H33181   4.843   9.238   0.061  1.0475  1.1330  1.0598
  246MOL0     H33182   5.042   9.306  -0.070 -0.8665  1.1665 -0.5427
  246MOL0     H33183   4.952   9.451  -0.124  0.6860  0.4510 -2.5487
  246MOL0     H33184   4.827   9.352  -0.275 -2.3626 -3.4861  0.2506
  246MOL0     H33185   4.990   9.316  -0.306 -1.4389  4.5336 -0.7088
  246MOL0     H33186   4.792   9.131  -0.144  0.9676 -1.9732  0.8448
  246MOL0     H33187   4.957   9.102  -0.173  0.6094  1.3528 -1.9191
  246MOL0     H33188   4.744   9.102  -0.397  0.4900  2.0687  0.5884
  246MOL0     H33189   4.915   9.085  -0.434  2.4476 -0.8284  3.1010
  246MOL0     H33190   5.325   9.214   0.461  2.0071 -3.4172  0.2186
  246MOL0     H33191   5.361   9.107   0.684 -0.2539 -2.1417  2.8171
  246MOL0     H33192   5.377   8.688   0.957 -0.0089  1.7606 -1.6504
  246MOL0     H33193   5.372   8.599   1.176  0.3921  0.5730 -0.9223
  246MOL0     H33194   5.730   8.530   2.664 -0.2479 -1.6890  1.2830
  246MOL0     H33195   5.800   8.537   2.927 -0.0396  2.1802 -0.3908
  246MOL0     H33196   5.546   8.609   3.315  2.1010 -0.7988 -0.1752
  246MOL0     H33197   5.474   8.686   3.515  0.1356 -0.6998 -0.2258
  246MOL0     H33198   5.541   8.672   3.743 -0.9314 -0.4026 -0.5386
  246MOL0     H33199   5.433   8.802   3.722 -0.5334 -1.9638 -1.5532
  246MOL0     H33200   5.659   8.814   3.947  0.3263  0.9853  0.0651
  246MOL0     H33201   5.506   8.750   3.987  0.5426  1.5022  1.1047
  246MOL0     H33202   5.414   8.958   3.902 -0.5808  0.3530 -0.1564
  246MOL0     H33203   5.575   9.013   3.873  0.3035 -0.3744  0.6000
  246MOL0     H33204   5.437   9.090   4.103 -0.3736 -0.0868 -0.1041
  246MOL0     H33205   5.460   8.928   4.160  0.8916  1.1901  1.9716
  246MOL0     H33206   5.829   9.154   4.195  0.0212 -1.9804  3.7782
  246MOL0     H33207   5.834   8.932   3.537 -1.5929 -0.4373  1.9758
  246MOL0     H33208   5.879   8.922   3.182  1.7370 -0.1207 -1.9273
  246MOL0     H33209   5.955   8.963   3.336 -1.8409  3.0228 -4.2216
  246MOL0     H33210   5.998   8.812   3.264 -0.3031  0.7718  1.8770
  247MOL0     O33211   1.423   5.008  10.339  0.4764 -0.2869 -0.2791
  247MOL0     C33212   1.466   5.060  10.439 -0.4626 -0.7319 -0.5665
  247MOL0     O33213   1.604   5.069  10.475  0.2846 -0.5587 -0.0228
  247MOL0     C33214   1.708   5.006  10.408  0.6148  0.6469  0.5666
  247MOL0     C33215   1.833   5.054  10.430  0.4267  0.6112 -0.5276
  247MOL0     C33216   1.943   5.000  10.362 -0.6242 -0.0446  0.6927
  247MOL0     C33217   1.934   4.896  10.268  0.1228 -0.9596  0.6108
  247MOL0     O33218   2.049   4.859  10.217 -0.7402 -0.3274  0.0186
  247MOL0     C33219   2.068   4.724  10.172  0.2162 -0.5577  0.5346
  247MOL0     C33220   2.198   4.665  10.217 -0.2770  1.2415 -0.4781
  247MOL0     C33221   2.195   4.512  10.193 -0.6391  0.6454  0.6286
  247MOL0     C33222   2.212   4.422  10.315 -0.4701 -0.4585  0.7739
  247MOL0     C33223   2.177   4.268  10.301 -0.5492 -0.3048  0.9285
  247MOL0     C33224   2.044   4.243  10.246  0.7333 -0.1781  0.0495
  247MOL0     C33225   1.995   4.095  10.251  0.2787  0.3559  0.2464
  247MOL0     C33226   2.071   4.004  10.170 -0.2945  1.1263  0.4338
  247MOL0     N33227   2.164   3.922  10.247 -0.1156  0.4218 -0.2096
  247MOL0     C33228   2.304   3.934  10.259  0.8858 -0.4117  0.2683
  247MOL0     C33229   2.337   3.827  10.332 -0.6196  0.4568  0.0979
  247MOL0     C33230   2.474   3.807  10.403 -0.1217  0.4098 -0.3816
  247MOL0     C33231   2.542   3.680  10.350  0.9837 -0.7695 -0.3843
  247MOL0     C33232   2.681   3.657  10.387  0.2138 -0.4930  0.2331
  247MOL0     C33233   2.769   3.740  10.295 -0.2510  0.0418  0.8894
  247MOL0     O33234   2.908   3.701  10.317 -0.5011 -0.0101 -0.2646
  247MOL0     C33235   3.004   3.789  10.268 -0.2656 -1.0363  1.0768
  247MOL0     C33236   2.985   3.933  10.260 -0.6920 -0.0416  0.2687
  247MOL0     C33237   3.093   4.012  10.230  1.0442  0.5611  1.4414
  247MOL0     C33238   3.221   3.954  10.190  0.1509  0.2258  0.1991
  247MOL0     C33239   3.345   4.026  10.179 -0.6660  0.4043 -0.6521
  247MOL0     O33240   3.452   3.947  10.136  0.3447  0.1046 -0.7598
  247MOL0     C33241   3.569   3.997  10.096  0.1281 -1.0676 -0.2491
  247MOL0     C33242   3.628   4.114  10.136 -0.3667  0.2669 -0.6877
  247MOL0     C33243   3.755   4.145  10.110  0.3515  0.9455  0.7582
  247MOL0     C33244   3.834   4.071  10.026 -1.3120 -0.5105 -0.0595
  247MOL0     O33245   3.964   4.111   9.996  0.5165 -0.5326  0.8878
  247MOL0     C33246   4.034   4.056   9.885  0.0915 -0.5537  0.0257
  247MOL0     C33247   4.180   4.106   9.905  0.2648 -0.1267 -0.0526
  247MOL0     C33248   4.263   4.057   9.780  0.5686  0.4513 -0.0178
  247MOL0     C33249   4.325   3.925   9.819  0.1685 -0.4653  1.1798
  247MOL0     C33250   4.430   3.882   9.700  0.7836  0.9574  0.3588
  247MOL0     C33251   4.479   3.736   9.739  0.3033 -0.2813 -0.2340
  247MOL0     C33252   4.368   3.633   9.709  0.7019 -0.3869  0.9119
  247MOL0     C33253   4.315   3.630   9.561 -0.1368 -0.0680  0.3417
  247MOL0    Cl33254   4.453   3.566   9.456  0.2497  0.0554  0.4144
  247MOL0     C33255   3.775   3.953   9.973 -0.1343  0.5138  0.5166
  247MOL0     C33256   3.642   3.916  10.010  0.0472 -0.1674  0.2237
  247MOL0     O33257   3.334   4.147  10.191 -0.1979  1.1006  0.0772
  247MOL0     C33258   3.230   3.808  10.191 -0.2104 -0.0705 -0.5579
  247MOL0     C33259   3.126   3.733  10.240  0.9427  0.1582  0.8964
  247MOL0     N33260   2.223   3.756  10.362 -0.5258  0.3783 -0.3872
  247MOL0     N33261   2.124   3.812  10.316 -0.1585  0.1043  0.6219
  247MOL0     C33262   1.800   4.843  10.241 -1.0291 -0.1865 -0.1637
  247MOL0     C33263   1.692   4.904  10.307  0.5586 -0.3848 -0.2955
  247MOL0     C33264   1.373   5.108  10.551 -0.3696 -0.1290  0.1186
  247MOL0     C33265   1.235   5.105  10.512  0.3795  0.3758 -0.4464
  247MOL0     C33266   1.136   5.138  10.599 -0.3397  0.4879 -0.0640
  247MOL0     C33267   1.167   5.170  10.737 -0.0779 -0.0079  0.9305
  247MOL0     O33268   1.066   5.196  10.830  0.6404 -0.2516  0.4447
  247MOL0     C33269   0.938   5.143  10.810 -0.0293  0.2065  0.3819
  247MOL0     C33270   0.850   5.246  10.749 -0.6902  0.1278  0.6468
  247MOL0     C33271   0.829   5.376  10.842 -0.6864  0.2322 -0.1239
  247MOL0     C33272   0.794   5.492  10.753 -0.0857  0.7599 -0.2919
  247MOL0     C33273   0.798   5.617  10.824  0.1052  0.5167 -0.3968
  247MOL0     C33274   0.819   5.708  10.898  0.2310 -0.8156 -0.1972
  247MOL0     C33275   1.303   5.182  10.769 -0.0595  0.6038 -0.4667
  247MOL0     C33276   1.405   5.150  10.687  0.3209  0.5017 -0.5324
  247MOL0     C33277   1.554   5.169  10.735  0.8212 -0.7324  1.3367
  247MOL0     H33278   1.846   5.131  10.505 -1.1924  0.0017  0.4458
  247MOL0     H33279   2.044   5.032  10.385 -0.0631 -1.7035  0.6559
  247MOL0     H33280   1.980   4.667  10.205  0.3675 -1.5529 -0.6942
  247MOL0     H33281   2.062   4.722  10.063 -2.8822 -0.4786  0.6048
  247MOL0     H33282   2.208   4.688  10.323 -0.0969  0.5623 -0.3426
  247MOL0     H33283   2.275   4.717  10.160 -0.1997  0.1338 -1.4396
  247MOL0     H33284   2.269   4.484  10.117 -0.4865  0.6687  0.7697
  247MOL0     H33285   2.098   4.487  10.147 -0.0464 -2.3146  0.8173
  247MOL0     H33286   2.317   4.407  10.342 -0.6773 -1.1711  1.2086
  247MOL0     H33287   2.149   4.465  10.394 -3.3314  0.4959 -1.7997
  247MOL0     H33288   2.255   4.233  10.233 -2.4407  0.8582 -2.0171
  247MOL0     H33289   2.168   4.229  10.403 -1.1620  2.9002  2.2419
  247MOL0     H33290   1.971   4.297  10.307  1.0567  1.5930 -1.0510
  247MOL0     H33291   2.026   4.267  10.140  1.1267 -3.6262 -0.9039
  247MOL0     H33292   1.889   4.085  10.227  0.3406  0.9842 -0.3123
  247MOL0     H33293   1.997   4.040  10.346 -0.4579  0.0936  0.1151
  247MOL0     H33294   2.002   3.942  10.113  1.9674 -0.9092 -0.2369
  247MOL0     H33295   2.128   4.054  10.090  0.3918  0.2559  0.3623
  247MOL0     H33296   2.368   4.014  10.224  1.2737 -0.1052  1.6428
  247MOL0     H33297   2.535   3.898  10.398 -1.5694  1.4018 -0.8034
  247MOL0     H33298   2.436   3.793  10.504 -2.0232  4.3956 -0.3608
  247MOL0     H33299   2.481   3.594  10.378  0.7438 -0.0189  1.5315
  247MOL0     H33300   2.546   3.681  10.240  4.6746 -1.8755 -0.4145
  247MOL0     H33301   2.707   3.551  10.376 -2.2126 -1.0720 -0.6802
  247MOL0     H33302   2.701   3.685  10.490 -0.4324 -0.2608  0.3027
  247MOL0     H33303   2.750   3.845  10.320  0.7031  0.9345 -1.8620
  247MOL0     H33304   2.741   3.736  10.190  3.8403  0.2618 -0.3965
  247MOL0     H33305   2.894   3.991  10.272 -1.1458 -0.8147  0.6255
  247MOL0     H33306   3.078   4.119  10.219 -0.3902  0.1964 -1.0180
  247MOL0     H33307   3.579   4.164  10.219  2.8020 -1.1077  2.2963
  247MOL0     H33308   3.796   4.232  10.160 -2.1049  3.8674 -1.9217
  247MOL0     H33309   4.034   3.946   9.888  0.5073 -0.5937 -0.8812
  247MOL0     H33310   3.993   4.092   9.790  3.1166 -1.8937 -1.9606
  247MOL0     H33311   4.165   4.214   9.909 -2.3054 -0.2766 -2.3915
  247MOL0     H33312   4.217   4.079  10.005 -3.3065 -0.2945  1.3976
  247MOL0     H33313   4.191   4.049   9.698  0.2857 -0.1513  0.2825
  247MOL0     H33314   4.345   4.123   9.748 -0.2497  0.9455 -1.1874
  247MOL0     H33315   4.244   3.851   9.818 -0.4033  0.1205 -0.5805
  247MOL0     H33316   4.374   3.922   9.916  2.8435  1.2587 -0.0238
  247MOL0     H33317   4.514   3.951   9.702  2.1064 -0.5002 -1.2740
  247MOL0     H33318   4.377   3.894   9.605 -1.4552  1.8067  1.6579
  247MOL0     H33319   4.569   3.712   9.682  1.6507 -0.3168  1.8209
  247MOL0     H33320   4.512   3.729   9.843  0.9536  0.7027 -0.3590
  247MOL0     H33321   4.278   3.632   9.771 -0.5676 -3.1430 -0.7894
  247MOL0     H33322   4.413   3.536   9.733 -1.4116 -2.6793 -3.2957
  247MOL0     H33323   4.231   3.560   9.571 -1.7441  1.8323  0.6846
  247MOL0     H33324   4.270   3.723   9.525  0.1805 -0.0781 -0.0919
  247MOL0     H33325   3.829   3.892   9.902 -1.1664 -1.7068  1.5460
  247MOL0     H33326   3.595   3.827   9.971 -0.2939  1.5965 -4.0227
  247MOL0     H33327   3.324   3.757  10.176  2.3145  4.3819 -1.5485
  247MOL0     H33328   3.122   3.625  10.234 -1.3327  0.1712  1.4994
  247MOL0     H33329   1.778   4.753  10.183 -0.4421 -1.0789  0.9669
  247MOL0     H33330   1.588   4.876  10.301 -0.6302  3.1439  0.8274
  247MOL0     H33331   1.201   5.074  10.413  1.6657 -1.2312 -0.4398
  247MOL0     H33332   1.032   5.117  10.574 -0.3574 -2.0223  1.6708
  247MOL0     H33333   0.901   5.104  10.905  3.5321  0.1033  1.8905
  247MOL0     H33334   0.957   5.060  10.742  1.3864  0.0438  0.9478
  247MOL0     H33335   0.753   5.196  10.750 -0.5385 -0.1707  0.5945
  247MOL0     H33336   0.897   5.266  10.652 -2.8221  0.1874 -0.4505
  247MOL0     H33337   0.926   5.394  10.888 -0.7903 -1.0001  0.6283
  247MOL0     H33338   0.750   5.375  10.918  0.6723 -0.5745  1.3432
  247MOL0     H33339   0.869   5.487  10.673  1.5578 -2.0506  1.2752
  247MOL0     H33340   0.699   5.484  10.700 -1.8085 -2.9518  2.8767
  247MOL0     H33341   0.831   5.782  10.974 -0.5233 -2.2678  1.3953
  247MOL0     H33342   1.315   5.218  10.871  0.1685  0.7687 -0.5517
  247MOL0     H33343   1.598   5.254  10.683 -1.5733 -0.6957 -0.8067
  247MOL0     H33344   1.561   5.177  10.844 -1.2453  1.6766  1.3787
  247MOL0     H33345   1.617   5.080  10.724  2.0044  0.1971  0.3321
  248MOL0     O33346   4.702   6.726   3.560 -0.7654 -0.5833 -0.1911
  248MOL0     C33347   4.648   6.694   3.450  0.5408 -0.7916  0.0956
  248MOL0     O33348   4.586   6.577   3.415 -0.4254  0.5380  0.3428
  248MOL0     C33349   4.587   6.491   3.525 -0.4160 -0.4634 -0.0918
  248MOL0     C33350   4.501   6.492   3.629  0.3138  0.4352 -0.1947
  248MOL0     C33351   4.505   6.406   3.731  0.1383  0.3667  0.2968
  248MOL0     C33352   4.610   6.316   3.741 -0.7568 -0.5956  0.5024
  248MOL0     O33353   4.606   6.235   3.857 -0.0453 -0.1741 -0.1426
  248MOL0     C33354   4.731   6.194   3.900 -0.3567 -0.8805 -0.1713
  248MOL0     C33355   4.784   6.054   3.859  0.4604 -0.1301 -0.4115
  248MOL0     C33356   4.929   6.045   3.913  0.7671  0.4119  0.0946
  248MOL0     C33357   4.934   6.052   4.067 -0.0696  0.2393 -0.6185
  248MOL0     C33358   5.070   5.978   4.113 -0.4629  0.1763  0.3047
  248MOL0     C33359   5.085   5.818   4.083  0.3053 -0.4217 -0.1771
  248MOL0     C33360   4.960   5.742   4.133 -0.8159 -0.1801 -0.0540
  248MOL0     C33361   4.992   5.587   4.113  0.4867  0.7991 -0.5025
  248MOL0     N33362   5.012   5.559   3.970  0.3984 -0.1598  0.1079
  248MOL0     C33363   4.914   5.502   3.890  0.3339 -0.2054  0.1943
  248MOL0     C33364   4.980   5.477   3.771  0.3093  0.2703  0.3002
  248MOL0     C33365   4.930   5.404   3.653  1.0109  0.0150 -0.2115
  248MOL0     C33366   4.818   5.299   3.670  1.1197  0.0128  0.2243
  248MOL0     C33367   4.796   5.212   3.551 -0.2440  0.5139  0.2286
  248MOL0     C33368   4.885   5.084   3.552  1.0275 -0.2105 -0.8108
  248MOL0     O33369   4.853   4.985   3.651 -0.7946 -0.5495 -0.5663
  248MOL0     C33370   4.740   4.913   3.642  0.4474 -0.2905 -0.4660
  248MOL0     C33371   4.639   4.920   3.543  0.3485 -0.0409  0.1523
  248MOL0     C33372   4.550   4.811   3.525 -0.8851 -0.0858 -0.6403
  248MOL0     C33373   4.546   4.705   3.625  0.2091  0.0640 -0.0792
  248MOL0     C33374   4.433   4.611   3.629 -0.6174 -0.3357  1.0074
  248MOL0     O33375   4.342   4.618   3.537  0.1889  0.4861  0.3292
  248MOL0     C33376   4.239   4.532   3.529  1.4448  0.1981 -0.6378
  248MOL0     C33377   4.239   4.397   3.518  0.2475 -0.6134 -0.2765
  248MOL0     C33378   4.123   4.333   3.483 -0.1650  0.3815 -0.1489
  248MOL0     C33379   3.997   4.396   3.482  0.0633  0.1275 -0.1295
  248MOL0     O33380   3.892   4.317   3.451  0.3057  0.4517  0.6202
  248MOL0     C33381   3.755   4.362   3.477 -0.1113  0.5619  0.2625
  248MOL0     C33382   3.655   4.264   3.443 -0.2223 -0.6034  0.0430
  248MOL0     C33383   3.588   4.223   3.567 -0.8552  0.6279 -0.0533
  248MOL0     C33384   3.498   4.337   3.616  0.0939 -0.4277 -0.4389
  248MOL0     C33385   3.383   4.271   3.697  0.9899  0.6249 -0.3686
  248MOL0     C33386   3.312   4.391   3.769 -0.0369  0.8641  0.1389
  248MOL0     C33387   3.184   4.349   3.846 -0.2148  0.2718  0.4753
  248MOL0     C33388   3.073   4.452   3.832 -0.0061  0.0704 -0.5475
  248MOL0    Cl33389   3.089   4.612   3.911 -0.3140  0.3016 -0.0388
  248MOL0     C33390   3.992   4.538   3.512 -0.8780  0.3419  0.4438
  248MOL0     C33391   4.113   4.605   3.524 -0.1141  0.2141  0.0873
  248MOL0     O33392   4.445   4.520   3.715 -1.0870  0.0178  0.3703
  248MOL0     C33393   4.646   4.702   3.717 -0.1079 -0.5193 -0.8807
  248MOL0     C33394   4.743   4.807   3.729 -0.0439 -0.7415  0.7017
  248MOL0     N33395   5.109   5.521   3.784 -0.3226  0.2540 -0.0396
  248MOL0     N33396   5.135   5.564   3.904 -1.0830 -0.4365  0.2010
  248MOL0     C33397   4.710   6.320   3.636  1.0597  0.0663  0.4952
  248MOL0     C33398   4.692   6.403   3.525  0.3611  0.5926  0.4193
  248MOL0     C33399   4.669   6.792   3.337 -0.2397  0.6276 -0.2100
  248MOL0     C33400   4.558   6.818   3.270  0.0600  0.0032 -0.7682
  248MOL0     C33401   4.550   6.909   3.169 -0.5211 -0.6403  0.0548
  248MOL0     C33402   4.673   6.963   3.119  0.7816  0.3277 -0.3601
  248MOL0     O33403   4.683   7.049   3.020  0.6030 -0.2032  0.7863
  248MOL0     C33404   4.701   7.197   3.030  0.0188  1.4266  0.3715
  248MOL0     C33405   4.842   7.237   2.974 -0.6068 -0.3166 -0.2184
  248MOL0     C33406   4.858   7.237   2.812 -0.3862 -0.8794  0.1078
  248MOL0     C33407   4.872   7.091   2.776  0.1244 -0.3518 -0.1036
  248MOL0     C33408   4.944   7.074   2.651  0.1111 -0.0945 -0.9101
  248MOL0     C33409   4.993   7.047   2.543  0.5523  0.3928  0.0805
  248MOL0     C33410   4.793   6.932   3.190 -0.0916  0.2278  0.0620
  248MOL0     C33411   4.792   6.854   3.308  0.5067 -0.3853  0.0624
  248MOL0     C33412   4.919   6.820   3.376 -0.0847  0.2639  0.0592
  248MOL0     H33413   4.407   6.541   3.606 -1.4068 -1.8789  1.3128
  248MOL0     H33414   4.429   6.422   3.808 -0.9702  1.6988 -1.0200
  248MOL0     H33415   4.807   6.269   3.877  0.0188 -1.2249 -0.0843
  248MOL0     H33416   4.720   6.201   4.009 -1.0669  2.9805 -0.3601
  248MOL0     H33417   4.779   6.047   3.750 -3.4350 -2.5546 -0.2758
  248MOL0     H33418   4.714   5.982   3.902 -0.1256 -0.0923 -1.2564
  248MOL0     H33419   4.992   6.121   3.866 -0.6271  1.3190 -0.3543
  248MOL0     H33420   4.977   5.953   3.877 -0.6597 -0.0068 -0.8139
  248MOL0     H33421   4.939   6.159   4.090 -1.0514  0.5162 -1.6326
  248MOL0     H33422   4.849   6.003   4.115  0.8013  0.4845  1.2948
  248MOL0     H33423   5.157   6.027   4.068 -0.5156 -1.1709 -1.3600
  248MOL0     H33424   5.086   5.989   4.221  1.8670  1.2068 -0.0816
  248MOL0     H33425   5.106   5.808   3.976 -1.4318  0.3734 -0.6276
  248MOL0     H33426   5.174   5.781   4.135 -0.8051 -0.3561  1.8475
  248MOL0     H33427   4.876   5.771   4.068  0.1229  0.7415 -0.8834
  248MOL0     H33428   4.944   5.770   4.237  1.7933  0.2656  0.2786
  248MOL0     H33429   5.078   5.542   4.165 -1.3492 -0.8973  1.2304
  248MOL0     H33430   4.912   5.517   4.138  2.1318 -2.1236 -2.8839
  248MOL0     H33431   4.817   5.464   3.921  0.8690 -1.0312  0.9068
  248MOL0     H33432   4.902   5.475   3.575 -0.6053 -1.5457 -1.1242
  248MOL0     H33433   5.013   5.348   3.608  1.8738  1.8076 -0.9174
  248MOL0     H33434   4.832   5.244   3.764  0.5091 -1.3121 -0.4433
  248MOL0     H33435   4.725   5.354   3.684  1.0792 -0.1669  0.6814
  248MOL0     H33436   4.808   5.269   3.458  0.2852  1.9037  1.1174
  248MOL0     H33437   4.689   5.192   3.551 -0.5494  1.9275  1.3207
  248MOL0     H33438   4.988   5.117   3.569  1.0714 -0.9942  0.5972
  248MOL0     H33439   4.879   5.030   3.457 -1.5458  0.7564 -1.2877
  248MOL0     H33440   4.633   5.012   3.485  3.3851  0.2352  0.1576
  248MOL0     H33441   4.472   4.800   3.449 -0.0019 -2.0786 -1.3244
  248MOL0     H33442   4.335   4.347   3.527  0.6069 -0.0029 -0.6281
  248MOL0     H33443   4.113   4.225   3.486 -3.0489  0.5504  3.9892
  248MOL0     H33444   3.755   4.397   3.581 -0.6227  1.0047  0.1208
  248MOL0     H33445   3.727   4.452   3.422  0.8389 -0.7373 -2.5056
  248MOL0     H33446   3.588   4.311   3.371  0.9535  3.4116  1.2780
  248MOL0     H33447   3.724   4.183   3.418  1.7359  0.7133  0.8755
  248MOL0     H33448   3.529   4.131   3.565  1.4317 -0.9113  0.1344
  248MOL0     H33449   3.668   4.213   3.640 -0.3000 -0.6081 -0.7996
  248MOL0     H33450   3.446   4.388   3.534 -1.2519 -0.8519  0.1198
  248MOL0     H33451   3.550   4.415   3.672  3.4192 -1.5033 -1.7538
  248MOL0     H33452   3.419   4.197   3.768  0.4015  0.2554 -0.4469
  248MOL0     H33453   3.308   4.227   3.630 -1.8996  1.7023  1.9528
  248MOL0     H33454   3.382   4.443   3.835 -0.5053  2.5253 -0.6285
  248MOL0     H33455   3.279   4.470   3.701 -0.2696  1.7786  1.2887
  248MOL0     H33456   3.192   4.332   3.953  0.0466 -1.9251  0.1460
  248MOL0     H33457   3.144   4.254   3.809 -0.6741 -1.1563  4.2398
  248MOL0     H33458   3.065   4.478   3.727  0.4020  1.0399 -0.3524
  248MOL0     H33459   2.977   4.403   3.850 -1.4359  3.0179  0.5951
  248MOL0     H33460   3.897   4.589   3.525 -0.8148  0.3371  0.9099
  248MOL0     H33461   4.115   4.713   3.534 -0.8909  0.3561 -1.1264
  248MOL0     H33462   4.648   4.622   3.791  0.6810 -0.0071 -0.3256
  248MOL0     H33463   4.823   4.815   3.803  0.1535  2.9134  0.2592
  248MOL0     H33464   4.795   6.253   3.645 -0.5192 -1.8347  2.1382
  248MOL0     H33465   4.768   6.399   3.447  0.4330 -3.2252  0.4943
  248MOL0     H33466   4.468   6.767   3.303  0.4326 -0.8790 -1.0803
  248MOL0     H33467   4.458   6.927   3.113  0.6695 -0.5725 -1.9870
  248MOL0     H33468   4.693   7.221   3.137  3.7513 -1.4938  1.5310
  248MOL0     H33469   4.623   7.249   2.975 -1.7135  2.8243  3.8566
  248MOL0     H33470   4.918   7.182   3.031 -1.0160 -2.0134 -1.2350
  248MOL0     H33471   4.851   7.344   2.993 -3.4057  0.0304 -0.3597
  248MOL0     H33472   4.948   7.293   2.786 -1.4020  0.5824 -0.3763
  248MOL0     H33473   4.769   7.288   2.774  1.2300  1.9679 -0.1247
  248MOL0     H33474   4.931   7.034   2.848 -0.7942  0.9688  1.7986
  248MOL0     H33475   4.774   7.043   2.780  0.3381 -0.6945  2.2084
  248MOL0     H33476   5.024   7.022   2.443 -1.4738  0.3046 -0.5871
  248MOL0     H33477   4.887   6.969   3.150  1.6410 -4.1687 -0.4821
  248MOL0     H33478   4.906   6.722   3.422  0.1896 -0.0452 -0.5195
  248MOL0     H33479   4.999   6.814   3.303  0.8564  0.8176  1.0078
  248MOL0     H33480   4.952   6.892   3.452  2.1978 -1.5159  0.8534
  249MOL0     O33481   4.553   9.619   7.502  0.3641 -0.1955 -0.2063
  249MOL0     C33482   4.441   9.657   7.494  1.0884  0.6064 -0.2996
  249MOL0     O33483   4.333   9.585   7.439 -0.1313 -0.1018  0.3278
  249MOL0     C33484   4.363   9.458   7.402 -0.2139 -0.2264 -0.6245
  249MOL0     C33485   4.397   9.426   7.271  0.1147  0.3955 -0.8906
  249MOL0     C33486   4.417   9.285   7.241 -0.3790  0.0653  0.1646
  249MOL0     C33487   4.412   9.186   7.330  0.1157  0.2388 -0.2737
  249MOL0     O33488   4.423   9.055   7.283  0.2843  0.2517 -0.7168
  249MOL0     C33489   4.416   8.962   7.389  0.1964  0.3287 -0.0450
  249MOL0     C33490   4.436   8.827   7.322 -0.8512  0.2080 -0.7430
  249MOL0     C33491   4.470   8.724   7.435 -0.5801 -0.1633  0.2168
  249MOL0     C33492   4.473   8.583   7.366  0.0899 -0.8802  1.0142
  249MOL0     C33493   4.510   8.483   7.469 -0.7131  0.6409  0.6023
  249MOL0     C33494   4.653   8.495   7.527 -0.6875 -0.1368  0.3986
  249MOL0     C33495   4.737   8.380   7.487 -0.1374  0.4220 -0.1299
  249MOL0     C33496   4.796   8.408   7.349  0.7945  0.4537 -0.2104
  249MOL0     N33497   4.895   8.520   7.345  0.6317 -0.4835 -0.0387
  249MOL0     C33498   5.021   8.541   7.408 -0.0977 -0.4465  0.0707
  249MOL0     C33499   5.075   8.652   7.341  0.6329  0.8508 -0.0433
  249MOL0     C33500   5.193   8.745   7.357  0.3160  0.4589  0.3460
  249MOL0     C33501   5.183   8.826   7.487  0.5653  1.3742  0.3342
  249MOL0     C33502   5.302   8.922   7.504 -0.0901 -0.0934 -0.3185
  249MOL0     C33503   5.447   8.867   7.511 -0.5346 -0.2763 -0.3177
  249MOL0     O33504   5.528   8.971   7.568  0.4923 -0.2094  0.6310
  249MOL0     C33505   5.666   8.977   7.540  0.4667 -0.0383  0.6505
  249MOL0     C33506   5.734   8.869   7.490  0.2991  0.1077 -0.8389
  249MOL0     C33507   5.872   8.868   7.458  0.2238 -0.0200 -0.3862
  249MOL0     C33508   5.949   8.985   7.491 -0.3119 -0.5615 -0.4582
  249MOL0     C33509   6.084   8.991   7.454 -0.1151  0.4304  0.5391
  249MOL0     O33510   6.155   8.870   7.459 -0.6423  0.8129 -0.2743
  249MOL0     C33511   6.290   8.857   7.435  0.5778  0.2401 -0.0183
  249MOL0     C33512   6.384   8.957   7.453 -0.8592 -0.2291 -0.0962
  249MOL0     C33513   6.521   8.932   7.446  0.6888 -0.3710  0.1009
  249MOL0     C33514   6.562   8.805   7.405 -0.6112  0.2061  0.3966
  249MOL0     O33515   6.695   8.780   7.403  0.2793  0.7104 -0.0614
  249MOL0     C33516   6.736   8.648   7.424 -0.0899  1.8876  0.1661
  249MOL0     C33517   6.888   8.641   7.426 -0.7847 -0.3396 -0.6580
  249MOL0     C33518   6.950   8.516   7.474  0.6694  0.1866 -0.1999
  249MOL0     C33519   7.095   8.542   7.513  0.8507  0.0168  1.0151
  249MOL0     C33520   7.160   8.421   7.580 -0.0527  0.0551  0.3252
  249MOL0     C33521   7.082   8.361   7.705 -0.4128  0.8853  0.2779
  249MOL0     C33522   7.163   8.264   7.791 -0.4660 -0.1538 -0.3442
  249MOL0     C33523   7.079   8.187   7.889 -0.2688  0.5790  0.2584
  249MOL0    Cl33524   7.182   8.083   7.975 -0.3016  0.4267  0.3959
  249MOL0     C33525   6.465   8.705   7.380 -0.0802 -0.7750 -0.9178
  249MOL0     C33526   6.335   8.723   7.409  0.8066 -0.7989 -0.2505
  249MOL0     O33527   6.127   9.098   7.417 -0.0762  0.0053 -0.0857
  249MOL0     C33528   5.874   9.092   7.551 -0.5986 -0.1124 -0.7132
  249MOL0     C33529   5.741   9.086   7.573  0.4133 -0.7558 -0.2443
  249MOL0     N33530   4.974   8.692   7.268  0.1576  0.0088  0.6944
  249MOL0     N33531   4.873   8.622   7.264 -0.4489 -0.0325  0.0244
  249MOL0     C33532   4.390   9.229   7.464  0.7108  0.5613  0.7194
  249MOL0     C33533   4.364   9.357   7.504 -0.7329 -0.2469 -0.4369
  249MOL0     C33534   4.424   9.799   7.537 -1.1074  0.5081 -0.2611
  249MOL0     C33535   4.292   9.864   7.531 -0.5852  0.6167  0.3120
  249MOL0     C33536   4.266   9.990   7.573 -0.0131 -0.1717  0.2390
  249MOL0     C33537   4.375  10.068   7.610  0.0818 -0.9471 -0.1527
  249MOL0     O33538   4.361  10.200   7.641 -1.0252  0.1610 -0.3060
  249MOL0     C33539   4.364  10.279   7.528  0.1279 -0.0003  0.1004
  249MOL0     C33540   4.516  10.290   7.480  0.1490  0.6287 -1.0175
  249MOL0     C33541   4.595  10.350   7.589  0.6801 -0.4941 -1.1618
  249MOL0     C33542   4.738  10.365   7.549  1.1381  0.4763  1.3189
  249MOL0     C33543   4.811  10.248   7.514  0.3939 -0.0517  0.5400
  249MOL0     C33544   4.860  10.142   7.492 -0.0699  0.0379 -0.0121
  249MOL0     C33545   4.507  10.011   7.626  0.1581  0.2845  0.6817
  249MOL0     C33546   4.533   9.877   7.591 -0.5118 -0.1829 -0.0658
  249MOL0     C33547   4.679   9.837   7.606  1.5099  0.0327  1.3213
  249MOL0     H33548   4.401   9.503   7.195  0.4859 -1.2214 -2.5876
  249MOL0     H33549   4.443   9.269   7.136 -0.6687 -0.5204  0.1796
  249MOL0     H33550   4.503   8.980   7.453  0.7277  3.3682 -1.4091
  249MOL0     H33551   4.323   8.964   7.448  0.9145 -0.0921  1.1354
  249MOL0     H33552   4.524   8.836   7.258 -0.0848  3.3138  0.5341
  249MOL0     H33553   4.347   8.799   7.264 -1.5783 -1.0419  0.8847
  249MOL0     H33554   4.393   8.729   7.513 -0.6957  0.9903  0.0525
  249MOL0     H33555   4.560   8.757   7.487 -1.1895  2.5090 -0.2483
  249MOL0     H33556   4.378   8.546   7.327  0.1658 -0.0566  0.0180
  249MOL0     H33557   4.539   8.587   7.279 -1.4370  1.6599 -0.1619
  249MOL0     H33558   4.432   8.477   7.546 -1.6735 -0.9991 -0.4228
  249MOL0     H33559   4.491   8.381   7.434 -2.6894  0.6659  1.4583
  249MOL0     H33560   4.708   8.580   7.487 -2.0133  0.6239  0.1342
  249MOL0     H33561   4.656   8.499   7.637 -1.7609  1.7750  0.4114
  249MOL0     H33562   4.701   8.282   7.518  2.2012  0.6097  3.8943
  249MOL0     H33563   4.829   8.380   7.547 -2.0946  1.6611  3.1188
  249MOL0     H33564   4.832   8.320   7.295 -2.4896 -0.3092 -1.3528
  249MOL0     H33565   4.709   8.444   7.294 -2.0303 -0.9149  2.9738
  249MOL0     H33566   5.061   8.478   7.487  0.6761 -3.5030 -2.5489
  249MOL0     H33567   5.284   8.685   7.362  0.3409  0.4897  0.2395
  249MOL0     H33568   5.187   8.811   7.271  0.4065 -2.1868 -1.8144
  249MOL0     H33569   5.096   8.892   7.488  1.0476  2.0670  2.7424
  249MOL0     H33570   5.179   8.772   7.582  3.7590 -1.2331 -0.8335
  249MOL0     H33571   5.286   8.979   7.596  1.7869  2.2077 -1.3083
  249MOL0     H33572   5.298   8.991   7.419 -1.2531  1.8830  1.2537
  249MOL0     H33573   5.479   8.819   7.418  2.1956  0.3257  0.2327
  249MOL0     H33574   5.452   8.777   7.572  4.4886  0.5094  0.8944
  249MOL0     H33575   5.682   8.779   7.460  1.3825 -0.6210 -0.5975
  249MOL0     H33576   5.922   8.784   7.412 -1.8090  0.2774 -3.3887
  249MOL0     H33577   6.344   9.057   7.471  1.0491  0.6603 -0.5671
  249MOL0     H33578   6.592   9.013   7.461 -1.5237  2.1360 -1.9146
  249MOL0     H33579   6.687   8.617   7.517 -4.0718  0.8478 -2.0405
  249MOL0     H33580   6.701   8.575   7.350 -0.0181  2.5097 -0.4965
  249MOL0     H33581   6.931   8.658   7.327  0.3797 -1.3376 -0.3453
  249MOL0     H33582   6.924   8.711   7.502 -0.0700 -2.6010  1.2085
  249MOL0     H33583   6.890   8.489   7.562 -0.3681  0.1504 -0.9063
  249MOL0     H33584   6.934   8.433   7.405 -2.4027  0.7072 -0.2492
  249MOL0     H33585   7.115   8.626   7.580 -2.4421  1.5648  0.2254
  249MOL0     H33586   7.142   8.557   7.416 -0.4508 -1.7777  0.0496
  249MOL0     H33587   7.261   8.448   7.613 -0.2234 -0.5906  1.4119
  249MOL0     H33588   7.168   8.340   7.508 -1.6195  1.2623 -1.2897
  249MOL0     H33589   7.063   8.445   7.772  0.4454  2.1626 -1.0164
  249MOL0     H33590   6.992   8.306   7.673 -0.0597 -0.6137  1.7152
  249MOL0     H33591   7.229   8.326   7.853  0.0471 -1.3846  0.3647
  249MOL0     H33592   7.216   8.189   7.733  2.4584  1.6131 -0.1864
  249MOL0     H33593   7.028   8.249   7.963  1.0880  1.2616  0.6485
  249MOL0     H33594   7.002   8.136   7.830 -1.2053  1.2698  0.8632
  249MOL0     H33595   6.506   8.610   7.346  3.6137  0.6169 -0.8591
  249MOL0     H33596   6.262   8.643   7.400 -2.7326  2.1530 -0.1139
  249MOL0     H33597   5.938   9.178   7.567  0.6014 -0.9606 -0.7902
  249MOL0     H33598   5.684   9.172   7.606  2.4110  0.7272 -0.4759
  249MOL0     H33599   4.374   9.160   7.547  2.1662  0.2370  0.7493
  249MOL0     H33600   4.345   9.397   7.604  0.2172 -0.1796 -0.2762
  249MOL0     H33601   4.202   9.815   7.494  0.8132 -1.8574 -0.0327
  249MOL0     H33602   4.173  10.043   7.559  0.3628 -0.1235 -2.9013
  249MOL0     H33603   4.330  10.379   7.555  0.5121  0.6318 -1.6270
  249MOL0     H33604   4.302  10.250   7.443  1.6582  0.9560 -1.4034
  249MOL0     H33605   4.521  10.348   7.387 -2.1391  0.9259 -1.0127
  249MOL0     H33606   4.567  10.195   7.463 -1.3283 -0.0881 -1.5929
  249MOL0     H33607   4.590  10.301   7.686 -0.7043  2.8636  0.6543
  249MOL0     H33608   4.551  10.448   7.611 -0.2426 -1.2984  0.8288
  249MOL0     H33609   4.747  10.422   7.456 -0.2207 -0.5783  0.5010
  249MOL0     H33610   4.793  10.425   7.622 -1.2569  5.8852 -0.7702
  249MOL0     H33611   4.897  10.050   7.451 -1.9299 -0.4355 -0.7658
  249MOL0     H33612   4.579  10.083   7.664 -0.6384  1.5383 -0.0885
  249MOL0     H33613   4.735   9.913   7.663  1.6810  0.3983  0.6726
  249MOL0     H33614   4.678   9.742   7.660  3.4135 -0.9378 -0.2240
  249MOL0     H33615   4.731   9.830   7.510 -1.3913 -2.7612 -0.1986
  250MOL0     O33616   2.363   1.556   0.420  0.6415 -0.4267  0.1160
  250MOL0     C33617   2.441   1.642   0.442 -0.6885  0.0261 -0.4169
  250MOL0     O33618   2.413   1.763   0.503  0.1776  0.4265  0.0558
  250MOL0     C33619   2.289   1.813   0.547 -0.0985  0.5541  0.4528
  250MOL0     C33620   2.169   1.758   0.511 -1.4324  0.9621  0.0088
  250MOL0     C33621   2.053   1.795   0.561 -0.1427  0.3040  0.1155
  250MOL0     C33622   2.045   1.910   0.638  0.0967 -0.3624  0.0812
  250MOL0     O33623   1.919   1.948   0.692  0.1208  0.4012  0.6882
  250MOL0     C33624   1.880   2.082   0.709 -0.9566 -0.6211  0.1010
  250MOL0     C33625   1.738   2.088   0.780  0.3249  0.7994 -0.0982
  250MOL0     C33626   1.746   2.033   0.920  0.8676 -0.3210  0.1305
  250MOL0     C33627   1.766   2.147   1.022 -0.4950  0.4585 -0.4410
  250MOL0     C33628   1.769   2.093   1.170 -0.0967 -0.3046  0.9078
  250MOL0     C33629   1.659   1.993   1.207  0.2323 -0.6629  0.5508
  250MOL0     C33630   1.679   1.927   1.341  0.9768  0.6375  0.4357
  250MOL0     C33631   1.562   1.841   1.398  0.0253 -0.6687  0.8237
  250MOL0     N33632   1.451   1.931   1.425 -0.8370  0.2435 -0.1495
  250MOL0     C33633   1.448   2.018   1.534  0.3050 -0.3091 -0.1215
  250MOL0     C33634   1.318   2.051   1.554 -0.6029  0.0554  1.0287
  250MOL0     C33635   1.247   2.138   1.663 -0.6539 -0.2572  0.3685
  250MOL0     C33636   1.232   2.061   1.792  0.1857  0.6243 -1.0702
  250MOL0     C33637   1.205   2.151   1.916  0.2326  0.1273 -0.5673
  250MOL0     C33638   1.332   2.183   1.998  0.5051 -1.2788  0.1534
  250MOL0     O33639   1.396   2.073   2.062  0.4632  0.1280 -0.5323
  250MOL0     C33640   1.512   2.099   2.135  0.2475  0.3321 -0.0027
  250MOL0     C33641   1.573   1.989   2.199 -0.0645  0.1179 -0.2689
  250MOL0     C33642   1.679   2.002   2.278 -0.4649 -0.5387  0.9204
  250MOL0     C33643   1.751   2.121   2.280 -0.1505  0.0716 -0.4115
  250MOL0     C33644   1.886   2.128   2.342 -0.6180  0.6770  0.1846
  250MOL0     O33645   1.938   2.027   2.408 -0.5991  0.5802  0.4064
  250MOL0     C33646   2.054   2.035   2.478 -0.2533  0.2470 -0.2298
  250MOL0     C33647   2.058   1.953   2.592  0.6564  0.6134 -0.0476
  250MOL0     C33648   2.171   1.940   2.669 -0.2985 -0.3112  0.1563
  250MOL0     C33649   2.293   2.003   2.634  0.6709  0.3369 -0.7409
  250MOL0     O33650   2.397   1.995   2.722  0.4588 -0.2174  0.3347
  250MOL0     C33651   2.530   1.959   2.673 -0.7815  0.5307 -0.7342
  250MOL0     C33652   2.625   2.040   2.770 -0.7837 -0.5139  0.3735
  250MOL0     C33653   2.608   2.194   2.767  0.4046  0.1410 -0.1207
  250MOL0     C33654   2.691   2.277   2.868 -0.1850  0.0446 -0.7837
  250MOL0     C33655   2.838   2.247   2.865 -0.5222  0.4045 -0.4073
  250MOL0     C33656   2.888   2.134   2.957  0.5952  0.9036  0.1303
  250MOL0     C33657   3.039   2.148   2.980 -0.3464  0.1982 -0.8787
  250MOL0     C33658   3.127   2.033   3.030 -0.1434 -0.1998  0.4729
  250MOL0    Cl33659   3.044   1.953   3.162  0.1267 -0.4892  0.0376
  250MOL0     C33660   2.291   2.090   2.526 -0.6372  0.4091  0.3833
  250MOL0     C33661   2.177   2.086   2.443 -0.1025  0.7986 -0.7645
  250MOL0     O33662   1.936   2.242   2.330  0.5142 -0.2024  0.5736
  250MOL0     C33663   1.692   2.231   2.224  0.4405 -0.2902  0.3750
  250MOL0     C33664   1.570   2.224   2.145 -0.4376  0.3339 -0.1916
  250MOL0     N33665   1.244   1.961   1.463 -0.9013 -0.3307 -0.2282
  250MOL0     N33666   1.323   1.908   1.389  0.6160  0.0009 -0.2654
  250MOL0     C33667   2.166   1.972   0.664 -0.6250 -0.5926  0.8950
  250MOL0     C33668   2.286   1.922   0.620 -0.0500  0.3644  0.1758
  250MOL0     C33669   2.580   1.644   0.388 -0.6352 -0.8021 -1.0256
  250MOL0     C33670   2.641   1.768   0.366 -0.7444 -0.6505 -0.1815
  250MOL0     C33671   2.769   1.786   0.340 -0.3355 -0.2602 -0.1054
  250MOL0     C33672   2.860   1.681   0.319 -0.0164 -0.1727  0.2275
  250MOL0     O33673   2.992   1.690   0.293 -0.6686  0.6913  0.0826
  250MOL0     C33674   3.065   1.795   0.358 -1.1287  0.0112  0.1880
  250MOL0     C33675   3.216   1.741   0.350  0.0473  0.2401  0.4634
  250MOL0     C33676   3.242   1.599   0.407  0.0672 -0.1376  0.5046
  250MOL0     C33677   3.364   1.599   0.502 -0.1643 -0.2051 -0.4582
  250MOL0     C33678   3.485   1.639   0.432 -0.0116  0.4468 -1.1071
  250MOL0     C33679   3.596   1.645   0.402 -0.1084  0.1608  0.3185
  250MOL0     C33680   2.799   1.552   0.339 -0.1729 -0.8128  0.2291
  250MOL0     C33681   2.666   1.529   0.372  0.9657 -0.4541 -0.0763
  250MOL0     C33682   2.625   1.390   0.409  0.3247  0.0511 -0.3074
  250MOL0     H33683   2.170   1.670   0.447 -1.7043 -0.1119  1.4416
  250MOL0     H33684   1.962   1.741   0.538 -2.3678  4.3185 -1.6450
  250MOL0     H33685   1.946   2.146   0.769 -2.2451  1.0598 -0.1732
  250MOL0     H33686   1.878   2.141   0.616  0.7559 -3.5814 -1.9834
  250MOL0     H33687   1.676   2.022   0.717 -0.8308  0.6883  1.1154
  250MOL0     H33688   1.699   2.190   0.783 -0.1879  0.6282 -0.5562
  250MOL0     H33689   1.826   1.960   0.934  1.1639 -0.5102 -2.1438
  250MOL0     H33690   1.650   1.981   0.926  0.9737 -0.3479  2.5243
  250MOL0     H33691   1.849   2.215   1.000  1.6742 -1.1629  1.9626
  250MOL0     H33692   1.674   2.205   1.030  0.2111  1.3862  1.7399
  250MOL0     H33693   1.864   2.040   1.181  1.0276  1.4625  0.1907
  250MOL0     H33694   1.756   2.178   1.237 -0.8444 -0.2620  0.7117
  250MOL0     H33695   1.559   2.037   1.209  0.6013  0.2104  2.8251
  250MOL0     H33696   1.658   1.922   1.124  1.3694  0.3214 -0.3416
  250MOL0     H33697   1.695   2.012   1.408  1.9029 -0.8416  2.1878
  250MOL0     H33698   1.761   1.854   1.343 -1.4325 -2.3126 -0.1484
  250MOL0     H33699   1.532   1.761   1.329 -3.7947  2.7685 -2.0527
  250MOL0     H33700   1.581   1.790   1.492 -0.6792  0.0332  1.3603
  250MOL0     H33701   1.532   2.058   1.588 -0.5144  2.7816 -0.9611
  250MOL0     H33702   1.314   2.221   1.688 -0.3709 -1.2248  3.1327
  250MOL0     H33703   1.149   2.166   1.623 -0.8864 -3.3385 -1.5256
  250MOL0     H33704   1.148   1.991   1.801  2.2116 -1.7729  0.6532
  250MOL0     H33705   1.323   2.004   1.809  0.8402  2.5988  3.4743
  250MOL0     H33706   1.151   2.084   1.984 -2.9484  1.2060 -1.8056
  250MOL0     H33707   1.143   2.238   1.888 -1.8044 -1.2764 -0.6556
  250MOL0     H33708   1.307   2.265   2.066  1.0419  0.0757 -1.2282
  250MOL0     H33709   1.405   2.221   1.925  3.1313 -1.3058  2.6045
  250MOL0     H33710   1.523   1.895   2.185 -0.8411  0.0021  2.6317
  250MOL0     H33711   1.715   1.910   2.323 -3.1158 -1.5618  1.1156
  250MOL0     H33712   1.984   1.877   2.617  1.3864 -1.0701 -2.6393
  250MOL0     H33713   2.171   1.871   2.753  0.6509  1.7693  1.9671
  250MOL0     H33714   2.556   1.853   2.687  0.4781  1.0000  0.8254
  250MOL0     H33715   2.549   1.983   2.568  0.5937 -0.8546 -0.8464
  250MOL0     H33716   2.640   1.995   2.868  2.9080 -0.2618  0.0679
  250MOL0     H33717   2.721   2.021   2.720  1.7334  1.1031  4.1582
  250MOL0     H33718   2.619   2.224   2.662 -1.8989 -1.1447 -0.8129
  250MOL0     H33719   2.504   2.217   2.790  0.5717 -0.1513  1.0107
  250MOL0     H33720   2.646   2.258   2.966  1.5034 -0.7343 -0.1137
  250MOL0     H33721   2.681   2.383   2.844 -0.7353 -0.2060 -1.7302
  250MOL0     H33722   2.889   2.339   2.892  1.9194 -0.5048 -1.6084
  250MOL0     H33723   2.877   2.241   2.763 -0.2787  1.0408 -0.3575
  250MOL0     H33724   2.841   2.136   3.056 -0.6287 -1.5838 -0.3220
  250MOL0     H33725   2.872   2.034   2.914  0.8309 -2.1860  6.1693
  250MOL0     H33726   3.050   2.237   3.042 -0.8839 -0.9774  0.9770
  250MOL0     H33727   3.079   2.172   2.881  0.5525  0.8301 -0.3773
  250MOL0     H33728   3.141   1.958   2.951 -2.7581 -0.7875  0.4448
  250MOL0     H33729   3.228   2.069   3.050  1.5981 -4.0233 -0.4568
  250MOL0     H33730   2.382   2.135   2.489 -0.6686 -1.4877 -2.3040
  250MOL0     H33731   2.163   2.122   2.341 -0.3966  1.2236 -0.5761
  250MOL0     H33732   1.727   2.334   2.225  0.0519 -0.1391 -0.3147
  250MOL0     H33733   1.529   2.319   2.112  0.0169  1.0390  1.2018
  250MOL0     H33734   2.155   2.052   0.737  1.8940  1.1478 -0.4571
  250MOL0     H33735   2.379   1.967   0.652 -0.1931 -0.9787  2.7101
  250MOL0     H33736   2.572   1.851   0.380 -1.4695 -1.3393  0.3934
  250MOL0     H33737   2.823   1.880   0.333 -1.1378  0.2430  0.3784
  250MOL0     H33738   3.028   1.805   0.461  0.3991 -2.1719  1.0299
  250MOL0     H33739   3.055   1.890   0.305  1.9116 -0.7374 -2.0382
  250MOL0     H33740   3.262   1.814   0.418 -1.6660  1.2702  0.5600
  250MOL0     H33741   3.259   1.757   0.251  1.9279  1.0523  1.3509
  250MOL0     H33742   3.264   1.529   0.327 -0.2856 -1.0948  1.2304
  250MOL0     H33743   3.155   1.559   0.459 -0.7723 -2.2550 -2.3376
  250MOL0     H33744   3.337   1.664   0.586 -0.4701  0.7354 -1.2726
  250MOL0     H33745   3.374   1.495   0.537  0.4608  0.2783  0.8713
  250MOL0     H33746   3.696   1.646   0.362 -0.8503  0.0240 -1.6935
  250MOL0     H33747   2.853   1.458   0.350 -0.9564 -2.2688 -5.2931
  250MOL0     H33748   2.634   1.326   0.320  3.3387 -0.3444  0.1915
  250MOL0     H33749   2.693   1.354   0.487  2.4352  5.4031  0.7080
  250MOL0     H33750   2.527   1.379   0.458  0.2345 -0.9000 -0.6722
  251MOL0     O33751  10.730   5.083   7.028  0.1034 -0.6973 -0.1958
  251MOL0     C33752  10.774   5.135   7.129  0.4287 -0.2140 -0.2189
  251MOL0     O33753  10.711   5.233   7.200 -0.1102  0.3717 -0.3518
  251MOL0     C33754  10.600   5.298   7.158 -0.0709 -0.3039  0.2496
  251MOL0     C33755  10.539   5.294   7.027 -0.9577  0.1130 -0.8829
  251MOL0     C33756  10.424   5.371   7.000 -0.4844 -1.1212  0.1486
  251MOL0     C33757  10.367   5.456   7.092 -0.1816 -0.9548 -0.4950
  251MOL0     O33758  10.254   5.532   7.079 -0.1113  0.1892 -0.1399
  251MOL0     C33759  10.258   5.604   6.958  0.8079 -0.1876 -0.2642
  251MOL0     C33760  10.149   5.715   6.956 -0.2154 -0.0342  0.8163
  251MOL0     C33761  10.176   5.814   6.850  0.7457  0.4910 -0.3168
  251MOL0     C33762  10.080   5.936   6.832 -0.0528 -0.2185 -0.1092
  251MOL0     C33763  10.121   6.038   6.738  0.0829  0.4585  0.1149
  251MOL0     C33764  10.030   6.162   6.745 -0.4619  0.5028  0.8766
  251MOL0     C33765  10.042   6.254   6.615  0.7466 -0.4573  0.6722
  251MOL0     C33766  10.178   6.338   6.631  0.4579 -0.9272 -0.1967
  251MOL0     N33767  10.180   6.440   6.526 -0.6001 -0.5366 -0.3558
  251MOL0     C33768  10.101   6.546   6.519  0.0757 -0.4893 -0.3908
  251MOL0     C33769  10.125   6.609   6.396  0.4024  0.5922  0.1078
  251MOL0     C33770  10.075   6.729   6.334  0.9565 -0.3354 -0.6119
  251MOL0     C33771  10.084   6.714   6.180 -0.2083 -0.7544  0.1812
  251MOL0     C33772   9.995   6.827   6.124 -0.5356 -0.4566 -0.0618
  251MOL0     C33773  10.010   6.861   5.972  0.6833 -0.4552  0.1375
  251MOL0     O33774  10.149   6.857   5.928 -0.4343 -1.3429  0.0456
  251MOL0     C33775  10.167   6.952   5.830  0.1806 -0.1732 -0.0498
  251MOL0     C33776  10.226   7.075   5.874 -1.2064  0.1890  1.2832
  251MOL0     C33777  10.233   7.190   5.793 -0.3607 -0.3233 -0.5006
  251MOL0     C33778  10.195   7.178   5.663  0.4318 -0.3422 -0.1994
  251MOL0     C33779  10.224   7.291   5.563  0.2239 -0.0642 -1.4956
  251MOL0     O33780  10.311   7.394   5.608  1.4591  0.3286 -0.1682
  251MOL0     C33781  10.323   7.502   5.529 -0.6469  0.1958  0.2189
  251MOL0     C33782  10.223   7.593   5.499 -0.2380  0.3637  0.2777
  251MOL0     C33783  10.263   7.710   5.426  0.5836  0.2789  0.8320
  251MOL0     C33784  10.401   7.743   5.409  0.0521  1.1316 -1.1720
  251MOL0     O33785  10.444   7.866   5.366  1.1378  0.0407 -0.4643
  251MOL0     C33786  10.382   7.976   5.434 -0.3501  0.3839 -0.3501
  251MOL0     C33787  10.324   8.065   5.324 -0.5789 -0.0503 -0.6001
  251MOL0     C33788  10.268   8.198   5.368  0.2128 -0.3191  0.5972
  251MOL0     C33789  10.298   8.314   5.278  0.3125 -0.1253  0.3391
  251MOL0     C33790  10.236   8.442   5.330 -0.5307  0.5926 -0.2998
  251MOL0     C33791  10.236   8.555   5.227  0.8443 -0.5013  0.5086
  251MOL0     C33792  10.381   8.615   5.214  0.4129  0.6742 -0.2135
  251MOL0     C33793  10.398   8.696   5.077  0.4012 -0.5114  0.8979
  251MOL0    Cl33794  10.372   8.580   4.940 -0.1460 -0.0924 -0.0899
  251MOL0     C33795  10.495   7.637   5.435  0.5793 -0.1241 -0.2335
  251MOL0     C33796  10.452   7.520   5.482  0.4916  0.3540  0.0803
  251MOL0     O33797  10.172   7.289   5.456 -0.4314  0.6670  0.0981
  251MOL0     C33798  10.148   7.059   5.611 -0.7124  1.0717 -0.0142
  251MOL0     C33799  10.132   6.947   5.697  0.5719  0.3310  1.1120
  251MOL0     N33800  10.222   6.532   6.336 -0.3020  0.3332 -0.3629
  251MOL0     N33801  10.262   6.440   6.415  0.9914  0.0637 -0.4863
  251MOL0     C33802  10.429   5.458   7.214  0.6523 -0.6236 -0.3652
  251MOL0     C33803  10.533   5.375   7.249 -0.4641  0.4101 -0.2972
  251MOL0     C33804  10.909   5.101   7.175  0.8209  0.1552  0.0532
  251MOL0     C33805  10.984   5.194   7.247  0.3338  0.6329 -0.2423
  251MOL0     C33806  11.118   5.170   7.286 -0.1072 -0.5983 -0.5981
  251MOL0     C33807  11.179   5.056   7.257  0.7151  0.6745 -0.3825
  251MOL0     O33808  11.301   5.039   7.307  0.3733  0.1351 -0.5454
  251MOL0     C33809  11.331   4.918   7.374 -0.4017  0.1086  0.9704
  251MOL0     C33810  11.259   4.893   7.512 -0.1849 -0.3025 -0.1759
  251MOL0     C33811  11.117   4.837   7.502 -0.2932 -0.6355 -0.1086
  251MOL0     C33812  11.057   4.803   7.638  0.3097 -1.5116 -0.6445
  251MOL0     C33813  11.092   4.656   7.674  0.1162 -0.1232 -0.1815
  251MOL0     C33814  11.112   4.540   7.694 -0.0560 -0.0547  0.5447
  251MOL0     C33815  11.108   4.956   7.194 -0.2067 -1.1534 -0.4952
  251MOL0     C33816  10.977   4.980   7.147 -0.3075  0.0241 -0.2638
  251MOL0     C33817  10.903   4.873   7.063 -0.4847 -0.5453  0.1358
  251MOL0     H33818  10.572   5.234   6.944 -1.8959 -0.1421 -1.0885
  251MOL0     H33819  10.388   5.380   6.898  0.5510  0.9958 -0.1026
  251MOL0     H33820  10.354   5.652   6.938  0.5039  0.5374 -0.0272
  251MOL0     H33821  10.235   5.534   6.877 -1.3765  0.9603 -0.7071
  251MOL0     H33822  10.141   5.773   7.049  1.8524  3.1113 -0.8015
  251MOL0     H33823  10.051   5.678   6.925 -2.2052  5.2152 -0.1682
  251MOL0     H33824  10.171   5.773   6.749 -3.9022 -1.9833  0.6121
  251MOL0     H33825  10.272   5.858   6.879  1.1886  0.0336 -1.0828
  251MOL0     H33826   9.984   5.900   6.796  0.3435  1.0045 -2.5848
  251MOL0     H33827  10.066   5.989   6.927 -1.8555 -0.7624 -0.0397
  251MOL0     H33828  10.222   6.077   6.756  0.0665 -0.4392  2.6247
  251MOL0     H33829  10.123   5.997   6.637 -2.0077 -1.2523  0.7143
  251MOL0     H33830   9.925   6.130   6.746 -0.3003 -0.1663 -0.9287
  251MOL0     H33831  10.053   6.217   6.837 -1.2232  0.3086  1.1953
  251MOL0     H33832   9.959   6.324   6.607  3.5962  3.1080 -0.3870
  251MOL0     H33833  10.043   6.195   6.523 -0.3565  3.4269 -2.0744
  251MOL0     H33834  10.191   6.386   6.728 -1.4788  0.2802 -0.4725
  251MOL0     H33835  10.261   6.270   6.608 -1.7627 -3.3065 -1.8103
  251MOL0     H33836  10.012   6.572   6.577 -2.7647  0.1141 -4.5419
  251MOL0     H33837   9.969   6.727   6.358  1.2926 -1.8956  0.9523
  251MOL0     H33838  10.128   6.817   6.371  0.3055  0.2684 -1.0785
  251MOL0     H33839  10.186   6.737   6.149 -0.3300 -0.4529 -0.0063
  251MOL0     H33840  10.056   6.616   6.140  0.7736 -0.3516 -1.6019
  251MOL0     H33841  10.034   6.914   6.178 -1.0921  0.6105 -1.3196
  251MOL0     H33842   9.890   6.820   6.153 -0.9398 -2.0240 -1.7275
  251MOL0     H33843   9.968   6.961   5.959  0.2016 -0.5067  1.2455
  251MOL0     H33844   9.950   6.790   5.914 -0.6159  1.2755 -0.7230
  251MOL0     H33845  10.261   7.097   5.974 -2.1976  4.1853  0.9539
  251MOL0     H33846  10.277   7.283   5.829  0.2735 -0.3786 -1.1106
  251MOL0     H33847  10.124   7.565   5.535 -0.8260 -1.0916 -2.1777
  251MOL0     H33848  10.183   7.771   5.388  3.7287  2.8253 -2.3919
  251MOL0     H33849  10.311   7.948   5.511  1.4021  1.0307  1.5947
  251MOL0     H33850  10.460   8.029   5.489 -0.4487  0.1471  0.0166
  251MOL0     H33851  10.406   8.073   5.253  2.2356  0.0712  2.4447
  251MOL0     H33852  10.242   8.005   5.283 -0.6427  0.5062 -1.3035
  251MOL0     H33853  10.163   8.174   5.387  0.2672  0.4432  1.9699
  251MOL0     H33854  10.299   8.224   5.469  2.3087  2.3812 -0.5908
  251MOL0     H33855  10.269   8.289   5.175  2.3578  4.1649 -1.5291
  251MOL0     H33856  10.406   8.327   5.275  0.5786 -1.2970 -4.7785
  251MOL0     H33857  10.294   8.466   5.420 -1.2449 -1.3355  0.7402
  251MOL0     H33858  10.132   8.426   5.360  0.0396 -1.5311  0.7464
  251MOL0     H33859  10.209   8.518   5.128  2.4856  0.7719 -0.4686
  251MOL0     H33860  10.185   8.641   5.271  1.0422 -0.8773  1.4920
  251MOL0     H33861  10.449   8.530   5.215  1.1965  1.1544  3.9868
  251MOL0     H33862  10.410   8.656   5.311 -1.6879  2.9723 -0.4568
  251MOL0     H33863  10.329   8.780   5.065  1.6736  0.4329  0.0897
  251MOL0     H33864  10.497   8.741   5.071  0.2277 -0.2887 -1.1457
  251MOL0     H33865  10.602   7.655   5.432  0.1755  2.8380 -0.0153
  251MOL0     H33866  10.527   7.446   5.509  0.8798  1.8828  3.9386
  251MOL0     H33867  10.111   7.046   5.510  0.2000 -0.5011 -0.1698
  251MOL0     H33868  10.072   6.868   5.652 -1.4913  3.2485 -1.7629
  251MOL0     H33869  10.393   5.516   7.299  2.4399  2.8588 -1.7981
  251MOL0     H33870  10.570   5.366   7.351 -1.1949 -4.2605 -0.2099
  251MOL0     H33871  10.946   5.295   7.260  2.4024  1.4567 -0.3787
  251MOL0     H33872  11.174   5.245   7.341  1.3559 -1.8305 -0.3442
  251MOL0     H33873  11.437   4.917   7.402 -0.0423 -0.4299 -0.3370
  251MOL0     H33874  11.319   4.835   7.305  1.5666  0.9017 -0.4323
  251MOL0     H33875  11.254   4.984   7.573 -1.2592 -2.2668  2.9525
  251MOL0     H33876  11.324   4.830   7.574 -1.1072 -0.4854  0.6335
  251MOL0     H33877  11.127   4.747   7.440 -0.6402  0.0595 -1.2114
  251MOL0     H33878  11.049   4.889   7.433  0.8535 -1.2090 -1.7472
  251MOL0     H33879  11.063   4.876   7.719 -3.4365  0.0680 -1.5690
  251MOL0     H33880  10.950   4.782   7.632 -0.0963 -0.3244  1.5988
  251MOL0     H33881  11.137   4.436   7.687  0.8352  0.0626  1.6176
  251MOL0     H33882  11.159   4.864   7.167  2.3977  0.4347 -1.3344
  251MOL0     H33883  10.938   4.778   7.104 -0.9947  0.0124  1.9373
  251MOL0     H33884  10.796   4.882   7.085 -0.2118  1.2205  0.9311
  251MOL0     H33885  10.933   4.892   6.959  5.1708 -0.3297  1.5153
  252MOL0     O33886   9.320   5.561   9.140  0.9343  0.4498  0.6332
  252MOL0     C33887   9.423   5.596   9.180  0.0808 -0.3935  0.5616
  252MOL0     O33888   9.459   5.613   9.308  0.6266  1.0736  0.3120
  252MOL0     C33889   9.390   5.561   9.408 -0.2188  0.4100  0.4928
  252MOL0     C33890   9.395   5.618   9.540 -0.4899  0.2240 -0.0785
  252MOL0     C33891   9.350   5.553   9.648  0.4068  0.6047 -0.7008
  252MOL0     C33892   9.300   5.418   9.633  0.2200 -0.3656 -0.1419
  252MOL0     O33893   9.261   5.348   9.746 -0.2082 -0.3797  0.3096
  252MOL0     C33894   9.358   5.331   9.846  0.2479 -0.1439  0.0605
  252MOL0     C33895   9.304   5.408   9.968 -0.0486 -0.2853  0.1250
  252MOL0     C33896   9.348   5.365  10.100 -0.8489  0.0792 -0.2357
  252MOL0     C33897   9.268   5.246  10.156 -0.0840 -0.3862 -0.0504
  252MOL0     C33898   9.134   5.279  10.222 -0.8126  0.9248  1.1172
  252MOL0     C33899   9.057   5.155  10.257 -0.2488  0.5535 -0.7866
  252MOL0     C33900   8.929   5.170  10.333 -0.8637  1.2104 -1.1429
  252MOL0     C33901   8.862   5.031  10.356 -0.4833  1.3847 -1.0960
  252MOL0     N33902   8.950   4.941  10.439 -0.0273 -0.1338 -0.5829
  252MOL0     C33903   9.045   4.850  10.387 -0.0159 -0.0360  0.3564
  252MOL0     C33904   9.115   4.809  10.498 -0.2383 -0.0608 -0.7507
  252MOL0     C33905   9.238   4.725  10.492  0.1133 -0.3884 -0.1059
  252MOL0     C33906   9.230   4.605  10.395 -0.8349  0.4051  1.0577
  252MOL0     C33907   9.366   4.531  10.374 -0.8726  0.1693  0.3085
  252MOL0     C33908   9.349   4.421  10.274  0.0382  0.3898  0.1431
  252MOL0     O33909   9.331   4.296  10.341 -0.4966  0.7026  0.3254
  252MOL0     C33910   9.390   4.184  10.290 -0.6884  0.2816  0.7931
  252MOL0     C33911   9.411   4.079  10.382 -0.4028  0.9948  1.1244
  252MOL0     C33912   9.463   3.956  10.350  1.2637  0.2154  0.6065
  252MOL0     C33913   9.503   3.936  10.216 -0.1825 -0.2131  0.3078
  252MOL0     C33914   9.556   3.804  10.190  0.9565  0.6621  0.9232
  252MOL0     O33915   9.525   3.703  10.280  0.3936 -0.9116 -0.1776
  252MOL0     C33916   9.601   3.583  10.285 -0.1981 -0.0504 -0.6628
  252MOL0     C33917   9.540   3.481  10.355 -0.1134 -0.2347  0.9770
  252MOL0     C33918   9.587   3.345  10.351  0.0287  0.5947 -0.8469
  252MOL0     C33919   9.718   3.324  10.311  0.0347  0.0542  0.5337
  252MOL0     O33920   9.763   3.194  10.323  0.4312  0.6207  0.4505
  252MOL0     C33921   9.865   3.142  10.232  0.2915 -0.6132 -0.2943
  252MOL0     C33922   9.953   3.052  10.329 -0.9780  0.1270  0.5884
  252MOL0     C33923  10.068   2.988  10.241 -0.3150 -0.7373 -0.1926
  252MOL0     C33924  10.142   2.874  10.315 -0.1938 -0.1601 -1.0495
  252MOL0     C33925  10.290   2.863  10.265  0.2563  0.5424 -0.2871
  252MOL0     C33926  10.377   2.987  10.307  0.4296  1.0426  0.0966
  252MOL0     C33927  10.409   2.998  10.455 -0.5692 -0.8329 -0.2335
  252MOL0     C33928  10.520   2.896  10.503  0.7175  0.1790 -0.2572
  252MOL0    Cl33929  10.523   2.913  10.689 -0.2618 -0.9534 -0.4176
  252MOL0     C33930   9.790   3.426  10.246  0.3400  0.2314 -0.0213
  252MOL0     C33931   9.730   3.559  10.232 -0.5489  0.0062  0.9635
  252MOL0     O33932   9.635   3.796  10.095  0.9346  0.2278 -0.6596
  252MOL0     C33933   9.494   4.040  10.124  0.3167  0.6222  0.2010
  252MOL0     C33934   9.445   4.169  10.160 -0.5125 -0.5778  0.6807
  252MOL0     N33935   9.051   4.872  10.608  0.0565  0.1411  0.4332
  252MOL0     N33936   8.959   4.955  10.571 -0.1547 -0.1505  0.5488
  252MOL0     C33937   9.291   5.365   9.509  0.7294  0.2046  0.0021
  252MOL0     C33938   9.335   5.431   9.395  0.2240 -0.4172  0.3328
  252MOL0     C33939   9.528   5.640   9.086 -0.3702  0.1559 -0.3079
  252MOL0     C33940   9.575   5.768   9.087  0.4306  0.3244  0.1199
  252MOL0     C33941   9.674   5.809   8.997 -0.0639 -0.2455 -0.2982
  252MOL0     C33942   9.743   5.727   8.911  0.1022 -1.0260 -0.0423
  252MOL0     O33943   9.839   5.766   8.829 -0.1609  0.2115  0.3160
  252MOL0     C33944   9.906   5.670   8.742 -0.1343 -0.2788  0.4154
  252MOL0     C33945  10.001   5.735   8.643  0.6508  0.6489 -0.5759
  252MOL0     C33946  10.114   5.820   8.700 -0.7685  0.2632 -0.2790
  252MOL0     C33947  10.197   5.870   8.578  0.2800  0.3526 -0.4996
  252MOL0     C33948  10.290   5.765   8.516 -0.1604  0.2206  0.0512
  252MOL0     C33949  10.348   5.674   8.472  0.1319  0.4406 -0.6001
  252MOL0     C33950   9.697   5.594   8.918 -0.6583  0.8999  0.1138
  252MOL0     C33951   9.599   5.543   9.003 -0.5673 -0.0845  0.5278
  252MOL0     C33952   9.564   5.393   8.983 -0.4624 -0.1480 -0.0200
  252MOL0     H33953   9.443   5.716   9.543  1.0020 -0.4874  0.4620
  252MOL0     H33954   9.346   5.591   9.749 -0.9228 -0.8164 -0.1801
  252MOL0     H33955   9.364   5.224   9.864 -3.1209 -0.1701  1.7587
  252MOL0     H33956   9.454   5.374   9.818  1.2135 -1.5127  1.1730
  252MOL0     H33957   9.195   5.420   9.967 -0.0833 -0.5520 -1.5535
  252MOL0     H33958   9.350   5.506   9.953 -0.9285 -0.2537 -3.1512
  252MOL0     H33959   9.332   5.453  10.163 -0.2091 -0.7678  1.1379
  252MOL0     H33960   9.454   5.344  10.085 -0.3877  2.9364 -1.8512
  252MOL0     H33961   9.251   5.168  10.081 -0.6894 -0.1120 -0.1998
  252MOL0     H33962   9.332   5.200  10.232  1.2234  0.8881 -0.3428
  252MOL0     H33963   9.159   5.340  10.309  0.9203  1.8393  0.0250
  252MOL0     H33964   9.068   5.335  10.155 -2.2085 -3.7973 -1.9596
  252MOL0     H33965   9.041   5.094  10.167 -0.6516  1.5427 -1.4008
  252MOL0     H33966   9.107   5.091  10.330 -2.3380  2.0659  2.1600
  252MOL0     H33967   8.864   5.239  10.278 -0.5849  0.6081 -2.2734
  252MOL0     H33968   8.959   5.214  10.427  1.7676 -1.5515 -0.5349
  252MOL0     H33969   8.772   5.065  10.407 -0.0013 -1.1011  1.7108
  252MOL0     H33970   8.828   4.981  10.264 -0.1052 -1.4330  0.2004
  252MOL0     H33971   9.055   4.834  10.280 -2.6824  0.8647 -0.1028
  252MOL0     H33972   9.321   4.794  10.473  2.6169 -2.7804  1.4313
  252MOL0     H33973   9.253   4.686  10.593 -0.5729 -0.3198  0.0289
  252MOL0     H33974   9.152   4.539  10.435 -1.8547  1.3790  0.7295
  252MOL0     H33975   9.204   4.645  10.297  0.3978 -1.0272  0.1039
  252MOL0     H33976   9.401   4.482  10.466  1.5634 -1.4049 -1.3405
  252MOL0     H33977   9.448   4.596  10.342 -0.5332 -0.8042 -0.8442
  252MOL0     H33978   9.439   4.423  10.212  0.1934  1.4596  0.3820
  252MOL0     H33979   9.271   4.437  10.198  0.4372  3.3468  0.2663
  252MOL0     H33980   9.377   4.097  10.484 -2.4348 -0.4798  0.7833
  252MOL0     H33981   9.475   3.881  10.428 -4.6378 -1.6161  0.2857
  252MOL0     H33982   9.448   3.505  10.406 -1.8039  1.3017 -2.4818
  252MOL0     H33983   9.533   3.268  10.406  0.2198 -0.2533 -1.8292
  252MOL0     H33984   9.821   3.073  10.159  0.9294 -1.0140 -0.3023
  252MOL0     H33985   9.938   3.207  10.186  0.3508 -2.2823 -2.7459
  252MOL0     H33986  10.007   3.115  10.400 -2.2244  1.2990  0.5283
  252MOL0     H33987   9.904   2.965  10.374  0.3346 -1.3437 -0.6829
  252MOL0     H33988  10.024   2.936  10.156  3.5608 -1.4193 -2.0031
  252MOL0     H33989  10.136   3.067  10.206 -0.1414  0.2371  2.1675
  252MOL0     H33990  10.089   2.779  10.302  1.7232 -1.2786 -1.0345
  252MOL0     H33991  10.141   2.890  10.423 -3.2917 -2.0207 -0.6762
  252MOL0     H33992  10.280   2.866  10.156 -0.9818  1.2819 -0.1676
  252MOL0     H33993  10.336   2.770  10.300 -0.6985 -0.3091 -1.2037
  252MOL0     H33994  10.480   2.984  10.268  1.5767  0.5983  2.9005
  252MOL0     H33995  10.331   3.071  10.254  0.5154 -0.4272 -2.4958
  252MOL0     H33996  10.317   2.979  10.512  0.2752  0.3922  1.6527
  252MOL0     H33997  10.448   3.098  10.475 -0.4532 -0.9730  0.2552
  252MOL0     H33998  10.489   2.795  10.476  0.4167  0.5257 -1.2585
  252MOL0     H33999  10.621   2.918  10.465 -0.9912  2.4868 -4.0678
  252MOL0     H34000   9.895   3.419  10.223  0.6386  0.9894  1.0372
  252MOL0     H34001   9.785   3.650  10.207 -0.1633 -0.7321 -1.1148
  252MOL0     H34002   9.519   4.015  10.021  3.2938  0.4883  0.8766
  252MOL0     H34003   9.439   4.240  10.077 -0.7823 -0.0020  1.1876
  252MOL0     H34004   9.254   5.264   9.498 -0.3908  0.6223 -0.1331
  252MOL0     H34005   9.332   5.382   9.298 -0.1354 -0.1762  0.2199
  252MOL0     H34006   9.547   5.854   9.148  1.2675 -1.0918  2.6309
  252MOL0     H34007   9.698   5.915   8.988  4.2749 -1.2255 -4.0753
  252MOL0     H34008   9.844   5.598   8.689 -0.4076  0.7063 -0.6517
  252MOL0     H34009   9.971   5.613   8.809  0.3803  1.1267  1.1767
  252MOL0     H34010   9.932   5.796   8.584 -0.6339 -2.4771 -2.5625
  252MOL0     H34011  10.037   5.655   8.579  0.3994 -0.2216  0.3489
  252MOL0     H34012  10.181   5.771   8.772  2.6718  5.1683  0.4007
  252MOL0     H34013  10.064   5.904   8.749  1.0040  1.4864 -0.4758
  252MOL0     H34014  10.132   5.905   8.497 -0.8668  0.6907  0.5455
  252MOL0     H34015  10.261   5.948   8.620  3.5206 -2.3219 -0.0057
  252MOL0     H34016  10.409   5.587   8.455 -2.1321 -1.0657 -1.4975
  252MOL0     H34017   9.753   5.521   8.861 -0.3525  0.6698  0.6974
  252MOL0     H34018   9.458   5.368   8.998 -0.5733 -0.5848 -1.4413
  252MOL0     H34019   9.580   5.353   8.883 -0.1740 -4.9911  1.6819
  252MOL0     H34020   9.631   5.332   9.045  1.4688  0.3650 -1.5340
  253MOL0     O34021   0.558  10.593   7.697  0.5816  0.3318  0.2195
  253MOL0     C34022   0.633  10.683   7.714  0.1919  0.9646 -0.0864
  253MOL0     O34023   0.647  10.737   7.831 -0.7012 -0.2812 -0.3808
  253MOL0     C34024   0.578  10.682   7.941  0.4458 -0.5219  0.3680
  253MOL0     C34025   0.441  10.691   7.950  0.6185 -1.0258  0.3485
  253MOL0     C34026   0.362  10.649   8.059 -0.0559 -0.3401  0.5875
  253MOL0     C34027   0.420  10.586   8.165 -0.9600  0.0997  0.4854
  253MOL0     O34028   0.362  10.557   8.288  0.5548  0.4310 -0.6842
  253MOL0     C34029   0.220  10.535   8.283  0.3154 -0.5759 -0.1815
  253MOL0     C34030   0.170  10.443   8.391  0.2065 -0.2382 -0.7130
  253MOL0     C34031   0.224  10.489   8.532 -0.0003  0.4389  0.5244
  253MOL0     C34032   0.310  10.380   8.599  0.8362 -0.3232 -0.1294
  253MOL0     C34033   0.447  10.367   8.533  0.2032 -0.0740 -0.0802
  253MOL0     C34034   0.547  10.270   8.596 -0.2240  1.0143  0.7605
  253MOL0     C34035   0.611  10.317   8.734  0.4783  0.0286 -0.2623
  253MOL0     C34036   0.733  10.243   8.778 -0.5767  0.6759 -0.1857
  253MOL0     N34037   0.855  10.266   8.694 -0.1001 -0.9165  0.0644
  253MOL0     C34038   0.918  10.383   8.656 -0.1329  0.8261 -0.1693
  253MOL0     C34039   1.028  10.341   8.588 -0.2048 -0.7028  0.3983
  253MOL0     C34040   1.128  10.426   8.513 -0.0337  0.0934 -0.0780
  253MOL0     C34041   1.274  10.355   8.527 -0.3645 -0.1176 -0.1495
  253MOL0     C34042   1.357  10.339   8.401  0.2347 -0.9028 -0.1277
  253MOL0     C34043   1.494  10.296   8.445 -0.7670 -0.3693  0.1889
  253MOL0     O34044   1.592  10.283   8.344  0.1187 -0.1469  0.5886
  253MOL0     C34045   1.623  10.161   8.295  0.1396 -0.4722  0.4518
  253MOL0     C34046   1.749  10.144   8.227  0.2810 -0.6243  0.8375
  253MOL0     C34047   1.777  10.029   8.156 -0.4134 -0.2480  0.3091
  253MOL0     C34048   1.684   9.925   8.135 -0.2977  0.7725  0.1913
  253MOL0     C34049   1.717   9.814   8.050 -0.1198 -0.3930  0.8778
  253MOL0     O34050   1.665   9.697   8.082 -0.7039  0.3311 -0.3343
  253MOL0     C34051   1.625   9.604   7.993  0.5190  0.4595 -0.1574
  253MOL0     C34052   1.637   9.618   7.848  0.3222  0.4658  0.5486
  253MOL0     C34053   1.582   9.513   7.764 -0.6682  0.8099  0.7695
  253MOL0     C34054   1.517   9.407   7.821 -0.4241 -0.2907  0.8173
  253MOL0     O34055   1.480   9.303   7.735  0.5285 -0.2612 -0.1373
  253MOL0     C34056   1.459   9.171   7.781  0.4873  0.0204 -1.5195
  253MOL0     C34057   1.590   9.089   7.783  0.5698  0.9522  0.7441
  253MOL0     C34058   1.719   9.162   7.750  0.1777  0.5188  0.7115
  253MOL0     C34059   1.836   9.071   7.771  0.9306  0.2353 -0.0702
  253MOL0     C34060   1.846   8.964   7.663  0.9177 -0.2248  0.0459
  253MOL0     C34061   1.969   8.870   7.676  0.0075 -0.3179 -0.6190
  253MOL0     C34062   1.940   8.764   7.569  0.5160  0.4541 -0.4172
  253MOL0     C34063   2.069   8.681   7.533  0.4721  0.1718  0.1971
  253MOL0    Cl34064   2.219   8.786   7.495  0.0026  0.0484  0.2611
  253MOL0     C34065   1.504   9.399   7.962  0.6411  0.2082  1.1339
  253MOL0     C34066   1.566   9.493   8.047  0.0479 -0.1582 -0.7475
  253MOL0     O34067   1.787   9.845   7.953  0.6287 -0.3844 -0.2312
  253MOL0     C34068   1.568   9.929   8.213  0.3542  0.2726 -0.1436
  253MOL0     C34069   1.534  10.049   8.280 -0.0374  0.0573  0.4585
  253MOL0     N34070   1.030  10.202   8.590 -0.1437 -0.3269  0.2217
  253MOL0     N34071   0.928  10.153   8.648 -0.0051 -0.9636 -0.0602
  253MOL0     C34072   0.567  10.566   8.155 -0.4938 -0.1553 -0.4916
  253MOL0     C34073   0.647  10.613   8.044  0.1018 -0.3345  0.8728
  253MOL0     C34074   0.704  10.727   7.604  0.3058 -0.0497  0.6009
  253MOL0     C34075   0.637  10.726   7.472 -0.9842 -0.5218 -0.9960
  253MOL0     C34076   0.713  10.737   7.352  0.8756  0.0186  0.9049
  253MOL0     C34077   0.858  10.749   7.353  0.3447 -1.1744  0.3271
  253MOL0     O34078   0.938  10.760   7.241  0.9557 -0.6852  0.6112
  253MOL0     C34079   0.883  10.704   7.115  0.4222 -0.3210 -0.1854
  253MOL0     C34080   0.985  10.671   7.010 -0.0910  0.1638  0.3366
  253MOL0     C34081   1.080  10.564   7.067  0.5631  0.4065 -0.2946
  253MOL0     C34082   1.165  10.511   6.958 -0.2627  0.9067 -0.0981
  253MOL0     C34083   1.083  10.420   6.878  0.3753 -0.1858 -0.1659
  253MOL0     C34084   1.036  10.345   6.792 -0.4840 -0.3496  0.6211
  253MOL0     C34085   0.916  10.757   7.479 -0.1073  0.5887  0.0295
  253MOL0     C34086   0.838  10.745   7.603 -0.2864  0.5319 -0.1020
  253MOL0     C34087   0.921  10.740   7.730  0.6903 -0.1428 -0.1299
  253MOL0     H34088   0.394  10.731   7.860 -2.9323  0.0010  2.4415
  253MOL0     H34089   0.257  10.675   8.054 -0.6088 -2.5594 -0.5591
  253MOL0     H34090   0.173  10.633   8.294 -1.5002 -1.4612  0.3139
  253MOL0     H34091   0.183  10.492   8.190 -0.0783 -0.8545  0.1005
  253MOL0     H34092   0.206  10.342   8.370  1.9814  0.3227 -0.5240
  253MOL0     H34093   0.061  10.441   8.389  0.1804 -0.3245  0.3411
  253MOL0     H34094   0.137  10.506   8.596 -0.8478 -0.7485 -0.2929
  253MOL0     H34095   0.279  10.584   8.536 -0.8898  0.9765  0.3476
  253MOL0     H34096   0.329  10.420   8.700 -0.1440  2.5256 -0.9708
  253MOL0     H34097   0.260  10.284   8.611  1.4207 -0.3341  3.1558
  253MOL0     H34098   0.425  10.336   8.431 -1.9482  0.3890  0.2023
  253MOL0     H34099   0.494  10.465   8.519 -0.5975  0.3861  0.3726
  253MOL0     H34100   0.501  10.176   8.628  2.0936 -0.9476 -1.2188
  253MOL0     H34101   0.610  10.238   8.512 -2.8322  0.5523 -1.1505
  253MOL0     H34102   0.529  10.298   8.804 -1.7403 -1.3199 -2.9939
  253MOL0     H34103   0.640  10.422   8.729 -1.6485  0.6555 -0.6852
  253MOL0     H34104   0.766  10.281   8.875 -1.0705  1.5654 -0.3471
  253MOL0     H34105   0.728  10.135   8.789  4.7924  0.1930 -0.1830
  253MOL0     H34106   0.887  10.486   8.676 -0.4135  0.5900  0.6778
  253MOL0     H34107   1.098  10.421   8.408 -1.3543  0.8866  0.2341
  253MOL0     H34108   1.116  10.526   8.555 -3.5204  0.6769 -2.0158
  253MOL0     H34109   1.323  10.415   8.604 -1.5120  0.3648  0.2347
  253MOL0     H34110   1.259  10.258   8.576 -1.6274 -0.9678 -2.0744
  253MOL0     H34111   1.352  10.441   8.363  0.8157 -0.1936  1.6078
  253MOL0     H34112   1.305  10.273   8.331  0.8963 -0.2103 -1.2972
  253MOL0     H34113   1.494  10.207   8.509 -0.9216 -0.6132 -0.1495
  253MOL0     H34114   1.515  10.382   8.509 -5.5103  1.3736 -0.2133
  253MOL0     H34115   1.833  10.212   8.218  0.8447 -1.5151 -1.0707
  253MOL0     H34116   1.870  10.026   8.101  0.0297  0.6305  0.9776
  253MOL0     H34117   1.661   9.713   7.802  3.3809 -0.4680 -0.0399
  253MOL0     H34118   1.593   9.521   7.657 -0.0964 -0.4720  0.7179
  253MOL0     H34119   1.410   9.162   7.879  2.3946  1.9844 -0.2859
  253MOL0     H34120   1.397   9.124   7.704  0.2424 -0.4902 -1.0183
  253MOL0     H34121   1.602   9.047   7.883  0.9893 -2.0779 -0.4631
  253MOL0     H34122   1.581   9.000   7.720 -0.6501  1.7486 -0.2653
  253MOL0     H34123   1.707   9.190   7.645 -0.0095 -2.5358 -0.1631
  253MOL0     H34124   1.727   9.255   7.807 -3.4632  0.7404  1.1102
  253MOL0     H34125   1.832   9.017   7.866  4.7313 -2.0133 -0.9587
  253MOL0     H34126   1.925   9.135   7.778  1.4321 -0.4708  0.1076
  253MOL0     H34127   1.849   9.016   7.567 -1.1231 -1.9985 -1.0583
  253MOL0     H34128   1.762   8.896   7.676  0.5529  0.4471  1.4287
  253MOL0     H34129   2.064   8.923   7.662 -0.6288  0.7016 -1.1909
  253MOL0     H34130   1.983   8.813   7.769  2.5672 -0.2842 -0.9186
  253MOL0     H34131   1.908   8.821   7.481  0.1673  0.7491 -0.1036
  253MOL0     H34132   1.867   8.691   7.603  0.0958  2.1542  2.8234
  253MOL0     H34133   2.079   8.616   7.620 -2.2944  0.2617  0.6600
  253MOL0     H34134   2.041   8.630   7.440  2.3375  1.6282 -1.2612
  253MOL0     H34135   1.459   9.319   8.019 -0.3574  0.0985  0.2319
  253MOL0     H34136   1.539   9.472   8.150 -0.5433  0.5007 -0.7531
  253MOL0     H34137   1.485   9.864   8.186 -0.7008  1.8725 -0.8636
  253MOL0     H34138   1.435  10.052   8.325 -0.1668 -1.4391  0.3163
  253MOL0     H34139   0.635  10.529   8.231  2.1830  0.8495 -2.2414
  253MOL0     H34140   0.751  10.587   8.029 -0.4710 -0.6992 -5.1926
  253MOL0     H34141   0.529  10.723   7.472 -1.1315  2.0043 -0.6007
  253MOL0     H34142   0.652  10.723   7.263  1.8210  0.4990  0.1689
  253MOL0     H34143   0.803  10.761   7.068  0.4923  1.9180  2.1734
  253MOL0     H34144   0.836  10.609   7.142  0.4155 -0.3539 -0.3173
  253MOL0     H34145   1.049  10.756   6.983 -0.1690 -0.0700 -0.6414
  253MOL0     H34146   0.935  10.636   6.919  3.5551  1.0116 -2.2422
  253MOL0     H34147   1.019  10.477   7.094 -0.5457 -0.5539 -4.9564
  253MOL0     H34148   1.136  10.603   7.152 -0.6780  1.8371 -0.0992
  253MOL0     H34149   1.218  10.586   6.899 -1.2129 -0.5930 -3.0561
  253MOL0     H34150   1.247  10.451   6.998  0.3163  1.7221 -0.0492
  253MOL0     H34151   0.997  10.296   6.705  1.5306 -2.2904  0.7361
  253MOL0     H34152   1.023  10.775   7.485 -0.1029  1.2148 -1.4647
  253MOL0     H34153   0.873  10.818   7.789  1.7197  2.0184 -1.9715
  253MOL0     H34154   0.911  10.645   7.784  2.3082  0.9077  2.2191
  253MOL0     H34155   1.030  10.750   7.718  0.5530  2.5140  0.2293
  254MOL0     O34156   1.429   3.883   9.408  0.2097  0.0752  0.3532
  254MOL0     C34157   1.493   3.985   9.367  0.1142 -0.0693  0.6483
  254MOL0     O34158   1.611   3.986   9.305 -0.3621 -0.7202  0.2826
  254MOL0     C34159   1.696   3.875   9.291  0.1680  0.6640 -0.4390
  254MOL0     C34160   1.830   3.888   9.315  0.0910 -0.6797  0.3254
  254MOL0     C34161   1.918   3.777   9.285 -0.1204 -0.6899 -0.1191
  254MOL0     C34162   1.869   3.660   9.232 -0.6878  0.0357  0.0313
  254MOL0     O34163   1.951   3.558   9.189  1.0070 -0.1629 -0.5652
  254MOL0     C34164   1.913   3.433   9.255 -0.2768  0.0043 -0.0050
  254MOL0     C34165   1.920   3.324   9.141  0.3940 -0.0629 -1.2246
  254MOL0     C34166   1.860   3.182   9.181 -0.3954 -1.5435  0.3093
  254MOL0     C34167   1.866   3.093   9.058 -0.3085  0.3640 -0.1029
  254MOL0     C34168   1.780   2.973   9.091  0.0022  0.7456 -0.4303
  254MOL0     C34169   1.770   2.873   8.974  0.0370 -0.2340 -0.3287
  254MOL0     C34170   1.688   2.737   9.005 -0.5029 -0.6538 -1.0728
  254MOL0     C34171   1.784   2.647   9.073 -0.3632 -0.3505 -0.7931
  254MOL0     N34172   1.721   2.517   9.118  0.4532  0.5118  0.0025
  254MOL0     C34173   1.679   2.406   9.041  0.2785 -0.2455  0.2611
  254MOL0     C34174   1.629   2.320   9.138  0.2267 -0.1879 -0.1732
  254MOL0     C34175   1.554   2.198   9.117 -0.0741 -0.4089 -0.3213
  254MOL0     C34176   1.609   2.066   9.163  0.9457 -0.1248 -0.2174
  254MOL0     C34177   1.487   1.967   9.160  0.0190  0.2791 -0.7477
  254MOL0     C34178   1.532   1.841   9.235  0.5617  0.7382 -1.1266
  254MOL0     O34179   1.662   1.790   9.194 -0.7446 -0.3765 -0.4556
  254MOL0     C34180   1.666   1.662   9.140 -0.0404 -0.5558 -0.3368
  254MOL0     C34181   1.680   1.651   9.000 -0.4506 -0.2614 -0.2370
  254MOL0     C34182   1.661   1.540   8.931 -0.4768  0.1674  0.8101
  254MOL0     C34183   1.627   1.423   8.996  0.5317 -0.0754 -0.1429
  254MOL0     C34184   1.596   1.302   8.916  0.2893  0.1339 -1.5164
  254MOL0     O34185   1.603   1.313   8.780 -0.3153 -0.8041 -0.1757
  254MOL0     C34186   1.575   1.210   8.697 -0.6448  0.2181  0.8767
  254MOL0     C34187   1.495   1.099   8.728  1.5931  0.9653  0.2999
  254MOL0     C34188   1.463   1.008   8.622 -0.3467 -0.1609  0.9697
  254MOL0     C34189   1.524   1.019   8.496 -0.5549  0.2713  1.2624
  254MOL0     O34190   1.511   0.946   8.382 -0.2539 -0.5222  0.5678
  254MOL0     C34191   1.479   0.809   8.388 -0.5895  0.0819  0.1744
  254MOL0     C34192   1.407   0.764   8.251  0.0903 -0.6472 -0.3003
  254MOL0     C34193   1.337   0.637   8.292 -0.0369 -1.0226 -0.4801
  254MOL0     C34194   1.229   0.611   8.185  0.3712  0.6788 -0.2428
  254MOL0     C34195   1.134   0.489   8.203  0.0704 -0.2219 -0.6661
  254MOL0     C34196   1.205   0.362   8.233  0.0656  0.8778  0.3806
  254MOL0     C34197   1.122   0.229   8.209 -0.0017  0.3345 -0.8101
  254MOL0     C34198   1.216   0.104   8.214 -0.0468  0.0244  0.3274
  254MOL0    Cl34199   1.340   0.126   8.077  0.3500  0.0364  0.4498
  254MOL0     C34200   1.613   1.121   8.468 -0.5063  0.0068 -0.3224
  254MOL0     C34201   1.638   1.214   8.570 -0.7018  0.1806  1.1752
  254MOL0     O34202   1.552   1.205   8.979  0.1805 -0.0699 -0.0188
  254MOL0     C34203   1.632   1.422   9.132  0.2800  0.0313  0.1938
  254MOL0     C34204   1.640   1.545   9.203  0.1406  0.4747  0.6994
  254MOL0     N34205   1.656   2.375   9.263  0.2155 -0.8560 -0.4763
  254MOL0     N34206   1.704   2.494   9.256  0.2884  0.3154  0.2242
  254MOL0     C34207   1.728   3.653   9.206 -0.8938  1.0268  0.5577
  254MOL0     C34208   1.651   3.760   9.234  0.4127 -0.1111  0.3952
  254MOL0     C34209   1.413   4.105   9.367  0.3171  0.2741  0.3458
  254MOL0     C34210   1.272   4.096   9.363  0.1542  0.7887  0.1844
  254MOL0     C34211   1.188   4.205   9.372 -0.4382 -0.2754 -0.0138
  254MOL0     C34212   1.250   4.332   9.371  0.2138  1.1234  0.7571
  254MOL0     O34213   1.172   4.440   9.394  0.1821 -0.3847  0.0912
  254MOL0     C34214   1.114   4.484   9.270  0.2466  0.0622  0.1430
  254MOL0     C34215   1.061   4.626   9.263  0.3013 -0.6679  0.9136
  254MOL0     C34216   1.167   4.737   9.278 -0.0004  1.0772  0.4097
  254MOL0     C34217   1.096   4.870   9.287 -0.0602  0.0571  0.0868
  254MOL0     C34218   1.074   4.934   9.161  0.0656 -0.1371  0.3678
  254MOL0     C34219   1.062   4.982   9.048  0.3544 -0.9533 -0.0496
  254MOL0     C34220   1.383   4.347   9.368 -0.2224 -0.5264  0.1074
  254MOL0     C34221   1.465   4.236   9.377 -0.6765 -0.6901  0.8957
  254MOL0     C34222   1.608   4.284   9.369  0.0984  0.5613 -0.1348
  254MOL0     H34223   1.863   3.982   9.358 -1.5423 -0.4085  1.0715
  254MOL0     H34224   2.021   3.801   9.310 -0.9818  1.1554  1.9568
  254MOL0     H34225   1.976   3.408   9.341 -0.2238  1.4333  0.3990
  254MOL0     H34226   1.812   3.430   9.297 -0.2548 -1.4284 -0.0100
  254MOL0     H34227   2.026   3.301   9.129  0.4928 -2.0410  2.0436
  254MOL0     H34228   1.872   3.369   9.055 -2.5037 -1.9600 -0.7490
  254MOL0     H34229   1.757   3.191   9.216 -1.1216 -1.9356 -1.6017
  254MOL0     H34230   1.925   3.138   9.257  2.6402 -3.0866 -2.9025
  254MOL0     H34231   1.823   3.149   8.975 -2.5505  0.1429  0.8332
  254MOL0     H34232   1.966   3.064   9.024 -0.6234 -1.9487  0.7658
  254MOL0     H34233   1.819   2.929   9.183 -2.0998 -0.9482 -0.2770
  254MOL0     H34234   1.677   2.999   9.117  0.0797 -1.1750  2.2021
  254MOL0     H34235   1.734   2.925   8.885  0.8712 -1.1245 -1.2111
  254MOL0     H34236   1.872   2.849   8.945  0.0367 -1.1752  0.4079
  254MOL0     H34237   1.641   2.692   8.917  1.3559 -1.6563 -1.6055
  254MOL0     H34238   1.607   2.772   9.070  0.5259 -0.3533  0.0879
  254MOL0     H34239   1.858   2.617   8.998 -0.4181  0.1989 -1.0695
  254MOL0     H34240   1.829   2.692   9.163 -1.4961  1.9093 -1.2844
  254MOL0     H34241   1.672   2.401   8.933  0.0988  2.4985  0.0698
  254MOL0     H34242   1.465   2.218   9.178 -1.7868  0.2742 -2.8986
  254MOL0     H34243   1.530   2.187   9.011  2.8728 -2.0495 -0.9208
  254MOL0     H34244   1.679   2.048   9.081 -3.3428 -0.8901 -4.1395
  254MOL0     H34245   1.643   2.068   9.267 -1.4376  1.1352  0.6204
  254MOL0     H34246   1.463   1.952   9.054 -1.7294  3.0535 -0.8615
  254MOL0     H34247   1.392   1.998   9.205  0.1723 -0.5559  0.1819
  254MOL0     H34248   1.450   1.771   9.222 -1.7482  2.5548  2.2405
  254MOL0     H34249   1.537   1.854   9.343  1.6090 -4.2545 -0.3485
  254MOL0     H34250   1.700   1.743   8.947  0.3654  0.4826  1.2974
  254MOL0     H34251   1.664   1.556   8.824 -3.2813  0.3129  0.6760
  254MOL0     H34252   1.447   1.081   8.823 -0.0999  2.4863 -0.2187
  254MOL0     H34253   1.391   0.929   8.641 -2.3970  1.1857 -0.8189
  254MOL0     H34254   1.573   0.753   8.387 -1.0530 -0.7205 -1.0988
  254MOL0     H34255   1.433   0.778   8.481  0.6039 -1.4699  0.2940
  254MOL0     H34256   1.350   0.844   8.203  0.4239 -0.5116 -0.4703
  254MOL0     H34257   1.474   0.737   8.169  0.2647  0.2611 -0.4745
  254MOL0     H34258   1.418   0.565   8.304  1.9053  1.4020  2.4519
  254MOL0     H34259   1.293   0.646   8.391 -0.8771  3.7285 -1.0342
  254MOL0     H34260   1.272   0.596   8.085 -2.5045  1.8508 -1.8058
  254MOL0     H34261   1.165   0.700   8.179 -0.5934  0.0694  0.6442
  254MOL0     H34262   1.075   0.475   8.112  3.5992 -3.5192 -2.7152
  254MOL0     H34263   1.064   0.517   8.283  1.4291 -1.2093  0.9603
  254MOL0     H34264   1.291   0.347   8.168 -0.1069  3.5471 -0.5603
  254MOL0     H34265   1.249   0.352   8.332  0.4493 -3.7526 -0.0135
  254MOL0     H34266   1.082   0.219   8.108 -4.7561  1.1292  0.7478
  254MOL0     H34267   1.034   0.213   8.273  1.5299 -2.8421  0.7450
  254MOL0     H34268   1.268   0.077   8.307  0.6748 -2.4471 -0.7283
  254MOL0     H34269   1.160   0.018   8.175  1.0174  0.0019 -1.2557
  254MOL0     H34270   1.657   1.117   8.369  0.3040  0.4907  0.0081
  254MOL0     H34271   1.706   1.297   8.554 -1.7062  1.4362  3.0654
  254MOL0     H34272   1.610   1.327   9.179 -1.0911 -0.4348 -1.3188
  254MOL0     H34273   1.633   1.528   9.310  0.7807 -2.5479  0.3623
  254MOL0     H34274   1.686   3.566   9.158 -1.5839  0.8039  1.5470
  254MOL0     H34275   1.546   3.752   9.208 -0.1325  2.5896  1.4065
  254MOL0     H34276   1.224   4.000   9.353 -0.6441  1.2663 -0.8000
  254MOL0     H34277   1.080   4.200   9.371 -0.6735  2.5697  0.7465
  254MOL0     H34278   1.042   4.411   9.231 -0.8164  1.8843 -1.4692
  254MOL0     H34279   1.196   4.473   9.198 -0.5847 -1.5733 -0.6135
  254MOL0     H34280   0.987   4.635   9.343  0.1590 -1.1862  0.8430
  254MOL0     H34281   1.009   4.643   9.168 -1.5710  0.6508  2.0990
  254MOL0     H34282   1.237   4.723   9.195  0.3136  1.3202  0.6302
  254MOL0     H34283   1.215   4.723   9.376  2.1703 -2.1677 -0.9517
  254MOL0     H34284   0.996   4.870   9.332  0.1075  3.0323  0.6517
  254MOL0     H34285   1.159   4.938   9.345 -1.2592  1.7104 -0.4568
  254MOL0     H34286   1.072   5.032   8.954  2.4035 -0.7026  0.2529
  254MOL0     H34287   1.428   4.446   9.368 -0.3169 -0.4041 -2.6945
  254MOL0     H34288   1.665   4.234   9.290  0.0616  0.4160 -0.0710
  254MOL0     H34289   1.625   4.390   9.347  1.0692  0.7915  1.5760
  254MOL0     H34290   1.651   4.268   9.469  3.7556 -0.0826 -1.6332
  255MOL0     O34291   9.473   6.351   2.983 -0.3007  0.1281  0.5261
  255MOL0     C34292   9.580   6.336   3.042 -0.2810  0.6461  0.0877
  255MOL0     O34293   9.699   6.402   3.013 -0.0015 -0.2186 -0.7341
  255MOL0     C34294   9.713   6.466   2.891  1.0240 -0.2384 -0.1712
  255MOL0     C34295   9.637   6.589   2.876 -0.0376  0.3436 -0.1451
  255MOL0     C34296   9.648   6.667   2.765 -0.2226  0.3054 -0.6802
  255MOL0     C34297   9.723   6.615   2.656  0.4139  0.6447  0.1834
  255MOL0     O34298   9.754   6.690   2.537  0.3380  0.0311  0.0826
  255MOL0     C34299   9.680   6.810   2.507 -0.2833 -0.0430 -0.2282
  255MOL0     C34300   9.704   6.849   2.365 -0.2437 -0.7550  0.2305
  255MOL0     C34301   9.661   7.001   2.336  0.3106  0.6051 -0.6005
  255MOL0     C34302   9.641   7.004   2.189  0.0635 -0.3527  0.4760
  255MOL0     C34303   9.572   7.133   2.172  0.1522 -1.2451  0.4803
  255MOL0     C34304   9.523   7.139   2.025  0.7841  0.5096  0.9967
  255MOL0     C34305   9.432   7.028   1.982  0.9113 -0.8772  0.3647
  255MOL0     C34306   9.306   7.084   1.914  0.0862  0.3554  0.5367
  255MOL0     N34307   9.215   7.159   2.009  0.0069 -1.7350 -0.2424
  255MOL0     C34308   9.101   7.102   2.058  0.4507  0.4944  0.6523
  255MOL0     C34309   9.025   7.207   2.093  0.5868  0.2627 -0.2343
  255MOL0     C34310   8.879   7.188   2.128  0.6683  0.0878 -0.0085
  255MOL0     C34311   8.776   7.208   2.007 -0.2879  1.0268  0.2808
  255MOL0     C34312   8.744   7.360   1.985 -0.5045  0.2506 -0.0943
  255MOL0     C34313   8.686   7.439   2.106 -0.8079  0.3266 -1.0952
  255MOL0     O34314   8.587   7.519   2.052  0.7009 -0.3980  0.3470
  255MOL0     C34315   8.610   7.652   2.028  0.2132 -0.0865  0.6767
  255MOL0     C34316   8.716   7.721   2.081  0.3122 -0.3691  0.2654
  255MOL0     C34317   8.747   7.830   2.015 -0.7077 -0.1690 -0.1200
  255MOL0     C34318   8.668   7.891   1.911  0.5599  0.7777  0.1833
  255MOL0     C34319   8.718   8.015   1.829 -0.0324  0.0089 -0.4659
  255MOL0     O34320   8.653   8.043   1.714 -0.5264 -0.4695  0.0492
  255MOL0     C34321   8.678   8.163   1.645  0.0293 -0.5872  0.2234
  255MOL0     C34322   8.681   8.288   1.711  0.7246 -0.1158  0.3028
  255MOL0     C34323   8.693   8.410   1.638  0.1216 -0.8760 -0.1696
  255MOL0     C34324   8.686   8.417   1.502 -0.7959 -0.4241  0.8158
  255MOL0     O34325   8.695   8.532   1.424 -0.3873 -0.6152  0.0281
  255MOL0     C34326   8.771   8.644   1.478  0.0263 -0.0595  0.6633
  255MOL0     C34327   8.815   8.726   1.361  0.2494 -0.0593 -0.3024
  255MOL0     C34328   8.696   8.827   1.338 -0.0328  0.2573  0.3895
  255MOL0     C34329   8.711   8.888   1.198  0.0208  0.1539 -0.3663
  255MOL0     C34330   8.581   8.958   1.155 -0.5655  0.2338  0.2696
  255MOL0     C34331   8.587   9.007   1.007 -0.1242 -0.5823  1.1602
  255MOL0     C34332   8.678   9.136   0.986  0.0167  0.1445  0.8436
  255MOL0     C34333   8.625   9.210   0.861 -0.3524  0.8539 -0.1782
  255MOL0    Cl34334   8.613   9.118   0.717  0.2740 -0.1475 -0.1104
  255MOL0     C34335   8.665   8.294   1.431  0.3032 -0.6948  0.2788
  255MOL0     C34336   8.674   8.171   1.503  0.9667  0.5947  0.3458
  255MOL0     O34337   8.800   8.089   1.889 -0.3688  0.4055 -0.3062
  255MOL0     C34338   8.540   7.832   1.873 -0.0153 -0.4391 -0.8619
  255MOL0     C34339   8.527   7.713   1.932  0.0827 -0.2396 -0.3845
  255MOL0     N34340   9.103   7.330   2.080  1.1191  0.3357 -0.3605
  255MOL0     N34341   9.212   7.297   2.039 -0.1973  0.5073 -0.1228
  255MOL0     C34342   9.798   6.493   2.677  0.7818 -0.0836 -0.3473
  255MOL0     C34343   9.789   6.413   2.793 -0.3024 -1.2254 -0.9536
  255MOL0     C34344   9.573   6.231   3.145  0.1818 -0.3294 -0.4015
  255MOL0     C34345   9.633   6.240   3.269  0.2634 -0.5155 -0.4195
  255MOL0     C34346   9.611   6.144   3.367 -0.2047 -0.5888 -0.8217
  255MOL0     C34347   9.544   6.021   3.338 -0.0908 -0.0089 -1.1143
  255MOL0     O34348   9.526   5.920   3.428  0.0933  1.0806 -0.2054
  255MOL0     C34349   9.544   5.950   3.568 -0.0323 -0.5871 -0.3074
  255MOL0     C34350   9.410   6.012   3.620  0.5367  0.9198  0.0567
  255MOL0     C34351   9.438   6.078   3.755  0.0129 -0.7718  0.5046
  255MOL0     C34352   9.323   6.172   3.802 -0.4873  0.1869 -0.2868
  255MOL0     C34353   9.228   6.088   3.878 -0.1860  0.7135  0.0283
  255MOL0     C34354   9.165   6.019   3.950  0.3043  0.3142  0.1641
  255MOL0     C34355   9.502   6.003   3.214  0.1391  0.1729 -0.8250
  255MOL0     C34356   9.512   6.101   3.115  0.2361  0.0784  0.6349
  255MOL0     C34357   9.462   6.070   2.978  0.1338  0.5077 -0.1832
  255MOL0     H34358   9.576   6.629   2.956  1.7439 -0.0618  1.4995
  255MOL0     H34359   9.606   6.767   2.763  0.1112  0.5767  2.1247
  255MOL0     H34360   9.575   6.783   2.520  0.1095 -1.2453  0.5663
  255MOL0     H34361   9.717   6.889   2.573 -0.6292  0.6664 -0.8699
  255MOL0     H34362   9.653   6.772   2.307  1.6245  0.3915 -3.2350
  255MOL0     H34363   9.809   6.842   2.335 -1.2479  1.1637 -4.6450
  255MOL0     H34364   9.742   7.064   2.375  0.8149 -0.8503  0.8098
  255MOL0     H34365   9.571   7.025   2.394 -0.2187  3.8803 -2.5337
  255MOL0     H34366   9.734   6.999   2.131  0.2721  1.7283  0.5411
  255MOL0     H34367   9.574   6.919   2.175 -1.5233  0.8890  0.1992
  255MOL0     H34368   9.490   7.149   2.243 -0.8779  0.1811 -0.9790
  255MOL0     H34369   9.636   7.220   2.190  0.3315 -1.1548 -0.5375
  255MOL0     H34370   9.472   7.233   2.005 -0.2766 -0.6625 -2.7059
  255MOL0     H34371   9.614   7.142   1.964  0.3060  0.0632  0.2386
  255MOL0     H34372   9.398   6.959   2.060 -0.9502  0.3258  0.6812
  255MOL0     H34373   9.486   6.971   1.905 -1.5831 -0.9641 -1.4386
  255MOL0     H34374   9.341   7.150   1.834  0.6183 -1.9840 -1.2814
  255MOL0     H34375   9.250   7.004   1.865  0.1312 -0.2415  1.4271
  255MOL0     H34376   9.068   6.999   2.049  0.1626  0.6314  0.0648
  255MOL0     H34377   8.872   7.085   2.163 -2.2407  0.7437  1.7177
  255MOL0     H34378   8.851   7.263   2.204 -1.4282  0.5251 -1.1293
  255MOL0     H34379   8.815   7.166   1.914 -0.1886  1.0957  0.2901
  255MOL0     H34380   8.688   7.148   2.030 -0.2054 -0.6720 -3.1926
  255MOL0     H34381   8.675   7.369   1.901 -2.0663  2.6075  1.3520
  255MOL0     H34382   8.840   7.402   1.953  0.8339 -0.0783  3.1216
  255MOL0     H34383   8.761   7.485   2.171 -2.4504  2.6220 -0.6927
  255MOL0     H34384   8.638   7.374   2.180  0.9764 -2.2313 -2.0484
  255MOL0     H34385   8.772   7.686   2.166 -1.1015  0.4123  1.5663
  255MOL0     H34386   8.838   7.882   2.043 -1.2794  2.3554 -2.4870
  255MOL0     H34387   8.665   8.292   1.818 -2.0608 -1.4438  0.0312
  255MOL0     H34388   8.709   8.499   1.699 -1.1042  1.5204 -3.0992
  255MOL0     H34389   8.697   8.701   1.535 -3.8122 -0.2318 -3.5050
  255MOL0     H34390   8.860   8.606   1.529 -0.3915 -2.8858 -0.5325
  255MOL0     H34391   8.910   8.779   1.375  1.1852 -1.9456  0.7697
  255MOL0     H34392   8.832   8.674   1.267 -0.4911  1.2286 -1.1922
  255MOL0     H34393   8.600   8.775   1.344  0.3041 -0.3489  0.5358
  255MOL0     H34394   8.703   8.905   1.414  0.5310  1.9521 -1.3084
  255MOL0     H34395   8.753   8.812   1.132  0.9182 -0.6329  1.0656
  255MOL0     H34396   8.775   8.975   1.219  1.2825 -1.0879  1.2051
  255MOL0     H34397   8.562   9.046   1.216 -3.5139 -0.9145  1.1742
  255MOL0     H34398   8.495   8.891   1.152  0.3467 -0.9425 -0.3765
  255MOL0     H34399   8.604   8.929   0.932 -1.2654  0.0744  0.1786
  255MOL0     H34400   8.490   9.040   0.968 -0.1005 -2.9768 -1.2205
  255MOL0     H34401   8.782   9.102   0.979 -0.7068 -1.9747 -1.1356
  255MOL0     H34402   8.666   9.205   1.070  1.1832 -0.5166  1.5818
  255MOL0     H34403   8.525   9.253   0.875 -1.5166 -1.4463 -0.9096
  255MOL0     H34404   8.691   9.289   0.825  0.3302  1.3997  2.1444
  255MOL0     H34405   8.634   8.293   1.327  0.3408 -0.3516  0.2645
  255MOL0     H34406   8.651   8.082   1.446 -1.0653  2.1893 -1.5143
  255MOL0     H34407   8.463   7.876   1.809 -3.5041 -2.1654  1.8166
  255MOL0     H34408   8.441   7.661   1.892 -1.2825 -1.0109  3.1528
  255MOL0     H34409   9.863   6.465   2.594  0.9627  2.4123 -1.1227
  255MOL0     H34410   9.855   6.327   2.797  1.7210  0.0800 -3.3383
  255MOL0     H34411   9.676   6.335   3.298  1.5083 -0.2639 -2.8342
  255MOL0     H34412   9.658   6.172   3.461 -2.5614  0.3451  0.1538
  255MOL0     H34413   9.640   6.002   3.576  1.3562 -2.9885 -0.4286
  255MOL0     H34414   9.558   5.866   3.637  1.0222  0.1738  0.4328
  255MOL0     H34415   9.351   5.920   3.630  0.8848  0.2064 -3.2022
  255MOL0     H34416   9.373   6.083   3.545  1.2302  1.2999  0.0683
  255MOL0     H34417   9.526   6.143   3.743 -2.6697  2.7835 -2.4287
  255MOL0     H34418   9.471   5.998   3.821  3.5437 -0.6240 -0.8356
  255MOL0     H34419   9.370   6.250   3.863  1.4414 -1.9795  1.1871
  255MOL0     H34420   9.284   6.230   3.718 -1.0632 -1.6546 -1.3594
  255MOL0     H34421   9.096   5.959   4.007  1.4757 -0.5201  0.7517
  255MOL0     H34422   9.448   5.916   3.178  1.0215  0.8159 -4.1037
  255MOL0     H34423   9.389   6.138   2.933 -1.3741  1.1284  2.9543
  255MOL0     H34424   9.551   6.059   2.915 -1.6226 -0.6802 -2.6222
  255MOL0     H34425   9.410   5.975   2.966 -1.4134  1.1053  1.2582
  256MOL0     O34426   3.736  10.030   0.156  0.2336  0.3390  0.5660
  256MOL0     C34427   3.831  10.082   0.205 -0.5679  0.6822 -0.1456
  256MOL0     O34428   3.938  10.015   0.250  0.2332 -0.5049 -0.3026
  256MOL0     C34429   3.949   9.882   0.228  0.3103 -0.3023 -0.0600
  256MOL0     C34430   3.866   9.782   0.277 -0.2647  0.2219 -0.1026
  256MOL0     C34431   3.892   9.647   0.256 -0.1276 -0.2118  1.0439
  256MOL0     C34432   4.004   9.609   0.181  0.0301 -0.8481  0.1015
  256MOL0     O34433   4.019   9.467   0.161 -0.0672  0.5641 -0.0791
  256MOL0     C34434   4.099   9.413   0.060  0.5320 -0.1127  0.2925
  256MOL0     C34435   4.243   9.398   0.107 -0.1980  0.0184 -0.1206
  256MOL0     C34436   4.312   9.298   0.015 -0.1939 -0.9789 -0.1448
  256MOL0     C34437   4.303   9.337  -0.138  0.1219  0.1923 -0.6788
  256MOL0     C34438   4.423   9.286  -0.218  0.5099 -0.1315 -0.0208
  256MOL0     C34439   4.396   9.305  -0.372  0.7597 -0.5089 -0.3845
  256MOL0     C34440   4.513   9.262  -0.456 -0.1628 -1.1115  0.1367
  256MOL0     C34441   4.494   9.260  -0.606  0.6343 -0.4853  0.2742
  256MOL0     N34442   4.629   9.239  -0.673 -0.7725  0.0375 -0.4816
  256MOL0     C34443   4.684   9.113  -0.715  0.4260  0.1369  0.2554
  256MOL0     C34444   4.806   9.152  -0.772 -0.5283  0.1020  0.1290
  256MOL0     C34445   4.912   9.059  -0.820 -0.4162  0.5610 -0.0904
  256MOL0     C34446   4.919   8.921  -0.746  0.9087 -0.6240 -0.9876
  256MOL0     C34447   5.053   8.851  -0.775  0.3572 -0.6141  0.6519
  256MOL0     C34448   5.085   8.738  -0.688 -0.8661  0.0953  0.1786
  256MOL0     O34449   5.116   8.794  -0.555 -0.3863  0.4360 -0.5434
  256MOL0     C34450   5.246   8.801  -0.519 -0.6871  0.2814 -0.0905
  256MOL0     C34451   5.360   8.788  -0.595 -0.5533  0.6726  0.1573
  256MOL0     C34452   5.480   8.789  -0.537 -0.3173  0.2251 -1.1843
  256MOL0     C34453   5.504   8.822  -0.397  0.8911 -0.0150  0.0492
  256MOL0     C34454   5.634   8.826  -0.327 -0.3321  0.0551  0.3751
  256MOL0     O34455   5.637   8.810  -0.193 -0.8132  0.4106 -0.1931
  256MOL0     C34456   5.764   8.805  -0.132  0.2294 -0.0403 -1.4138
  256MOL0     C34457   5.793   8.687  -0.073 -0.1382  0.4284  0.5730
  256MOL0     C34458   5.900   8.676   0.011 -0.2739 -1.3365  0.0036
  256MOL0     C34459   5.988   8.782   0.033  0.1701  0.7750  0.0413
  256MOL0     O34460   6.097   8.782   0.123 -0.4459 -0.0046  1.0424
  256MOL0     C34461   6.222   8.706   0.089 -0.1442 -0.1000  0.0826
  256MOL0     C34462   6.284   8.654   0.217 -0.0466 -0.0914 -0.0890
  256MOL0     C34463   6.400   8.549   0.182  1.0335  0.3981  1.0558
  256MOL0     C34464   6.483   8.509   0.303 -1.0980  0.0098  0.2866
  256MOL0     C34465   6.618   8.457   0.254  1.0882 -0.1242  0.2731
  256MOL0     C34466   6.710   8.462   0.373  0.2112  0.1479  0.0412
  256MOL0     C34467   6.839   8.392   0.345  0.8888  0.2961 -0.0102
  256MOL0     C34468   6.907   8.377   0.476  0.0746  0.4761 -0.5038
  256MOL0    Cl34469   7.080   8.362   0.448 -0.4405  0.1740 -0.3934
  256MOL0     C34470   5.963   8.902  -0.036 -0.0616  0.8071 -0.4254
  256MOL0     C34471   5.851   8.908  -0.130  0.4262 -0.5564 -1.0932
  256MOL0     O34472   5.732   8.842  -0.403 -0.1318 -0.0127 -0.0210
  256MOL0     C34473   5.388   8.835  -0.324  0.6491 -0.3522  0.3337
  256MOL0     C34474   5.265   8.827  -0.388  0.4533 -0.1691  0.5640
  256MOL0     N34475   4.816   9.289  -0.780  0.8597  0.5110  0.0229
  256MOL0     N34476   4.709   9.340  -0.723 -0.2794 -0.2852 -0.4886
  256MOL0     C34477   4.093   9.702   0.133  0.0929  0.5005 -0.1526
  256MOL0     C34478   4.068   9.837   0.166 -0.0205 -0.5759  0.7140
  256MOL0     C34479   3.819  10.232   0.217  0.2578  0.0413  0.6477
  256MOL0     C34480   3.749  10.309   0.122 -0.5519 -0.0365  0.4734
  256MOL0     C34481   3.739  10.445   0.127  0.3390 -0.1334  0.4768
  256MOL0     C34482   3.797  10.511   0.227 -0.5511  0.4371  0.1542
  256MOL0     O34483   3.822  10.647   0.229  0.9337  0.2464  0.1817
  256MOL0     C34484   3.709  10.727   0.168 -0.2289  0.8575 -0.0577
  256MOL0     C34485   3.753  10.879   0.169 -0.8910 -0.3133 -0.0732
  256MOL0     C34486   3.641  10.969   0.220 -0.2860 -0.2006  0.5271
  256MOL0     C34487   3.554  11.008   0.103  0.1610  0.5552  0.8341
  256MOL0     C34488   3.442  11.081   0.153  0.1526 -0.4290 -0.2263
  256MOL0     C34489   3.356  11.134   0.214 -0.5224 -0.6947 -0.4193
  256MOL0     C34490   3.858  10.440   0.325 -0.1544  0.2970  0.2240
  256MOL0     C34491   3.874  10.300   0.323  0.3468 -0.4014  0.5824
  256MOL0     C34492   3.948  10.244   0.438  0.2029 -0.4318 -0.4632
  256MOL0     H34493   3.779   9.795   0.341  0.3891 -0.7666  1.0421
  256MOL0     H34494   3.832   9.570   0.304 -0.5019  0.3717  1.5198
  256MOL0     H34495   4.057   9.315   0.039  0.7640 -0.4918  1.5420
  256MOL0     H34496   4.094   9.484  -0.024  0.7672  1.3219  1.4467
  256MOL0     H34497   4.238   9.349   0.204 -1.6631 -2.3906 -1.3014
  256MOL0     H34498   4.298   9.491   0.122 -2.5398  0.9490  4.6592
  256MOL0     H34499   4.272   9.197   0.030 -2.0142 -0.2654  0.1018
  256MOL0     H34500   4.418   9.307   0.039 -0.7228 -0.6007  2.3522
  256MOL0     H34501   4.211   9.291  -0.175 -0.5787 -0.5687  1.7878
  256MOL0     H34502   4.303   9.444  -0.161 -1.7619  0.3450 -0.1556
  256MOL0     H34503   4.514   9.341  -0.191  1.3542  0.4166 -3.5075
  256MOL0     H34504   4.438   9.179  -0.201 -1.9126 -1.0152 -2.5993
  256MOL0     H34505   4.314   9.235  -0.395 -0.8629  0.7567  1.2710
  256MOL0     H34506   4.369   9.408  -0.396  0.1958 -0.6359 -0.3255
  256MOL0     H34507   4.530   9.160  -0.421 -2.3854 -0.8091  2.4019
  256MOL0     H34508   4.605   9.312  -0.427  0.1743 -1.7476  0.1860
  256MOL0     H34509   4.422   9.180  -0.621  1.6922 -1.3020 -0.5404
  256MOL0     H34510   4.456   9.349  -0.657  1.6035 -0.7896 -1.0113
  256MOL0     H34511   4.648   9.012  -0.704 -1.5868  0.9383  1.6956
  256MOL0     H34512   4.895   9.043  -0.926 -1.4683  1.5797 -0.0911
  256MOL0     H34513   5.002   9.119  -0.806 -1.7655  2.0177  3.7625
  256MOL0     H34514   4.913   8.944  -0.639  1.2655  0.0598 -1.1112
  256MOL0     H34515   4.828   8.863  -0.760 -0.1300  0.5225  0.7337
  256MOL0     H34516   5.122   8.935  -0.770 -0.5175  0.1487  0.2464
  256MOL0     H34517   5.054   8.812  -0.878  1.3168 -0.8568  0.7436
  256MOL0     H34518   5.171   8.678  -0.721  0.2247  1.2867  0.7976
  256MOL0     H34519   5.007   8.661  -0.685 -2.6125  1.7819 -0.0031
  256MOL0     H34520   5.360   8.784  -0.703 -0.2494 -1.3442  0.1867
  256MOL0     H34521   5.566   8.770  -0.600 -0.8849  0.2978 -1.9958
  256MOL0     H34522   5.717   8.609  -0.078  2.6107 -2.3826 -1.8249
  256MOL0     H34523   5.906   8.585   0.072  0.3909 -2.2047 -1.3119
  256MOL0     H34524   6.197   8.637   0.008  1.8766  1.5999 -2.1499
  256MOL0     H34525   6.283   8.786   0.047 -1.5720  0.7151 -0.5074
  256MOL0     H34526   6.311   8.729   0.293  0.3864 -0.4026  0.0663
  256MOL0     H34527   6.207   8.590   0.260 -1.4973 -1.6952 -4.5198
  256MOL0     H34528   6.350   8.461   0.140 -0.5660  1.0138  1.5674
  256MOL0     H34529   6.470   8.587   0.107  3.6975 -2.5725  1.8711
  256MOL0     H34530   6.443   8.430   0.368  1.1980 -1.4420  0.0424
  256MOL0     H34531   6.508   8.603   0.352 -2.5885  2.0070 -2.5192
  256MOL0     H34532   6.659   8.522   0.176 -0.6629  0.2779 -0.3708
  256MOL0     H34533   6.609   8.353   0.223  0.1216 -0.1378  0.5464
  256MOL0     H34534   6.722   8.561   0.419 -0.3098  0.3401 -0.2356
  256MOL0     H34535   6.654   8.405   0.448  0.6546 -1.5393 -0.8828
  256MOL0     H34536   6.893   8.455   0.274  0.0693 -2.6519 -3.5738
  256MOL0     H34537   6.828   8.300   0.287  0.9381 -0.6227  1.3999
  256MOL0     H34538   6.889   8.467   0.535  1.0490  2.4230 -2.9801
  256MOL0     H34539   6.866   8.296   0.537 -2.7846  1.2429 -1.2626
  256MOL0     H34540   6.019   8.995  -0.040 -0.5144  1.0523 -2.7528
  256MOL0     H34541   5.828   8.993  -0.193  2.7907 -0.3534 -1.7927
  256MOL0     H34542   5.407   8.866  -0.222  1.5414  2.7805 -0.6661
  256MOL0     H34543   5.174   8.855  -0.335  0.0325 -1.7652  0.7400
  256MOL0     H34544   4.183   9.691   0.073  0.5152  1.1058  0.3681
  256MOL0     H34545   4.157   9.898   0.151 -0.7615  0.4622  0.4752
  256MOL0     H34546   3.720  10.255   0.032  2.2239  1.0233 -1.2043
  256MOL0     H34547   3.692  10.501   0.047  2.5578 -0.3483 -1.0937
  256MOL0     H34548   3.608  10.705   0.205  0.6239  0.1314  1.9588
  256MOL0     H34549   3.701  10.705   0.061 -2.9248  0.3177  0.1755
  256MOL0     H34550   3.797  10.904   0.072 -0.7260 -2.7856 -0.6904
  256MOL0     H34551   3.831  10.889   0.246 -0.0147 -0.6869 -0.8940
  256MOL0     H34552   3.706  11.049   0.257  0.9548 -1.7582  1.9156
  256MOL0     H34553   3.572  10.916   0.286 -1.0350 -0.6655 -0.5959
  256MOL0     H34554   3.613  11.073   0.038 -1.3752  1.2470  0.0490
  256MOL0     H34555   3.510  10.920   0.055 -1.8034  1.5739  0.6249
  256MOL0     H34556   3.274  11.177   0.268  0.7076 -1.3491  2.0855
  256MOL0     H34557   3.897  10.496   0.409  0.3864 -1.4769  1.2018
  256MOL0     H34558   3.988  10.322   0.502 -1.6284 -0.8262  1.2594
  256MOL0     H34559   3.871  10.202   0.504 -1.6063  1.6542 -1.1164
  256MOL0     H34560   4.026  10.174   0.405  1.4914  0.4266  0.7161
  257MOL0     O34561  10.268   3.853   3.188  0.2091  0.3229 -0.7208
  257MOL0     C34562  10.177   3.810   3.111  0.6554 -1.0879  0.4587
  257MOL0     O34563  10.104   3.898   3.020  0.1412  0.5337  0.3920
  257MOL0     C34564  10.161   4.015   2.989  0.7308  0.3286  0.4722
  257MOL0     C34565  10.066   4.124   2.989 -0.5135 -0.1163  0.1093
  257MOL0     C34566  10.104   4.256   2.971 -0.6539 -1.2957 -0.3904
  257MOL0     C34567  10.245   4.281   2.944  0.2404  0.1243 -0.5907
  257MOL0     O34568  10.311   4.394   2.927 -0.4611  0.6591 -0.0304
  257MOL0     C34569  10.247   4.485   2.840  0.1766 -1.2031  0.6316
  257MOL0     C34570  10.342   4.615   2.827  0.2299  1.2170 -0.0157
  257MOL0     C34571  10.479   4.563   2.795 -0.1161  0.7310 -0.3135
  257MOL0     C34572  10.549   4.661   2.701 -0.4452 -0.0883  0.1701
  257MOL0     C34573  10.701   4.652   2.700 -0.1552  0.1897  0.2263
  257MOL0     C34574  10.765   4.509   2.668  0.9369  0.2254 -0.0672
  257MOL0     C34575  10.752   4.493   2.513 -0.3418 -0.2803 -0.2023
  257MOL0     C34576  10.796   4.354   2.464  0.3955 -0.1669 -0.1248
  257MOL0     N34577  10.943   4.334   2.468 -0.1489 -0.2712 -0.0236
  257MOL0     C34578  11.025   4.317   2.576 -0.2798 -0.4520 -0.4051
  257MOL0     C34579  11.145   4.287   2.525 -0.3851  0.4282  0.1648
  257MOL0     C34580  11.262   4.245   2.613 -0.3224  0.7136 -0.7918
  257MOL0     C34581  11.340   4.139   2.546 -1.7899  0.5009  0.1088
  257MOL0     C34582  11.427   4.050   2.646 -0.1716  0.1932 -0.0587
  257MOL0     C34583  11.347   3.944   2.732 -0.2037 -0.2562  0.6752
  257MOL0     O34584  11.444   3.869   2.806  0.3540  0.3462  0.2448
  257MOL0     C34585  11.399   3.758   2.879 -0.0625 -0.6539 -0.6464
  257MOL0     C34586  11.266   3.714   2.881  0.1263  0.2191 -0.2046
  257MOL0     C34587  11.235   3.598   2.951 -0.7887  0.1759 -0.4350
  257MOL0     C34588  11.330   3.537   3.034 -1.0527  0.1966  0.1265
  257MOL0     C34589  11.286   3.448   3.147 -0.0399 -0.0346  0.2487
  257MOL0     O34590  11.171   3.378   3.112  0.2900 -1.0217  0.4249
  257MOL0     C34591  11.134   3.270   3.180  0.6224 -0.1282  0.4618
  257MOL0     C34592  11.001   3.228   3.141 -0.6889  0.7073 -0.5567
  257MOL0     C34593  10.948   3.111   3.188 -0.8433 -0.6067  1.7717
  257MOL0     C34594  11.033   3.016   3.248 -0.2313  0.0382 -0.4266
  257MOL0     O34595  10.991   2.883   3.271  0.2449  0.2607 -0.1557
  257MOL0     C34596  10.894   2.826   3.192  0.1170 -1.4567 -0.2598
  257MOL0     C34597  10.921   2.676   3.163  0.3016 -0.3240  0.6877
  257MOL0     C34598  10.942   2.597   3.295 -1.0399  0.3242 -0.1386
  257MOL0     C34599  11.003   2.460   3.282 -0.9420  0.1397 -0.9081
  257MOL0     C34600  10.991   2.384   3.415 -0.1544  0.5298 -0.8227
  257MOL0     C34601  10.868   2.284   3.410  0.2460 -0.0663  0.5304
  257MOL0     C34602  10.848   2.203   3.535  0.1042 -0.3191 -0.8371
  257MOL0     C34603  10.789   2.281   3.653 -0.7881 -0.4728 -0.3616
  257MOL0    Cl34604  10.794   2.171   3.800  0.5741 -0.0244  0.0005
  257MOL0     C34605  11.161   3.064   3.296  0.6311 -0.6462  0.2755
  257MOL0     C34606  11.202   3.190   3.258 -0.8103 -0.2563 -0.2738
  257MOL0     O34607  11.361   3.420   3.237 -0.9772  0.1018 -0.3791
  257MOL0     C34608  11.468   3.583   3.028 -0.0929 -1.1164 -0.6108
  257MOL0     C34609  11.494   3.698   2.957  0.2908  1.5450 -0.6607
  257MOL0     N34610  11.149   4.299   2.390  0.9822  0.7452 -0.7423
  257MOL0     N34611  11.017   4.310   2.356  0.2627 -0.4047 -0.1843
  257MOL0     C34612  10.332   4.172   2.941 -0.2192 -0.0630  1.3042
  257MOL0     C34613  10.295   4.043   2.964  0.4578 -0.0013 -0.4639
  257MOL0     C34614  10.140   3.666   3.102  0.3405  1.0296 -0.0170
  257MOL0     C34615  10.014   3.636   3.048 -0.4452  0.4182  0.8010
  257MOL0     C34616   9.967   3.500   3.041 -0.6917 -0.0885 -0.4196
  257MOL0     C34617  10.056   3.392   3.077 -0.1849  0.4074  0.6988
  257MOL0     O34618  10.011   3.269   3.046  0.0194  0.7636 -0.1295
  257MOL0     C34619  10.102   3.174   2.998 -0.1776  0.0272 -0.0969
  257MOL0     C34620  10.032   3.044   2.963  0.6696  0.2162 -0.0446
  257MOL0     C34621  10.027   3.014   2.809 -0.2341  0.1902 -0.5595
  257MOL0     C34622   9.982   2.860   2.782 -0.0792  0.3719 -0.5550
  257MOL0     C34623   9.841   2.850   2.821  0.0399  0.0092 -0.8703
  257MOL0     C34624   9.722   2.823   2.843 -0.6351 -0.1418  0.6823
  257MOL0     C34625  10.179   3.422   3.121 -0.8085 -1.3417 -0.1377
  257MOL0     C34626  10.231   3.557   3.141  0.0789 -0.9456 -0.4045
  257MOL0     C34627  10.373   3.574   3.182  0.1716  0.0079  0.2879
  257MOL0     H34628   9.959   4.109   3.003 -0.2761 -1.8923  0.2681
  257MOL0     H34629  10.030   4.334   2.959 -0.2240 -0.7630  0.3486
  257MOL0     H34630  10.253   4.437   2.742 -1.1405 -1.2033  0.5354
  257MOL0     H34631  10.143   4.507   2.868 -0.2479 -0.8997 -1.0153
  257MOL0     H34632  10.342   4.666   2.924 -0.7790  0.0936  0.5996
  257MOL0     H34633  10.301   4.673   2.744  1.3979 -0.4916 -1.8668
  257MOL0     H34634  10.481   4.465   2.746  1.9974 -0.7856  2.4971
  257MOL0     H34635  10.538   4.561   2.887 -0.6843  1.5791  0.0873
  257MOL0     H34636  10.504   4.649   2.603  0.0416 -0.9161  0.0300
  257MOL0     H34637  10.524   4.762   2.735 -0.9237  0.3623 -1.4631
  257MOL0     H34638  10.743   4.730   2.636  4.5583  1.9151  4.7195
  257MOL0     H34639  10.734   4.691   2.797  0.8525  1.2814 -0.5343
  257MOL0     H34640  10.872   4.514   2.689  1.2115  0.1858 -1.3459
  257MOL0     H34641  10.702   4.437   2.721 -0.2633 -0.6633 -2.5473
  257MOL0     H34642  10.823   4.559   2.463  0.2774 -0.3938  0.5066
  257MOL0     H34643  10.647   4.518   2.494  0.2096  4.1239  1.5919
  257MOL0     H34644  10.748   4.279   2.528  1.1952 -1.4036 -0.9271
  257MOL0     H34645  10.758   4.334   2.363  1.6561 -1.0833 -0.4406
  257MOL0     H34646  11.012   4.303   2.683  2.0463  3.6285  0.6170
  257MOL0     H34647  11.327   4.330   2.637 -0.5548 -0.0417  3.3081
  257MOL0     H34648  11.227   4.218   2.713  1.7572  1.4473  0.1875
  257MOL0     H34649  11.285   4.067   2.485 -0.8878  2.3290 -3.1370
  257MOL0     H34650  11.411   4.181   2.473  1.8610 -2.8869  1.3551
  257MOL0     H34651  11.497   4.100   2.714  4.8356 -0.6359 -4.0306
  257MOL0     H34652  11.492   3.990   2.582 -0.9868  0.0388 -0.7584
  257MOL0     H34653  11.283   3.877   2.674 -1.6328  1.7711 -0.1702
  257MOL0     H34654  11.284   3.998   2.803  0.9058  0.3884  1.1991
  257MOL0     H34655  11.179   3.761   2.839 -1.7679 -1.1658  1.9346
  257MOL0     H34656  11.135   3.557   2.963 -0.8208  0.4105  0.1068
  257MOL0     H34657  10.931   3.288   3.083 -2.9857 -1.9354 -0.6762
  257MOL0     H34658  10.849   3.090   3.150 -1.1312  0.8056  1.6834
  257MOL0     H34659  10.798   2.852   3.238 -1.2907  0.6599 -3.9507
  257MOL0     H34660  10.884   2.882   3.098 -2.0874 -3.5471 -1.3905
  257MOL0     H34661  10.836   2.641   3.104 -0.2035  0.9823  0.5850
  257MOL0     H34662  11.013   2.670   3.105 -0.0953  0.9002 -0.1246
  257MOL0     H34663  11.003   2.664   3.355 -0.0028  0.9529 -1.8455
  257MOL0     H34664  10.846   2.592   3.348 -0.8962  1.0494  0.2083
  257MOL0     H34665  11.108   2.480   3.259 -0.5616 -1.6618 -0.8661
  257MOL0     H34666  10.956   2.397   3.207 -1.0284  1.6809 -2.1997
  257MOL0     H34667  10.977   2.450   3.501 -0.0471 -2.1085  1.3397
  257MOL0     H34668  11.082   2.324   3.423 -1.3477 -1.5078 -1.6938
  257MOL0     H34669  10.773   2.336   3.393  2.0184  2.4647 -2.6922
  257MOL0     H34670  10.873   2.213   3.327 -0.5585  2.1015 -1.4870
  257MOL0     H34671  10.948   2.169   3.564  0.3021  2.3738  2.2111
  257MOL0     H34672  10.777   2.120   3.524  0.0268 -0.8108  2.3115
  257MOL0     H34673  10.862   2.358   3.682  4.2179 -4.5233 -0.6949
  257MOL0     H34674  10.688   2.310   3.625 -1.2462 -1.3939  0.3034
  257MOL0     H34675  11.215   3.002   3.367  0.4695  0.0714  1.0383
  257MOL0     H34676  11.291   3.226   3.308  0.5153 -2.0831 -1.1988
  257MOL0     H34677  11.553   3.550   3.086  0.6116  1.1556 -0.2685
  257MOL0     H34678  11.598   3.731   2.958  1.1886 -0.9321  1.7723
  257MOL0     H34679  10.431   4.185   2.896 -0.6173 -1.7907 -0.2057
  257MOL0     H34680  10.363   3.958   2.962  1.2913  0.6653 -0.6596
  257MOL0     H34681   9.942   3.713   3.025 -1.5956 -0.3703  1.6634
  257MOL0     H34682   9.862   3.476   3.021  0.1722 -1.4303 -4.3091
  257MOL0     H34683  10.175   3.159   3.079  0.4618 -0.1146 -0.6825
  257MOL0     H34684  10.162   3.222   2.920 -0.3699  1.5360  0.6504
  257MOL0     H34685   9.933   3.043   3.009 -0.7258 -2.9322 -2.6686
  257MOL0     H34686  10.076   2.966   3.027 -1.2059  1.8165  3.4692
  257MOL0     H34687  10.118   3.040   2.756 -0.9795  0.6086 -1.6570
  257MOL0     H34688   9.948   3.078   2.768 -1.7464  0.7302  2.8100
  257MOL0     H34689   9.989   2.833   2.676  0.8008  0.7317 -0.6050
  257MOL0     H34690  10.042   2.798   2.849 -1.0169 -2.2162 -1.9958
  257MOL0     H34691   9.619   2.799   2.862 -1.0779 -1.8111 -2.8835
  257MOL0     H34692  10.252   3.345   3.143 -0.1487 -0.6185  0.2698
  257MOL0     H34693  10.415   3.475   3.199  2.0050  0.3255 -2.0073
  257MOL0     H34694  10.436   3.627   3.110 -0.7880  0.1231 -0.4869
  257MOL0     H34695  10.373   3.633   3.274 -1.3148 -1.1653  1.0871
  258MOL0     O34696   6.531  11.353   6.924 -0.8651  0.0720 -0.4231
  258MOL0     C34697   6.498  11.441   7.002  0.2834  0.5019 -0.6327
  258MOL0     O34698   6.548  11.452   7.126  0.6603 -0.1977  0.7740
  258MOL0     C34699   6.590  11.334   7.185 -0.1312 -0.8324 -0.3846
  258MOL0     C34700   6.721  11.285   7.164 -0.6563  0.3248 -0.0718
  258MOL0     C34701   6.762  11.181   7.246 -0.6497 -0.4295  0.5832
  258MOL0     C34702   6.682  11.131   7.354  0.2522 -0.6191 -0.4787
  258MOL0     O34703   6.761  11.057   7.447  0.1668 -0.4467  0.2632
  258MOL0     C34704   6.698  10.923   7.472  0.3260 -0.6306 -0.9513
  258MOL0     C34705   6.812  10.822   7.503  0.3381 -0.2992 -0.3528
  258MOL0     C34706   6.828  10.792   7.662 -0.7194 -0.1696  0.2219
  258MOL0     C34707   6.846  10.907   7.750  0.2797 -0.1026  0.3028
  258MOL0     C34708   6.985  10.980   7.712  0.4764  0.1346 -0.2694
  258MOL0     C34709   7.022  11.089   7.806 -1.1385 -0.7197 -0.3837
  258MOL0     C34710   7.152  11.152   7.747 -0.0155 -0.0575 -0.1572
  258MOL0     C34711   7.182  11.287   7.812  0.6223 -0.0174 -0.6176
  258MOL0     N34712   7.128  11.325   7.951  0.0510  0.1228  0.1837
  258MOL0     C34713   7.195  11.314   8.069 -0.4721  0.7915 -0.4888
  258MOL0     C34714   7.113  11.328   8.169 -0.1964  0.2586 -0.2066
  258MOL0     C34715   7.129  11.326   8.317 -0.3882 -0.0259  0.3489
  258MOL0     C34716   7.126  11.190   8.373  0.7909  0.2413 -0.7333
  258MOL0     C34717   7.129  11.210   8.530 -0.5025  0.3691 -0.0127
  258MOL0     C34718   7.123  11.087   8.620 -0.2781  0.6813  0.2916
  258MOL0     O34719   7.165  11.108   8.755 -0.0626 -0.3881  0.4521
  258MOL0     C34720   7.304  11.119   8.760 -0.1026 -0.6571 -0.9779
  258MOL0     C34721   7.393  11.034   8.715 -0.6661 -0.1305 -0.9265
  258MOL0     C34722   7.532  11.060   8.733  0.3785  0.3105  0.2593
  258MOL0     C34723   7.579  11.162   8.809 -0.1744 -0.5785  0.3474
  258MOL0     C34724   7.726  11.182   8.814  0.2517 -0.0785  0.0695
  258MOL0     O34725   7.758  11.263   8.904 -0.1520  0.0205 -0.1164
  258MOL0     C34726   7.868  11.340   8.894 -0.5045  0.1188  1.4935
  258MOL0     C34727   7.937  11.374   8.774 -0.0958  0.1685 -0.0246
  258MOL0     C34728   8.063  11.440   8.788  0.0608 -0.3861 -0.3177
  258MOL0     C34729   8.116  11.474   8.913  0.0876 -0.4107 -0.9538
  258MOL0     O34730   8.237  11.531   8.926  0.1423  0.1264 -0.3635
  258MOL0     C34731   8.342  11.457   8.991 -0.0835  0.1615  0.4787
  258MOL0     C34732   8.465  11.544   8.988  0.2912 -0.2788 -0.0457
  258MOL0     C34733   8.450  11.660   9.085  0.1217 -0.3481 -0.0945
  258MOL0     C34734   8.587  11.732   9.098  0.4612  0.7591 -0.3099
  258MOL0     C34735   8.603  11.815   9.226  0.0707  0.2063  0.3276
  258MOL0     C34736   8.750  11.857   9.234  0.3382 -0.5892  0.4383
  258MOL0     C34737   8.798  11.945   9.357 -0.8786 -0.2428 -0.6570
  258MOL0     C34738   8.782  12.097   9.346 -0.1545 -0.1573  0.9440
  258MOL0    Cl34739   8.833  12.170   9.506 -0.2177  0.0301  0.3127
  258MOL0     C34740   8.041  11.438   9.023  0.0946 -0.1207  0.5144
  258MOL0     C34741   7.919  11.385   9.010  0.1308 -0.0553 -1.1387
  258MOL0     O34742   7.802  11.115   8.745 -0.0280 -0.1562  0.2795
  258MOL0     C34743   7.489  11.253   8.852 -0.7592  0.2256  0.4591
  258MOL0     C34744   7.354  11.228   8.836  0.0112 -0.7311  0.9608
  258MOL0     N34745   6.992  11.373   8.121 -0.2944  0.2573 -0.2177
  258MOL0     N34746   7.001  11.364   7.985 -0.3815  0.2396  0.7832
  258MOL0     C34747   6.558  11.188   7.384 -0.5921  0.2273  0.3616
  258MOL0     C34748   6.516  11.289   7.295 -0.0675 -0.2005 -0.6299
  258MOL0     C34749   6.413  11.541   6.956  0.0763  0.6714  0.7458
  258MOL0     C34750   6.461  11.639   6.863  0.2128  0.4657  1.4747
  258MOL0     C34751   6.381  11.744   6.811  0.2156  0.4500 -0.4831
  258MOL0     C34752   6.248  11.754   6.855  0.1528  0.9830 -0.7338
  258MOL0     O34753   6.167  11.844   6.802 -0.3585 -0.2135  0.1967
  258MOL0     C34754   6.199  11.931   6.697  0.5597 -0.6183 -0.3571
  258MOL0     C34755   6.276  12.066   6.724  0.3373 -0.0853 -0.2307
  258MOL0     C34756   6.196  12.158   6.814 -0.0827 -0.3653  0.7537
  258MOL0     C34757   6.197  12.120   6.956  0.7592 -0.9491  0.1427
  258MOL0     C34758   6.057  12.123   7.002  0.5021  0.2199 -0.1886
  258MOL0     C34759   5.943  12.127   7.046  0.0154 -1.0210  0.2279
  258MOL0     C34760   6.204  11.671   6.947  0.6722  0.7003  0.5038
  258MOL0     C34761   6.282  11.558   6.992  0.8305  0.0035 -0.1008
  258MOL0     C34762   6.218  11.461   7.085  0.1556 -0.4742 -0.6386
  258MOL0     H34763   6.790  11.337   7.098 -0.1812 -1.1750 -0.8286
  258MOL0     H34764   6.868  11.157   7.251 -0.2669  1.0090 -0.1556
  258MOL0     H34765   6.615  10.929   7.543 -0.1057 -2.1965 -1.2912
  258MOL0     H34766   6.651  10.895   7.378  1.3254 -1.0380 -1.3380
  258MOL0     H34767   6.901  10.847   7.443  0.1813 -2.9640 -1.8241
  258MOL0     H34768   6.771  10.727   7.469 -0.0670 -1.0488  2.0691
  258MOL0     H34769   6.914  10.730   7.688  0.1409  0.5617 -0.7663
  258MOL0     H34770   6.736  10.740   7.690 -1.5771  2.0374  1.8205
  258MOL0     H34771   6.769  10.983   7.731  1.1205  1.5327  2.9180
  258MOL0     H34772   6.835  10.871   7.852 -3.6699 -1.6558 -0.4898
  258MOL0     H34773   7.066  10.907   7.706 -1.4354 -2.3337  1.9002
  258MOL0     H34774   6.981  11.027   7.613  2.9366 -0.4715 -0.7424
  258MOL0     H34775   6.945  11.166   7.816 -0.8494 -0.5591  0.6566
  258MOL0     H34776   7.032  11.058   7.910  2.1840  3.6238  0.8984
  258MOL0     H34777   7.152  11.162   7.638 -0.2940 -0.3174 -0.1850
  258MOL0     H34778   7.230  11.079   7.772  0.5317  0.6815  0.3135
  258MOL0     H34779   7.291  11.298   7.811  0.6592  0.7760  2.3446
  258MOL0     H34780   7.142  11.358   7.739 -1.4098  0.2806  0.6880
  258MOL0     H34781   7.302  11.295   8.077 -0.8354 -1.2057  0.2143
  258MOL0     H34782   7.221  11.374   8.352 -0.8030 -0.4655  2.1854
  258MOL0     H34783   7.040  11.373   8.359 -0.7815 -1.4277  1.1500
  258MOL0     H34784   7.029  11.154   8.337  1.7530  1.8249 -5.5266
  258MOL0     H34785   7.200  11.113   8.349  0.3621 -1.5420  2.8542
  258MOL0     H34786   7.056  11.284   8.562 -1.9237  0.4583 -3.1083
  258MOL0     H34787   7.221  11.265   8.552 -0.1519  1.1730 -3.0834
  258MOL0     H34788   7.184  11.013   8.569 -1.5785 -2.5845  3.1256
  258MOL0     H34789   7.026  11.037   8.610  0.3944 -0.1557 -3.6860
  258MOL0     H34790   7.358  10.945   8.662 -0.3089  0.0873 -1.5343
  258MOL0     H34791   7.601  10.990   8.688  1.7607  1.2687  0.8263
  258MOL0     H34792   7.900  11.347   8.676 -1.7232  0.4584  0.4850
  258MOL0     H34793   8.125  11.458   8.700 -0.4578  0.2350 -0.5623
  258MOL0     H34794   8.323  11.438   9.097 -1.2357 -0.6846  0.1345
  258MOL0     H34795   8.379  11.365   8.946  4.1604  1.8817 -0.0481
  258MOL0     H34796   8.547  11.477   9.015 -0.3966 -0.8555  0.6698
  258MOL0     H34797   8.476  11.578   8.885  2.7647  1.0310  0.5746
  258MOL0     H34798   8.373  11.730   9.053  2.1582  1.1186 -2.1228
  258MOL0     H34799   8.426  11.618   9.183  0.7157  0.3791  0.3816
  258MOL0     H34800   8.617  11.786   9.008  0.3974  1.8027  0.2764
  258MOL0     H34801   8.663  11.653   9.096 -0.8647 -0.5915 -2.8067
  258MOL0     H34802   8.585  11.758   9.318  0.2674 -0.1057  0.1779
  258MOL0     H34803   8.526  11.893   9.226 -4.9730 -4.0236 -3.4504
  258MOL0     H34804   8.816  11.770   9.226 -2.5253 -3.0758  1.8484
  258MOL0     H34805   8.764  11.924   9.149 -1.1534 -0.3954  0.3149
  258MOL0     H34806   8.903  11.919   9.369 -0.7964 -0.4716 -1.7997
  258MOL0     H34807   8.737  11.908   9.439 -2.5358  1.1071 -1.2107
  258MOL0     H34808   8.858  12.139   9.279 -0.0945 -1.8373 -0.0896
  258MOL0     H34809   8.676  12.111   9.322 -0.1813 -0.5022  0.8581
  258MOL0     H34810   8.081  11.452   9.123 -0.0681 -2.4280  0.9602
  258MOL0     H34811   7.874  11.368   9.107 -0.2819 -2.7134 -1.7076
  258MOL0     H34812   7.520  11.339   8.911 -1.0861  1.0920 -0.6043
  258MOL0     H34813   7.284  11.301   8.877  1.0679  0.3846  0.8127
  258MOL0     H34814   6.497  11.163   7.470 -2.0678  0.1281 -0.6896
  258MOL0     H34815   6.421  11.339   7.310  0.3220  0.4789 -0.3576
  258MOL0     H34816   6.565  11.636   6.834 -0.2790  4.3881 -1.5109
  258MOL0     H34817   6.431  11.815   6.745  1.8901  0.2889  0.5387
  258MOL0     H34818   6.103  11.957   6.652  1.3858  0.7161 -1.4404
  258MOL0     H34819   6.251  11.878   6.617  0.0174 -1.3619 -0.2217
  258MOL0     H34820   6.296  12.115   6.628  1.1695 -0.6987 -0.3788
  258MOL0     H34821   6.366  12.052   6.784  1.7835  0.9229 -2.0545
  258MOL0     H34822   6.093  12.169   6.778  0.5270 -0.2182 -1.0330
  258MOL0     H34823   6.241  12.257   6.813 -1.1362  0.1305  1.1810
  258MOL0     H34824   6.233  12.017   6.961 -0.8932 -1.6100 -0.9037
  258MOL0     H34825   6.265  12.181   7.017 -0.3001  1.3617 -0.8484
  258MOL0     H34826   5.850  12.104   7.094 -0.3990 -1.1494 -0.6152
  258MOL0     H34827   6.098  11.675   6.969  0.7906  2.1311  0.9713
  258MOL0     H34828   6.111  11.446   7.069  0.5047 -1.2680 -2.4315
  258MOL0     H34829   6.270  11.365   7.092 -0.7587 -0.9337  4.5578
  258MOL0     H34830   6.219  11.512   7.182 -1.0942  2.0031 -1.8491
  259MOL0     O34831   0.817   1.747   4.619  0.9818  0.4453  0.1486
  259MOL0     C34832   0.762   1.820   4.706  0.1374  0.6504 -0.4295
  259MOL0     O34833   0.663   1.923   4.683 -0.2549  0.8523  0.6983
  259MOL0     C34834   0.592   1.917   4.566 -0.5026 -0.4555 -0.0804
  259MOL0     C34835   0.520   1.806   4.524 -0.0342 -0.1380 -0.9310
  259MOL0     C34836   0.439   1.812   4.409  0.9338  0.4240 -0.3966
  259MOL0     C34837   0.435   1.922   4.327 -0.2141 -1.2009  0.6575
  259MOL0     O34838   0.380   1.928   4.199  0.6544  0.1996  0.1194
  259MOL0     C34839   0.292   1.820   4.161  0.1361 -0.6726 -1.2303
  259MOL0     C34840   0.201   1.870   4.048 -0.6367 -0.6150  0.0444
  259MOL0     C34841   0.066   1.924   4.102 -1.0678  0.0546 -0.2101
  259MOL0     C34842  -0.011   1.981   3.986 -0.1096 -0.7328 -0.4131
  259MOL0     C34843  -0.137   2.044   4.042  0.5347 -0.0322  0.1119
  259MOL0     C34844  -0.211   2.116   3.919 -0.4484  0.7290 -0.5659
  259MOL0     C34845  -0.355   2.133   3.952 -0.2318  0.1346 -1.4573
  259MOL0     C34846  -0.369   2.220   4.082  0.5678 -0.2968  0.6206
  259MOL0     N34847  -0.510   2.275   4.083  0.0614  0.1933 -0.0352
  259MOL0     C34848  -0.530   2.403   4.028  0.4218  0.1298 -0.0813
  259MOL0     C34849  -0.664   2.419   4.039  0.4229  0.2688  0.2696
  259MOL0     C34850  -0.736   2.544   3.986  0.8986 -0.5522 -0.6339
  259MOL0     C34851  -0.878   2.501   3.948  0.2173 -0.0930 -0.2657
  259MOL0     C34852  -0.986   2.485   4.068 -0.2065 -0.3229  1.0348
  259MOL0     C34853  -1.114   2.414   4.018  0.8906  0.4531 -0.0641
  259MOL0     O34854  -1.149   2.469   3.885  0.3622  0.5346  0.5161
  259MOL0     C34855  -1.238   2.389   3.807 -0.6671 -0.2584  0.4775
  259MOL0     C34856  -1.277   2.457   3.691  0.6260 -0.6416 -0.7672
  259MOL0     C34857  -1.361   2.396   3.601  0.6551 -0.7769 -0.0305
  259MOL0     C34858  -1.404   2.264   3.622  0.2799 -0.5424 -0.2236
  259MOL0     C34859  -1.510   2.207   3.531  0.3806  0.2206 -0.2501
  259MOL0     O34860  -1.542   2.267   3.417  0.5136 -1.0891 -0.0598
  259MOL0     C34861  -1.634   2.218   3.338  0.1576  0.7382 -0.3636
  259MOL0     C34862  -1.765   2.273   3.329 -1.4244 -0.0737  0.2414
  259MOL0     C34863  -1.859   2.233   3.241  0.0896  0.2898 -0.2425
  259MOL0     C34864  -1.842   2.117   3.177 -0.2569 -0.5356  0.4284
  259MOL0     O34865  -1.945   2.066   3.101  0.7832  0.3426  0.3427
  259MOL0     C34866  -2.051   2.020   3.191  0.2030  0.4205 -0.3602
  259MOL0     C34867  -2.156   1.947   3.109  0.6336  0.0839  0.5756
  259MOL0     C34868  -2.101   1.814   3.085  0.7230  0.4328  0.6643
  259MOL0     C34869  -2.185   1.724   2.988  0.0244 -0.6970 -0.7222
  259MOL0     C34870  -2.107   1.614   2.915  1.3495 -0.6062 -0.0663
  259MOL0     C34871  -2.209   1.521   2.833 -0.4672 -0.8217 -0.4546
  259MOL0     C34872  -2.135   1.434   2.735  0.6413  0.9585 -0.0989
  259MOL0     C34873  -2.228   1.329   2.674 -0.8524  0.3559 -0.1847
  259MOL0    Cl34874  -2.156   1.204   2.561  0.1187  0.6684  0.3529
  259MOL0     C34875  -1.717   2.059   3.182 -0.0109 -0.2110 -0.1588
  259MOL0     C34876  -1.616   2.107   3.270 -0.0434  0.3606  0.9918
  259MOL0     O34877  -1.561   2.097   3.570  1.1525 -0.4549  0.4391
  259MOL0     C34878  -1.363   2.198   3.738  0.5023  0.7510 -0.9793
  259MOL0     C34879  -1.288   2.256   3.832  0.0679 -0.2512 -0.9498
  259MOL0     N34880  -0.718   2.302   4.101 -0.3982 -0.2311 -0.6621
  259MOL0     N34881  -0.619   2.221   4.145 -0.0389 -0.5673  0.1519
  259MOL0     C34882   0.498   2.036   4.370 -1.3855 -0.7542  0.1601
  259MOL0     C34883   0.582   2.039   4.492  0.4640 -0.6163  0.4226
  259MOL0     C34884   0.817   1.816   4.851  0.4714  0.2458  0.0652
  259MOL0     C34885   0.724   1.847   4.952  0.0944  0.3778 -0.7105
  259MOL0     C34886   0.753   1.817   5.084 -0.0135  0.4021  0.2854
  259MOL0     C34887   0.876   1.761   5.120 -0.0147  1.1776  0.1407
  259MOL0     O34888   0.912   1.729   5.244 -0.2008 -0.1205  0.1247
  259MOL0     C34889   0.886   1.825   5.350  0.1026  0.0861 -0.1757
  259MOL0     C34890   0.984   1.943   5.336  0.3518 -0.2425  0.1119
  259MOL0     C34891   1.130   1.893   5.334  0.0069 -0.6645  0.0485
  259MOL0     C34892   1.216   1.978   5.228 -0.3936  1.1128 -0.5176
  259MOL0     C34893   1.233   2.112   5.283 -0.8893 -0.5704 -0.2244
  259MOL0     C34894   1.243   2.224   5.337  0.2814  0.7557 -0.0270
  259MOL0     C34895   0.971   1.736   5.021  0.6062 -1.2671  0.2438
  259MOL0     C34896   0.949   1.774   4.888  0.6284 -1.5198  1.6590
  259MOL0     C34897   1.065   1.756   4.790 -0.8611 -0.3134  0.2134
  259MOL0     H34898   0.514   1.723   4.594 -0.6943  1.3974  0.9244
  259MOL0     H34899   0.381   1.723   4.388  2.6038 -0.9104  0.3367
  259MOL0     H34900   0.351   1.735   4.126 -0.4189 -0.9850 -1.4039
  259MOL0     H34901   0.229   1.778   4.239  0.5207 -1.3351 -1.2722
  259MOL0     H34902   0.176   1.793   3.975 -1.5373  1.1989 -1.6607
  259MOL0     H34903   0.236   1.957   3.991 -3.0575 -2.7868 -5.3952
  259MOL0     H34904   0.073   1.989   4.190  0.8092  1.4618 -1.3218
  259MOL0     H34905   0.005   1.840   4.137 -1.1905  0.2734  0.1034
  259MOL0     H34906   0.042   2.069   3.948 -0.6644 -0.3233 -0.2734
  259MOL0     H34907  -0.031   1.914   3.902  1.9157 -1.4318 -0.3683
  259MOL0     H34908  -0.201   1.968   4.088 -0.8655  2.1251  2.0039
  259MOL0     H34909  -0.106   2.111   4.122  0.3651  1.0409 -0.6921
  259MOL0     H34910  -0.157   2.206   3.889  4.1224 -1.7460 -0.8178
  259MOL0     H34911  -0.204   2.044   3.837 -2.7441  0.1117 -0.2784
  259MOL0     H34912  -0.393   2.031   3.964 -0.5566  0.3552 -0.5072
  259MOL0     H34913  -0.406   2.174   3.864 -1.4202 -1.1569 -1.4020
  259MOL0     H34914  -0.348   2.155   4.167 -0.1372 -0.9375  0.3163
  259MOL0     H34915  -0.294   2.299   4.085  0.5710 -0.2996  0.6242
  259MOL0     H34916  -0.457   2.477   3.994  0.0838 -0.1022 -1.3599
  259MOL0     H34917  -0.747   2.634   4.047 -0.6156  0.4352 -2.2441
  259MOL0     H34918  -0.689   2.583   3.895 -0.0543  1.1492 -0.4537
  259MOL0     H34919  -0.921   2.561   3.868 -1.8909 -2.6917 -1.2409
  259MOL0     H34920  -0.858   2.405   3.900 -1.4991 -0.9763  0.6616
  259MOL0     H34921  -1.016   2.587   4.096  2.2992  0.2002  2.1440
  259MOL0     H34922  -0.938   2.428   4.148 -1.3372 -2.0773  0.5242
  259MOL0     H34923  -1.199   2.427   4.085  0.8867 -0.2959  0.0905
  259MOL0     H34924  -1.098   2.305   4.015 -0.5958  0.2015  0.5852
  259MOL0     H34925  -1.238   2.558   3.678  1.4695 -0.8556 -0.0102
  259MOL0     H34926  -1.409   2.454   3.523  0.6633 -1.7650 -0.7909
  259MOL0     H34927  -1.784   2.363   3.388 -1.7300 -1.2182  1.9486
  259MOL0     H34928  -1.953   2.285   3.259  0.8568  1.9032 -0.6889
  259MOL0     H34929  -2.007   1.954   3.266  1.5245  1.0578 -0.5412
  259MOL0     H34930  -2.089   2.105   3.249 -0.9556 -1.5457  1.9744
  259MOL0     H34931  -2.252   1.945   3.161  0.4761 -2.6939  0.3267
  259MOL0     H34932  -2.173   1.999   3.014 -0.3158 -1.9863 -0.4514
  259MOL0     H34933  -2.002   1.831   3.041  0.5029  2.6513  0.9085
  259MOL0     H34934  -2.096   1.750   3.173  1.5514 -2.9212 -1.6630
  259MOL0     H34935  -2.223   1.773   2.898 -0.9730 -3.8725 -2.1675
  259MOL0     H34936  -2.262   1.679   3.051  3.1834  0.8986  4.9529
  259MOL0     H34937  -2.047   1.565   2.992  2.7557  2.2463  0.7668
  259MOL0     H34938  -2.045   1.661   2.839  1.7320 -0.9186  0.0500
  259MOL0     H34939  -2.268   1.463   2.904  0.2723  0.9873  1.7593
  259MOL0     H34940  -2.286   1.583   2.787 -1.4547  0.3312  2.5206
  259MOL0     H34941  -2.048   1.385   2.779  1.2204  2.0402 -0.0117
  259MOL0     H34942  -2.102   1.504   2.658  2.6930  2.1011  1.6859
  259MOL0     H34943  -2.288   1.277   2.749  1.5201 -2.8528 -0.2997
  259MOL0     H34944  -2.287   1.388   2.603  2.4469  3.4624 -0.6754
  259MOL0     H34945  -1.678   1.972   3.130 -1.9894 -1.9904  1.1984
  259MOL0     H34946  -1.522   2.052   3.267 -0.7889 -1.0190 -2.5364
  259MOL0     H34947  -1.403   2.104   3.774  2.3953  1.4219  3.5819
  259MOL0     H34948  -1.270   2.198   3.922 -1.5335 -0.1779 -0.5405
  259MOL0     H34949   0.466   2.124   4.315 -4.1526 -0.9210  1.3515
  259MOL0     H34950   0.638   2.127   4.520 -2.3756  1.0486  1.2444
  259MOL0     H34951   0.626   1.890   4.933 -0.4654  0.2872  1.6493
  259MOL0     H34952   0.675   1.837   5.157  2.3119  0.5085  2.9414
  259MOL0     H34953   0.902   1.778   5.447 -1.4369  0.7307  0.4231
  259MOL0     H34954   0.782   1.860   5.347 -0.3007 -1.1211 -0.8586
  259MOL0     H34955   0.972   2.005   5.426 -0.9581 -2.6690  1.7293
  259MOL0     H34956   0.955   2.009   5.254 -0.9994 -1.3647 -0.3477
  259MOL0     H34957   1.140   1.785   5.316  2.9871 -0.2404 -1.5008
  259MOL0     H34958   1.182   1.900   5.430 -1.5058  0.2774  0.8499
  259MOL0     H34959   1.308   1.929   5.194 -0.9780 -0.0978 -0.4049
  259MOL0     H34960   1.159   1.996   5.137 -1.0655 -1.0085 -0.5625
  259MOL0     H34961   1.228   2.322   5.378 -1.6646  0.3009  0.4994
  259MOL0     H34962   1.069   1.690   5.030  0.5203 -1.9145 -1.7487
  259MOL0     H34963   1.036   1.778   4.686  4.0607  0.8797 -1.1646
  259MOL0     H34964   1.140   1.832   4.813 -2.7617  1.0818  2.1875
  259MOL0     H34965   1.099   1.652   4.794 -0.6992 -0.2185  1.8273
  260MOL0     O34966   8.007   6.055   6.085 -0.8663  0.0872 -0.5766
  260MOL0     C34967   8.069   5.945   6.065  0.7750  0.5247  0.7246
  260MOL0     O34968   8.070   5.825   6.140  0.0288 -0.3714  0.7539
  260MOL0     C34969   7.996   5.830   6.256 -0.1545 -0.1312 -0.4171
  260MOL0     C34970   8.020   5.916   6.363  0.4404  0.2744  0.7616
  260MOL0     C34971   7.943   5.904   6.479  0.2740 -0.0996 -0.8972
  260MOL0     C34972   7.843   5.808   6.504 -0.7111 -0.5176  0.9567
  260MOL0     O34973   7.764   5.820   6.608 -0.3804  0.2361 -0.0119
  260MOL0     C34974   7.657   5.730   6.631  0.5377 -0.3300  0.0386
  260MOL0     C34975   7.544   5.751   6.533  0.2706 -0.7608  0.1618
  260MOL0     C34976   7.446   5.877   6.565 -0.3352 -0.1809  0.1056
  260MOL0     C34977   7.515   6.011   6.601 -0.1717  0.5729 -0.5761
  260MOL0     C34978   7.424   6.130   6.633  0.9336  0.0234  0.7516
  260MOL0     C34979   7.377   6.188   6.501  0.4416 -0.1543 -0.7252
  260MOL0     C34980   7.478   6.268   6.413 -0.1530  0.8255 -0.0260
  260MOL0     C34981   7.524   6.383   6.495 -0.2159 -0.3001  0.0444
  260MOL0     N34982   7.570   6.486   6.405 -0.8259 -0.9969 -0.7044
  260MOL0     C34983   7.698   6.527   6.388  0.2229 -0.0197 -0.1447
  260MOL0     C34984   7.687   6.662   6.349  0.4627  0.7317  0.2958
  260MOL0     C34985   7.798   6.756   6.315 -0.4779  0.1835  1.1139
  260MOL0     C34986   7.827   6.776   6.161 -0.1406 -0.4724 -0.9296
  260MOL0     C34987   7.966   6.795   6.122 -0.4333  0.1055 -0.5627
  260MOL0     C34988   7.995   6.832   5.972 -0.0772  0.2593 -0.1491
  260MOL0     O34989   8.136   6.835   5.953 -0.6015 -0.7007 -0.4685
  260MOL0     C34990   8.166   6.866   5.824  1.3987 -0.8907  0.4695
  260MOL0     C34991   8.188   6.774   5.720 -0.7625 -0.0596  1.0983
  260MOL0     C34992   8.210   6.812   5.586 -0.0263  0.0430  0.1754
  260MOL0     C34993   8.224   6.950   5.556  0.9078 -0.7156 -0.1688
  260MOL0     C34994   8.272   7.000   5.427  0.1552  0.6594  0.1999
  260MOL0     O34995   8.301   6.907   5.335  0.4487  0.0923  0.4516
  260MOL0     C34996   8.334   6.938   5.204  0.2881 -0.3696 -1.4491
  260MOL0     C34997   8.261   6.868   5.109  0.2100  0.1546  0.0347
  260MOL0     C34998   8.286   6.894   4.973  0.6105 -0.3534  0.5256
  260MOL0     C34999   8.394   6.981   4.935 -0.0210  1.1826  0.5753
  260MOL0     O35000   8.435   7.020   4.805  0.1243 -0.5060 -0.0044
  260MOL0     C35001   8.347   6.993   4.692 -0.1112 -0.0980  0.5419
  260MOL0     C35002   8.415   7.026   4.556  0.0042  1.4234  0.4987
  260MOL0     C35003   8.322   7.078   4.447 -0.7819  0.6083  0.5921
  260MOL0     C35004   8.403   7.050   4.310  0.4716 -0.1572 -0.2600
  260MOL0     C35005   8.348   7.119   4.187  0.2586  0.0595  0.2141
  260MOL0     C35006   8.426   7.071   4.059 -0.6059 -0.1673 -0.1802
  260MOL0     C35007   8.417   6.920   4.030 -0.4432  0.4376 -0.1023
  260MOL0     C35008   8.461   6.893   3.884 -0.9811 -0.2604  0.6037
  260MOL0    Cl35009   8.481   6.726   3.864  0.2426 -0.3232  0.2602
  260MOL0     C35010   8.464   7.044   5.033 -0.3874  0.9419 -0.7325
  260MOL0     C35011   8.440   7.023   5.168  0.0418  0.0556 -0.5565
  260MOL0     O35012   8.265   7.121   5.410  0.1005  0.5441  0.0969
  260MOL0     C35013   8.204   7.038   5.661 -0.4076 -0.3373 -0.2444
  260MOL0     C35014   8.173   6.995   5.794 -0.1504  1.6546  0.5464
  260MOL0     N35015   7.553   6.689   6.324 -1.1027 -0.5762 -0.0456
  260MOL0     N35016   7.486   6.592   6.370  0.2553  0.5824 -1.1804
  260MOL0     C35017   7.832   5.720   6.398  0.6734  0.0077  0.2345
  260MOL0     C35018   7.899   5.727   6.277  0.4112 -0.6372  0.3588
  260MOL0     C35019   8.134   5.945   5.935  0.6396  0.0333 -0.3636
  260MOL0     C35020   8.055   5.986   5.825  0.2036 -0.1172  0.2459
  260MOL0     C35021   8.101   5.966   5.694 -0.0999  1.0890  0.2149
  260MOL0     C35022   8.233   5.918   5.672  0.5622 -0.3471 -0.0798
  260MOL0     O35023   8.268   5.888   5.537  0.9128 -0.0774 -0.2833
  260MOL0     C35024   8.350   5.770   5.508 -0.3476  0.2915  0.1206
  260MOL0     C35025   8.266   5.643   5.479  0.0122 -0.0407  0.5365
  260MOL0     C35026   8.353   5.517   5.465 -0.2132  0.4362  0.7417
  260MOL0     C35027   8.351   5.466   5.312 -0.1590 -1.0731  0.1017
  260MOL0     C35028   8.407   5.554   5.207  0.5893 -0.8752 -0.3179
  260MOL0     C35029   8.466   5.614   5.121  0.1346  1.1342  0.1962
  260MOL0     C35030   8.314   5.901   5.785  0.1269 -0.4909  0.3873
  260MOL0     C35031   8.269   5.915   5.919  0.2443 -0.2185 -1.0175
  260MOL0     C35032   8.370   5.852   6.023 -0.3792  0.3397  0.2299
  260MOL0     H35033   8.117   5.963   6.357  2.7687 -4.1147 -1.8473
  260MOL0     H35034   7.978   5.965   6.562 -2.0000 -0.0054  0.0634
  260MOL0     H35035   7.694   5.628   6.641 -1.7388 -1.0781  1.6471
  260MOL0     H35036   7.611   5.756   6.727 -3.6090 -1.6649 -1.3474
  260MOL0     H35037   7.473   5.668   6.529  0.3347 -0.9529  2.2887
  260MOL0     H35038   7.587   5.767   6.433  1.1223 -1.9649  0.3143
  260MOL0     H35039   7.371   5.838   6.635  2.3030 -0.7730  2.8154
  260MOL0     H35040   7.386   5.894   6.475 -0.0325  1.7991  0.2241
  260MOL0     H35041   7.575   6.001   6.692 -1.0843  0.2596  0.0029
  260MOL0     H35042   7.574   6.040   6.513  0.3331  2.4466  0.3177
  260MOL0     H35043   7.340   6.090   6.690  1.0373 -0.9528  0.2414
  260MOL0     H35044   7.460   6.218   6.687 -0.1350  1.9664 -1.5071
  260MOL0     H35045   7.344   6.116   6.426 -4.0076  1.7071 -0.8612
  260MOL0     H35046   7.285   6.244   6.522 -0.3254 -1.6603  0.0524
  260MOL0     H35047   7.426   6.313   6.328  1.9960  0.5452 -1.5690
  260MOL0     H35048   7.565   6.211   6.380  1.1578  2.9055 -0.3214
  260MOL0     H35049   7.445   6.413   6.565 -0.0405 -0.8356  0.4848
  260MOL0     H35050   7.600   6.351   6.567 -1.4669 -4.5887 -0.2526
  260MOL0     H35051   7.791   6.482   6.421  0.7590  0.2922 -1.1879
  260MOL0     H35052   7.760   6.852   6.353  0.6068  1.0541  0.0653
  260MOL0     H35053   7.893   6.732   6.365  1.2332  1.5768 -1.2523
  260MOL0     H35054   7.778   6.706   6.092 -1.0689 -0.8669  0.0901
  260MOL0     H35055   7.791   6.878   6.142  3.2334  1.2490  1.0570
  260MOL0     H35056   8.022   6.702   6.138  0.2543  0.3767 -1.3597
  260MOL0     H35057   8.026   6.857   6.188  0.9351 -0.3602 -1.3243
  260MOL0     H35058   7.941   6.927   5.962 -1.7107  0.0868  4.5346
  260MOL0     H35059   7.953   6.757   5.905  1.5581 -0.8241 -0.0016
  260MOL0     H35060   8.197   6.668   5.743 -0.6886 -0.4413 -0.6010
  260MOL0     H35061   8.236   6.732   5.517  1.2969  1.7957 -1.4315
  260MOL0     H35062   8.180   6.809   5.149 -1.6090  0.2277 -3.1747
  260MOL0     H35063   8.218   6.855   4.898  4.6021 -1.8965 -2.6324
  260MOL0     H35064   8.315   6.888   4.701  1.7991 -0.5575  3.7002
  260MOL0     H35065   8.251   7.044   4.697 -2.1883 -3.2923 -2.1800
  260MOL0     H35066   8.500   7.092   4.578  1.3868 -0.2424  0.3566
  260MOL0     H35067   8.460   6.932   4.522  2.1276  3.0501 -1.5521
  260MOL0     H35068   8.233   7.015   4.442 -1.8400  2.0655  0.5608
  260MOL0     H35069   8.298   7.182   4.468 -2.1650  0.4339 -0.0553
  260MOL0     H35070   8.408   6.941   4.297 -1.5475 -0.1903 -1.1092
  260MOL0     H35071   8.507   7.082   4.316  0.9051 -1.2881 -1.3251
  260MOL0     H35072   8.354   7.228   4.189 -2.0045  0.2652 -1.0106
  260MOL0     H35073   8.243   7.091   4.176  0.0853  0.8888 -0.3497
  260MOL0     H35074   8.396   7.131   3.973 -1.3253 -0.3456 -0.0546
  260MOL0     H35075   8.529   7.104   4.073 -0.6065 -0.9982  2.2094
  260MOL0     H35076   8.313   6.885   4.031 -0.1719 -0.3662  0.5166
  260MOL0     H35077   8.477   6.854   4.093  0.4105  0.4842 -0.8479
  260MOL0     H35078   8.396   6.934   3.807  1.0966  0.7514 -0.6928
  260MOL0     H35079   8.562   6.931   3.867 -1.6924  0.4999 -2.5855
  260MOL0     H35080   8.553   7.099   5.003 -1.1903  1.0395 -3.1603
  260MOL0     H35081   8.500   7.072   5.244 -1.1363  2.8993 -1.3255
  260MOL0     H35082   8.224   7.143   5.643 -2.6004  0.1875  0.0647
  260MOL0     H35083   8.165   7.071   5.872 -0.1344  0.3371  1.8643
  260MOL0     H35084   7.762   5.637   6.404 -0.0654  0.6566  0.8656
  260MOL0     H35085   7.866   5.653   6.204 -2.3746 -2.4945  3.2277
  260MOL0     H35086   7.955   6.018   5.852 -0.3556 -0.9680 -0.7649
  260MOL0     H35087   8.040   5.988   5.607  2.6946 -0.7177 -2.4427
  260MOL0     H35088   8.410   5.747   5.597 -0.3717 -0.1979  0.0173
  260MOL0     H35089   8.417   5.790   5.424 -2.3847  0.3406 -1.5659
  260MOL0     H35090   8.204   5.662   5.391 -1.1155 -0.6945  1.1614
  260MOL0     H35091   8.211   5.647   5.573  1.9398  0.0475  1.7157
  260MOL0     H35092   8.308   5.435   5.522 -0.9534  0.4184  0.1566
  260MOL0     H35093   8.456   5.533   5.497  0.2540 -0.3017 -0.3391
  260MOL0     H35094   8.405   5.372   5.293  0.8977 -0.5323  0.3333
  260MOL0     H35095   8.247   5.447   5.286 -0.3364 -0.1921  0.1556
  260MOL0     H35096   8.529   5.661   5.049  4.1670 -2.7727  0.7453
  260MOL0     H35097   8.421   5.894   5.765  0.1229 -0.4058  0.3334
  260MOL0     H35098   8.390   5.749   5.992  1.1211  0.9317 -0.8465
  260MOL0     H35099   8.461   5.911   6.012 -0.1022  0.0547  0.9481
  260MOL0     H35100   8.339   5.840   6.127  1.9289 -0.7787  0.8659
  261MOL0     O35101   8.961   9.548  10.041  0.1474  0.2869 -0.6786
  261MOL0     C35102   9.024   9.469   9.983 -0.3260  0.3677  0.2183
  261MOL0     O35103   9.159   9.465   9.981  0.2647 -0.6420  0.3819
  261MOL0     C35104   9.218   9.587  10.006  0.3398 -0.8436 -0.9744
  261MOL0     C35105   9.257   9.668   9.909  0.1945 -0.7752 -0.2429
  261MOL0     C35106   9.336   9.789   9.929 -0.0998  0.4299  0.4917
  261MOL0     C35107   9.384   9.821  10.058  0.4035 -0.3567 -0.2452
  261MOL0     O35108   9.462   9.933  10.081  0.7223  0.1216 -0.8135
  261MOL0     C35109   9.458  10.047   9.989 -0.5780 -0.3507 -0.1857
  261MOL0     C35110   9.519  10.169  10.072  0.7652  0.4081 -0.7653
  261MOL0     C35111   9.405  10.268  10.119  0.2712 -0.0072 -0.1267
  261MOL0     C35112   9.288  10.223  10.210 -0.3063 -0.1151  0.2535
  261MOL0     C35113   9.192  10.340  10.209  0.1256  1.4188  0.4930
  261MOL0     C35114   9.218  10.445  10.314 -0.5288  0.5014  0.2321
  261MOL0     C35115   9.099  10.523  10.365 -0.4203  0.6698 -0.0464
  261MOL0     C35116   9.025  10.456  10.482  0.6599  0.3634  1.0278
  261MOL0     N35117   8.933  10.552  10.556 -0.2210 -0.2857  0.6889
  261MOL0     C35118   8.864  10.658  10.506  0.9166 -0.2752 -0.7819
  261MOL0     C35119   8.819  10.709  10.624  0.3046 -0.8453  0.7081
  261MOL0     C35120   8.739  10.836  10.647 -0.2628  0.1329  0.8665
  261MOL0     C35121   8.596  10.822  10.600 -0.0773  0.0157  1.0262
  261MOL0     C35122   8.566  10.817  10.440 -0.2314  0.1042 -0.4187
  261MOL0     C35123   8.615  10.947  10.377  0.7068 -0.7411 -0.5188
  261MOL0     O35124   8.635  10.916  10.242 -0.5592 -0.1020 -0.2700
  261MOL0     C35125   8.765  10.893  10.211 -0.2149 -1.0296 -0.6068
  261MOL0     C35126   8.866  10.993  10.220 -0.4515 -0.5076 -0.1082
  261MOL0     C35127   8.997  10.960  10.184 -0.9314 -0.6292  0.9002
  261MOL0     C35128   9.031  10.828  10.142  0.4781  0.2207  0.0583
  261MOL0     C35129   9.172  10.789  10.125 -0.7345  0.4074 -0.1552
  261MOL0     O35130   9.204  10.730  10.008  0.8924 -0.1186  0.5282
  261MOL0     C35131   9.335  10.701   9.982  0.1037 -0.9900  0.8216
  261MOL0     C35132   9.428  10.811   9.979  0.7507 -0.6775  0.2158
  261MOL0     C35133   9.562  10.779   9.964  1.1612 -1.2615 -0.6065
  261MOL0     C35134   9.599  10.652   9.936 -0.5699  1.1797  0.4563
  261MOL0     O35135   9.733  10.630   9.915 -0.1734 -0.4901 -1.2312
  261MOL0     C35136   9.782  10.515   9.993  0.6848 -0.7791  0.3520
  261MOL0     C35137   9.891  10.562  10.091 -1.3241 -0.3586 -0.0513
  261MOL0     C35138  10.011  10.639  10.025  1.1015 -0.4569 -0.8448
  261MOL0     C35139  10.133  10.619  10.116  0.5017  0.0169 -0.7076
  261MOL0     C35140  10.247  10.697  10.061  0.3296 -0.9719 -1.7724
  261MOL0     C35141  10.233  10.857  10.097  1.0124  0.7096 -0.8083
  261MOL0     C35142  10.253  10.942   9.964 -0.6552  0.5084 -0.3145
  261MOL0     C35143  10.396  10.942   9.903 -0.7974 -0.8107 -0.7643
  261MOL0    Cl35144  10.395  11.000   9.730 -0.1709  0.4578  0.1378
  261MOL0     C35145   9.506  10.547   9.919 -0.2258 -0.2781  0.5025
  261MOL0     C35146   9.367  10.572   9.949 -1.1177  0.2331 -0.7429
  261MOL0     O35147   9.253  10.830  10.203 -0.2728 -0.3498  0.2224
  261MOL0     C35148   8.925  10.735  10.115 -0.4216 -0.1604 -0.3170
  261MOL0     C35149   8.797  10.768  10.154 -0.3532 -0.0851  0.5631
  261MOL0     N35150   8.851  10.636  10.731  0.2285  0.4416 -0.3106
  261MOL0     N35151   8.925  10.541  10.689 -0.0104  0.0914  0.0155
  261MOL0     C35152   9.365   9.718  10.158 -0.1101 -0.4057 -0.2862
  261MOL0     C35153   9.279   9.607  10.132 -0.2765 -0.0174 -0.0454
  261MOL0     C35154   8.961   9.341   9.939  0.4301 -0.5813  1.3486
  261MOL0     C35155   9.037   9.226   9.899  0.2314 -0.1558  0.4533
  261MOL0     C35156   8.984   9.099   9.861 -0.1076 -0.3100 -0.6444
  261MOL0     C35157   8.844   9.091   9.858  0.4142 -0.3739  0.3897
  261MOL0     O35158   8.767   8.982   9.824  0.8066  0.0963  0.4034
  261MOL0     C35159   8.830   8.847   9.801 -0.2116  0.4933 -0.1367
  261MOL0     C35160   8.878   8.835   9.656 -0.1688 -0.4467  0.4047
  261MOL0     C35161   8.770   8.897   9.558  0.5829  0.0580 -0.2890
  261MOL0     C35162   8.796   8.875   9.409 -0.8989 -0.2619  0.0480
  261MOL0     C35163   8.693   8.924   9.325  0.5062 -0.2432  0.4402
  261MOL0     C35164   8.598   8.943   9.250 -0.4133  0.0594  0.0040
  261MOL0     C35165   8.767   9.198   9.889  0.5425 -0.7630 -0.0236
  261MOL0     C35166   8.816   9.321   9.940 -0.2043 -0.1127 -0.1729
  261MOL0     C35167   8.704   9.419   9.965 -0.0597 -1.0001 -0.1425
  261MOL0     H35168   9.235   9.644   9.806  1.9027 -2.2582 -0.3189
  261MOL0     H35169   9.349   9.843   9.836 -1.5545 -0.5694 -0.3257
  261MOL0     H35170   9.515  10.039   9.897  0.1115  5.1307 -0.6000
  261MOL0     H35171   9.356  10.075   9.961 -0.7997  0.8769  1.6347
  261MOL0     H35172   9.598  10.220  10.015  1.6157  0.3879  0.3619
  261MOL0     H35173   9.581  10.145  10.158 -2.2280 -0.8402  1.2077
  261MOL0     H35174   9.382  10.315  10.023  3.8239 -0.0969 -1.1944
  261MOL0     H35175   9.450  10.347  10.180  0.5059  0.2022 -0.5693
  261MOL0     H35176   9.243  10.139  10.157  0.4771 -1.0659  1.0439
  261MOL0     H35177   9.305  10.195  10.314 -0.4359  3.4601  1.3633
  261MOL0     H35178   9.183  10.385  10.109  0.1903 -0.2772 -0.3124
  261MOL0     H35179   9.095  10.293  10.230  1.2184 -1.4374 -0.3837
  261MOL0     H35180   9.270  10.390  10.393  0.9726  1.0477 -0.3417
  261MOL0     H35181   9.298  10.512  10.280  0.4593  0.3585  2.1073
  261MOL0     H35182   9.026  10.532  10.284  2.0347  1.8307 -2.2921
  261MOL0     H35183   9.135  10.622  10.393 -0.9496  1.6696 -2.6728
  261MOL0     H35184   8.961  10.377  10.442  1.0545  1.8126 -2.9174
  261MOL0     H35185   9.092  10.409  10.554 -0.0933 -0.7992  0.9932
  261MOL0     H35186   8.856  10.707  10.410 -2.0497 -0.7859 -0.9005
  261MOL0     H35187   8.747  10.860  10.754 -2.0560  5.3184  0.1518
  261MOL0     H35188   8.783  10.926  10.603  1.9915  1.8635  5.8797
  261MOL0     H35189   8.563  10.725  10.640  2.5463 -1.2546  0.2974
  261MOL0     H35190   8.541  10.899  10.654  2.3393  2.2538  0.4847
  261MOL0     H35191   8.461  10.808  10.414 -0.0224  1.9730 -2.1559
  261MOL0     H35192   8.613  10.727  10.401 -0.6568 -0.1281 -0.4006
  261MOL0     H35193   8.702  11.000  10.416 -0.6168  1.6828 -0.7125
  261MOL0     H35194   8.536  11.020  10.395  2.1886  0.9054 -0.4921
  261MOL0     H35195   8.845  11.097  10.242  2.4703 -0.3848  2.9680
  261MOL0     H35196   9.072  11.038  10.182  0.9917 -2.3993  0.1509
  261MOL0     H35197   9.394  10.912  10.002  0.2550 -1.0358  1.1457
  261MOL0     H35198   9.652  10.836   9.986  1.4230 -1.3553 -1.4022
  261MOL0     H35199   9.705  10.464  10.051  0.4425 -0.8787 -0.0505
  261MOL0     H35200   9.815  10.442   9.919  1.2730 -0.9164  0.7431
  261MOL0     H35201   9.855  10.614  10.180 -1.4864  1.2391 -1.0225
  261MOL0     H35202   9.918  10.471  10.146 -1.9075 -1.1411 -1.0200
  261MOL0     H35203  10.023  10.592   9.928 -1.4884 -4.3572  0.4878
  261MOL0     H35204   9.989  10.746  10.012  2.7183  0.1819  1.1437
  261MOL0     H35205  10.145  10.512  10.098 -0.8603  0.0346 -1.8644
  261MOL0     H35206  10.107  10.642  10.219  1.0019 -0.3609 -0.4897
  261MOL0     H35207  10.246  10.679   9.953  1.2373 -3.4022 -1.4307
  261MOL0     H35208  10.344  10.661  10.094  0.0473 -0.0148  0.2435
  261MOL0     H35209  10.138  10.879  10.147  0.4667 -0.6006 -1.2339
  261MOL0     H35210  10.315  10.879  10.166  2.8646  1.5130 -3.1046
  261MOL0     H35211  10.234  11.043  10.002 -5.9779  0.1573 -1.2783
  261MOL0     H35212  10.179  10.918   9.887 -2.2602 -2.0600  1.8681
  261MOL0     H35213  10.465  11.004   9.961  1.4129 -1.8979 -2.0606
  261MOL0     H35214  10.440  10.841   9.907  1.3171 -0.0286 -2.1751
  261MOL0     H35215   9.545  10.453   9.880  1.7187  0.4477  0.5669
  261MOL0     H35216   9.293  10.496   9.927 -1.1067  0.8364 -3.1804
  261MOL0     H35217   8.965  10.650  10.061  1.9554  1.7298 -1.7946
  261MOL0     H35218   8.710  10.703  10.165  0.7680 -2.0816 -1.6531
  261MOL0     H35219   9.417   9.730  10.253  1.1223  0.1698 -1.0019
  261MOL0     H35220   9.253   9.541  10.215 -2.7050 -2.0930 -2.2820
  261MOL0     H35221   9.144   9.247   9.901  0.4519 -1.1267 -0.6818
  261MOL0     H35222   9.052   9.019   9.835 -1.3691 -3.0401  3.5167
  261MOL0     H35223   8.744   8.780   9.809 -2.0050  2.7574  0.8649
  261MOL0     H35224   8.905   8.814   9.874  0.3091 -2.3587 -1.8128
  261MOL0     H35225   8.903   8.734   9.625 -0.0988  0.3766 -2.4715
  261MOL0     H35226   8.968   8.896   9.652  0.9118 -2.0523 -2.0474
  261MOL0     H35227   8.751   9.004   9.571  2.0240  0.4064 -0.8936
  261MOL0     H35228   8.676   8.849   9.589  0.9748  0.4495  1.6147
  261MOL0     H35229   8.888   8.927   9.381 -1.4381  0.7931  0.1738
  261MOL0     H35230   8.797   8.768   9.386 -0.4530 -0.2915  0.1898
  261MOL0     H35231   8.514   8.946   9.183 -0.8267 -0.0351  0.5092
  261MOL0     H35232   8.662   9.187   9.865  0.2664  0.6118  0.4799
  261MOL0     H35233   8.599   9.391   9.948 -0.1883 -0.6043 -0.0100
  261MOL0     H35234   8.708   9.448  10.070  1.4836 -0.4326 -0.3355
  261MOL0     H35235   8.725   9.509   9.907 -3.0730  0.9839  1.5898
  262MOL0     O35236   7.434   5.010   9.753 -0.1734 -0.3457 -0.1068
  262MOL0     C35237   7.439   5.139   9.776 -0.6100  0.4411  0.7356
  262MOL0     O35238   7.497   5.207   9.879 -0.5048  0.5098 -0.1901
  262MOL0     C35239   7.616   5.157   9.924 -0.4116 -0.2589  0.4764
  262MOL0     C35240   7.650   5.197  10.055 -0.2787 -0.2099  0.5805
  262MOL0     C35241   7.770   5.144  10.118  0.8408  0.2192 -0.9118
  262MOL0     C35242   7.851   5.059  10.050  0.2140  0.1035 -0.1330
  262MOL0     O35243   7.959   5.014  10.118  0.3731  0.0610 -0.1722
  262MOL0     C35244   8.053   4.938  10.049 -0.1364  0.5534  0.5497
  262MOL0     C35245   8.149   4.889  10.161 -0.1068  1.0769  0.7638
  262MOL0     C35246   8.242   4.783  10.114 -0.7008  0.6689  0.4461
  262MOL0     C35247   8.181   4.643  10.089  0.3470  0.3490  0.2886
  262MOL0     C35248   8.288   4.535  10.052 -0.1650  0.7976 -0.1687
  262MOL0     C35249   8.360   4.544   9.912  0.9193  0.3470 -0.0260
  262MOL0     C35250   8.484   4.452   9.898 -1.0164  0.4740 -0.1507
  262MOL0     C35251   8.443   4.314   9.851 -0.7074 -0.2672  0.0226
  262MOL0     N35252   8.550   4.221   9.827 -1.1200  0.5018 -0.0435
  262MOL0     C35253   8.544   4.098   9.765  0.1444 -0.4233  0.7783
  262MOL0     C35254   8.641   4.020   9.813  0.9027 -0.1097 -0.2463
  262MOL0     C35255   8.667   3.881   9.770 -0.2075 -0.6307 -0.4963
  262MOL0     C35256   8.781   3.806   9.835  0.6393  0.3761  0.5578
  262MOL0     C35257   8.904   3.873   9.790  0.1844  0.2304 -0.0888
  262MOL0     C35258   8.946   3.799   9.662 -0.7270 -0.1354  0.2366
  262MOL0     O35259   9.014   3.675   9.696 -0.8940  0.8168 -0.0304
  262MOL0     C35260   9.017   3.572   9.605  0.2987 -0.1055  0.3324
  262MOL0     C35261   9.085   3.589   9.485  0.5906  0.2385  0.5443
  262MOL0     C35262   9.078   3.486   9.403 -0.0340 -0.4654  1.2601
  262MOL0     C35263   9.019   3.362   9.424 -0.3096 -0.9249 -0.5755
  262MOL0     C35264   9.042   3.258   9.329 -0.3082 -0.2725  0.2500
  262MOL0     O35265   9.094   3.286   9.207  0.0882 -0.2439 -1.1218
  262MOL0     C35266   9.085   3.194   9.110  0.0755 -0.6297  0.5491
  262MOL0     C35267   9.199   3.133   9.062  0.1931  0.0040 -0.2127
  262MOL0     C35268   9.187   3.048   8.942  0.2170  0.5565  0.4481
  262MOL0     C35269   9.069   3.023   8.876  0.4951  0.7482 -0.9207
  262MOL0     O35270   9.061   2.942   8.770  0.5571  1.0537  0.2752
  262MOL0     C35271   8.934   2.904   8.708 -0.2977 -0.0056 -0.7447
  262MOL0     C35272   8.978   2.799   8.597  1.0168  0.2701 -0.9433
  262MOL0     C35273   9.070   2.854   8.486 -0.5515  0.0894  0.2064
  262MOL0     C35274   9.117   2.740   8.397 -0.0385 -0.1036 -0.2493
  262MOL0     C35275   9.225   2.794   8.300  0.2564  0.6743  0.6443
  262MOL0     C35276   9.187   2.921   8.217 -0.1881  0.2166  0.7519
  262MOL0     C35277   9.281   2.931   8.096 -0.3022  0.6011 -0.5625
  262MOL0     C35278   9.250   3.049   8.000  0.8100 -0.6017 -0.2645
  262MOL0    Cl35279   9.074   3.038   7.943  0.0268  0.1760 -0.4549
  262MOL0     C35280   8.960   3.090   8.928  1.1554  0.8420 -0.3370
  262MOL0     C35281   8.966   3.185   9.031 -0.3504  0.1066 -0.6597
  262MOL0     O35282   9.007   3.151   9.367  0.2298 -0.3654 -0.6468
  262MOL0     C35283   8.951   3.341   9.547 -0.4357  0.3561 -0.2958
  262MOL0     C35284   8.953   3.454   9.642  0.7895  0.5180  0.1047
  262MOL0     N35285   8.709   4.101   9.900 -0.0728  0.5232  0.3697
  262MOL0     N35286   8.660   4.216   9.904  0.0442 -0.3216 -0.2251
  262MOL0     C35287   7.819   5.022   9.911  0.4657 -0.8652  0.6624
  262MOL0     C35288   7.706   5.074   9.852  0.2287  0.1639  0.2287
  262MOL0     C35289   7.361   5.230   9.686  0.4762 -0.0103  0.2465
  262MOL0     C35290   7.225   5.251   9.714  0.0159  0.8357 -0.2579
  262MOL0     C35291   7.146   5.325   9.624 -0.7235  0.7920 -0.6088
  262MOL0     C35292   7.195   5.386   9.517  1.5516 -0.0070  1.2000
  262MOL0     O35293   7.106   5.432   9.432 -0.1870 -0.3611  0.3156
  262MOL0     C35294   7.147   5.542   9.349  0.7711  0.4445  0.0143
  262MOL0     C35295   7.047   5.546   9.231 -0.5317  0.3182 -0.3616
  262MOL0     C35296   6.895   5.540   9.280 -0.4329 -1.1536 -0.1026
  262MOL0     C35297   6.793   5.480   9.188  0.1194 -0.2780 -0.2228
  262MOL0     C35298   6.667   5.432   9.241 -0.9688  0.1273  0.0089
  262MOL0     C35299   6.561   5.391   9.289 -0.6016 -0.6704 -0.5078
  262MOL0     C35300   7.328   5.358   9.480  0.1989  0.4285  0.0713
  262MOL0     C35301   7.413   5.284   9.563 -0.5422 -0.2328  0.0578
  262MOL0     C35302   7.551   5.247   9.512  0.3691 -0.7533  0.0591
  262MOL0     H35303   7.588   5.271  10.106 -0.0310  0.2199  0.2647
  262MOL0     H35304   7.791   5.179  10.219 -0.2846 -0.5754 -0.3843
  262MOL0     H35305   8.005   4.857   9.993  0.8831 -1.1702  2.0319
  262MOL0     H35306   8.108   4.988   9.968 -2.6717  2.1132 -0.3276
  262MOL0     H35307   8.084   4.844  10.236 -3.3304 -0.3076 -2.5699
  262MOL0     H35308   8.203   4.979  10.193 -2.1941  1.7654  2.5841
  262MOL0     H35309   8.327   4.774  10.182  1.9677 -1.2085 -2.8046
  262MOL0     H35310   8.294   4.816  10.023 -0.5468 -1.4856 -0.2891
  262MOL0     H35311   8.125   4.616  10.179 -0.9859  0.4143 -0.4907
  262MOL0     H35312   8.110   4.651  10.006 -0.7431  1.3068  1.2747
  262MOL0     H35313   8.366   4.531  10.128 -2.4905 -1.7639  2.2797
  262MOL0     H35314   8.223   4.449  10.067 -0.1203  0.9368  0.8598
  262MOL0     H35315   8.293   4.516   9.830  0.8124 -1.8552  0.7517
  262MOL0     H35316   8.393   4.648   9.911  3.1070 -0.2492  1.5201
  262MOL0     H35317   8.540   4.443   9.991  2.1697  2.4424 -1.7018
  262MOL0     H35318   8.556   4.500   9.832 -0.6760 -1.2807 -1.1079
  262MOL0     H35319   8.378   4.263   9.923  1.6588  0.5433  2.9558
  262MOL0     H35320   8.391   4.316   9.755 -0.6197 -3.4934 -0.1878
  262MOL0     H35321   8.472   4.067   9.690  0.3544 -0.4266  0.5777
  262MOL0     H35322   8.571   3.835   9.794 -0.0398  0.3050  2.2000
  262MOL0     H35323   8.679   3.872   9.661  1.8979 -0.2261 -0.3355
  262MOL0     H35324   8.767   3.813   9.943 -2.3837 -0.1307  0.2966
  262MOL0     H35325   8.776   3.698   9.814  2.6450  0.0856  1.3592
  262MOL0     H35326   8.988   3.855   9.858  0.4218 -1.7107 -0.8055
  262MOL0     H35327   8.896   3.981   9.782 -0.4026  0.1262 -1.1540
  262MOL0     H35328   9.010   3.866   9.604  2.0613 -0.1331  3.0934
  262MOL0     H35329   8.863   3.767   9.597  0.3370 -4.2492  0.6493
  262MOL0     H35330   9.157   3.665   9.457  0.8479 -0.2657 -0.1711
  262MOL0     H35331   9.128   3.495   9.307 -0.1854  2.2374  1.3719
  262MOL0     H35332   9.293   3.142   9.114  0.7183 -1.1791 -0.9122
  262MOL0     H35333   9.282   3.006   8.913  0.7582  2.3319 -0.4686
  262MOL0     H35334   8.855   2.874   8.778 -0.1158 -0.9507 -0.9333
  262MOL0     H35335   8.897   2.993   8.656  0.9709 -0.4439 -2.4909
  262MOL0     H35336   9.027   2.714   8.647  0.1060 -1.8907 -3.5005
  262MOL0     H35337   8.893   2.758   8.541  0.9475  0.8263 -1.2482
  262MOL0     H35338   9.024   2.934   8.427  2.3387  2.7167  1.2636
  262MOL0     H35339   9.147   2.909   8.539 -2.4502  3.6037 -0.3525
  262MOL0     H35340   9.032   2.707   8.337 -0.3735 -1.2832  0.8248
  262MOL0     H35341   9.155   2.657   8.457  1.1321  1.9491  2.0105
  262MOL0     H35342   9.253   2.709   8.237  2.6502  0.9902  1.1719
  262MOL0     H35343   9.315   2.810   8.360 -0.4049 -1.7712  2.4601
  262MOL0     H35344   9.096   2.892   8.161  1.8039 -0.6319 -2.3269
  262MOL0     H35345   9.184   3.016   8.270  0.5902 -0.1233  1.4182
  262MOL0     H35346   9.283   2.842   8.032 -0.3927  0.6863 -0.6863
  262MOL0     H35347   9.382   2.939   8.136 -1.6577 -1.3348  3.8006
  262MOL0     H35348   9.271   3.145   8.049 -0.9694  0.0879 -0.7891
  262MOL0     H35349   9.315   3.057   7.912 -1.5418 -1.4267 -2.1698
  262MOL0     H35350   8.865   3.072   8.878  0.5290  0.3611  0.9626
  262MOL0     H35351   8.891   3.251   9.073  3.0408  3.4735  0.6681
  262MOL0     H35352   8.900   3.249   9.574 -1.1099  1.5833  3.0266
  262MOL0     H35353   8.891   3.441   9.730 -2.3276  1.6883 -1.7550
  262MOL0     H35354   7.881   4.956   9.852  1.5387 -0.6723  1.5485
  262MOL0     H35355   7.679   5.040   9.752  2.1105  3.7145 -1.7190
  262MOL0     H35356   7.181   5.208   9.803  1.3551 -0.1009 -0.0204
  262MOL0     H35357   7.045   5.343   9.657 -0.7562 -0.9709  0.3949
  262MOL0     H35358   7.246   5.519   9.308  1.4241  0.6036  1.4389
  262MOL0     H35359   7.167   5.638   9.397  0.4369  1.4515 -1.7602
  262MOL0     H35360   7.065   5.452   9.178 -3.9693  0.0445 -1.2893
  262MOL0     H35361   7.056   5.642   9.178 -0.8439  1.2179  1.1537
  262MOL0     H35362   6.856   5.642   9.290 -2.2846 -1.9982  2.5020
  262MOL0     H35363   6.883   5.494   9.379 -0.6487 -0.1388  0.3659
  262MOL0     H35364   6.769   5.549   9.106 -2.8785 -0.2747  0.5233
  262MOL0     H35365   6.844   5.393   9.145  0.5868  0.5957 -1.4925
  262MOL0     H35366   6.468   5.365   9.336 -2.4385  3.6018 -1.3065
  262MOL0     H35367   7.374   5.380   9.384 -0.9086  1.9845 -0.1400
  262MOL0     H35368   7.619   5.326   9.545 -2.2792  0.7914  2.1901
  262MOL0     H35369   7.586   5.155   9.558  2.6561  1.4069  3.0095
  262MOL0     H35370   7.550   5.231   9.403 -1.5657  1.3267 -0.2968
  263MOL0     O35371   6.742   8.342   8.325  0.6345 -0.4211  0.0584
  263MOL0     C35372   6.776   8.332   8.205 -0.9264  0.0779  0.1562
  263MOL0     O35373   6.807   8.220   8.140  0.1724  0.3797  0.1505
  263MOL0     C35374   6.774   8.087   8.169 -0.5092  0.1118  0.5879
  263MOL0     C35375   6.674   8.051   8.258  0.4801 -0.2588  0.1371
  263MOL0     C35376   6.656   7.920   8.298  1.2108  0.1344  0.7388
  263MOL0     C35377   6.718   7.818   8.224 -0.7511 -0.0592 -0.3986
  263MOL0     O35378   6.717   7.683   8.239  0.2349 -0.3825 -0.7988
  263MOL0     C35379   6.669   7.634   8.375 -0.2045  0.6757 -0.1215
  263MOL0     C35380   6.650   7.484   8.366 -0.2868 -0.3832 -0.9494
  263MOL0     C35381   6.583   7.426   8.492  0.2223  0.5043 -0.7830
  263MOL0     C35382   6.430   7.405   8.472 -0.1468 -0.6387 -1.2040
  263MOL0     C35383   6.348   7.533   8.453  0.2365 -0.3953  0.0482
  263MOL0     C35384   6.205   7.518   8.416  0.5358  0.4356  0.9791
  263MOL0     C35385   6.114   7.431   8.507  0.5311  0.1385  0.4673
  263MOL0     C35386   6.071   7.309   8.426  0.4267  0.4521 -0.3071
  263MOL0     N35387   5.995   7.218   8.507  0.3018  0.2777 -0.2425
  263MOL0     C35388   5.896   7.239   8.603  0.1759  0.0587  0.3089
  263MOL0     C35389   5.835   7.119   8.625  0.5883 -0.2046  0.3314
  263MOL0     C35390   5.693   7.109   8.690 -0.6478 -0.4047 -0.2190
  263MOL0     C35391   5.716   7.154   8.836  0.0918  0.2332  0.1565
  263MOL0     C35392   5.578   7.152   8.918  0.5528  0.3059 -0.1928
  263MOL0     C35393   5.579   7.275   9.019  0.2213  0.9453  0.5665
  263MOL0     O35394   5.698   7.272   9.103  1.3295 -0.6735  0.9123
  263MOL0     C35395   5.695   7.331   9.227 -0.4189  0.4946 -0.1022
  263MOL0     C35396   5.819   7.317   9.298  0.3724  0.2247  0.0718
  263MOL0     C35397   5.841   7.388   9.418  0.0153 -0.8468  0.4733
  263MOL0     C35398   5.748   7.482   9.460  0.6589  0.0554  0.5029
  263MOL0     C35399   5.762   7.565   9.573  0.0610 -0.2904  0.4097
  263MOL0     O35400   5.665   7.646   9.618  0.2182  0.0871  0.1824
  263MOL0     C35401   5.679   7.714   9.736  0.1331  0.1902  0.3820
  263MOL0     C35402   5.782   7.813   9.735 -0.3918 -0.0082 -0.0939
  263MOL0     C35403   5.797   7.888   9.856  0.2781 -0.3255 -0.2517
  263MOL0     C35404   5.717   7.881   9.963  1.1600  0.1273  0.4196
  263MOL0     O35405   5.738   7.966  10.074 -0.5290  0.0159 -0.3630
  263MOL0     C35406   5.643   8.004  10.175 -0.8624  0.6244 -0.5941
  263MOL0     C35407   5.512   8.055  10.117  1.1311 -0.0882  0.2134
  263MOL0     C35408   5.406   8.075  10.235  0.0343 -0.4935  1.0467
  263MOL0     C35409   5.270   8.120  10.170 -0.3980  0.7958 -0.0257
  263MOL0     C35410   5.195   7.991  10.116  0.0740 -0.7479  0.5398
  263MOL0     C35411   5.062   8.028  10.037 -0.8177 -0.1762 -0.7083
  263MOL0     C35412   4.998   7.901   9.977  0.2409  0.4903  0.0431
  263MOL0     C35413   4.864   7.924   9.912  0.4422  0.7932 -0.0838
  263MOL0    Cl35414   4.811   7.776   9.838 -0.0446 -0.1401 -0.1029
  263MOL0     C35415   5.624   7.788   9.960  0.0151 -0.0402  0.2761
  263MOL0     C35416   5.603   7.699   9.850  0.0703 -0.3941  0.2510
  263MOL0     O35417   5.877   7.566   9.612 -0.3822 -0.4475 -0.2088
  263MOL0     C35418   5.617   7.492   9.387 -0.9898 -0.5419  0.3623
  263MOL0     C35419   5.600   7.420   9.275 -0.2189  0.8120  0.0150
  263MOL0     N35420   5.895   7.029   8.538  0.5920 -0.0800 -0.1163
  263MOL0     N35421   5.979   7.086   8.468 -0.0647 -0.3687  0.4220
  263MOL0     C35422   6.832   7.854   8.146 -0.1230 -0.2645 -0.8575
  263MOL0     C35423   6.859   7.988   8.125  0.0131  0.2662  0.4962
  263MOL0     C35424   6.781   8.460   8.122  0.1887 -0.4065 -0.2777
  263MOL0     C35425   6.757   8.454   7.990 -0.2672 -0.8298 -0.0851
  263MOL0     C35426   6.765   8.570   7.908 -0.4401 -0.8411 -0.5610
  263MOL0     C35427   6.801   8.693   7.956 -0.7728 -0.3772 -0.3096
  263MOL0     O35428   6.815   8.796   7.875  0.6247  0.0032  0.1439
  263MOL0     C35429   6.906   8.899   7.910  0.5721 -0.5678 -0.1840
  263MOL0     C35430   6.956   8.964   7.785 -0.8315  0.1835 -0.0002
  263MOL0     C35431   7.075   8.882   7.713 -0.4847 -0.3329  0.4215
  263MOL0     C35432   7.155   8.975   7.622  0.0769 -1.4186 -0.1813
  263MOL0     C35433   7.286   8.930   7.566 -0.5899 -0.5884  0.2267
  263MOL0     C35434   7.406   8.890   7.537 -0.2961 -0.6602  0.3403
  263MOL0     C35435   6.819   8.696   8.095 -0.4139 -0.3753  0.4596
  263MOL0     C35436   6.806   8.589   8.185 -0.2811 -0.7262  0.4206
  263MOL0     C35437   6.831   8.628   8.332  0.3326 -0.2906 -1.3643
  263MOL0     H35438   6.600   8.120   8.296 -0.0351 -1.2302  0.9336
  263MOL0     H35439   6.594   7.890   8.382  2.0729 -2.8544  0.4349
  263MOL0     H35440   6.756   7.643   8.441 -0.4985  1.1995  0.2003
  263MOL0     H35441   6.583   7.694   8.405  3.6671  5.0830  3.6703
  263MOL0     H35442   6.755   7.453   8.362  0.5202  1.6218  1.6545
  263MOL0     H35443   6.598   7.453   8.276 -1.7822 -1.1482  0.1457
  263MOL0     H35444   6.596   7.501   8.570  2.5804 -0.9487  0.3364
  263MOL0     H35445   6.633   7.338   8.534 -0.9951 -0.4829 -1.3363
  263MOL0     H35446   6.424   7.333   8.391 -4.0050  1.9923 -3.5969
  263MOL0     H35447   6.400   7.365   8.570 -0.5769  2.6364  0.1447
  263MOL0     H35448   6.351   7.601   8.539  0.4067  0.0981 -0.3393
  263MOL0     H35449   6.387   7.599   8.375  0.0269  2.2403  1.9857
  263MOL0     H35450   6.161   7.618   8.411 -5.6170 -1.8910 -3.1228
  263MOL0     H35451   6.179   7.497   8.312 -3.2950  2.7065  1.2813
  263MOL0     H35452   6.034   7.496   8.544  0.4914  0.6444 -0.4724
  263MOL0     H35453   6.175   7.395   8.590 -0.2536  3.3816  2.6304
  263MOL0     H35454   6.015   7.334   8.336  1.1252  0.8455 -0.6417
  263MOL0     H35455   6.145   7.246   8.375 -0.0359  0.8021 -1.4505
  263MOL0     H35456   5.882   7.319   8.675 -1.1162 -2.3544  2.9555
  263MOL0     H35457   5.633   7.189   8.646 -0.6846 -0.2019  0.1953
  263MOL0     H35458   5.650   7.010   8.673 -1.4600 -0.1406  0.2600
  263MOL0     H35459   5.790   7.088   8.884  0.3606 -1.0506 -1.9022
  263MOL0     H35460   5.767   7.251   8.837  0.6723 -0.0525  1.9549
  263MOL0     H35461   5.570   7.053   8.965  0.6144  0.6052  0.4496
  263MOL0     H35462   5.489   7.155   8.854 -0.3504 -2.3807  0.7639
  263MOL0     H35463   5.488   7.265   9.078 -1.0556  0.5433 -1.3853
  263MOL0     H35464   5.566   7.369   8.964  1.9451  0.8387 -0.0920
  263MOL0     H35465   5.898   7.251   9.265  0.8938  0.8865 -0.0299
  263MOL0     H35466   5.928   7.363   9.478 -0.2413  0.0518  1.2374
  263MOL0     H35467   5.847   7.827   9.650 -2.1186  0.1933 -1.4313
  263MOL0     H35468   5.873   7.966   9.853  1.8474 -1.5522  2.5603
  263MOL0     H35469   5.630   7.916  10.238  0.9937  2.6697  2.9525
  263MOL0     H35470   5.689   8.079  10.240  0.7584 -0.3053 -0.6163
  263MOL0     H35471   5.533   8.150  10.067  0.2550 -1.0546 -2.1746
  263MOL0     H35472   5.463   7.999  10.036 -2.2402  4.1842 -1.0686
  263MOL0     H35473   5.387   7.977  10.281 -1.7083 -2.7855 -3.8476
  263MOL0     H35474   5.438   8.148  10.310 -0.2831  0.2698  0.4404
  263MOL0     H35475   5.275   8.199  10.095 -5.4006 -2.5044 -4.5450
  263MOL0     H35476   5.203   8.158  10.248 -1.2902 -0.2184 -0.2896
  263MOL0     H35477   5.162   7.925  10.197 -0.1884 -2.3785 -0.8210
  263MOL0     H35478   5.262   7.925  10.060  0.0107 -0.1337 -0.2821
  263MOL0     H35479   4.993   8.081  10.103  0.0269 -0.1808  0.2168
  263MOL0     H35480   5.090   8.091   9.953  0.1456 -1.0951 -1.1064
  263MOL0     H35481   4.989   7.818  10.048  1.0193  1.1837  0.9769
  263MOL0     H35482   5.071   7.865   9.903 -0.4849 -1.4213  0.1991
  263MOL0     H35483   4.787   7.966   9.977  0.7014  1.2103 -0.0436
  263MOL0     H35484   4.876   8.001   9.835  0.2763  1.9541  1.0310
  263MOL0     H35485   5.548   7.783  10.037  0.3581  4.3530  1.1286
  263MOL0     H35486   5.527   7.624   9.867 -0.9976  0.1387 -1.7859
  263MOL0     H35487   5.543   7.564   9.421  1.8000  2.5649  0.2920
  263MOL0     H35488   5.502   7.425   9.229 -0.1377  0.6126 -0.1818
  263MOL0     H35489   6.911   7.787   8.114  1.6071  0.0733  2.2844
  263MOL0     H35490   6.941   8.012   8.059 -0.9091 -0.5480 -0.9942
  263MOL0     H35491   6.730   8.358   7.947 -0.4933 -1.5172  1.5260
  263MOL0     H35492   6.748   8.566   7.801  2.5977 -1.5495 -1.1201
  263MOL0     H35493   6.997   8.863   7.958  0.7446 -0.1773 -0.2088
  263MOL0     H35494   6.861   8.967   7.983  1.1877 -2.1294  1.7307
  263MOL0     H35495   7.010   9.053   7.818 -0.3458 -0.3112  0.5667
  263MOL0     H35496   6.880   8.994   7.712  1.9407 -2.7747 -4.5993
  263MOL0     H35497   7.025   8.802   7.657 -0.5816 -1.1086  1.5772
  263MOL0     H35498   7.155   8.844   7.777 -0.0822 -1.3018 -0.6137
  263MOL0     H35499   7.087   9.015   7.546 -1.1541  0.4393  1.7552
  263MOL0     H35500   7.174   9.069   7.676 -4.2247 -1.2495  1.4561
  263MOL0     H35501   7.499   8.862   7.493 -0.6489 -0.5162 -0.5111
  263MOL0     H35502   6.849   8.792   8.134 -0.4707 -0.3087  0.3427
  263MOL0     H35503   6.911   8.701   8.349  2.0090 -2.4455  0.9148
  263MOL0     H35504   6.741   8.671   8.376  1.2878 -1.3894  2.0413
  263MOL0     H35505   6.850   8.540   8.395  1.5476 -0.7221 -2.2960
  264MOL0     O35506   8.664   4.511   7.348  0.4853 -0.2766  0.1328
  264MOL0     C35507   8.543   4.507   7.335 -0.1780 -0.7523  0.7088
  264MOL0     O35508   8.484   4.477   7.214  0.2055  0.3670  0.3566
  264MOL0     C35509   8.561   4.478   7.104  0.4382 -0.8681  0.0740
  264MOL0     C35510   8.607   4.356   7.054  0.9051 -0.3473  0.2033
  264MOL0     C35511   8.708   4.343   6.965  0.3674 -0.1853  0.3930
  264MOL0     C35512   8.763   4.467   6.904  0.0622  0.6224  0.0530
  264MOL0     O35513   8.849   4.482   6.798 -0.4837  0.7855  0.0384
  264MOL0     C35514   8.888   4.358   6.730 -0.5351 -1.1475  0.6799
  264MOL0     C35515   8.906   4.386   6.577  0.5227 -0.5475  0.1466
  264MOL0     C35516   8.997   4.505   6.536 -0.9657 -0.7289  0.0859
  264MOL0     C35517   9.032   4.485   6.389  0.3062  0.1611 -0.9094
  264MOL0     C35518   9.146   4.575   6.344 -0.0902  0.6049  0.3714
  264MOL0     C35519   9.173   4.561   6.194 -0.0879 -0.6813 -0.7691
  264MOL0     C35520   9.252   4.686   6.144  0.0685  0.5078  0.1649
  264MOL0     C35521   9.260   4.673   6.000  0.9035  0.2675 -0.0032
  264MOL0     N35522   9.395   4.663   5.943 -0.5049  0.3000 -0.4740
  264MOL0     C35523   9.487   4.568   5.994  0.5144 -0.4219  0.1637
  264MOL0     C35524   9.596   4.591   5.934 -0.7493 -0.0329  0.4193
  264MOL0     C35525   9.731   4.514   5.946  0.9526  0.4971 -1.1962
  264MOL0     C35526   9.821   4.558   6.069  0.2861  0.0059  0.2880
  264MOL0     C35527   9.885   4.691   6.048 -0.0649 -0.3562 -0.4334
  264MOL0     C35528  10.004   4.718   6.129 -0.3872  0.1764 -0.1577
  264MOL0     O35529   9.981   4.699   6.269  0.4333  0.2643  0.2542
  264MOL0     C35530  10.069   4.725   6.363  0.3743 -0.4969 -0.1729
  264MOL0     C35531  10.183   4.807   6.350  0.1815  0.2690  0.7178
  264MOL0     C35532  10.267   4.826   6.456 -0.1906  0.2321  0.4114
  264MOL0     C35533  10.232   4.792   6.581  0.4372  0.3089 -0.5026
  264MOL0     C35534  10.316   4.836   6.695 -1.2431 -0.2139 -0.2087
  264MOL0     O35535  10.271   4.784   6.816 -0.0809  0.3999 -0.6736
  264MOL0     C35536  10.324   4.819   6.937  1.3869 -0.2036 -0.2911
  264MOL0     C35537  10.269   4.742   7.041 -0.3401 -0.6315  0.7136
  264MOL0     C35538  10.291   4.772   7.179 -0.9916 -0.4888  0.3270
  264MOL0     C35539  10.364   4.888   7.210  0.0358  0.1745  0.2620
  264MOL0     O35540  10.387   4.934   7.338 -0.6870  0.0070  0.7050
  264MOL0     C35541  10.404   5.072   7.360  0.0308  0.4063 -0.4153
  264MOL0     C35542  10.275   5.163   7.352  0.1535 -0.3374  0.5591
  264MOL0     C35543  10.170   5.156   7.454  0.2680  1.0499  0.5516
  264MOL0     C35544  10.131   5.006   7.475 -0.3935 -0.2379 -0.3843
  264MOL0     C35545   9.988   4.984   7.539  0.1618 -0.5210 -0.4162
  264MOL0     C35546   9.874   4.997   7.447  0.1038 -0.1887  0.3940
  264MOL0     C35547   9.745   4.997   7.525  0.1533 -0.1732  0.9830
  264MOL0     C35548   9.704   5.144   7.553  0.3157  0.4316 -0.6282
  264MOL0    Cl35549   9.688   5.232   7.404  0.0613  0.0531 -0.1824
  264MOL0     C35550  10.442   4.942   7.105 -0.1394  0.3570  0.0779
  264MOL0     C35551  10.419   4.915   6.966  0.4676  0.2740 -0.8786
  264MOL0     O35552  10.417   4.902   6.676 -0.2860  0.3742 -0.0177
  264MOL0     C35553  10.113   4.722   6.606  0.1985 -0.3801 -0.1783
  264MOL0     C35554  10.036   4.682   6.491  0.3804 -0.2104 -0.5194
  264MOL0     N35555   9.586   4.704   5.855 -0.4047  0.3463 -1.3712
  264MOL0     N35556   9.458   4.742   5.855 -0.4422  0.3285  0.1035
  264MOL0     C35557   8.721   4.586   6.945  0.7817 -0.6547 -0.3735
  264MOL0     C35558   8.614   4.595   7.042 -1.0014 -0.0921 -0.8902
  264MOL0     C35559   8.449   4.551   7.438 -0.7791 -0.1769 -0.9311
  264MOL0     C35560   8.499   4.617   7.547 -0.3558  0.7352 -0.1273
  264MOL0     C35561   8.430   4.677   7.649  0.3848  1.1549  0.0167
  264MOL0     C35562   8.289   4.663   7.662  0.0587  0.5919  0.2214
  264MOL0     O35563   8.210   4.711   7.764  0.3371 -0.6665 -0.2265
  264MOL0     C35564   8.271   4.782   7.881  0.2154 -0.1690  0.2145
  264MOL0     C35565   8.306   4.927   7.844 -0.7022  0.3752  0.0798
  264MOL0     C35566   8.330   5.019   7.969  0.8925  0.3612  0.2709
  264MOL0     C35567   8.387   5.150   7.929 -0.0937  0.0282 -0.4361
  264MOL0     C35568   8.376   5.238   8.048 -0.2602  0.0218 -0.4330
  264MOL0     C35569   8.387   5.327   8.131 -0.4876 -0.1936 -0.4454
  264MOL0     C35570   8.236   4.589   7.560  0.3876  0.6185 -0.4044
  264MOL0     C35571   8.308   4.538   7.446  0.3307  0.7777  0.2977
  264MOL0     C35572   8.226   4.455   7.349  0.1107 -0.3031  0.1066
  264MOL0     H35573   8.572   4.270   7.109 -2.3021 -0.1432 -1.2753
  264MOL0     H35574   8.730   4.241   6.934 -4.1873 -0.5450 -2.6539
  264MOL0     H35575   8.980   4.316   6.771 -2.1740 -2.5521  3.1692
  264MOL0     H35576   8.811   4.281   6.741 -0.7924 -0.6684  2.6826
  264MOL0     H35577   8.808   4.412   6.536  0.6080 -0.0540  0.2556
  264MOL0     H35578   8.943   4.287   6.548  1.7681  0.5252 -2.1901
  264MOL0     H35579   9.088   4.487   6.594 -2.2968  0.5117  2.7340
  264MOL0     H35580   8.960   4.604   6.565 -0.4921 -0.2403 -0.9179
  264MOL0     H35581   9.068   4.383   6.371  1.0834  0.9051 -4.0387
  264MOL0     H35582   8.937   4.500   6.337 -0.7998 -1.0328  0.6186
  264MOL0     H35583   9.109   4.678   6.355 -2.7261 -0.3498  1.1817
  264MOL0     H35584   9.236   4.552   6.402 -0.4552  0.2487  0.8033
  264MOL0     H35585   9.212   4.463   6.167 -0.7876 -0.4909 -2.5887
  264MOL0     H35586   9.079   4.574   6.139 -2.2841 -0.7708  2.5983
  264MOL0     H35587   9.344   4.674   6.201 -0.6546 -3.3241  0.8082
  264MOL0     H35588   9.198   4.778   6.171 -2.2659 -0.3788 -1.1609
  264MOL0     H35589   9.206   4.584   5.968  2.0184 -0.6784  0.6975
  264MOL0     H35590   9.204   4.755   5.952 -2.4393 -1.7862  0.0702
  264MOL0     H35591   9.454   4.489   6.061 -1.6920  0.7836  0.6040
  264MOL0     H35592   9.697   4.412   5.969 -0.1872  1.2337  0.5680
  264MOL0     H35593   9.791   4.519   5.855  3.4996  1.8199  0.4528
  264MOL0     H35594   9.762   4.561   6.161  1.4165 -0.7780  1.0627
  264MOL0     H35595   9.904   4.489   6.088  0.4728  0.5761  1.7252
  264MOL0     H35596   9.817   4.768   6.083 -1.6236 -1.8782  0.0548
  264MOL0     H35597   9.900   4.707   5.941  1.5209  0.9324 -0.0580
  264MOL0     H35598  10.046   4.814   6.096  2.4871 -1.9723 -3.4809
  264MOL0     H35599  10.078   4.641   6.104 -1.6193 -0.2148 -2.9487
  264MOL0     H35600  10.203   4.838   6.248  0.4384 -0.7699  0.4350
  264MOL0     H35601  10.362   4.877   6.441  0.6004 -1.2685  0.0368
  264MOL0     H35602  10.215   4.650   7.019  0.4739 -0.6142 -1.6183
  264MOL0     H35603  10.238   4.714   7.255 -0.7722 -1.1833 -0.0374
  264MOL0     H35604  10.426   5.074   7.467  1.1326  2.2740 -0.6241
  264MOL0     H35605  10.492   5.114   7.310  1.4344  1.4499  2.6561
  264MOL0     H35606  10.294   5.270   7.362  2.8583 -0.7398  0.4784
  264MOL0     H35607  10.231   5.162   7.252  1.7100 -1.5295 -0.1461
  264MOL0     H35608  10.205   5.192   7.552  3.1313  2.8867 -1.0148
  264MOL0     H35609  10.081   5.213   7.429 -1.0970 -0.2595  2.1747
  264MOL0     H35610  10.215   4.957   7.523  1.2157  2.0072 -0.7604
  264MOL0     H35611  10.110   4.960   7.378 -0.4160 -1.1181  0.0254
  264MOL0     H35612   9.973   5.065   7.612  0.6979 -0.9391  0.1708
  264MOL0     H35613   9.980   4.884   7.583 -2.2490 -0.8820 -1.5202
  264MOL0     H35614   9.886   5.083   7.380  2.0233 -0.8794 -0.2242
  264MOL0     H35615   9.857   4.912   7.379 -2.5609 -0.1692  0.9064
  264MOL0     H35616   9.750   4.943   7.621  2.7259  0.8430  1.4982
  264MOL0     H35617   9.658   4.958   7.473  1.0172 -0.8797  0.0309
  264MOL0     H35618   9.606   5.161   7.598  0.7552 -1.0575  1.0200
  264MOL0     H35619   9.778   5.200   7.611 -1.1403  2.0611 -0.2779
  264MOL0     H35620  10.529   5.006   7.120  0.8048 -0.7719 -0.4516
  264MOL0     H35621  10.466   4.982   6.895  1.3471  0.4249 -0.1778
  264MOL0     H35622  10.075   4.706   6.706  0.0205  0.4971 -0.0920
  264MOL0     H35623   9.938   4.636   6.507 -0.0339  0.8258  0.0020
  264MOL0     H35624   8.760   4.681   6.909 -3.6549  1.4575 -0.2814
  264MOL0     H35625   8.594   4.694   7.081  2.1711  0.6440 -0.8427
  264MOL0     H35626   8.606   4.614   7.563 -0.5963 -0.4837  1.6406
  264MOL0     H35627   8.482   4.725   7.731 -3.0655  2.8434  1.4041
  264MOL0     H35628   8.363   4.741   7.923 -0.9638  0.6206  3.9082
  264MOL0     H35629   8.201   4.778   7.965  2.6914 -1.2733  2.3706
  264MOL0     H35630   8.223   4.981   7.797  0.5860  0.5403 -2.1389
  264MOL0     H35631   8.391   4.933   7.775 -0.6565 -3.1427 -0.3449
  264MOL0     H35632   8.389   4.961   8.040  1.3773 -0.2161 -0.5824
  264MOL0     H35633   8.231   5.016   8.015  0.3473  0.8351 -0.8308
  264MOL0     H35634   8.491   5.148   7.896  0.1722  5.7069 -0.9460
  264MOL0     H35635   8.342   5.189   7.837  3.2955  1.0192 -1.8069
  264MOL0     H35636   8.397   5.405   8.204 -0.5503 -0.0111 -0.6278
  264MOL0     H35637   8.131   4.570   7.580  0.9718 -1.1531  1.2837
  264MOL0     H35638   8.118   4.463   7.367  0.1270 -1.7582  1.0944
  264MOL0     H35639   8.230   4.493   7.247 -0.5743  3.3944  1.3007
  264MOL0     H35640   8.266   4.353   7.352 -2.8230 -1.6556 -1.6088
  265MOL0     O35641   7.803   7.045   9.489  0.7263 -0.1065 -0.2040
  265MOL0     C35642   7.806   7.050   9.616 -0.2916  0.7622  0.1266
  265MOL0     O35643   7.900   6.995   9.705  0.5511 -0.8216  0.3671
  265MOL0     C35644   8.005   6.940   9.626 -0.0283  0.8195 -0.0932
  265MOL0     C35645   8.115   7.014   9.609 -0.4239 -0.0310  0.7528
  265MOL0     C35646   8.227   6.963   9.540 -0.6631  1.2808  0.2174
  265MOL0     C35647   8.224   6.833   9.473  0.2660 -0.6540  0.1598
  265MOL0     O35648   8.329   6.768   9.417  0.6892 -0.3614  0.8024
  265MOL0     C35649   8.456   6.838   9.386 -0.4124  0.9539 -0.0440
  265MOL0     C35650   8.439   6.953   9.288 -0.2777  0.4197  0.0372
  265MOL0     C35651   8.346   6.906   9.171 -0.0006  0.7500  0.3877
  265MOL0     C35652   8.316   7.026   9.081 -0.2196 -0.1970  0.1997
  265MOL0     C35653   8.220   6.984   8.971 -0.1567  0.1545  0.2186
  265MOL0     C35654   8.168   7.099   8.884 -0.6034 -0.1674 -0.1133
  265MOL0     C35655   8.058   7.057   8.771 -0.3106 -1.0755  0.4877
  265MOL0     C35656   8.115   6.979   8.651  0.3881  0.2697  0.4449
  265MOL0     N35657   8.198   7.056   8.553  0.6986 -1.1287 -0.4875
  265MOL0     C35658   8.153   7.163   8.474 -0.5492 -0.5874 -0.5553
  265MOL0     C35659   8.231   7.162   8.363 -0.8141 -0.6751 -0.2168
  265MOL0     C35660   8.230   7.263   8.253 -0.5731 -0.1159  0.0517
  265MOL0     C35661   8.317   7.395   8.287 -0.0839 -0.3705  0.4717
  265MOL0     C35662   8.267   7.473   8.411  0.4617 -0.7156  0.5096
  265MOL0     C35663   8.305   7.628   8.400  0.7921 -0.1222  0.3163
  265MOL0     O35664   8.193   7.711   8.450 -0.4726  0.0341  0.9081
  265MOL0     C35665   8.202   7.848   8.462 -0.1499 -0.3202 -0.2982
  265MOL0     C35666   8.302   7.927   8.407  0.3724 -0.4053 -0.0335
  265MOL0     C35667   8.291   8.065   8.399  0.1142 -0.7227  0.1555
  265MOL0     C35668   8.165   8.118   8.435  0.8342 -0.2683 -0.5213
  265MOL0     C35669   8.150   8.270   8.447  0.5924 -0.6442  0.1183
  265MOL0     O35670   8.249   8.358   8.387  0.4656  0.4577 -0.0030
  265MOL0     C35671   8.223   8.499   8.369 -0.4144  0.0311  0.1574
  265MOL0     C35672   8.120   8.585   8.431 -0.7445 -0.3317  0.0997
  265MOL0     C35673   8.108   8.713   8.379  0.5061 -0.7698 -0.7310
  265MOL0     C35674   8.176   8.758   8.272 -0.5502 -0.8973  0.5420
  265MOL0     O35675   8.151   8.886   8.230 -0.6651 -0.2829 -0.0363
  265MOL0     C35676   8.045   8.909   8.141  0.0648  0.2533  0.6141
  265MOL0     C35677   8.065   8.835   8.002 -0.3441  0.3340 -0.4923
  265MOL0     C35678   8.186   8.895   7.922  0.5245 -0.1431 -0.1875
  265MOL0     C35679   8.198   8.859   7.772 -1.2290  0.5203  0.8285
  265MOL0     C35680   8.213   8.707   7.754  0.0543  0.7791 -0.0708
  265MOL0     C35681   8.340   8.637   7.816  0.6984 -0.1410 -0.6900
  265MOL0     C35682   8.479   8.692   7.766 -0.3846  0.3072 -0.2009
  265MOL0     C35683   8.603   8.624   7.822 -0.2643 -0.1891 -0.7652
  265MOL0    Cl35684   8.595   8.568   7.997 -0.1560 -0.2743 -0.0775
  265MOL0     C35685   8.270   8.672   8.207  0.0073 -0.4878  0.2345
  265MOL0     C35686   8.294   8.548   8.258 -0.9374  0.2824 -0.1665
  265MOL0     O35687   8.059   8.310   8.520  0.0601  0.0724  0.2121
  265MOL0     C35688   8.058   8.034   8.480 -0.0342 -0.0875  0.5113
  265MOL0     C35689   8.078   7.905   8.495 -0.3524  0.5452 -0.6505
  265MOL0     N35690   8.331   7.064   8.379 -0.4189 -1.0764 -0.1023
  265MOL0     N35691   8.302   7.006   8.489  1.2339  0.7286  0.6993
  265MOL0     C35692   8.098   6.771   9.480 -0.3230  0.1744 -0.3851
  265MOL0     C35693   7.992   6.824   9.557 -1.0005 -0.5851  0.3857
  265MOL0     C35694   7.682   7.088   9.676 -0.2947 -0.3320  0.1469
  265MOL0     C35695   7.680   7.163   9.798  0.0023  0.2576  0.6462
  265MOL0     C35696   7.557   7.195   9.857  0.2788 -0.0917  0.2099
  265MOL0     C35697   7.434   7.153   9.806  0.5443  0.2082  1.0216
  265MOL0     O35698   7.318   7.192   9.861  0.6982  0.1618 -0.5490
  265MOL0     C35699   7.189   7.157   9.806 -0.5696  0.8429  0.3578
  265MOL0     C35700   7.075   7.215   9.892  0.4606  1.1639 -0.3986
  265MOL0     C35701   7.122   7.363   9.941 -0.3442 -0.1402 -0.2358
  265MOL0     C35702   6.993   7.447   9.961 -0.8965  0.2199  0.1687
  265MOL0     C35703   6.933   7.482   9.836  1.3603  0.5502 -0.2446
  265MOL0     C35704   6.885   7.497   9.723 -0.2168 -0.4199 -0.6260
  265MOL0     C35705   7.437   7.089   9.683  0.2819 -1.2433 -0.1408
  265MOL0     C35706   7.552   7.059   9.619 -0.9002 -0.8051  0.3919
  265MOL0     C35707   7.529   6.994   9.482 -0.0983 -0.1344 -1.3053
  265MOL0     H35708   8.120   7.116   9.645  2.7825  0.5802 -1.0865
  265MOL0     H35709   8.316   7.024   9.544  0.5292 -0.3855  0.0175
  265MOL0     H35710   8.519   6.866   9.471 -0.7107 -0.4065  0.6637
  265MOL0     H35711   8.516   6.770   9.324  2.2717  2.8151  0.3152
  265MOL0     H35712   8.537   6.984   9.251  0.1307 -2.0177 -1.1059
  265MOL0     H35713   8.398   7.035   9.348 -0.5775 -0.7959  1.5321
  265MOL0     H35714   8.250   6.869   9.207 -0.1120  0.0937 -0.5588
  265MOL0     H35715   8.399   6.828   9.116  1.7378  4.1808 -3.3755
  265MOL0     H35716   8.263   7.112   9.123 -1.3639  0.1742 -1.8497
  265MOL0     H35717   8.415   7.057   9.047  0.4052 -0.9385  1.3140
  265MOL0     H35718   8.278   6.906   8.919 -2.0892 -0.7069 -0.7499
  265MOL0     H35719   8.129   6.933   9.002 -0.9262  0.8733 -0.7870
  265MOL0     H35720   8.127   7.181   8.943  2.2982  2.0351 -0.9084
  265MOL0     H35721   8.265   7.131   8.845  0.5492 -1.8803  1.1927
  265MOL0     H35722   8.019   7.153   8.735 -4.6561 -1.6852  2.8994
  265MOL0     H35723   7.976   6.999   8.814  0.0788  0.5013  3.6417
  265MOL0     H35724   8.177   6.899   8.692 -2.1797 -2.0356  0.1591
  265MOL0     H35725   8.031   6.933   8.597  2.0658 -1.6760 -0.6523
  265MOL0     H35726   8.072   7.234   8.487 -0.5149 -0.0556 -2.7758
  265MOL0     H35727   8.278   7.200   8.178  3.2882 -0.2138  2.3211
  265MOL0     H35728   8.128   7.289   8.224 -1.8762 -1.4343  3.0079
  265MOL0     H35729   8.424   7.373   8.302  0.6573  3.0498  0.9592
  265MOL0     H35730   8.303   7.465   8.204  1.9547  0.2956  0.6341
  265MOL0     H35731   8.316   7.437   8.502  0.4967  0.5757  1.0277
  265MOL0     H35732   8.158   7.469   8.410  0.3444  0.4500  2.5063
  265MOL0     H35733   8.319   7.652   8.294 -1.1385  1.0966  0.2807
  265MOL0     H35734   8.401   7.645   8.449  1.6313 -1.9359 -0.6093
  265MOL0     H35735   8.387   7.877   8.362 -0.2245  0.2635 -2.0139
  265MOL0     H35736   8.375   8.116   8.353  0.7996 -2.8582 -1.0939
  265MOL0     H35737   8.051   8.542   8.503  2.1444 -0.3080  3.1412
  265MOL0     H35738   8.039   8.784   8.424  1.9384  0.6402 -0.6650
  265MOL0     H35739   7.958   8.869   8.193  0.9556 -0.6367  1.4702
  265MOL0     H35740   8.029   9.015   8.119 -4.7965 -0.6308 -1.2258
  265MOL0     H35741   8.102   8.733   8.016 -0.4309  0.2503 -0.8451
  265MOL0     H35742   7.974   8.830   7.941  0.7156 -0.7325 -2.0983
  265MOL0     H35743   8.167   9.003   7.922 -1.5861 -0.4578 -0.0259
  265MOL0     H35744   8.282   8.874   7.970  1.4549 -1.5461 -2.5113
  265MOL0     H35745   8.286   8.898   7.720 -0.0518 -0.9871  1.5987
  265MOL0     H35746   8.109   8.891   7.717 -1.4681 -3.0453 -1.2324
  265MOL0     H35747   8.199   8.681   7.649  1.3162  1.6281 -0.4657
  265MOL0     H35748   8.132   8.655   7.806  0.1758 -2.0747 -2.4770
  265MOL0     H35749   8.324   8.643   7.924 -4.6895  0.1261 -1.2312
  265MOL0     H35750   8.334   8.532   7.786  0.4569  0.6187 -3.6194
  265MOL0     H35751   8.502   8.796   7.792  0.3268  0.1861 -0.3223
  265MOL0     H35752   8.480   8.677   7.658  0.3097 -1.0141 -0.0340
  265MOL0     H35753   8.614   8.528   7.770  2.7762  0.5580 -1.7162
  265MOL0     H35754   8.699   8.673   7.805  0.7277 -2.5656 -2.5465
  265MOL0     H35755   8.341   8.711   8.135  1.7396  0.0501  2.1361
  265MOL0     H35756   8.362   8.480   8.208 -1.6504  0.0922 -0.9008
  265MOL0     H35757   7.960   8.071   8.508  0.2758  0.2541  1.1789
  265MOL0     H35758   7.996   7.842   8.525 -0.5764  0.8943 -0.5203
  265MOL0     H35759   8.078   6.680   9.424 -3.7977 -0.1345  1.0698
  265MOL0     H35760   7.895   6.776   9.555 -1.3058 -0.2165  3.2939
  265MOL0     H35761   7.772   7.178   9.854 -0.3378  0.0368  1.2704
  265MOL0     H35762   7.549   7.233   9.958 -1.4580  1.9598 -0.6097
  265MOL0     H35763   7.173   7.049   9.813 -0.1232  0.8628  2.1915
  265MOL0     H35764   7.184   7.199   9.705 -0.9093  0.8024  0.3546
  265MOL0     H35765   7.057   7.149   9.977 -2.6483 -0.3618 -2.0679
  265MOL0     H35766   6.988   7.209   9.825 -0.8240  0.8174  1.2376
  265MOL0     H35767   7.184   7.407   9.864  2.0365 -3.5018 -0.4747
  265MOL0     H35768   7.173   7.346  10.036 -1.5551 -0.5691  0.3710
  265MOL0     H35769   6.933   7.370  10.011  2.6123 -2.3254  0.8748
  265MOL0     H35770   7.020   7.545  10.001  0.0388  0.1507 -0.2775
  265MOL0     H35771   6.850   7.529   9.627 -0.1273 -0.9879 -0.8560
  265MOL0     H35772   7.345   7.072   9.626 -0.7166  0.7844  0.7591
  265MOL0     H35773   7.431   7.024   9.442  0.1665  1.0974 -1.0822
  265MOL0     H35774   7.600   7.029   9.407 -0.4320  0.6704 -1.2621
  265MOL0     H35775   7.523   6.885   9.483 -1.4615 -0.3353  4.2626
  266MOL0     O35776   4.458   7.290   6.612  0.5418 -0.7720  0.0051
  266MOL0     C35777   4.558   7.337   6.581  0.1698  0.0235  0.7337
  266MOL0     O35778   4.630   7.294   6.468 -0.4335  0.1283  0.6437
  266MOL0     C35779   4.578   7.185   6.400  0.0209 -0.5375  0.4272
  266MOL0     C35780   4.585   7.057   6.443 -0.5565 -0.1193  0.5182
  266MOL0     C35781   4.537   6.961   6.350 -0.2078  0.1497 -0.8173
  266MOL0     C35782   4.474   6.990   6.231 -0.1392 -0.6496 -1.2535
  266MOL0     O35783   4.439   6.878   6.159  0.2278  0.3414 -0.5130
  266MOL0     C35784   4.368   6.899   6.036  0.0171 -0.3253  0.8327
  266MOL0     C35785   4.465   6.926   5.915 -0.2210 -0.5404  0.0016
  266MOL0     C35786   4.585   6.835   5.918 -0.2328  0.2490  0.3693
  266MOL0     C35787   4.682   6.872   5.792  0.3457 -0.7163 -0.3388
  266MOL0     C35788   4.784   6.967   5.833 -0.4250 -0.8062  0.0555
  266MOL0     C35789   4.858   7.042   5.715 -0.1727 -0.1763 -0.2784
  266MOL0     C35790   4.979   7.118   5.779  1.0695  0.7601  0.4622
  266MOL0     C35791   5.119   7.053   5.762 -0.6158  0.1274 -0.0241
  266MOL0     N35792   5.155   6.949   5.862 -1.1399  0.1053  0.8398
  266MOL0     C35793   5.122   6.818   5.873 -0.4581  0.0814 -0.1496
  266MOL0     C35794   5.188   6.772   5.978  0.7448  0.3280 -0.9041
  266MOL0     C35795   5.178   6.642   6.051  0.6440  0.0507 -0.0404
  266MOL0     C35796   5.069   6.658   6.157 -0.0211  0.1170  0.4241
  266MOL0     C35797   5.061   6.530   6.240  0.8763  1.1726  0.1773
  266MOL0     C35798   5.022   6.408   6.152 -0.0136 -0.9187 -0.4055
  266MOL0     O35799   4.905   6.434   6.073  0.1787 -0.3062 -0.4141
  266MOL0     C35800   4.779   6.446   6.131  0.1347  0.4313  0.5809
  266MOL0     C35801   4.750   6.418   6.269 -0.2302  0.2313  0.0373
  266MOL0     C35802   4.627   6.430   6.334 -0.1783 -0.7722 -0.3272
  266MOL0     C35803   4.518   6.458   6.247  1.0384 -0.1999 -0.4130
  266MOL0     C35804   4.373   6.436   6.281 -0.3575 -0.6548  0.6582
  266MOL0     O35805   4.279   6.435   6.179 -0.0581  0.8882 -0.3281
  266MOL0     C35806   4.150   6.407   6.194  0.1957  0.0864 -0.5883
  266MOL0     C35807   4.122   6.281   6.233 -0.6189  0.5816  0.7825
  266MOL0     C35808   3.983   6.251   6.263 -0.4899  0.2363  0.6919
  266MOL0     C35809   3.892   6.353   6.257  0.5644 -0.0628 -0.6414
  266MOL0     O35810   3.762   6.339   6.293 -0.0718  0.3385 -0.3901
  266MOL0     C35811   3.723   6.229   6.379 -0.2432 -0.2947 -0.2117
  266MOL0     C35812   3.570   6.233   6.386 -0.5686  0.4237  0.0068
  266MOL0     C35813   3.523   6.135   6.488  0.1920  0.6162 -0.2963
  266MOL0     C35814   3.391   6.073   6.445  0.9424  0.8094  0.3383
  266MOL0     C35815   3.344   5.966   6.554  0.0325 -0.2643  1.0027
  266MOL0     C35816   3.202   5.923   6.522  0.7404  0.5883  1.1451
  266MOL0     C35817   3.149   5.818   6.621  0.3201 -0.5429  0.0248
  266MOL0     C35818   2.997   5.794   6.600 -0.1363 -0.6056 -0.0240
  266MOL0    Cl35819   2.975   5.726   6.443 -0.0401  0.4972 -0.1532
  266MOL0     C35820   3.917   6.470   6.193  0.3159 -0.9488 -0.7410
  266MOL0     C35821   4.052   6.502   6.160  0.7639  0.0290 -0.1003
  266MOL0     O35822   4.353   6.430   6.405  0.3842 -0.5593  0.1569
  266MOL0     C35823   4.546   6.492   6.104 -0.4112 -0.5045 -1.0957
  266MOL0     C35824   4.677   6.485   6.055 -0.0711  0.1783  0.1864
  266MOL0     N35825   5.268   6.870   6.026 -0.2928  0.3176 -0.0866
  266MOL0     N35826   5.238   6.978   5.965 -1.1460 -0.0118 -0.5377
  266MOL0     C35827   4.473   7.125   6.191  0.4641 -0.5622 -0.5123
  266MOL0     C35828   4.528   7.221   6.280 -0.4121  0.4209  1.0175
  266MOL0     C35829   4.631   7.438   6.665  0.0304  0.0545  0.5401
  266MOL0     C35830   4.766   7.415   6.694  0.3509 -0.5413  0.0310
  266MOL0     C35831   4.842   7.511   6.761 -0.1757  0.0165  0.4351
  266MOL0     C35832   4.790   7.641   6.800 -0.1279  0.0320  0.0219
  266MOL0     O35833   4.863   7.742   6.858 -0.0482 -1.1000 -0.0307
  266MOL0     C35834   5.015   7.754   6.843 -0.1547 -0.5108 -0.0517
  266MOL0     C35835   5.065   7.770   6.701  0.2433  0.5589  0.5674
  266MOL0     C35836   5.029   7.894   6.627  0.1188  0.5583  0.8297
  266MOL0     C35837   5.131   7.923   6.519 -0.1849 -0.8484  0.2397
  266MOL0     C35838   5.257   7.973   6.576 -1.1270  0.4812 -0.5708
  266MOL0     C35839   5.360   8.015   6.638  0.3084 -0.7635 -0.8118
  266MOL0     C35840   4.652   7.656   6.781 -0.3787  0.0622  0.4963
  266MOL0     C35841   4.572   7.558   6.713 -0.3403  0.6347  0.1855
  266MOL0     C35842   4.420   7.569   6.699 -0.3832 -0.6784  0.2570
  266MOL0     H35843   4.631   7.044   6.540 -1.2511  1.1798  1.0511
  266MOL0     H35844   4.536   6.854   6.371 -3.0670 -0.5069 -3.6089
  266MOL0     H35845   4.315   6.806   6.013 -0.9492 -0.0871  1.9685
  266MOL0     H35846   4.304   6.985   6.054  2.7195  1.8487  0.6510
  266MOL0     H35847   4.495   7.031   5.910  0.0051 -0.6563 -1.7874
  266MOL0     H35848   4.414   6.888   5.826  0.6301  1.3382 -1.3553
  266MOL0     H35849   4.552   6.731   5.909  0.9814 -0.2347  1.2270
  266MOL0     H35850   4.639   6.845   6.012 -1.4480 -1.0897  1.2389
  266MOL0     H35851   4.724   6.779   5.752  0.0929 -1.5865  1.3355
  266MOL0     H35852   4.615   6.915   5.716 -1.1175 -4.2559 -1.2657
  266MOL0     H35853   4.727   7.046   5.883 -1.1664 -2.6308  2.2710
  266MOL0     H35854   4.851   6.916   5.902  1.8981  0.6109 -1.0288
  266MOL0     H35855   4.898   6.974   5.639 -1.2627  0.3886 -1.4106
  266MOL0     H35856   4.795   7.117   5.666 -0.3079 -0.5879 -0.7429
  266MOL0     H35857   4.964   7.146   5.883  0.0480 -0.3014  0.6211
  266MOL0     H35858   4.980   7.219   5.736  3.8977 -0.5002 -2.8857
  266MOL0     H35859   5.131   7.019   5.658  1.9036  0.6895  0.0184
  266MOL0     H35860   5.193   7.133   5.770 -2.6448  2.3263 -1.5742
  266MOL0     H35861   5.049   6.767   5.813  0.8773 -1.8748 -0.1927
  266MOL0     H35862   5.141   6.573   5.974  2.0461 -0.7915  0.0014
  266MOL0     H35863   5.273   6.620   6.099  1.4145  0.5321 -1.2924
  266MOL0     H35864   5.103   6.736   6.226 -1.6270  0.6497  0.6541
  266MOL0     H35865   4.972   6.689   6.116  0.5003  2.4823  0.8519
  266MOL0     H35866   4.983   6.547   6.314 -0.1913 -0.2046 -0.5937
  266MOL0     H35867   5.153   6.509   6.297  1.0717 -2.9341 -1.3454
  266MOL0     H35868   5.004   6.330   6.227 -1.5914 -0.6848 -0.5051
  266MOL0     H35869   5.102   6.385   6.082 -0.5293 -1.6939 -0.7524
  266MOL0     H35870   4.829   6.374   6.329 -0.1380 -0.2517 -0.4307
  266MOL0     H35871   4.618   6.404   6.439  0.0690  1.4482  0.2898
  266MOL0     H35872   4.199   6.213   6.268 -1.3112 -0.1837  0.8682
  266MOL0     H35873   3.952   6.153   6.297  0.3739  0.5902  2.6365
  266MOL0     H35874   3.759   6.137   6.333 -1.4880 -0.8880 -0.0520
  266MOL0     H35875   3.762   6.237   6.480 -0.4771  1.8615 -0.2397
  266MOL0     H35876   3.540   6.335   6.412 -3.3321  0.2407 -2.0700
  266MOL0     H35877   3.533   6.205   6.288  1.4060 -0.6973 -0.4711
  266MOL0     H35878   3.601   6.059   6.501 -0.3409  0.0470 -0.3652
  266MOL0     H35879   3.509   6.183   6.586  0.4996 -0.3613  0.2376
  266MOL0     H35880   3.389   6.016   6.352  0.1344  1.8236 -0.2864
  266MOL0     H35881   3.311   6.147   6.438  0.4930  0.2828 -0.1905
  266MOL0     H35882   3.351   6.010   6.654 -1.3686 -1.0669  1.4686
  266MOL0     H35883   3.417   5.885   6.551  0.8499  0.4621 -1.6702
  266MOL0     H35884   3.143   6.015   6.516 -0.4515 -0.2382 -2.8360
  266MOL0     H35885   3.203   5.872   6.425  1.3585  2.2246  0.2465
  266MOL0     H35886   3.175   5.854   6.721  0.0856  0.6539 -0.3255
  266MOL0     H35887   3.204   5.725   6.603  1.3033 -0.0125  0.2499
  266MOL0     H35888   2.956   5.731   6.680  0.7961 -0.7417  0.3700
  266MOL0     H35889   2.951   5.893   6.605  4.8484  1.9853  1.1092
  266MOL0     H35890   3.844   6.548   6.171  2.3545  1.1605 -0.3723
  266MOL0     H35891   4.100   6.590   6.118  1.1178 -0.8022 -1.4899
  266MOL0     H35892   4.472   6.524   6.032 -0.4632  0.3259 -0.6897
  266MOL0     H35893   4.704   6.509   5.953 -0.7733  0.3801  0.0418
  266MOL0     H35894   4.420   7.145   6.099 -0.9941 -2.4773 -0.1530
  266MOL0     H35895   4.530   7.324   6.245  0.1537 -0.4203 -1.6756
  266MOL0     H35896   4.803   7.317   6.665 -1.2558 -0.6626 -1.8210
  266MOL0     H35897   4.940   7.476   6.791 -1.1118 -1.2791  2.1325
  266MOL0     H35898   5.061   7.670   6.898  0.2368 -1.2569 -1.4756
  266MOL0     H35899   5.035   7.841   6.906  1.0225 -2.0980  1.9497
  266MOL0     H35900   5.024   7.688   6.641  0.1116  0.4695  0.7787
  266MOL0     H35901   5.174   7.773   6.704  0.3946  4.7956 -2.0936
  266MOL0     H35902   5.033   7.979   6.696  4.1717  2.9196 -1.9119
  266MOL0     H35903   4.931   7.891   6.578  1.2832 -1.4124 -1.6256
  266MOL0     H35904   5.149   7.833   6.459 -3.4659 -1.8782  0.6104
  266MOL0     H35905   5.087   7.992   6.446 -0.9533  0.7034  2.0854
  266MOL0     H35906   5.442   8.049   6.698 -1.8985 -1.0466  2.6771
  266MOL0     H35907   4.621   7.753   6.819 -1.9983  1.2183 -3.3262
  266MOL0     H35908   4.386   7.666   6.735  1.1510  0.2534 -0.7099
  266MOL0     H35909   4.388   7.556   6.596  0.3353 -0.5541  0.0076
  266MOL0     H35910   4.380   7.487   6.760  2.5080 -1.9766  0.6054
  267MOL0     O35911   7.818   5.188   5.995 -0.9734  0.1670  0.7672
  267MOL0     C35912   7.748   5.189   5.891 -1.2957 -0.5799  0.2773
  267MOL0     O35913   7.667   5.298   5.858  0.4101 -0.2889 -0.3794
  267MOL0     C35914   7.601   5.371   5.950  0.0138  0.1396 -0.2654
  267MOL0     C35915   7.580   5.314   6.078 -0.4332  0.7199  0.1893
  267MOL0     C35916   7.492   5.387   6.158 -0.0602  0.5642 -0.3496
  267MOL0     C35917   7.415   5.507   6.134 -0.6992 -0.3968  0.1339
  267MOL0     O35918   7.304   5.545   6.201  0.1372 -0.3324 -0.3566
  267MOL0     C35919   7.261   5.473   6.321  0.3086  0.8932 -0.4622
  267MOL0     C35920   7.138   5.541   6.378  0.1368 -0.0406  0.6931
  267MOL0     C35921   7.051   5.443   6.459  0.4839  0.1680 -0.2022
  267MOL0     C35922   6.982   5.336   6.366  0.0044  0.1287 -0.2044
  267MOL0     C35923   6.884   5.239   6.446 -1.0893  0.0202  0.4092
  267MOL0     C35924   6.818   5.144   6.349  0.1474 -0.0509  0.1238
  267MOL0     C35925   6.739   5.036   6.420  0.9491 -0.6451 -0.0954
  267MOL0     C35926   6.805   4.898   6.379 -0.5565  0.2350  0.3457
  267MOL0     N35927   6.754   4.787   6.472 -0.0754 -0.2648  0.7984
  267MOL0     C35928   6.688   4.792   6.588  0.7675  0.1216 -0.3923
  267MOL0     C35929   6.711   4.672   6.648  0.5203 -0.4151  0.8941
  267MOL0     C35930   6.692   4.644   6.790 -0.2009  0.1479 -0.4590
  267MOL0     C35931   6.553   4.663   6.833 -0.1089  0.1440  0.5760
  267MOL0     C35932   6.554   4.661   6.982  0.3167  0.6581  0.7369
  267MOL0     C35933   6.431   4.724   7.040  0.0074 -0.0743  0.2464
  267MOL0     O35934   6.439   4.865   7.063  0.5187 -0.5998  0.1459
  267MOL0     C35935   6.336   4.929   7.137 -0.9834  0.0577 -0.2538
  267MOL0     C35936   6.208   4.878   7.160 -1.7676  0.5439 -0.3972
  267MOL0     C35937   6.119   4.959   7.233  0.6103  0.1376 -0.7096
  267MOL0     C35938   6.149   5.082   7.289  0.7596 -0.0536  0.7691
  267MOL0     C35939   6.053   5.160   7.380 -0.0679 -0.1789 -0.4908
  267MOL0     O35940   6.097   5.281   7.428 -0.3300 -0.3020  0.8824
  267MOL0     C35941   6.019   5.363   7.495 -0.2257 -0.1770  0.1398
  267MOL0     C35942   6.061   5.494   7.485 -0.2244  0.9097 -0.2343
  267MOL0     C35943   6.001   5.594   7.565 -0.7338 -0.3043 -0.5446
  267MOL0     C35944   5.899   5.562   7.653 -0.5485  0.4431  1.0252
  267MOL0     O35945   5.864   5.657   7.738  1.0536 -0.1445  0.0778
  267MOL0     C35946   5.756   5.745   7.687 -0.1916  0.4315  0.1567
  267MOL0     C35947   5.623   5.659   7.682 -0.8043  0.5437 -0.7409
  267MOL0     C35948   5.508   5.742   7.638  0.2627  0.0926  0.5186
  267MOL0     C35949   5.492   5.780   7.487 -0.8228 -0.2507 -0.0888
  267MOL0     C35950   5.349   5.742   7.434 -0.2504 -0.3328  0.1977
  267MOL0     C35951   5.250   5.854   7.469  1.1180 -0.8592  0.5141
  267MOL0     C35952   5.095   5.827   7.447 -0.2325 -0.4329 -0.4928
  267MOL0     C35953   5.076   5.774   7.308  0.4433  1.1266  0.7945
  267MOL0    Cl35954   4.947   5.859   7.214  0.0893 -0.1498  0.3153
  267MOL0     C35955   5.864   5.427   7.665 -0.0527 -0.3644 -0.4579
  267MOL0     C35956   5.918   5.325   7.586  0.2936 -0.0552 -0.3223
  267MOL0     O35957   5.941   5.118   7.392 -0.2603 -0.8879  0.4223
  267MOL0     C35958   6.284   5.134   7.278  0.3181 -0.6744 -0.0445
  267MOL0     C35959   6.377   5.057   7.200 -0.2015 -1.0058 -0.0035
  267MOL0     N35960   6.768   4.589   6.545  0.0378 -0.3175 -0.0888
  267MOL0     N35961   6.799   4.659   6.447 -0.3157  0.2864 -0.7241
  267MOL0     C35962   7.441   5.557   6.009 -0.2881 -0.9155 -0.4961
  267MOL0     C35963   7.536   5.495   5.921  0.0269  0.4362  0.0514
  267MOL0     C35964   7.745   5.074   5.788  0.3510 -0.0105  0.6573
  267MOL0     C35965   7.713   5.096   5.653  0.3663 -0.0210 -0.7301
  267MOL0     C35966   7.686   4.992   5.570  0.2318 -0.4128  0.0724
  267MOL0     C35967   7.702   4.859   5.614 -0.6984 -0.3743  0.6404
  267MOL0     O35968   7.674   4.767   5.512 -0.1198 -0.0663 -0.7503
  267MOL0     C35969   7.659   4.628   5.544  0.0588 -0.3539  0.4251
  267MOL0     C35970   7.789   4.569   5.546 -0.1559  0.0471 -0.0777
  267MOL0     C35971   7.859   4.575   5.409  0.1922 -0.5582 -0.4795
  267MOL0     C35972   7.991   4.487   5.405  0.4643 -0.3502  1.0224
  267MOL0     C35973   7.957   4.345   5.403 -0.3868 -0.7212  0.6984
  267MOL0     C35974   7.932   4.226   5.424  0.1780 -0.9018  0.2168
  267MOL0     C35975   7.741   4.836   5.744 -0.4544 -0.2877 -0.1928
  267MOL0     C35976   7.770   4.942   5.834 -0.5686  0.5025 -0.4065
  267MOL0     C35977   7.789   4.900   5.980  0.1370  0.0772 -0.0622
  267MOL0     H35978   7.609   5.218   6.118 -0.8901  0.1667 -0.7822
  267MOL0     H35979   7.474   5.336   6.252  0.9791 -1.9721 -1.4125
  267MOL0     H35980   7.225   5.381   6.275  0.8872  1.3604 -1.9116
  267MOL0     H35981   7.344   5.448   6.387 -0.8469 -2.1966 -0.0295
  267MOL0     H35982   7.084   5.587   6.295 -1.2403 -3.7531 -0.6627
  267MOL0     H35983   7.186   5.617   6.441 -1.0126  0.3404  1.1298
  267MOL0     H35984   6.975   5.506   6.504  0.4821  1.3464 -1.7718
  267MOL0     H35985   7.112   5.388   6.531  1.5847  3.7087  1.8161
  267MOL0     H35986   6.915   5.391   6.299 -0.9131 -0.2263  0.4051
  267MOL0     H35987   7.056   5.283   6.305 -0.7314  1.3916 -2.3203
  267MOL0     H35988   6.926   5.182   6.528 -1.4057  2.1248  2.1092
  267MOL0     H35989   6.805   5.297   6.495 -2.4922 -0.2072 -1.4570
  267MOL0     H35990   6.761   5.204   6.277  0.6532  3.1921  2.2509
  267MOL0     H35991   6.903   5.103   6.294  0.3511  0.6473 -0.0855
  267MOL0     H35992   6.633   5.032   6.396  0.6095  1.3302  0.8662
  267MOL0     H35993   6.741   5.064   6.526  2.2559  1.0437 -0.5195
  267MOL0     H35994   6.793   4.869   6.274  2.1931 -3.5472  0.8647
  267MOL0     H35995   6.910   4.898   6.408 -0.9159  1.6764  1.8076
  267MOL0     H35996   6.640   4.873   6.640 -1.6161 -1.5597  0.1887
  267MOL0     H35997   6.737   4.545   6.792 -1.8482 -0.6197 -0.2377
  267MOL0     H35998   6.759   4.713   6.844  1.9414 -0.5122 -2.1187
  267MOL0     H35999   6.514   4.760   6.799 -1.6300 -0.1591  1.3417
  267MOL0     H36000   6.487   4.588   6.787 -0.6382  0.6367  0.5186
  267MOL0     H36001   6.634   4.721   7.027  0.2392  0.9534  0.4844
  267MOL0     H36002   6.557   4.554   7.007 -3.5154 -0.0266 -1.0473
  267MOL0     H36003   6.413   4.673   7.136 -1.1765  2.9321  1.7389
  267MOL0     H36004   6.350   4.700   6.971 -0.3853  1.5280  0.1249
  267MOL0     H36005   6.185   4.779   7.122  0.3180 -0.0721 -0.1596
  267MOL0     H36006   6.026   4.902   7.233  0.8988 -0.3705  1.0080
  267MOL0     H36007   6.143   5.533   7.425  0.8617  2.0709  1.8805
  267MOL0     H36008   6.034   5.697   7.561  0.7484 -0.6716  1.1373
  267MOL0     H36009   5.746   5.829   7.756  2.1546  1.0263 -0.1565
  267MOL0     H36010   5.779   5.788   7.590 -2.0467 -0.4664 -0.7333
  267MOL0     H36011   5.624   5.573   7.614  0.1243 -0.9706  1.1196
  267MOL0     H36012   5.594   5.611   7.776 -1.9854  2.1566 -0.2318
  267MOL0     H36013   5.417   5.693   7.674  0.3278  1.3546  2.5545
  267MOL0     H36014   5.501   5.837   7.693  0.9673 -0.9915  2.6001
  267MOL0     H36015   5.571   5.729   7.430 -2.1428 -1.1101 -1.2421
  267MOL0     H36016   5.501   5.888   7.471  0.7803 -0.3917 -0.2758
  267MOL0     H36017   5.326   5.645   7.477 -0.0511 -0.1536  0.7104
  267MOL0     H36018   5.350   5.723   7.326 -1.4145  1.5843 -0.1965
  267MOL0     H36019   5.263   5.876   7.575  0.2712 -0.6862  0.5884
  267MOL0     H36020   5.283   5.944   7.417 -0.7998  0.1596  0.9914
  267MOL0     H36021   5.050   5.927   7.450  0.1746 -0.2261 -1.0805
  267MOL0     H36022   5.049   5.775   7.531  0.2112 -0.5524 -0.3215
  267MOL0     H36023   5.170   5.780   7.253 -0.1705  0.4119 -0.3783
  267MOL0     H36024   5.045   5.669   7.309 -0.0314  1.2649  1.7183
  267MOL0     H36025   5.792   5.406   7.744 -2.4390 -0.4521 -2.5300
  267MOL0     H36026   5.895   5.220   7.606 -2.1211  0.4755 -0.0289
  267MOL0     H36027   6.329   5.221   7.324 -0.7150  0.1559 -0.5450
  267MOL0     H36028   6.479   5.091   7.185 -0.3862 -0.9330 -1.1901
  267MOL0     H36029   7.394   5.654   5.995  0.7630 -0.4254 -0.7509
  267MOL0     H36030   7.551   5.540   5.824 -2.7616 -1.2742 -1.3018
  267MOL0     H36031   7.703   5.198   5.617  3.4827  0.5206 -0.3318
  267MOL0     H36032   7.647   5.009   5.470  0.3155  1.0772  0.2668
  267MOL0     H36033   7.595   4.582   5.469 -0.0702 -0.0963  0.3769
  267MOL0     H36034   7.599   4.622   5.635  0.8139 -0.7766  0.9075
  267MOL0     H36035   7.766   4.467   5.576 -1.6593  0.8153  1.5427
  267MOL0     H36036   7.851   4.631   5.612 -1.9288  0.5802  1.1657
  267MOL0     H36037   7.896   4.677   5.402  0.1901 -0.5369 -0.1910
  267MOL0     H36038   7.782   4.574   5.330 -0.2059  1.7954 -0.1786
  267MOL0     H36039   8.048   4.524   5.319 -0.3704  1.4743  1.2128
  267MOL0     H36040   8.058   4.504   5.490  2.2896 -2.2982  0.0705
  267MOL0     H36041   7.910   4.126   5.453  0.4614 -0.7675  0.9060
  267MOL0     H36042   7.762   4.734   5.773 -0.3912 -0.9940 -2.5823
  267MOL0     H36043   7.852   4.961   6.044  1.0160  0.6628 -1.4366
  267MOL0     H36044   7.692   4.883   6.028  1.1229 -2.1232  1.3162
  267MOL0     H36045   7.848   4.808   5.972  0.3971 -0.1252  2.9815
  268MOL0     O36046   0.991   4.807   1.399 -0.7393 -0.4806  0.5132
  268MOL0     C36047   1.003   4.693   1.376  0.3918  0.2936 -0.1810
  268MOL0     O36048   1.113   4.620   1.394  0.1765 -0.7383 -0.3445
  268MOL0     C36049   1.228   4.691   1.389 -0.3529 -0.6343  0.1969
  268MOL0     C36050   1.280   4.751   1.507 -1.2001  0.3387  0.5761
  268MOL0     C36051   1.403   4.818   1.497 -0.7597  0.5514  1.2428
  268MOL0     C36052   1.468   4.833   1.377 -1.4539  0.6277 -0.4244
  268MOL0     O36053   1.590   4.902   1.370 -0.1051  0.0507  0.8719
  268MOL0     C36054   1.680   4.884   1.267  0.8456  0.0842  0.3526
  268MOL0     C36055   1.662   4.996   1.162  0.2941 -1.2146  0.5364
  268MOL0     C36056   1.785   5.013   1.088 -0.4657  0.6103  0.2411
  268MOL0     C36057   1.838   4.890   1.006 -0.8366  0.0483  0.1238
  268MOL0     C36058   1.961   4.950   0.916 -0.0783  0.2989 -1.4053
  268MOL0     C36059   2.023   4.859   0.814  1.3730  0.7209 -0.3207
  268MOL0     C36060   2.120   4.756   0.885  1.1988 -0.4802  0.4488
  268MOL0     C36061   2.250   4.832   0.940  0.3180  0.1127  0.1943
  268MOL0     N36062   2.338   4.735   1.007  0.1528 -0.3670 -0.2865
  268MOL0     C36063   2.298   4.639   1.095  0.2714 -0.4577 -0.8067
  268MOL0     C36064   2.403   4.549   1.108  0.8919 -1.2500 -0.1719
  268MOL0     C36065   2.408   4.419   1.182 -0.3256  0.0933  0.1439
  268MOL0     C36066   2.431   4.443   1.333  0.2321 -0.2861 -0.4688
  268MOL0     C36067   2.580   4.412   1.368  1.1927 -0.4778 -0.5997
  268MOL0     C36068   2.673   4.536   1.334  0.1270  0.2147  0.5318
  268MOL0     O36069   2.623   4.667   1.370  0.3542 -0.9807 -0.2665
  268MOL0     C36070   2.709   4.782   1.354  0.4684  1.3343 -0.1988
  268MOL0     C36071   2.807   4.797   1.250 -0.9031  1.0228 -0.4026
  268MOL0     C36072   2.874   4.922   1.242 -0.5277  0.3367 -0.0825
  268MOL0     C36073   2.856   5.032   1.318  0.7133  0.4211  0.1102
  268MOL0     C36074   2.920   5.160   1.280  0.2107 -0.0140  0.4340
  268MOL0     O36075   2.850   5.276   1.312  0.6882  0.5588 -0.4227
  268MOL0     C36076   2.916   5.390   1.267  0.2839 -0.2325 -1.1306
  268MOL0     C36077   2.864   5.456   1.165  0.1993 -1.2774 -0.4298
  268MOL0     C36078   2.931   5.571   1.106  1.1617  0.3324 -0.2990
  268MOL0     C36079   3.049   5.614   1.151  0.0127 -0.0333  0.9749
  268MOL0     O36080   3.113   5.722   1.095 -0.0198  0.2607  0.0489
  268MOL0     C36081   3.250   5.715   1.067 -0.6797 -0.7145  1.2477
  268MOL0     C36082   3.308   5.863   1.065 -0.0154 -0.4077 -0.2578
  268MOL0     C36083   3.455   5.873   1.002  0.0906  0.1350 -0.2373
  268MOL0     C36084   3.457   6.000   0.909 -0.1491 -0.1026 -0.7731
  268MOL0     C36085   3.603   6.038   0.880 -0.0535 -0.2113 -0.1592
  268MOL0     C36086   3.682   5.964   0.770 -0.0045  0.0900 -0.0518
  268MOL0     C36087   3.826   6.018   0.767 -0.2828 -1.0409 -0.4075
  268MOL0     C36088   3.829   6.112   0.652  0.3009 -0.8732 -0.6557
  268MOL0    Cl36089   4.012   6.159   0.647  0.4100 -0.5228  0.6109
  268MOL0     C36090   3.099   5.556   1.269  1.0302  0.4407 -0.9739
  268MOL0     C36091   3.025   5.451   1.327  0.7459 -0.2565 -0.7241
  268MOL0     O36092   3.022   5.159   1.210  0.5902  0.9558 -0.3319
  268MOL0     C36093   2.748   5.018   1.417  0.5282  1.2732  0.1012
  268MOL0     C36094   2.678   4.900   1.429  1.0658  0.9947  0.7824
  268MOL0     N36095   2.505   4.594   1.028  0.3317  0.3082 -0.9743
  268MOL0     N36096   2.462   4.698   0.964 -0.2382 -0.2965 -0.5906
  268MOL0     C36097   1.421   4.775   1.265  0.4132  1.0988 -0.4978
  268MOL0     C36098   1.304   4.699   1.273 -0.3842 -0.7438 -0.7983
  268MOL0     C36099   0.876   4.610   1.350 -0.7816 -0.4556  1.2756
  268MOL0     C36100   0.757   4.650   1.408  0.3223 -1.2764  0.3760
  268MOL0     C36101   0.640   4.585   1.389 -0.0199 -0.3444 -0.7481
  268MOL0     C36102   0.627   4.481   1.307  0.0585  0.2059 -0.9402
  268MOL0     O36103   0.503   4.425   1.284  0.0490  0.0173 -0.3281
  268MOL0     C36104   0.438   4.451   1.163  0.3560 -0.1124  0.1773
  268MOL0     C36105   0.420   4.604   1.119 -0.4492  0.3949 -0.3740
  268MOL0     C36106   0.338   4.677   1.233 -0.3523 -0.0928 -0.0193
  268MOL0     C36107   0.190   4.624   1.235 -0.2143  0.1390  0.0219
  268MOL0     C36108   0.115   4.648   1.107 -0.1766 -0.5976  0.8684
  268MOL0     C36109   0.078   4.678   0.998  0.3461 -1.1512 -0.1772
  268MOL0     C36110   0.742   4.435   1.238 -0.5827 -0.9795 -0.3676
  268MOL0     C36111   0.867   4.499   1.263  0.3110  0.6278  0.7005
  268MOL0     C36112   0.984   4.436   1.197 -0.0191 -0.7945  0.7613
  268MOL0     H36113   1.241   4.725   1.605 -1.0997 -0.3436  0.4384
  268MOL0     H36114   1.475   4.841   1.574 -2.2615  1.6329  2.3989
  268MOL0     H36115   1.773   4.906   1.319  1.5320  1.7524 -1.4731
  268MOL0     H36116   1.676   4.782   1.227 -2.2203 -0.0096  0.6151
  268MOL0     H36117   1.646   5.094   1.208  3.4878 -1.5676  2.7697
  268MOL0     H36118   1.577   4.965   1.100  1.8045 -3.4997 -0.5440
  268MOL0     H36119   1.858   5.048   1.161 -0.9559 -2.8391  2.6680
  268MOL0     H36120   1.760   5.098   1.024 -0.3932 -1.5946 -2.9975
  268MOL0     H36121   1.889   4.816   1.068  1.5534  1.2016 -0.3291
  268MOL0     H36122   1.767   4.833   0.945  1.0178 -0.5842 -1.5497
  268MOL0     H36123   1.928   5.041   0.866 -2.2225  0.7045  0.5903
  268MOL0     H36124   2.042   4.989   0.979  1.5070 -2.1446 -1.7917
  268MOL0     H36125   1.944   4.804   0.763 -0.5946  1.9661  1.2360
  268MOL0     H36126   2.071   4.928   0.744  0.3448  2.2593  0.4246
  268MOL0     H36127   2.152   4.687   0.806  1.7624  0.1530  0.1083
  268MOL0     H36128   2.056   4.698   0.952 -1.0999  1.7211  0.2977
  268MOL0     H36129   2.292   4.892   0.859  0.0361  2.2982  1.6089
  268MOL0     H36130   2.220   4.906   1.014 -0.3378 -0.3015  0.3559
  268MOL0     H36131   2.200   4.638   1.142 -0.5311  1.6988 -2.2717
  268MOL0     H36132   2.308   4.376   1.182  0.5625 -2.2613  2.1504
  268MOL0     H36133   2.476   4.339   1.151  1.0357  0.7017  1.4137
  268MOL0     H36134   2.410   4.543   1.373  2.4902  0.2235 -0.3904
  268MOL0     H36135   2.373   4.377   1.398  2.5004 -0.3355  1.6491
  268MOL0     H36136   2.617   4.326   1.311  1.2341  0.8706 -2.7334
  268MOL0     H36137   2.581   4.406   1.477 -0.8136  0.5229 -0.4826
  268MOL0     H36138   2.696   4.524   1.228 -0.5966  2.5429  0.0533
  268MOL0     H36139   2.769   4.522   1.383 -0.3695  2.3743  2.2852
  268MOL0     H36140   2.835   4.721   1.177  0.0032  0.9645 -0.0060
  268MOL0     H36141   2.935   4.929   1.152  0.0143  2.6271  0.3976
  268MOL0     H36142   2.785   5.404   1.112 -0.1778 -0.5655 -0.5869
  268MOL0     H36143   2.882   5.632   1.031 -0.7287  0.1441  0.7096
  268MOL0     H36144   3.304   5.650   1.138  3.9639 -0.7498 -1.8531
  268MOL0     H36145   3.271   5.673   0.969 -1.4117  1.9443 -0.1238
  268MOL0     H36146   3.238   5.926   1.009  1.0767  2.6520  1.6421
  268MOL0     H36147   3.298   5.899   1.167  2.6358  0.4469 -0.2314
  268MOL0     H36148   3.528   5.875   1.083 -0.4741  1.6757  0.2702
  268MOL0     H36149   3.464   5.780   0.946 -0.2367  1.3823 -2.5036
  268MOL0     H36150   3.436   6.084   0.976  2.9410 -0.5509  0.9375
  268MOL0     H36151   3.395   5.992   0.819  2.9605 -1.2057 -2.9959
  268MOL0     H36152   3.661   6.029   0.973 -0.6670  1.4822  0.4227
  268MOL0     H36153   3.603   6.143   0.850 -1.0789  0.6295  2.4518
  268MOL0     H36154   3.685   5.858   0.796 -0.8988  0.1006  0.1463
  268MOL0     H36155   3.633   5.970   0.672 -1.4511  0.6364  0.6734
  268MOL0     H36156   3.910   5.952   0.743  1.2353  0.6194  0.0733
  268MOL0     H36157   3.845   6.081   0.854 -2.6451  0.9754 -1.2518
  268MOL0     H36158   3.803   6.074   0.552 -0.4670  0.8974 -1.1676
  268MOL0     H36159   3.773   6.202   0.678  1.8437 -0.6205  2.2275
  268MOL0     H36160   3.180   5.603   1.324  1.1783 -0.0736 -0.7514
  268MOL0     H36161   3.048   5.418   1.428 -5.2166 -1.9342  0.5300
  268MOL0     H36162   2.697   5.101   1.467 -1.7808  0.7555 -1.2504
  268MOL0     H36163   2.598   4.897   1.503  1.0233 -0.7622  0.7188
  268MOL0     H36164   1.459   4.790   1.164 -1.8675 -0.1755 -1.6210
  268MOL0     H36165   1.269   4.655   1.180  0.0511 -0.5082 -1.0777
  268MOL0     H36166   0.746   4.736   1.475 -0.4127 -1.7651  0.9013
  268MOL0     H36167   0.550   4.621   1.438 -0.2856  2.0219 -2.7782
  268MOL0     H36168   0.339   4.407   1.177  1.0612 -1.3735  1.5760
  268MOL0     H36169   0.485   4.399   1.078 -0.1154  1.5914 -1.1659
  268MOL0     H36170   0.368   4.608   1.023 -1.0157 -2.3840 -0.2771
  268MOL0     H36171   0.516   4.655   1.118 -0.3417  0.2200  0.3937
  268MOL0     H36172   0.331   4.784   1.216  0.3654  0.3623  2.2078
  268MOL0     H36173   0.385   4.661   1.331  1.1469  0.2431 -0.6680
  268MOL0     H36174   0.183   4.518   1.262 -1.1941  0.1621 -0.1115
  268MOL0     H36175   0.132   4.682   1.307  0.8147  4.1474 -2.0857
  268MOL0     H36176   0.055   4.710   0.898  1.8609  0.0680 -0.1796
  268MOL0     H36177   0.737   4.355   1.164 -0.0077 -0.7048 -0.7076
  268MOL0     H36178   1.077   4.440   1.253  1.2371 -4.4590 -0.7225
  268MOL0     H36179   0.964   4.328   1.192  0.0882 -0.8250  1.0071
  268MOL0     H36180   0.996   4.480   1.098  1.7431 -1.0258  0.8517
  269MOL0     O36181   8.843   0.119   4.044  0.2675  0.1020 -0.8154
  269MOL0     C36182   8.769   0.218   4.043 -0.4829 -0.5173 -0.5815
  269MOL0     O36183   8.773   0.307   3.942  0.7834  0.2225  0.2710
  269MOL0     C36184   8.886   0.342   3.881  0.1566  0.4215 -0.3455
  269MOL0     C36185   8.953   0.465   3.917  0.0992 -0.6639  0.0178
  269MOL0     C36186   9.085   0.493   3.876  0.2043  0.7957  0.5067
  269MOL0     C36187   9.128   0.418   3.767  0.3718 -0.0745  0.0510
  269MOL0     O36188   9.241   0.448   3.700 -0.2192 -0.5957  0.4130
  269MOL0     C36189   9.344   0.555   3.736 -0.1059  0.5378 -0.0518
  269MOL0     C36190   9.338   0.669   3.631  0.0486 -0.3423  0.2415
  269MOL0     C36191   9.398   0.784   3.704 -0.1135 -0.4930 -0.1517
  269MOL0     C36192   9.434   0.913   3.618 -0.5472 -0.6744 -1.4409
  269MOL0     C36193   9.306   0.994   3.569  0.2009  1.2834  0.4995
  269MOL0     C36194   9.326   1.109   3.472 -0.1130 -0.2689  0.0053
  269MOL0     C36195   9.416   1.223   3.521 -0.1735  0.2474 -0.0779
  269MOL0     C36196   9.377   1.283   3.662 -0.4013 -0.0864 -0.2710
  269MOL0     N36197   9.241   1.328   3.662  0.2487 -0.0537  0.8556
  269MOL0     C36198   9.166   1.380   3.554  0.2684 -0.2088 -0.0745
  269MOL0     C36199   9.040   1.381   3.608 -0.4309  1.3013  1.4123
  269MOL0     C36200   8.903   1.428   3.546 -0.5705 -0.3226 -0.9943
  269MOL0     C36201   8.894   1.387   3.399  1.0831 -0.5527 -0.8244
  269MOL0     C36202   8.746   1.408   3.350 -0.9033  0.4316  0.4916
  269MOL0     C36203   8.734   1.407   3.200 -0.2203 -0.3652 -0.4058
  269MOL0     O36204   8.833   1.501   3.148  0.1429 -0.4089  0.0170
  269MOL0     C36205   8.829   1.635   3.183 -0.1212  0.4224 -0.0918
  269MOL0     C36206   8.717   1.704   3.214  0.8680 -0.3164  0.7788
  269MOL0     C36207   8.718   1.852   3.216 -0.0763 -0.3407  0.0832
  269MOL0     C36208   8.835   1.931   3.199  0.8234 -0.1304  0.3598
  269MOL0     C36209   8.832   2.078   3.212 -0.7282 -0.6440  0.2513
  269MOL0     O36210   8.959   2.143   3.202 -0.6505  0.2126 -0.0585
  269MOL0     C36211   8.975   2.270   3.253 -0.0193  0.2202  0.0160
  269MOL0     C36212   9.091   2.280   3.332  0.2825  0.1691  0.6456
  269MOL0     C36213   9.125   2.404   3.383  0.4299  0.4932  0.4419
  269MOL0     C36214   9.057   2.517   3.354 -0.5918  0.0022  0.6210
  269MOL0     O36215   9.100   2.626   3.432  0.2550 -0.0379  0.7272
  269MOL0     C36216   8.996   2.681   3.511 -0.5596  0.4934  0.0270
  269MOL0     C36217   9.011   2.623   3.648  1.0062 -0.2524 -0.7969
  269MOL0     C36218   8.906   2.694   3.730  0.8313  0.2624 -0.5441
  269MOL0     C36219   8.859   2.615   3.854 -0.0626 -1.2673  0.6887
  269MOL0     C36220   8.975   2.611   3.971  0.1028  0.4527 -0.5895
  269MOL0     C36221   8.950   2.518   4.092  0.8673  0.2127 -0.0642
  269MOL0     C36222   8.830   2.567   4.165  0.9914  0.4037 -0.5175
  269MOL0     C36223   8.823   2.508   4.306 -0.3743 -0.4146  0.3503
  269MOL0    Cl36224   8.792   2.332   4.294  0.0618  0.3823 -0.4357
  269MOL0     C36225   8.943   2.502   3.270  0.4517  0.7778 -0.9480
  269MOL0     C36226   8.897   2.378   3.221  0.4118  0.6896 -0.0590
  269MOL0     O36227   8.728   2.133   3.236  0.7461  0.4748 -0.4810
  269MOL0     C36228   8.945   1.851   3.163  0.7074 -0.7024 -1.1418
  269MOL0     C36229   8.947   1.715   3.157  0.8507 -0.3779 -0.6543
  269MOL0     N36230   9.038   1.334   3.736 -0.6050  0.4474 -0.2691
  269MOL0     N36231   9.160   1.309   3.770  0.8095  0.7785  0.2547
  269MOL0     C36232   9.070   0.305   3.722 -0.4482  0.0868 -1.0909
  269MOL0     C36233   8.952   0.262   3.784 -0.3322  0.6106 -0.5640
  269MOL0     C36234   8.678   0.240   4.162 -0.7434  0.5364  0.3859
  269MOL0     C36235   8.594   0.357   4.170  0.2463 -0.4687 -0.9929
  269MOL0     C36236   8.492   0.362   4.267  0.9467  0.5421  1.1427
  269MOL0     C36237   8.479   0.262   4.365  0.5116  0.0420  0.5272
  269MOL0     O36238   8.389   0.265   4.471  0.3479  0.0920 -0.4266
  269MOL0     C36239   8.322   0.392   4.498  0.4228 -0.4565 -0.0717
  269MOL0     C36240   8.227   0.363   4.616  0.3776  0.2774  0.1856
  269MOL0     C36241   8.095   0.300   4.558  1.1882 -0.1131  0.0318
  269MOL0     C36242   7.975   0.247   4.649  0.1533  0.3716 -0.1437
  269MOL0     C36243   7.939   0.344   4.759  0.3267  0.6410 -0.3117
  269MOL0     C36244   7.882   0.398   4.855  0.1385 -0.0941 -0.0893
  269MOL0     C36245   8.561   0.160   4.365  0.7841 -0.2428 -0.5763
  269MOL0     C36246   8.659   0.142   4.266 -0.6853 -0.0719  0.4839
  269MOL0     C36247   8.734   0.022   4.297 -0.0801  0.8517  0.5579
  269MOL0     H36248   8.901   0.524   3.991  0.9627  1.6754 -1.1617
  269MOL0     H36249   9.138   0.575   3.924  0.0293 -0.0370  2.2183
  269MOL0     H36250   9.328   0.582   3.841  1.1737  1.3770 -0.0525
  269MOL0     H36251   9.448   0.521   3.736 -1.4000 -4.1075  0.7565
  269MOL0     H36252   9.231   0.689   3.618 -0.2555 -0.2899  2.3529
  269MOL0     H36253   9.393   0.654   3.538 -0.3794  1.0762 -0.2710
  269MOL0     H36254   9.500   0.749   3.725  0.4898  0.5412 -1.2178
  269MOL0     H36255   9.336   0.809   3.791 -2.7078 -0.3081 -1.9383
  269MOL0     H36256   9.498   0.985   3.670 -1.1306 -0.8149 -0.5129
  269MOL0     H36257   9.486   0.870   3.532  1.9021  0.8737 -0.8593
  269MOL0     H36258   9.247   0.918   3.518 -0.5064  0.3619  2.5998
  269MOL0     H36259   9.246   1.023   3.656 -1.1589 -3.5385  1.4671
  269MOL0     H36260   9.370   1.068   3.380  0.0732 -0.8685  0.3580
  269MOL0     H36261   9.234   1.156   3.435 -0.4389  1.3681  2.6105
  269MOL0     H36262   9.390   1.305   3.453  1.5132  1.1173  0.2835
  269MOL0     H36263   9.522   1.196   3.515 -1.0588 -4.1507  0.3349
  269MOL0     H36264   9.385   1.203   3.735 -1.3998  0.0395 -0.0222
  269MOL0     H36265   9.446   1.363   3.692 -0.7338  1.6001 -3.5530
  269MOL0     H36266   9.188   1.400   3.450 -1.2746  0.7711 -0.2451
  269MOL0     H36267   8.817   1.385   3.598 -0.5627 -2.3587 -2.5272
  269MOL0     H36268   8.894   1.535   3.564 -3.0639 -0.4370 -1.2650
  269MOL0     H36269   8.976   1.433   3.343 -1.8375  1.8328 -3.5354
  269MOL0     H36270   8.909   1.279   3.396  0.2192 -0.7040  0.0052
  269MOL0     H36271   8.708   1.495   3.404  0.9316  1.4075  0.2839
  269MOL0     H36272   8.692   1.316   3.371 -0.0378  0.3128  2.4198
  269MOL0     H36273   8.633   1.438   3.169  0.4709 -0.6319 -3.2046
  269MOL0     H36274   8.736   1.301   3.173 -2.6905 -0.3520 -0.9582
  269MOL0     H36275   8.624   1.650   3.229  1.0478  0.0325  3.9012
  269MOL0     H36276   8.627   1.901   3.249  1.1230  1.8441  0.3121
  269MOL0     H36277   9.142   2.189   3.363 -0.3548 -0.1608  0.7337
  269MOL0     H36278   9.217   2.406   3.442 -0.7080 -0.1352  2.3355
  269MOL0     H36279   9.023   2.785   3.528 -0.5644  0.3893  0.7059
  269MOL0     H36280   8.904   2.670   3.452  1.7315 -1.3406 -3.5210
  269MOL0     H36281   8.977   2.518   3.648 -2.0632  0.6027  1.0608
  269MOL0     H36282   9.116   2.631   3.675  0.9602  1.9025 -1.1199
  269MOL0     H36283   8.915   2.802   3.743 -3.0686  0.6616 -0.2375
  269MOL0     H36284   8.813   2.696   3.673 -0.1759  0.9178  1.0502
  269MOL0     H36285   8.822   2.513   3.836 -0.4663 -1.6310  3.1874
  269MOL0     H36286   8.769   2.668   3.886 -0.9007 -0.5217 -2.5471
  269MOL0     H36287   9.005   2.710   4.008  0.0296  0.7126 -1.2164
  269MOL0     H36288   9.062   2.582   3.911  0.2524  2.1682 -1.2557
  269MOL0     H36289   8.932   2.415   4.063 -0.7314  0.5693 -0.4447
  269MOL0     H36290   9.044   2.524   4.149  1.8925  0.2037 -1.6717
  269MOL0     H36291   8.737   2.527   4.123  0.2797  2.1104 -0.6599
  269MOL0     H36292   8.826   2.677   4.169  2.8743  0.4713  0.8850
  269MOL0     H36293   8.923   2.524   4.348 -0.7863  1.7959  0.6151
  269MOL0     H36294   8.740   2.560   4.354 -2.7343 -3.3961 -0.1434
  269MOL0     H36295   8.888   2.593   3.246  0.4486  1.6790  2.0958
  269MOL0     H36296   8.808   2.374   3.159  1.2502  1.5691 -1.3666
  269MOL0     H36297   9.043   1.895   3.146  0.8920 -0.3517  0.5635
  269MOL0     H36298   9.031   1.663   3.112  0.0771 -1.6995 -0.6005
  269MOL0     H36299   9.116   0.250   3.640  2.6301 -0.0844  0.6088
  269MOL0     H36300   8.911   0.170   3.744  1.1930  0.1741 -1.2066
  269MOL0     H36301   8.601   0.436   4.096  2.7529 -0.4698 -0.8328
  269MOL0     H36302   8.436   0.454   4.262 -1.6168 -0.9527  0.6918
  269MOL0     H36303   8.256   0.413   4.413 -0.6767 -0.2696  0.8012
  269MOL0     H36304   8.381   0.480   4.526 -1.8713  0.1955  3.4840
  269MOL0     H36305   8.190   0.459   4.654 -2.3867  0.3484 -2.2834
  269MOL0     H36306   8.276   0.296   4.686  0.3742  1.7044  1.6167
  269MOL0     H36307   8.133   0.210   4.507  1.9880  1.6006 -2.6244
  269MOL0     H36308   8.041   0.365   4.488 -0.1428 -0.0866  1.0575
  269MOL0     H36309   7.882   0.235   4.591  1.3005  0.2317 -2.0452
  269MOL0     H36310   7.988   0.146   4.690 -1.7735 -0.3759 -1.2277
  269MOL0     H36311   7.831   0.457   4.928 -2.5451 -1.6357 -0.6186
  269MOL0     H36312   8.568   0.092   4.449 -0.2050  0.5364  0.1629
  269MOL0     H36313   8.831   0.018   4.246 -2.2819 -2.7357 -4.0416
  269MOL0     H36314   8.754   0.018   4.405  0.5668  1.0343  0.4464
  269MOL0     H36315   8.688  -0.068   4.256  1.4237  0.4458 -0.2993
  270MOL0     O36316   2.400  10.083   5.260  0.3873 -0.4114 -0.4609
  270MOL0     C36317   2.475  10.075   5.357 -0.7129  0.2590 -0.3492
  270MOL0     O36318   2.438  10.031   5.484 -0.6362 -0.1086 -0.1637
  270MOL0     C36319   2.304  10.010   5.502  0.4082  0.1760  0.4785
  270MOL0     C36320   2.250   9.881   5.532  0.1844 -0.3940  0.2917
  270MOL0     C36321   2.111   9.870   5.558  0.1750  0.6761 -0.0150
  270MOL0     C36322   2.020   9.978   5.549 -0.5741 -0.0189 -0.1926
  270MOL0     O36323   1.892   9.960   5.590 -0.0972  0.3138  0.0166
  270MOL0     C36324   1.807  10.077   5.600 -0.8620  0.4355  0.3423
  270MOL0     C36325   1.692  10.063   5.706  0.8887  0.3073  0.4050
  270MOL0     C36326   1.613   9.930   5.709 -0.0617  0.8713 -0.3309
  270MOL0     C36327   1.491   9.941   5.802  0.6049 -0.2546  0.5075
  270MOL0     C36328   1.376   9.865   5.735 -0.1853  0.1250  0.0853
  270MOL0     C36329   1.231   9.847   5.806 -0.2007 -0.1778 -0.0728
  270MOL0     C36330   1.148   9.984   5.829  0.4863  0.3079  0.3351
  270MOL0     C36331   1.003   9.941   5.847 -0.0879  0.4779  0.1429
  270MOL0     N36332   0.917  10.047   5.899  0.1188 -1.3072  0.3557
  270MOL0     C36333   0.798  10.097   5.837 -0.5335 -0.5107  0.7912
  270MOL0     C36334   0.753  10.186   5.924 -0.8311  0.7689 -0.6543
  270MOL0     C36335   0.636  10.279   5.905 -0.1692 -0.0713  0.0098
  270MOL0     C36336   0.516  10.218   5.829  0.1149 -0.4837 -0.0418
  270MOL0     C36337   0.386  10.306   5.848 -0.6809  0.5181  1.2663
  270MOL0     C36338   0.397  10.458   5.805  0.0057 -0.2638 -0.3973
  270MOL0     O36339   0.466  10.470   5.677 -0.5581  0.4784  0.1682
  270MOL0     C36340   0.414  10.399   5.569  0.1178 -0.2042 -0.8934
  270MOL0     C36341   0.509  10.363   5.472  0.0389  1.1256  0.0191
  270MOL0     C36342   0.471  10.290   5.360  0.0889 -0.5205 -0.2792
  270MOL0     C36343   0.336  10.258   5.342 -0.5949 -0.4637  0.4310
  270MOL0     C36344   0.291  10.182   5.224 -0.5265 -1.0487  1.1193
  270MOL0     O36345   0.159  10.187   5.205  0.9059  0.4924 -0.6867
  270MOL0     C36346   0.105  10.079   5.148  0.3996 -0.2093  0.3064
  270MOL0     C36347   0.109   9.955   5.210 -1.0518 -0.5667 -0.3047
  270MOL0     C36348   0.039   9.846   5.172 -0.0239 -0.1892  0.2903
  270MOL0     C36349  -0.042   9.853   5.054  0.2664 -0.9605 -0.7146
  270MOL0     O36350  -0.119   9.756   5.000  0.5273  0.7268 -0.1272
  270MOL0     C36351  -0.025   9.663   4.933 -0.5338  0.1016 -0.0063
  270MOL0     C36352  -0.095   9.542   4.890 -0.3383 -1.2590  0.1529
  270MOL0     C36353  -0.142   9.449   4.999  0.0846  0.3913 -0.0076
  270MOL0     C36354  -0.079   9.309   4.988 -0.4875 -0.4109 -1.4589
  270MOL0     C36355  -0.134   9.208   5.088 -0.0024  0.5492 -0.5880
  270MOL0     C36356  -0.096   9.068   5.025  0.0098  0.1598  0.2704
  270MOL0     C36357  -0.105   8.959   5.128 -0.1541  0.6425 -0.0015
  270MOL0     C36358  -0.061   8.837   5.052  0.3789 -0.4214  0.6407
  270MOL0    Cl36359  -0.138   8.690   5.103 -0.4194  0.0588 -0.2185
  270MOL0     C36360  -0.060   9.980   4.990  0.1661 -0.4900  0.4585
  270MOL0     C36361   0.011  10.089   5.042  0.1656 -0.5194 -0.8482
  270MOL0     O36362   0.368  10.111   5.163 -0.0334 -1.0842 -0.1035
  270MOL0     C36363   0.246  10.298   5.437  0.3393  0.1702  0.2381
  270MOL0     C36364   0.281  10.375   5.552  0.8123  0.2540 -0.8632
  270MOL0     N36365   0.837  10.182   6.038 -0.0889  0.6238 -0.6744
  270MOL0     N36366   0.933  10.102   6.023 -1.0833 -0.1649 -0.7450
  270MOL0     C36367   2.081  10.100   5.510 -0.0142  0.0951  0.5643
  270MOL0     C36368   2.220  10.110   5.489  0.9440  0.2314  0.4917
  270MOL0     C36369   2.618  10.108   5.338  0.2080 -0.3354  0.4758
  270MOL0     C36370   2.684  10.187   5.441  0.1520  0.1890  0.0902
  270MOL0     C36371   2.805  10.250   5.428 -0.3553  0.5644  0.1746
  270MOL0     C36372   2.879  10.225   5.309  0.7791  0.1344  0.1232
  270MOL0     O36373   2.993  10.284   5.275  0.1025 -0.8975  0.8894
  270MOL0     C36374   3.110  10.295   5.359 -0.0939  0.1276  0.4235
  270MOL0     C36375   3.131  10.418   5.446 -0.2033 -1.4837 -0.2445
  270MOL0     C36376   3.262  10.496   5.418 -0.3401  0.2582 -0.1913
  270MOL0     C36377   3.264  10.641   5.475  0.4496  0.2604  0.5492
  270MOL0     C36378   3.192  10.730   5.388 -0.1311  1.0912 -0.2728
  270MOL0     C36379   3.124  10.786   5.306  0.0873 -0.2142 -0.9058
  270MOL0     C36380   2.805  10.160   5.203 -0.0994 -0.2003  0.4467
  270MOL0     C36381   2.680  10.110   5.207 -0.2722  0.5700 -0.4635
  270MOL0     C36382   2.608  10.049   5.090  0.9930  0.1395  0.2128
  270MOL0     H36383   2.313   9.794   5.547  2.2657  0.8751 -0.6713
  270MOL0     H36384   2.066   9.771   5.563  1.9892 -0.1837 -0.2232
  270MOL0     H36385   1.861  10.165   5.637 -0.5869  0.3027  0.2568
  270MOL0     H36386   1.770  10.084   5.497  1.5037 -1.7496 -0.7792
  270MOL0     H36387   1.628  10.144   5.670  2.4414  1.5887  0.3807
  270MOL0     H36388   1.728  10.099   5.802 -1.3043  0.5048  1.1967
  270MOL0     H36389   1.679   9.846   5.732 -0.6229  1.0622  2.4132
  270MOL0     H36390   1.578   9.913   5.607 -2.9871  1.0299  0.5484
  270MOL0     H36391   1.512   9.889   5.896 -0.5235  0.8664  1.4238
  270MOL0     H36392   1.459  10.043   5.824  1.5819  1.3414 -4.2316
  270MOL0     H36393   1.360   9.923   5.644  1.9469  0.8898  0.1513
  270MOL0     H36394   1.415   9.767   5.709 -1.1080 -0.8965  2.2409
  270MOL0     H36395   1.166   9.785   5.743 -2.5125 -1.7401  3.5321
  270MOL0     H36396   1.240   9.797   5.903 -2.1448 -1.0253 -0.2864
  270MOL0     H36397   1.158  10.060   5.751 -0.4654  3.0720  2.7182
  270MOL0     H36398   1.179  10.041   5.917 -1.4783  2.1570 -0.0863
  270MOL0     H36399   0.970   9.913   5.747  1.7998  2.5549 -1.1455
  270MOL0     H36400   0.997   9.860   5.920 -1.7317  1.5002  1.2012
  270MOL0     H36401   0.764  10.084   5.735  1.6033  2.1966 -0.3924
  270MOL0     H36402   0.605  10.325   6.000 -0.1550  0.7435 -0.3796
  270MOL0     H36403   0.680  10.363   5.852  2.2535 -0.0941  1.8160
  270MOL0     H36404   0.551  10.205   5.726  2.7927  3.9272  0.0788
  270MOL0     H36405   0.486  10.122   5.873  0.4330 -0.6936 -0.2765
  270MOL0     H36406   0.349  10.300   5.951  2.0661 -1.6265  2.2524
  270MOL0     H36407   0.314  10.257   5.782 -2.3136  3.6021  0.5500
  270MOL0     H36408   0.453  10.519   5.875  0.4379  0.4681 -1.3531
  270MOL0     H36409   0.298  10.498   5.782  0.3304  0.5576 -0.4043
  270MOL0     H36410   0.612  10.383   5.497  0.1291  1.7644 -0.8075
  270MOL0     H36411   0.554  10.259   5.297  1.8890 -2.3952  2.7460
  270MOL0     H36412   0.162   9.966   5.304  0.2716 -1.0827 -0.9512
  270MOL0     H36413   0.038   9.756   5.233  0.5819 -0.4491 -0.0736
  270MOL0     H36414   0.014   9.711   4.843 -2.7940 -0.6888 -1.4903
  270MOL0     H36415   0.063   9.641   4.995  1.9049 -2.2451 -3.8875
  270MOL0     H36416  -0.172   9.574   4.819  2.4578  0.1528 -2.4509
  270MOL0     H36417  -0.021   9.485   4.833  0.8471 -5.4420  5.0986
  270MOL0     H36418  -0.109   9.497   5.091  2.5156  0.5667 -0.9123
  270MOL0     H36419  -0.252   9.449   5.004 -0.3362 -4.6807 -2.5068
  270MOL0     H36420   0.028   9.323   5.003 -0.7941  0.3312  0.2338
  270MOL0     H36421  -0.103   9.279   4.886  1.7409 -1.6885 -1.6669
  270MOL0     H36422  -0.241   9.224   5.107  0.0145  0.3764 -0.3487
  270MOL0     H36423  -0.076   9.222   5.179 -0.4974  1.0969 -0.3494
  270MOL0     H36424  -0.167   9.070   4.942  1.3937  0.2278 -0.9578
  270MOL0     H36425  -0.001   9.066   4.971 -0.3356  1.1436 -0.3950
  270MOL0     H36426  -0.208   8.933   5.156 -0.0006  1.6174  1.5408
  270MOL0     H36427  -0.043   8.973   5.217  3.4961 -0.6766 -2.1042
  270MOL0     H36428  -0.080   8.850   4.945 -1.1094  0.6170  0.9929
  270MOL0     H36429   0.046   8.821   5.063  0.3135 -0.1191  1.8465
  270MOL0     H36430  -0.116   9.983   4.896 -4.1613  0.8853  2.7808
  270MOL0     H36431  -0.000  10.185   4.993 -0.1879 -1.6521 -3.1040
  270MOL0     H36432   0.147  10.255   5.427 -0.1718 -0.1876  4.8853
  270MOL0     H36433   0.201  10.403   5.619  1.6008  4.4808 -1.4307
  270MOL0     H36434   2.025  10.192   5.498 -2.1531 -1.3705 -1.4032
  270MOL0     H36435   2.273  10.198   5.455  1.4861  0.8952  2.8291
  270MOL0     H36436   2.636  10.202   5.538 -1.0934 -0.6366 -0.3763
  270MOL0     H36437   2.839  10.308   5.513  3.0821 -2.3065  1.0396
  270MOL0     H36438   3.195  10.289   5.291 -0.1200  2.5099  0.0834
  270MOL0     H36439   3.124  10.210   5.426  3.1603  2.4589  3.0798
  270MOL0     H36440   3.122  10.398   5.554 -0.8296  1.5939  0.3594
  270MOL0     H36441   3.042  10.479   5.433 -0.3852 -1.6883  0.0180
  270MOL0     H36442   3.295  10.494   5.314  1.5141 -4.0351  0.2712
  270MOL0     H36443   3.339  10.436   5.467  0.2345 -0.1631 -1.5876
  270MOL0     H36444   3.212  10.642   5.571  1.2433  1.2206  0.9838
  270MOL0     H36445   3.365  10.678   5.495  0.4320  1.2005 -0.9184
  270MOL0     H36446   3.055  10.823   5.232 -0.4962  2.1893  0.6949
  270MOL0     H36447   2.857  10.171   5.109 -0.2905  1.4464  0.5100
  270MOL0     H36448   2.678  10.005   5.018 -0.7193 -0.4786 -1.1476
  270MOL0     H36449   2.544   9.965   5.120 -2.6770  2.0562 -1.6109
  270MOL0     H36450   2.546  10.122   5.037  0.2065  0.6243  1.7399
  271MOL0     O36451   2.450   7.954   6.035 -0.8933  0.4343 -0.5289
  271MOL0     C36452   2.554   7.982   5.970 -0.6212  0.3669 -0.3111
  271MOL0     O36453   2.607   8.109   5.964  0.2408  0.4046  0.1093
  271MOL0     C36454   2.555   8.215   6.039 -0.7216 -0.4908  0.0753
  271MOL0     C36455   2.438   8.284   6.017  0.1918 -0.9485  0.4663
  271MOL0     C36456   2.409   8.396   6.093 -0.3624  0.4108 -1.4642
  271MOL0     C36457   2.507   8.448   6.175  0.3172  0.0481 -0.5373
  271MOL0     O36458   2.490   8.552   6.262  0.6769 -0.1444  0.3071
  271MOL0     C36459   2.453   8.494   6.387  0.6005  0.0039 -0.5636
  271MOL0     C36460   2.546   8.525   6.505 -0.9698  0.2298 -0.3844
  271MOL0     C36461   2.582   8.679   6.507 -1.1719  0.2296 -0.0589
  271MOL0     C36462   2.473   8.773   6.565 -0.1696 -0.3217  0.0381
  271MOL0     C36463   2.413   8.876   6.471  0.2267 -0.1027 -0.1702
  271MOL0     C36464   2.297   8.818   6.390 -0.1367  0.8075 -0.0129
  271MOL0     C36465   2.262   8.910   6.268 -0.0609 -0.0359  0.2077
  271MOL0     C36466   2.175   8.824   6.169 -0.7710 -0.3485  0.2870
  271MOL0     N36467   2.120   8.906   6.059  0.6970  0.7357 -0.3279
  271MOL0     C36468   2.007   8.993   6.053 -0.1771  0.0829 -1.1105
  271MOL0     C36469   2.016   9.057   5.945  0.5602 -0.1039 -0.3287
  271MOL0     C36470   1.909   9.146   5.897  0.1166  1.3277  1.1440
  271MOL0     C36471   1.835   9.083   5.781 -0.3784 -0.4926 -0.3340
  271MOL0     C36472   1.750   8.951   5.802  0.0899 -0.2445  0.1423
  271MOL0     C36473   1.621   8.957   5.888 -0.8109  0.2222 -0.5318
  271MOL0     O36474   1.522   9.033   5.827 -0.3794 -0.5569 -0.2732
  271MOL0     C36475   1.437   9.123   5.886 -0.1589 -1.2402  0.3301
  271MOL0     C36476   1.376   9.201   5.791  0.4613  0.4230  0.1639
  271MOL0     C36477   1.279   9.295   5.828 -0.0036 -0.3041 -1.1800
  271MOL0     C36478   1.248   9.311   5.969 -1.0389 -0.4577 -0.0998
  271MOL0     C36479   1.163   9.422   6.014  0.0393 -0.9408  0.2839
  271MOL0     O36480   1.126   9.422   6.144 -0.0642  0.1216  0.0909
  271MOL0     C36481   1.026   9.514   6.173  0.4981  0.4187  0.4583
  271MOL0     C36482   1.048   9.653   6.156  0.2384 -1.1427 -0.8317
  271MOL0     C36483   0.942   9.748   6.183 -0.2040 -0.0843  0.9896
  271MOL0     C36484   0.812   9.693   6.211 -1.0955 -0.5247 -0.1621
  271MOL0     O36485   0.697   9.767   6.227  0.8769  0.9711  0.4834
  271MOL0     C36486   0.641   9.837   6.123  0.2579 -0.2541  0.2746
  271MOL0     C36487   0.597   9.976   6.172  0.1008  0.3524 -0.1923
  271MOL0     C36488   0.495   9.976   6.279 -0.3119  0.1156 -0.5493
  271MOL0     C36489   0.364   9.926   6.230  0.7728  0.5150  0.6030
  271MOL0     C36490   0.254   9.946   6.336  0.3639  0.2619 -0.0296
  271MOL0     C36491   0.199  10.091   6.331  0.2261  0.8571 -0.4046
  271MOL0     C36492   0.060  10.089   6.401 -0.3765  1.3503 -0.3001
  271MOL0     C36493   0.041  10.017   6.539  1.0208 -0.4485  0.2901
  271MOL0    Cl36494  -0.123  10.082   6.598 -0.3321  0.1968  0.0109
  271MOL0     C36495   0.800   9.551   6.216  0.1917 -0.4648 -1.4752
  271MOL0     C36496   0.905   9.463   6.194  0.2931  0.0081  0.3129
  271MOL0     O36497   1.108   9.484   5.916  0.0105  0.2494 -0.4251
  271MOL0     C36498   1.316   9.235   6.062 -0.0800  0.3616  0.2258
  271MOL0     C36499   1.405   9.130   6.025 -0.8393  0.6543  0.1436
  271MOL0     N36500   2.144   9.027   5.887 -0.4696  0.0369 -0.3320
  271MOL0     N36501   2.197   8.935   5.961  0.3018 -0.5076 -0.4397
  271MOL0     C36502   2.636   8.388   6.187 -0.8885 -0.0407 -0.3132
  271MOL0     C36503   2.646   8.261   6.125  0.2204 -0.1878  0.1323
  271MOL0     C36504   2.614   7.872   5.886 -0.2611  0.1497  0.7899
  271MOL0     C36505   2.663   7.893   5.756  0.5717  0.2345  0.2121
  271MOL0     C36506   2.745   7.805   5.693  0.3843  0.2884  0.6397
  271MOL0     C36507   2.760   7.673   5.743  0.7468 -0.7540  1.1802
  271MOL0     O36508   2.817   7.581   5.658  0.5075  0.2154 -0.2360
  271MOL0     C36509   2.962   7.593   5.650 -0.3000  0.1963 -0.5618
  271MOL0     C36510   3.035   7.474   5.715 -0.0275  0.2165  0.2991
  271MOL0     C36511   2.996   7.339   5.659 -0.3760  0.5578 -0.7269
  271MOL0     C36512   3.106   7.261   5.589  0.5911 -0.3636  0.7544
  271MOL0     C36513   3.154   7.330   5.466 -1.6237 -0.0156 -0.6649
  271MOL0     C36514   3.195   7.408   5.384 -0.4032  0.1130  0.5725
  271MOL0     C36515   2.711   7.643   5.867 -0.4604  0.2399 -0.7028
  271MOL0     C36516   2.630   7.734   5.934 -0.0157 -0.1062 -0.4358
  271MOL0     C36517   2.576   7.685   6.065  0.7921  0.5855  0.5664
  271MOL0     H36518   2.362   8.234   5.958 -2.3329  0.7716  2.0719
  271MOL0     H36519   2.313   8.444   6.077 -0.1336  0.3620 -3.1887
  271MOL0     H36520   2.350   8.521   6.413  0.1941 -1.1583 -0.9078
  271MOL0     H36521   2.462   8.385   6.399 -3.4499 -0.3418  0.9203
  271MOL0     H36522   2.634   8.462   6.491 -0.0305  1.3414  0.3237
  271MOL0     H36523   2.496   8.490   6.596 -4.7169 -0.2135 -2.4031
  271MOL0     H36524   2.621   8.728   6.417 -2.5905  1.1722 -0.2046
  271MOL0     H36525   2.665   8.683   6.578 -2.7447 -1.4302  2.0323
  271MOL0     H36526   2.395   8.715   6.616 -2.7214  0.0404 -3.1231
  271MOL0     H36527   2.528   8.833   6.638  4.1272 -0.7788 -2.5023
  271MOL0     H36528   2.359   8.953   6.527 -1.5325  0.9976 -3.1366
  271MOL0     H36529   2.492   8.914   6.406 -0.7932 -0.2537 -1.5538
  271MOL0     H36530   2.325   8.714   6.368 -1.8769  0.1759  0.6391
  271MOL0     H36531   2.207   8.803   6.450 -1.2370  1.8908 -1.3174
  271MOL0     H36532   2.342   8.960   6.211 -1.2243 -2.0565 -3.4960
  271MOL0     H36533   2.204   8.999   6.295 -0.5023 -0.6367  1.3376
  271MOL0     H36534   2.246   8.755   6.122  1.8100  1.6676  0.9808
  271MOL0     H36535   2.086   8.774   6.210 -0.9800  1.1822  1.7900
  271MOL0     H36536   1.928   9.007   6.125 -0.9839 -1.4615 -1.6351
  271MOL0     H36537   1.834   9.155   5.976  0.2979 -4.1945  2.3461
  271MOL0     H36538   1.957   9.241   5.871  0.6599  1.2225  1.7425
  271MOL0     H36539   1.776   9.161   5.731 -0.8420 -0.3110  0.4937
  271MOL0     H36540   1.912   9.074   5.703  1.9778  2.6744  1.3777
  271MOL0     H36541   1.823   8.878   5.839 -0.4244 -0.0006  1.6929
  271MOL0     H36542   1.721   8.919   5.701  3.7375  1.1398 -1.5454
  271MOL0     H36543   1.634   8.983   5.994 -1.1075 -3.4259  0.5219
  271MOL0     H36544   1.575   8.858   5.893 -4.4093  1.6495 -2.0489
  271MOL0     H36545   1.388   9.181   5.685 -0.7918 -0.0284  0.0900
  271MOL0     H36546   1.236   9.356   5.750 -1.1553  0.3248 -0.0942
  271MOL0     H36547   1.149   9.674   6.123  1.1011 -2.3903  0.9045
  271MOL0     H36548   0.952   9.855   6.173 -1.8802  0.4985  3.9862
  271MOL0     H36549   0.721   9.849   6.050  0.4309 -0.8535  0.3558
  271MOL0     H36550   0.556   9.787   6.076  2.2739 -3.7942  0.0061
  271MOL0     H36551   0.684  10.032   6.206 -2.1585  3.8760  0.3269
  271MOL0     H36552   0.560  10.034   6.087 -0.7962  0.9333  0.5751
  271MOL0     H36553   0.534   9.916   6.361 -1.4292 -0.9278 -0.7465
  271MOL0     H36554   0.490  10.076   6.322 -1.2920 -0.3460  0.4521
  271MOL0     H36555   0.368   9.818   6.212  1.5735  0.5846  0.3277
  271MOL0     H36556   0.338   9.964   6.130 -0.2352 -2.9757 -0.6183
  271MOL0     H36557   0.278   9.920   6.439  0.6743  4.9437  1.3085
  271MOL0     H36558   0.173   9.878   6.308  1.8211 -0.6141 -2.4295
  271MOL0     H36559   0.259  10.174   6.371 -3.3346  3.1366  0.6980
  271MOL0     H36560   0.170  10.117   6.229  0.4426  1.5249 -0.3019
  271MOL0     H36561  -0.003  10.034   6.330  0.2357 -2.8458  2.1023
  271MOL0     H36562   0.024  10.192   6.410 -1.7002  0.8315  0.8262
  271MOL0     H36563   0.030   9.909   6.532  1.7920 -0.4248 -2.1726
  271MOL0     H36564   0.119  10.045   6.611  0.3992  0.4114  0.6529
  271MOL0     H36565   0.703   9.511   6.242 -1.4546  2.8064 -2.1219
  271MOL0     H36566   0.881   9.357   6.193 -4.5303  0.8665  0.5186
  271MOL0     H36567   1.290   9.245   6.167  2.9252 -0.0490  1.1088
  271MOL0     H36568   1.442   9.073   6.109 -0.1154  0.3891 -0.3449
  271MOL0     H36569   2.712   8.432   6.250 -3.1630  0.0676  2.5957
  271MOL0     H36570   2.740   8.210   6.144  1.6136  2.3598  0.6056
  271MOL0     H36571   2.663   7.992   5.712  0.4436  0.2502  0.2440
  271MOL0     H36572   2.774   7.836   5.592  0.2297 -2.2213 -0.2341
  271MOL0     H36573   2.993   7.691   5.687 -3.3749  1.6416 -1.4604
  271MOL0     H36574   2.992   7.589   5.545 -1.1444  1.1751 -0.8596
  271MOL0     H36575   3.007   7.479   5.821 -1.1284 -0.8708  0.0718
  271MOL0     H36576   3.142   7.495   5.703 -0.0233  0.2065  0.3178
  271MOL0     H36577   2.901   7.340   5.604 -0.3261  2.3258 -0.8269
  271MOL0     H36578   2.964   7.277   5.744 -1.8505  2.1673 -0.0447
  271MOL0     H36579   3.199   7.272   5.645  1.1426  5.2059 -0.6488
  271MOL0     H36580   3.076   7.159   5.563 -0.3070 -0.0863  0.6821
  271MOL0     H36581   3.243   7.477   5.318 -2.0022 -0.4208 -1.2525
  271MOL0     H36582   2.705   7.538   5.893  1.7670  0.1240 -0.5028
  271MOL0     H36583   2.621   7.722   6.157  0.2928 -0.7142  1.3584
  271MOL0     H36584   2.470   7.712   6.064 -0.0011 -2.1489 -1.3170
  271MOL0     H36585   2.560   7.577   6.061 -0.7788  0.6927  2.5202
  272MOL0     O36586   9.218   7.523   5.859 -0.1010 -0.6828  0.2464
  272MOL0     C36587   9.258   7.502   5.745 -0.4345  0.6765 -0.1763
  272MOL0     O36588   9.389   7.489   5.706 -1.0142 -0.2974  0.0438
  272MOL0     C36589   9.490   7.547   5.789 -0.1373  0.4503  0.6588
  272MOL0     C36590   9.510   7.518   5.926  0.6109  0.2948  0.4288
  272MOL0     C36591   9.617   7.574   5.994  0.0319 -0.2116 -0.4441
  272MOL0     C36592   9.706   7.662   5.930  0.2875 -0.5231 -0.0972
  272MOL0     O36593   9.806   7.714   6.002  0.3586  0.2971  0.0697
  272MOL0     C36594   9.839   7.848   5.978 -0.6954  0.6458 -0.9319
  272MOL0     C36595   9.969   7.895   6.044  0.6823  0.7804 -0.6859
  272MOL0     C36596   9.953   7.918   6.200  0.0995  0.0854 -0.3441
  272MOL0     C36597  10.083   7.953   6.279 -0.4329  0.0593  0.4389
  272MOL0     C36598  10.075   7.931   6.430  0.2617 -0.7541  0.6105
  272MOL0     C36599   9.963   8.001   6.510  0.6574 -0.3111 -0.2377
  272MOL0     C36600   9.984   8.152   6.513 -0.4795  0.1136 -0.0347
  272MOL0     C36601   9.901   8.221   6.616 -0.6503  0.0735 -0.1983
  272MOL0     N36602   9.944   8.365   6.616 -0.2817  0.4492 -0.4476
  272MOL0     C36603   9.909   8.454   6.526 -0.4881 -0.2695  0.8312
  272MOL0     C36604   9.940   8.581   6.570 -0.3704 -0.0553 -0.2459
  272MOL0     C36605   9.917   8.711   6.501 -0.4748  1.5405 -0.3637
  272MOL0     C36606   9.775   8.760   6.478 -0.8256 -0.6028 -0.4537
  272MOL0     C36607   9.760   8.887   6.389 -0.2922 -0.1836  0.2201
  272MOL0     C36608   9.828   9.005   6.453 -0.4129 -0.4068  0.3702
  272MOL0     O36609   9.810   9.131   6.378 -0.3970 -0.0096 -0.2930
  272MOL0     C36610   9.838   9.254   6.439 -0.5611  0.5400 -0.7424
  272MOL0     C36611   9.858   9.366   6.355  0.0242  0.1772 -0.8092
  272MOL0     C36612   9.897   9.497   6.394  0.0056  0.6896  0.1337
  272MOL0     C36613   9.912   9.521   6.533 -0.0940 -0.4276  0.4474
  272MOL0     C36614   9.962   9.649   6.584  0.8066 -0.1079  1.2929
  272MOL0     O36615   9.949   9.750   6.503 -0.1241 -0.3441  0.1879
  272MOL0     C36616  10.003   9.868   6.531 -0.3146  0.0372  0.4949
  272MOL0     C36617  10.008   9.927   6.661 -0.7535  0.5953 -0.4306
  272MOL0     C36618  10.078  10.049   6.685  1.2094 -0.1329 -0.9852
  272MOL0     C36619  10.129  10.123   6.582  0.7999 -0.2945  0.5608
  272MOL0     O36620  10.189  10.240   6.621 -0.6426 -0.1078  0.5672
  272MOL0     C36621  10.173  10.358   6.535  0.3456  0.4242 -0.1814
  272MOL0     C36622  10.293  10.365   6.450 -0.0422 -0.4435  0.4635
  272MOL0     C36623  10.279  10.467   6.336 -0.7613 -0.4830  0.8158
  272MOL0     C36624  10.407  10.486   6.248 -0.5713 -0.2983  0.1963
  272MOL0     C36625  10.378  10.558   6.116  0.4498  0.8155  0.1712
  272MOL0     C36626  10.504  10.545   6.034  0.2396  0.2745 -0.6768
  272MOL0     C36627  10.610  10.649   6.079 -0.0610  0.4756 -0.0021
  272MOL0     C36628  10.592  10.784   6.019  0.1390 -0.5686  0.9766
  272MOL0    Cl36629  10.688  10.777   5.864 -0.0616 -0.3629 -0.2581
  272MOL0     C36630  10.123  10.071   6.459 -0.7239  0.2815 -0.1537
  272MOL0     C36631  10.055   9.948   6.430  0.8332 -0.0019  0.3386
  272MOL0     O36632  10.027   9.648   6.688 -0.2755  0.1356 -0.0048
  272MOL0     C36633   9.889   9.411   6.622 -0.0498 -0.4019  0.1980
  272MOL0     C36634   9.855   9.282   6.575  0.3727 -0.1401  0.0749
  272MOL0     N36635   9.989   8.561   6.699 -0.1970  0.5598 -0.0691
  272MOL0     N36636   9.992   8.433   6.720 -0.0576 -0.0017  0.4072
  272MOL0     C36637   9.685   7.685   5.792 -0.4798  0.1077  0.1802
  272MOL0     C36638   9.585   7.618   5.725  0.2534 -0.2909  0.4802
  272MOL0     C36639   9.149   7.465   5.643 -0.5397  0.2711  0.1137
  272MOL0     C36640   9.025   7.525   5.654 -0.9127 -0.2275  0.2952
  272MOL0     C36641   8.929   7.505   5.562 -0.2592 -0.3332 -0.6507
  272MOL0     C36642   8.950   7.435   5.440 -0.4210  0.3114  0.4776
  272MOL0     O36643   8.853   7.426   5.344 -0.8886  0.3749  0.5149
  272MOL0     C36644   8.734   7.505   5.368 -0.1952 -0.8589  0.0319
  272MOL0     C36645   8.641   7.485   5.243  0.3655 -0.5967 -1.2609
  272MOL0     C36646   8.723   7.514   5.107 -0.2796 -0.7867  0.3863
  272MOL0     C36647   8.637   7.503   4.981  0.3157  0.8582  0.0084
  272MOL0     C36648   8.701   7.545   4.860  0.6313  0.4099 -0.5221
  272MOL0     C36649   8.752   7.586   4.753  0.0301  1.1336 -0.0081
  272MOL0     C36650   9.069   7.369   5.419 -1.6808 -1.4876 -0.6076
  272MOL0     C36651   9.173   7.380   5.523  0.1020 -0.2790 -0.0971
  272MOL0     C36652   9.298   7.313   5.488  0.0263 -0.0309 -1.3948
  272MOL0     H36653   9.453   7.439   5.974  0.1719  1.2814  1.5797
  272MOL0     H36654   9.623   7.557   6.101 -0.3790 -1.0928 -0.5559
  272MOL0     H36655   9.856   7.865   5.871  2.3963 -1.3740 -0.8911
  272MOL0     H36656   9.763   7.912   6.022  1.1160  0.9505  2.0198
  272MOL0     H36657  10.005   7.986   5.996  1.0566  1.6441  1.1429
  272MOL0     H36658  10.050   7.822   6.034 -1.5180 -2.0684  0.8332
  272MOL0     H36659   9.908   7.825   6.236  1.2002 -0.2812  0.1102
  272MOL0     H36660   9.880   7.997   6.218  0.1560  0.2731 -0.9153
  272MOL0     H36661  10.162   7.895   6.231  0.3251  1.8691 -0.6067
  272MOL0     H36662  10.115   8.057   6.270 -2.0220  0.3767 -2.7689
  272MOL0     H36663  10.065   7.824   6.448 -1.4241 -0.8342 -0.5139
  272MOL0     H36664  10.176   7.947   6.468  1.0719 -2.5680 -0.6439
  272MOL0     H36665   9.865   7.968   6.475  0.2073  2.0479 -1.3603
  272MOL0     H36666   9.966   7.963   6.613  2.1097 -3.4371 -1.2886
  272MOL0     H36667   9.961   8.192   6.413 -0.5154  0.2555  0.0301
  272MOL0     H36668  10.087   8.182   6.535 -0.0746  1.8158 -3.4238
  272MOL0     H36669   9.795   8.214   6.593 -0.5547 -0.7777 -0.4005
  272MOL0     H36670   9.918   8.184   6.718  1.4298  1.5927  0.0838
  272MOL0     H36671   9.865   8.435   6.429 -1.0840 -1.6161  1.3449
  272MOL0     H36672   9.966   8.784   6.566  0.5165 -1.3757  2.4990
  272MOL0     H36673   9.980   8.705   6.412  0.9631 -1.7503  0.7121
  272MOL0     H36674   9.717   8.685   6.424 -0.9480  0.0591 -1.2623
  272MOL0     H36675   9.709   8.772   6.564  1.3972  3.0445  0.9667
  272MOL0     H36676   9.655   8.907   6.367  0.1918  1.5544 -0.7376
  272MOL0     H36677   9.809   8.886   6.291 -1.2971  1.2890 -0.3270
  272MOL0     H36678   9.933   8.978   6.468 -0.7267 -0.9414  1.8564
  272MOL0     H36679   9.779   9.012   6.551 -1.7054 -0.3017 -0.2725
  272MOL0     H36680   9.830   9.356   6.251 -3.5419  3.7007 -0.4193
  272MOL0     H36681   9.916   9.578   6.326 -4.1102  1.1205 -0.7912
  272MOL0     H36682   9.969   9.873   6.746  0.1254  0.7828  0.1015
  272MOL0     H36683  10.085  10.086   6.787 -0.0591  1.2756 -1.3759
  272MOL0     H36684  10.075  10.358   6.486 -0.0534 -1.8173  0.4854
  272MOL0     H36685  10.174  10.440   6.607  1.0501  1.5361 -1.4304
  272MOL0     H36686  10.377  10.400   6.510 -0.4181  0.6752  0.3728
  272MOL0     H36687  10.332  10.277   6.399  0.2955  2.1242 -4.3997
  272MOL0     H36688  10.198  10.430   6.273 -0.8292 -1.6885  1.5811
  272MOL0     H36689  10.247  10.561   6.380 -0.8493  1.2642 -2.6172
  272MOL0     H36690  10.455  10.389   6.229 -1.9715 -0.5558 -2.4072
  272MOL0     H36691  10.473  10.553   6.304  1.6219 -1.7235 -0.5671
  272MOL0     H36692  10.347  10.662   6.128 -2.3994  0.2357 -1.1765
  272MOL0     H36693  10.300  10.499   6.066 -0.6733  0.1923  2.4925
  272MOL0     H36694  10.549  10.446   6.050  1.1204  0.9051  1.0331
  272MOL0     H36695  10.459  10.559   5.936 -0.9424 -0.4926 -0.2647
  272MOL0     H36696  10.710  10.607   6.063 -0.0659  0.5066 -0.1211
  272MOL0     H36697  10.590  10.662   6.186 -5.7668 -1.8042 -0.4714
  272MOL0     H36698  10.488  10.809   5.995  1.1390  1.4460 -1.7975
  272MOL0     H36699  10.625  10.866   6.084  1.8774  0.9891 -1.6615
  272MOL0     H36700  10.168  10.127   6.377  2.8953 -0.4642  1.1298
  272MOL0     H36701  10.046   9.915   6.327 -0.1692 -1.5851  0.9028
  272MOL0     H36702   9.907   9.430   6.727  0.6391  0.0749  0.0015
  272MOL0     H36703   9.847   9.198   6.643  0.6411 -0.7646 -0.6456
  272MOL0     H36704   9.747   7.739   5.721 -1.9043  1.8841  0.2121
  272MOL0     H36705   9.586   7.619   5.616 -0.6074 -0.9276  0.4572
  272MOL0     H36706   8.996   7.587   5.738 -0.9425 -0.7646  0.6903
  272MOL0     H36707   8.846   7.569   5.589  0.2390  0.0854 -0.0935
  272MOL0     H36708   8.749   7.612   5.383 -0.2154 -1.0634  1.7315
  272MOL0     H36709   8.677   7.466   5.453 -0.5241 -4.9386 -1.8253
  272MOL0     H36710   8.560   7.558   5.244  2.9739  2.5674  0.5900
  272MOL0     H36711   8.600   7.384   5.247  1.6066 -1.0922 -0.5262
  272MOL0     H36712   8.803   7.440   5.100 -0.5576 -0.9507 -1.3536
  272MOL0     H36713   8.765   7.614   5.122 -0.7047 -0.7781  1.6488
  272MOL0     H36714   8.603   7.400   4.970  3.7241 -0.6137  1.6081
  272MOL0     H36715   8.557   7.578   4.985  2.6335  3.5142 -0.5240
  272MOL0     H36716   8.807   7.595   4.662 -1.4086  0.7104 -0.9384
  272MOL0     H36717   9.083   7.304   5.333 -0.4712 -0.6988 -1.0387
  272MOL0     H36718   9.380   7.383   5.470  1.8754 -2.0179 -1.2196
  272MOL0     H36719   9.324   7.245   5.570  3.1327  2.6138  0.0261
  272MOL0     H36720   9.282   7.249   5.400  1.1838 -1.3647 -0.6944
  273MOL0     O36721   8.093   7.989   1.052 -0.2555 -0.0308  0.6145
  273MOL0     C36722   8.089   7.872   1.099 -0.6182  0.0590  0.2861
  273MOL0     O36723   8.180   7.783   1.063 -0.7031  0.4515 -0.6863
  273MOL0     C36724   8.314   7.820   1.075  0.9265 -0.5037  0.1301
  273MOL0     C36725   8.380   7.845   0.960 -0.4439 -0.0138  0.6441
  273MOL0     C36726   8.517   7.881   0.977 -0.0102 -0.0721 -0.4354
  273MOL0     C36727   8.564   7.904   1.106 -0.4271 -0.6341  0.1229
  273MOL0     O36728   8.681   7.969   1.123 -0.1326 -0.4472 -0.2434
  273MOL0     C36729   8.799   7.891   1.096  0.0117  0.3395  1.4361
  273MOL0     C36730   8.864   7.834   1.222  0.1258 -0.7870  0.5590
  273MOL0     C36731   8.992   7.763   1.201 -0.7273  0.8723  1.0599
  273MOL0     C36732   8.966   7.612   1.161 -0.5704 -0.2693 -0.1083
  273MOL0     C36733   9.105   7.516   1.159 -0.0754  0.2174  0.2503
  273MOL0     C36734   9.166   7.503   1.301  0.0089  1.1363 -0.5288
  273MOL0     C36735   9.073   7.403   1.375 -0.7584  0.1903 -0.6475
  273MOL0     C36736   9.131   7.365   1.507  0.0094 -0.0538 -0.0589
  273MOL0     N36737   9.196   7.232   1.511 -0.7651 -0.4391  0.1089
  273MOL0     C36738   9.268   7.171   1.418 -0.2826 -0.1617  0.3099
  273MOL0     C36739   9.306   7.052   1.464  1.1375 -0.7548 -0.9382
  273MOL0     C36740   9.379   6.943   1.385 -0.1955 -0.1153  0.0598
  273MOL0     C36741   9.526   6.969   1.378 -0.6793  0.6682  1.2023
  273MOL0     C36742   9.598   6.847   1.305 -0.6423  0.3360  0.4171
  273MOL0     C36743   9.725   6.777   1.383  0.4691 -0.3203  0.6748
  273MOL0     O36744   9.767   6.656   1.327  0.4154  0.6394  0.9212
  273MOL0     C36745   9.878   6.587   1.355  0.6968 -0.2762  0.0783
  273MOL0     C36746   9.908   6.473   1.278  0.7007  0.1679 -0.3052
  273MOL0     C36747  10.025   6.394   1.301  0.9447 -0.0649 -0.2320
  273MOL0     C36748  10.111   6.428   1.417 -0.1194  0.1349  0.7672
  273MOL0     C36749  10.236   6.360   1.463  0.7903 -1.1280 -0.0253
  273MOL0     O36750  10.313   6.407   1.565  0.0503 -0.2277 -0.5109
  273MOL0     C36751  10.404   6.311   1.620  1.2065 -0.6420  0.2460
  273MOL0     C36752  10.378   6.179   1.650  0.1944  0.4449  0.5140
  273MOL0     C36753  10.468   6.098   1.720 -0.0407  0.2474  0.0978
  273MOL0     C36754  10.598   6.138   1.744  0.0947  0.0419  0.1511
  273MOL0     O36755  10.681   6.050   1.801 -0.8471  0.4051 -0.3061
  273MOL0     C36756  10.766   5.976   1.714 -0.0825 -0.1056  0.7925
  273MOL0     C36757  10.843   5.882   1.803 -0.2546  0.0968  0.2417
  273MOL0     C36758  10.928   5.943   1.923  0.0084  0.5115 -0.0521
  273MOL0     C36759  11.062   6.011   1.880  0.6341 -0.9077  0.8112
  273MOL0     C36760  11.174   5.917   1.848 -0.5600  0.0271  0.8082
  273MOL0     C36761  11.291   5.969   1.770  0.4679 -0.1748 -0.5603
  273MOL0     C36762  11.279   6.028   1.622  0.6869  0.1145  0.2670
  273MOL0     C36763  11.260   5.922   1.515  0.3482 -1.2207 -0.4150
  273MOL0    Cl36764  11.087   5.915   1.519  0.0670  0.4329  0.4365
  273MOL0     C36765  10.635   6.262   1.693  1.1139  0.3086 -0.2719
  273MOL0     C36766  10.540   6.348   1.640 -0.5984 -0.3172  1.0372
  273MOL0     O36767  10.254   6.258   1.398  0.5524 -0.2805  1.1188
  273MOL0     C36768  10.071   6.544   1.491  0.0804  0.6256  0.0474
  273MOL0     C36769   9.957   6.619   1.463  0.4481 -0.2290  1.2260
  273MOL0     N36770   9.250   7.044   1.596  0.8092  0.1193  0.1900
  273MOL0     N36771   9.184   7.154   1.618 -0.8406 -0.5989  0.1078
  273MOL0     C36772   8.485   7.887   1.220  0.0672  0.1266 -0.2571
  273MOL0     C36773   8.364   7.835   1.193  0.0933 -0.2611 -0.4712
  273MOL0     C36774   7.973   7.814   1.174  0.0629 -0.5988  0.2315
  273MOL0     C36775   7.987   7.698   1.253 -0.2558  0.6077  0.2895
  273MOL0     C36776   7.878   7.651   1.326 -0.4011  0.5399 -0.3025
  273MOL0     C36777   7.755   7.713   1.332 -1.4917  1.1262 -0.3692
  273MOL0     O36778   7.662   7.665   1.426  0.3054  0.5687  0.6816
  273MOL0     C36779   7.531   7.707   1.414  0.4039 -0.0021 -0.0868
  273MOL0     C36780   7.443   7.652   1.520  0.5575  0.6830 -0.4318
  273MOL0     C36781   7.404   7.505   1.486 -0.2771 -0.3238  0.3464
  273MOL0     C36782   7.295   7.434   1.564 -0.1683  0.0076  0.4329
  273MOL0     C36783   7.170   7.505   1.575  0.2912  0.1033 -0.1772
  273MOL0     C36784   7.061   7.553   1.598 -0.7191 -0.4149 -0.5955
  273MOL0     C36785   7.734   7.825   1.252 -0.0366 -0.2407  0.4671
  273MOL0     C36786   7.841   7.884   1.175 -0.1619 -0.6336  0.3668
  273MOL0     C36787   7.831   8.016   1.100  0.9907  0.0052  0.4195
  273MOL0     H36788   8.327   7.840   0.865  2.3557  2.9636 -1.2566
  273MOL0     H36789   8.580   7.906   0.892 -0.4940  0.4384 -0.6518
  273MOL0     H36790   8.775   7.807   1.031 -4.5359  0.9087  2.0561
  273MOL0     H36791   8.864   7.961   1.042  1.8569 -1.9977  0.4173
  273MOL0     H36792   8.790   7.771   1.273 -0.9654  0.4644  0.5621
  273MOL0     H36793   8.895   7.913   1.292  0.3825 -3.0302  3.1588
  273MOL0     H36794   9.050   7.772   1.293  0.6432 -0.8217  0.4266
  273MOL0     H36795   9.052   7.807   1.121 -0.7807  2.8174  2.0191
  273MOL0     H36796   8.902   7.570   1.239 -2.8089 -2.4413 -2.8913
  273MOL0     H36797   8.913   7.600   1.066  1.9543  2.1312 -2.0071
  273MOL0     H36798   9.076   7.419   1.117  2.0761 -0.1287 -0.5469
  273MOL0     H36799   9.175   7.562   1.089 -0.6341  0.9563  0.1582
  273MOL0     H36800   9.265   7.458   1.293 -0.9305 -0.9630 -0.9780
  273MOL0     H36801   9.166   7.594   1.363 -1.2238  1.4387 -0.9265
  273MOL0     H36802   9.067   7.309   1.320 -1.1894 -0.1081 -0.0968
  273MOL0     H36803   8.973   7.444   1.394  0.4428  1.5121  4.3700
  273MOL0     H36804   9.205   7.437   1.544  1.5460 -1.4132 -0.3581
  273MOL0     H36805   9.041   7.357   1.568  0.0274 -0.1857 -0.0474
  273MOL0     H36806   9.291   7.211   1.320  1.4432 -0.7101  0.4633
  273MOL0     H36807   9.372   6.847   1.435  2.7196 -0.2667  0.3793
  273MOL0     H36808   9.334   6.937   1.285 -1.0617  0.6621  0.3884
  273MOL0     H36809   9.537   7.059   1.317 -2.5793 -2.2049 -4.0983
  273MOL0     H36810   9.563   6.986   1.479  2.3738  0.3534  0.2285
  273MOL0     H36811   9.638   6.888   1.212  0.8504  1.2471  1.4036
  273MOL0     H36812   9.523   6.771   1.283 -2.6515  2.5400 -0.7083
  273MOL0     H36813   9.706   6.762   1.490  0.1902  0.9038  0.8113
  273MOL0     H36814   9.799   6.857   1.389 -0.9667  1.0234  1.4467
  273MOL0     H36815   9.840   6.457   1.196 -2.8021  0.0477  2.4022
  273MOL0     H36816  10.037   6.308   1.236 -2.2862 -0.5637 -0.3422
  273MOL0     H36817  10.278   6.138   1.635  0.7509  0.1116 -3.2024
  273MOL0     H36818  10.445   6.000   1.759 -0.1450  0.3609  0.3224
  273MOL0     H36819  10.720   5.919   1.633 -0.4928  1.0055  0.2228
  273MOL0     H36820  10.843   6.037   1.667 -1.3023  1.3412  0.6125
  273MOL0     H36821  10.767   5.819   1.851 -0.8248  0.9446  0.4773
  273MOL0     H36822  10.907   5.827   1.733  0.8569 -0.6693  1.7883
  273MOL0     H36823  10.873   6.022   1.975 -0.5536  2.3566 -3.1781
  273MOL0     H36824  10.955   5.864   1.993 -0.2578  0.4230 -0.0439
  273MOL0     H36825  11.093   6.079   1.961 -0.2900 -0.2821  0.6638
  273MOL0     H36826  11.043   6.068   1.788  1.8175 -1.8110 -0.0136
  273MOL0     H36827  11.141   5.825   1.799 -0.1975  0.7757 -0.8945
  273MOL0     H36828  11.194   5.889   1.952  3.9401 -0.6859 -0.0458
  273MOL0     H36829  11.336   6.051   1.826 -1.8344  1.2397 -0.6264
  273MOL0     H36830  11.373   5.897   1.770 -1.0953 -2.0349  0.8684
  273MOL0     H36831  11.377   6.068   1.597  0.5496  0.2675 -0.0371
  273MOL0     H36832  11.215   6.116   1.606 -0.5404 -0.8495 -0.3073
  273MOL0     H36833  11.303   5.959   1.422 -3.1545 -0.0175 -1.7286
  273MOL0     H36834  11.300   5.823   1.542 -1.7262 -2.3803 -1.3612
  273MOL0     H36835  10.735   6.287   1.725  1.4275 -1.9310  0.7408
  273MOL0     H36836  10.575   6.444   1.602 -3.1234  0.6317  0.9434
  273MOL0     H36837  10.137   6.579   1.569 -0.6099  1.4489  0.2786
  273MOL0     H36838   9.924   6.706   1.518 -0.4909  0.2369 -0.0441
  273MOL0     H36839   8.526   7.905   1.319  0.5695  0.6988 -0.5632
  273MOL0     H36840   8.304   7.816   1.281  0.9477  0.0244  0.1849
  273MOL0     H36841   8.077   7.638   1.252  0.3473  1.4872  0.3660
  273MOL0     H36842   7.890   7.568   1.396  0.6029 -0.1901 -1.3074
  273MOL0     H36843   7.494   7.679   1.314  2.1868 -0.2177 -0.7201
  273MOL0     H36844   7.518   7.814   1.429 -1.1572 -0.4357  2.1964
  273MOL0     H36845   7.350   7.710   1.518 -0.1332 -0.4034 -1.3813
  273MOL0     H36846   7.494   7.655   1.617  0.2292  0.6467 -0.2576
  273MOL0     H36847   7.500   7.452   1.489 -0.1839 -0.1292  0.9306
  273MOL0     H36848   7.359   7.506   1.386 -3.0832  0.1563  1.5390
  273MOL0     H36849   7.274   7.338   1.517  0.0706  0.1413  0.0509
  273MOL0     H36850   7.327   7.411   1.666 -4.0894  0.8023  2.0298
  273MOL0     H36851   6.960   7.578   1.622 -0.2416 -0.9097  2.2583
  273MOL0     H36852   7.636   7.872   1.250  0.8053  1.6066 -1.4665
  273MOL0     H36853   7.850   8.009   0.993  1.3845 -3.8586  0.6104
  273MOL0     H36854   7.733   8.062   1.119 -0.4678 -2.6286 -0.1604
  273MOL0     H36855   7.897   8.089   1.147  2.7840 -2.7780  2.5497
  274MOL0     O36856   4.799   8.553   0.863  0.0528 -0.4297 -0.1854
  274MOL0     C36857   4.843   8.641   0.780  0.0463  0.4176  0.0257
  274MOL0     O36858   4.972   8.650   0.739  0.5035  0.0630 -0.7170
  274MOL0     C36859   5.084   8.578   0.787  0.4426  0.5391  0.3195
  274MOL0     C36860   5.092   8.514   0.911 -0.4018 -0.1261  0.4954
  274MOL0     C36861   5.206   8.448   0.953  0.2450 -0.1459  0.0826
  274MOL0     C36862   5.317   8.431   0.872  0.7663 -0.3082  0.0871
  274MOL0     O36863   5.423   8.362   0.933  0.0146 -0.3869  0.5903
  274MOL0     C36864   5.548   8.370   0.867 -0.2712  0.3588 -0.2435
  274MOL0     C36865   5.614   8.509   0.868  0.8429  0.0729 -1.6727
  274MOL0     C36866   5.661   8.533   1.008  0.1848 -0.4154  0.9110
  274MOL0     C36867   5.699   8.683   1.020 -0.0290  0.7147 -0.4046
  274MOL0     C36868   5.819   8.734   0.940 -0.1954  0.1059 -1.1440
  274MOL0     C36869   5.801   8.834   0.824  0.1981  0.1336  0.4720
  274MOL0     C36870   5.738   8.966   0.874 -0.4799 -0.2645 -0.1370
  274MOL0     C36871   5.746   9.066   0.751  0.4116  0.0521 -1.2308
  274MOL0     N36872   5.702   9.199   0.776 -0.0667 -0.0416  0.1080
  274MOL0     C36873   5.747   9.266   0.884 -0.4507  0.6883  0.4577
  274MOL0     C36874   5.699   9.395   0.855  0.4343 -0.9106  0.1972
  274MOL0     C36875   5.691   9.510   0.949 -1.0692 -0.0171  0.6454
  274MOL0     C36876   5.831   9.566   0.976 -0.9151  0.0999  0.2009
  274MOL0     C36877   5.827   9.711   1.016  0.1629  0.6063  0.0554
  274MOL0     C36878   5.760   9.732   1.151 -0.0044 -0.4330  0.3510
  274MOL0     O36879   5.829   9.837   1.212  0.0925  1.3073 -0.1699
  274MOL0     C36880   5.800   9.884   1.339 -0.3075  0.1880  0.1411
  274MOL0     C36881   5.858  10.009   1.365  0.0762 -0.6715 -0.1863
  274MOL0     C36882   5.824  10.074   1.488  0.3201  0.0521 -0.1232
  274MOL0     C36883   5.725  10.025   1.582 -1.3293 -0.5975  0.0926
  274MOL0     C36884   5.701  10.095   1.707  0.2522  0.8694 -0.6513
  274MOL0     O36885   5.612  10.027   1.787 -0.6419  0.2244  0.1176
  274MOL0     C36886   5.607  10.051   1.922 -0.5951 -0.0529 -0.8016
  274MOL0     C36887   5.487  10.096   1.967 -0.3481  0.4163 -0.1502
  274MOL0     C36888   5.468  10.109   2.106  0.4782  0.4891  0.7176
  274MOL0     C36889   5.566  10.073   2.205 -0.2517  0.0668  0.2947
  274MOL0     O36890   5.561  10.101   2.333  0.4768  0.2859 -0.3580
  274MOL0     C36891   5.439  10.160   2.377 -0.3514  0.6008  0.6621
  274MOL0     C36892   5.430  10.146   2.525 -0.0860  0.0200  0.2800
  274MOL0     C36893   5.460  10.276   2.605 -0.1951 -0.3003  1.1185
  274MOL0     C36894   5.493  10.249   2.757  0.5171  0.0246  0.4216
  274MOL0     C36895   5.374  10.197   2.840 -0.3424 -0.2901 -0.5836
  274MOL0     C36896   5.269  10.299   2.890 -0.0873 -0.1989  0.3432
  274MOL0     C36897   5.194  10.244   3.010  0.3937  0.2893  0.2433
  274MOL0     C36898   5.066  10.313   3.022  0.3665 -0.6147 -0.4757
  274MOL0    Cl36899   5.080  10.482   3.061  0.0415  0.2262  0.3566
  274MOL0     C36900   5.694  10.037   2.149 -0.5772 -0.3320 -0.7268
  274MOL0     C36901   5.711  10.019   2.012 -0.3148  0.1134  0.8531
  274MOL0     O36902   5.764  10.192   1.745  0.2233  0.0341 -0.0122
  274MOL0     C36903   5.674   9.904   1.547  0.3548  0.1880 -0.5944
  274MOL0     C36904   5.708   9.837   1.428 -0.0426  1.1174 -0.1191
  274MOL0     N36905   5.628   9.391   0.739 -0.2190  0.6973 -0.2111
  274MOL0     N36906   5.626   9.274   0.692 -0.3750  0.2968 -0.3132
  274MOL0     C36907   5.301   8.472   0.740 -0.4715 -0.5239 -0.0053
  274MOL0     C36908   5.192   8.550   0.699  0.8476 -0.1954  0.5446
  274MOL0     C36909   4.764   8.739   0.714 -0.2237 -0.7891 -0.1684
  274MOL0     C36910   4.663   8.785   0.794  1.4095 -0.7711  0.4092
  274MOL0     C36911   4.583   8.887   0.733  0.2514 -0.6357 -0.6809
  274MOL0     C36912   4.593   8.928   0.602  0.6306 -1.3086  0.2307
  274MOL0     O36913   4.490   9.013   0.549  0.2187 -1.3119 -0.1483
  274MOL0     C36914   4.488   9.040   0.412  0.0404 -0.4759  0.0250
  274MOL0     C36915   4.607   9.129   0.365  0.2093 -0.0008  0.8091
  274MOL0     C36916   4.619   9.117   0.216 -0.1545  0.0377  0.5140
  274MOL0     C36917   4.701   8.996   0.176  0.2319  0.3623 -0.3699
  274MOL0     C36918   4.840   8.978   0.228  0.2963 -0.3142  0.3166
  274MOL0     C36919   4.941   8.939   0.289  0.6628  0.6504  0.5326
  274MOL0     C36920   4.690   8.873   0.523 -0.2729 -0.4472 -0.1773
  274MOL0     C36921   4.774   8.774   0.579 -0.1110  0.0123 -0.7355
  274MOL0     C36922   4.875   8.706   0.492 -0.3441  0.3298  0.7967
  274MOL0     H36923   5.014   8.511   0.986 -1.7025  0.4354 -0.7980
  274MOL0     H36924   5.203   8.425   1.059 -0.1701  5.3166  1.5652
  274MOL0     H36925   5.618   8.305   0.920 -0.3814  1.0376  0.7706
  274MOL0     H36926   5.550   8.330   0.765 -0.2043 -0.2251 -0.0203
  274MOL0     H36927   5.538   8.583   0.841 -1.2947 -1.4181 -0.0213
  274MOL0     H36928   5.697   8.514   0.797  1.5970 -1.5509 -0.9400
  274MOL0     H36929   5.747   8.470   1.032  1.7283  0.8048 -1.1301
  274MOL0     H36930   5.580   8.517   1.080  0.9070  0.4507  1.9401
  274MOL0     H36931   5.614   8.745   0.991 -0.3363  0.5643  0.1663
  274MOL0     H36932   5.721   8.705   1.125  1.3494 -1.4398 -0.1859
  274MOL0     H36933   5.888   8.780   1.011 -0.3831 -0.1383 -0.7992
  274MOL0     H36934   5.877   8.646   0.912  2.1527  1.3830 -0.5779
  274MOL0     H36935   5.904   8.853   0.791 -0.0801  0.0235 -0.5023
  274MOL0     H36936   5.750   8.781   0.742  1.5495  2.6930 -2.2366
  274MOL0     H36937   5.799   9.006   0.956 -1.8020  1.9222 -0.1361
  274MOL0     H36938   5.636   8.943   0.909  0.5004 -1.6248  2.0478
  274MOL0     H36939   5.849   9.077   0.717  1.1515  1.0501  1.1607
  274MOL0     H36940   5.683   9.040   0.665 -1.1444  1.9323 -0.7433
  274MOL0     H36941   5.796   9.239   0.977 -1.2746 -2.5067  0.0692
  274MOL0     H36942   5.625   9.588   0.910  0.8110 -0.0336 -3.0236
  274MOL0     H36943   5.651   9.485   1.048  1.9075 -0.9456  1.7303
  274MOL0     H36944   5.870   9.509   1.060  1.2349  2.5312  0.9780
  274MOL0     H36945   5.889   9.571   0.883  2.5586  2.7723  2.2796
  274MOL0     H36946   5.774   9.770   0.941  2.4385  3.6038  0.5750
  274MOL0     H36947   5.928   9.753   1.014 -0.0238  1.1041 -2.2704
  274MOL0     H36948   5.767   9.636   1.203 -1.8878 -1.2952 -0.8925
  274MOL0     H36949   5.654   9.756   1.137  0.6402  1.9941 -1.0308
  274MOL0     H36950   5.919  10.058   1.290 -0.8989  0.9748  0.0365
  274MOL0     H36951   5.878  10.167   1.499  2.5118 -0.9831 -1.5495
  274MOL0     H36952   5.420  10.114   1.884  1.2937  1.0606 -1.4065
  274MOL0     H36953   5.370  10.143   2.140 -1.7934 -2.7807 -1.9098
  274MOL0     H36954   5.431  10.265   2.345  1.7157  0.8192  0.7162
  274MOL0     H36955   5.361  10.099   2.332  0.5869 -0.5219  0.4977
  274MOL0     H36956   5.327  10.115   2.546 -1.2973  3.4454  0.1056
  274MOL0     H36957   5.500  10.070   2.560  3.4364  1.8061 -2.2738
  274MOL0     H36958   5.545  10.323   2.555 -1.1321  0.8485  0.5412
  274MOL0     H36959   5.366  10.331   2.602 -0.2154 -0.3407 -1.5460
  274MOL0     H36960   5.526  10.340   2.808  2.6351 -0.1135 -0.5739
  274MOL0     H36961   5.572  10.174   2.765  0.3829 -0.2368 -0.5205
  274MOL0     H36962   5.421  10.139   2.920  1.7816  4.2392  1.8777
  274MOL0     H36963   5.321  10.125   2.777  0.1049  2.3043 -4.2257
  274MOL0     H36964   5.302  10.399   2.917  0.1189 -0.6825  1.9550
  274MOL0     H36965   5.201  10.311   2.805  0.5158  3.2130  0.2316
  274MOL0     H36966   5.249  10.252   3.104 -0.2882 -1.5091  0.8308
  274MOL0     H36967   5.166  10.140   2.992  2.4477 -0.7737  2.5195
  274MOL0     H36968   5.005  10.299   2.932 -0.8367  1.5014 -0.0725
  274MOL0     H36969   5.033  10.260   3.112  1.2391  1.8444  1.4270
  274MOL0     H36970   5.782  10.029   2.212  0.8957 -0.2104 -2.6959
  274MOL0     H36971   5.808   9.997   1.967 -0.5390  2.4780 -0.9885
  274MOL0     H36972   5.618   9.851   1.623  2.0462 -0.9447 -0.0556
  274MOL0     H36973   5.666   9.741   1.400  4.6453 -0.3960 -3.1352
  274MOL0     H36974   5.387   8.445   0.679 -2.4410 -0.6696 -2.9505
  274MOL0     H36975   5.198   8.582   0.596  0.0896 -0.3069  0.4637
  274MOL0     H36976   4.651   8.772   0.901  1.5689 -0.8515  0.4175
  274MOL0     H36977   4.500   8.940   0.780 -1.0677 -0.7037 -2.8195
  274MOL0     H36978   4.392   9.089   0.391  1.6789  2.0841 -2.2121
  274MOL0     H36979   4.494   8.944   0.360 -0.3394 -0.9594  0.8500
  274MOL0     H36980   4.702   9.090   0.403  1.6231  1.4857 -0.9840
  274MOL0     H36981   4.589   9.234   0.391  1.1966  0.0170  1.4740
  274MOL0     H36982   4.673   9.204   0.177  1.2340 -1.0208 -0.0297
  274MOL0     H36983   4.518   9.113   0.176 -1.6936 -2.0058  4.1444
  274MOL0     H36984   4.642   8.913   0.215 -1.7957  0.5636 -2.7291
  274MOL0     H36985   4.709   8.974   0.069  2.9467  2.1520 -0.6273
  274MOL0     H36986   5.025   8.910   0.349  1.4730  1.6399 -0.0901
  274MOL0     H36987   4.684   8.877   0.415  0.2384 -0.6836 -0.2166
  274MOL0     H36988   4.857   8.721   0.386  3.0823  1.2329  0.2214
  274MOL0     H36989   4.977   8.738   0.512  0.5996 -3.2809  2.6275
  274MOL0     H36990   4.884   8.599   0.515 -0.0783  0.1047 -0.3150
  275MOL0     O36991   4.356   5.142   4.895  0.0262 -0.2902  0.0837
  275MOL0     C36992   4.390   5.050   4.820  0.4207  0.2650 -0.3126
  275MOL0     O36993   4.302   4.955   4.768  0.1084 -0.1207  0.0359
  275MOL0     C36994   4.183   4.924   4.831 -0.4659  0.7779  0.1302
  275MOL0     C36995   4.137   4.925   4.966  0.1982 -0.1768  0.1095
  275MOL0     C36996   4.017   4.868   5.002  0.1132  0.4037 -0.4865
  275MOL0     C36997   3.941   4.814   4.907  0.2222  0.1503  0.6509
  275MOL0     O36998   3.819   4.759   4.946 -0.2249 -0.1739  0.3861
  275MOL0     C36999   3.712   4.774   4.846  0.0803  0.4088  0.5626
  275MOL0     C37000   3.582   4.781   4.932 -0.1093 -0.0532  0.7532
  275MOL0     C37001   3.508   4.638   4.935 -0.6425 -0.3238 -1.1635
  275MOL0     C37002   3.365   4.654   5.004  0.3684  0.1143  0.0260
  275MOL0     C37003   3.257   4.740   4.925 -0.6790 -0.5903  0.6141
  275MOL0     C37004   3.221   4.675   4.791  0.5943  0.1031  0.1231
  275MOL0     C37005   3.096   4.720   4.719 -0.1094 -0.6801 -1.1415
  275MOL0     C37006   2.964   4.686   4.798  0.1312  0.5378 -1.0624
  275MOL0     N37007   2.854   4.629   4.720  0.0311  0.0553 -0.0427
  275MOL0     C37008   2.798   4.687   4.606  0.1289  1.0300  0.1465
  275MOL0     C37009   2.708   4.595   4.567 -0.3470 -0.0562 -1.4892
  275MOL0     C37010   2.604   4.600   4.463 -0.2558  0.3070  0.5042
  275MOL0     C37011   2.612   4.514   4.329  0.7057 -0.5470 -0.1341
  275MOL0     C37012   2.482   4.527   4.238  0.0598  0.3195 -0.2283
  275MOL0     C37013   2.344   4.506   4.302 -0.3840  0.0760 -0.2942
  275MOL0     O37014   2.350   4.371   4.346 -0.1852 -0.1778  0.9252
  275MOL0     C37015   2.255   4.292   4.294  0.1664  0.7723 -0.1565
  275MOL0     C37016   2.147   4.253   4.373  1.0617 -0.6151  0.0165
  275MOL0     C37017   2.046   4.168   4.316  0.5508 -0.2154  0.7182
  275MOL0     C37018   2.062   4.139   4.180  0.0077  0.3313  0.0884
  275MOL0     C37019   1.956   4.067   4.099  1.2973  0.4992  0.1019
  275MOL0     O37020   1.968   3.935   4.054 -0.3662 -0.5418  0.2316
  275MOL0     C37021   2.056   3.876   4.140 -0.0485  0.8488 -0.0941
  275MOL0     C37022   2.028   3.851   4.280 -0.1619 -0.2887 -1.2176
  275MOL0     C37023   2.113   3.776   4.362  0.0102  0.3449 -0.0193
  275MOL0     C37024   2.243   3.732   4.309 -0.4653  0.1223  0.2581
  275MOL0     O37025   2.337   3.672   4.387 -1.0094 -0.2647 -0.0776
  275MOL0     C37026   2.315   3.676   4.524 -0.4291  0.4317 -0.0730
  275MOL0     C37027   2.429   3.608   4.599  0.2759  0.5745 -0.3112
  275MOL0     C37028   2.428   3.660   4.745  0.4652 -0.2220 -0.6732
  275MOL0     C37029   2.540   3.586   4.812  0.4246  0.9361  0.6356
  275MOL0     C37030   2.577   3.624   4.957  0.0231  0.7701  1.4126
  275MOL0     C37031   2.705   3.556   5.008  0.3840 -0.2725 -0.0490
  275MOL0     C37032   2.728   3.567   5.155 -0.5742  0.1523  0.3847
  275MOL0     C37033   2.833   3.468   5.195  0.5110 -0.3753  0.4531
  275MOL0    Cl37034   2.794   3.297   5.179  0.2817 -0.2312  0.0386
  275MOL0     C37035   2.272   3.753   4.170  0.0375  0.2976  0.0361
  275MOL0     C37036   2.169   3.814   4.090 -0.6062 -0.4244 -0.1230
  275MOL0     O37037   1.860   4.141   4.074 -0.1413  0.2018 -0.1600
  275MOL0     C37038   2.172   4.173   4.102 -0.1203 -0.3117 -1.1366
  275MOL0     C37039   2.261   4.256   4.162 -1.1381  0.0202  0.5577
  275MOL0     N37040   2.731   4.475   4.642  0.9285 -0.5550 -0.3765
  275MOL0     N37041   2.811   4.496   4.732  0.1144  0.2152  0.0146
  275MOL0     C37042   3.982   4.819   4.774  0.0302  0.5263  0.9400
  275MOL0     C37043   4.099   4.877   4.736 -0.3757 -0.1082  0.2070
  275MOL0     C37044   4.532   5.049   4.769 -0.0020  1.3379  0.5722
  275MOL0     C37045   4.570   4.929   4.696  0.5138 -0.3660  0.0194
  275MOL0     C37046   4.699   4.910   4.659  1.4100 -0.4660  1.0664
  275MOL0     C37047   4.795   5.000   4.673  0.5895  0.0490  0.9274
  275MOL0     O37048   4.920   4.970   4.607  0.8348 -0.7539  0.0541
  275MOL0     C37049   5.013   5.068   4.573 -0.0190  0.4209 -0.3991
  275MOL0     C37050   5.096   5.099   4.689 -0.4015 -0.8662  0.4549
  275MOL0     C37051   5.163   4.968   4.730  0.1894 -0.6674 -0.2796
  275MOL0     C37052   5.166   4.937   4.884 -0.4819  0.7886 -0.0548
  275MOL0     C37053   5.033   4.912   4.946  0.4167  0.4146 -1.1601
  275MOL0     C37054   4.913   4.883   4.970  0.1912 -0.5378  1.3734
  275MOL0     C37055   4.765   5.128   4.728 -0.3995  0.4817  0.0755
  275MOL0     C37056   4.639   5.148   4.781  0.9467  0.5730 -0.1084
  275MOL0     C37057   4.609   5.278   4.845 -0.6546 -0.3994  0.4021
  275MOL0     H37058   4.187   4.978   5.047 -4.1358  1.6734  1.9193
  275MOL0     H37059   3.983   4.863   5.105 -0.3283  1.7882 -0.5512
  275MOL0     H37060   3.740   4.867   4.797  1.2387 -0.8267 -1.2293
  275MOL0     H37061   3.711   4.685   4.783 -1.0174  2.2793 -2.2603
  275MOL0     H37062   3.510   4.846   4.881 -0.8352 -1.0152  0.5383
  275MOL0     H37063   3.600   4.807   5.036  1.8629 -0.4387  0.5463
  275MOL0     H37064   3.573   4.573   4.994 -3.5612 -0.2056  2.5794
  275MOL0     H37065   3.499   4.594   4.836 -1.5986 -2.5412 -0.1672
  275MOL0     H37066   3.324   4.554   5.020  0.4174  0.1126  0.1414
  275MOL0     H37067   3.370   4.705   5.101  1.4960 -1.1498  0.6614
  275MOL0     H37068   3.169   4.756   4.989 -1.2904 -0.8178 -0.1516
  275MOL0     H37069   3.301   4.835   4.896 -2.6637  0.4493  0.8718
  275MOL0     H37070   3.294   4.682   4.710 -1.8356 -0.7883 -2.3268
  275MOL0     H37071   3.207   4.567   4.804  1.6635  0.0450  0.8635
  275MOL0     H37072   3.098   4.670   4.622  1.7172  0.3294 -1.6626
  275MOL0     H37073   3.094   4.828   4.699 -2.8332 -0.2041  1.0430
  275MOL0     H37074   2.990   4.604   4.866  0.6610  0.8145 -0.9304
  275MOL0     H37075   2.933   4.774   4.856 -0.1471 -0.6515  0.6779
  275MOL0     H37076   2.813   4.783   4.558 -1.1362  1.0189 -0.3016
  275MOL0     H37077   2.516   4.559   4.514 -0.2102 -2.8623 -1.6538
  275MOL0     H37078   2.584   4.704   4.437  1.1643  0.0419 -1.8997
  275MOL0     H37079   2.699   4.554   4.276  1.4117  1.8794  2.5747
  275MOL0     H37080   2.623   4.405   4.339 -0.2140 -0.7830 -1.4644
  275MOL0     H37081   2.487   4.454   4.156 -2.3726 -0.3097  0.1282
  275MOL0     H37082   2.467   4.628   4.198 -1.2069  0.9686  1.7573
  275MOL0     H37083   2.257   4.528   4.239 -0.7029  1.1414  0.4738
  275MOL0     H37084   2.325   4.575   4.386  1.2610 -1.7639  1.6850
  275MOL0     H37085   2.145   4.302   4.470  0.9478 -0.7659  0.0904
  275MOL0     H37086   1.960   4.139   4.375 -0.1130  0.8122  0.2750
  275MOL0     H37087   1.936   3.881   4.329 -2.1867 -3.9417 -2.4021
  275MOL0     H37088   2.096   3.756   4.467  1.1234  0.6583  0.2326
  275MOL0     H37089   2.297   3.780   4.552  0.1674  0.4432  0.2793
  275MOL0     H37090   2.224   3.628   4.559  1.6494 -2.5425  1.6770
  275MOL0     H37091   2.434   3.499   4.593  0.7842  0.6432 -1.2542
  275MOL0     H37092   2.518   3.649   4.552  0.3101  1.7119  0.6741
  275MOL0     H37093   2.456   3.765   4.760  0.2848 -0.1014 -1.1537
  275MOL0     H37094   2.338   3.636   4.802  1.9847 -3.3259  0.6818
  275MOL0     H37095   2.623   3.605   4.744 -0.7877 -1.4949 -1.6898
  275MOL0     H37096   2.518   3.479   4.808  1.5305  0.7439 -1.0099
  275MOL0     H37097   2.500   3.588   5.026  0.9491  0.8884  2.5394
  275MOL0     H37098   2.582   3.733   4.963  0.6310  0.8191  0.2253
  275MOL0     H37099   2.701   3.452   4.976  1.3322 -0.1619 -0.5557
  275MOL0     H37100   2.782   3.614   4.956  0.6252 -1.0767 -0.6031
  275MOL0     H37101   2.638   3.550   5.214  1.1431 -2.1208  2.5589
  275MOL0     H37102   2.752   3.673   5.163  0.7648  0.3591 -3.8715
  275MOL0     H37103   2.917   3.497   5.131 -0.7984  1.1914 -0.6318
  275MOL0     H37104   2.879   3.482   5.293  1.6883  1.2972 -0.2848
  275MOL0     H37105   2.362   3.713   4.126  1.6116  0.8261  2.5636
  275MOL0     H37106   2.190   3.811   3.983  2.3819  0.8187  0.3287
  275MOL0     H37107   2.172   4.146   3.997  0.9877 -1.5292 -0.8512
  275MOL0     H37108   2.343   4.299   4.105 -1.2479  0.8956  1.0467
  275MOL0     H37109   3.917   4.777   4.697  1.6196  0.6104 -0.5011
  275MOL0     H37110   4.130   4.859   4.633  2.0870 -3.2781  1.3389
  275MOL0     H37111   4.494   4.854   4.680 -1.9321  1.3676  2.4878
  275MOL0     H37112   4.733   4.812   4.627 -2.3400 -1.5174 -0.1580
  275MOL0     H37113   4.959   5.160   4.550 -1.0396  0.4591  1.9359
  275MOL0     H37114   5.066   5.026   4.487  2.5207 -1.1469  1.7820
  275MOL0     H37115   5.034   5.143   4.768 -0.3492 -0.6312  0.3677
  275MOL0     H37116   5.166   5.173   4.649 -1.7630  0.7277  0.8920
  275MOL0     H37117   5.263   4.969   4.686  0.3400  3.9528 -0.2785
  275MOL0     H37118   5.122   4.883   4.675 -1.4100  0.4012 -0.8184
  275MOL0     H37119   5.211   4.837   4.893 -3.0508 -0.3472  1.1782
  275MOL0     H37120   5.222   5.015   4.937 -3.2149  1.4293  2.1619
  275MOL0     H37121   4.812   4.847   4.962 -2.1429  5.2137 -4.6336
  275MOL0     H37122   4.836   5.210   4.724 -1.1869  1.1201 -1.9757
  275MOL0     H37123   4.525   5.318   4.788 -0.9399 -1.2607  0.1958
  275MOL0     H37124   4.578   5.256   4.948 -0.6281 -2.0343  0.0998
  275MOL0     H37125   4.692   5.348   4.844  0.2037 -1.3788 -0.9130
  276MOL0     O37126   1.715  11.376  10.854  0.4061  0.3911 -0.1216
  276MOL0     C37127   1.695  11.436  10.751  0.1452  0.4819  0.2732
  276MOL0     O37128   1.566  11.446  10.693 -0.7064 -0.1354 -0.5282
  276MOL0     C37129   1.453  11.393  10.752 -0.4860  1.8029 -0.2552
  276MOL0     C37130   1.428  11.330  10.878 -0.5941  0.2082  0.2639
  276MOL0     C37131   1.301  11.294  10.920  0.5865 -0.0441  0.1641
  276MOL0     C37132   1.191  11.310  10.834  0.0972 -0.4049 -0.1065
  276MOL0     O37133   1.062  11.288  10.872  0.2202  0.3218 -0.1207
  276MOL0     C37134   1.001  11.407  10.930 -0.4046  0.5461  0.3926
  276MOL0     C37135   0.879  11.370  11.018  1.0491  0.3532  0.0719
  276MOL0     C37136   0.843  11.448  11.138 -0.4429 -0.1208  0.5595
  276MOL0     C37137   0.704  11.415  11.202  0.9928 -0.4866  0.5754
  276MOL0     C37138   0.692  11.472  11.347 -0.7011  1.0933 -0.4909
  276MOL0     C37139   0.694  11.625  11.360 -0.9603 -0.4560 -0.4770
  276MOL0     C37140   0.596  11.704  11.280 -0.2062  0.3969 -0.1216
  276MOL0     C37141   0.597  11.851  11.333 -0.0309  0.0424 -0.6392
  276MOL0     N37142   0.491  11.926  11.264  0.4580 -1.0172  0.4937
  276MOL0     C37143   0.511  11.968  11.129  0.6637  0.0913 -0.4227
  276MOL0     C37144   0.391  12.024  11.098  0.6824  0.4311 -0.6043
  276MOL0     C37145   0.370  12.061  10.956 -0.9894 -1.0438 -0.0526
  276MOL0     C37146   0.318  11.948  10.863 -0.0470  0.6367  0.2995
  276MOL0     C37147   0.363  11.812  10.908  0.4823  1.2221 -0.0355
  276MOL0     C37148   0.334  11.695  10.801 -0.1747 -0.3009  0.6890
  276MOL0     O37149   0.407  11.576  10.836 -0.1010  0.1474  0.0563
  276MOL0     C37150   0.363  11.456  10.790 -0.2258  0.9265  0.0398
  276MOL0     C37151   0.290  11.430  10.673  0.8937 -0.1165 -0.8191
  276MOL0     C37152   0.273  11.302  10.618 -0.3159 -0.5191  0.8007
  276MOL0     C37153   0.311  11.188  10.685 -0.0824 -0.1210  0.0741
  276MOL0     C37154   0.288  11.050  10.634  0.3093  0.8445 -0.2388
  276MOL0     O37155   0.202  11.035  10.523  0.5987  0.8605  0.3685
  276MOL0     C37156   0.143  10.919  10.487 -0.4787  0.3230 -0.3521
  276MOL0     C37157   0.059  10.918  10.371 -0.2287  0.9352  0.0238
  276MOL0     C37158   0.008  10.798  10.321  0.4184 -0.3758 -0.0277
  276MOL0     C37159   0.029  10.669  10.369 -0.3465  0.2400  0.3383
  276MOL0     O37160  -0.035  10.562  10.312  0.6783  0.0548  1.2284
  276MOL0     C37161   0.005  10.429  10.347  0.1028  0.1608 -0.1181
  276MOL0     C37162  -0.113  10.344  10.398  1.1025 -0.3002  0.4245
  276MOL0     C37163  -0.074  10.210  10.463  0.2278  0.1732 -0.9810
  276MOL0     C37164  -0.040  10.111  10.351  0.4987  0.4785 -0.1303
  276MOL0     C37165   0.038   9.989  10.412  0.5950  0.5439 -0.1801
  276MOL0     C37166   0.022   9.882  10.310  1.0022 -0.1788  0.3418
  276MOL0     C37167   0.113   9.766  10.332 -0.1022 -0.1613 -0.3072
  276MOL0     C37168   0.071   9.680  10.459 -0.0833 -0.5344 -0.4916
  276MOL0    Cl37169   0.226   9.630  10.529 -0.3577  0.6529 -0.5030
  276MOL0     C37170   0.125  10.671  10.475  0.2837 -0.6703 -0.6691
  276MOL0     C37171   0.164  10.795  10.532 -0.2766 -0.7556 -0.1809
  276MOL0     O37172   0.349  10.963  10.698 -0.4514  0.0623  0.4505
  276MOL0     C37173   0.381  11.214  10.804 -0.0973  0.2919  0.2655
  276MOL0     C37174   0.401  11.345  10.857  1.3699  0.0483 -0.6170
  276MOL0     N37175   0.303  12.019  11.207 -0.2620  0.4390  0.4049
  276MOL0     N37176   0.367  11.957  11.307  0.0705 -0.1421  0.5139
  276MOL0     C37177   1.216  11.368  10.709  0.1485 -0.2100 -0.9003
  276MOL0     C37178   1.339  11.407  10.665  0.0480 -0.6618  0.1774
  276MOL0     C37179   1.820  11.489  10.682  0.7512  0.2343  0.0653
  276MOL0     C37180   1.942  11.429  10.713  1.4040  0.1899  0.4202
  276MOL0     C37181   2.064  11.475  10.665  0.3161  0.1257  0.4112
  276MOL0     C37182   2.066  11.575  10.571 -0.6006 -0.8082  0.6588
  276MOL0     O37183   2.178  11.603  10.499 -0.1016  0.1177 -0.1569
  276MOL0     C37184   2.180  11.720  10.406 -0.1378  0.2721  0.3437
  276MOL0     C37185   2.324  11.734  10.341  0.1248  0.3482  0.1742
  276MOL0     C37186   2.360  11.615  10.252 -0.3947  0.0106  0.4332
  276MOL0     C37187   2.456  11.515  10.331  0.8345  0.2032  0.0097
  276MOL0     C37188   2.389  11.380  10.339  0.9414 -0.0391  1.5140
  276MOL0     C37189   2.326  11.273  10.334 -0.3678  0.2055  0.0908
  276MOL0     C37190   1.947  11.644  10.542  0.0006 -0.4934 -0.2085
  276MOL0     C37191   1.825  11.596  10.591 -0.1212 -0.7012 -0.7689
  276MOL0     C37192   1.705  11.673  10.555 -0.0706 -0.3123  0.2748
  276MOL0     H37193   1.506  11.319  10.953  1.5317  0.1381 -1.8523
  276MOL0     H37194   1.286  11.255  11.020 -2.8486  3.0927  1.0891
  276MOL0     H37195   1.060  11.462  11.003 -1.2788 -1.2073  2.5291
  276MOL0     H37196   0.979  11.468  10.842 -1.1491  0.1366  0.2856
  276MOL0     H37197   0.894  11.273  11.065  2.2642  1.8965  3.1428
  276MOL0     H37198   0.786  11.365  10.960  1.0121  1.1870  0.0502
  276MOL0     H37199   0.842  11.555  11.118  2.3709 -0.0215  0.6357
  276MOL0     H37200   0.913  11.431  11.221 -0.0627 -1.8781 -0.0811
  276MOL0     H37201   0.616  11.449  11.146  0.2969 -2.1229  0.6117
  276MOL0     H37202   0.685  11.308  11.195 -2.2401 -0.0358  0.8836
  276MOL0     H37203   0.604  11.432  11.399 -0.3603 -0.1311 -0.8435
  276MOL0     H37204   0.767  11.426  11.411 -2.2365 -1.6128 -0.5005
  276MOL0     H37205   0.663  11.637  11.464 -2.7622  2.6393 -1.2504
  276MOL0     H37206   0.794  11.664  11.338 -1.0795  1.1956  1.6282
  276MOL0     H37207   0.492  11.669  11.282  0.0524 -0.3763  0.0754
  276MOL0     H37208   0.633  11.714  11.178  2.1317 -3.4987  0.1619
  276MOL0     H37209   0.575  11.835  11.439  1.8905 -2.6483 -0.5466
  276MOL0     H37210   0.700  11.887  11.325 -0.9516  2.6021 -1.9470
  276MOL0     H37211   0.593  11.959  11.057  2.5801  2.1866  1.3678
  276MOL0     H37212   0.293  12.138  10.965  1.6531  2.0191 -1.6280
  276MOL0     H37213   0.453  12.112  10.905 -2.7976  0.4159 -1.6719
  276MOL0     H37214   0.208  11.945  10.866 -0.1354 -0.8826 -1.9597
  276MOL0     H37215   0.340  11.966  10.757 -1.4419 -2.3598 -0.6058
  276MOL0     H37216   0.314  11.784  11.001 -0.6227 -1.2407 -1.2717
  276MOL0     H37217   0.471  11.810  10.925  0.2018 -0.7114  2.0450
  276MOL0     H37218   0.368  11.736  10.706  1.1546  0.2343  1.3628
  276MOL0     H37219   0.227  11.677  10.790  0.0938 -0.9481 -1.2125
  276MOL0     H37220   0.248  11.509  10.611 -1.3141 -1.6092 -1.3417
  276MOL0     H37221   0.231  11.299  10.519  2.4158  0.9447 -0.5213
  276MOL0     H37222   0.047  11.021  10.337 -0.6973  1.5820  1.9735
  276MOL0     H37223  -0.055  10.808  10.234  0.9893  2.6771 -0.2190
  276MOL0     H37224   0.046  10.369  10.266 -1.9706 -5.4092  2.4420
  276MOL0     H37225   0.084  10.426  10.423  0.7368  0.5543 -0.7438
  276MOL0     H37226  -0.161  10.415  10.466  1.6035  1.9874 -1.4702
  276MOL0     H37227  -0.191  10.326  10.323  0.7644  3.2014 -0.2365
  276MOL0     H37228   0.011  10.218  10.532 -1.2716 -1.7379  1.1945
  276MOL0     H37229  -0.161  10.164  10.509  1.0908  0.7084  1.3130
  276MOL0     H37230   0.034  10.149  10.280  0.0521  0.3702 -0.6578
  276MOL0     H37231  -0.130  10.076  10.301  0.8919  1.5195 -1.6464
  276MOL0     H37232  -0.004   9.965  10.511 -2.9633  1.2981 -1.3466
  276MOL0     H37233   0.143  10.017  10.418  1.1700 -1.6254  1.4781
  276MOL0     H37234  -0.079   9.841  10.312 -0.1671  2.4436 -0.6713
  276MOL0     H37235   0.051   9.925  10.214 -1.4784  0.3130 -0.2503
  276MOL0     H37236   0.213   9.806  10.347 -1.0379  1.2489  2.9830
  276MOL0     H37237   0.123   9.686  10.257  1.0561 -3.5572  3.1672
  276MOL0     H37238   0.009   9.736  10.530  2.4431  2.4134 -0.3845
  276MOL0     H37239   0.029   9.587  10.419 -0.7467  0.1953 -1.5609
  276MOL0     H37240   0.151  10.579  10.527 -2.3495 -0.5655  1.0140
  276MOL0     H37241   0.230  10.792  10.618 -2.5467 -0.5800  1.6442
  276MOL0     H37242   0.412  11.132  10.868 -1.1090  0.5116  1.0561
  276MOL0     H37243   0.460  11.352  10.948  0.5289 -0.8821  0.0306
  276MOL0     H37244   1.125  11.373  10.650 -1.4753 -0.4434  1.4638
  276MOL0     H37245   1.354  11.449  10.566 -0.2698  0.3351  0.5322
  276MOL0     H37246   1.957  11.347  10.783  1.9108 -1.2232 -1.2841
  276MOL0     H37247   2.157  11.421  10.682 -0.5445 -1.4275  0.3711
  276MOL0     H37248   2.152  11.809  10.463  1.2009  2.2688 -1.9073
  276MOL0     H37249   2.118  11.694  10.320  1.1700 -1.9583 -0.0091
  276MOL0     H37250   2.403  11.749  10.415 -0.0668 -2.9422  1.1913
  276MOL0     H37251   2.316  11.828  10.285  1.8165  0.4261  0.0138
  276MOL0     H37252   2.420  11.649  10.167 -1.7190  2.2365  0.3151
  276MOL0     H37253   2.267  11.572  10.215 -0.2557  1.0528 -1.2319
  276MOL0     H37254   2.546  11.501  10.270  2.3132 -1.5814  2.3821
  276MOL0     H37255   2.468  11.560  10.430 -0.2663  0.0759  0.2111
  276MOL0     H37256   2.272  11.181  10.336 -2.1357  1.0871 -2.2495
  276MOL0     H37257   1.952  11.729  10.474  2.0660 -1.2947 -1.1175
  276MOL0     H37258   1.631  11.688  10.634 -1.1305 -2.3609 -0.2563
  276MOL0     H37259   1.725  11.777  10.528 -2.0856  0.2973  0.9802
  276MOL0     H37260   1.664  11.626  10.465  0.8262 -1.1174  0.2622
  277MOL0     O37261   3.833   5.803   4.049 -0.1043  0.7908 -0.8348
  277MOL0     C37262   3.719   5.852   4.030 -0.6510 -0.0840 -1.0079
  277MOL0     O37263   3.702   5.984   3.996  0.0371  0.3702  0.7755
  277MOL0     C37264   3.804   6.078   4.014  0.4413 -0.6060 -0.6242
  277MOL0     C37265   3.928   6.070   4.072 -0.7843 -0.5895  0.3751
  277MOL0     C37266   4.017   6.176   4.101  0.2290  0.2675 -0.6632
  277MOL0     C37267   3.966   6.301   4.099 -0.3510  1.2238  0.4781
  277MOL0     O37268   4.057   6.398   4.126  0.5168 -0.3253 -0.4551
  277MOL0     C37269   4.036   6.528   4.063 -0.2900  0.2818 -0.0334
  277MOL0     C37270   4.078   6.546   3.920 -0.2016 -0.5267 -0.1991
  277MOL0     C37271   4.099   6.695   3.889  0.9338  0.1126  0.3262
  277MOL0     C37272   4.162   6.720   3.750  0.1901 -0.2025 -0.1361
  277MOL0     C37273   4.170   6.871   3.722 -0.4608 -1.1081 -0.1850
  277MOL0     C37274   4.204   6.891   3.569 -0.7148  0.3914  0.8048
  277MOL0     C37275   4.237   7.038   3.546  0.1528 -0.5859  0.3499
  277MOL0     C37276   4.117   7.117   3.590  0.0716 -0.9218  0.3688
  277MOL0     N37277   4.137   7.267   3.556  0.0468  0.4101  0.4224
  277MOL0     C37278   4.121   7.332   3.437  0.5292 -0.3498  0.3957
  277MOL0     C37279   4.169   7.455   3.440  0.5560 -0.6257 -0.7074
  277MOL0     C37280   4.185   7.548   3.323 -0.0838 -1.2926 -0.4292
  277MOL0     C37281   4.284   7.669   3.347  0.2897 -0.2295  0.3216
  277MOL0     C37282   4.215   7.774   3.428  1.2041 -0.1239 -0.4510
  277MOL0     C37283   4.279   7.914   3.428 -0.3116 -0.2806 -0.0001
  277MOL0     O37284   4.279   7.942   3.291  0.3081 -0.2474 -0.2119
  277MOL0     C37285   4.351   8.050   3.245  0.0099 -1.5128  0.2578
  277MOL0     C37286   4.399   8.159   3.322  0.4454 -0.0101  0.7636
  277MOL0     C37287   4.466   8.261   3.260 -0.1545 -0.3226 -0.3353
  277MOL0     C37288   4.493   8.257   3.124 -0.6657  0.0305 -0.4361
  277MOL0     C37289   4.543   8.381   3.055 -0.4028  0.6266  0.1875
  277MOL0     O37290   4.583   8.489   3.131  0.5481 -0.1275  0.5425
  277MOL0     C37291   4.605   8.608   3.067  0.2699 -0.0086 -0.2914
  277MOL0     C37292   4.686   8.632   2.957 -0.1837  0.0348  0.3658
  277MOL0     C37293   4.719   8.759   2.903 -0.5815 -0.0715  0.4055
  277MOL0     C37294   4.662   8.874   2.964 -0.2804  0.5950 -0.0745
  277MOL0     O37295   4.696   8.989   2.903  0.4987  0.3670  0.3551
  277MOL0     C37296   4.676   9.114   2.972 -0.4245 -0.2167  0.2056
  277MOL0     C37297   4.772   9.215   2.916 -0.0655 -0.4544  0.1103
  277MOL0     C37298   4.913   9.159   2.919  0.5530  0.2542 -0.0237
  277MOL0     C37299   5.027   9.245   2.884  0.2345  0.1680  0.2561
  277MOL0     C37300   5.169   9.179   2.915  0.4386 -0.5412  0.1094
  277MOL0     C37301   5.271   9.296   2.938 -0.1587 -1.4402 -0.4931
  277MOL0     C37302   5.319   9.366   2.813  0.7014  1.0540  0.0608
  277MOL0     C37303   5.451   9.433   2.848  0.4926 -0.6223  0.9755
  277MOL0    Cl37304   5.522   9.502   2.710 -0.1444  0.5641  0.0401
  277MOL0     C37305   4.584   8.859   3.081 -0.0922  0.2455  0.0460
  277MOL0     C37306   4.555   8.727   3.121  0.3368  0.3460 -0.3296
  277MOL0     O37307   4.530   8.380   2.934 -0.3504 -0.2128  0.1612
  277MOL0     C37308   4.473   8.137   3.054  0.6943 -1.1056 -0.8335
  277MOL0     C37309   4.402   8.035   3.123 -0.1791  0.1030  0.6416
  277MOL0     N37310   4.219   7.470   3.568 -0.7792  0.1405  0.2320
  277MOL0     N37311   4.202   7.358   3.638  0.2324  0.0497 -0.1137
  277MOL0     C37312   3.829   6.320   4.055 -0.1132  0.1042 -0.9013
  277MOL0     C37313   3.756   6.208   3.997  1.4481  0.2316 -0.4889
  277MOL0     C37314   3.603   5.773   4.065 -0.8474  1.6769  0.0864
  277MOL0     C37315   3.625   5.632   4.091  0.2631  0.0703 -0.0938
  277MOL0     C37316   3.513   5.549   4.124  0.3584 -0.7835 -0.2682
  277MOL0     C37317   3.385   5.597   4.117 -0.2110  0.7253  0.1192
  277MOL0     O37318   3.278   5.503   4.141  0.1781 -0.3062 -0.5420
  277MOL0     C37319   3.142   5.564   4.146 -0.1181 -0.3481 -0.0208
  277MOL0     C37320   3.031   5.457   4.146  0.2641  0.1326 -1.3868
  277MOL0     C37321   2.967   5.440   4.007 -0.5176 -0.7776  1.0083
  277MOL0     C37322   2.861   5.330   4.004 -1.1558  0.1571  0.4328
  277MOL0     C37323   2.748   5.388   4.073  0.3888  0.3651  0.5826
  277MOL0     C37324   2.643   5.423   4.130 -0.2359  0.2040  0.4091
  277MOL0     C37325   3.370   5.735   4.095 -0.2605  0.7154 -0.2706
  277MOL0     C37326   3.470   5.828   4.068  0.8387 -0.3939 -0.3891
  277MOL0     C37327   3.436   5.980   4.073 -1.1808 -0.2869 -1.0289
  277MOL0     H37328   3.973   5.971   4.078 -1.5668 -1.1885 -2.2875
  277MOL0     H37329   4.110   6.159   4.154  1.0553  5.1979 -0.0578
  277MOL0     H37330   3.938   6.575   4.072 -1.4099 -2.0966  0.7952
  277MOL0     H37331   4.103   6.593   4.120  1.6259 -0.8761 -0.8715
  277MOL0     H37332   4.000   6.507   3.854 -1.1553 -2.1328  1.7788
  277MOL0     H37333   4.173   6.497   3.899  0.2666 -0.0330  0.7095
  277MOL0     H37334   4.178   6.733   3.955  2.0239 -1.7532  0.1634
  277MOL0     H37335   4.002   6.741   3.905  0.9200  0.3643 -0.4296
  277MOL0     H37336   4.259   6.672   3.735  0.3699  0.6264 -1.8468
  277MOL0     H37337   4.095   6.672   3.677 -0.3271  3.5221 -2.3460
  277MOL0     H37338   4.067   6.908   3.734 -1.3749 -3.8786  1.3213
  277MOL0     H37339   4.231   6.929   3.792 -1.2525 -1.9694  1.2738
  277MOL0     H37340   4.289   6.831   3.536 -0.2073  1.7633 -0.4844
  277MOL0     H37341   4.115   6.870   3.509 -0.8049  1.0466  0.6999
  277MOL0     H37342   4.253   7.052   3.439 -1.9352 -2.2661 -0.2518
  277MOL0     H37343   4.330   7.062   3.598 -0.0883  3.1075 -0.6491
  277MOL0     H37344   4.018   7.091   3.551 -0.3445 -0.1987  0.9238
  277MOL0     H37345   4.119   7.119   3.699 -1.3385 -0.9338  0.4172
  277MOL0     H37346   4.086   7.278   3.350 -0.2856  0.3728  0.2636
  277MOL0     H37347   4.238   7.488   3.248  3.4122  1.7485 -0.6722
  277MOL0     H37348   4.091   7.590   3.286  0.1497  0.6826  1.0631
  277MOL0     H37349   4.380   7.632   3.383  1.6126 -1.1557 -3.6805
  277MOL0     H37350   4.294   7.707   3.245 -1.6172 -0.5207 -0.0094
  277MOL0     H37351   4.216   7.739   3.532  2.0468  0.0159 -0.4032
  277MOL0     H37352   4.110   7.778   3.398  1.1150  0.8938 -0.0358
  277MOL0     H37353   4.378   7.909   3.474 -0.3193  2.1734  0.4323
  277MOL0     H37354   4.212   7.985   3.478 -1.5661  0.4873 -2.6067
  277MOL0     H37355   4.380   8.147   3.429  0.0494 -0.7149  0.6155
  277MOL0     H37356   4.499   8.350   3.314  1.3791 -0.6162 -0.7276
  277MOL0     H37357   4.726   8.550   2.899  0.6542  0.7277 -0.0568
  277MOL0     H37358   4.776   8.759   2.811 -1.6756  1.1480 -0.3093
  277MOL0     H37359   4.573   9.147   2.958  0.8119  3.2355 -1.9670
  277MOL0     H37360   4.694   9.110   3.080 -2.0615  2.9963  0.7325
  277MOL0     H37361   4.735   9.233   2.815  0.3022 -0.8527 -0.1028
  277MOL0     H37362   4.773   9.304   2.980  0.5927  1.1069 -1.9740
  277MOL0     H37363   4.929   9.118   3.019 -3.3891  0.3653  0.7967
  277MOL0     H37364   4.924   9.075   2.850 -0.2043  0.3545 -0.2723
  277MOL0     H37365   5.026   9.341   2.937 -0.5011 -0.3162  1.1170
  277MOL0     H37366   5.031   9.260   2.775 -0.0702  2.3992  0.5007
  277MOL0     H37367   5.190   9.113   2.830 -1.9035 -0.7048 -0.3913
  277MOL0     H37368   5.156   9.122   3.008 -5.1146 -2.1883 -1.2961
  277MOL0     H37369   5.244   9.380   3.002  1.1052 -1.7309  0.4724
  277MOL0     H37370   5.354   9.247   2.990  0.9873 -0.0759 -0.9630
  277MOL0     H37371   5.246   9.445   2.791  1.1218  1.7049  0.9292
  277MOL0     H37372   5.334   9.300   2.728 -2.2148  0.5419 -0.1443
  277MOL0     H37373   5.445   9.515   2.920  2.4480 -0.6212  1.1693
  277MOL0     H37374   5.518   9.365   2.901  1.7632 -1.2319 -1.2686
  277MOL0     H37375   4.542   8.941   3.138 -1.4284 -1.1369  1.1199
  277MOL0     H37376   4.482   8.719   3.201 -0.4775  1.4164 -0.9344
  277MOL0     H37377   4.507   8.116   2.953 -2.3385 -3.3508 -1.5105
  277MOL0     H37378   4.382   7.939   3.077  0.8517 -0.3702  1.1539
  277MOL0     H37379   3.784   6.411   4.017  1.1683  1.5806  0.9511
  277MOL0     H37380   3.654   6.215   3.963  0.7340 -2.9164  0.6407
  277MOL0     H37381   3.722   5.586   4.083 -0.3225 -1.1687 -0.2812
  277MOL0     H37382   3.552   5.451   4.147  2.5802 -0.1296 -1.0396
  277MOL0     H37383   3.124   5.628   4.059 -2.1621 -1.6172 -0.5934
  277MOL0     H37384   3.124   5.633   4.229 -0.7178  0.3134 -0.6798
  277MOL0     H37385   2.953   5.476   4.221  1.7275 -2.5584  1.0072
  277MOL0     H37386   3.079   5.366   4.183 -2.4706  0.2840  3.4893
  277MOL0     H37387   3.040   5.423   3.927 -2.1044  1.4599 -1.0288
  277MOL0     H37388   2.921   5.534   3.977  1.8007 -0.5417 -2.3470
  277MOL0     H37389   2.847   5.298   3.901 -0.7420  0.7861  0.1776
  277MOL0     H37390   2.877   5.238   4.061 -1.3865  0.0307  0.2978
  277MOL0     H37391   2.546   5.444   4.171  0.4491 -1.5107  3.2519
  277MOL0     H37392   3.270   5.775   4.103 -2.2577 -3.6491 -0.5396
  277MOL0     H37393   3.459   6.013   3.972  0.3214 -1.5547 -1.1393
  277MOL0     H37394   3.333   6.003   4.104 -0.0485  1.6421  1.7078
  277MOL0     H37395   3.498   6.037   4.143 -2.8872  1.3246 -0.7639
  278MOL0     O37396   7.661   1.704  10.548  0.2924 -0.1968  0.7921
  278MOL0     C37397   7.692   1.720  10.663  0.0137  0.0592 -0.5483
  278MOL0     O37398   7.820   1.729  10.707 -0.8349 -0.5155  0.1419
  278MOL0     C37399   7.923   1.742  10.620  0.0940 -0.5347 -0.0731
  278MOL0     C37400   7.934   1.843  10.518  0.4020  0.7442 -0.2376
  278MOL0     C37401   8.043   1.853  10.438 -0.5470  0.0283  0.8941
  278MOL0     C37402   8.157   1.780  10.460 -1.0122 -0.2816  0.3443
  278MOL0     O37403   8.266   1.823  10.382 -0.0180  0.9072  0.0087
  278MOL0     C37404   8.363   1.726  10.333 -1.3070 -0.5732 -1.2093
  278MOL0     C37405   8.495   1.802  10.310 -0.1622 -1.4754 -0.1618
  278MOL0     C37406   8.626   1.724  10.281  0.5355  0.2019 -0.4951
  278MOL0     C37407   8.750   1.819  10.299 -0.0195  1.2003 -1.3889
  278MOL0     C37408   8.875   1.743  10.240  0.3352  0.3719 -0.8225
  278MOL0     C37409   9.004   1.805  10.292  0.6200  0.3462  0.3007
  278MOL0     C37410   9.030   1.928  10.203 -0.9716  0.0791 -0.0967
  278MOL0     C37411   9.101   2.047  10.264 -0.3374 -0.7899 -0.5413
  278MOL0     N37412   9.013   2.094  10.374  0.2048 -0.0056  0.5408
  278MOL0     C37413   9.027   2.075  10.517 -0.1174 -0.5648 -0.0337
  278MOL0     C37414   8.924   2.151  10.562  0.2789  0.1138 -0.5399
  278MOL0     C37415   8.887   2.193  10.703  0.2937  0.4216  0.0273
  278MOL0     C37416   8.790   2.089  10.771 -0.5114 -0.5832  0.6002
  278MOL0     C37417   8.673   2.157  10.848  0.2321 -0.7513  0.0243
  278MOL0     C37418   8.551   2.205  10.766  0.7132 -0.4850 -0.4705
  278MOL0     O37419   8.458   2.101  10.745  0.5031  0.7281 -0.2208
  278MOL0     C37420   8.319   2.124  10.763 -0.1374 -0.1390  0.4243
  278MOL0     C37421   8.235   2.097  10.655 -0.3880 -0.6597  0.3111
  278MOL0     C37422   8.094   2.127  10.645 -0.5437  0.0225 -0.3892
  278MOL0     C37423   8.034   2.187  10.761  0.0728  0.6050  1.1139
  278MOL0     C37424   7.892   2.228  10.755 -0.1821  0.6164  0.0701
  278MOL0     O37425   7.835   2.260  10.879  0.0677 -0.3798  0.1724
  278MOL0     C37426   7.697   2.235  10.885 -0.2656 -0.6712 -0.1742
  278MOL0     C37427   7.604   2.342  10.891 -0.4265  0.1289  0.4506
  278MOL0     C37428   7.474   2.330  10.914  1.1452  0.2063  0.4759
  278MOL0     C37429   7.415   2.205  10.941 -1.0938  0.0043 -0.0222
  278MOL0     O37430   7.291   2.200  10.978 -0.4144 -0.1330 -0.7990
  278MOL0     C37431   7.213   2.081  10.975  0.8444 -0.4022  0.1352
  278MOL0     C37432   7.065   2.127  11.015 -0.3593  0.7149 -0.0471
  278MOL0     C37433   6.956   2.042  10.952  0.3291 -0.5549 -0.1323
  278MOL0     C37434   6.946   2.054  10.799 -0.2917  0.4649  0.1252
  278MOL0     C37435   6.818   1.990  10.753 -0.1809  0.8559  0.5651
  278MOL0     C37436   6.812   1.839  10.788  0.0341 -0.5437  0.0584
  278MOL0     C37437   6.684   1.789  10.716 -0.0179  0.2682 -0.3613
  278MOL0     C37438   6.682   1.639  10.725 -0.5111 -0.0208  0.1576
  278MOL0    Cl37439   6.809   1.584  10.623 -0.1896 -0.2407 -0.1490
  278MOL0     C37440   7.502   2.097  10.924  0.3278  1.1684  0.1502
  278MOL0     C37441   7.636   2.114  10.891  0.0974 -0.0123 -0.5399
  278MOL0     O37442   7.831   2.223  10.649  0.2044  0.5083 -1.0347
  278MOL0     C37443   8.113   2.213  10.874 -0.7592 -0.2779  0.7047
  278MOL0     C37444   8.257   2.180  10.871 -0.2462  0.1604 -0.9112
  278MOL0     N37445   8.854   2.212  10.463 -0.0547  0.2791 -0.3878
  278MOL0     N37446   8.907   2.170  10.349 -1.1600 -0.4833 -0.2592
  278MOL0     C37447   8.155   1.691  10.571 -0.2729  0.4240  0.3759
  278MOL0     C37448   8.035   1.673  10.647 -0.3028  0.5747  0.5076
  278MOL0     C37449   7.589   1.721  10.769 -0.5279  0.3545  0.2525
  278MOL0     C37450   7.630   1.672  10.894  0.7659 -0.1805  1.2631
  278MOL0     C37451   7.540   1.673  11.000 -1.1937 -0.0306  0.4140
  278MOL0     C37452   7.405   1.709  10.984  0.0031 -0.3579 -0.7616
  278MOL0     O37453   7.319   1.705  11.093  1.0706 -0.6326 -0.0297
  278MOL0     C37454   7.305   1.573  11.150  0.2468  0.3233  0.3476
  278MOL0     C37455   7.171   1.527  11.087 -0.4331 -0.5313 -0.4494
  278MOL0     C37456   7.048   1.617  11.117  0.8122  0.4239  0.8673
  278MOL0     C37457   6.923   1.563  11.044  0.1121 -0.1953  0.8398
  278MOL0     C37458   6.863   1.458  11.123  1.4800  0.4387  0.0478
  278MOL0     C37459   6.816   1.367  11.187 -0.4354 -0.4740 -0.6529
  278MOL0     C37460   7.365   1.748  10.855 -0.5217 -0.3082 -0.1348
  278MOL0     C37461   7.455   1.748  10.747 -0.2870  0.5150 -0.2846
  278MOL0     C37462   7.401   1.779  10.611  0.0675  0.8012  0.3328
  278MOL0     H37463   7.853   1.913  10.505 -2.1860 -2.2186 -1.2557
  278MOL0     H37464   8.054   1.930  10.362 -0.0789 -0.2657  0.6622
  278MOL0     H37465   8.382   1.647  10.407 -0.5114  2.1768  1.7437
  278MOL0     H37466   8.326   1.680  10.241  0.5056  0.3292 -2.4505
  278MOL0     H37467   8.510   1.852  10.406 -3.5410  0.1832 -0.3604
  278MOL0     H37468   8.481   1.878  10.232  0.2846 -1.5692 -0.3350
  278MOL0     H37469   8.610   1.689  10.179  1.8858  1.9841 -1.3859
  278MOL0     H37470   8.627   1.641  10.352 -1.0160  1.3325  0.9532
  278MOL0     H37471   8.749   1.921  10.261  0.3217  1.1068 -1.6628
  278MOL0     H37472   8.753   1.824  10.408  2.5058  1.5244 -1.4103
  278MOL0     H37473   8.878   1.644  10.286  2.4528  1.7215  2.3134
  278MOL0     H37474   8.869   1.739  10.131  1.5388 -0.8853 -0.8705
  278MOL0     H37475   8.998   1.832  10.398 -0.8447 -0.5483  0.4837
  278MOL0     H37476   9.093   1.744  10.277  2.0199  2.1728  0.7740
  278MOL0     H37477   8.939   1.976  10.165  0.5603  2.7340 -0.7000
  278MOL0     H37478   9.094   1.878  10.130 -2.3811 -0.7351 -0.8161
  278MOL0     H37479   9.203   2.031  10.301 -1.1513  0.7737  2.7717
  278MOL0     H37480   9.117   2.119  10.184 -2.3245 -0.8239 -1.0303
  278MOL0     H37481   9.096   2.014  10.575 -0.3252 -0.8740 -0.1101
  278MOL0     H37482   8.973   2.202  10.770 -0.7154  1.5800  1.2292
  278MOL0     H37483   8.845   2.294  10.693  0.7969  0.7225  0.8027
  278MOL0     H37484   8.741   2.023  10.699  0.0644  0.9608 -1.2739
  278MOL0     H37485   8.842   2.019  10.837 -0.2301 -0.4483  0.5213
  278MOL0     H37486   8.718   2.241  10.901 -1.7226  0.0905  0.4406
  278MOL0     H37487   8.643   2.104  10.939  1.5413  0.9850  1.5504
  278MOL0     H37488   8.592   2.248  10.675  1.1161  1.6228  0.6427
  278MOL0     H37489   8.511   2.292  10.818  2.7879  0.1475  0.1642
  278MOL0     H37490   8.283   2.037  10.578 -0.0363  0.2643 -0.2048
  278MOL0     H37491   8.031   2.095  10.562  0.2919  0.0178 -1.0272
  278MOL0     H37492   7.658   2.436  10.886  1.1296 -0.5655  2.6439
  278MOL0     H37493   7.401   2.410  10.924 -1.0419 -1.9067  2.8396
  278MOL0     H37494   7.212   2.025  10.881  0.5676  0.5196 -0.4287
  278MOL0     H37495   7.260   2.006  11.038  2.7166 -1.5440 -2.4265
  278MOL0     H37496   7.061   2.126  11.125  1.3131  2.2108  0.0751
  278MOL0     H37497   7.048   2.230  10.984 -1.3079  0.7844  0.6444
  278MOL0     H37498   6.979   1.940  10.983  3.0263 -0.2774 -0.9966
  278MOL0     H37499   6.858   2.074  10.988  0.4578  0.1973 -0.4292
  278MOL0     H37500   7.038   2.010  10.760  0.1273 -1.5404  3.0395
  278MOL0     H37501   6.942   2.160  10.773  2.9306  0.8382  0.6923
  278MOL0     H37502   6.818   1.998  10.644 -2.0344  1.1033  0.5436
  278MOL0     H37503   6.727   2.045  10.781 -1.9029 -1.6911  0.3479
  278MOL0     H37504   6.904   1.785  10.763  1.1260  0.5718  1.4998
  278MOL0     H37505   6.799   1.818  10.895 -1.2889 -1.6296 -0.2678
  278MOL0     H37506   6.675   1.821  10.612 -1.7694 -1.5839 -0.8216
  278MOL0     H37507   6.598   1.831  10.768 -0.7481  3.0546 -3.4742
  278MOL0     H37508   6.697   1.601  10.827  1.7268 -0.2993 -0.2159
  278MOL0     H37509   6.589   1.603  10.682 -0.5390 -0.6311  0.7142
  278MOL0     H37510   7.483   1.995  10.955 -0.0797  1.3433  0.4882
  278MOL0     H37511   7.691   2.020  10.885  1.1561  0.5828 -0.3440
  278MOL0     H37512   8.082   2.251  10.970 -0.7348 -3.4909  2.1353
  278MOL0     H37513   8.314   2.203  10.961  0.8892 -1.3062 -1.2190
  278MOL0     H37514   8.230   1.618  10.600 -0.2059  0.9037  1.4594
  278MOL0     H37515   8.033   1.596  10.724  1.7933  1.2738  1.3208
  278MOL0     H37516   7.729   1.629  10.906  1.4363  1.8479  4.1097
  278MOL0     H37517   7.577   1.641  11.097  0.5807 -3.2362 -1.1650
  278MOL0     H37518   7.303   1.579  11.259  0.9564  3.1829  0.2656
  278MOL0     H37519   7.385   1.504  11.123 -0.6283 -1.8454  2.8740
  278MOL0     H37520   7.148   1.435  11.140  2.3966  0.1867  2.3262
  278MOL0     H37521   7.186   1.519  10.979  2.5026 -2.8374  0.0094
  278MOL0     H37522   7.065   1.718  11.080 -0.6556  0.4439  0.1864
  278MOL0     H37523   7.031   1.622  11.225  1.0553  0.1226  0.9238
  278MOL0     H37524   6.854   1.647  11.036  1.3296  0.7867  0.4032
  278MOL0     H37525   6.951   1.518  10.948 -3.8122  1.3651 -1.2703
  278MOL0     H37526   6.774   1.293  11.251 -0.4394 -0.0450 -0.1544
  278MOL0     H37527   7.260   1.774  10.850 -0.5218  0.7338  3.0195
  278MOL0     H37528   7.436   1.702  10.542  0.3099 -0.4487  1.7997
  278MOL0     H37529   7.292   1.780  10.613 -0.0564  0.7455 -2.2276
  278MOL0     H37530   7.427   1.881  10.581 -0.8523  0.7635 -0.6526
  279MOL0     O37531   8.367  10.010   0.705 -0.4203  0.1240  0.0677
  279MOL0     C37532   8.262  10.069   0.699 -0.0998 -0.4147  0.1449
  279MOL0     O37533   8.156  10.032   0.637  0.1931  0.4038 -0.4614
  279MOL0     C37534   8.129   9.907   0.582 -0.9398 -0.1319 -0.8534
  279MOL0     C37535   7.997   9.883   0.528 -0.9622 -0.1835  0.3774
  279MOL0     C37536   7.973   9.767   0.455 -0.1726  0.4880  0.0132
  279MOL0     C37537   8.075   9.677   0.423 -0.6298 -0.2715 -0.2197
  279MOL0     O37538   8.066   9.568   0.352 -0.0734 -0.3974  0.6971
  279MOL0     C37539   8.011   9.598   0.222  0.9463 -0.2406 -0.3789
  279MOL0     C37540   8.048   9.478   0.133  0.2766 -0.2097 -0.3866
  279MOL0     C37541   8.009   9.499  -0.015  0.2291  0.0309  0.2684
  279MOL0     C37542   7.998   9.366  -0.085  0.2149  0.6709  0.2295
  279MOL0     C37543   7.923   9.385  -0.213 -0.5801  0.1587  0.9826
  279MOL0     C37544   7.910   9.246  -0.288  0.2115  0.6828  0.5031
  279MOL0     C37545   7.836   9.249  -0.419 -0.4864 -0.2681 -0.9276
  279MOL0     C37546   7.880   9.131  -0.501  0.0068  0.8534 -0.2686
  279MOL0     N37547   7.841   9.005  -0.429  1.4679 -0.1437  0.7448
  279MOL0     C37548   7.709   8.990  -0.399  0.2821  0.7568 -0.7757
  279MOL0     C37549   7.702   8.920  -0.285  0.1934 -0.0907 -0.5783
  279MOL0     C37550   7.575   8.888  -0.203 -0.8289  0.3792  0.2448
  279MOL0     C37551   7.539   9.014  -0.143 -0.0967 -0.3396 -0.0211
  279MOL0     C37552   7.450   8.987  -0.025  0.9831  0.1782 -0.4598
  279MOL0     C37553   7.378   9.109   0.035 -0.4305  1.1144 -0.5702
  279MOL0     O37554   7.308   9.064   0.154 -0.5886  0.4961  0.2502
  279MOL0     C37555   7.217   9.144   0.203  0.9776  0.3460 -1.1644
  279MOL0     C37556   7.152   9.099   0.316 -0.5264 -0.5124 -1.6379
  279MOL0     C37557   7.039   9.155   0.365 -0.0963  0.1112 -0.4425
  279MOL0     C37558   6.995   9.272   0.305 -0.1268  0.6235  0.6024
  279MOL0     C37559   6.865   9.329   0.346 -0.2666  0.5353 -0.1466
  279MOL0     O37560   6.772   9.244   0.392 -0.4440  0.0708  0.0563
  279MOL0     C37561   6.658   9.310   0.424  0.3929 -0.0989 -0.8395
  279MOL0     C37562   6.642   9.351   0.556  0.0209  0.3011 -0.4196
  279MOL0     C37563   6.520   9.408   0.595  0.1699 -0.7907 -0.2983
  279MOL0     C37564   6.412   9.418   0.510 -0.3702 -0.5403  0.2039
  279MOL0     O37565   6.299   9.461   0.576  0.1482 -0.0699  0.1393
  279MOL0     C37566   6.300   9.603   0.576  0.2799 -0.7244 -0.1983
  279MOL0     C37567   6.181   9.656   0.648  1.2727  1.2976 -0.1303
  279MOL0     C37568   6.178   9.810   0.660 -0.3793  0.3185  0.1540
  279MOL0     C37569   6.067   9.861   0.738  0.2339  0.0149 -0.7851
  279MOL0     C37570   6.108   9.972   0.838  0.3446  0.0260 -0.5756
  279MOL0     C37571   5.991  10.050   0.911 -0.0527 -0.0870 -0.6332
  279MOL0     C37572   5.917  10.169   0.832 -0.8095 -0.8768  0.4246
  279MOL0     C37573   5.809  10.227   0.902 -0.3588 -1.2903  0.5994
  279MOL0    Cl37574   5.655  10.142   0.861 -0.1985  0.0886  0.0872
  279MOL0     C37575   6.419   9.369   0.375 -0.7594 -0.4719  0.1366
  279MOL0     C37576   6.552   9.321   0.330 -0.3934  0.3582  0.4867
  279MOL0     O37577   6.858   9.450   0.345 -0.2470 -0.4323 -0.2082
  279MOL0     C37578   7.061   9.331   0.195 -0.9541 -0.3505 -0.6333
  279MOL0     C37579   7.172   9.262   0.149  0.5571 -0.3728 -0.0024
  279MOL0     N37580   7.835   8.902  -0.238  0.2467 -0.1868 -0.1649
  279MOL0     N37581   7.915   8.952  -0.327  0.0499  0.6647 -0.2339
  279MOL0     C37582   8.206   9.696   0.470 -0.6475  0.0817 -0.7067
  279MOL0     C37583   8.230   9.810   0.556  0.3101  0.7451  0.2799
  279MOL0     C37584   8.261  10.202   0.762 -0.1782  0.1008 -0.1051
  279MOL0     C37585   8.212  10.313   0.697  0.2695 -0.5633  0.5344
  279MOL0     C37586   8.214  10.436   0.757  0.8687 -0.1976  0.6376
  279MOL0     C37587   8.266  10.459   0.881  0.1645 -0.7069  0.0605
  279MOL0     O37588   8.289  10.595   0.925 -0.0817  1.2532 -0.7734
  279MOL0     C37589   8.172  10.669   0.951 -0.5873 -0.1049 -0.1218
  279MOL0     C37590   8.192  10.752   1.075  0.0813  1.1464 -0.9444
  279MOL0     C37591   8.303  10.851   1.073 -0.4013 -0.4577  0.5066
  279MOL0     C37592   8.357  10.902   1.208  0.0533  0.7611 -1.2788
  279MOL0     C37593   8.457  11.012   1.193  0.7305  0.2085 -0.7671
  279MOL0     C37594   8.528  11.107   1.190 -0.0548  0.0532  0.0750
  279MOL0     C37595   8.328  10.353   0.940  0.3711  0.0892  0.5135
  279MOL0     C37596   8.320  10.227   0.890  0.3180 -0.0104  0.1195
  279MOL0     C37597   8.383  10.117   0.963  0.1722 -0.5714  0.9371
  279MOL0     H37598   7.920   9.958   0.544 -0.4277  0.3295  0.5709
  279MOL0     H37599   7.871   9.747   0.422 -0.4137  0.8592  0.5049
  279MOL0     H37600   7.902   9.606   0.224  0.8596 -1.5000  0.5465
  279MOL0     H37601   8.066   9.688   0.193 -1.7497  0.8837 -2.5469
  279MOL0     H37602   8.003   9.391   0.182  0.7192  0.2295  0.8331
  279MOL0     H37603   8.155   9.458   0.138  0.1656 -1.0226 -1.1353
  279MOL0     H37604   8.084   9.565  -0.059 -2.8085  3.5751 -0.0714
  279MOL0     H37605   7.908   9.541  -0.020  1.1599  2.2652 -1.9638
  279MOL0     H37606   8.098   9.320  -0.089  0.5016  0.8457  3.1453
  279MOL0     H37607   7.946   9.304  -0.011 -0.1907  2.5827  1.6076
  279MOL0     H37608   7.825   9.429  -0.191 -0.9368 -0.8114  1.3758
  279MOL0     H37609   7.976   9.456  -0.278  2.7594 -2.3482  0.7138
  279MOL0     H37610   8.010   9.201  -0.293 -0.6054 -1.1924  0.1031
  279MOL0     H37611   7.856   9.187  -0.214  1.1109  1.5691  1.9149
  279MOL0     H37612   7.869   9.342  -0.466  3.3274 -1.3908 -0.8475
  279MOL0     H37613   7.730   9.241  -0.395 -0.3614 -0.4364 -0.4045
  279MOL0     H37614   7.846   9.133  -0.604  0.5687  2.4837 -0.4565
  279MOL0     H37615   7.988   9.139  -0.515 -0.0968  3.3500 -0.1553
  279MOL0     H37616   7.617   9.018  -0.450 -0.2015 -0.3508 -0.5306
  279MOL0     H37617   7.504   8.847  -0.276  0.8908 -0.7788 -0.8660
  279MOL0     H37618   7.603   8.818  -0.124  1.0806  1.3608  0.4968
  279MOL0     H37619   7.631   9.068  -0.120  2.1449 -4.3560  1.5404
  279MOL0     H37620   7.478   9.065  -0.219  2.4255  2.4381 -0.3679
  279MOL0     H37621   7.514   8.945   0.053  2.1229  2.3417 -0.1693
  279MOL0     H37622   7.383   8.909  -0.062  0.1411  0.8042 -0.2981
  279MOL0     H37623   7.319   9.153  -0.046  1.3762 -0.1042 -2.6662
  279MOL0     H37624   7.455   9.185   0.053  0.7247  0.3299 -1.9820
  279MOL0     H37625   7.190   9.017   0.375 -3.5118 -1.4662 -0.8570
  279MOL0     H37626   6.983   9.123   0.452 -1.1269 -1.5387 -1.6546
  279MOL0     H37627   6.720   9.337   0.630 -0.4792 -1.7600 -0.2150
  279MOL0     H37628   6.510   9.455   0.692  0.7666  3.2288 -1.9990
  279MOL0     H37629   6.383   9.639   0.637 -2.9150  3.1405  2.3024
  279MOL0     H37630   6.303   9.654   0.479 -1.6866 -0.2439 -0.0367
  279MOL0     H37631   6.087   9.619   0.606  0.7539 -1.4632  2.9933
  279MOL0     H37632   6.188   9.623   0.752 -2.1236 -0.6210 -0.3454
  279MOL0     H37633   6.277   9.842   0.694  0.3378  1.2849 -2.5696
  279MOL0     H37634   6.165   9.856   0.561 -0.7835  2.6668  1.2306
  279MOL0     H37635   6.021   9.776   0.788  1.7162 -0.5720 -0.3740
  279MOL0     H37636   5.988   9.898   0.672 -2.1246 -0.2703  1.7301
  279MOL0     H37637   6.175  10.041   0.785 -1.6345  0.3608 -2.8240
  279MOL0     H37638   6.166   9.919   0.915  2.6104  0.7959 -1.6524
  279MOL0     H37639   5.912   9.978   0.931 -0.5288 -0.3486 -3.1170
  279MOL0     H37640   6.040  10.092   1.000  2.2717 -2.5449 -0.6006
  279MOL0     H37641   5.893  10.120   0.738  2.4312 -0.8066 -0.5737
  279MOL0     H37642   5.998  10.237   0.803  1.7521 -2.7652  2.6022
  279MOL0     H37643   5.824  10.226   1.010  1.6651 -3.0048  0.3708
  279MOL0     H37644   5.806  10.331   0.868  1.9623 -0.8338  1.5693
  279MOL0     H37645   6.337   9.372   0.304 -0.7189 -1.0638  0.0576
  279MOL0     H37646   6.574   9.286   0.230  0.7224  0.4721  0.6810
  279MOL0     H37647   7.029   9.426   0.153  0.8273  0.2970 -0.6285
  279MOL0     H37648   7.227   9.303   0.065  1.6913 -2.3527 -0.2985
  279MOL0     H37649   8.287   9.630   0.439 -1.3847  0.3123 -3.3405
  279MOL0     H37650   8.332   9.826   0.589  0.4646 -1.4606  1.0387
  279MOL0     H37651   8.174  10.296   0.596 -1.2700  1.9167  0.6123
  279MOL0     H37652   8.187  10.525   0.701  0.1039 -0.2640  0.8864
  279MOL0     H37653   8.086  10.605   0.970 -0.8987  1.0018  2.5543
  279MOL0     H37654   8.154  10.734   0.864 -2.6282 -3.2797 -2.2720
  279MOL0     H37655   8.189  10.678   1.155 -7.2875 -1.1112 -2.5675
  279MOL0     H37656   8.098  10.807   1.084  0.0541  1.0750 -0.8050
  279MOL0     H37657   8.267  10.935   1.013 -0.2010 -0.9127 -0.2688
  279MOL0     H37658   8.380  10.794   1.020 -1.3782 -1.2107 -0.1394
  279MOL0     H37659   8.274  10.923   1.276  2.2420  0.9949  1.5669
  279MOL0     H37660   8.411  10.816   1.250 -2.2585 -1.8157 -3.2530
  279MOL0     H37661   8.593  11.193   1.192  0.1732 -0.1282  0.7978
  279MOL0     H37662   8.379  10.381   1.032 -0.6707 -2.4761  1.9876
  279MOL0     H37663   8.338  10.018   0.952  1.3930 -0.9072 -1.8935
  279MOL0     H37664   8.490  10.103   0.946  0.3337 -1.0384  2.2034
  279MOL0     H37665   8.380  10.155   1.066  1.3515 -0.0555  0.7905
  280MOL0     O37666   6.839   6.723   3.153  0.0457  0.5481  0.2116
  280MOL0     C37667   6.796   6.822   3.097  0.3367 -0.2968  1.2685
  280MOL0     O37668   6.664   6.861   3.101 -0.2705  0.7888 -0.0887
  280MOL0     C37669   6.571   6.792   3.176 -0.4517  0.1578  0.2658
  280MOL0     C37670   6.446   6.772   3.113  0.2620  0.6424 -0.1504
  280MOL0     C37671   6.354   6.707   3.184 -0.0091  0.2271 -0.9373
  280MOL0     C37672   6.367   6.668   3.319 -0.7897 -0.3788  0.3378
  280MOL0     O37673   6.264   6.616   3.389  0.4220  0.0412 -0.1784
  280MOL0     C37674   6.241   6.480   3.354 -0.3519  0.1318  0.2408
  280MOL0     C37675   6.351   6.386   3.402  1.1845 -0.5550  0.3520
  280MOL0     C37676   6.334   6.336   3.548 -0.1767  0.0730 -0.8364
  280MOL0     C37677   6.447   6.252   3.616 -0.1333  0.2408 -0.3381
  280MOL0     C37678   6.432   6.097   3.597  0.3175 -0.8700  0.5791
  280MOL0     C37679   6.518   6.018   3.689 -0.1327 -0.7035 -0.1233
  280MOL0     C37680   6.667   6.022   3.670 -0.6258 -0.2090  0.2627
  280MOL0     C37681   6.725   5.889   3.731  0.1090  0.1327 -0.4757
  280MOL0     N37682   6.664   5.767   3.678  0.2530 -0.5009 -0.1027
  280MOL0     C37683   6.675   5.712   3.555 -1.6180  1.1093  0.9304
  280MOL0     C37684   6.630   5.587   3.584 -0.5971  1.3008  0.4787
  280MOL0     C37685   6.606   5.459   3.510  1.2401  1.0800  0.4871
  280MOL0     C37686   6.723   5.357   3.537  0.0350 -0.1609  0.5694
  280MOL0     C37687   6.860   5.376   3.463  0.2253  0.5737 -0.3744
  280MOL0     C37688   6.978   5.336   3.559  0.1891 -0.1130 -0.4288
  280MOL0     O37689   7.095   5.341   3.487 -0.8320 -0.3887  0.3116
  280MOL0     C37690   7.220   5.313   3.545  0.6795  0.1486 -0.4159
  280MOL0     C37691   7.241   5.276   3.684 -0.0618  0.2775  0.0705
  280MOL0     C37692   7.369   5.257   3.740  0.2696  0.6495  0.3877
  280MOL0     C37693   7.485   5.281   3.650  0.5538 -1.0088 -0.4633
  280MOL0     C37694   7.622   5.274   3.705  0.3491 -1.3114  0.3908
  280MOL0     O37695   7.635   5.223   3.832 -0.6802  0.2875  0.3885
  280MOL0     C37696   7.761   5.216   3.888  0.0461  0.2339 -0.6146
  280MOL0     C37697   7.781   5.275   4.022 -0.5174 -0.1640 -0.6726
  280MOL0     C37698   7.905   5.256   4.094 -0.0971 -0.3703  0.3702
  280MOL0     C37699   8.006   5.182   4.021  0.5100 -0.0735  0.1881
  280MOL0     O37700   8.120   5.162   4.082 -0.2368 -0.0342  0.4787
  280MOL0     C37701   8.178   5.260   4.169 -0.2875  0.5951 -0.2971
  280MOL0     C37702   8.326   5.205   4.186 -0.0443  0.2727 -0.1950
  280MOL0     C37703   8.334   5.072   4.268  0.1446  0.1149 -0.1613
  280MOL0     C37704   8.480   5.038   4.303  0.1453 -0.8450  0.8683
  280MOL0     C37705   8.468   4.924   4.399  0.5263 -0.2238 -0.6375
  280MOL0     C37706   8.597   4.861   4.450  0.0485  0.2977 -0.0885
  280MOL0     C37707   8.705   4.955   4.507  0.1988  0.6632 -0.3579
  280MOL0     C37708   8.839   4.886   4.525  1.0867 -0.0931  0.1175
  280MOL0    Cl37709   8.941   4.866   4.384  0.1067 -0.2508  0.2511
  280MOL0     C37710   7.994   5.129   3.890  0.2831 -0.5989  0.9045
  280MOL0     C37711   7.869   5.140   3.839  0.2663 -0.0940 -0.6295
  280MOL0     O37712   7.714   5.334   3.645  0.1445 -0.7678 -0.5252
  280MOL0     C37713   7.462   5.330   3.520  0.1472 -0.6785 -0.2023
  280MOL0     C37714   7.330   5.347   3.465 -0.3098 -0.3902  0.1708
  280MOL0     N37715   6.562   5.579   3.699  0.5906 -0.2854 -1.3966
  280MOL0     N37716   6.600   5.681   3.765 -0.5104 -0.5813  0.6326
  280MOL0     C37717   6.495   6.687   3.376  0.4166 -0.1975  0.4565
  280MOL0     C37718   6.599   6.743   3.308  0.4092 -0.8115  0.2653
  280MOL0     C37719   6.882   6.910   3.026  0.6915 -0.2300 -0.0182
  280MOL0     C37720   7.015   6.931   3.068  0.8792  0.7405 -0.4509
  280MOL0     C37721   7.095   7.027   3.005 -0.4191 -0.0591 -1.1397
  280MOL0     C37722   7.059   7.087   2.892  0.2589  0.0425 -0.5615
  280MOL0     O37723   7.139   7.180   2.835 -0.2747 -0.0545  0.8022
  280MOL0     C37724   7.075   7.306   2.808 -0.5865 -0.5022  0.8057
  280MOL0     C37725   7.139   7.368   2.683  1.3600 -0.1289  0.1725
  280MOL0     C37726   7.260   7.459   2.710  0.7483 -0.3542  0.6170
  280MOL0     C37727   7.345   7.496   2.587 -0.0967 -0.4927 -0.0738
  280MOL0     C37728   7.261   7.546   2.478  0.0679  0.0426  0.5565
  280MOL0     C37729   7.195   7.575   2.379 -0.7192  0.5768 -0.0530
  280MOL0     C37730   6.929   7.057   2.834 -0.1976  0.3071 -0.4922
  280MOL0     C37731   6.844   6.966   2.896 -0.0374 -0.3111  0.0256
  280MOL0     C37732   6.701   6.963   2.830 -0.7133  0.4200 -0.7794
  280MOL0     H37733   6.425   6.810   3.013  1.6085  0.6687 -0.4438
  280MOL0     H37734   6.258   6.680   3.142  1.1361 -3.3639 -1.5469
  280MOL0     H37735   6.159   6.445   3.416 -1.9114 -0.9544 -2.2920
  280MOL0     H37736   6.235   6.463   3.246  0.3567  4.3435 -0.6402
  280MOL0     H37737   6.453   6.427   3.400  0.7502  0.6350  1.2296
  280MOL0     H37738   6.356   6.300   3.336  2.5504 -0.5916  0.4718
  280MOL0     H37739   6.246   6.274   3.568  1.6831 -1.5639  3.7323
  280MOL0     H37740   6.314   6.421   3.614  0.2105  0.6947 -1.4997
  280MOL0     H37741   6.547   6.272   3.577 -0.1032 -2.8646 -2.1529
  280MOL0     H37742   6.449   6.274   3.723 -0.0548 -1.3793  0.0146
  280MOL0     H37743   6.332   6.059   3.619 -0.1681  1.4325  2.7171
  280MOL0     H37744   6.449   6.064   3.494 -1.0602  0.2549 -0.0369
  280MOL0     H37745   6.513   6.067   3.787  0.5065  1.3743 -1.0676
  280MOL0     H37746   6.480   5.917   3.707 -0.4780 -0.4638  0.5076
  280MOL0     H37747   6.710   6.112   3.715 -1.4897  0.7513 -0.7826
  280MOL0     H37748   6.704   6.024   3.567  1.2791 -1.0895  0.8848
  280MOL0     H37749   6.833   5.884   3.715  0.1875  2.1208 -0.8132
  280MOL0     H37750   6.717   5.897   3.839 -1.4989  1.7802 -0.6712
  280MOL0     H37751   6.710   5.743   3.457 -2.3077 -1.8475 -0.3695
  280MOL0     H37752   6.515   5.416   3.552  3.0932 -1.3154  2.3766
  280MOL0     H37753   6.598   5.486   3.404  2.8696  4.0713  1.0140
  280MOL0     H37754   6.747   5.368   3.643  3.0172  0.7274 -0.1197
  280MOL0     H37755   6.694   5.254   3.511  0.3908  0.3957 -2.4652
  280MOL0     H37756   6.876   5.481   3.437  0.7546  0.2036 -1.5863
  280MOL0     H37757   6.865   5.301   3.383 -3.7969  0.3835 -0.6370
  280MOL0     H37758   6.973   5.235   3.601  4.6541 -0.3559 -0.0424
  280MOL0     H37759   6.979   5.403   3.646 -1.9323  2.3235 -2.1319
  280MOL0     H37760   7.150   5.252   3.738  0.0002 -1.1444 -0.4146
  280MOL0     H37761   7.387   5.217   3.839 -2.3950 -0.1219  0.6124
  280MOL0     H37762   7.698   5.323   4.072 -0.7411 -2.8345  1.7506
  280MOL0     H37763   7.929   5.306   4.187  1.8378  1.7885 -1.1685
  280MOL0     H37764   8.188   5.354   4.114  2.2824  1.8922  2.1148
  280MOL0     H37765   8.129   5.274   4.265  0.5100  2.3515 -0.1159
  280MOL0     H37766   8.375   5.197   4.088 -1.8661 -0.6592 -1.0878
  280MOL0     H37767   8.383   5.279   4.242 -0.9560  1.1043 -0.3289
  280MOL0     H37768   8.273   5.080   4.359 -0.1000 -2.1064 -0.0627
  280MOL0     H37769   8.289   4.990   4.211 -1.3811 -1.0512  2.4804
  280MOL0     H37770   8.528   5.125   4.351  1.5028 -0.4038 -1.1521
  280MOL0     H37771   8.544   5.018   4.217 -1.0125 -2.8949  0.4250
  280MOL0     H37772   8.392   4.852   4.366 -0.1315 -0.6063  1.5337
  280MOL0     H37773   8.429   4.963   4.493 -0.8561  1.1217 -1.7061
  280MOL0     H37774   8.570   4.783   4.522 -2.2666  1.8392  0.8261
  280MOL0     H37775   8.627   4.804   4.361 -2.5940 -1.1592 -0.1726
  280MOL0     H37776   8.659   4.988   4.601  0.0229  2.2792 -0.9853
  280MOL0     H37777   8.710   5.055   4.463 -5.6890  1.4110 -0.2416
  280MOL0     H37778   8.908   4.949   4.582  2.6252 -0.6852 -1.0210
  280MOL0     H37779   8.829   4.791   4.579 -3.2089 -1.5813 -2.7985
  280MOL0     H37780   8.076   5.088   3.833 -0.2624  3.1599 -3.1664
  280MOL0     H37781   7.854   5.076   3.753 -2.1826  1.6218 -1.5925
  280MOL0     H37782   7.542   5.368   3.458 -0.3136  0.6826 -0.0019
  280MOL0     H37783   7.334   5.367   3.359  0.3210  3.9690  0.8307
  280MOL0     H37784   6.512   6.653   3.478  0.4569 -0.4917  0.3520
  280MOL0     H37785   6.692   6.750   3.362 -0.6068  0.5941  1.9390
  280MOL0     H37786   7.061   6.882   3.153  2.9487  3.0544 -0.1208
  280MOL0     H37787   7.190   7.050   3.052 -0.0341 -1.9230 -0.9482
  280MOL0     H37788   7.094   7.379   2.888  1.8253 -0.9767  0.7289
  280MOL0     H37789   6.968   7.292   2.788 -0.0917 -3.9727  0.0626
  280MOL0     H37790   7.055   7.422   2.637 -0.2222 -1.6447  1.1729
  280MOL0     H37791   7.173   7.282   2.625  0.5956 -1.2831  1.3845
  280MOL0     H37792   7.327   7.401   2.774 -1.3809 -0.6265  2.7299
  280MOL0     H37793   7.222   7.549   2.759 -1.1902 -0.1733 -1.0831
  280MOL0     H37794   7.429   7.560   2.614  0.1821 -0.8179 -0.1759
  280MOL0     H37795   7.393   7.408   2.543  0.8847  1.3220 -2.9314
  280MOL0     H37796   7.153   7.590   2.281 -3.2729 -0.6522  0.7736
  280MOL0     H37797   6.906   7.098   2.736  1.3533 -1.8847 -1.8763
  280MOL0     H37798   6.632   7.018   2.895  3.8824  0.5964  4.8281
  280MOL0     H37799   6.710   7.018   2.736  2.2936  1.2070 -0.1529
  280MOL0     H37800   6.671   6.861   2.808 -2.6865  0.4994  1.2160
  281MOL0     O37801  10.404  10.322   9.729  0.1811  0.0468 -0.1875
  281MOL0     C37802  10.473  10.362   9.828  0.4371  0.2397 -0.1031
  281MOL0     O37803  10.419  10.395   9.948  0.3007 -0.5563 -0.2271
  281MOL0     C37804  10.302  10.326   9.970 -1.0524 -0.5453  0.2303
  281MOL0     C37805  10.185  10.335   9.892 -0.7637 -0.0949  0.4002
  281MOL0     C37806  10.072  10.263   9.924 -0.1583 -0.5561 -0.0056
  281MOL0     C37807  10.062  10.187  10.038 -1.0777  0.0545 -0.3161
  281MOL0     O37808   9.945  10.129  10.065  0.3644  0.0491 -0.1160
  281MOL0     C37809   9.952   9.989  10.067 -0.0959 -0.7841  1.3799
  281MOL0     C37810   9.818   9.916  10.102  0.1739 -0.5955  0.6221
  281MOL0     C37811   9.825   9.767  10.118 -0.2186 -0.6429  0.2849
  281MOL0     C37812   9.938   9.715  10.220  0.2813 -0.5041 -0.0173
  281MOL0     C37813   9.928   9.570  10.285 -0.2281  0.4547 -0.4766
  281MOL0     C37814  10.027   9.516  10.387 -0.3738  0.0309  0.0935
  281MOL0     C37815  10.002   9.366  10.418 -0.4769  0.7118 -0.1227
  281MOL0     C37816  10.096   9.309  10.531 -1.3828 -0.5482  1.1042
  281MOL0     N37817  10.042   9.184  10.568  0.4808 -0.6109 -0.0188
  281MOL0     C37818  10.001   9.068  10.493 -0.2832 -0.6934 -0.7707
  281MOL0     C37819   9.970   8.971  10.580  1.1662  0.5280  0.3209
  281MOL0     C37820   9.909   8.838  10.547 -0.0770 -0.3891  0.4193
  281MOL0     C37821   9.762   8.858  10.524  0.2692  0.0800 -0.0156
  281MOL0     C37822   9.691   8.723  10.495  0.4528  1.0641 -0.0207
  281MOL0     C37823   9.546   8.767  10.494  1.0298  0.7300 -0.4825
  281MOL0     O37824   9.512   8.836  10.373 -0.0217 -0.0082  0.7807
  281MOL0     C37825   9.402   8.800  10.292  0.7491  0.9188  0.6459
  281MOL0     C37826   9.294   8.741  10.350  0.2996 -0.2859 -0.0891
  281MOL0     C37827   9.185   8.691  10.274 -0.6558  0.4017  0.2795
  281MOL0     C37828   9.190   8.704  10.136 -0.1172 -0.3145 -0.0379
  281MOL0     C37829   9.081   8.639  10.052 -0.0141  0.3172  0.3427
  281MOL0     O37830   8.978   8.574  10.112  0.0365 -0.5933  0.2693
  281MOL0     C37831   8.909   8.479  10.046  0.2140  0.0695 -0.5550
  281MOL0     C37832   8.957   8.339  10.038  0.1527 -0.1426 -0.0886
  281MOL0     C37833   8.864   8.243   9.985  0.3753  0.3383 -0.2280
  281MOL0     C37834   8.748   8.280   9.921 -0.2053 -0.2097 -0.3393
  281MOL0     O37835   8.667   8.191   9.844  0.3738 -0.6586 -0.0552
  281MOL0     C37836   8.735   8.086   9.770  0.4356 -0.0097  0.0744
  281MOL0     C37837   8.628   8.043   9.666 -0.0019 -0.5484 -0.4405
  281MOL0     C37838   8.535   7.931   9.693  0.2969  0.2018 -0.7907
  281MOL0     C37839   8.429   7.947   9.805 -0.2437  0.2376  0.1964
  281MOL0     C37840   8.337   7.827   9.817  0.0845  0.2986 -0.8349
  281MOL0     C37841   8.280   7.807   9.957 -0.1902  0.2006 -0.5127
  281MOL0     C37842   8.236   7.662   9.974  0.2812 -0.2352 -0.0190
  281MOL0     C37843   8.201   7.636  10.117  1.2211  0.3700 -0.3849
  281MOL0    Cl37844   8.074   7.737  10.156  0.4797 -0.3095  0.6463
  281MOL0     C37845   8.711   8.418   9.928 -0.5918  0.7961  0.0859
  281MOL0     C37846   8.794   8.516   9.983  0.6220  0.5125 -0.5116
  281MOL0     O37847   9.113   8.633   9.933  0.8421  0.2319  0.1841
  281MOL0     C37848   9.293   8.784  10.077 -0.3368  0.3671 -0.6311
  281MOL0     C37849   9.405   8.821  10.158 -1.3467 -0.4669  0.0261
  281MOL0     N37850   9.970   9.028  10.705 -0.7414 -0.5435 -0.0990
  281MOL0     N37851  10.008   9.159  10.701 -0.3329 -0.0039  0.0740
  281MOL0     C37852  10.173  10.183  10.124  0.0700 -0.6120  0.4550
  281MOL0     C37853  10.292  10.250  10.086 -1.0604  0.4408  0.8121
  281MOL0     C37854  10.625  10.387   9.804  0.9498  0.4894  0.2286
  281MOL0     C37855  10.676  10.351   9.681 -0.4330 -0.5389  0.6447
  281MOL0     C37856  10.805  10.396   9.653  0.4720  0.0747 -0.4147
  281MOL0     C37857  10.887  10.460   9.748  0.5029 -0.7156  0.6323
  281MOL0     O37858  11.010  10.495   9.706 -0.4647 -0.0545  0.5970
  281MOL0     C37859  11.125  10.487   9.794  0.2168  0.0259  0.2357
  281MOL0     C37860  11.244  10.424   9.730  0.2553  0.7880  0.1137
  281MOL0     C37861  11.236  10.274   9.693 -0.0475  0.4044  0.0535
  281MOL0     C37862  11.366  10.208   9.644  0.2318  0.7776 -1.2854
  281MOL0     C37863  11.457  10.188   9.757  0.0828  0.3429 -0.4222
  281MOL0     C37864  11.530  10.185   9.850  0.0517 -0.6931 -0.5916
  281MOL0     C37865  10.836  10.483   9.876  0.0228  1.0295  0.7565
  281MOL0     C37866  10.704  10.448   9.907 -1.2101  0.1206 -0.1512
  281MOL0     C37867  10.674  10.482  10.050  0.6034  0.0086  0.2724
  281MOL0     H37868  10.180  10.395   9.802 -1.5025  0.4683  0.8026
  281MOL0     H37869   9.998  10.258   9.845  0.3232 -0.7009 -0.4588
  281MOL0     H37870   9.978   9.963   9.964 -0.2844  0.3717  1.0328
  281MOL0     H37871  10.028   9.949  10.135  2.7303  0.9036 -0.6014
  281MOL0     H37872   9.745   9.934  10.023  0.9767 -1.8953 -0.4537
  281MOL0     H37873   9.774   9.964  10.190 -0.8444 -0.3674  0.0085
  281MOL0     H37874   9.851   9.736  10.016 -2.0642  2.5228 -1.3151
  281MOL0     H37875   9.725   9.727  10.139 -0.8985 -0.3493 -2.0495
  281MOL0     H37876  10.035   9.721  10.169  0.7706  0.3456  0.9786
  281MOL0     H37877   9.939   9.781  10.307 -0.4339  0.8617 -1.0029
  281MOL0     H37878   9.831   9.565  10.335  0.4978  1.1035  1.0494
  281MOL0     H37879   9.917   9.504  10.198 -0.3150  1.0382 -0.9171
  281MOL0     H37880  10.134   9.537  10.377 -0.1294 -0.6838  1.0601
  281MOL0     H37881   9.996   9.580  10.470  1.0418  2.1436 -0.8971
  281MOL0     H37882  10.021   9.305  10.329 -2.0559 -0.6856  0.4363
  281MOL0     H37883   9.897   9.358  10.449  0.2595 -4.2982  2.1679
  281MOL0     H37884  10.189   9.290  10.477 -1.7762 -0.4807  0.3900
  281MOL0     H37885  10.102   9.386  10.608 -1.5029 -0.5651  1.1300
  281MOL0     H37886  10.024   9.057  10.387  1.4583 -1.6864 -0.3196
  281MOL0     H37887   9.967   8.797  10.464  0.9716  2.6098 -0.4612
  281MOL0     H37888   9.918   8.766  10.629 -2.5001 -0.4675  0.6942
  281MOL0     H37889   9.731   8.918  10.610  0.4586 -0.0794  0.1665
  281MOL0     H37890   9.748   8.917  10.433 -2.2649 -0.9046 -0.3388
  281MOL0     H37891   9.710   8.665  10.585  1.6055  1.6381  0.1186
  281MOL0     H37892   9.716   8.676  10.400 -0.7755  1.0647 -0.3657
  281MOL0     H37893   9.511   8.827  10.579  1.4237 -0.6841  0.7264
  281MOL0     H37894   9.491   8.675  10.515 -0.7431  1.9426  0.5073
  281MOL0     H37895   9.280   8.755  10.457  0.9082  0.4423 -0.1007
  281MOL0     H37896   9.098   8.647  10.322  0.7962 -1.3262  1.5023
  281MOL0     H37897   9.052   8.301  10.074  1.4274  2.0941 -0.8996
  281MOL0     H37898   8.905   8.143   9.994  4.0828  1.9137  3.0136
  281MOL0     H37899   8.825   8.130   9.727  0.3405 -2.8681 -3.5449
  281MOL0     H37900   8.762   7.997   9.827 -0.2415 -0.5220 -0.3892
  281MOL0     H37901   8.577   8.138   9.648  0.8518  0.4452  2.0215
  281MOL0     H37902   8.674   8.025   9.568 -2.3773 -0.4755 -1.6528
  281MOL0     H37903   8.481   7.917   9.598 -1.4878 -0.4465  0.2652
  281MOL0     H37904   8.594   7.842   9.714  3.4546  2.1801 -0.7185
  281MOL0     H37905   8.373   8.032   9.766  1.8190  1.3340 -0.5284
  281MOL0     H37906   8.483   7.980   9.894  2.4567 -0.1851 -1.1849
  281MOL0     H37907   8.399   7.739   9.796  1.0066  0.7463 -0.0744
  281MOL0     H37908   8.265   7.817   9.735 -2.9018  0.9565  1.5115
  281MOL0     H37909   8.353   7.826  10.035 -1.9845 -0.2367  1.3457
  281MOL0     H37910   8.202   7.879   9.982 -0.9936 -0.1575 -1.8536
  281MOL0     H37911   8.315   7.593   9.944  0.2518 -1.2038  1.9623
  281MOL0     H37912   8.144   7.657   9.915 -0.8877 -1.5233  1.8144
  281MOL0     H37913   8.159   7.537  10.135 -1.6381  1.0624 -2.4255
  281MOL0     H37914   8.287   7.658  10.181  0.5159  0.8401  0.4110
  281MOL0     H37915   8.623   8.441   9.870 -0.7579 -1.9421 -0.8693
  281MOL0     H37916   8.749   8.615   9.985  1.4760  0.9300 -1.3370
  281MOL0     H37917   9.302   8.803   9.970 -1.2177  3.1585 -0.3011
  281MOL0     H37918   9.500   8.851  10.116 -0.8390 -3.2385 -0.9979
  281MOL0     H37919  10.170  10.127  10.217 -0.2373  1.0938  1.5218
  281MOL0     H37920  10.375  10.269  10.154  0.0079  0.5193 -0.4662
  281MOL0     H37921  10.622  10.303   9.600  0.3210  0.4294 -0.4772
  281MOL0     H37922  10.847  10.363   9.558 -1.2503 -0.5484 -1.0002
  281MOL0     H37923  11.103  10.415   9.873 -0.5247 -0.7441 -0.6404
  281MOL0     H37924  11.153  10.584   9.837 -1.9037  0.2612  1.1695
  281MOL0     H37925  11.325  10.438   9.802  2.2708 -0.9579 -1.6750
  281MOL0     H37926  11.265  10.478   9.637 -1.3840  1.1593 -0.0746
  281MOL0     H37927  11.174  10.265   9.603 -0.2704 -1.4933  0.3593
  281MOL0     H37928  11.178  10.212   9.762 -3.3717  0.1648 -2.6915
  281MOL0     H37929  11.333  10.114   9.601 -1.8351  0.4119  0.9130
  281MOL0     H37930  11.418  10.263   9.564  2.4516 -1.1921 -1.3020
  281MOL0     H37931  11.586  10.166   9.940  0.7848 -0.4962 -1.0001
  281MOL0     H37932  10.906  10.539   9.938  2.1671 -1.8500  1.1771
  281MOL0     H37933  10.644  10.390  10.101  1.1404 -0.2078  0.2046
  281MOL0     H37934  10.752  10.526  10.112  0.4353  1.2230 -0.3590
  281MOL0     H37935  10.591  10.553  10.053  1.2616  0.7707  1.3614
  282MOL0     O37936   8.695  11.333  10.283 -0.2141  0.2995 -0.0810
  282MOL0     C37937   8.758  11.432  10.317 -0.0723  0.1843  0.2897
  282MOL0     O37938   8.851  11.495  10.235  0.2235 -0.2433 -0.2721
  282MOL0     C37939   8.908  11.413  10.136 -0.0955 -0.2930 -0.3836
  282MOL0     C37940   8.835  11.371  10.025 -0.7265 -0.3137  0.4774
  282MOL0     C37941   8.896  11.286   9.936  0.0930  0.4242 -0.4872
  282MOL0     C37942   9.029  11.234   9.959  0.4205 -0.4314  0.9158
  282MOL0     O37943   9.086  11.141   9.879  0.5527 -0.0209  0.2370
  282MOL0     C37944   9.014  11.083   9.767  0.2571  0.5438 -0.3480
  282MOL0     C37945   9.096  10.972   9.702  0.1448 -0.2193  0.3524
  282MOL0     C37946   9.148  11.010   9.563  1.1082 -0.7142  0.5155
  282MOL0     C37947   9.042  11.044   9.465  0.7673  0.8894  0.2601
  282MOL0     C37948   9.095  11.079   9.327  0.3475 -0.6661 -0.1949
  282MOL0     C37949   9.201  11.182   9.320  0.2646 -0.4972  0.2519
  282MOL0     C37950   9.229  11.220   9.173 -0.2783 -0.9541  0.4959
  282MOL0     C37951   9.348  11.314   9.158  0.5216 -0.1778  0.0115
  282MOL0     N37952   9.334  11.394   9.028 -0.0176 -0.3464 -0.2748
  282MOL0     C37953   9.361  11.352   8.905  0.4276 -0.1404 -0.2773
  282MOL0     C37954   9.277  11.421   8.818 -0.8103  0.4635  0.2541
  282MOL0     C37955   9.277  11.386   8.670 -0.4945 -0.1184 -0.6442
  282MOL0     C37956   9.185  11.271   8.631 -0.2806  0.1336 -0.8743
  282MOL0     C37957   9.241  11.132   8.667 -0.3486 -0.6298  0.2312
  282MOL0     C37958   9.165  11.058   8.776  0.5626 -0.5995  0.1763
  282MOL0     O37959   9.179  10.916   8.782 -0.7006  0.9926 -0.7147
  282MOL0     C37960   9.110  10.857   8.879 -0.1490 -0.5539 -0.1452
  282MOL0     C37961   9.059  10.918   8.994  0.1800  0.4420 -1.2288
  282MOL0     C37962   8.980  10.837   9.086 -0.0725 -0.5475  0.1405
  282MOL0     C37963   8.977  10.704   9.086 -1.3393 -0.1540 -0.0009
  282MOL0     C37964   8.909  10.616   9.189  0.1943  0.7303 -0.0852
  282MOL0     O37965   8.895  10.485   9.153  0.3049 -0.0175 -0.5845
  282MOL0     C37966   8.803  10.403   9.225  0.3882 -0.2790 -0.4572
  282MOL0     C37967   8.666  10.383   9.186 -0.8949  0.1784  0.2575
  282MOL0     C37968   8.581  10.303   9.261 -0.4534 -0.2036 -0.8881
  282MOL0     C37969   8.637  10.238   9.376  0.2732  0.5808  0.1515
  282MOL0     O37970   8.539  10.184   9.455 -0.5292  0.5490 -0.2256
  282MOL0     C37971   8.572  10.153   9.586 -0.5400  0.7036  0.0224
  282MOL0     C37972   8.462  10.109   9.681 -0.1242 -0.3587  0.2956
  282MOL0     C37973   8.534  10.047   9.808  0.2577  0.5146  0.5869
  282MOL0     C37974   8.439   9.943   9.879 -1.8581  0.5645 -0.3288
  282MOL0     C37975   8.483   9.927  10.023 -0.0602  0.3189  0.0462
  282MOL0     C37976   8.600   9.832  10.048  0.9305 -0.4135 -0.2264
  282MOL0     C37977   8.647   9.810  10.196 -1.3840 -0.5576 -0.1060
  282MOL0     C37978   8.542   9.745  10.288  0.5829  0.0059 -0.0432
  282MOL0    Cl37979   8.632   9.700  10.454 -0.6371  0.1402  0.2100
  282MOL0     C37980   8.769  10.260   9.409 -0.7215  0.3950  0.4773
  282MOL0     C37981   8.855  10.338   9.328  1.0100  0.2254 -0.1342
  282MOL0     O37982   8.844  10.671   9.281  0.6543  0.1529  0.0925
  282MOL0     C37983   9.043  10.640   8.972  0.6123 -0.7854 -0.3876
  282MOL0     C37984   9.105  10.719   8.871 -0.8448 -0.1745 -0.2568
  282MOL0     N37985   9.196  11.499   8.895 -0.3436  0.5357 -0.1359
  282MOL0     N37986   9.239  11.489   9.018  0.4831 -0.5499  0.0919
  282MOL0     C37987   9.099  11.279  10.070 -0.7557  0.7099 -0.5241
  282MOL0     C37988   9.038  11.370  10.162  0.6836  1.5968 -0.3284
  282MOL0     C37989   8.750  11.488  10.462 -0.4730  0.2403  0.2821
  282MOL0     C37990   8.865  11.565  10.497 -0.1595  0.6171 -0.3543
  282MOL0     C37991   8.896  11.592  10.632 -0.0892  0.4200  0.5592
  282MOL0     C37992   8.807  11.557  10.729 -0.0373 -0.2621  0.3408
  282MOL0     O37993   8.832  11.569  10.862  0.3327  0.5090  0.4087
  282MOL0     C37994   8.965  11.569  10.910 -0.4575  0.2428  0.1201
  282MOL0     C37995   8.972  11.563  11.060  0.2072  0.6782  0.0986
  282MOL0     C37996   8.902  11.686  11.116 -0.2083  1.3604  1.4629
  282MOL0     C37997   8.857  11.677  11.258 -0.2822 -0.3169 -0.6265
  282MOL0     C37998   8.974  11.627  11.335 -0.4840 -0.1422 -0.0497
  282MOL0     C37999   9.067  11.575  11.396  0.2486 -0.0569  0.4407
  282MOL0     C38000   8.687  11.504  10.700 -0.3325 -0.0525  0.1822
  282MOL0     C38001   8.656  11.457  10.569 -0.7017 -0.3547  0.5202
  282MOL0     C38002   8.526  11.390  10.542  0.6937 -0.0057  0.0208
  282MOL0     H38003   8.733  11.399  10.000 -1.5128 -2.9566  0.3620
  282MOL0     H38004   8.854  11.259   9.840  2.3007 -1.6861 -0.9748
  282MOL0     H38005   8.913  11.057   9.801 -0.4243  3.0132 -0.3406
  282MOL0     H38006   8.998  11.160   9.691 -0.7751 -1.3026 -2.0974
  282MOL0     H38007   9.034  10.882   9.699  1.0210 -0.8798  1.3205
  282MOL0     H38008   9.176  10.959   9.776  0.7501  1.9778  0.1412
  282MOL0     H38009   9.213  10.940   9.510  0.6857 -2.2579  1.9608
  282MOL0     H38010   9.221  11.091   9.573  0.3448  0.3146 -1.5185
  282MOL0     H38011   8.974  10.959   9.457  0.0332  1.6149 -1.8418
  282MOL0     H38012   8.974  11.123   9.496  0.1298 -0.1949  1.7216
  282MOL0     H38013   9.144  10.990   9.287  2.2962  0.7984 -1.2450
  282MOL0     H38014   9.015  11.111   9.259  1.5777  1.2722 -0.7982
  282MOL0     H38015   9.169  11.272   9.374 -1.5845 -0.0151 -1.5208
  282MOL0     H38016   9.290  11.139   9.366  0.7667  1.1209  0.8823
  282MOL0     H38017   9.141  11.282   9.151  2.1082  1.9365 -1.7618
  282MOL0     H38018   9.249  11.128   9.118 -1.0391 -0.7119 -0.1919
  282MOL0     H38019   9.342  11.379   9.246 -0.8528  0.2211 -0.3598
  282MOL0     H38020   9.444  11.262   9.162  0.6196  0.0443  0.7419
  282MOL0     H38021   9.444  11.288   8.878  0.0140 -0.3685 -1.0554
  282MOL0     H38022   9.250  11.477   8.616 -3.4266 -0.3827  0.2075
  282MOL0     H38023   9.377  11.350   8.646  0.1188  0.2253  1.2511
  282MOL0     H38024   9.090  11.273   8.686 -0.2868 -2.0632 -0.7350
  282MOL0     H38025   9.168  11.270   8.523  0.4776  1.5859 -1.0312
  282MOL0     H38026   9.346  11.149   8.692  1.0022 -2.2333 -3.5653
  282MOL0     H38027   9.251  11.068   8.579 -1.6845 -1.8102  0.8904
  282MOL0     H38028   9.063  11.095   8.777  1.0288  1.3156 -3.8105
  282MOL0     H38029   9.223  11.085   8.864  1.2233  0.2787 -0.5069
  282MOL0     H38030   9.060  11.024   9.019  1.8569 -0.3495  2.8506
  282MOL0     H38031   8.933  10.878   9.175  1.4913 -0.6527  1.0633
  282MOL0     H38032   8.615  10.441   9.109 -2.4066  0.8991  1.7484
  282MOL0     H38033   8.475  10.285   9.246 -1.1660  0.5010  2.4938
  282MOL0     H38034   8.641  10.068   9.589  0.1322  1.2476  0.1309
  282MOL0     H38035   8.629  10.221   9.650  0.9769 -3.4992  3.6990
  282MOL0     H38036   8.409  10.199   9.714  0.8388  0.1912  0.3807
  282MOL0     H38037   8.402  10.030   9.637  0.8563 -0.0341 -1.7503
  282MOL0     H38038   8.623   9.991   9.780 -0.4831  1.1280 -3.7019
  282MOL0     H38039   8.560  10.125   9.880  2.2889 -0.9147  1.4862
  282MOL0     H38040   8.447   9.847   9.827 -0.6393  0.0778  0.6905
  282MOL0     H38041   8.335   9.978   9.879 -3.4540 -3.5719  0.2398
  282MOL0     H38042   8.399   9.879  10.073  0.4246  0.8561  1.4331
  282MOL0     H38043   8.514  10.022  10.067  5.9035 -0.9748 -0.5443
  282MOL0     H38044   8.587   9.734  10.000  0.5195 -0.9259  0.8843
  282MOL0     H38045   8.693   9.873  10.008  1.4685 -0.2013  1.1908
  282MOL0     H38046   8.674   9.907  10.239  5.1224 -0.0205 -4.0782
  282MOL0     H38047   8.739   9.752  10.186 -1.6109 -0.7930 -0.9337
  282MOL0     H38048   8.461   9.818  10.301 -0.1609 -0.9720  1.1100
  282MOL0     H38049   8.504   9.659  10.232  0.1131  0.5954 -0.6406
  282MOL0     H38050   8.818  10.218   9.497  3.2791  1.8979 -0.7960
  282MOL0     H38051   8.957  10.358   9.357 -0.1879  2.6844  2.9651
  282MOL0     H38052   9.049  10.533   8.959 -0.6971 -0.9832  0.4619
  282MOL0     H38053   9.163  10.661   8.799 -1.1996 -0.7112 -0.1148
  282MOL0     H38054   9.202  11.250  10.086 -1.3271 -1.1642  0.1409
  282MOL0     H38055   9.087  11.405  10.252  0.0882 -2.0851  1.6174
  282MOL0     H38056   8.929  11.616  10.426 -0.0667  1.1626  0.1112
  282MOL0     H38057   8.987  11.647  10.652 -0.6996  0.9097  2.0582
  282MOL0     H38058   9.026  11.657  10.887  1.4174 -0.7162  1.1684
  282MOL0     H38059   9.015  11.485  10.861  1.3899  1.2227  0.2259
  282MOL0     H38060   9.078  11.567  11.089 -0.5265  2.1785  2.8082
  282MOL0     H38061   8.928  11.466  11.088  2.0396  0.2862  1.8941
  282MOL0     H38062   8.820  11.719  11.052  1.7407 -0.9864 -2.6154
  282MOL0     H38063   8.980  11.763  11.105 -0.2781  1.2211 -0.2368
  282MOL0     H38064   8.821  11.773  11.296  0.5883 -0.0651 -0.4155
  282MOL0     H38065   8.787  11.594  11.265  1.0013 -1.2977  1.5983
  282MOL0     H38066   9.135  11.521  11.459 -0.8054  0.6375  2.2628
  282MOL0     H38067   8.622  11.472  10.781  0.1145 -0.6915  0.2964
  282MOL0     H38068   8.554  11.295  10.494  0.8615 -0.9035  1.8172
  282MOL0     H38069   8.466  11.374  10.632  1.1072  1.4951  0.5907
  282MOL0     H38070   8.469  11.452  10.473 -0.1734 -2.5258 -1.6868
  283MOL0     O38071   5.590   4.428   0.841  0.6703  0.4275  0.1582
  283MOL0     C38072   5.706   4.386   0.835  0.6976  0.6205  0.3708
  283MOL0     O38073   5.811   4.468   0.819  0.2235  0.2639 -0.1832
  283MOL0     C38074   5.814   4.594   0.864 -1.3517 -0.4421  0.7315
  283MOL0     C38075   5.725   4.653   0.959 -0.2068  0.1894 -0.4055
  283MOL0     C38076   5.754   4.777   1.022 -0.1190 -0.4902 -0.8245
  283MOL0     C38077   5.879   4.839   0.988  0.7506  0.4218  0.2372
  283MOL0     O38078   5.916   4.949   1.057  0.1915 -0.5407 -0.0287
  283MOL0     C38079   5.999   4.911   1.175  0.0975  1.1816 -0.4149
  283MOL0     C38080   6.107   5.015   1.226 -0.0281 -0.4571  0.4114
  283MOL0     C38081   6.052   5.162   1.240 -0.9781 -0.0773 -0.2079
  283MOL0     C38082   6.110   5.252   1.122  0.0339  0.9022 -0.9360
  283MOL0     C38083   6.034   5.243   0.982  0.0630 -0.0182  1.1157
  283MOL0     C38084   6.097   5.323   0.871  1.3199  0.1142  0.4960
  283MOL0     C38085   6.078   5.268   0.733  0.4231 -1.0071 -0.1996
  283MOL0     C38086   5.942   5.287   0.653 -0.6961 -0.1795 -1.4494
  283MOL0     N38087   5.902   5.429   0.633 -0.8330  0.5314 -1.0931
  283MOL0     C38088   5.898   5.496   0.516  0.9822 -0.9520  0.1448
  283MOL0     C38089   5.850   5.612   0.552 -0.0280 -0.1663  0.0257
  283MOL0     C38090   5.820   5.730   0.462 -0.5330  0.7370  0.4840
  283MOL0     C38091   5.945   5.798   0.414 -0.1746 -0.4530 -0.2979
  283MOL0     C38092   6.022   5.876   0.540  0.2401  0.3451  1.0381
  283MOL0     C38093   6.139   5.942   0.477  0.0346 -1.0028 -0.2236
  283MOL0     O38094   6.105   6.048   0.383  0.1564 -0.1680  0.3470
  283MOL0     C38095   6.188   6.056   0.280  0.1587 -0.4379  0.4311
  283MOL0     C38096   6.323   6.005   0.284 -0.1119  0.1151 -0.0586
  283MOL0     C38097   6.405   6.015   0.171 -0.3805  0.2744  0.1692
  283MOL0     C38098   6.354   6.055   0.048 -1.1663  0.1988  0.1944
  283MOL0     C38099   6.445   6.052  -0.067  0.0983 -0.4231 -0.7978
  283MOL0     O38100   6.571   6.031  -0.035 -0.3811  0.7460  0.3609
  283MOL0     C38101   6.661   5.997  -0.140 -0.1707 -0.5849 -0.4696
  283MOL0     C38102   6.788   6.042  -0.130  0.0931  0.4886  0.1343
  283MOL0     C38103   6.889   5.991  -0.222  0.8852  0.1295 -0.4367
  283MOL0     C38104   6.857   5.898  -0.321 -0.9250 -0.5000 -0.0371
  283MOL0     O38105   6.956   5.844  -0.400  0.7052  0.2199  0.7306
  283MOL0     C38106   6.995   5.939  -0.504  0.6848  0.4687 -0.4015
  283MOL0     C38107   7.144   5.973  -0.493  0.1180 -0.1409  0.5555
  283MOL0     C38108   7.199   6.072  -0.600 -0.2561  0.6489  0.7772
  283MOL0     C38109   7.285   6.174  -0.538 -0.2004 -0.1852 -1.7759
  283MOL0     C38110   7.434   6.139  -0.502  0.7507 -0.1644  0.3434
  283MOL0     C38111   7.523   6.257  -0.523  0.2829  0.4061 -0.1844
  283MOL0     C38112   7.532   6.352  -0.409 -0.0201 -0.3149  0.0047
  283MOL0     C38113   7.639   6.307  -0.310 -1.2779  0.4336 -0.2814
  283MOL0    Cl38114   7.646   6.434  -0.184  0.0813 -0.0411 -0.0750
  283MOL0     C38115   6.725   5.862  -0.340 -1.1624 -0.6991 -0.0173
  283MOL0     C38116   6.629   5.905  -0.244  0.6403 -1.2452 -0.8269
  283MOL0     O38117   6.399   6.074  -0.176 -0.4295 -0.3631 -0.8610
  283MOL0     C38118   6.223   6.100   0.044  0.3081  0.5400  0.4453
  283MOL0     C38119   6.137   6.098   0.153 -0.0193 -0.1659 -0.3508
  283MOL0     N38120   5.843   5.621   0.684 -0.1549 -0.6652 -1.1325
  283MOL0     N38121   5.862   5.504   0.736  0.6541  0.5574  0.1636
  283MOL0     C38122   5.958   4.785   0.883  0.8010  0.3574  0.7732
  283MOL0     C38123   5.932   4.664   0.822  0.0527 -1.1879  0.2405
  283MOL0     C38124   5.726   4.238   0.829 -1.5064  0.1316  0.1386
  283MOL0     C38125   5.858   4.196   0.818  0.8362 -0.8409 -0.3352
  283MOL0     C38126   5.900   4.066   0.816 -0.0422  0.2461 -0.0341
  283MOL0     C38127   5.800   3.973   0.815 -0.7428  0.3844  0.1440
  283MOL0     O38128   5.841   3.851   0.805  0.3538  0.8477  0.6098
  283MOL0     C38129   5.907   3.827   0.678 -0.6462 -0.0608 -0.1787
  283MOL0     C38130   5.972   3.690   0.672  0.1367  0.5675  0.0563
  283MOL0     C38131   6.122   3.678   0.696 -0.1550 -0.3721  0.3031
  283MOL0     C38132   6.158   3.538   0.679 -0.1096  0.3307 -0.0846
  283MOL0     C38133   6.186   3.500   0.532 -0.9770 -0.7784 -0.6117
  283MOL0     C38134   6.217   3.467   0.424  0.2673  0.7039  0.4458
  283MOL0     C38135   5.669   4.007   0.814  0.1829  0.4820 -0.1994
  283MOL0     C38136   5.627   4.140   0.823  0.0707  0.1142  0.0742
  283MOL0     C38137   5.482   4.159   0.815  0.9058 -0.2356  0.8687
  283MOL0     H38138   5.635   4.601   0.990 -1.5164  3.2209  1.3683
  283MOL0     H38139   5.697   4.826   1.100  2.1181  1.1915 -0.1285
  283MOL0     H38140   5.932   4.881   1.256  0.5833  0.0810 -0.4121
  283MOL0     H38141   6.051   4.819   1.148  0.8261  1.3380  0.4124
  283MOL0     H38142   6.188   5.027   1.153 -0.8532  1.4471 -0.2609
  283MOL0     H38143   6.154   4.987   1.320 -2.0563 -3.0279  0.7845
  283MOL0     H38144   6.087   5.215   1.329 -2.6875  0.7110  0.0462
  283MOL0     H38145   5.944   5.179   1.237 -0.9570  0.4706  1.3398
  283MOL0     H38146   6.113   5.356   1.155  1.5394  0.6764 -0.3083
  283MOL0     H38147   6.214   5.219   1.114 -1.2114 -3.8561 -0.5823
  283MOL0     H38148   6.039   5.138   0.951  3.2151  0.4102 -0.1763
  283MOL0     H38149   5.933   5.283   0.992 -0.3704 -0.6356 -0.5884
  283MOL0     H38150   6.065   5.426   0.893  3.0480 -0.0498  4.8876
  283MOL0     H38151   6.205   5.315   0.888  1.0049 -2.2657  1.8466
  283MOL0     H38152   6.090   5.160   0.748 -0.7077 -0.8074  3.1085
  283MOL0     H38153   6.157   5.310   0.671 -2.3373  3.1929 -1.2665
  283MOL0     H38154   5.944   5.245   0.552 -0.1504 -1.1681 -1.0414
  283MOL0     H38155   5.875   5.227   0.715 -1.6660  1.1132 -1.2066
  283MOL0     H38156   5.908   5.459   0.414  1.1588  2.2711 -1.1197
  283MOL0     H38157   5.765   5.680   0.381 -0.3900 -2.9943  2.4556
  283MOL0     H38158   5.757   5.804   0.512 -1.6422 -1.4916  2.6301
  283MOL0     H38159   6.021   5.735   0.367 -0.5118 -1.7603  0.8164
  283MOL0     H38160   5.917   5.863   0.331 -1.7461 -0.3310  0.2835
  283MOL0     H38161   6.057   5.804   0.615  0.6746 -0.7846 -0.2128
  283MOL0     H38162   5.955   5.946   0.590  0.1413 -0.0722  1.4970
  283MOL0     H38163   6.190   5.854   0.439 -0.6680 -2.8150  2.7011
  283MOL0     H38164   6.208   5.987   0.549 -1.3443 -0.1525  0.6387
  283MOL0     H38165   6.369   5.955   0.369 -2.7690 -3.0009 -0.2805
  283MOL0     H38166   6.508   5.983   0.182 -0.4489 -0.4246 -1.1285
  283MOL0     H38167   6.811   6.105  -0.045  2.6589 -0.3775  0.1931
  283MOL0     H38168   6.989   6.028  -0.204  0.8566 -0.0964  0.2132
  283MOL0     H38169   6.981   5.886  -0.598 -2.1271 -0.2061  0.3055
  283MOL0     H38170   6.926   6.024  -0.507  1.2752  0.9306 -1.7639
  283MOL0     H38171   7.145   6.014  -0.392 -2.8546  0.6467  0.3471
  283MOL0     H38172   7.195   5.876  -0.503 -1.5494 -1.0640  0.5726
  283MOL0     H38173   7.250   6.007  -0.672 -1.7964  0.6720 -0.4067
  283MOL0     H38174   7.116   6.122  -0.651 -3.0199 -2.4813  1.8322
  283MOL0     H38175   7.248   6.194  -0.437  0.6822  0.0508 -1.4844
  283MOL0     H38176   7.282   6.267  -0.596  0.7063  1.8336  1.1803
  283MOL0     H38177   7.464   6.053  -0.563 -0.5956 -0.8605  0.6128
  283MOL0     H38178   7.437   6.109  -0.397  1.0255 -2.2958 -0.2232
  283MOL0     H38179   7.621   6.219  -0.552  0.8861  1.2185  0.7259
  283MOL0     H38180   7.501   6.304  -0.619  2.3641  0.5559 -0.6331
  283MOL0     H38181   7.446   6.344  -0.342  0.0404 -4.1952 -0.1791
  283MOL0     H38182   7.546   6.456  -0.439  1.9500 -0.7106 -0.6109
  283MOL0     H38183   7.607   6.212  -0.265 -2.0412  0.8381  0.0547
  283MOL0     H38184   7.742   6.308  -0.346 -0.9428 -0.6105  0.5785
  283MOL0     H38185   6.703   5.798  -0.426  2.5222 -0.7962 -1.0262
  283MOL0     H38186   6.528   5.867  -0.262  0.8867 -1.4868 -1.7704
  283MOL0     H38187   6.171   6.122  -0.049 -0.5960 -0.8355  0.5974
  283MOL0     H38188   6.038   6.139   0.142  0.2582  0.0828 -2.2968
  283MOL0     H38189   6.050   4.839   0.861  0.8500  0.8337  2.0616
  283MOL0     H38190   5.992   4.618   0.744  1.0043  2.0464 -1.1097
  283MOL0     H38191   5.934   4.273   0.806 -2.2114  2.3023 -1.5210
  283MOL0     H38192   6.006   4.043   0.824 -0.2481 -0.7800 -0.0865
  283MOL0     H38193   5.991   3.896   0.667 -2.1188  2.0228  0.8364
  283MOL0     H38194   5.834   3.838   0.596 -0.7656 -3.7247 -0.7396
  283MOL0     H38195   5.942   3.635   0.582 -0.6828 -0.0212  0.6684
  283MOL0     H38196   5.919   3.637   0.752  0.8768 -0.6593 -0.2333
  283MOL0     H38197   6.147   3.719   0.795  1.0768  1.3384 -0.6604
  283MOL0     H38198   6.171   3.745   0.626  1.5542 -0.9311  0.9105
  283MOL0     H38199   6.258   3.529   0.721  0.6536  0.8112 -1.6972
  283MOL0     H38200   6.093   3.471   0.736 -1.3896  2.4873  1.1198
  283MOL0     H38201   6.261   3.430   0.334 -1.2891 -0.3045  0.0521
  283MOL0     H38202   5.604   3.922   0.796  0.5851  0.0377  0.4197
  283MOL0     H38203   5.444   4.198   0.910 -1.6874 -2.1521  0.7012
  283MOL0     H38204   5.457   4.225   0.732  1.9917 -1.7780 -0.7721
  283MOL0     H38205   5.423   4.069   0.797 -0.7818  1.2588 -1.5239
  284MOL0     O38206   6.323   3.899   8.470 -0.3634 -0.5282  0.7192
  284MOL0     C38207   6.421   3.897   8.397  0.4131  0.1614  1.3480
  284MOL0     O38208   6.408   3.890   8.258  0.0287  0.8746 -0.6973
  284MOL0     C38209   6.279   3.865   8.205  0.6064  0.4377  0.4415
  284MOL0     C38210   6.237   3.741   8.146  0.4980 -0.5404 -0.1640
  284MOL0     C38211   6.111   3.722   8.095  0.1122 -0.3405 -0.1481
  284MOL0     C38212   6.012   3.820   8.100  0.2469 -0.5076  0.3657
  284MOL0     O38213   5.888   3.788   8.048 -0.0984  0.6950  0.5571
  284MOL0     C38214   5.794   3.897   8.024 -0.6067 -0.8074  0.2165
  284MOL0     C38215   5.842   4.001   7.924 -0.6455 -0.8754  1.2413
  284MOL0     C38216   5.840   3.948   7.780  0.1718  0.2198  0.3584
  284MOL0     C38217   5.970   3.877   7.740 -0.1783  0.6007  0.3710
  284MOL0     C38218   5.935   3.804   7.605  0.2842 -0.1618  0.1172
  284MOL0     C38219   6.042   3.717   7.541  0.4340 -0.3749 -0.5373
  284MOL0     C38220   6.069   3.587   7.617 -0.0342 -0.1560  0.2333
  284MOL0     C38221   6.201   3.585   7.693 -0.4880 -0.6185 -0.2426
  284MOL0     N38222   6.308   3.555   7.605 -0.0810 -0.4855  0.4399
  284MOL0     C38223   6.325   3.446   7.521  0.0197 -0.6048  0.6646
  284MOL0     C38224   6.457   3.453   7.494  0.1827  0.0749 -0.1435
  284MOL0     C38225   6.532   3.335   7.451 -0.2155  0.6428 -1.2515
  284MOL0     C38226   6.629   3.281   7.561  0.3251  0.6925  0.0381
  284MOL0     C38227   6.662   3.134   7.537 -0.8929  0.6845 -0.6674
  284MOL0     C38228   6.725   3.106   7.395  0.1137  0.3153 -0.5507
  284MOL0     O38229   6.740   2.968   7.375 -0.5776 -0.4817  0.1585
  284MOL0     C38230   6.800   2.935   7.260  0.1684  0.4960  0.5428
  284MOL0     C38231   6.940   2.961   7.247  0.4744 -0.6306  0.6970
  284MOL0     C38232   7.008   2.927   7.136  0.0530  0.5205  0.2529
  284MOL0     C38233   6.938   2.867   7.027 -0.3565 -1.1249  0.3398
  284MOL0     C38234   7.009   2.839   6.895  0.2958  0.2474 -0.6977
  284MOL0     O38235   6.930   2.806   6.791  1.0008  0.0548  0.0080
  284MOL0     C38236   6.988   2.815   6.666  0.2391 -1.4126 -0.4653
  284MOL0     C38237   6.991   2.938   6.597  0.5417  0.3679 -0.9544
  284MOL0     C38238   7.043   2.938   6.469  0.5798 -0.4997  0.4162
  284MOL0     C38239   7.089   2.819   6.404 -0.2185 -0.5534  0.5192
  284MOL0     O38240   7.127   2.834   6.272 -0.2299  0.2201  0.2054
  284MOL0     C38241   7.183   2.723   6.195 -0.2327  0.1761 -0.2045
  284MOL0     C38242   7.332   2.732   6.194  0.2699 -1.0601  0.0132
  284MOL0     C38243   7.406   2.686   6.076 -0.3123 -0.6600  1.0836
  284MOL0     C38244   7.413   2.533   6.065  0.1742 -0.9344 -0.4030
  284MOL0     C38245   7.520   2.481   5.978 -0.5295  0.1955 -0.5996
  284MOL0     C38246   7.540   2.322   5.995  0.3442 -0.2563 -0.2528
  284MOL0     C38247   7.661   2.273   5.917 -0.1659 -0.4517 -0.9383
  284MOL0     C38248   7.627   2.204   5.793  0.6364 -0.1250 -0.1510
  284MOL0    Cl38249   7.585   2.031   5.834  0.5357 -0.0639  0.2765
  284MOL0     C38250   7.088   2.702   6.484 -0.5592 -0.1194 -0.1857
  284MOL0     C38251   7.035   2.701   6.616  0.6685  0.6938  0.8503
  284MOL0     O38252   7.127   2.853   6.891 -0.4433 -0.1980  0.6337
  284MOL0     C38253   6.807   2.819   7.036  0.4977  0.0435 -0.0776
  284MOL0     C38254   6.735   2.868   7.147 -0.0211  0.4285 -0.2532
  284MOL0     N38255   6.525   3.552   7.565 -0.0904 -0.0522 -0.4886
  284MOL0     N38256   6.432   3.610   7.633  0.0594  0.2311  0.0662
  284MOL0     C38257   6.045   3.939   8.168  0.5797 -0.0850 -0.1541
  284MOL0     C38258   6.175   3.959   8.213 -0.1037  0.3758 -0.3807
  284MOL0     C38259   6.553   3.897   8.465  0.5939 -1.4982  0.9597
  284MOL0     C38260   6.646   3.811   8.410 -0.2763 -0.7887 -1.0645
  284MOL0     C38261   6.780   3.822   8.443 -0.4994 -0.1326 -0.4436
  284MOL0     C38262   6.821   3.909   8.550  0.5776 -0.0536  0.8904
  284MOL0     O38263   6.942   3.910   8.614  0.0087 -0.3298  0.1517
  284MOL0     C38264   7.029   3.798   8.598 -0.2812  0.0759  0.3779
  284MOL0     C38265   7.119   3.772   8.470  0.2928  0.5959  0.2030
  284MOL0     C38266   7.121   3.623   8.438  0.0842 -0.7066  0.3209
  284MOL0     C38267   7.264   3.595   8.378  0.4597  0.1904  0.8770
  284MOL0     C38268   7.263   3.462   8.315 -0.1003  1.0259 -0.7286
  284MOL0     C38269   7.254   3.352   8.278 -0.6133  0.2442 -0.2691
  284MOL0     C38270   6.727   3.993   8.599 -0.0328 -0.6929 -0.4708
  284MOL0     C38271   6.592   3.991   8.560  1.1694 -0.5052 -0.1147
  284MOL0     C38272   6.512   4.089   8.620 -0.1242 -0.6303 -0.0380
  284MOL0     H38273   6.310   3.661   8.152  1.2607  0.2519  3.0788
  284MOL0     H38274   6.082   3.631   8.044 -2.7215 -0.2256  1.0108
  284MOL0     H38275   5.700   3.867   7.978 -0.1912 -1.0647 -0.4898
  284MOL0     H38276   5.780   3.958   8.114 -1.3910 -1.8820  0.8441
  284MOL0     H38277   5.944   4.034   7.945  0.5104 -3.5260  0.3020
  284MOL0     H38278   5.781   4.091   7.931 -1.5967 -1.4895  1.1099
  284MOL0     H38279   5.832   4.040   7.721  0.9855  0.5314  0.7136
  284MOL0     H38280   5.754   3.884   7.758  1.1337 -1.3709  1.0450
  284MOL0     H38281   6.054   3.946   7.729  1.7528 -1.1556  2.8271
  284MOL0     H38282   6.000   3.798   7.809  0.0101 -0.2899 -0.7150
  284MOL0     H38283   5.845   3.744   7.620 -1.6466  2.3838 -0.5107
  284MOL0     H38284   5.914   3.891   7.542 -0.0618  2.2072  3.2373
  284MOL0     H38285   6.000   3.691   7.444  0.9520 -0.4388 -0.7495
  284MOL0     H38286   6.133   3.776   7.524  0.4729 -0.2054  0.2242
  284MOL0     H38287   6.078   3.499   7.554 -1.6339 -1.5215  1.7790
  284MOL0     H38288   5.984   3.566   7.683 -0.5749 -0.2476 -0.4770
  284MOL0     H38289   6.216   3.680   7.746 -3.8025  1.0883 -2.0439
  284MOL0     H38290   6.195   3.507   7.770  0.7784 -0.4841  0.0069
  284MOL0     H38291   6.260   3.359   7.523  0.6367 -1.0710  0.6934
  284MOL0     H38292   6.463   3.251   7.435 -1.4619  1.5700 -0.8804
  284MOL0     H38293   6.599   3.354   7.367  1.1441  2.3387  0.1501
  284MOL0     H38294   6.707   3.356   7.575 -0.6969  1.4127  2.6792
  284MOL0     H38295   6.572   3.296   7.653 -0.7361  0.9394 -0.6440
  284MOL0     H38296   6.574   3.070   7.540 -0.0848 -0.4522  1.9619
  284MOL0     H38297   6.734   3.119   7.619 -0.7187  2.3720 -0.4760
  284MOL0     H38298   6.822   3.156   7.387 -1.5578  3.9044 -0.1674
  284MOL0     H38299   6.663   3.141   7.311  1.3036  2.0268 -0.7675
  284MOL0     H38300   6.992   2.995   7.336  1.9848  0.2290 -0.4800
  284MOL0     H38301   7.112   2.958   7.127  0.9593 -2.4986 -1.3115
  284MOL0     H38302   6.951   3.034   6.624  4.2924  2.8011 -3.0777
  284MOL0     H38303   7.046   3.030   6.413 -1.2827  1.0154  2.6298
  284MOL0     H38304   7.141   2.622   6.201 -1.9563  0.9283  1.5383
  284MOL0     H38305   7.157   2.758   6.094 -0.7336 -1.4477 -0.6791
  284MOL0     H38306   7.357   2.838   6.204 -1.0777 -0.5562 -1.4814
  284MOL0     H38307   7.358   2.671   6.281 -0.2490  0.1174  1.0130
  284MOL0     H38308   7.355   2.718   5.984  2.5872 -0.2153 -0.5223
  284MOL0     H38309   7.505   2.733   6.067 -0.1111 -1.4194 -1.9180
  284MOL0     H38310   7.316   2.498   6.029  0.5530 -1.6436 -0.7532
  284MOL0     H38311   7.426   2.497   6.168 -0.8286  1.6080  0.7055
  284MOL0     H38312   7.622   2.517   5.991 -0.7986  1.0658 -0.8601
  284MOL0     H38313   7.500   2.514   5.875  1.0026 -5.6261 -3.2333
  284MOL0     H38314   7.557   2.311   6.103 -2.6820 -0.1898  0.3019
  284MOL0     H38315   7.445   2.273   5.972  0.4634  0.9108 -3.8848
  284MOL0     H38316   7.714   2.201   5.980 -0.5793 -1.6980 -1.9763
  284MOL0     H38317   7.725   2.361   5.908  1.6187 -1.0560  3.3792
  284MOL0     H38318   7.529   2.245   5.764 -1.1356 -2.4884  2.0344
  284MOL0     H38319   7.702   2.219   5.715 -0.3294  0.6954 -0.9565
  284MOL0     H38320   7.127   2.610   6.443  0.5002 -0.6953  1.9869
  284MOL0     H38321   7.027   2.609   6.674 -0.0738  1.2265  1.6081
  284MOL0     H38322   6.753   2.774   6.953  2.7377  0.3928 -1.8202
  284MOL0     H38323   6.629   2.851   7.159 -0.5553  3.7634  1.1572
  284MOL0     H38324   5.965   4.012   8.176  1.9279  1.5216 -0.6744
  284MOL0     H38325   6.184   4.055   8.263  1.6951  1.4640 -2.6311
  284MOL0     H38326   6.627   3.741   8.329  1.2930 -4.0392  1.1641
  284MOL0     H38327   6.844   3.750   8.393 -2.8651 -0.9698 -2.4515
  284MOL0     H38328   6.962   3.712   8.611 -1.1741  0.8832  1.2718
  284MOL0     H38329   7.095   3.794   8.685  0.7522 -0.8233 -0.4234
  284MOL0     H38330   7.217   3.814   8.493  0.5951  0.9877 -1.6346
  284MOL0     H38331   7.079   3.824   8.382 -2.4963 -0.1524  0.9382
  284MOL0     H38332   7.052   3.600   8.356  1.9193 -2.0193 -0.9280
  284MOL0     H38333   7.089   3.563   8.524  1.0418 -3.6268 -1.2032
  284MOL0     H38334   7.283   3.667   8.298  0.5105  0.4270  1.1014
  284MOL0     H38335   7.342   3.596   8.455  0.3460  0.0503  0.9956
  284MOL0     H38336   7.245   3.251   8.245 -1.8551 -0.7874  2.8525
  284MOL0     H38337   6.746   4.062   8.680 -1.6219 -1.9391  1.0566
  284MOL0     H38338   6.547   4.184   8.579 -0.4872 -1.8470 -3.4833
  284MOL0     H38339   6.409   4.076   8.584  0.3886 -2.3067 -0.9684
  284MOL0     H38340   6.517   4.083   8.729 -0.9622 -0.9335 -0.0042
  285MOL0     O38341   9.712   5.881  10.734  0.2318 -0.6151 -0.4375
  285MOL0     C38342   9.642   5.954  10.659  0.3535 -0.3158 -0.5682
  285MOL0     O38343   9.594   6.083  10.684  0.3718 -0.5890 -0.2835
  285MOL0     C38344   9.610   6.146  10.805  0.8516  0.2150  0.1580
  285MOL0     C38345   9.525   6.122  10.908 -0.2170  0.8475  0.2794
  285MOL0     C38346   9.537   6.194  11.033 -0.1414  0.6376  0.1248
  285MOL0     C38347   9.643   6.284  11.042  0.5154  0.1031  0.4230
  285MOL0     O38348   9.651   6.343  11.168 -0.1162  0.0545 -0.5564
  285MOL0     C38349   9.789   6.348  11.226  0.2813  0.1927  1.1538
  285MOL0     C38350   9.782   6.282  11.362  0.4718 -0.1940  0.1307
  285MOL0     C38351   9.801   6.126  11.355  0.4649  1.0412  0.1971
  285MOL0     C38352   9.673   6.043  11.354 -0.2281  0.5463  0.5003
  285MOL0     C38353   9.609   6.053  11.482  0.2427  0.0302 -0.5660
  285MOL0     C38354   9.459   6.027  11.476  0.2354  0.6290  0.3426
  285MOL0     C38355   9.379   6.150  11.442  0.1363  1.3410  1.1456
  285MOL0     C38356   9.236   6.121  11.389 -0.0533 -0.1078  0.6841
  285MOL0     N38357   9.227   6.129  11.246 -0.6368 -0.0070 -0.0015
  285MOL0     C38358   9.198   6.248  11.171  0.1466 -0.4175  0.6227
  285MOL0     C38359   9.180   6.200  11.048  0.2242 -1.0174 -1.0499
  285MOL0     C38360   9.118   6.303  10.946  0.5239 -1.3378 -0.3196
  285MOL0     C38361   8.977   6.283  10.899 -0.7453 -0.5281 -0.3938
  285MOL0     C38362   8.975   6.198  10.770 -0.0559  0.0233  0.2525
  285MOL0     C38363   8.821   6.169  10.749 -0.3395  1.0111 -0.6027
  285MOL0     O38364   8.798   6.087  10.627 -0.9818 -0.9502  0.1108
  285MOL0     C38365   8.828   6.149  10.507 -1.0401  0.2021 -0.3942
  285MOL0     C38366   8.843   6.289  10.479  0.7748  0.7334 -0.1945
  285MOL0     C38367   8.869   6.319  10.345  0.6393  0.2760  0.5228
  285MOL0     C38368   8.872   6.234  10.237  0.2842 -0.4790 -0.2696
  285MOL0     C38369   8.891   6.284  10.096  0.0722  0.9477  0.1963
  285MOL0     O38370   8.929   6.415  10.082  0.4187  0.6589  0.6011
  285MOL0     C38371   9.010   6.447   9.981  0.8519 -0.0859 -1.0608
  285MOL0     C38372   9.127   6.531   9.993 -0.0406 -0.2046 -0.3058
  285MOL0     C38373   9.202   6.577   9.885 -0.6501  0.2533 -0.5162
  285MOL0     C38374   9.182   6.509   9.762 -0.0252 -0.0946 -1.4728
  285MOL0     O38375   9.266   6.549   9.662 -0.2775  0.3749 -0.2420
  285MOL0     C38376   9.304   6.465   9.558 -0.2340 -0.2642 -0.6093
  285MOL0     C38377   9.313   6.537   9.434  0.7810 -0.0381  0.6313
  285MOL0     C38378   9.438   6.637   9.428  0.1234 -0.1526 -0.1098
  285MOL0     C38379   9.475   6.669   9.277 -0.0445 -0.5177 -0.8268
  285MOL0     C38380   9.558   6.808   9.273  0.5687  0.0479  0.1491
  285MOL0     C38381   9.632   6.846   9.140 -0.9560 -0.9861  0.7146
  285MOL0     C38382   9.750   6.936   9.165 -0.8267  0.7475  0.0656
  285MOL0     C38383   9.707   7.082   9.195  0.1459 -0.2589 -0.2961
  285MOL0    Cl38384   9.844   7.183   9.225  1.0028  0.0260  0.2312
  285MOL0     C38385   9.075   6.427   9.745 -0.8508  0.0687  0.1718
  285MOL0     C38386   8.981   6.412   9.847  0.6852  0.6245  0.6486
  285MOL0     O38387   8.880   6.200  10.006  0.1922 -0.0879 -0.7676
  285MOL0     C38388   8.843   6.101  10.263 -0.0874  0.2191 -0.3419
  285MOL0     C38389   8.830   6.050  10.397  0.5078 -0.8622 -0.8175
  285MOL0     N38390   9.205   6.065  11.045  0.0840 -0.3198  0.3903
  285MOL0     N38391   9.241   6.027  11.158  0.2308  0.8414 -1.3838
  285MOL0     C38392   9.726   6.319  10.934  0.3484  0.6981 -0.0899
  285MOL0     C38393   9.711   6.240  10.817 -1.2565  0.7914 -0.2163
  285MOL0     C38394   9.585   5.898  10.533 -0.0882  0.1682 -0.9956
  285MOL0     C38395   9.509   5.984  10.449 -0.3394  0.5611  0.2233
  285MOL0     C38396   9.452   5.934  10.336 -0.0162  0.3052  0.3143
  285MOL0     C38397   9.466   5.799  10.298 -0.5033  0.5747  0.3720
  285MOL0     O38398   9.396   5.722  10.204 -0.2414  0.1661 -0.1610
  285MOL0     C38399   9.330   5.798  10.109 -0.3441  0.3091  0.2550
  285MOL0     C38400   9.182   5.823  10.146 -0.5067 -0.4483  0.2728
  285MOL0     C38401   9.109   5.698  10.192 -0.2971  0.4485 -0.2475
  285MOL0     C38402   8.961   5.730  10.176 -0.0221 -0.3230  0.0201
  285MOL0     C38403   8.907   5.703  10.044 -0.0515 -0.5720  0.6342
  285MOL0     C38404   8.874   5.678   9.929 -0.2538 -1.0035 -0.7604
  285MOL0     C38405   9.547   5.713  10.376  0.9489 -0.5802 -0.7677
  285MOL0     C38406   9.613   5.763  10.494 -0.3669  0.1895  0.7205
  285MOL0     C38407   9.718   5.667  10.555 -0.2662  0.2209 -0.7097
  285MOL0     H38408   9.439   6.056  10.902  2.1253 -2.4191  0.2125
  285MOL0     H38409   9.462   6.176  11.109 -1.1094 -1.4345 -1.2463
  285MOL0     H38410   9.864   6.299  11.163 -0.3395 -0.1764  0.6780
  285MOL0     H38411   9.819   6.452  11.236  2.3517 -0.1915 -0.3211
  285MOL0     H38412   9.683   6.314  11.398  0.3204  1.6769 -1.7709
  285MOL0     H38413   9.861   6.328  11.421 -0.4337  0.5448  0.7951
  285MOL0     H38414   9.857   6.102  11.446  1.5590  4.9436  0.7060
  285MOL0     H38415   9.860   6.106  11.265 -0.9387  0.4739 -0.6392
  285MOL0     H38416   9.612   6.083  11.273  0.3381 -1.2797 -0.9002
  285MOL0     H38417   9.700   5.940  11.328  0.8091  1.0732 -0.6038
  285MOL0     H38418   9.644   5.971  11.546 -1.2067 -1.9150 -2.1508
  285MOL0     H38419   9.634   6.149  11.528  1.8315 -0.7132  0.2093
  285MOL0     H38420   9.442   5.941  11.410 -0.5837 -0.7608  2.2574
  285MOL0     H38421   9.410   5.994  11.568  0.0858  1.5955  0.6152
  285MOL0     H38422   9.426   6.203  11.359  2.4705 -2.6537 -0.3681
  285MOL0     H38423   9.386   6.220  11.526 -0.1442  1.0505  1.4173
  285MOL0     H38424   9.197   6.022  11.415 -0.3113 -0.0670  0.4621
  285MOL0     H38425   9.164   6.191  11.432 -0.9354  1.0030 -2.3397
  285MOL0     H38426   9.184   6.347  11.212 -0.0604 -0.7076  1.2702
  285MOL0     H38427   9.120   6.405  10.984  2.7251 -0.2336 -3.0709
  285MOL0     H38428   9.186   6.305  10.860  2.0889 -0.9839  0.8821
  285MOL0     H38429   8.919   6.236  10.979  2.4105 -2.0399  1.1652
  285MOL0     H38430   8.934   6.383  10.891  1.3337  0.6571  1.9028
  285MOL0     H38431   9.016   6.097  10.779  0.3670  0.0350 -1.2359
  285MOL0     H38432   9.014   6.252  10.684  0.2763 -0.1026  0.3208
  285MOL0     H38433   8.754   6.256  10.754 -0.6918  0.7690 -1.0734
  285MOL0     H38434   8.791   6.104  10.832 -2.2912  2.3934 -0.1616
  285MOL0     H38435   8.825   6.360  10.558  5.2298 -0.7375  2.5101
  285MOL0     H38436   8.871   6.426  10.322 -0.9099  0.2308  0.0794
  285MOL0     H38437   9.160   6.566  10.090 -0.0452 -2.4842  0.5832
  285MOL0     H38438   9.293   6.633   9.903  0.1700 -1.1057 -0.2829
  285MOL0     H38439   9.401   6.417   9.577 -0.9520 -0.7789  2.1537
  285MOL0     H38440   9.236   6.380   9.551 -0.4203 -0.1604 -0.1174
  285MOL0     H38441   9.321   6.477   9.343  0.6751  0.9332 -0.0406
  285MOL0     H38442   9.217   6.588   9.424  1.9249  1.7613 -2.3089
  285MOL0     H38443   9.395   6.723   9.480  2.9417  0.8636  0.7567
  285MOL0     H38444   9.524   6.597   9.483 -0.8389  1.6457  2.9309
  285MOL0     H38445   9.385   6.685   9.217 -1.6274 -2.9485  0.6990
  285MOL0     H38446   9.541   6.590   9.240  2.4559  1.7592 -1.5170
  285MOL0     H38447   9.629   6.810   9.356  1.5215 -3.0714 -0.4776
  285MOL0     H38448   9.480   6.883   9.291  0.7420  0.0879  0.7783
  285MOL0     H38449   9.674   6.756   9.094  0.1518 -0.1316 -0.0044
  285MOL0     H38450   9.572   6.897   9.063  0.0447  0.7028  1.0077
  285MOL0     H38451   9.807   6.936   9.071  0.0867  0.5201  0.6052
  285MOL0     H38452   9.814   6.905   9.248 -0.6512  0.6797 -0.0941
  285MOL0     H38453   9.652   7.128   9.112 -0.4560  0.4236  0.4616
  285MOL0     H38454   9.643   7.082   9.284 -3.3628 -0.2969 -2.6181
  285MOL0     H38455   9.047   6.389   9.647  1.8881  0.5688 -0.8839
  285MOL0     H38456   8.899   6.345   9.823  1.6066 -1.1633  2.2125
  285MOL0     H38457   8.849   6.030  10.182 -3.4684  0.6509 -1.1241
  285MOL0     H38458   8.808   5.946  10.419  0.2967 -0.7961 -0.7157
  285MOL0     H38459   9.798   6.398  10.954  0.3125  0.5950  0.4638
  285MOL0     H38460   9.764   6.269  10.726 -0.5792 -2.5417 -1.0326
  285MOL0     H38461   9.485   6.088  10.470 -0.1059  1.4358 -3.2251
  285MOL0     H38462   9.390   5.997  10.272 -2.3106  0.1852  2.2700
  285MOL0     H38463   9.341   5.731  10.024  0.7338 -0.0569  0.6618
  285MOL0     H38464   9.389   5.889  10.092  0.5097  0.1128  1.8995
  285MOL0     H38465   9.138   5.848  10.048  0.2479 -0.8226 -0.1704
  285MOL0     H38466   9.169   5.905  10.217 -0.3811  1.3171 -1.6187
  285MOL0     H38467   9.144   5.674  10.292  0.4578 -2.3761 -1.0934
  285MOL0     H38468   9.132   5.612  10.128 -1.8651  2.3647 -3.7226
  285MOL0     H38469   8.900   5.673  10.248  0.4774 -0.7449  0.1171
  285MOL0     H38470   8.930   5.829  10.209  0.0807  0.6688 -2.6978
  285MOL0     H38471   8.843   5.663   9.828  3.1428 -0.4475 -2.0089
  285MOL0     H38472   9.562   5.610  10.346 -1.5713 -1.5385  0.9166
  285MOL0     H38473   9.720   5.566  10.513  1.0031 -0.1716  0.2319
  285MOL0     H38474   9.819   5.710  10.549 -0.3877  0.5433 -0.4905
  285MOL0     H38475   9.700   5.637  10.659 -3.1957 -1.5175 -1.6071
  286MOL0     O38476   8.842   5.365   2.434  0.1322 -0.3818  1.4955
  286MOL0     C38477   8.960   5.342   2.417  0.7252  0.3009  1.1929
  286MOL0     O38478   9.006   5.222   2.353  0.0870  0.9733 -0.2803
  286MOL0     C38479   8.915   5.126   2.331  0.4531 -0.2583  0.4878
  286MOL0     C38480   8.916   5.064   2.203  0.0854 -0.7117  0.8968
  286MOL0     C38481   8.859   4.937   2.187 -0.8045 -0.0562  1.0767
  286MOL0     C38482   8.786   4.883   2.288 -0.5034  0.1438 -0.8404
  286MOL0     O38483   8.721   4.769   2.258 -0.4095  0.0333  0.2110
  286MOL0     C38484   8.643   4.699   2.347 -0.5728 -0.9745  0.4575
  286MOL0     C38485   8.729   4.609   2.421  0.0875 -0.6495  0.2247
  286MOL0     C38486   8.793   4.498   2.329  0.2965  0.5284 -0.3630
  286MOL0     C38487   8.940   4.482   2.372 -0.5428 -0.0206  0.1602
  286MOL0     C38488   9.012   4.395   2.266 -0.2525 -0.6427  0.3756
  286MOL0     C38489   9.154   4.350   2.298  0.0846  0.6383 -0.2611
  286MOL0     C38490   9.213   4.266   2.190 -0.3366  0.0519 -0.1019
  286MOL0     C38491   9.369   4.268   2.208  0.8355 -0.6519 -0.0505
  286MOL0     N38492   9.432   4.166   2.113  0.9033  0.8949 -1.3067
  286MOL0     C38493   9.447   4.036   2.143 -0.0570 -0.1849 -0.6458
  286MOL0     C38494   9.519   3.983   2.040 -0.8062  0.3459 -0.8304
  286MOL0     C38495   9.593   3.854   2.051 -0.0457 -0.3329  1.0018
  286MOL0     C38496   9.723   3.887   2.108 -0.8159 -0.7242 -0.5534
  286MOL0     C38497   9.720   3.944   2.260  0.7672  0.8388 -0.1294
  286MOL0     C38498   9.859   3.933   2.328 -0.0528  0.1943 -0.3890
  286MOL0     O38499   9.916   3.803   2.325  0.6689 -0.1614 -0.8925
  286MOL0     C38500  10.036   3.787   2.271  0.1689 -0.4347 -0.3314
  286MOL0     C38501  10.103   3.876   2.185  1.0042 -0.9403  0.0462
  286MOL0     C38502  10.229   3.853   2.133  0.4163  0.4754  0.1748
  286MOL0     C38503  10.290   3.725   2.158 -1.2069  0.2358  0.5158
  286MOL0     C38504  10.420   3.698   2.102  0.2721  0.9887  0.5083
  286MOL0     O38505  10.459   3.565   2.113 -0.2345  0.1266 -0.1391
  286MOL0     C38506  10.588   3.524   2.124  0.0576  0.1157 -0.4356
  286MOL0     C38507  10.612   3.393   2.102 -0.1148  0.6996  0.8328
  286MOL0     C38508  10.739   3.333   2.102  0.5663  0.7721 -0.2842
  286MOL0     C38509  10.856   3.413   2.131  0.3512 -0.4992  0.8211
  286MOL0     O38510  10.979   3.351   2.122 -0.3470 -0.3866  0.0500
  286MOL0     C38511  11.095   3.432   2.155 -0.2569 -0.0583 -0.5105
  286MOL0     C38512  11.226   3.366   2.127 -0.1718  0.5303 -0.5306
  286MOL0     C38513  11.254   3.382   1.968  0.8526 -0.5656  0.3212
  286MOL0     C38514  11.360   3.294   1.924 -0.3905 -0.2243  0.2169
  286MOL0     C38515  11.492   3.339   1.985  0.4247 -0.6753  0.1862
  286MOL0     C38516  11.557   3.468   1.926 -0.3119 -0.3568  0.0602
  286MOL0     C38517  11.694   3.500   1.988  0.5094  0.0908 -0.8194
  286MOL0     C38518  11.730   3.646   1.940  0.0675  0.3401  0.3796
  286MOL0    Cl38519  11.887   3.683   2.027 -0.0726  0.1607 -0.2021
  286MOL0     C38520  10.830   3.550   2.152  0.7573 -0.0357 -0.3972
  286MOL0     C38521  10.702   3.604   2.158  0.6355  0.0155 -0.7093
  286MOL0     O38522  10.486   3.789   2.060  1.1531 -0.4646 -0.6020
  286MOL0     C38523  10.221   3.635   2.234  0.0488  0.0993  0.9255
  286MOL0     C38524  10.095   3.660   2.286  0.4029  0.5878 -0.7795
  286MOL0     N38525   9.545   4.088   1.949 -0.6598  0.7503  0.5653
  286MOL0     N38526   9.485   4.194   1.994 -0.0659  0.0459  0.2307
  286MOL0     C38527   8.789   4.948   2.416  0.4789  0.7970 -0.3597
  286MOL0     C38528   8.842   5.074   2.434 -0.1506  0.7221 -0.5258
  286MOL0     C38529   9.067   5.444   2.450 -0.2406  0.2489 -0.4940
  286MOL0     C38530   9.206   5.420   2.490  0.0733  0.2450  0.8729
  286MOL0     C38531   9.291   5.518   2.546  0.4615 -0.8642  0.3669
  286MOL0     C38532   9.249   5.653   2.537  0.1794  1.0092  0.8003
  286MOL0     O38533   9.330   5.749   2.597  0.2515  0.1927  0.4254
  286MOL0     C38534   9.312   5.888   2.550 -0.0438  0.3399  0.1838
  286MOL0     C38535   9.448   5.951   2.599 -0.2626  0.2023  0.2800
  286MOL0     C38536   9.519   6.057   2.505 -0.0244  0.0062 -0.0907
  286MOL0     C38537   9.629   6.131   2.565 -1.0965  0.0094 -0.1084
  286MOL0     C38538   9.721   6.043   2.629 -0.1093 -1.2666  1.2158
  286MOL0     C38539   9.802   5.970   2.673 -0.2280 -0.4689  0.1575
  286MOL0     C38540   9.126   5.681   2.482  0.0488 -1.5268  0.9824
  286MOL0     C38541   9.029   5.580   2.440  0.3263 -0.4768  1.5310
  286MOL0     C38542   8.901   5.645   2.377 -0.1027 -0.2229  0.7258
  286MOL0     H38543   8.962   5.108   2.115 -0.4130 -3.6095 -0.9499
  286MOL0     H38544   8.848   4.888   2.091 -0.4380 -2.1529  2.0647
  286MOL0     H38545   8.596   4.771   2.415  0.1519  0.2657 -0.3124
  286MOL0     H38546   8.566   4.630   2.311 -0.3925 -1.1099  0.3297
  286MOL0     H38547   8.671   4.545   2.489  0.0149  0.9123  1.6855
  286MOL0     H38548   8.794   4.669   2.485 -0.1057 -1.6388  1.4050
  286MOL0     H38549   8.780   4.522   2.223  0.1895 -3.0224 -1.3023
  286MOL0     H38550   8.740   4.404   2.346 -2.0947  2.1081  1.6074
  286MOL0     H38551   8.981   4.583   2.378 -3.5500  1.2400  1.7560
  286MOL0     H38552   8.943   4.439   2.472 -1.2113 -0.3030  0.0655
  286MOL0     H38553   8.942   4.312   2.253 -1.6585  0.2487  1.7369
  286MOL0     H38554   9.013   4.449   2.171  1.4006 -1.7654 -0.2887
  286MOL0     H38555   9.223   4.434   2.314  1.0982 -0.1915 -0.1563
  286MOL0     H38556   9.157   4.281   2.383  1.4332  0.0022 -0.7847
  286MOL0     H38557   9.194   4.317   2.095 -1.1875 -0.2449 -0.1015
  286MOL0     H38558   9.182   4.161   2.193  2.6459 -0.8979  0.6586
  286MOL0     H38559   9.412   4.359   2.165 -2.8425  0.5069 -1.6718
  286MOL0     H38560   9.403   4.261   2.312  0.4397  2.0032  0.3272
  286MOL0     H38561   9.416   3.986   2.235  1.2506 -0.1429 -0.1652
  286MOL0     H38562   9.539   3.775   2.105 -0.7266 -0.5015  0.0993
  286MOL0     H38563   9.605   3.824   1.947  0.1635  4.7411 -0.6949
  286MOL0     H38564   9.784   3.796   2.114  0.3995  0.0658 -0.4689
  286MOL0     H38565   9.771   3.960   2.042  0.4075  1.5815  2.5946
  286MOL0     H38566   9.664   3.872   2.320  0.7243 -0.8085 -2.0460
  286MOL0     H38567   9.686   4.048   2.264  0.3828  0.7406 -0.7582
  286MOL0     H38568   9.837   3.960   2.432  0.7190  1.6389 -0.5786
  286MOL0     H38569   9.928   4.009   2.292  1.7767 -1.2316 -0.0587
  286MOL0     H38570  10.053   3.965   2.146  1.9470 -0.5169 -0.2245
  286MOL0     H38571  10.268   3.931   2.068  0.6087 -1.6282 -2.4399
  286MOL0     H38572  10.519   3.344   2.076  0.8397 -1.3381  1.0641
  286MOL0     H38573  10.743   3.225   2.093 -0.0674  0.8924 -2.6393
  286MOL0     H38574  11.093   3.521   2.092 -1.4330  0.4489  0.2256
  286MOL0     H38575  11.079   3.460   2.259 -0.0419 -0.9459 -0.2275
  286MOL0     H38576  11.299   3.423   2.185 -1.8303  1.0674  1.0948
  286MOL0     H38577  11.227   3.262   2.161  3.0496  1.1397  1.7491
  286MOL0     H38578  11.167   3.350   1.909  0.4256  1.8312 -0.4515
  286MOL0     H38579  11.273   3.487   1.946  1.7426 -1.1821 -2.1604
  286MOL0     H38580  11.379   3.297   1.816  3.7282  1.2530  0.7970
  286MOL0     H38581  11.333   3.190   1.947 -1.5225 -0.1431 -0.6788
  286MOL0     H38582  11.567   3.259   1.978  1.4100  0.2277  0.0779
  286MOL0     H38583  11.480   3.355   2.092  2.5339  0.3488  0.3292
  286MOL0     H38584  11.578   3.456   1.819  3.3694  3.4532  0.0814
  286MOL0     H38585  11.497   3.559   1.939 -0.2900 -0.4224  0.6667
  286MOL0     H38586  11.765   3.428   1.945  0.6412 -3.0189  3.8630
  286MOL0     H38587  11.697   3.506   2.097  0.6870 -1.1937 -0.7291
  286MOL0     H38588  11.757   3.646   1.833  0.0391 -1.9430  0.3142
  286MOL0     H38589  11.653   3.720   1.962 -0.3259  0.6468 -1.8065
  286MOL0     H38590  10.910   3.623   2.167  1.1395 -0.8479  1.9824
  286MOL0     H38591  10.698   3.712   2.165 -0.6452  0.0159 -1.1713
  286MOL0     H38592  10.273   3.540   2.240  1.5909  0.9011  0.9208
  286MOL0     H38593  10.038   3.586   2.341  3.8361 -1.3996  0.4355
  286MOL0     H38594   8.738   4.904   2.501 -2.0522 -1.5795 -2.9124
  286MOL0     H38595   8.847   5.125   2.530  0.0068  0.1796 -0.2380
  286MOL0     H38596   9.256   5.324   2.480  0.3912  0.4882  0.0548
  286MOL0     H38597   9.394   5.489   2.566  1.1970  0.4647 -1.2289
  286MOL0     H38598   9.225   5.938   2.592 -0.3769  1.1027 -1.3451
  286MOL0     H38599   9.297   5.883   2.442  3.1039 -1.1234 -0.3036
  286MOL0     H38600   9.525   5.877   2.622 -0.9571 -1.0248 -1.1305
  286MOL0     H38601   9.414   5.997   2.692 -2.1356 -0.2792 -0.1217
  286MOL0     H38602   9.452   6.136   2.471  1.6415  0.8352 -1.5967
  286MOL0     H38603   9.559   6.010   2.414  2.7410  1.6982  0.1403
  286MOL0     H38604   9.669   6.184   2.478 -1.3848  0.7076  0.1828
  286MOL0     H38605   9.600   6.206   2.638  0.6472  3.3062 -2.5430
  286MOL0     H38606   9.882   5.914   2.718  0.7995  1.3646  0.7048
  286MOL0     H38607   9.093   5.784   2.478  2.3218 -0.7545  0.8096
  286MOL0     H38608   8.914   5.738   2.321 -0.7631 -1.1840 -1.0751
  286MOL0     H38609   8.855   5.576   2.306  0.8951 -1.8387  1.5817
  286MOL0     H38610   8.832   5.657   2.461 -0.5729  2.9685  0.0311
  287MOL0     O38611   7.097   3.540   6.213  0.6303 -0.0766 -0.0664
  287MOL0     C38612   7.205   3.566   6.260 -0.0141  0.1711 -1.2788
  287MOL0     O38613   7.302   3.640   6.201  0.2968 -0.4212 -1.2249
  287MOL0     C38614   7.272   3.717   6.095 -0.5899  0.1223  0.4349
  287MOL0     C38615   7.257   3.642   5.976 -0.2902  0.0079 -0.3663
  287MOL0     C38616   7.213   3.713   5.864  0.1521 -0.8611 -0.1692
  287MOL0     C38617   7.172   3.847   5.872 -0.3204  0.0810 -0.6713
  287MOL0     O38618   7.121   3.909   5.759  0.1139 -0.1281 -0.7718
  287MOL0     C38619   7.056   4.039   5.763  0.1235 -0.2105  0.2977
  287MOL0     C38620   7.065   4.082   5.611 -0.7217 -0.4546  0.1848
  287MOL0     C38621   6.978   4.202   5.573  0.9192  1.4366 -0.0174
  287MOL0     C38622   6.993   4.257   5.430 -0.3221  0.1539  0.2388
  287MOL0     C38623   6.883   4.361   5.394  0.3130 -0.9031 -0.0693
  287MOL0     C38624   6.920   4.432   5.263  0.8791 -0.7100 -0.4928
  287MOL0     C38625   6.799   4.513   5.220  0.3396 -0.5855  0.3159
  287MOL0     C38626   6.829   4.659   5.249 -0.1236 -0.7231  0.5228
  287MOL0     N38627   6.819   4.687   5.386 -0.4030 -0.4194 -0.3974
  287MOL0     C38628   6.719   4.657   5.468  0.9689 -0.0271  1.2641
  287MOL0     C38629   6.745   4.718   5.589 -0.3203  0.2994 -0.3559
  287MOL0     C38630   6.651   4.704   5.705  0.5577 -0.6382  0.0081
  287MOL0     C38631   6.706   4.606   5.809 -0.5609  0.1424 -0.8582
  287MOL0     C38632   6.634   4.610   5.944 -0.3259 -0.2189 -0.5118
  287MOL0     C38633   6.570   4.737   5.990  0.2150  1.1289 -0.3251
  287MOL0     O38634   6.659   4.848   5.989  0.5226  0.1625 -0.3000
  287MOL0     C38635   6.602   4.970   6.042  0.4603 -0.0842  0.0711
  287MOL0     C38636   6.491   4.986   6.125 -0.7968 -0.2042 -0.2964
  287MOL0     C38637   6.456   5.112   6.175 -0.1101  0.3521 -0.0602
  287MOL0     C38638   6.508   5.230   6.129 -0.2372 -0.1203  0.3153
  287MOL0     C38639   6.482   5.365   6.190  0.4220 -0.1437  0.4955
  287MOL0     O38640   6.590   5.448   6.191 -0.3017 -0.3815 -0.1819
  287MOL0     C38641   6.582   5.570   6.252 -0.4959  0.5211  0.4866
  287MOL0     C38642   6.577   5.692   6.179 -0.0849 -0.3056 -0.4364
  287MOL0     C38643   6.582   5.814   6.252  0.3682 -0.8041 -0.1384
  287MOL0     C38644   6.583   5.814   6.397  0.4407 -0.1884  0.9259
  287MOL0     O38645   6.559   5.926   6.476 -0.6250 -0.0550  0.0867
  287MOL0     C38646   6.501   6.052   6.433  0.2017  0.0526  0.0722
  287MOL0     C38647   6.600   6.157   6.396  0.1369 -1.3578 -0.3647
  287MOL0     C38648   6.710   6.177   6.508  0.4135 -0.3316 -0.1214
  287MOL0     C38649   6.646   6.223   6.638  0.3891  0.1828 -0.7208
  287MOL0     C38650   6.730   6.308   6.732 -0.4278 -0.4863  0.6413
  287MOL0     C38651   6.860   6.243   6.768  0.7365  0.0862  0.9125
  287MOL0     C38652   6.933   6.327   6.872  0.3682 -0.1126  1.0324
  287MOL0     C38653   7.078   6.291   6.902  1.2610  0.4382 -0.6027
  287MOL0    Cl38654   7.174   6.313   6.762 -0.1191  0.2615  0.4968
  287MOL0     C38655   6.581   5.688   6.467 -0.4731 -0.4292  0.2361
  287MOL0     C38656   6.571   5.573   6.389  1.0668  0.0038 -0.1674
  287MOL0     O38657   6.369   5.391   6.226  0.1754 -0.0419 -0.5692
  287MOL0     C38658   6.617   5.216   6.036  0.1164  0.3448  0.7763
  287MOL0     C38659   6.666   5.091   5.994 -0.0273 -0.5580 -0.4998
  287MOL0     N38660   6.854   4.792   5.575 -0.6380 -0.4576  0.0077
  287MOL0     N38661   6.903   4.771   5.464  1.5739  0.2389  0.3090
  287MOL0     C38662   7.198   3.915   5.990  0.6363  0.1722 -0.0158
  287MOL0     C38663   7.240   3.850   6.104  0.8734  1.0968 -0.5230
  287MOL0     C38664   7.219   3.528   6.403  0.7682 -0.0286  0.0173
  287MOL0     C38665   7.228   3.387   6.425 -0.8084  0.0283 -0.0996
  287MOL0     C38666   7.227   3.342   6.561 -1.0972  1.3406 -0.1546
  287MOL0     C38667   7.215   3.425   6.669 -0.5496 -0.2335  0.3853
  287MOL0     O38668   7.209   3.394   6.802  0.7911 -0.0646 -0.2959
  287MOL0     C38669   7.107   3.294   6.822  0.0819  0.4087  0.0529
  287MOL0     C38670   7.076   3.243   6.968  0.2126 -0.7077  0.1425
  287MOL0     C38671   7.064   3.361   7.060 -0.4964  0.4707  0.2512
  287MOL0     C38672   6.963   3.329   7.176 -0.2233  0.0360 -0.3196
  287MOL0     C38673   6.829   3.333   7.130 -0.4750 -0.6649  0.4237
  287MOL0     C38674   6.714   3.354   7.094  0.3949 -0.5318 -0.4056
  287MOL0     C38675   7.220   3.562   6.636 -0.6093  0.0307 -0.0472
  287MOL0     C38676   7.221   3.621   6.503  0.0889  0.9294  0.6896
  287MOL0     C38677   7.207   3.771   6.482  0.7673  0.2396  0.6541
  287MOL0     H38678   7.281   3.536   5.975  1.1215  0.2869  0.5778
  287MOL0     H38679   7.206   3.658   5.771 -0.3125 -0.7091 -0.2253
  287MOL0     H38680   6.950   4.034   5.789  0.5033  0.7202  2.2119
  287MOL0     H38681   7.116   4.104   5.827  1.9170 -1.3244 -0.1542
  287MOL0     H38682   7.029   4.002   5.545 -1.8323 -0.6298  0.9642
  287MOL0     H38683   7.169   4.109   5.592 -0.3857  0.4035  2.7526
  287MOL0     H38684   6.993   4.284   5.644 -1.5538  2.4415 -0.5549
  287MOL0     H38685   6.874   4.177   5.596  1.3225 -0.4582 -0.0565
  287MOL0     H38686   7.091   4.303   5.418 -1.7606  3.8477  1.2268
  287MOL0     H38687   6.993   4.179   5.353 -1.6308  2.0542 -1.8112
  287MOL0     H38688   6.792   4.300   5.387  0.4077 -1.1488  0.7708
  287MOL0     H38689   6.852   4.425   5.477  1.6689  0.0299 -0.2550
  287MOL0     H38690   7.011   4.491   5.277 -0.6364  1.3676  1.3865
  287MOL0     H38691   6.939   4.365   5.179  1.0106 -0.4638 -0.6592
  287MOL0     H38692   6.708   4.470   5.263  0.4258 -0.2971  0.8048
  287MOL0     H38693   6.788   4.525   5.112  0.2554  2.8781  0.5823
  287MOL0     H38694   6.923   4.692   5.203 -1.1518  0.3999 -0.8667
  287MOL0     H38695   6.742   4.710   5.208  0.8548 -0.4806 -1.3364
  287MOL0     H38696   6.631   4.603   5.435  1.3469  1.5152 -2.8806
  287MOL0     H38697   6.632   4.803   5.749  0.1194 -0.4995 -0.4824
  287MOL0     H38698   6.550   4.675   5.676 -0.0203  1.7384 -0.6119
  287MOL0     H38699   6.705   4.502   5.775  4.3145  0.2589 -2.0507
  287MOL0     H38700   6.810   4.638   5.810 -0.5983  0.2597 -0.6130
  287MOL0     H38701   6.687   4.568   6.030 -2.3740  1.4775  1.7102
  287MOL0     H38702   6.550   4.541   5.936  0.3233 -1.1518  0.4384
  287MOL0     H38703   6.539   4.716   6.093  2.2216 -1.6805 -0.2086
  287MOL0     H38704   6.482   4.770   5.934 -1.3154  0.8643  1.8104
  287MOL0     H38705   6.426   4.906   6.159 -0.5141 -1.2921 -2.1664
  287MOL0     H38706   6.378   5.135   6.248 -0.0629  0.1938  0.0414
  287MOL0     H38707   6.569   5.678   6.072  3.0734  1.9647 -1.1190
  287MOL0     H38708   6.577   5.904   6.192 -1.1888 -0.9392 -0.2359
  287MOL0     H38709   6.436   6.030   6.347  0.2658  0.4524 -0.0816
  287MOL0     H38710   6.425   6.076   6.508 -1.1171 -3.2693 -0.0406
  287MOL0     H38711   6.659   6.123   6.310 -0.9715  1.8838 -2.5956
  287MOL0     H38712   6.558   6.256   6.378 -1.8875 -2.0302  0.4260
  287MOL0     H38713   6.758   6.083   6.538  3.4330  1.9697  3.2944
  287MOL0     H38714   6.782   6.246   6.462 -1.1461  1.1326 -0.4459
  287MOL0     H38715   6.604   6.133   6.684 -1.6937  1.4117 -0.0876
  287MOL0     H38716   6.561   6.290   6.621 -1.4367 -2.3126 -2.2424
  287MOL0     H38717   6.679   6.351   6.818  0.9607  2.1707  0.2600
  287MOL0     H38718   6.756   6.400   6.678 -0.0660  0.1071  1.7887
  287MOL0     H38719   6.837   6.148   6.817 -1.6457  0.3536  0.4174
  287MOL0     H38720   6.922   6.230   6.679  0.7386 -1.2490  1.0932
  287MOL0     H38721   6.881   6.313   6.967 -0.4443  0.7589  0.7361
  287MOL0     H38722   6.929   6.435   6.853 -1.5022 -0.3980 -0.5062
  287MOL0     H38723   7.103   6.370   6.973 -0.7557 -0.4967  1.2866
  287MOL0     H38724   7.090   6.198   6.960  2.2814  3.3659  4.5736
  287MOL0     H38725   6.576   5.665   6.573  3.7033  1.0576  0.9712
  287MOL0     H38726   6.578   5.473   6.431  2.5039  1.3022  3.0216
  287MOL0     H38727   6.666   5.312   6.020 -1.1428  1.9295  5.1465
  287MOL0     H38728   6.758   5.092   5.936 -0.2235  0.7647 -0.7988
  287MOL0     H38729   7.161   4.013   6.016 -3.2544 -0.7261 -1.3424
  287MOL0     H38730   7.256   3.907   6.195  0.7224 -0.9253  0.8357
  287MOL0     H38731   7.238   3.321   6.340  4.7221 -2.2020  1.8189
  287MOL0     H38732   7.226   3.235   6.579 -2.9339  0.6525 -3.4747
  287MOL0     H38733   7.135   3.213   6.754  2.5327  3.2444 -2.7041
  287MOL0     H38734   7.010   3.324   6.781  1.0623 -0.1913 -2.9609
  287MOL0     H38735   7.149   3.168   7.000 -1.8520 -4.3337 -2.8115
  287MOL0     H38736   6.984   3.184   6.968  0.3743 -0.9618  0.0289
  287MOL0     H38737   7.018   3.448   7.012 -1.9411 -0.4776 -0.1670
  287MOL0     H38738   7.163   3.385   7.098 -0.5899  1.0069  0.1711
  287MOL0     H38739   6.985   3.226   7.205 -0.1422  0.4150  1.0546
  287MOL0     H38740   6.979   3.403   7.255  1.9771 -1.7089  0.9854
  287MOL0     H38741   6.610   3.362   7.070  0.4704  2.3341 -0.1663
  287MOL0     H38742   7.231   3.639   6.711 -2.2320 -0.9113  1.2294
  287MOL0     H38743   7.106   3.799   6.512  0.2740 -0.9237  0.1414
  287MOL0     H38744   7.275   3.821   6.552  2.7564  0.7824 -1.5259
  287MOL0     H38745   7.228   3.795   6.377 -0.9201  1.8883  0.6576
  288MOL0     O38746   4.091  10.408   4.236  0.3054  0.2409  0.9475
  288MOL0     C38747   4.073  10.296   4.279  0.0908  0.2701  0.0325
  288MOL0     O38748   4.167  10.195   4.294  0.1654  0.0533 -0.0587
  288MOL0     C38749   4.299  10.213   4.249  0.2240  0.3513  1.5816
  288MOL0     C38750   4.359  10.100   4.211 -0.7199  0.5904  0.8602
  288MOL0     C38751   4.488  10.102   4.156  0.8478  0.3026  0.4432
  288MOL0     C38752   4.569  10.217   4.148 -0.6672 -1.4076 -0.0644
  288MOL0     O38753   4.702  10.216   4.095  0.7262  0.5027  0.5034
  288MOL0     C38754   4.733  10.323   4.016  0.0591 -0.7332  0.4806
  288MOL0     C38755   4.874  10.287   3.976  0.1335 -0.8314 -0.3284
  288MOL0     C38756   4.881  10.237   3.831 -0.1216 -0.2872 -0.8668
  288MOL0     C38757   5.013  10.209   3.776  0.0919  0.4990  0.2123
  288MOL0     C38758   5.003  10.173   3.626 -0.1525  1.1898  0.8256
  288MOL0     C38759   5.134  10.100   3.584  0.6448 -0.8029  0.1537
  288MOL0     C38760   5.135  10.099   3.426  0.1076 -0.5252  0.4311
  288MOL0     C38761   5.279  10.070   3.377  1.2786  0.3924 -0.5066
  288MOL0     N38762   5.379  10.177   3.400 -0.0684 -0.5972  0.5303
  288MOL0     C38763   5.360  10.316   3.372 -0.5862 -0.1936  0.1785
  288MOL0     C38764   5.487  10.364   3.360  0.0783  0.9253 -0.0554
  288MOL0     C38765   5.527  10.506   3.328 -1.4478 -1.1175 -0.4125
  288MOL0     C38766   5.556  10.542   3.177  0.9281 -0.2830 -0.1606
  288MOL0     C38767   5.558  10.688   3.172  0.2988  1.0471  0.0431
  288MOL0     C38768   5.624  10.734   3.045  0.1081 -0.1935 -0.4907
  288MOL0     O38769   5.622  10.874   3.043 -0.0798 -0.8667 -0.0364
  288MOL0     C38770   5.674  10.936   2.930  0.4197  0.3506  0.6266
  288MOL0     C38771   5.631  11.065   2.919 -0.1987  0.0552 -0.7118
  288MOL0     C38772   5.640  11.129   2.794  0.4563 -0.3573  0.4848
  288MOL0     C38773   5.701  11.080   2.674 -0.1524  0.2286 -0.3991
  288MOL0     C38774   5.712  11.163   2.553  0.3875 -0.0361 -1.1695
  288MOL0     O38775   5.601  11.246   2.535 -0.2320  0.8866 -0.1240
  288MOL0     C38776   5.565  11.322   2.429 -0.3353  0.1494 -0.1122
  288MOL0     C38777   5.657  11.366   2.325 -0.0702 -0.0685  0.1201
  288MOL0     C38778   5.607  11.443   2.221 -0.5856 -0.2926 -0.1996
  288MOL0     C38779   5.474  11.493   2.208  0.3608  0.0675 -0.3974
  288MOL0     O38780   5.421  11.559   2.106  0.3996 -0.1931  0.1720
  288MOL0     C38781   5.512  11.621   2.010 -0.1290 -0.0843 -0.6614
  288MOL0     C38782   5.423  11.696   1.905  0.4784  0.5415 -0.1666
  288MOL0     C38783   5.498  11.770   1.793  0.1642  0.1009  0.3510
  288MOL0     C38784   5.386  11.838   1.713  0.6088 -0.2680 -0.3549
  288MOL0     C38785   5.466  11.912   1.597  0.5653  0.5732  0.0293
  288MOL0     C38786   5.403  12.033   1.537 -0.3448  0.5842 -0.1038
  288MOL0     C38787   5.468  12.105   1.411 -0.5311 -0.9402 -0.0689
  288MOL0     C38788   5.605  12.166   1.449  0.0003  0.2055 -0.3906
  288MOL0    Cl38789   5.566  12.309   1.546  0.5382  0.2658  0.3230
  288MOL0     C38790   5.390  11.450   2.309 -1.0052 -0.8595 -1.2406
  288MOL0     C38791   5.431  11.363   2.418 -0.6889 -0.2947  0.4794
  288MOL0     O38792   5.817  11.170   2.493  0.1537  0.8373 -0.0059
  288MOL0     C38793   5.775  10.954   2.704  0.4111 -0.2879 -0.3181
  288MOL0     C38794   5.751  10.884   2.831 -0.6007  0.8977  0.5490
  288MOL0     N38795   5.579  10.264   3.374 -0.3925  0.7119  0.4738
  288MOL0     N38796   5.516  10.162   3.395  0.2807  0.2286 -0.5819
  288MOL0     C38797   4.504  10.342   4.189  0.1457  0.6872  0.2546
  288MOL0     C38798   4.372  10.341   4.240 -0.3629  0.5745  0.4590
  288MOL0     C38799   3.940  10.269   4.334  0.3341 -0.0179 -0.9735
  288MOL0     C38800   3.880  10.366   4.417 -0.5378  0.5869  1.0241
  288MOL0     C38801   3.766  10.352   4.480  0.7273  1.0092 -0.3320
  288MOL0     C38802   3.702  10.232   4.472 -0.7348 -0.5346  0.7226
  288MOL0     O38803   3.589  10.199   4.539  0.1088  0.0211 -0.5862
  288MOL0     C38804   3.531  10.307   4.624  0.0181  0.5903 -0.8677
  288MOL0     C38805   3.392  10.267   4.684 -0.5271  0.9940  0.9652
  288MOL0     C38806   3.304  10.201   4.572 -0.2954 -0.1031 -0.6563
  288MOL0     C38807   3.157  10.175   4.589 -0.1546  0.6480  0.1098
  288MOL0     C38808   3.077  10.293   4.565 -0.3532  0.1515  0.9598
  288MOL0     C38809   3.016  10.398   4.554  0.2133  0.8315  1.2022
  288MOL0     C38810   3.748  10.129   4.386  0.2878 -0.3812  0.4337
  288MOL0     C38811   3.876  10.146   4.319  0.8734 -0.2993 -0.7478
  288MOL0     C38812   3.919  10.026   4.242 -0.1773  0.1994 -0.6266
  288MOL0     H38813   4.294  10.017   4.185 -3.2545  1.9114  2.5595
  288MOL0     H38814   4.526  10.010   4.113  1.3930  1.6121 -2.1038
  288MOL0     H38815   4.660  10.353   3.940  1.5816  2.8853  0.2411
  288MOL0     H38816   4.750  10.411   4.078  1.2904 -0.7839  0.2409
  288MOL0     H38817   4.917  10.209   4.039 -1.5473 -1.2357  0.3639
  288MOL0     H38818   4.949  10.364   4.000 -0.6518  0.1533 -0.9479
  288MOL0     H38819   4.839  10.318   3.771 -0.5601 -1.2061 -1.8327
  288MOL0     H38820   4.814  10.151   3.823  0.5286 -1.1049  1.6587
  288MOL0     H38821   5.091  10.283   3.796 -0.8421  1.5290  0.1326
  288MOL0     H38822   5.040  10.115   3.824  0.3244 -0.0444 -0.9706
  288MOL0     H38823   4.923  10.098   3.617  1.3702 -0.2043 -2.3902
  288MOL0     H38824   4.985  10.265   3.568 -0.2210  0.4947 -0.2826
  288MOL0     H38825   5.217  10.163   3.617 -2.5706  2.0629  3.6880
  288MOL0     H38826   5.147  10.000   3.626 -0.4185 -1.5624 -1.2284
  288MOL0     H38827   5.104  10.195   3.384  1.0474  0.0913  1.1146
  288MOL0     H38828   5.075  10.017   3.384 -0.7471  0.0412  0.5219
  288MOL0     H38829   5.315   9.974   3.417 -0.0413  0.7821  1.8300
  288MOL0     H38830   5.279  10.056   3.269  0.2203  1.1661 -0.6125
  288MOL0     H38831   5.265  10.367   3.360 -0.4444  0.3365  1.1519
  288MOL0     H38832   5.447  10.560   3.380  0.2187  1.3489 -0.2487
  288MOL0     H38833   5.626  10.522   3.372 -0.7765 -1.7910 -1.6211
  288MOL0     H38834   5.646  10.485   3.154 -0.1377 -1.3833 -1.8632
  288MOL0     H38835   5.471  10.512   3.114  1.0859 -2.4279  0.5602
  288MOL0     H38836   5.603  10.742   3.256  2.1011  2.2171 -1.5568
  288MOL0     H38837   5.462  10.740   3.173 -0.6255 -0.5888 -0.8657
  288MOL0     H38838   5.559  10.701   2.963 -1.4495  1.2129  0.1125
  288MOL0     H38839   5.727  10.699   3.037  1.1584  2.2994  0.9503
  288MOL0     H38840   5.581  11.108   3.004  1.9096 -2.2781  1.8992
  288MOL0     H38841   5.588  11.225   2.795 -1.0413 -1.0988  2.6697
  288MOL0     H38842   5.757  11.325   2.322 -0.0634 -0.0212 -0.9591
  288MOL0     H38843   5.683  11.460   2.146  0.0113  1.7762  0.7800
  288MOL0     H38844   5.579  11.694   2.055 -0.4516 -0.2676  0.1380
  288MOL0     H38845   5.572  11.546   1.959 -0.1479  0.5225 -1.6077
  288MOL0     H38846   5.357  11.628   1.849 -0.3928  1.7366 -0.6373
  288MOL0     H38847   5.354  11.762   1.957 -0.1647 -0.7365  0.6542
  288MOL0     H38848   5.579  11.833   1.830 -0.4613 -0.1389  2.2269
  288MOL0     H38849   5.556  11.700   1.733 -0.5879  0.3134 -0.6428
  288MOL0     H38850   5.334  11.917   1.767  1.2643  1.0046 -1.5398
  288MOL0     H38851   5.307  11.775   1.670  0.6410 -0.2233 -0.4793
  288MOL0     H38852   5.507  11.850   1.517  2.7058  4.2319 -1.9541
  288MOL0     H38853   5.558  11.949   1.641  0.7619  0.1209  0.0092
  288MOL0     H38854   5.307  11.998   1.496  1.2018 -0.9559 -2.6821
  288MOL0     H38855   5.374  12.104   1.615 -0.9613 -0.0650  0.2761
  288MOL0     H38856   5.403  12.175   1.357  2.7611  1.9635 -0.6272
  288MOL0     H38857   5.490  12.025   1.340  0.8866  0.2375 -0.9924
  288MOL0     H38858   5.661  12.091   1.505 -0.9285  0.5859  1.1046
  288MOL0     H38859   5.663  12.203   1.364  1.9970 -0.8115  0.4735
  288MOL0     H38860   5.282  11.455   2.303 -0.9282  1.9676 -1.5453
  288MOL0     H38861   5.352  11.340   2.488 -1.5159  0.7958 -0.0649
  288MOL0     H38862   5.826  10.904   2.622 -2.2339 -2.3025 -0.8943
  288MOL0     H38863   5.795  10.785   2.824 -3.2194 -0.2368 -3.6110
  288MOL0     H38864   4.550  10.439   4.174  1.8466 -0.1542 -0.2521
  288MOL0     H38865   4.325  10.438   4.251  2.0300  1.9020 -0.4716
  288MOL0     H38866   3.917  10.468   4.416  1.6053 -0.0700 -2.0052
  288MOL0     H38867   3.729  10.434   4.541  1.1869 -0.1118  1.5241
  288MOL0     H38868   3.512  10.395   4.562 -3.3512  1.2796  0.9384
  288MOL0     H38869   3.613  10.322   4.693  0.8645 -2.1598 -1.1601
  288MOL0     H38870   3.344  10.357   4.724 -0.7830  2.4606 -2.3131
  288MOL0     H38871   3.411  10.201   4.770  1.7976 -3.0967 -2.3011
  288MOL0     H38872   3.353  10.104   4.567 -1.3130 -0.6715 -0.0096
  288MOL0     H38873   3.324  10.255   4.479 -0.5276  0.1637 -0.5522
  288MOL0     H38874   3.128  10.106   4.510 -1.3333  2.4257 -1.0866
  288MOL0     H38875   3.130  10.121   4.680  2.0343 -2.6898 -1.0556
  288MOL0     H38876   2.966  10.491   4.573 -0.9173  0.1758  1.5516
  288MOL0     H38877   3.697  10.035   4.368  1.2710 -0.8838  0.1973
  288MOL0     H38878   3.854   9.943   4.268  1.0252  0.3884  3.6232
  288MOL0     H38879   3.902  10.058   4.138  2.8157 -0.3887 -1.3848
  288MOL0     H38880   4.025   9.999   4.247  0.1187  1.4259  0.1114
  289MOL0     O38881   9.588   9.596   2.491  0.9855  0.7829  0.2034
  289MOL0     C38882   9.699   9.581   2.531 -1.3959  0.7762  0.2564
  289MOL0     O38883   9.791   9.667   2.500 -0.4314  0.0875 -0.5258
  289MOL0     C38884   9.792   9.732   2.378 -0.2365  1.1436 -0.6619
  289MOL0     C38885   9.781   9.658   2.256 -0.0283  0.4248 -0.3267
  289MOL0     C38886   9.780   9.730   2.137  0.4845  0.0351  0.0002
  289MOL0     C38887   9.808   9.865   2.136  0.2939  0.3930 -0.2710
  289MOL0     O38888   9.823   9.956   2.035 -0.1245 -0.8102 -0.0169
  289MOL0     C38889   9.841   9.909   1.909  0.8673  0.8115  0.6062
  289MOL0     C38890   9.850  10.012   1.796  0.2464 -0.8598  0.0358
  289MOL0     C38891   9.725  10.102   1.796 -0.2120 -0.3529 -0.0644
  289MOL0     C38892   9.758  10.239   1.730 -0.0455 -0.0843  0.4629
  289MOL0     C38893   9.841  10.229   1.603 -0.2596 -0.0179  0.7514
  289MOL0     C38894   9.854  10.353   1.520 -0.8020  0.0368 -0.7984
  289MOL0     C38895   9.871  10.337   1.370  0.4191 -0.7874  0.5751
  289MOL0     C38896   9.878  10.466   1.294 -0.4869 -0.1712 -0.5497
  289MOL0     N38897   9.852  10.457   1.153  0.0750 -0.1806 -0.5110
  289MOL0     C38898   9.737  10.508   1.096  0.1746 -0.1616 -0.2799
  289MOL0     C38899   9.762  10.522   0.963  0.3782 -1.0702 -0.2569
  289MOL0     C38900   9.667  10.599   0.881 -0.3741 -0.0064 -0.4561
  289MOL0     C38901   9.538  10.524   0.872 -0.2031  0.0748  0.1361
  289MOL0     C38902   9.541  10.394   0.790  0.5762 -0.0043 -0.0247
  289MOL0     C38903   9.626  10.282   0.839  0.6662 -0.1475 -0.5934
  289MOL0     O38904   9.628  10.283   0.984 -0.0710 -0.9670 -0.5630
  289MOL0     C38905   9.662  10.174   1.046  0.2252 -0.4740  0.4532
  289MOL0     C38906   9.761  10.093   0.994 -0.1610  0.5021 -0.9995
  289MOL0     C38907   9.811   9.984   1.064 -0.0835 -0.9531  0.0738
  289MOL0     C38908   9.766   9.959   1.196 -0.1103 -0.4641  1.4814
  289MOL0     C38909   9.810   9.846   1.275 -0.1132  0.1174  0.4285
  289MOL0     O38910   9.743   9.827   1.396  0.0124  0.2599 -0.3119
  289MOL0     C38911   9.798   9.759   1.506  1.2647  0.5027  0.8661
  289MOL0     C38912   9.707   9.721   1.596 -0.3130  0.2546  0.0555
  289MOL0     C38913   9.735   9.650   1.703 -0.9314  0.3036 -0.5074
  289MOL0     C38914   9.860   9.598   1.727  1.0557  0.1086  0.7951
  289MOL0     O38915   9.881   9.515   1.837 -0.0921  0.9865 -0.6442
  289MOL0     C38916  10.014   9.454   1.861  1.0519 -0.3191  0.1008
  289MOL0     C38917  10.002   9.327   1.946 -1.1595 -0.9858 -0.4334
  289MOL0     C38918  10.098   9.354   2.074  1.1307  0.2380  0.0525
  289MOL0     C38919  10.124   9.223   2.152  0.3653  0.5076  0.2835
  289MOL0     C38920  10.191   9.251   2.290 -1.0726  0.7032  0.7982
  289MOL0     C38921  10.245   9.119   2.350  0.2771  0.2981  0.0231
  289MOL0     C38922  10.266   9.148   2.499 -0.5538  1.0115  0.3055
  289MOL0     C38923  10.336   9.042   2.575 -0.2341  0.4587  0.5177
  289MOL0    Cl38924  10.324   9.097   2.746 -0.0758  0.0326  0.2472
  289MOL0     C38925   9.961   9.638   1.631  1.3276 -0.2554 -1.2846
  289MOL0     C38926   9.928   9.717   1.520 -0.6918 -0.6361  0.1419
  289MOL0     O38927   9.916   9.798   1.240  0.0700 -0.6780  0.6463
  289MOL0     C38928   9.661  10.036   1.245 -0.1044  0.9463  0.0990
  289MOL0     C38929   9.615  10.149   1.173  0.0155 -0.4673  0.0689
  289MOL0     N38930   9.892  10.480   0.937 -1.0862 -0.3127  0.2867
  289MOL0     N38931   9.947  10.462   1.054 -0.1882 -0.3976  0.4295
  289MOL0     C38932   9.815   9.931   2.252 -0.4203 -0.2292  0.2252
  289MOL0     C38933   9.802   9.871   2.372 -1.1169 -0.1122 -0.9589
  289MOL0     C38934   9.734   9.476   2.633 -0.3085  0.2334 -0.4065
  289MOL0     C38935   9.859   9.495   2.696 -0.0333  0.4847  0.1437
  289MOL0     C38936   9.902   9.402   2.792  0.5343 -0.1424  0.7948
  289MOL0     C38937   9.822   9.284   2.811 -0.1344 -0.3315  0.4852
  289MOL0     O38938   9.848   9.186   2.904  0.1605  0.3191 -0.1080
  289MOL0     C38939   9.939   9.213   3.005 -0.1690  0.7890  0.2377
  289MOL0     C38940   9.896   9.312   3.117 -0.7972 -0.6549 -1.3474
  289MOL0     C38941   9.771   9.252   3.191  0.4701 -0.5588  0.7865
  289MOL0     C38942   9.811   9.142   3.289 -1.0258 -0.1370 -0.6739
  289MOL0     C38943   9.711   9.108   3.395  0.0445  0.0408  0.4294
  289MOL0     C38944   9.638   9.119   3.492  0.5816  0.4209 -0.1967
  289MOL0     C38945   9.696   9.272   2.750 -0.5369  0.0901 -0.6394
  289MOL0     C38946   9.642   9.365   2.664 -1.5290  0.0378  0.6660
  289MOL0     C38947   9.510   9.341   2.600 -0.4633  0.5972  0.1559
  289MOL0     H38948   9.781   9.550   2.272 -1.2134  0.4149 -0.3467
  289MOL0     H38949   9.776   9.674   2.045  2.8903  2.3397 -1.6501
  289MOL0     H38950   9.936   9.855   1.904  0.3606 -0.0192 -1.5355
  289MOL0     H38951   9.755   9.851   1.873 -0.4376  2.1210  1.5213
  289MOL0     H38952   9.858   9.959   1.701  0.5832  0.5730 -0.7635
  289MOL0     H38953   9.941  10.070   1.811  0.1798 -0.3536 -1.4421
  289MOL0     H38954   9.683  10.124   1.895 -4.0261  3.0778 -2.1618
  289MOL0     H38955   9.648  10.045   1.743 -1.3650 -0.6868  1.8792
  289MOL0     H38956   9.657  10.278   1.719  0.1954  0.8873  1.4175
  289MOL0     H38957   9.812  10.296   1.807 -0.4387 -0.3386  0.9285
  289MOL0     H38958   9.940  10.187   1.621 -0.0984 -0.8247 -1.6723
  289MOL0     H38959   9.789  10.152   1.546 -0.9836  0.5830  0.5850
  289MOL0     H38960   9.767  10.415   1.542  0.4564  2.2525 -1.6175
  289MOL0     H38961   9.941  10.411   1.552 -0.8545 -0.8353  0.9917
  289MOL0     H38962   9.776  10.293   1.337  0.4512  1.3056 -2.7397
  289MOL0     H38963   9.956  10.272   1.347 -0.8076 -2.2034 -0.1695
  289MOL0     H38964   9.805  10.540   1.326 -1.8940 -1.7436  0.0696
  289MOL0     H38965   9.978  10.506   1.312  0.5753 -2.7915 -0.1825
  289MOL0     H38966   9.641  10.525   1.143 -0.2246 -1.2443 -0.6678
  289MOL0     H38967   9.648  10.701   0.914  2.1793  0.1850  0.6796
  289MOL0     H38968   9.712  10.623   0.784  1.2480  0.1454  0.3102
  289MOL0     H38969   9.501  10.511   0.974  1.6515  0.8867  0.9583
  289MOL0     H38970   9.470  10.594   0.821  1.0829  1.7079  0.5669
  289MOL0     H38971   9.573  10.416   0.687  0.3358 -0.7718 -0.2643
  289MOL0     H38972   9.439  10.356   0.791  0.0180  1.1417  4.2135
  289MOL0     H38973   9.731  10.297   0.813  1.2562 -2.6389  0.1354
  289MOL0     H38974   9.589  10.186   0.802 -2.4594  1.2973 -1.5632
  289MOL0     H38975   9.804  10.119   0.897 -4.0320 -0.2487 -3.1210
  289MOL0     H38976   9.889   9.920   1.024  0.0446 -0.8082  0.0896
  289MOL0     H38977   9.603   9.729   1.564  0.3486 -2.0717 -3.1810
  289MOL0     H38978   9.662   9.635   1.782 -0.7793  1.3253 -0.1479
  289MOL0     H38979  10.080   9.456   1.774  1.5685  2.5046  0.4532
  289MOL0     H38980  10.049   9.532   1.929 -2.9146 -0.5430  2.7631
  289MOL0     H38981   9.894   9.312   1.956 -1.7633  0.8264 -3.1644
  289MOL0     H38982  10.049   9.240   1.901  1.4985  0.2631 -0.2650
  289MOL0     H38983  10.195   9.379   2.030  1.6820 -0.0605  1.0597
  289MOL0     H38984  10.060   9.440   2.130 -1.5894 -0.0987 -1.1388
  289MOL0     H38985  10.185   9.153   2.094  1.4658  0.7672  1.1007
  289MOL0     H38986  10.025   9.179   2.166 -0.6858  2.2616 -1.1903
  289MOL0     H38987  10.125   9.299   2.363  0.4609  1.4806  1.7155
  289MOL0     H38988  10.274   9.320   2.278 -1.3969  0.9095 -0.4032
  289MOL0     H38989  10.180   9.031   2.349  0.6308  0.0219 -1.6483
  289MOL0     H38990  10.336   9.085   2.300 -0.3525  0.5804 -1.3717
  289MOL0     H38991  10.172   9.168   2.552 -2.6573  0.2097 -2.8716
  289MOL0     H38992  10.332   9.235   2.506  2.2631 -0.7321 -2.3076
  289MOL0     H38993  10.284   8.946   2.565  2.0994 -0.7661 -0.4881
  289MOL0     H38994  10.440   9.033   2.544 -0.6170  1.6064 -1.2800
  289MOL0     H38995  10.065   9.627   1.661  0.5640 -0.2399  1.6946
  289MOL0     H38996  10.009   9.741   1.453 -1.1522  1.1475  0.1612
  289MOL0     H38997   9.627  10.012   1.346  4.0866 -0.6775  1.3601
  289MOL0     H38998   9.543  10.216   1.219  2.2251  0.3755  2.4985
  289MOL0     H38999   9.837  10.037   2.249  0.8564 -0.4922 -0.1704
  289MOL0     H39000   9.801   9.922   2.468 -1.4672 -1.1751 -0.3757
  289MOL0     H39001   9.918   9.583   2.674 -0.8632  1.6347  2.1913
  289MOL0     H39002   9.999   9.413   2.838  0.7247 -0.8274  0.5593
  289MOL0     H39003  10.036   9.245   2.964 -1.0065  1.4432 -1.3018
  289MOL0     H39004   9.954   9.121   3.063 -1.2757 -0.3146 -1.1724
  289MOL0     H39005   9.872   9.405   3.065 -2.1639  0.7323  1.5328
  289MOL0     H39006   9.974   9.336   3.190  0.5988 -1.7635 -2.4050
  289MOL0     H39007   9.691   9.216   3.127 -2.2420 -2.1035  4.6235
  289MOL0     H39008   9.721   9.332   3.247 -0.2945 -0.6333  0.2248
  289MOL0     H39009   9.839   9.050   3.237 -0.2960 -0.4610  0.2712
  289MOL0     H39010   9.894   9.185   3.345 -2.2897 -0.6944  1.7605
  289MOL0     H39011   9.577   9.150   3.574 -3.7948 -0.0848 -2.9084
  289MOL0     H39012   9.647   9.175   2.755  1.1855 -0.7617  0.8521
  289MOL0     H39013   9.440   9.413   2.642 -2.5537 -1.1616 -0.1382
  289MOL0     H39014   9.519   9.344   2.491 -0.2637  2.9219  0.2025
  289MOL0     H39015   9.471   9.248   2.643 -1.2234  0.8352 -0.0021
  290MOL0     O39016   0.259   9.756   8.129  0.5666 -0.2480  0.4504
  290MOL0     C39017   0.245   9.636   8.116  0.1614  0.1055  1.2225
  290MOL0     O39018   0.218   9.577   8.005 -1.0880 -0.0864 -0.0292
  290MOL0     C39019   0.264   9.626   7.884  0.2790  0.3887 -0.1405
  290MOL0     C39020   0.402   9.644   7.860 -0.5616  0.7529 -0.0640
  290MOL0     C39021   0.451   9.680   7.735 -0.6203 -1.2177 -0.5726
  290MOL0     C39022   0.364   9.731   7.634 -0.0428 -0.1604  0.5444
  290MOL0     O39023   0.413   9.765   7.513  0.6283 -0.4588 -0.1735
  290MOL0     C39024   0.537   9.712   7.463  0.5561  0.1517  0.2165
  290MOL0     C39025   0.519   9.674   7.314  0.1898  0.3831 -0.3738
  290MOL0     C39026   0.402   9.575   7.265 -0.5727  0.3046  0.0484
  290MOL0     C39027   0.368   9.577   7.118 -0.5225  0.4418  0.1663
  290MOL0     C39028   0.295   9.445   7.086 -0.2079 -0.1469  0.4494
  290MOL0     C39029   0.377   9.320   7.077 -0.2998 -0.9296 -0.6618
  290MOL0     C39030   0.291   9.200   7.036 -0.3618 -0.3441 -0.1698
  290MOL0     C39031   0.373   9.065   7.050 -0.0623  0.1308  0.3782
  290MOL0     N39032   0.386   8.989   7.175  0.2186 -0.4585  0.1635
  290MOL0     C39033   0.423   8.856   7.194 -0.4299  0.1418  0.4502
  290MOL0     C39034   0.404   8.823   7.320  0.4778 -0.0953 -0.8530
  290MOL0     C39035   0.428   8.683   7.359  0.2890  0.0960  0.5539
  290MOL0     C39036   0.440   8.662   7.509  0.0423 -0.6255 -0.2236
  290MOL0     C39037   0.572   8.726   7.559  0.0887  1.5463  0.4021
  290MOL0     C39038   0.569   8.732   7.712  0.7012 -0.1343  0.4578
  290MOL0     O39039   0.571   8.606   7.763  0.0264 -0.6254 -0.8064
  290MOL0     C39040   0.573   8.599   7.902 -0.8641 -0.8401 -0.2967
  290MOL0     C39041   0.606   8.703   7.992  0.0341 -0.4692  0.1413
  290MOL0     C39042   0.606   8.684   8.133 -0.3890 -0.2781 -0.1621
  290MOL0     C39043   0.576   8.557   8.188  0.5121 -0.0416  0.3970
  290MOL0     C39044   0.565   8.538   8.332 -0.0851  0.0498 -0.0112
  290MOL0     O39045   0.600   8.645   8.405 -0.5563  0.3569  0.4171
  290MOL0     C39046   0.588   8.629   8.535  0.9390  0.0492 -0.6536
  290MOL0     C39047   0.684   8.554   8.601  0.0968 -1.6512 -0.5155
  290MOL0     C39048   0.680   8.563   8.738 -0.0738  0.7909  0.0192
  290MOL0     C39049   0.585   8.631   8.806  0.4677  0.4869 -0.7412
  290MOL0     O39050   0.578   8.620   8.942 -0.1403 -0.2913 -0.4852
  290MOL0     C39051   0.511   8.499   8.989 -0.7611  0.3828 -0.8700
  290MOL0     C39052   0.533   8.484   9.137 -0.0765 -0.4386  0.5371
  290MOL0     C39053   0.446   8.374   9.207  0.3637 -0.7214  0.6894
  290MOL0     C39054   0.483   8.225   9.175  0.1774 -0.2500 -0.3031
  290MOL0     C39055   0.568   8.174   9.292  0.5304 -0.1727 -0.2927
  290MOL0     C39056   0.626   8.040   9.282 -0.3752 -0.5981 -0.3878
  290MOL0     C39057   0.525   7.936   9.220 -0.8438 -0.7526  0.6432
  290MOL0     C39058   0.594   7.798   9.230  0.1105 -0.7506  0.5913
  290MOL0    Cl39059   0.732   7.783   9.101  0.3283 -0.5195 -0.2598
  290MOL0     C39060   0.482   8.696   8.738  0.2612 -0.8250 -0.7505
  290MOL0     C39061   0.484   8.692   8.601  1.0316 -1.4636  0.0982
  290MOL0     O39062   0.503   8.436   8.375 -0.8527 -0.0440  0.3544
  290MOL0     C39063   0.543   8.451   8.093  0.3866 -0.8549 -0.0127
  290MOL0     C39064   0.536   8.476   7.954  0.2800  0.5492 -0.1606
  290MOL0     N39065   0.353   8.942   7.388  0.5884  0.6375  0.3405
  290MOL0     N39066   0.347   9.030   7.296  0.2832 -0.3936  0.9458
  290MOL0     C39067   0.230   9.726   7.660 -0.3557  0.5709 -0.0345
  290MOL0     C39068   0.176   9.684   7.784  0.1524  0.9953  0.1685
  290MOL0     C39069   0.242   9.555   8.243 -0.2967 -0.2629  1.5958
  290MOL0     C39070   0.117   9.538   8.308 -0.1571 -0.4597  0.5079
  290MOL0     C39071   0.110   9.472   8.430  0.2367 -0.1828 -0.2349
  290MOL0     C39072   0.223   9.424   8.490  0.0069 -0.4927 -0.1608
  290MOL0     O39073   0.220   9.380   8.625 -0.0134 -0.4032  0.7795
  290MOL0     C39074   0.327   9.395   8.715  0.0423 -0.2623  0.0593
  290MOL0     C39075   0.328   9.543   8.761 -0.5758  0.1898 -0.3093
  290MOL0     C39076   0.466   9.578   8.816  0.9209 -0.1093 -0.5534
  290MOL0     C39077   0.482   9.718   8.864  0.2251 -0.4034 -0.4803
  290MOL0     C39078   0.614   9.741   8.932 -0.5767 -1.1976 -1.5267
  290MOL0     C39079   0.723   9.769   8.980 -0.4179 -0.7379 -0.6371
  290MOL0     C39080   0.347   9.430   8.413  0.9586  0.3151 -0.1720
  290MOL0     C39081   0.350   9.501   8.300  0.2686 -0.7767 -0.8997
  290MOL0     C39082   0.480   9.523   8.238 -0.2850 -0.3684 -0.1095
  290MOL0     H39083   0.477   9.604   7.928  1.6088  0.8037 -2.2806
  290MOL0     H39084   0.558   9.689   7.719 -0.4721  3.3378  1.5008
  290MOL0     H39085   0.616   9.784   7.484  1.0217 -1.0727  3.1680
  290MOL0     H39086   0.572   9.622   7.516  1.3605 -0.0264 -0.5903
  290MOL0     H39087   0.618   9.633   7.291  1.6180  3.9278 -1.2469
  290MOL0     H39088   0.496   9.757   7.247 -2.9972 -1.6008 -1.9951
  290MOL0     H39089   0.319   9.603   7.331 -0.7382  1.6456 -0.7077
  290MOL0     H39090   0.441   9.477   7.294  1.1498  0.9194 -0.0554
  290MOL0     H39091   0.299   9.660   7.100 -2.0159 -1.1816 -1.9942
  290MOL0     H39092   0.466   9.585   7.069 -0.0161 -1.9910  0.6265
  290MOL0     H39093   0.217   9.435   7.162 -0.2451 -0.9205  0.3191
  290MOL0     H39094   0.250   9.463   6.988  0.6509 -0.8575 -0.0865
  290MOL0     H39095   0.461   9.331   7.008  0.1051  2.6012  0.2287
  290MOL0     H39096   0.411   9.294   7.178 -1.4220 -2.3191 -0.6105
  290MOL0     H39097   0.259   9.215   6.932 -1.8080 -1.6121  0.0626
  290MOL0     H39098   0.201   9.192   7.097 -0.5507 -1.0931 -0.5433
  290MOL0     H39099   0.322   8.988   6.991 -1.8095  3.9578 -3.7234
  290MOL0     H39100   0.470   9.082   7.002 -1.3446  4.0767 -1.1795
  290MOL0     H39101   0.453   8.783   7.119  1.1868  0.5298  0.6880
  290MOL0     H39102   0.351   8.622   7.311 -0.0605  0.7578  0.2562
  290MOL0     H39103   0.526   8.658   7.319  1.6540  3.2371  1.6056
  290MOL0     H39104   0.346   8.702   7.548 -0.6706 -0.3712 -2.1148
  290MOL0     H39105   0.443   8.556   7.536  0.7156 -0.6513 -0.3785
  290MOL0     H39106   0.575   8.824   7.512  0.1008  0.4220 -2.1031
  290MOL0     H39107   0.657   8.660   7.540 -0.6726  0.9572 -1.1598
  290MOL0     H39108   0.481   8.787   7.746 -0.4749 -2.9499  2.3121
  290MOL0     H39109   0.653   8.795   7.744  0.2769  1.5552 -1.5168
  290MOL0     H39110   0.622   8.803   7.953 -1.7616 -0.7831 -1.5321
  290MOL0     H39111   0.624   8.766   8.202  0.6684 -0.5723 -0.0652
  290MOL0     H39112   0.765   8.507   8.546  1.3665 -2.6666  2.0694
  290MOL0     H39113   0.760   8.522   8.799  1.1280 -2.5212 -3.4314
  290MOL0     H39114   0.402   8.503   8.974 -0.6718  0.5226 -1.5290
  290MOL0     H39115   0.553   8.415   8.933  2.9427  0.4998  1.4043
  290MOL0     H39116   0.642   8.473   9.139  0.2751  1.9582 -0.7919
  290MOL0     H39117   0.510   8.583   9.179 -0.6786 -0.1444 -0.4603
  290MOL0     H39118   0.459   8.400   9.312 -0.9456  3.2326  0.0270
  290MOL0     H39119   0.344   8.399   9.179  0.9918  0.3801 -0.7334
  290MOL0     H39120   0.535   8.215   9.079 -2.7592  0.5862 -2.1429
  290MOL0     H39121   0.391   8.167   9.157  0.3816 -1.9079  3.2053
  290MOL0     H39122   0.505   8.175   9.382 -2.9379  0.5925 -2.5343
  290MOL0     H39123   0.653   8.242   9.303  1.0662 -1.1818  2.4556
  290MOL0     H39124   0.719   8.034   9.225  0.4051 -0.4224  0.8280
  290MOL0     H39125   0.642   8.015   9.387  3.1802 -0.4434 -0.7660
  290MOL0     H39126   0.503   7.957   9.115 -0.1381  1.6296  0.9057
  290MOL0     H39127   0.434   7.924   9.279  0.2724 -1.8205  2.2448
  290MOL0     H39128   0.631   7.789   9.333 -2.1525  0.0704  1.5623
  290MOL0     H39129   0.518   7.720   9.222  0.9481 -1.7188  1.6498
  290MOL0     H39130   0.398   8.738   8.793 -1.5690 -2.0151 -2.4693
  290MOL0     H39131   0.426   8.765   8.545  0.4067 -0.9085  1.4180
  290MOL0     H39132   0.528   8.354   8.141 -3.1295  0.3089  1.5766
  290MOL0     H39133   0.498   8.400   7.887 -0.3634 -0.9009  1.7650
  290MOL0     H39134   0.167   9.759   7.577 -1.4488 -0.5757  0.3055
  290MOL0     H39135   0.068   9.684   7.796  0.0552  0.5086 -0.6352
  290MOL0     H39136   0.030   9.577   8.257 -0.7083 -3.1109 -0.7397
  290MOL0     H39137   0.018   9.449   8.483 -0.9969  1.7120 -1.4696
  290MOL0     H39138   0.422   9.374   8.665  0.5594 -1.3751  1.4321
  290MOL0     H39139   0.316   9.327   8.800 -0.2769 -0.8258 -0.4251
  290MOL0     H39140   0.248   9.562   8.833 -0.3094  0.0537  0.0247
  290MOL0     H39141   0.310   9.603   8.672  1.1098  1.6137  0.2492
  290MOL0     H39142   0.539   9.562   8.736 -0.6683  0.6695 -2.2328
  290MOL0     H39143   0.498   9.514   8.899  4.0520  1.2414 -0.5807
  290MOL0     H39144   0.447   9.794   8.794  1.1757 -0.1346 -0.6730
  290MOL0     H39145   0.407   9.717   8.944 -0.1234  0.3534 -0.7875
  290MOL0     H39146   0.824   9.794   9.003 -1.2304 -0.3148  3.0976
  290MOL0     H39147   0.443   9.394   8.451  0.4686  0.6592  1.4598
  290MOL0     H39148   0.465   9.546   8.132  3.0268 -0.5566 -0.7343
  290MOL0     H39149   0.538   9.603   8.283 -0.8596  1.2016 -2.0226
  290MOL0     H39150   0.531   9.426   8.247 -0.5482 -0.5218 -0.2463
  291MOL0     O39151   2.957   8.635   5.223  0.8211 -0.4506  0.0165
  291MOL0     C39152   2.994   8.560   5.310 -0.0454  0.8826 -0.3554
  291MOL0     O39153   3.025   8.589   5.440 -0.3715  0.0075 -0.5708
  291MOL0     C39154   3.030   8.712   5.499  1.0205 -0.0986  0.8797
  291MOL0     C39155   2.925   8.801   5.491  0.1084  0.0433 -0.6478
  291MOL0     C39156   2.920   8.919   5.577  0.5040  0.0055  0.2481
  291MOL0     C39157   3.021   8.950   5.671  1.9490 -0.4275  0.8374
  291MOL0     O39158   3.020   9.053   5.758  0.4768 -0.1672  0.6461
  291MOL0     C39159   3.132   9.083   5.841  0.3499 -0.0807  0.7888
  291MOL0     C39160   3.097   9.206   5.943 -0.2816  0.5887  0.3995
  291MOL0     C39161   3.073   9.342   5.876 -0.7483 -0.5839 -0.4434
  291MOL0     C39162   2.995   9.445   5.965  0.5668 -0.7677 -0.4276
  291MOL0     C39163   2.954   9.561   5.880 -0.2453  0.0691  0.4295
  291MOL0     C39164   2.853   9.658   5.951  0.0924  0.1254  0.4683
  291MOL0     C39165   2.892   9.717   6.084 -0.9592 -0.7708 -0.1194
  291MOL0     C39166   3.006   9.817   6.075 -0.1152  0.1495  0.0228
  291MOL0     N39167   3.053   9.848   6.210 -0.3480 -0.1786  0.1128
  291MOL0     C39168   3.155   9.779   6.266 -0.9908 -1.4465  0.0980
  291MOL0     C39169   3.217   9.865   6.352 -0.3818 -0.2521 -0.6620
  291MOL0     C39170   3.327   9.826   6.449  0.6584  0.1645 -0.0734
  291MOL0     C39171   3.453   9.909   6.434 -0.8718  0.2031 -0.0998
  291MOL0     C39172   3.547   9.884   6.556 -0.3896 -0.1376  0.8362
  291MOL0     C39173   3.470   9.882   6.686  0.6556 -0.5635  0.5001
  291MOL0     O39174   3.384   9.995   6.707  0.1343 -0.2299  0.2159
  291MOL0     C39175   3.278   9.965   6.795 -0.1802  1.0263  0.9911
  291MOL0     C39176   3.152  10.005   6.764  0.2738 -1.4147 -0.6229
  291MOL0     C39177   3.047   9.990   6.856 -1.4151  0.2411  0.5345
  291MOL0     C39178   3.079   9.932   6.978  0.8682  0.5881 -0.2120
  291MOL0     C39179   2.961   9.913   7.065  0.3914  0.1868 -0.2217
  291MOL0     O39180   2.992   9.861   7.195  0.0522 -0.7126  0.3712
  291MOL0     C39181   2.886   9.835   7.280  0.3375  0.6865 -0.5054
  291MOL0     C39182   2.781   9.750   7.240  0.5759 -0.2429  0.2306
  291MOL0     C39183   2.672   9.739   7.328 -0.5894 -0.8030 -0.2871
  291MOL0     C39184   2.648   9.813   7.445 -0.0045  0.3603  0.8656
  291MOL0     O39185   2.534   9.796   7.528 -0.3356  0.9759  0.6485
  291MOL0     C39186   2.520   9.877   7.647  0.0744 -0.4230  0.0411
  291MOL0     C39187   2.375   9.886   7.690 -0.4033  0.3837 -0.4420
  291MOL0     C39188   2.357   9.950   7.816 -0.1752 -0.0221  0.1927
  291MOL0     C39189   2.221  10.020   7.836 -0.2552  0.4596 -0.9812
  291MOL0     C39190   2.210  10.105   7.962  0.0121 -0.0272  0.1759
  291MOL0     C39191   2.069  10.156   7.979  0.1383  0.2304 -0.9169
  291MOL0     C39192   2.034  10.276   7.895 -0.8858 -0.1760 -0.4247
  291MOL0     C39193   1.886  10.319   7.899  0.5086 -0.0509  0.1661
  291MOL0    Cl39194   1.851  10.422   8.038 -0.3276 -0.1934 -0.3327
  291MOL0     C39195   2.758   9.880   7.487 -0.4348 -0.8724  0.0330
  291MOL0     C39196   2.880   9.897   7.411  0.5378  0.5652  0.3215
  291MOL0     O39197   2.847   9.951   7.028  0.3888 -0.2855 -0.4323
  291MOL0     C39198   3.203   9.891   7.014  0.1426  0.2378  0.0956
  291MOL0     C39199   3.299   9.907   6.912 -0.5852 -0.5974  0.0627
  291MOL0     N39200   3.150   9.979   6.357  0.2746  0.3533  0.5630
  291MOL0     N39201   3.047   9.968   6.268  0.4451  0.0119  0.1728
  291MOL0     C39202   3.132   8.868   5.661  0.9553  0.2784  0.0717
  291MOL0     C39203   3.131   8.748   5.591  0.2200 -0.5608  0.8577
  291MOL0     C39204   3.021   8.420   5.273  0.6602  0.5008  0.5439
  291MOL0     C39205   3.094   8.345   5.353 -0.0930  0.5974  0.5206
  291MOL0     C39206   3.114   8.208   5.330 -0.9329 -0.8475 -0.3405
  291MOL0     C39207   3.048   8.149   5.224  0.5480 -0.0119  0.4404
  291MOL0     O39208   3.073   8.017   5.211  0.1656  0.1741  0.0798
  291MOL0     C39209   2.983   7.940   5.115 -0.4805  0.3428 -0.3959
  291MOL0     C39210   3.008   7.791   5.110 -0.6025 -0.5982 -0.4633
  291MOL0     C39211   2.923   7.729   5.012 -0.3901  0.3177 -0.3797
  291MOL0     C39212   2.984   7.580   4.996  0.6676  0.4550  0.1342
  291MOL0     C39213   2.962   7.500   5.117 -0.0111 -0.7099  0.2685
  291MOL0     C39214   2.937   7.432   5.210 -1.2326  0.1335  0.3352
  291MOL0     C39215   2.986   8.227   5.137  0.5211 -0.1910  0.5471
  291MOL0     C39216   2.958   8.362   5.154 -0.2935 -0.3308 -0.9576
  291MOL0     C39217   2.857   8.429   5.068  0.1740 -1.4392  0.1716
  291MOL0     H39218   2.843   8.793   5.421  1.5259 -2.1736 -2.2077
  291MOL0     H39219   2.836   8.987   5.567 -0.8237 -1.4864  0.8920
  291MOL0     H39220   3.156   8.998   5.905 -1.1097 -0.8522  0.3334
  291MOL0     H39221   3.209   9.116   5.770 -1.2776  0.9988 -0.5579
  291MOL0     H39222   3.182   9.228   6.009  0.2842  1.3674 -0.5552
  291MOL0     H39223   3.008   9.177   5.999 -1.4383  2.2785 -0.4866
  291MOL0     H39224   3.015   9.326   5.785 -3.5110  1.9635  0.7038
  291MOL0     H39225   3.164   9.398   5.850 -3.0172  2.1871 -3.2805
  291MOL0     H39226   2.898   9.412   6.005  0.3108  0.2296 -0.2022
  291MOL0     H39227   3.052   9.474   6.052  0.5182  2.0567 -1.2561
  291MOL0     H39228   3.040   9.617   5.844 -2.6158  2.3461 -2.1980
  291MOL0     H39229   2.898   9.525   5.793 -2.9358 -2.8666  3.0814
  291MOL0     H39230   2.824   9.742   5.887 -0.9406 -0.9912 -0.5654
  291MOL0     H39231   2.759   9.606   5.975 -1.6728  3.3536  1.1352
  291MOL0     H39232   2.915   9.647   6.165  2.0671  0.8508  0.5695
  291MOL0     H39233   2.809   9.774   6.128 -0.6176 -0.4744  0.1515
  291MOL0     H39234   3.091   9.776   6.019  0.8059  1.2177  0.6067
  291MOL0     H39235   2.974   9.907   6.022  0.4626  0.4427  0.1630
  291MOL0     H39236   3.189   9.678   6.243  2.0840 -0.4235 -0.2648
  291MOL0     H39237   3.273   9.841   6.543 -0.0637  1.2839 -0.6405
  291MOL0     H39238   3.352   9.720   6.437  2.9828  0.6897 -0.2220
  291MOL0     H39239   3.488   9.895   6.332  1.3446  2.8217  0.1985
  291MOL0     H39240   3.439  10.018   6.435 -0.1481  0.3074 -0.6259
  291MOL0     H39241   3.633   9.952   6.556  0.0583 -0.6694 -0.5215
  291MOL0     H39242   3.582   9.781   6.545 -1.2918 -0.4562  0.8922
  291MOL0     H39243   3.543   9.896   6.767 -0.7929  2.6227  1.4301
  291MOL0     H39244   3.422   9.785   6.694  0.3497 -0.4165  0.4766
  291MOL0     H39245   3.148  10.043   6.663 -0.7665  1.6637  0.4607
  291MOL0     H39246   2.952  10.038   6.832 -0.9191 -0.2425 -3.0452
  291MOL0     H39247   2.778   9.710   7.140  0.3685  3.2750 -1.3173
  291MOL0     H39248   2.591   9.673   7.298 -2.3616  0.5970  1.2063
  291MOL0     H39249   2.566   9.830   7.734  0.7790  2.9888  1.6824
  291MOL0     H39250   2.552   9.980   7.626 -2.1757 -0.1196 -2.4556
  291MOL0     H39251   2.326   9.939   7.608  0.3106  0.1857 -0.9989
  291MOL0     H39252   2.327   9.788   7.688  1.0720 -0.3470 -1.3370
  291MOL0     H39253   2.367   9.875   7.895 -1.5049 -0.8500 -0.4006
  291MOL0     H39254   2.429  10.031   7.832 -1.1907  1.1916 -1.0927
  291MOL0     H39255   2.147   9.940   7.848  0.0205  0.3363 -0.0030
  291MOL0     H39256   2.198  10.085   7.752 -2.2952 -1.3693 -1.9602
  291MOL0     H39257   2.275  10.191   7.943 -0.9427  0.3615 -1.6210
  291MOL0     H39258   2.237  10.054   8.054  1.7987  2.8167  1.3693
  291MOL0     H39259   2.004  10.074   7.948 -0.1235  0.5300 -1.1660
  291MOL0     H39260   2.048  10.181   8.083 -0.0349 -1.4698 -0.5278
  291MOL0     H39261   2.066  10.265   7.791  4.6993  2.0667  0.6704
  291MOL0     H39262   2.095  10.361   7.928  1.2305 -1.1189 -1.6973
  291MOL0     H39263   1.869  10.379   7.810 -1.7145  2.1135  1.9068
  291MOL0     H39264   1.816  10.236   7.893 -2.3169  2.3125 -2.6178
  291MOL0     H39265   2.754   9.943   7.575  1.3620 -0.7903  0.0978
  291MOL0     H39266   2.962   9.962   7.438  0.5974 -0.0800  1.7566
  291MOL0     H39267   3.226   9.841   7.108  0.5943 -1.3395 -0.8049
  291MOL0     H39268   3.400   9.876   6.939 -0.1828  0.2084 -0.4754
  291MOL0     H39269   3.224   8.890   5.714 -0.2826  0.1131  2.4156
  291MOL0     H39270   3.219   8.685   5.596  1.7399  1.4825  1.0124
  291MOL0     H39271   3.158   8.381   5.433  1.7514  0.4446 -0.7950
  291MOL0     H39272   3.182   8.155   5.396  0.2302  1.1828  0.1893
  291MOL0     H39273   2.991   7.983   5.015 -1.0685 -2.0224 -1.5280
  291MOL0     H39274   2.883   7.959   5.156 -0.8746 -1.2960 -0.5500
  291MOL0     H39275   2.989   7.743   5.207 -0.2259 -0.3660 -0.2734
  291MOL0     H39276   3.114   7.772   5.091 -0.4567 -2.4522  1.6689
  291MOL0     H39277   2.923   7.786   4.919  1.8485  2.1522  0.6424
  291MOL0     H39278   2.822   7.732   5.056 -0.2392  2.5864 -0.0277
  291MOL0     H39279   2.931   7.537   4.911  0.8063  0.4333  0.0600
  291MOL0     H39280   3.089   7.581   4.967  0.8992 -2.2928  0.6894
  291MOL0     H39281   2.913   7.371   5.295 -0.3334 -1.8457 -0.7715
  291MOL0     H39282   2.935   8.174   5.057 -0.1814 -1.4562  1.7902
  291MOL0     H39283   2.819   8.358   4.995 -0.1077  2.1983 -3.6176
  291MOL0     H39284   2.774   8.476   5.123  0.8490  1.1270 -0.8423
  291MOL0     H39285   2.902   8.501   5.000  1.0793 -0.4640  1.7398
  292MOL0     O39286   7.750   4.344   0.573  0.2603 -0.3866  0.1796
  292MOL0     C39287   7.702   4.366   0.462  1.0875 -1.1607  0.0648
  292MOL0     O39288   7.595   4.301   0.406  0.5072 -0.6799  0.1199
  292MOL0     C39289   7.528   4.194   0.443 -0.8000 -0.3101 -0.6747
  292MOL0     C39290   7.571   4.089   0.520 -0.4180 -0.2056 -0.8595
  292MOL0     C39291   7.495   3.979   0.554  0.0445  0.7016 -0.5918
  292MOL0     C39292   7.363   3.969   0.491  0.3864 -0.6912  0.0740
  292MOL0     O39293   7.296   3.859   0.503 -0.6859  1.2713 -0.2744
  292MOL0     C39294   7.158   3.867   0.492 -0.2534  0.3520  0.6155
  292MOL0     C39295   7.102   3.745   0.554  0.4740 -0.2758  0.6428
  292MOL0     C39296   7.126   3.628   0.457  0.5954 -0.4947 -0.3568
  292MOL0     C39297   7.073   3.503   0.527 -0.4939 -0.6165 -0.5546
  292MOL0     C39298   7.081   3.375   0.439 -0.2412  0.0221 -0.0467
  292MOL0     C39299   6.977   3.349   0.333  0.2682  0.5289  0.0165
  292MOL0     C39300   6.832   3.322   0.382 -0.4105  0.9287  0.9541
  292MOL0     C39301   6.734   3.282   0.269 -0.2102 -0.3961  0.0192
  292MOL0     N39302   6.731   3.139   0.233  0.1041 -0.4117 -0.4276
  292MOL0     C39303   6.704   3.026   0.313  0.4540  0.4688 -0.5039
  292MOL0     C39304   6.739   2.917   0.237 -0.3736 -0.4907  0.0827
  292MOL0     C39305   6.739   2.775   0.290  1.2600 -0.5172 -0.2304
  292MOL0     C39306   6.800   2.673   0.187  0.6097 -0.6167  0.3535
  292MOL0     C39307   6.694   2.654   0.082 -0.2732  1.0486 -0.0958
  292MOL0     C39308   6.632   2.511   0.094 -0.0831  0.2881  1.0925
  292MOL0     O39309   6.531   2.511  -0.004  0.2870 -0.3426  0.0529
  292MOL0     C39310   6.438   2.411   0.002  0.4041 -0.8766  0.2166
  292MOL0     C39311   6.468   2.282   0.002  0.3472  0.2118 -0.2222
  292MOL0     C39312   6.368   2.186   0.008 -0.3049 -0.1709  0.0974
  292MOL0     C39313   6.229   2.212   0.025  1.3671  0.0861 -0.5308
  292MOL0     C39314   6.123   2.119   0.032  0.1347 -0.2430 -0.4740
  292MOL0     O39315   6.008   2.152   0.093  0.1944 -0.0084  0.5717
  292MOL0     C39316   5.903   2.064   0.070 -1.2430  0.0969  0.1588
  292MOL0     C39317   5.904   1.950   0.147 -1.0284  1.0650  0.2556
  292MOL0     C39318   5.815   1.848   0.128  0.8434 -0.2221  0.5930
  292MOL0     C39319   5.713   1.877   0.029  0.8818  0.8585  0.4205
  292MOL0     O39320   5.596   1.800   0.029 -0.1815  0.0921 -1.3319
  292MOL0     C39321   5.586   1.656   0.029  0.0376  1.1092 -0.0824
  292MOL0     C39322   5.653   1.600  -0.101 -0.6487  0.2944 -0.6527
  292MOL0     C39323   5.582   1.639  -0.227  0.7610 -0.7314 -0.3339
  292MOL0     C39324   5.557   1.507  -0.313  0.5854  0.6630 -0.2715
  292MOL0     C39325   5.471   1.541  -0.444  0.2838  0.7746  0.0194
  292MOL0     C39326   5.543   1.609  -0.557  0.0909 -1.3442 -0.4369
  292MOL0     C39327   5.464   1.621  -0.683  0.2796 -0.3247 -0.7962
  292MOL0     C39328   5.355   1.735  -0.669 -0.0143  0.7656 -0.2918
  292MOL0    Cl39329   5.191   1.711  -0.745  0.4439  0.1617  0.3217
  292MOL0     C39330   5.708   1.992  -0.042  0.3399  1.0517  0.7304
  292MOL0     C39331   5.806   2.089  -0.033 -0.9969 -0.4690 -0.5497
  292MOL0     O39332   6.155   2.011   0.003  0.4619 -0.4114 -0.4944
  292MOL0     C39333   6.199   2.353   0.031  0.3188  0.2132 -0.5350
  292MOL0     C39334   6.295   2.450   0.017 -0.5887  0.1280 -0.1474
  292MOL0     N39335   6.775   2.956   0.111 -0.2214  0.0362  0.3024
  292MOL0     N39336   6.778   3.087   0.114  0.3562  0.3070  0.3196
  292MOL0     C39337   7.324   4.065   0.399 -0.5227 -0.6578  0.2021
  292MOL0     C39338   7.407   4.175   0.372  0.2708 -0.2118  0.3857
  292MOL0     C39339   7.751   4.478   0.387  0.2067  0.7085  0.4323
  292MOL0     C39340   7.655   4.572   0.335 -0.5130 -0.0867  0.1272
  292MOL0     C39341   7.698   4.687   0.270 -0.3791  1.0578 -0.3595
  292MOL0     C39342   7.833   4.720   0.255 -0.3380  0.5865  0.1600
  292MOL0     O39343   7.885   4.828   0.190 -0.3719  0.6418  0.6254
  292MOL0     C39344   7.799   4.898   0.100  0.5164 -0.0728 -0.6801
  292MOL0     C39345   7.788   4.822  -0.035  0.3107 -0.2033 -0.3502
  292MOL0     C39346   7.914   4.849  -0.130 -0.1507 -0.0012  0.9319
  292MOL0     C39347   7.878   4.810  -0.279  0.7341  0.3252 -0.5014
  292MOL0     C39348   7.817   4.676  -0.289  0.4056  0.3756  0.7859
  292MOL0     C39349   7.765   4.572  -0.302  0.1233 -0.0561 -0.5311
  292MOL0     C39350   7.926   4.629   0.309 -0.5190 -0.5450 -1.0079
  292MOL0     C39351   7.891   4.512   0.376 -0.5145 -0.2838 -0.0606
  292MOL0     C39352   7.995   4.424   0.436  0.4330  0.3873 -0.5733
  292MOL0     H39353   7.669   4.091   0.567  0.1522  1.4855 -2.0311
  292MOL0     H39354   7.536   3.907   0.624 -0.5383  1.4092  0.4952
  292MOL0     H39355   7.120   3.953   0.547  0.5010  1.1822 -0.1249
  292MOL0     H39356   7.129   3.887   0.388 -0.6481  1.0129  0.8475
  292MOL0     H39357   6.994   3.759   0.561  0.1907 -0.2938 -2.3633
  292MOL0     H39358   7.145   3.726   0.652  1.2977 -0.1032  0.3219
  292MOL0     H39359   7.234   3.619   0.438  0.9752  4.0639 -1.6472
  292MOL0     H39360   7.061   3.653   0.373 -1.2737 -0.9267  0.9174
  292MOL0     H39361   7.129   3.499   0.621 -1.7441 -1.1800  0.1865
  292MOL0     H39362   6.967   3.521   0.545 -0.4313 -1.7147  1.0476
  292MOL0     H39363   7.172   3.380   0.377 -2.0708  1.5023 -2.8204
  292MOL0     H39364   7.092   3.291   0.508  1.1196  2.0797  2.4372
  292MOL0     H39365   6.949   3.437   0.274 -2.9083 -1.2826 -1.4057
  292MOL0     H39366   7.012   3.277   0.259 -0.6579 -1.0035  1.0050
  292MOL0     H39367   6.790   3.416   0.419 -1.5315  0.8160  0.0123
  292MOL0     H39368   6.836   3.250   0.465  2.6316  1.5742  1.5170
  292MOL0     H39369   6.630   3.300   0.296 -0.8591  0.3876 -2.6397
  292MOL0     H39370   6.755   3.339   0.178 -0.1350  2.3595  1.6505
  292MOL0     H39371   6.661   3.032   0.413 -1.3669 -1.4308 -1.1016
  292MOL0     H39372   6.794   2.772   0.385  1.5566  2.9740 -0.1693
  292MOL0     H39373   6.638   2.747   0.320  1.3761  0.3063  1.0049
  292MOL0     H39374   6.889   2.718   0.143  0.1639 -0.0470  0.0208
  292MOL0     H39375   6.822   2.581   0.242 -0.7684 -0.3483  1.4159
  292MOL0     H39376   6.734   2.653  -0.020 -2.2943  1.2964 -0.9553
  292MOL0     H39377   6.621   2.735   0.076 -1.1363  0.2414 -1.0331
  292MOL0     H39378   6.596   2.486   0.194  0.4314 -2.1963  0.7242
  292MOL0     H39379   6.715   2.443   0.074  1.6607  2.4350  0.5377
  292MOL0     H39380   6.570   2.249   0.019 -0.8766 -3.4100  1.0541
  292MOL0     H39381   6.393   2.081   0.003 -2.5803 -0.7767  0.3953
  292MOL0     H39382   5.970   1.952   0.233 -0.1503 -0.4613 -0.3560
  292MOL0     H39383   5.819   1.761   0.193  0.0111  0.5017  1.6502
  292MOL0     H39384   5.638   1.606   0.111 -2.8012  0.6128  1.5264
  292MOL0     H39385   5.485   1.618   0.046  1.0235 -1.0426  1.5001
  292MOL0     H39386   5.755   1.634  -0.119 -0.8600  0.9825 -0.5612
  292MOL0     H39387   5.657   1.491  -0.092  4.2501 -0.0276 -3.1739
  292MOL0     H39388   5.484   1.681  -0.204 -0.4641 -2.3728 -2.2184
  292MOL0     H39389   5.633   1.723  -0.276 -2.3884  2.9996  2.1874
  292MOL0     H39390   5.480   1.450  -0.260 -0.5854  0.4960 -2.0760
  292MOL0     H39391   5.655   1.465  -0.340  0.3947  1.0024 -1.5811
  292MOL0     H39392   5.386   1.607  -0.421 -0.6633  0.1550 -1.5770
  292MOL0     H39393   5.422   1.450  -0.481  0.7022  0.4446  0.2719
  292MOL0     H39394   5.580   1.710  -0.538  0.7770 -1.1610 -2.4429
  292MOL0     H39395   5.634   1.557  -0.587  2.0062  2.5336 -2.2034
  292MOL0     H39396   5.423   1.520  -0.693  2.2819 -1.3256  0.4458
  292MOL0     H39397   5.534   1.632  -0.767  4.1686 -3.0704  1.7189
  292MOL0     H39398   5.329   1.758  -0.565 -2.2068  3.3966 -1.2939
  292MOL0     H39399   5.396   1.828  -0.708  1.1416  0.0961 -0.7331
  292MOL0     H39400   5.619   2.027  -0.093  1.2747  0.1449 -1.6532
  292MOL0     H39401   5.802   2.191  -0.071 -1.4400 -0.6307 -0.9512
  292MOL0     H39402   6.097   2.389   0.044  0.9669  1.4836  1.4906
  292MOL0     H39403   6.279   2.557   0.019 -2.6977 -0.1353  2.4281
  292MOL0     H39404   7.238   4.058   0.333 -0.0696  0.0055 -0.4723
  292MOL0     H39405   7.366   4.242   0.297 -0.7189  1.4299  2.2930
  292MOL0     H39406   7.548   4.562   0.345 -0.4803 -0.3113  0.2664
  292MOL0     H39407   7.618   4.756   0.245  0.9088  3.0286  0.6894
  292MOL0     H39408   7.829   5.003   0.097  0.7153  0.0152  2.0494
  292MOL0     H39409   7.697   4.899   0.138 -0.1633 -1.0635 -2.3625
  292MOL0     H39410   7.696   4.865  -0.075 -0.2253 -0.2190  0.8219
  292MOL0     H39411   7.795   4.713  -0.029  0.0025 -0.3861 -2.5286
  292MOL0     H39412   7.990   4.774  -0.105  1.0349  1.2245  1.1021
  292MOL0     H39413   7.954   4.949  -0.112  1.2635 -0.3909  0.1213
  292MOL0     H39414   7.808   4.883  -0.322  0.1035 -1.5256 -2.8481
  292MOL0     H39415   7.969   4.822  -0.340 -0.1426  0.7597 -1.7709
  292MOL0     H39416   7.702   4.485  -0.305 -2.5582  1.7592 -1.3250
  292MOL0     H39417   8.031   4.657   0.300 -1.0274  2.7048  1.3172
  292MOL0     H39418   7.973   4.317   0.439  0.6967  0.3472  0.3727
  292MOL0     H39419   8.089   4.433   0.381  0.4331 -2.3026 -1.1466
  292MOL0     H39420   8.011   4.450   0.541  1.0073 -1.3589 -0.1959
  293MOL0     O39421   1.153   4.370   3.866 -0.5362  0.0105  1.2576
  293MOL0     C39422   1.191   4.314   3.762  0.9031  0.5491 -0.4168
  293MOL0     O39423   1.314   4.321   3.709 -1.0683 -0.4808  0.0950
  293MOL0     C39424   1.414   4.376   3.788 -0.1659  0.3832  1.4612
  293MOL0     C39425   1.467   4.317   3.904  0.6589 -0.8529  0.1336
  293MOL0     C39426   1.567   4.386   3.972 -0.7310  0.2913  0.4992
  293MOL0     C39427   1.623   4.506   3.922 -0.0676  0.8058 -0.5994
  293MOL0     O39428   1.732   4.561   3.982  0.4085 -0.1345  0.2726
  293MOL0     C39429   1.843   4.473   4.002 -0.8028  1.3343  0.3208
  293MOL0     C39430   1.972   4.541   4.008 -0.0350  0.1773  0.2895
  293MOL0     C39431   2.011   4.594   3.857 -0.3269 -0.5605 -0.5340
  293MOL0     C39432   2.013   4.484   3.746 -0.2505  0.3581 -0.9127
  293MOL0     C39433   2.095   4.542   3.634 -0.4830 -0.3045  0.9127
  293MOL0     C39434   2.034   4.661   3.565 -0.0048  0.3129  0.6395
  293MOL0     C39435   2.123   4.732   3.460  1.2918 -0.2821 -0.7895
  293MOL0     C39436   2.025   4.828   3.391 -0.9291  0.2539 -0.0548
  293MOL0     N39437   2.110   4.931   3.325  0.5341 -0.4363 -2.0909
  293MOL0     C39438   2.166   5.044   3.394  0.5946 -0.0587  0.0465
  293MOL0     C39439   2.239   5.104   3.295  1.0580 -0.0688  0.1289
  293MOL0     C39440   2.323   5.228   3.325  0.9561  0.1211 -0.2631
  293MOL0     C39441   2.262   5.367   3.310  0.4987  0.2399  0.3118
  293MOL0     C39442   2.139   5.377   3.411  0.1714  1.4480  0.7767
  293MOL0     C39443   2.067   5.507   3.389  0.0770 -0.6482 -0.8796
  293MOL0     O39444   2.144   5.627   3.358  0.3290 -0.9823  0.2455
  293MOL0     C39445   2.100   5.702   3.243  0.0586  0.8093 -0.6911
  293MOL0     C39446   1.984   5.776   3.258 -0.4783  0.0061 -0.3831
  293MOL0     C39447   1.913   5.833   3.159 -0.1983 -0.5959 -0.2445
  293MOL0     C39448   1.958   5.808   3.023 -0.2317 -0.7339 -0.1646
  293MOL0     C39449   1.883   5.861   2.911 -0.2638  0.1632 -0.9397
  293MOL0     O39450   1.906   5.814   2.782  0.2051 -0.5337  0.3781
  293MOL0     C39451   1.850   5.880   2.673  0.4810 -0.3520 -0.6450
  293MOL0     C39452   1.725   5.941   2.667 -0.2429 -0.0794 -0.2532
  293MOL0     C39453   1.693   6.002   2.542  0.1770 -0.6860  0.5206
  293MOL0     C39454   1.782   6.019   2.433  0.0004  0.1340  0.3331
  293MOL0     O39455   1.743   6.087   2.319  0.4656 -0.1940  0.3789
  293MOL0     C39456   1.851   6.171   2.271  0.5447 -0.2375 -0.2541
  293MOL0     C39457   1.802   6.266   2.163 -0.2520 -0.4567  0.6539
  293MOL0     C39458   1.722   6.387   2.214 -0.9333 -0.2827 -0.3224
  293MOL0     C39459   1.807   6.505   2.256  0.2130 -0.3150 -0.1614
  293MOL0     C39460   1.734   6.614   2.333 -0.3508 -0.3477  0.2519
  293MOL0     C39461   1.831   6.697   2.432 -0.3638  0.3374 -0.0205
  293MOL0     C39462   1.902   6.803   2.346 -0.0955 -0.6086 -0.4238
  293MOL0     C39463   2.015   6.872   2.423  0.0024 -0.2670  0.9054
  293MOL0    Cl39464   2.057   7.027   2.342  0.1769 -0.3784 -0.0908
  293MOL0     C39465   1.913   5.971   2.457 -0.9005  0.9373  0.7465
  293MOL0     C39466   1.948   5.909   2.575 -0.1628  0.6855 -0.6495
  293MOL0     O39467   1.803   5.951   2.943 -0.6695  0.0692  0.3210
  293MOL0     C39468   2.073   5.743   3.006 -0.5973 -0.0814 -0.8848
  293MOL0     C39469   2.153   5.688   3.117 -0.0847 -0.0980 -1.2999
  293MOL0     N39470   2.203   5.042   3.175 -0.3505 -0.3775  0.3890
  293MOL0     N39471   2.129   4.940   3.193  0.0427 -0.1351 -0.0470
  293MOL0     C39472   1.581   4.552   3.797  0.6963  1.2905  0.8330
  293MOL0     C39473   1.475   4.488   3.729 -1.1034  0.1835  0.4811
  293MOL0     C39474   1.089   4.216   3.686 -0.5717 -0.4737 -0.3201
  293MOL0     C39475   1.141   4.106   3.617  0.6206  0.2568 -0.1775
  293MOL0     C39476   1.055   4.013   3.544  0.1277 -0.5956 -0.8731
  293MOL0     C39477   0.916   4.034   3.550  0.4883  0.2835 -0.1270
  293MOL0     O39478   0.833   3.940   3.498  0.7333 -0.3551  0.7211
  293MOL0     C39479   0.819   3.949   3.350  0.1937 -0.4234 -0.0183
  293MOL0     C39480   0.674   3.911   3.306 -0.3778 -0.3839  0.2757
  293MOL0     C39481   0.571   4.010   3.352 -0.2856 -0.5011  0.4510
  293MOL0     C39482   0.570   4.149   3.273  0.0300  0.4504 -0.3376
  293MOL0     C39483   0.480   4.234   3.342  0.3161 -0.2832  0.4157
  293MOL0     C39484   0.404   4.312   3.400  0.1731  0.1202  0.2105
  293MOL0     C39485   0.864   4.140   3.618  0.2571  1.0270 -0.2370
  293MOL0     C39486   0.946   4.231   3.691 -0.3393  0.3467 -0.3894
  293MOL0     C39487   0.874   4.345   3.760 -1.1180  0.6200  0.5398
  293MOL0     H39488   1.442   4.221   3.948 -0.5842 -1.5619 -1.9754
  293MOL0     H39489   1.602   4.344   4.066  0.0524  0.2305  0.1914
  293MOL0     H39490   1.824   4.428   4.100 -0.3196 -1.6258 -0.8699
  293MOL0     H39491   1.851   4.377   3.952  1.5729  0.5240  2.0462
  293MOL0     H39492   2.056   4.475   4.031  0.3376  0.9814  1.3444
  293MOL0     H39493   1.968   4.622   4.081 -0.1249 -0.5667  1.1265
  293MOL0     H39494   2.102   4.652   3.843  1.1672 -2.7184 -0.2941
  293MOL0     H39495   1.920   4.651   3.836 -1.3367 -1.7568  0.4424
  293MOL0     H39496   2.057   4.392   3.785 -0.7899  0.1837 -0.7116
  293MOL0     H39497   1.912   4.452   3.720 -1.7125  2.1394  2.0400
  293MOL0     H39498   2.190   4.575   3.674  0.0028 -0.5247 -0.0154
  293MOL0     H39499   2.128   4.470   3.558  0.5260  2.7135 -1.7366
  293MOL0     H39500   1.943   4.638   3.509  0.0125  0.1552  0.6747
  293MOL0     H39501   2.000   4.730   3.643  1.9979 -2.3846  4.1985
  293MOL0     H39502   2.161   4.653   3.395 -1.3646 -2.3180 -0.0350
  293MOL0     H39503   2.201   4.786   3.515  0.6543  0.9137 -1.0167
  293MOL0     H39504   1.971   4.769   3.316 -0.3320 -0.4099  0.0303
  293MOL0     H39505   1.953   4.876   3.459 -1.2208  2.0915 -1.5608
  293MOL0     H39506   2.166   5.067   3.500 -1.1474 -0.6947  0.2369
  293MOL0     H39507   2.360   5.220   3.428  1.5703  0.9567 -0.4067
  293MOL0     H39508   2.415   5.218   3.267  0.0324 -0.3847 -1.6784
  293MOL0     H39509   2.335   5.445   3.334 -0.8127  1.1293  1.6288
  293MOL0     H39510   2.226   5.392   3.210  2.5072  0.0548 -0.4919
  293MOL0     H39511   2.180   5.382   3.512  2.4329 -2.8133  0.3080
  293MOL0     H39512   2.074   5.290   3.396 -0.2805  1.7438  1.0122
  293MOL0     H39513   2.015   5.524   3.484 -1.5746 -1.0050 -1.6848
  293MOL0     H39514   1.987   5.488   3.317 -2.5412  2.1343  1.0531
  293MOL0     H39515   1.952   5.796   3.360 -3.5193  0.0593 -1.2715
  293MOL0     H39516   1.817   5.880   3.174  0.5553  1.4622 -1.5161
  293MOL0     H39517   1.634   5.920   2.722 -2.9812  2.7926 -3.2416
  293MOL0     H39518   1.593   6.038   2.520  0.7740  0.4609 -0.4045
  293MOL0     H39519   1.902   6.222   2.354  3.1236 -2.6679 -0.1856
  293MOL0     H39520   1.926   6.109   2.222  2.7094  0.8877  1.4347
  293MOL0     H39521   1.887   6.298   2.103 -1.3129  0.2873 -0.4869
  293MOL0     H39522   1.750   6.204   2.089  2.5292 -2.8039  0.4949
  293MOL0     H39523   1.656   6.415   2.131  2.3455 -2.6496 -4.0783
  293MOL0     H39524   1.665   6.354   2.302 -1.1055  1.3634  0.2311
  293MOL0     H39525   1.836   6.559   2.165 -1.8147 -0.9296 -1.2370
  293MOL0     H39526   1.901   6.474   2.303  0.4161  0.4573 -0.0502
  293MOL0     H39527   1.649   6.569   2.386  0.4189  0.2871  2.1207
  293MOL0     H39528   1.695   6.684   2.259  0.0988  0.2888  0.6120
  293MOL0     H39529   1.770   6.738   2.512 -0.5316 -0.1838  0.1250
  293MOL0     H39530   1.905   6.633   2.481 -1.4558  1.1201  2.8509
  293MOL0     H39531   1.838   6.888   2.319 -2.1303 -2.1491 -0.7570
  293MOL0     H39532   1.931   6.768   2.246  1.6509 -2.7945  0.7789
  293MOL0     H39533   1.998   6.886   2.530  1.3647  0.4986  1.0473
  293MOL0     H39534   2.103   6.809   2.408  2.4862  3.3874 -1.7750
  293MOL0     H39535   1.985   5.990   2.377 -0.2162  3.0122  1.7879
  293MOL0     H39536   2.043   5.859   2.594 -1.0539  0.2821  3.7311
  293MOL0     H39537   2.134   5.743   2.917  0.6275 -2.3223 -0.1360
  293MOL0     H39538   2.246   5.642   3.083  0.0211  0.6210 -2.0060
  293MOL0     H39539   1.634   4.639   3.760  0.5991 -0.1831 -3.4260
  293MOL0     H39540   1.449   4.537   3.635  1.1025 -1.7407 -1.2603
  293MOL0     H39541   1.246   4.082   3.630  0.0470 -1.7208  1.3034
  293MOL0     H39542   1.106   3.934   3.489  0.2793  0.7659 -2.8225
  293MOL0     H39543   0.880   3.873   3.300 -0.8305  0.6038 -3.0751
  293MOL0     H39544   0.835   4.054   3.322  3.0654  0.0341  2.8217
  293MOL0     H39545   0.652   3.812   3.348 -0.0820 -0.0711  1.2103
  293MOL0     H39546   0.686   3.904   3.198  3.4198  1.3244  0.4277
  293MOL0     H39547   0.571   4.021   3.461 -0.3304  0.0789  0.3970
  293MOL0     H39548   0.475   3.968   3.319 -1.7133  3.0678 -0.4201
  293MOL0     H39549   0.665   4.203   3.272  1.2270 -1.4417  1.6117
  293MOL0     H39550   0.551   4.125   3.168 -0.1021  1.1396 -0.4696
  293MOL0     H39551   0.342   4.376   3.459  0.7016 -3.8906  5.8402
  293MOL0     H39552   0.756   4.149   3.629  0.1774  0.8856 -0.8730
  293MOL0     H39553   0.874   4.320   3.866 -2.1412 -1.0037  0.1916
  293MOL0     H39554   0.923   4.443   3.753  2.4754 -1.0112  0.5998
  293MOL0     H39555   0.772   4.349   3.720 -0.4533  0.0447 -1.3371
  294MOL0     O39556   3.313   4.312   7.987  1.4329  0.2709  0.3116
  294MOL0     C39557   3.328   4.434   7.979  0.9046 -0.0141 -0.7935
  294MOL0     O39558   3.359   4.508   7.869  0.2744  1.1309 -0.6651
  294MOL0     C39559   3.386   4.452   7.742 -0.6853 -0.0911 -0.7568
  294MOL0     C39560   3.440   4.320   7.734 -0.4554 -0.2868 -0.4024
  294MOL0     C39561   3.478   4.274   7.606  0.0773  0.3415  1.1193
  294MOL0     C39562   3.466   4.360   7.491 -0.5698 -0.6648  0.3909
  294MOL0     O39563   3.511   4.311   7.368 -0.1423 -0.3664 -0.6719
  294MOL0     C39564   3.479   4.373   7.247  0.1263 -0.0388 -0.3880
  294MOL0     C39565   3.529   4.306   7.116 -0.4978  0.1453 -0.6166
  294MOL0     C39566   3.676   4.334   7.097 -0.1765 -0.0083 -0.2428
  294MOL0     C39567   3.730   4.278   6.967  0.3646  0.3543 -0.3058
  294MOL0     C39568   3.867   4.340   6.941  0.4264 -0.0037  0.4943
  294MOL0     C39569   3.945   4.281   6.826  0.4393 -0.4915 -0.2776
  294MOL0     C39570   4.011   4.142   6.859  0.6341  0.2315 -0.2670
  294MOL0     C39571   4.080   4.070   6.750 -1.1476  0.2227 -0.0093
  294MOL0     N39572   4.212   4.127   6.729 -0.8261 -0.2818 -0.6324
  294MOL0     C39573   4.234   4.253   6.681  0.3605 -0.1229  0.9686
  294MOL0     C39574   4.356   4.296   6.711  0.6119  0.1537  0.5727
  294MOL0     C39575   4.424   4.428   6.671  0.1160  0.3781  0.5980
  294MOL0     C39576   4.355   4.558   6.704 -0.1774 -0.0160 -0.4281
  294MOL0     C39577   4.399   4.605   6.846 -0.3099  0.5221  1.5540
  294MOL0     C39578   4.501   4.708   6.831 -1.3048 -0.0019 -0.7006
  294MOL0     O39579   4.594   4.676   6.736  0.1052  0.2112 -0.9426
  294MOL0     C39580   4.685   4.765   6.700 -0.3467  0.1633 -1.2065
  294MOL0     C39581   4.713   4.767   6.567 -0.2265  0.3993  0.4782
  294MOL0     C39582   4.830   4.844   6.524  0.5045 -0.2536  0.4675
  294MOL0     C39583   4.904   4.925   6.611  0.5651  1.3142  0.1856
  294MOL0     C39584   5.028   4.980   6.568  0.4421  0.0205  0.8111
  294MOL0     O39585   5.083   5.067   6.660 -0.2401  0.4450  0.5506
  294MOL0     C39586   5.197   5.138   6.640  0.5552  0.3994  0.4664
  294MOL0     C39587   5.271   5.177   6.753 -0.3579  0.3323 -0.4377
  294MOL0     C39588   5.389   5.257   6.741  0.0171  0.1462 -0.7201
  294MOL0     C39589   5.425   5.311   6.620 -0.4481 -0.3276  0.0901
  294MOL0     O39590   5.537   5.389   6.590  0.0906  0.4249  0.5862
  294MOL0     C39591   5.610   5.449   6.697 -0.3122 -0.6858  0.3159
  294MOL0     C39592   5.710   5.542   6.648 -0.2969 -0.9294  0.7759
  294MOL0     C39593   5.655   5.629   6.539  0.6874 -0.2407  0.3206
  294MOL0     C39594   5.774   5.705   6.464  0.5716  1.1955 -0.0162
  294MOL0     C39595   5.708   5.770   6.345  0.4415  0.3875 -0.1074
  294MOL0     C39596   5.819   5.852   6.268 -0.1711  0.1960 -1.0710
  294MOL0     C39597   5.794   5.889   6.124 -0.2958  0.0258 -0.1992
  294MOL0     C39598   5.657   5.957   6.089  0.4380 -0.5281 -1.2334
  294MOL0    Cl39599   5.675   6.127   6.140  0.1369 -0.1427  0.5182
  294MOL0     C39600   5.352   5.266   6.507  0.0509  1.1727  0.0301
  294MOL0     C39601   5.238   5.184   6.517  0.3613  0.0167 -0.5060
  294MOL0     O39602   5.087   4.938   6.470 -0.1734  0.2065 -0.2461
  294MOL0     C39603   4.865   4.925   6.740 -0.0319  0.4479 -0.2784
  294MOL0     C39604   4.762   4.840   6.788  0.1078 -0.0210 -0.6755
  294MOL0     N39605   4.420   4.180   6.770  1.2182 -0.3198 -0.2406
  294MOL0     N39606   4.331   4.089   6.778  0.0937 -0.6264 -0.0100
  294MOL0     C39607   3.427   4.497   7.504  0.0781  0.8216 -0.9594
  294MOL0     C39608   3.386   4.535   7.634 -0.3179  0.0649 -0.1677
  294MOL0     C39609   3.295   4.521   8.098 -0.7138  0.0430  0.0536
  294MOL0     C39610   3.264   4.662   8.083 -0.1369 -0.3350  0.2494
  294MOL0     C39611   3.232   4.741   8.187 -1.3809 -0.9288  0.4492
  294MOL0     C39612   3.221   4.680   8.314  0.5976 -1.1563  0.0634
  294MOL0     O39613   3.191   4.763   8.427 -0.4048 -0.4822 -0.0835
  294MOL0     C39614   3.058   4.820   8.417 -0.3110  0.2707 -0.3817
  294MOL0     C39615   2.949   4.722   8.421  0.6334 -0.8371  0.3963
  294MOL0     C39616   2.916   4.643   8.553  0.1186 -0.1023 -0.1129
  294MOL0     C39617   2.902   4.736   8.679  0.1126  0.3274 -0.2529
  294MOL0     C39618   3.020   4.810   8.719  0.3234  0.0570  0.3063
  294MOL0     C39619   3.129   4.855   8.748  0.0930 -0.4564 -0.1248
  294MOL0     C39620   3.231   4.541   8.325 -0.2654 -0.1443 -0.6432
  294MOL0     C39621   3.273   4.461   8.227 -0.6220  0.7282  0.7778
  294MOL0     C39622   3.322   4.322   8.275  0.5023  0.6872 -0.1958
  294MOL0     H39623   3.468   4.261   7.821  2.2166  1.6745  0.2117
  294MOL0     H39624   3.526   4.178   7.586  0.0945  0.8641 -1.8169
  294MOL0     H39625   3.370   4.376   7.237 -0.1261  1.4545  2.1111
  294MOL0     H39626   3.514   4.476   7.236  0.5938 -0.1199  0.3230
  294MOL0     H39627   3.472   4.336   7.028 -0.4135 -3.7683 -2.2043
  294MOL0     H39628   3.510   4.198   7.115  1.1747 -0.2808  2.3531
  294MOL0     H39629   3.736   4.308   7.185 -1.1921 -1.6411  0.0185
  294MOL0     H39630   3.678   4.443   7.087  4.0431 -0.0466 -1.9709
  294MOL0     H39631   3.734   4.168   6.972 -2.6483  0.1256 -0.6709
  294MOL0     H39632   3.665   4.306   6.884  1.8269  1.8500 -1.0045
  294MOL0     H39633   3.841   4.442   6.912  0.4153  0.5177  2.2272
  294MOL0     H39634   3.923   4.337   7.035 -1.9265 -1.2596  1.9621
  294MOL0     H39635   3.875   4.272   6.743  1.8190  1.4540 -1.7444
  294MOL0     H39636   4.019   4.356   6.795 -1.0710  0.6801 -1.1888
  294MOL0     H39637   3.925   4.086   6.896 -0.1816  1.7101  0.1235
  294MOL0     H39638   4.074   4.160   6.947 -0.2173  0.2600  0.3442
  294MOL0     H39639   4.096   3.962   6.763 -0.6264  0.4166  1.1303
  294MOL0     H39640   4.019   4.085   6.661 -2.0397 -3.9110 -0.2808
  294MOL0     H39641   4.160   4.315   6.632  0.5729 -0.6849 -0.1084
  294MOL0     H39642   4.515   4.434   6.732 -0.3625  1.6096  1.2169
  294MOL0     H39643   4.450   4.424   6.565 -0.2453 -2.5349  0.5383
  294MOL0     H39644   4.385   4.628   6.625  2.4723  0.0169  0.5091
  294MOL0     H39645   4.247   4.551   6.687 -0.3965  2.4651 -0.4932
  294MOL0     H39646   4.433   4.527   6.914  5.0573  1.4430  0.3448
  294MOL0     H39647   4.316   4.659   6.892  0.7418  1.5649  2.2749
  294MOL0     H39648   4.545   4.730   6.929  0.7234 -0.0136 -1.5559
  294MOL0     H39649   4.441   4.792   6.795 -1.1998 -0.4291 -1.9106
  294MOL0     H39650   4.673   4.692   6.500  2.5680 -0.6801 -0.0891
  294MOL0     H39651   4.858   4.840   6.419  0.9945 -1.9570  0.6212
  294MOL0     H39652   5.249   5.156   6.857  3.0360 -4.2681 -0.3633
  294MOL0     H39653   5.441   5.273   6.834 -2.4355  0.1028  0.7489
  294MOL0     H39654   5.534   5.500   6.757 -1.9923 -3.4407  0.7369
  294MOL0     H39655   5.659   5.374   6.759  0.3270 -0.1427  0.4802
  294MOL0     H39656   5.744   5.604   6.731 -0.9394 -0.5654  0.7771
  294MOL0     H39657   5.790   5.482   6.605 -1.6778 -3.0813  1.0396
  294MOL0     H39658   5.595   5.575   6.465  0.3116 -0.3373  0.6925
  294MOL0     H39659   5.595   5.707   6.587  0.6553  0.1151 -0.2794
  294MOL0     H39660   5.855   5.641   6.429 -0.6617  0.1380 -1.0246
  294MOL0     H39661   5.830   5.776   6.525  4.0404  0.7139 -2.3938
  294MOL0     H39662   5.639   5.844   6.386  0.8412  0.6438  0.1078
  294MOL0     H39663   5.658   5.700   6.278 -2.9213  1.2799  1.2581
  294MOL0     H39664   5.840   5.940   6.329  0.7854  0.5301 -1.8415
  294MOL0     H39665   5.907   5.786   6.262 -2.4936 -3.0457 -3.1351
  294MOL0     H39666   5.779   5.802   6.059  3.2195 -2.1492  1.6223
  294MOL0     H39667   5.883   5.932   6.077 -0.1161 -2.2875 -2.1727
  294MOL0     H39668   5.641   5.952   5.981 -0.6030  1.6042 -1.2161
  294MOL0     H39669   5.579   5.910   6.150  2.6558 -0.8795  1.6133
  294MOL0     H39670   5.389   5.302   6.411 -1.0745  1.1840 -0.4114
  294MOL0     H39671   5.173   5.160   6.434 -3.3446  1.4572  1.7161
  294MOL0     H39672   4.924   4.970   6.819 -1.2076  0.5635  0.5664
  294MOL0     H39673   4.740   4.839   6.895  0.6772  1.4419 -0.5298
  294MOL0     H39674   3.429   4.578   7.432 -0.1233  0.1429 -1.7494
  294MOL0     H39675   3.356   4.638   7.647 -0.8011  0.0358 -0.9284
  294MOL0     H39676   3.278   4.709   7.986 -0.1789  1.6820  1.1645
  294MOL0     H39677   3.226   4.849   8.178 -5.7745 -0.9524  1.1701
  294MOL0     H39678   3.062   4.879   8.325  3.7077  0.6724 -0.1319
  294MOL0     H39679   3.058   4.890   8.502  1.6856 -0.2615  0.1115
  294MOL0     H39680   2.954   4.653   8.336  0.0990 -0.2367 -0.1349
  294MOL0     H39681   2.858   4.780   8.405  0.3293 -1.1752  0.8442
  294MOL0     H39682   2.994   4.569   8.577  1.6659  1.2734 -0.6660
  294MOL0     H39683   2.816   4.601   8.540 -0.9017  1.3711  2.3968
  294MOL0     H39684   2.820   4.805   8.656 -1.8444 -2.1148 -1.1217
  294MOL0     H39685   2.866   4.674   8.762  2.8758  0.3132  1.0123
  294MOL0     H39686   3.221   4.890   8.789  0.8661 -2.8617  0.3451
  294MOL0     H39687   3.236   4.514   8.430 -0.1775  0.6962 -0.4215
  294MOL0     H39688   3.258   4.238   8.244  1.4469  0.0978 -0.5790
  294MOL0     H39689   3.420   4.287   8.243  0.9321 -3.3243  4.3658
  294MOL0     H39690   3.322   4.296   8.382  1.0191 -3.0717 -0.9635
  295MOL0     O39691   0.941   4.645   5.540 -0.4529 -0.2764 -0.2735
  295MOL0     C39692   0.946   4.619   5.426 -0.1844  0.3971  0.5533
  295MOL0     O39693   0.840   4.571   5.347 -0.9460  0.2769 -0.1880
  295MOL0     C39694   0.716   4.601   5.382  0.5218 -0.9363 -0.1744
  295MOL0     C39695   0.667   4.721   5.437  0.0062 -0.6266  0.5598
  295MOL0     C39696   0.534   4.750   5.444  0.2346 -0.7064 -1.0075
  295MOL0     C39697   0.432   4.661   5.401  0.0927 -0.0437 -0.6333
  295MOL0     O39698   0.293   4.671   5.393  0.0337  0.4730 -0.3781
  295MOL0     C39699   0.227   4.785   5.454 -0.3354  0.8832 -1.0547
  295MOL0     C39700   0.079   4.778   5.417 -0.3434 -0.5265 -1.2481
  295MOL0     C39701   0.052   4.821   5.274 -0.0021 -0.6942 -0.1088
  295MOL0     C39702  -0.084   4.872   5.256  0.1792 -0.7368  0.6161
  295MOL0     C39703  -0.107   4.923   5.107  0.3473 -0.0667  0.1403
  295MOL0     C39704  -0.249   4.969   5.089 -0.0215  0.1284  0.9022
  295MOL0     C39705  -0.264   5.107   5.144  0.0194  0.9886  0.1900
  295MOL0     C39706  -0.413   5.138   5.161  1.1687  0.3962  0.9351
  295MOL0     N39707  -0.437   5.268   5.227 -0.0590 -0.1582  0.4168
  295MOL0     C39708  -0.470   5.394   5.172  0.3300 -0.6669 -0.0396
  295MOL0     C39709  -0.465   5.471   5.279 -0.3305 -0.0608  0.9634
  295MOL0     C39710  -0.461   5.617   5.272  0.2340 -0.3106 -0.3941
  295MOL0     C39711  -0.310   5.675   5.280 -0.6266  1.0410  0.5486
  295MOL0     C39712  -0.292   5.816   5.252 -0.0669 -0.2674  0.4511
  295MOL0     C39713  -0.147   5.843   5.224 -0.9238  0.6106  0.3262
  295MOL0     O39714  -0.125   5.782   5.103 -0.8766  0.1456 -0.4267
  295MOL0     C39715  -0.013   5.697   5.089 -0.5140  0.3372  0.4429
  295MOL0     C39716  -0.043   5.569   5.035 -0.0711 -0.1509  0.3079
  295MOL0     C39717   0.052   5.470   5.010 -0.3933 -0.0736 -0.3298
  295MOL0     C39718   0.180   5.494   5.071  1.0643  0.3756 -0.2873
  295MOL0     C39719   0.278   5.397   5.094 -0.5761  0.1703  0.3497
  295MOL0     O39720   0.347   5.399   5.213  0.0925 -0.2218  0.1939
  295MOL0     C39721   0.440   5.304   5.219 -0.3277  0.0063  0.0238
  295MOL0     C39722   0.429   5.166   5.255  0.4198  0.5319 -1.1088
  295MOL0     C39723   0.531   5.080   5.274 -1.0483 -0.0866  0.5875
  295MOL0     C39724   0.657   5.126   5.274 -0.5439 -0.4544 -0.3204
  295MOL0     O39725   0.761   5.035   5.300  0.0892  0.1430 -0.1910
  295MOL0     C39726   0.897   5.070   5.276  0.0371 -0.5391  0.3621
  295MOL0     C39727   0.991   4.968   5.322 -0.2052  0.0267 -0.2905
  295MOL0     C39728   1.144   5.002   5.340 -0.2048 -0.0366  0.5223
  295MOL0     C39729   1.203   5.000   5.192  0.1230 -0.3260  0.4837
  295MOL0     C39730   1.340   5.076   5.174  0.1871 -0.1515  0.4443
  295MOL0     C39731   1.451   5.013   5.249 -0.1825  0.6195 -0.3449
  295MOL0     C39732   1.574   5.097   5.244 -1.1776 -0.3599  0.5647
  295MOL0     C39733   1.664   5.091   5.116  0.5999  0.2906  0.4749
  295MOL0    Cl39734   1.824   5.167   5.145 -0.0990  0.8646 -0.2368
  295MOL0     C39735   0.678   5.264   5.231  0.9211  1.0723 -0.0457
  295MOL0     C39736   0.570   5.351   5.201 -0.6322 -0.4810 -0.9747
  295MOL0     O39737   0.283   5.308   5.007 -0.1363 -0.3648  0.1447
  295MOL0     C39738   0.204   5.618   5.140 -0.4275  0.3458  0.6075
  295MOL0     C39739   0.110   5.723   5.145  0.1491 -0.2680 -0.0513
  295MOL0     N39740  -0.423   5.406   5.387  0.2204  0.3952 -0.0214
  295MOL0     N39741  -0.397   5.287   5.355  0.0371  0.4690 -0.5079
  295MOL0     C39742   0.479   4.536   5.352  0.1619 -0.6975 -0.6001
  295MOL0     C39743   0.616   4.508   5.344  0.1097  0.6833  0.6959
  295MOL0     C39744   1.079   4.612   5.364 -0.1919  0.2139 -0.5683
  295MOL0     C39745   1.091   4.558   5.240 -0.2609  0.6078  0.7150
  295MOL0     C39746   1.210   4.551   5.165  0.0565  0.1892 -0.1522
  295MOL0     C39747   1.333   4.594   5.220  0.1395 -0.2554 -0.2392
  295MOL0     O39748   1.443   4.570   5.137  0.4833  0.0531 -0.1403
  295MOL0     C39749   1.569   4.574   5.200  0.3787  0.8984 -0.7357
  295MOL0     C39750   1.677   4.500   5.133  1.0443 -0.2297  0.6256
  295MOL0     C39751   1.643   4.342   5.093  0.2400 -0.4034  0.3241
  295MOL0     C39752   1.653   4.241   5.202 -0.4508  0.5430  0.0913
  295MOL0     C39753   1.557   4.136   5.192  0.5994 -0.2416  0.1906
  295MOL0     C39754   1.472   4.052   5.168 -0.1228  0.3106  0.1693
  295MOL0     C39755   1.329   4.649   5.342 -0.9744 -1.4042 -0.5695
  295MOL0     C39756   1.208   4.659   5.419  0.4999  0.0700 -0.2436
  295MOL0     C39757   1.231   4.710   5.556  0.3198  0.3024 -0.5004
  295MOL0     H39758   0.733   4.803   5.466  0.2809 -0.7480  0.2863
  295MOL0     H39759   0.506   4.847   5.483 -1.9794 -1.3006 -1.0090
  295MOL0     H39760   0.244   4.782   5.562  1.0670  0.3213 -1.2705
  295MOL0     H39761   0.257   4.879   5.407  1.6814  0.4534 -0.7195
  295MOL0     H39762   0.036   4.852   5.486  0.6099  0.1212 -1.3274
  295MOL0     H39763   0.043   4.678   5.442 -0.2046 -0.6461 -1.5165
  295MOL0     H39764   0.068   4.731   5.214 -0.9148 -0.5431 -0.5868
  295MOL0     H39765   0.126   4.891   5.234 -0.4782  1.7382  2.8633
  295MOL0     H39766  -0.162   4.797   5.267 -1.0105  0.7267  3.0055
  295MOL0     H39767  -0.094   4.953   5.330  1.0324  0.8672 -0.9382
  295MOL0     H39768  -0.039   5.005   5.081 -2.2931  2.1676 -0.2103
  295MOL0     H39769  -0.081   4.844   5.036  0.7665  0.3632 -0.1865
  295MOL0     H39770  -0.275   4.971   4.983  1.0180 -1.0782  0.6040
  295MOL0     H39771  -0.317   4.903   5.143  3.8370 -2.9388  2.5078
  295MOL0     H39772  -0.211   5.181   5.083  0.5867  1.1167  0.8291
  295MOL0     H39773  -0.226   5.117   5.245 -0.0122  1.1063  0.1912
  295MOL0     H39774  -0.454   5.144   5.059  0.6339  0.6290  1.1575
  295MOL0     H39775  -0.466   5.064   5.221 -1.8623  1.9034  0.3704
  295MOL0     H39776  -0.502   5.422   5.073  1.6462  0.4734 -0.1710
  295MOL0     H39777  -0.508   5.647   5.179 -1.9106 -0.1404  0.6805
  295MOL0     H39778  -0.515   5.656   5.359  2.2152 -1.6973  1.6149
  295MOL0     H39779  -0.270   5.639   5.375 -0.8385 -1.6073 -0.2672
  295MOL0     H39780  -0.264   5.607   5.208 -3.3526 -1.2624  0.7978
  295MOL0     H39781  -0.333   5.875   5.334  0.9648  0.0324  0.7725
  295MOL0     H39782  -0.353   5.865   5.176  0.6034  0.1493  0.1694
  295MOL0     H39783  -0.082   5.807   5.304  2.9830  3.0044 -1.4310
  295MOL0     H39784  -0.142   5.950   5.206 -3.5610  1.0261  1.6037
  295MOL0     H39785  -0.144   5.533   5.021  0.8747 -2.7515 -0.4538
  295MOL0     H39786   0.035   5.377   4.956  2.1926 -1.3769  0.8886
  295MOL0     H39787   0.333   5.119   5.272  2.0637 -3.1240 -0.9288
  295MOL0     H39788   0.499   4.981   5.304 -1.2352 -1.1035 -2.6153
  295MOL0     H39789   0.903   5.083   5.167 -1.8710  2.2407  0.4928
  295MOL0     H39790   0.925   5.154   5.341  2.5536 -1.4435  0.5628
  295MOL0     H39791   0.974   4.943   5.427  0.2306 -0.1387 -0.2554
  295MOL0     H39792   0.969   4.872   5.273  1.4525 -0.3245 -0.4372
  295MOL0     H39793   1.150   5.095   5.398  2.7339  0.7756 -0.9304
  295MOL0     H39794   1.194   4.937   5.412  0.8854  0.2982  0.0819
  295MOL0     H39795   1.122   5.034   5.126 -1.5075 -3.4155  0.6884
  295MOL0     H39796   1.231   4.896   5.174  0.4871 -0.1349 -0.0759
  295MOL0     H39797   1.338   5.179   5.211 -0.7416  0.2635 -0.7180
  295MOL0     H39798   1.370   5.072   5.069  1.5021  0.5145  0.7658
  295MOL0     H39799   1.421   5.001   5.354  1.5985  0.5981  0.1976
  295MOL0     H39800   1.474   4.911   5.215 -1.8787 -0.4376  1.4483
  295MOL0     H39801   1.639   5.055   5.322 -0.0156 -2.1469 -1.2802
  295MOL0     H39802   1.559   5.202   5.270  1.1915  0.5118 -1.2027
  295MOL0     H39803   1.684   4.987   5.088 -0.8857 -0.0828  0.6854
  295MOL0     H39804   1.611   5.128   5.028 -2.0819 -1.4818  1.2037
  295MOL0     H39805   0.779   5.302   5.220  1.8122 -1.1491 -0.1457
  295MOL0     H39806   0.596   5.450   5.166 -3.1060  0.7938  0.5277
  295MOL0     H39807   0.303   5.639   5.180 -2.1459  3.2607  3.8903
  295MOL0     H39808   0.122   5.813   5.204 -2.4151  0.7409 -0.9605
  295MOL0     H39809   0.398   4.465   5.337 -0.7413 -0.2458  1.7285
  295MOL0     H39810   0.646   4.414   5.300 -0.0137  0.8607  0.2223
  295MOL0     H39811   1.015   4.500   5.189 -1.5075  0.7871  2.2647
  295MOL0     H39812   1.206   4.496   5.072 -5.4310 -0.8618  0.3675
  295MOL0     H39813   1.562   4.537   5.303  0.5565  0.4531 -0.8780
  295MOL0     H39814   1.587   4.682   5.202 -0.3539  1.0393 -1.2816
  295MOL0     H39815   1.760   4.499   5.204  1.1379  2.0388  0.6270
  295MOL0     H39816   1.707   4.555   5.043  0.9126 -0.8434  0.1977
  295MOL0     H39817   1.716   4.311   5.018  0.0447  0.9504 -0.4666
  295MOL0     H39818   1.539   4.348   5.061  0.8788  0.7746 -1.6819
  295MOL0     H39819   1.750   4.190   5.202  0.2505  1.5350  4.0662
  295MOL0     H39820   1.657   4.281   5.303  1.0025 -1.5460  0.9246
  295MOL0     H39821   1.391   3.986   5.142 -0.0886 -0.2185  1.3374
  295MOL0     H39822   1.425   4.681   5.381  1.4228 -3.1910 -4.4284
  295MOL0     H39823   1.242   4.631   5.631 -1.6372 -0.5402 -1.0359
  295MOL0     H39824   1.317   4.776   5.568  0.9067 -0.9561  4.9312
  295MOL0     H39825   1.154   4.780   5.592  2.0131  1.2292  1.4961
  296MOL0     O39826   1.542   3.112   5.914  0.3835 -0.4466  0.3694
  296MOL0     C39827   1.548   3.214   5.980 -0.3753  0.2047  0.1716
  296MOL0     O39828   1.486   3.242   6.106  0.5884  0.0269 -1.0284
  296MOL0     C39829   1.368   3.166   6.133 -0.2077 -0.0305  0.2416
  296MOL0     C39830   1.278   3.099   6.044 -0.7903 -0.5132 -0.1520
  296MOL0     C39831   1.161   3.041   6.089 -0.1363 -0.7028  1.0456
  296MOL0     C39832   1.117   3.044   6.223 -0.0661 -0.1694  0.7626
  296MOL0     O39833   1.000   2.993   6.270  0.0767  0.1929 -0.5880
  296MOL0     C39834   0.953   2.873   6.211 -0.0287  0.7355 -0.8232
  296MOL0     C39835   0.916   2.764   6.319 -0.3112  0.1627  0.0104
  296MOL0     C39836   1.048   2.689   6.367  0.0819  0.1238  0.7019
  296MOL0     C39837   0.993   2.565   6.447  0.0668 -0.4231  0.3988
  296MOL0     C39838   1.111   2.471   6.489 -0.3943 -0.0808  0.2215
  296MOL0     C39839   1.082   2.387   6.613  0.7546 -0.8839 -0.8219
  296MOL0     C39840   1.151   2.259   6.652 -0.6757 -0.2604  1.2602
  296MOL0     C39841   1.110   2.141   6.553  0.1447 -1.2433 -0.4006
  296MOL0     N39842   1.180   2.018   6.598  0.0371 -0.5794  0.6246
  296MOL0     C39843   1.311   2.012   6.627  0.7264 -0.2257 -0.9749
  296MOL0     C39844   1.350   1.888   6.600  0.2124 -0.6984 -0.0147
  296MOL0     C39845   1.491   1.838   6.598  0.4782 -0.1810 -0.0935
  296MOL0     C39846   1.530   1.777   6.461  1.3483 -0.8058 -0.2799
  296MOL0     C39847   1.666   1.824   6.411  0.1276 -0.1627 -0.3422
  296MOL0     C39848   1.720   1.749   6.284  0.4149  0.1395 -0.7649
  296MOL0     O39849   1.843   1.812   6.250  0.4541 -0.6575  0.3735
  296MOL0     C39850   1.857   1.929   6.176 -0.5952 -0.0111 -0.1341
  296MOL0     C39851   1.755   1.999   6.123  1.2802 -0.3917  0.8184
  296MOL0     C39852   1.784   2.099   6.026 -0.7221 -0.5922  1.0268
  296MOL0     C39853   1.916   2.143   6.010  0.6254 -0.4992 -0.8236
  296MOL0     C39854   1.938   2.264   5.929  0.2236  0.6905  0.1642
  296MOL0     O39855   1.862   2.289   5.817  0.4553 -0.2791 -0.7211
  296MOL0     C39856   1.888   2.408   5.736  0.0577 -0.7805 -0.2510
  296MOL0     C39857   1.778   2.499   5.739  0.6930  0.8591  0.3134
  296MOL0     C39858   1.794   2.606   5.652  0.6503 -0.2581  0.1247
  296MOL0     C39859   1.889   2.616   5.552 -0.9492 -0.0148 -0.6868
  296MOL0     O39860   1.884   2.726   5.467 -0.5656 -0.8903 -0.1632
  296MOL0     C39861   1.770   2.709   5.380 -0.2537 -0.3593 -0.0544
  296MOL0     C39862   1.809   2.619   5.268  0.2256  0.9493 -0.0313
  296MOL0     C39863   1.695   2.580   5.165 -0.3962 -0.2511  0.0612
  296MOL0     C39864   1.630   2.698   5.099  0.8180  0.6973  0.2171
  296MOL0     C39865   1.489   2.730   5.140  0.4901 -0.3677  0.4305
  296MOL0     C39866   1.438   2.839   5.049  0.7778 -0.5200 -0.0167
  296MOL0     C39867   1.351   2.940   5.127  0.5579  0.4750  0.3098
  296MOL0     C39868   1.301   3.043   5.036  0.0973  0.2070  0.9635
  296MOL0    Cl39869   1.430   3.148   4.969  0.1314  0.1816  0.0202
  296MOL0     C39870   2.001   2.529   5.560  0.5311  0.4275 -0.1776
  296MOL0     C39871   1.990   2.415   5.648 -0.7929  0.2869  0.4551
  296MOL0     O39872   2.010   2.344   5.986 -0.4724 -0.3359  0.3065
  296MOL0     C39873   2.024   2.081   6.088 -0.6286  0.0758 -0.0425
  296MOL0     C39874   1.997   1.970   6.164 -1.0792  0.7753  0.0085
  296MOL0     N39875   1.236   1.822   6.547  0.0928  0.1997  0.8921
  296MOL0     N39876   1.148   1.896   6.547  0.2914  0.2589  0.2017
  296MOL0     C39877   1.201   3.116   6.308  0.5874  0.3006 -0.2153
  296MOL0     C39878   1.324   3.161   6.264  0.3250 -0.2007 -0.9042
  296MOL0     C39879   1.641   3.312   5.939 -0.8810  0.6051  0.5757
  296MOL0     C39880   1.732   3.335   6.036 -0.0415 -1.1403  0.2855
  296MOL0     C39881   1.839   3.414   6.003 -0.2819 -0.4537 -0.5812
  296MOL0     C39882   1.854   3.480   5.877 -0.5520 -0.0683  0.3130
  296MOL0     O39883   1.982   3.540   5.847  0.3042 -0.0265 -0.1130
  296MOL0     C39884   2.010   3.570   5.714  0.8869 -0.0538  0.4199
  296MOL0     C39885   2.143   3.648   5.713  1.0064  0.1202  0.0917
  296MOL0     C39886   2.258   3.564   5.763  0.2603  0.0579  0.5303
  296MOL0     C39887   2.399   3.614   5.735  0.2644 -0.6881  0.5463
  296MOL0     C39888   2.428   3.598   5.591 -0.1282 -0.2522  0.3763
  296MOL0     C39889   2.454   3.581   5.467  0.0907  0.1831  0.0917
  296MOL0     C39890   1.750   3.464   5.783 -0.0571  0.9702 -0.2232
  296MOL0     C39891   1.644   3.372   5.807  0.0050  0.1495 -0.3950
  296MOL0     C39892   1.569   3.333   5.682 -0.1173  0.4357 -0.5092
  296MOL0     H39893   1.295   3.102   5.937 -4.0140  1.5041 -0.7504
  296MOL0     H39894   1.084   3.033   6.014  0.7078  2.4849 -0.3098
  296MOL0     H39895   0.873   2.910   6.145  1.1604  3.7730 -0.7207
  296MOL0     H39896   1.025   2.816   6.153 -0.4746 -0.9885  0.2466
  296MOL0     H39897   0.858   2.684   6.271 -0.7077 -0.7171  1.8582
  296MOL0     H39898   0.860   2.811   6.400 -0.8801  1.9402 -1.3646
  296MOL0     H39899   1.113   2.747   6.433  3.4194 -0.6946 -1.6115
  296MOL0     H39900   1.103   2.649   6.281 -0.3991 -2.4643  1.5135
  296MOL0     H39901   0.944   2.597   6.539 -3.5214  3.2670 -2.4277
  296MOL0     H39902   0.916   2.504   6.398 -0.1220  0.3202 -0.2450
  296MOL0     H39903   1.126   2.399   6.407 -3.7183  0.4933 -1.0508
  296MOL0     H39904   1.204   2.528   6.497 -0.3553  0.0613 -1.0338
  296MOL0     H39905   1.081   2.456   6.698  1.7940 -0.2039 -1.3376
  296MOL0     H39906   0.976   2.359   6.607  0.1639  0.0830  2.7692
  296MOL0     H39907   1.129   2.230   6.755 -0.4477 -1.0346  1.1012
  296MOL0     H39908   1.256   2.287   6.648 -0.0554 -2.2580  2.1035
  296MOL0     H39909   1.004   2.115   6.550 -0.4148 -1.6925  6.2963
  296MOL0     H39910   1.144   2.166   6.453  0.2706 -2.2190 -0.6172
  296MOL0     H39911   1.381   2.089   6.656  1.1081 -1.3024  1.1333
  296MOL0     H39912   1.554   1.923   6.628  0.4610  0.7753 -2.5217
  296MOL0     H39913   1.509   1.761   6.673  1.8267  0.3443  0.1547
  296MOL0     H39914   1.509   1.670   6.472  2.0040 -1.1546 -2.1474
  296MOL0     H39915   1.464   1.816   6.383  1.9023 -0.9086 -0.8101
  296MOL0     H39916   1.742   1.802   6.487 -1.2979 -2.5702  0.4892
  296MOL0     H39917   1.659   1.930   6.384 -3.3182  0.4449  2.2571
  296MOL0     H39918   1.650   1.748   6.200  0.6444 -1.8162 -0.9790
  296MOL0     H39919   1.726   1.645   6.316  0.1818  0.7330  1.3474
  296MOL0     H39920   1.654   1.961   6.112  0.6711  1.6135 -1.7155
  296MOL0     H39921   1.712   2.165   5.978  1.0650  1.7618  1.3746
  296MOL0     H39922   1.701   2.478   5.813  0.7910  2.0378  0.7644
  296MOL0     H39923   1.719   2.684   5.659  0.1458 -0.6674 -0.6835
  296MOL0     H39924   1.675   2.674   5.422 -0.0170  1.9918  2.8098
  296MOL0     H39925   1.748   2.807   5.336  0.4847 -0.6142 -1.0277
  296MOL0     H39926   1.885   2.679   5.217  1.8478 -0.6629  0.3926
  296MOL0     H39927   1.873   2.535   5.295 -0.3400  0.6389  0.3517
  296MOL0     H39928   1.738   2.524   5.081  0.9661 -0.3458  0.8039
  296MOL0     H39929   1.618   2.519   5.214 -1.0292 -1.5254 -2.3420
  296MOL0     H39930   1.618   2.671   4.994  0.5460  0.0046  0.4230
  296MOL0     H39931   1.704   2.777   5.116  2.4537 -0.2226 -2.1676
  296MOL0     H39932   1.480   2.759   5.245  1.9330 -0.1079  0.5101
  296MOL0     H39933   1.417   2.647   5.140 -3.4073  2.7138 -0.2565
  296MOL0     H39934   1.520   2.888   4.996 -1.1399  3.2179  0.1004
  296MOL0     H39935   1.372   2.792   4.976  2.5803 -2.8648 -0.2510
  296MOL0     H39936   1.414   2.991   5.199  0.5228  2.5660 -1.0425
  296MOL0     H39937   1.263   2.903   5.181 -1.3660  1.4838 -1.9621
  296MOL0     H39938   1.250   2.988   4.956  0.1654  0.0797  1.0060
  296MOL0     H39939   1.226   3.107   5.081  2.1116  1.5659  2.5948
  296MOL0     H39940   2.086   2.532   5.492  0.9449  2.0935  0.3726
  296MOL0     H39941   2.070   2.344   5.669 -0.3724  0.9472  1.1509
  296MOL0     H39942   2.119   2.132   6.089 -0.9602  0.8226 -1.8639
  296MOL0     H39943   2.076   1.921   6.218  0.0757  2.0447 -0.4569
  296MOL0     H39944   1.146   3.143   6.398 -2.3312 -2.8262 -0.8355
  296MOL0     H39945   1.378   3.224   6.334 -0.7545 -2.1995  1.9116
  296MOL0     H39946   1.721   3.289   6.134 -2.6547 -0.3352  0.4393
  296MOL0     H39947   1.919   3.422   6.076 -1.1178  3.5662  0.1266
  296MOL0     H39948   1.924   3.626   5.678  1.0775  1.6172  2.3810
  296MOL0     H39949   2.020   3.476   5.659  0.4786 -0.7692  1.5543
  296MOL0     H39950   2.135   3.729   5.787  4.2338 -1.2751  2.1831
  296MOL0     H39951   2.169   3.687   5.614 -1.0714 -0.9255 -0.9196
  296MOL0     H39952   2.247   3.469   5.710 -2.6578  0.6040 -0.0411
  296MOL0     H39953   2.238   3.538   5.867 -0.8988  0.8713  0.5270
  296MOL0     H39954   2.425   3.712   5.776  0.3463 -0.2537 -0.5167
  296MOL0     H39955   2.463   3.541   5.786 -0.6217 -0.4185  2.1280
  296MOL0     H39956   2.463   3.556   5.363  0.5243 -2.2968  0.6619
  296MOL0     H39957   1.754   3.496   5.679 -0.6445 -1.8253 -1.1745
  296MOL0     H39958   1.642   3.309   5.605 -0.1702  1.4815 -0.9043
  296MOL0     H39959   1.509   3.244   5.705  1.1214 -0.5825 -1.0994
  296MOL0     H39960   1.500   3.415   5.659 -3.2521 -2.1718 -1.0294
  297MOL0     O39961   9.375   6.543  10.377 -0.6834  0.0178 -0.6854
  297MOL0     C39962   9.338   6.424  10.397  0.2735  1.0496 -0.4668
  297MOL0     O39963   9.314   6.378  10.522 -0.0101 -0.3691 -0.4455
  297MOL0     C39964   9.303   6.467  10.629  0.8667 -0.9970  1.2701
  297MOL0     C39965   9.181   6.526  10.668 -0.0556  0.7659 -0.2929
  297MOL0     C39966   9.169   6.602  10.780 -0.2848 -0.0854 -0.5407
  297MOL0     C39967   9.278   6.627  10.864  0.5834 -0.2546 -0.5140
  297MOL0     O39968   9.255   6.703  10.972 -0.4310 -0.0887  0.0139
  297MOL0     C39969   9.369   6.759  11.036 -0.6892  0.4623 -1.1986
  297MOL0     C39970   9.327   6.855  11.140  0.7146 -0.7157 -0.4750
  297MOL0     C39971   9.440   6.935  11.218  0.9344 -0.6670 -0.9076
  297MOL0     C39972   9.473   7.066  11.143  1.4241  0.2791 -0.3166
  297MOL0     C39973   9.550   7.148  11.240  0.0112  0.3239  0.7359
  297MOL0     C39974   9.697   7.125  11.252 -2.0669  0.7250  0.4729
  297MOL0     C39975   9.772   7.179  11.369  0.3505  0.1612 -0.0445
  297MOL0     C39976   9.792   7.337  11.367 -0.3573 -0.6600  0.8032
  297MOL0     N39977   9.894   7.373  11.269  0.2533  0.5172 -0.6918
  297MOL0     C39978  10.031   7.404  11.290 -0.0219  0.6091  0.0376
  297MOL0     C39979  10.069   7.434  11.168  0.0985 -0.1893 -0.2182
  297MOL0     C39980  10.216   7.462  11.134 -1.5540  0.2825 -1.5190
  297MOL0     C39981  10.311   7.338  11.123 -0.2901  0.4739  0.9124
  297MOL0     C39982  10.268   7.248  11.010  0.1653  0.8986  0.4421
  297MOL0     C39983  10.260   7.313  10.868  0.3130 -0.8277 -0.6339
  297MOL0     O39984  10.381   7.389  10.831  0.3421  0.1900 -0.0410
  297MOL0     C39985  10.490   7.316  10.793 -0.7453  0.1234  0.6222
  297MOL0     C39986  10.621   7.350  10.838  0.7478 -0.0903 -0.4294
  297MOL0     C39987  10.736   7.284  10.787 -0.1028 -0.2514 -0.6081
  297MOL0     C39988  10.723   7.171  10.707 -0.8229 -0.8633  0.2900
  297MOL0     C39989  10.837   7.101  10.657  0.0713 -0.0953 -0.6833
  297MOL0     O39990  10.832   6.963  10.634 -0.8466  0.4461 -0.1157
  297MOL0     C39991  10.949   6.891  10.621 -0.4275  0.0832 -0.6924
  297MOL0     C39992  10.990   6.798  10.711  0.4655 -0.3863 -0.7007
  297MOL0     C39993  11.112   6.726  10.691  0.3043  0.4977  0.9290
  297MOL0     C39994  11.191   6.754  10.575 -0.6625  0.8603  0.2575
  297MOL0     O39995  11.317   6.693  10.548  0.7180  0.2653 -0.0771
  297MOL0     C39996  11.343   6.565  10.612 -0.4794 -0.5741  0.7471
  297MOL0     C39997  11.253   6.458  10.555 -0.3662  0.2781 -0.0599
  297MOL0     C39998  11.299   6.316  10.582  0.2518 -0.2935  0.1940
  297MOL0     C39999  11.401   6.251  10.486 -0.5212 -0.4353  0.2483
  297MOL0     C40000  11.431   6.102  10.522 -0.4676  0.0866 -0.0807
  297MOL0     C40001  11.488   6.083  10.666 -0.0626 -0.7957 -0.1162
  297MOL0     C40002  11.526   5.947  10.712 -0.8896  0.3517 -0.3559
  297MOL0     C40003  11.656   5.899  10.658 -0.3512 -0.3321  0.5241
  297MOL0    Cl40004  11.774   6.020  10.698  0.4366  1.1293  0.1163
  297MOL0     C40005  11.143   6.838  10.478  0.7200 -0.3430 -0.5074
  297MOL0     C40006  11.022   6.911  10.495  0.0679  0.5681 -0.2408
  297MOL0     O40007  10.930   7.172  10.654  0.3914 -0.0312  0.3426
  297MOL0     C40008  10.594   7.137  10.668 -0.6099  0.3116  1.2144
  297MOL0     C40009  10.481   7.202  10.712  0.2299 -0.0505  0.1315
  297MOL0     N40010   9.968   7.440  11.077 -0.8510  0.5491 -1.2131
  297MOL0     N40011   9.866   7.400  11.136  0.0558 -0.3129 -0.1573
  297MOL0     C40012   9.398   6.558  10.828  0.7928 -0.4914  0.9630
  297MOL0     C40013   9.407   6.479  10.713 -0.4866  0.7331 -0.3165
  297MOL0     C40014   9.323   6.336  10.277 -0.1774 -0.1085 -0.6860
  297MOL0     C40015   9.207   6.254  10.257 -0.3655 -0.2572 -0.3627
  297MOL0     C40016   9.188   6.188  10.138  0.4029 -0.1540 -0.6002
  297MOL0     C40017   9.280   6.199  10.027 -0.7266  0.5828 -0.4926
  297MOL0     O40018   9.260   6.111   9.919  0.6902 -0.3263 -0.0758
  297MOL0     C40019   9.363   6.073   9.837 -0.2577  0.0156  0.3014
  297MOL0     C40020   9.369   6.161   9.716 -0.5834  0.2361 -0.7759
  297MOL0     C40021   9.428   6.091   9.591  0.6438  1.4247  0.1351
  297MOL0     C40022   9.576   6.083   9.604 -0.4853 -0.3849  0.2730
  297MOL0     C40023   9.635   5.986   9.509 -0.7157  0.9249  0.0817
  297MOL0     C40024   9.697   5.909   9.430  0.0021 -0.3023  0.4272
  297MOL0     C40025   9.393   6.278  10.049 -0.1049  0.3328  0.4222
  297MOL0     C40026   9.421   6.348  10.171  0.5316 -0.0480 -0.5688
  297MOL0     C40027   9.553   6.417  10.189 -0.5793 -0.0807  0.3257
  297MOL0     H40028   9.099   6.509  10.598 -2.7794 -1.7384  3.1585
  297MOL0     H40029   9.075   6.645  10.813 -0.4182 -0.0822 -0.9178
  297MOL0     H40030   9.439   6.687  11.080  0.6152  0.1717 -3.5939
  297MOL0     H40031   9.425   6.819  10.963  0.0850  4.6002  2.3899
  297MOL0     H40032   9.266   6.798  11.211  2.2722  0.7443  2.1959
  297MOL0     H40033   9.259   6.927  11.093  0.0476  0.2461  1.8183
  297MOL0     H40034   9.531   6.877  11.235  0.8558 -0.1570  1.6625
  297MOL0     H40035   9.389   6.959  11.312  0.3970  1.0999 -1.6164
  297MOL0     H40036   9.536   7.031  11.060 -0.9251 -0.3005 -1.9503
  297MOL0     H40037   9.387   7.128  11.117  0.0428 -2.0237 -1.5295
  297MOL0     H40038   9.539   7.253  11.211 -1.7140 -0.1068 -0.2873
  297MOL0     H40039   9.497   7.143  11.336 -0.3125 -0.4901  0.5204
  297MOL0     H40040   9.712   7.017  11.246 -0.1888  1.0188 -0.8821
  297MOL0     H40041   9.737   7.154  11.155  1.2008  3.4773  2.4117
  297MOL0     H40042   9.871   7.134  11.382  1.0669  1.2007 -1.5397
  297MOL0     H40043   9.721   7.150  11.461 -0.1681  0.5487 -0.2001
  297MOL0     H40044   9.700   7.388  11.337 -0.4814 -1.5125 -0.3263
  297MOL0     H40045   9.829   7.371  11.465 -0.8628  0.1592  0.7188
  297MOL0     H40046  10.090   7.412  11.381 -0.5915  0.6518  0.4050
  297MOL0     H40047  10.237   7.536  11.056  0.8704 -1.0995 -2.2727
  297MOL0     H40048  10.253   7.518  11.220 -0.1588 -1.5033 -0.9045
  297MOL0     H40049  10.414   7.374  11.118  0.1105 -0.2671  2.6985
  297MOL0     H40050  10.302   7.290  11.221 -1.7880  1.9633  1.5380
  297MOL0     H40051  10.172   7.200  11.030 -0.4364  2.2699  0.9408
  297MOL0     H40052  10.341   7.167  10.999 -3.9530 -2.9431 -1.6764
  297MOL0     H40053  10.186   7.394  10.877  1.1507  0.1626 -2.2351
  297MOL0     H40054  10.222   7.236  10.800 -1.0796  0.2669 -1.1496
  297MOL0     H40055  10.611   7.441  10.897 -1.0047 -1.5711  1.7228
  297MOL0     H40056  10.831   7.316  10.828  0.4456 -0.8401 -1.3845
  297MOL0     H40057  10.922   6.795  10.796 -1.1698  0.8265 -1.9134
  297MOL0     H40058  11.146   6.652  10.763  3.2669  1.1514  0.3435
  297MOL0     H40059  11.447   6.546  10.586 -0.3401  0.3208  0.6228
  297MOL0     H40060  11.328   6.568  10.720  1.9324  3.3370  1.1543
  297MOL0     H40061  11.153   6.476  10.594  0.0668  0.1725  1.1300
  297MOL0     H40062  11.249   6.466  10.446 -4.0246 -0.9824 -0.1434
  297MOL0     H40063  11.352   6.329  10.677 -2.4428  1.2715  1.6170
  297MOL0     H40064  11.216   6.246  10.596 -0.5315  0.7871  1.1301
  297MOL0     H40065  11.497   6.302  10.481 -0.7336 -0.1500 -1.2624
  297MOL0     H40066  11.358   6.250  10.385 -1.8043  0.7378  0.7469
  297MOL0     H40067  11.501   6.060  10.449  0.9720 -0.9835  1.8306
  297MOL0     H40068  11.346   6.033  10.516 -1.7789  1.6856 -1.0308
  297MOL0     H40069  11.566   6.159  10.682  0.8261 -1.5258 -0.8400
  297MOL0     H40070  11.403   6.111  10.728 -0.9391 -3.4278 -0.0116
  297MOL0     H40071  11.447   5.874  10.696  1.2868 -1.7479 -2.1625
  297MOL0     H40072  11.531   5.956  10.821 -1.3073 -0.0669 -0.3009
  297MOL0     H40073  11.680   5.800  10.697  1.6425 -1.2494 -2.6615
  297MOL0     H40074  11.646   5.881  10.550 -1.0659  0.6779  0.4067
  297MOL0     H40075  11.200   6.857  10.387 -1.6224 -1.7456 -2.3786
  297MOL0     H40076  10.981   6.984  10.427  0.3624  0.4772 -0.5228
  297MOL0     H40077  10.593   7.057  10.594 -0.8984  0.5186  0.9935
  297MOL0     H40078  10.383   7.158  10.700 -0.1381  0.4218  1.3168
  297MOL0     H40079   9.489   6.554  10.886  0.1109 -0.7703  2.0427
  297MOL0     H40080   9.501   6.433  10.688 -0.3791  1.2190 -0.8363
  297MOL0     H40081   9.141   6.244  10.343  0.3867  0.3759  0.3004
  297MOL0     H40082   9.115   6.108  10.145  1.0763 -0.6617  3.2923
  297MOL0     H40083   9.349   5.967   9.815  1.9757 -0.6321  1.6570
  297MOL0     H40084   9.457   6.082   9.892 -1.0884 -1.2991  2.0322
  297MOL0     H40085   9.408   6.261   9.736 -0.0067  0.2690 -1.9953
  297MOL0     H40086   9.262   6.177   9.696 -0.6868  1.5404  0.5992
  297MOL0     H40087   9.407   6.144   9.497  0.8927 -1.3552 -1.6145
  297MOL0     H40088   9.371   5.998   9.584 -0.3203  1.9074  1.2996
  297MOL0     H40089   9.634   6.175   9.590  1.2270 -1.0119  2.5436
  297MOL0     H40090   9.595   6.048   9.707  0.0670  0.8596  0.6119
  297MOL0     H40091   9.761   5.860   9.360  0.8290  0.3415  0.7117
  297MOL0     H40092   9.475   6.277   9.977 -0.5588 -3.1249 -0.2430
  297MOL0     H40093   9.635   6.389  10.122  0.1731 -0.4000  1.3559
  297MOL0     H40094   9.549   6.525  10.170 -0.4352 -0.0590  0.4176
  297MOL0     H40095   9.587   6.395  10.291 -2.0710  2.2410  1.4128
  298MOL0     O40096   3.747   3.368   5.014  0.1879  0.4044 -0.3927
  298MOL0     C40097   3.660   3.455   4.980  0.3151  0.1711  0.6419
  298MOL0     O40098   3.543   3.439   4.911 -0.0088  0.6225 -0.5293
  298MOL0     C40099   3.507   3.299   4.900  0.1735  0.3616 -0.2516
  298MOL0     C40100   3.402   3.256   4.967 -0.1030 -0.1689  0.9280
  298MOL0     C40101   3.348   3.122   4.953 -0.3976 -0.2795  0.0419
  298MOL0     C40102   3.417   3.031   4.864  0.7759  0.4803  0.0926
  298MOL0     O40103   3.375   2.899   4.875  0.4579  0.1423 -0.0143
  298MOL0     C40104   3.386   2.812   4.761 -0.2338  0.5130  1.2379
  298MOL0     C40105   3.277   2.701   4.762  1.1368  0.1131  0.4751
  298MOL0     C40106   3.131   2.755   4.780 -0.3686  1.3878 -0.9373
  298MOL0     C40107   3.089   2.850   4.666 -0.3599  0.1260  0.0738
  298MOL0     C40108   2.942   2.867   4.641  0.7214 -0.0069  0.2296
  298MOL0     C40109   2.908   2.928   4.512  0.0665 -1.4022 -0.0155
  298MOL0     C40110   2.752   2.928   4.506  0.5118  0.5524  0.7011
  298MOL0     C40111   2.679   3.018   4.604  0.3267  0.0628 -0.7411
  298MOL0     N40112   2.535   3.041   4.589 -0.5144  0.1483 -0.9362
  298MOL0     C40113   2.491   3.154   4.524 -0.7809 -0.1646 -0.4131
  298MOL0     C40114   2.353   3.142   4.530 -0.1852  0.3062  0.1089
  298MOL0     C40115   2.257   3.255   4.478 -1.2378 -0.1132 -0.2178
  298MOL0     C40116   2.133   3.209   4.410 -0.0349  0.4183 -0.7397
  298MOL0     C40117   2.075   3.328   4.340 -0.1501  0.1821  0.4611
  298MOL0     C40118   2.008   3.429   4.434 -0.4907  0.3946  0.8465
  298MOL0     O40119   1.917   3.355   4.526 -0.0470 -0.2918  0.9389
  298MOL0     C40120   1.825   3.429   4.594  0.8817 -0.5691 -0.4959
  298MOL0     C40121   1.721   3.355   4.671  0.3386  0.1135  0.2898
  298MOL0     C40122   1.621   3.421   4.742 -0.3968 -1.1875  0.5999
  298MOL0     C40123   1.608   3.564   4.737 -0.4470 -0.1271 -0.5102
  298MOL0     C40124   1.499   3.634   4.820  0.4649 -0.1209 -0.0970
  298MOL0     O40125   1.421   3.563   4.900 -0.0078  0.4244  0.6038
  298MOL0     C40126   1.338   3.616   4.988  0.7047 -0.5724  0.2492
  298MOL0     C40127   1.195   3.604   4.986  1.2234 -0.8365 -0.1647
  298MOL0     C40128   1.115   3.652   5.086 -0.6082  0.3244  0.5199
  298MOL0     C40129   1.172   3.719   5.192  0.0665 -0.2413 -0.2216
  298MOL0     O40130   1.100   3.782   5.293 -0.3828  0.1283  0.0269
  298MOL0     C40131   0.972   3.717   5.320 -1.0051  0.2581  0.4662
  298MOL0     C40132   0.941   3.706   5.471 -0.2567 -0.5656 -0.0408
  298MOL0     C40133   0.909   3.846   5.523 -0.2336  0.2343 -0.0228
  298MOL0     C40134   0.915   3.857   5.677  0.3364 -0.4088 -0.0086
  298MOL0     C40135   0.824   3.967   5.750 -0.2689  0.3897 -0.0290
  298MOL0     C40136   0.838   3.964   5.906  0.8805  0.0961  0.1849
  298MOL0     C40137   0.757   3.847   5.963  0.3081 -0.7054  0.4462
  298MOL0     C40138   0.731   3.863   6.115  0.1254 -0.2408  0.4529
  298MOL0    Cl40139   0.899   3.867   6.189  0.8494  0.2334  0.0771
  298MOL0     C40140   1.310   3.744   5.192 -0.2925 -0.3541  0.6783
  298MOL0     C40141   1.391   3.691   5.097  0.7704 -1.0128  0.2938
  298MOL0     O40142   1.502   3.758   4.815 -0.2145  0.2140  0.1495
  298MOL0     C40143   1.709   3.634   4.663  0.0895  0.8278  0.6273
  298MOL0     C40144   1.814   3.568   4.593  1.0988  0.1366 -0.3009
  298MOL0     N40145   2.324   3.034   4.618  0.3952 -0.5406  0.6456
  298MOL0     N40146   2.433   2.973   4.653 -0.1538 -0.4299 -0.2151
  298MOL0     C40147   3.526   3.082   4.789  0.4131  0.6310  0.1671
  298MOL0     C40148   3.560   3.214   4.805  0.5729  0.1029  0.4332
  298MOL0     C40149   3.691   3.586   5.018 -0.8761 -0.2009 -0.4666
  298MOL0     C40150   3.828   3.634   5.028 -0.4717  1.5415  0.8057
  298MOL0     C40151   3.861   3.761   5.071 -0.1548 -0.0338 -0.2812
  298MOL0     C40152   3.759   3.850   5.099 -0.1083  0.8414  0.3085
  298MOL0     O40153   3.806   3.975   5.134  0.1100 -0.1040 -0.0891
  298MOL0     C40154   3.708   4.080   5.154  0.4027  0.4383 -0.0868
  298MOL0     C40155   3.765   4.218   5.130  1.0557  0.0852 -0.0396
  298MOL0     C40156   3.803   4.224   4.977  0.6442 -0.2562 -0.2154
  298MOL0     C40157   3.885   4.348   4.940 -0.3077  0.6047 -0.0911
  298MOL0     C40158   4.008   4.365   5.025  0.8491 -0.1360  0.2807
  298MOL0     C40159   4.114   4.377   5.088  1.0264  0.4058  0.2262
  298MOL0     C40160   3.629   3.808   5.100  0.4790 -0.7411  0.7868
  298MOL0     C40161   3.591   3.681   5.049  0.1564  0.2105  0.1401
  298MOL0     C40162   3.441   3.665   5.046  1.8299  0.5875 -0.2170
  298MOL0     H40163   3.346   3.310   5.043 -3.8420 -2.9839  0.4827
  298MOL0     H40164   3.256   3.092   5.001 -1.1967  0.4886 -0.9797
  298MOL0     H40165   3.375   2.872   4.671 -3.4590 -1.3762  0.1795
  298MOL0     H40166   3.486   2.773   4.780  0.2195  2.9094  4.8269
  298MOL0     H40167   3.305   2.622   4.832  2.6955 -0.8389 -1.1282
  298MOL0     H40168   3.271   2.660   4.660  0.8560  1.2950  0.0049
  298MOL0     H40169   3.112   2.799   4.878 -0.8961 -0.4549 -0.1578
  298MOL0     H40170   3.070   2.664   4.778  2.5519 -0.7453 -1.0466
  298MOL0     H40171   3.130   2.949   4.684  0.1473  0.1451 -1.0489
  298MOL0     H40172   3.138   2.820   4.573  0.3541  4.4746 -1.1691
  298MOL0     H40173   2.901   2.766   4.634  1.9764 -0.4916 -0.5436
  298MOL0     H40174   2.892   2.914   4.726  0.3397  0.2084 -0.1109
  298MOL0     H40175   2.953   3.026   4.494 -2.2801 -0.0394  1.0858
  298MOL0     H40176   2.956   2.863   4.438  0.6528 -0.9325 -0.0511
  298MOL0     H40177   2.713   2.827   4.520  1.8031  0.3443  3.5843
  298MOL0     H40178   2.732   2.961   4.404  1.1105  1.0438  0.7352
  298MOL0     H40179   2.682   2.977   4.705 -1.1544 -2.3796 -1.5947
  298MOL0     H40180   2.736   3.110   4.618 -2.9391  2.0593  0.4403
  298MOL0     H40181   2.552   3.224   4.467 -1.3481  1.9807  1.4921
  298MOL0     H40182   2.232   3.330   4.554 -2.4564  1.1865 -1.8198
  298MOL0     H40183   2.310   3.309   4.399 -0.3178  0.1441  0.5542
  298MOL0     H40184   2.157   3.127   4.342  2.1373  1.7335 -1.6697
  298MOL0     H40185   2.072   3.158   4.486  0.1427  0.4110 -0.6026
  298MOL0     H40186   1.992   3.285   4.283 -0.0979  0.3851  0.2345
  298MOL0     H40187   2.149   3.368   4.272  1.8224  0.2864  2.5550
  298MOL0     H40188   1.971   3.516   4.379  0.1347  0.8816  1.1838
  298MOL0     H40189   2.101   3.463   4.480  1.4317 -0.3733 -2.1734
  298MOL0     H40190   1.725   3.247   4.678 -3.2495 -0.0518  2.7137
  298MOL0     H40191   1.553   3.371   4.810 -4.1852 -0.9001 -2.6699
  298MOL0     H40192   1.148   3.556   4.901 -0.8473 -2.3179  1.7083
  298MOL0     H40193   1.009   3.632   5.083 -0.3890 -0.9105  0.7968
  298MOL0     H40194   0.891   3.762   5.262  1.9489  1.4373 -3.1311
  298MOL0     H40195   0.974   3.614   5.282  0.4665  0.7814 -1.0144
  298MOL0     H40196   0.849   3.646   5.473 -0.6012 -0.0464 -0.0139
  298MOL0     H40197   1.024   3.666   5.530 -0.0713  2.3268  1.8899
  298MOL0     H40198   0.983   3.905   5.469  1.5760 -0.6772  1.3568
  298MOL0     H40199   0.812   3.880   5.486 -0.4779 -1.7519 -1.4026
  298MOL0     H40200   1.012   3.878   5.722 -1.8073  1.7541  4.3210
  298MOL0     H40201   0.900   3.757   5.719 -2.0574 -0.1374 -0.0243
  298MOL0     H40202   0.721   3.964   5.713  0.1724 -2.5658 -1.3415
  298MOL0     H40203   0.866   4.062   5.717 -0.0701 -0.1469 -1.3815
  298MOL0     H40204   0.943   3.956   5.938  0.8551 -0.3198  0.1796
  298MOL0     H40205   0.806   4.055   5.956  1.9368  0.0722  0.9617
  298MOL0     H40206   0.812   3.754   5.953  0.3341 -0.5415 -1.2497
  298MOL0     H40207   0.666   3.834   5.903  0.8249  0.6554 -0.6976
  298MOL0     H40208   0.673   3.953   6.136  1.2987  1.0623 -1.5402
  298MOL0     H40209   0.676   3.775   6.152  0.3779 -1.8353 -2.6219
  298MOL0     H40210   1.360   3.805   5.266  0.1579  0.5756 -0.3559
  298MOL0     H40211   1.495   3.720   5.096  0.8042 -1.1001 -0.8687
  298MOL0     H40212   1.714   3.742   4.672  0.9781  0.9478 -0.8820
  298MOL0     H40213   1.890   3.628   4.544  1.8214 -0.4099  0.1304
  298MOL0     H40214   3.575   3.015   4.718  0.5087  0.3473  0.4988
  298MOL0     H40215   3.646   3.247   4.748 -1.3187  1.0722 -2.0766
  298MOL0     H40216   3.912   3.567   5.011 -5.1669 -4.5845 -2.3202
  298MOL0     H40217   3.960   3.802   5.088  0.7249 -2.6578  1.4800
  298MOL0     H40218   3.678   4.073   5.259  0.5512 -0.0996 -0.0781
  298MOL0     H40219   3.626   4.062   5.083  0.5494  4.1015 -1.4154
  298MOL0     H40220   3.851   4.220   5.197  2.1087  2.9034 -1.3206
  298MOL0     H40221   3.689   4.293   5.152  0.4786 -0.8519  1.3038
  298MOL0     H40222   3.705   4.225   4.927 -0.3153 -1.7827  1.5092
  298MOL0     H40223   3.857   4.135   4.944  1.1544 -0.4797  1.1938
  298MOL0     H40224   3.915   4.344   4.835 -1.3138 -2.0931 -0.3428
  298MOL0     H40225   3.816   4.429   4.966 -3.1400 -1.6198 -0.1543
  298MOL0     H40226   4.197   4.382   5.155 -0.8324 -1.4752  2.8579
  298MOL0     H40227   3.543   3.861   5.140 -1.3770 -2.1408 -1.0856
  298MOL0     H40228   3.404   3.588   5.113 -1.0153  0.1966 -2.0649
  298MOL0     H40229   3.392   3.759   5.076  0.3755 -0.2757  0.1867
  298MOL0     H40230   3.421   3.645   4.940 -1.0853  2.3466 -0.1062
  299MOL0     O40231  11.457   7.433  11.170 -0.0401  0.3151 -0.0465
  299MOL0     C40232  11.335   7.433  11.140  0.2914 -0.6793 -0.4778
  299MOL0     O40233  11.269   7.352  11.059  0.1906  0.6108  0.8789
  299MOL0     C40234  11.333   7.275  10.964  0.3106 -0.7023  0.1643
  299MOL0     C40235  11.256   7.164  10.929 -0.0902 -0.8329 -0.1782
  299MOL0     C40236  11.305   7.069  10.839  0.1461 -0.3434  1.1455
  299MOL0     C40237  11.433   7.078  10.792 -0.7123 -0.3016 -0.6798
  299MOL0     O40238  11.474   6.983  10.704 -0.1814 -0.0510  0.2206
  299MOL0     C40239  11.436   7.006  10.568 -0.6420 -0.0548 -0.0914
  299MOL0     C40240  11.517   7.107  10.503 -0.3836  0.0614  0.3123
  299MOL0     C40241  11.477   7.148  10.354 -0.2174  0.0157 -0.0080
  299MOL0     C40242  11.602   7.199  10.282 -0.3594  0.7282 -0.5144
  299MOL0     C40243  11.581   7.273  10.151  0.1433 -0.7337 -0.5669
  299MOL0     C40244  11.492   7.401  10.171 -0.2245  0.4316  0.4306
  299MOL0     C40245  11.510   7.500  10.051 -0.3929 -0.2444 -0.9815
  299MOL0     C40246  11.403   7.601  10.043 -0.4606 -0.1197 -0.4795
  299MOL0     N40247  11.272   7.547  10.008 -0.3614  0.3777 -0.1879
  299MOL0     C40248  11.211   7.544   9.885 -0.3726  0.4686  1.2051
  299MOL0     C40249  11.088   7.510   9.912 -0.0887 -0.0771  0.5852
  299MOL0     C40250  10.972   7.501   9.814  0.5037  0.4401  1.0434
  299MOL0     C40251  10.829   7.517   9.876 -0.2131  0.5716 -0.8879
  299MOL0     C40252  10.722   7.451   9.792  0.0998 -0.1272  0.2544
  299MOL0     C40253  10.589   7.449   9.876  0.8513  0.1873  0.3731
  299MOL0     O40254  10.533   7.571   9.838  0.5936 -0.2441 -0.4290
  299MOL0     C40255  10.410   7.605   9.889 -0.0522 -0.5459  0.3343
  299MOL0     C40256  10.343   7.529   9.983 -0.4407  0.7860  0.6849
  299MOL0     C40257  10.229   7.571  10.046  0.7581 -0.3340  1.0830
  299MOL0     C40258  10.173   7.696  10.014  0.3048  0.5909  0.3315
  299MOL0     C40259  10.048   7.760  10.069 -0.8590  1.1142 -0.3602
  299MOL0     O40260  10.015   7.736  10.200 -0.1293 -0.0289 -0.8386
  299MOL0     C40261   9.904   7.771  10.269  0.0012 -0.8629  1.1389
  299MOL0     C40262   9.871   7.906  10.273 -0.5520 -0.8242  0.3970
  299MOL0     C40263   9.767   7.954  10.351 -0.3636 -0.1060  0.1058
  299MOL0     C40264   9.686   7.866  10.426  0.1168  0.5777  0.3176
  299MOL0     O40265   9.592   7.928  10.508 -0.4497  0.1689 -0.2539
  299MOL0     C40266   9.503   7.838  10.579 -0.0709 -0.7512  0.0157
  299MOL0     C40267   9.405   7.933  10.654 -0.1521  0.3792 -0.4620
  299MOL0     C40268   9.296   7.852  10.706  0.3556  0.6991 -0.2189
  299MOL0     C40269   9.194   7.941  10.779  0.0409  0.0345 -0.1766
  299MOL0     C40270   9.074   7.869  10.834 -0.3286  0.1672 -0.2897
  299MOL0     C40271   9.014   7.976  10.924 -0.9125  0.9978  0.9853
  299MOL0     C40272   8.883   7.944  10.987 -0.2682  0.1812  0.1934
  299MOL0     C40273   8.884   7.811  11.059 -0.2349 -0.9105  0.1239
  299MOL0    Cl40274   8.714   7.795  11.140  0.1146 -0.0114  0.3839
  299MOL0     C40275   9.721   7.726  10.418 -0.2088 -0.6190 -0.7948
  299MOL0     C40276   9.833   7.685  10.349  0.2166  0.2744  0.5670
  299MOL0     O40277   9.987   7.840   9.993 -0.3142  0.0937 -0.3564
  299MOL0     C40278  10.232   7.766   9.908  1.1861  0.3476 -0.0060
  299MOL0     C40279  10.345   7.717   9.849 -0.6250  0.2720  0.8171
  299MOL0     N40280  11.071   7.502  10.046  0.3686 -0.3800 -0.1617
  299MOL0     N40281  11.177   7.527  10.101  0.2186 -0.0617  0.0726
  299MOL0     C40282  11.515   7.187  10.830 -0.7146 -0.5447 -0.5367
  299MOL0     C40283  11.464   7.284  10.913  0.3204 -0.5814  1.5414
  299MOL0     C40284  11.258   7.522  11.232 -0.7181  0.9565 -1.0250
  299MOL0     C40285  11.329   7.625  11.296  0.6701  0.5505 -0.4299
  299MOL0     C40286  11.270   7.719  11.372  0.6097  0.2469  0.4163
  299MOL0     C40287  11.139   7.713  11.404  0.1989  0.8076 -0.3196
  299MOL0     O40288  11.096   7.819  11.479  0.1789  0.7465 -0.7258
  299MOL0     C40289  10.994   7.778  11.572  0.5060 -0.1861 -0.2827
  299MOL0     C40290  10.970   7.892  11.674  0.0522  0.6207  0.0589
  299MOL0     C40291  10.869   7.846  11.782 -1.2056  0.5051  0.3527
  299MOL0     C40292  10.810   7.955  11.872 -1.2149  0.6226  0.0595
  299MOL0     C40293  10.725   8.045  11.804 -0.8505  1.4009  0.0379
  299MOL0     C40294  10.649   8.125  11.766 -0.5762 -0.6927  0.8985
  299MOL0     C40295  11.055   7.618  11.334 -0.3738  0.5984 -0.2090
  299MOL0     C40296  11.117   7.517  11.256  1.0944  0.0735  0.0931
  299MOL0     C40297  11.030   7.402  11.205 -0.2002 -0.2406 -0.0022
  299MOL0     H40298  11.159   7.169  10.976  0.9651  0.9259  1.9591
  299MOL0     H40299  11.233   6.995  10.803 -0.7507  0.9277  0.2097
  299MOL0     H40300  11.439   6.919  10.501 -2.9533  0.3520 -0.8342
  299MOL0     H40301  11.334   7.046  10.568 -0.9993 -0.9368  0.8267
  299MOL0     H40302  11.618   7.066  10.498 -0.6034 -0.3694 -3.4338
  299MOL0     H40303  11.515   7.200  10.561  1.1996 -1.1354  2.4397
  299MOL0     H40304  11.402   7.226  10.364 -0.5244 -0.5119  2.2525
  299MOL0     H40305  11.439   7.064  10.294  2.5435 -0.4560 -1.2764
  299MOL0     H40306  11.652   7.259  10.358 -0.4396 -1.0039  0.9748
  299MOL0     H40307  11.674   7.120  10.257  0.6626  1.4248  0.1313
  299MOL0     H40308  11.681   7.304  10.119  0.4720 -0.4483  0.6809
  299MOL0     H40309  11.536   7.212  10.073 -0.8119 -0.1329 -0.5004
  299MOL0     H40310  11.387   7.370  10.167 -0.1358  0.0378 -3.8927
  299MOL0     H40311  11.508   7.457  10.263 -0.4632 -0.3546  0.9527
  299MOL0     H40312  11.508   7.449   9.954  0.7321  1.3769 -1.9187
  299MOL0     H40313  11.609   7.545  10.057 -1.1155  1.2288  1.3615
  299MOL0     H40314  11.386   7.650  10.139 -0.6638 -2.4585  0.7552
  299MOL0     H40315  11.444   7.670   9.968  0.1803 -2.7313 -2.6988
  299MOL0     H40316  11.254   7.565   9.788  0.5311 -3.3350  0.6632
  299MOL0     H40317  10.989   7.562   9.724  1.9639 -0.1640  0.8850
  299MOL0     H40318  10.979   7.399   9.776 -1.8459  0.8602 -0.7421
  299MOL0     H40319  10.820   7.467   9.973  0.2927  1.1272 -0.5497
  299MOL0     H40320  10.801   7.622   9.885 -1.7339  0.0343  1.5773
  299MOL0     H40321  10.755   7.349   9.775  0.0473 -0.6598  2.9119
  299MOL0     H40322  10.699   7.488   9.692 -1.7743 -0.3931  0.5375
  299MOL0     H40323  10.612   7.439   9.983  1.0050  3.6892  0.7775
  299MOL0     H40324  10.540   7.358   9.843  3.0803 -0.2059 -2.2076
  299MOL0     H40325  10.379   7.430  10.009  4.1101  1.5238 -1.8429
  299MOL0     H40326  10.177   7.504  10.114  1.5849 -0.5070  1.5602
  299MOL0     H40327   9.940   7.973  10.223 -0.2305 -0.6469  1.0682
  299MOL0     H40328   9.753   8.059  10.372  2.5753 -0.3934  4.9877
  299MOL0     H40329   9.451   7.780  10.503 -0.1710 -1.7280  0.7989
  299MOL0     H40330   9.560   7.771  10.645  0.8935  0.5338  0.5382
  299MOL0     H40331   9.457   7.992  10.730  0.2427 -0.8301  0.2281
  299MOL0     H40332   9.370   8.004  10.577 -0.3848  1.7605  0.8631
  299MOL0     H40333   9.249   7.796  10.625 -4.0581 -0.6716  2.9168
  299MOL0     H40334   9.328   7.769  10.769 -3.3214 -0.2930  0.5979
  299MOL0     H40335   9.163   8.017  10.707 -0.7952 -1.4384 -1.4504
  299MOL0     H40336   9.253   7.989  10.858  1.8976 -0.3533 -1.2634
  299MOL0     H40337   9.113   7.789  10.897  1.4071  0.3942 -1.0142
  299MOL0     H40338   9.003   7.849  10.753  0.5917  1.1801 -1.3861
  299MOL0     H40339   9.092   7.987  11.001  0.6927 -4.1914  0.4851
  299MOL0     H40340   8.999   8.069  10.869 -3.5715 -1.0491 -2.1120
  299MOL0     H40341   8.806   7.949  10.909  0.4931  1.8582 -0.4962
  299MOL0     H40342   8.854   8.018  11.062  2.7241  0.5444  1.0988
  299MOL0     H40343   8.908   7.726  10.995 -0.5327  1.5300 -3.4873
  299MOL0     H40344   8.953   7.809  11.144 -0.2944 -2.4965  0.1521
  299MOL0     H40345   9.668   7.646  10.471 -0.4114  0.1010  0.1167
  299MOL0     H40346   9.860   7.581  10.363  0.3534  0.1288 -0.6768
  299MOL0     H40347  10.197   7.859   9.865  1.1254  0.2833 -0.0957
  299MOL0     H40348  10.383   7.776   9.767 -2.1013  2.2627  1.5076
  299MOL0     H40349  11.620   7.187  10.802 -0.7382 -0.2836 -0.6279
  299MOL0     H40350  11.539   7.357  10.941  1.0990 -1.5788  2.0937
  299MOL0     H40351  11.432   7.654  11.277  0.7928 -0.8899 -2.3255
  299MOL0     H40352  11.339   7.790  11.416 -1.2171  1.0961  2.0986
  299MOL0     H40353  11.031   7.692  11.628  0.2464  0.6329  1.2166
  299MOL0     H40354  10.895   7.764  11.528 -0.5175  0.1640  1.7456
  299MOL0     H40355  10.932   7.985  11.630  0.3468  0.8777  0.3386
  299MOL0     H40356  11.057   7.898  11.741 -2.7050  2.4396  3.8447
  299MOL0     H40357  10.919   7.772  11.845  0.7197  1.1811 -0.3404
  299MOL0     H40358  10.785   7.802  11.727 -0.0415 -1.9595  0.4002
  299MOL0     H40359  10.754   7.918  11.958 -0.7371  1.3205  0.6807
  299MOL0     H40360  10.898   8.010  11.906 -0.9104 -1.2564  2.6136
  299MOL0     H40361  10.568   8.188  11.735  1.8827  3.0473  1.3410
  299MOL0     H40362  10.947   7.609  11.334 -0.4561  1.4704 -0.5055
  299MOL0     H40363  11.076   7.303  11.214  1.1271  0.3510 -0.0657
  299MOL0     H40364  10.942   7.402  11.270 -0.0327 -2.6764  0.3331
  299MOL0     H40365  11.006   7.416  11.099  0.1275 -3.2764 -0.5782
  300MOL0     O40366   8.966   9.908   8.076  0.1602  0.4403 -0.8300
  300MOL0     C40367   8.933  10.025   8.096  0.1898 -0.4817  0.3381
  300MOL0     O40368   8.849  10.098   8.026  0.5354 -0.0011 -0.5409
  300MOL0     C40369   8.763  10.051   7.927  0.3511 -0.8045 -0.3615
  300MOL0     C40370   8.719   9.915   7.918  0.5627  0.0366  0.7483
  300MOL0     C40371   8.655   9.876   7.798 -0.3424  0.2706  0.7094
  300MOL0     C40372   8.615   9.966   7.697 -0.0518 -0.4404 -0.7038
  300MOL0     O40373   8.544   9.916   7.591 -0.1798  0.1118 -0.1547
  300MOL0     C40374   8.438  10.001   7.546 -0.3808 -0.2931 -0.1688
  300MOL0     C40375   8.365   9.947   7.420 -0.1267  0.4529  0.3819
  300MOL0     C40376   8.253  10.038   7.370 -0.2050 -0.1836 -0.5867
  300MOL0     C40377   8.119  10.029   7.452 -0.0797  0.1086  0.6482
  300MOL0     C40378   8.074  10.168   7.497 -0.5569  0.1550 -1.0306
  300MOL0     C40379   8.034  10.269   7.385 -0.3092  0.3830  0.5402
  300MOL0     C40380   7.985  10.399   7.434 -0.3264 -0.1089 -0.4106
  300MOL0     C40381   8.105  10.498   7.440  1.4267 -0.1432  0.7260
  300MOL0     N40382   8.192  10.454   7.546 -0.1976 -0.5609 -0.2940
  300MOL0     C40383   8.166  10.476   7.678  1.1787  0.8796 -0.9379
  300MOL0     C40384   8.268  10.420   7.747  0.2711  0.5414  0.0658
  300MOL0     C40385   8.283  10.415   7.890  0.1159 -0.0934 -0.4220
  300MOL0     C40386   8.374  10.294   7.924 -0.1699  0.3501 -0.8596
  300MOL0     C40387   8.314  10.157   7.893 -0.3174  1.5475  0.2709
  300MOL0     C40388   8.372  10.047   7.984  0.2082 -0.2030 -0.6503
  300MOL0     O40389   8.321   9.921   7.924  0.0679 -0.1383  0.0226
  300MOL0     C40390   8.368   9.806   7.983 -0.7186 -0.1806 -0.5166
  300MOL0     C40391   8.343   9.704   7.898  0.9313  0.6022 -0.4074
  300MOL0     C40392   8.389   9.579   7.923 -0.2889 -0.4054 -0.4965
  300MOL0     C40393   8.450   9.543   8.039 -0.0671 -0.5912  0.2888
  300MOL0     C40394   8.472   9.407   8.079  0.0044 -0.1567  0.5993
  300MOL0     O40395   8.541   9.383   8.190  0.2608 -0.2409 -0.4766
  300MOL0     C40396   8.578   9.253   8.216 -0.1356  0.5790  0.3812
  300MOL0     C40397   8.474   9.155   8.245 -0.3509  0.7656 -0.3544
  300MOL0     C40398   8.505   9.023   8.286 -0.1268 -0.0782  0.0850
  300MOL0     C40399   8.644   8.994   8.298 -0.0923 -0.2957 -0.1767
  300MOL0     O40400   8.689   8.872   8.354  0.5662 -0.5384 -0.5365
  300MOL0     C40401   8.612   8.823   8.463  0.0290  0.8171 -0.4013
  300MOL0     C40402   8.673   8.688   8.510  0.5238 -0.9146 -0.7109
  300MOL0     C40403   8.564   8.621   8.599 -0.2907  0.5494 -1.1300
  300MOL0     C40404   8.565   8.474   8.626 -0.1250  0.3223  0.5132
  300MOL0     C40405   8.693   8.407   8.660  0.2075 -0.2792 -0.5195
  300MOL0     C40406   8.775   8.464   8.776 -0.3988 -0.5820 -0.2667
  300MOL0     C40407   8.907   8.387   8.786 -0.6734 -0.2334  0.1897
  300MOL0     C40408   9.014   8.454   8.885 -0.2412  0.3369  0.3541
  300MOL0    Cl40409   9.169   8.374   8.859 -0.1873 -0.0075 -0.3808
  300MOL0     C40410   8.742   9.087   8.260 -0.2706  0.5424  0.3451
  300MOL0     C40411   8.710   9.218   8.219  0.7647  1.0091 -0.4089
  300MOL0     O40412   8.414   9.324   8.018 -0.5026 -0.7272 -0.0593
  300MOL0     C40413   8.480   9.650   8.132 -0.0902 -0.8967  0.0094
  300MOL0     C40414   8.435   9.782   8.105 -0.7543  0.3917 -0.2406
  300MOL0     N40415   8.358  10.380   7.650 -0.4613  0.5516  0.1612
  300MOL0     N40416   8.317  10.403   7.535 -0.6423  0.8490  0.5260
  300MOL0     C40417   8.654  10.101   7.714  0.2398  1.3036  1.1716
  300MOL0     C40418   8.724  10.145   7.829  0.6232 -0.7355 -0.3157
  300MOL0     C40419   9.008  10.097   8.204  0.1603  0.3513 -0.3354
  300MOL0     C40420   9.019  10.235   8.197  1.0735 -1.5634  0.1017
  300MOL0     C40421   9.079  10.314   8.299  0.9604 -0.5562  0.6034
  300MOL0     C40422   9.149  10.253   8.403  0.4951 -0.3329  0.9014
  300MOL0     O40423   9.197  10.315   8.517  0.3047  0.3451  0.2479
  300MOL0     C40424   9.123  10.424   8.567 -0.4259 -0.3586  0.3692
  300MOL0     C40425   8.977  10.393   8.615 -0.5215 -0.5110  0.1383
  300MOL0     C40426   8.971  10.294   8.722  0.1929 -0.4556 -0.0556
  300MOL0     C40427   8.837  10.309   8.786  0.5929  0.6003 -0.2501
  300MOL0     C40428   8.817  10.203   8.872 -0.2491  1.1262 -0.0577
  300MOL0     C40429   8.781  10.112   8.948 -0.4615  0.5095 -0.4683
  300MOL0     C40430   9.150  10.110   8.397  1.3352  0.4860 -0.1830
  300MOL0     C40431   9.081  10.034   8.310  1.1895 -0.2104  0.0292
  300MOL0     C40432   9.093   9.887   8.338 -0.0535 -0.1885  0.4360
  300MOL0     H40433   8.749   9.847   7.997 -0.7965 -1.5688 -0.0404
  300MOL0     H40434   8.617   9.777   7.773  0.6263  0.3151 -1.1334
  300MOL0     H40435   8.364   9.999   7.627 -0.5235  1.6037 -0.2221
  300MOL0     H40436   8.464  10.106   7.530  0.1232 -0.0882  1.7784
  300MOL0     H40437   8.328   9.845   7.438  0.0408  0.6490  2.0043
  300MOL0     H40438   8.436   9.938   7.337  1.1029  1.5949  1.2663
  300MOL0     H40439   8.228  10.024   7.265  0.1181  3.2511 -1.2526
  300MOL0     H40440   8.287  10.141   7.382  0.3843 -0.2342 -1.7652
  300MOL0     H40441   8.032   9.976   7.412 -0.4930 -0.3146  2.0310
  300MOL0     H40442   8.127   9.957   7.535  0.1662 -1.0457 -0.3515
  300MOL0     H40443   7.988  10.146   7.561 -1.7845 -0.8338 -2.9397
  300MOL0     H40444   8.163  10.204   7.550 -1.3427  3.4732 -1.7128
  300MOL0     H40445   8.112  10.280   7.310  0.9255  0.8966  1.8392
  300MOL0     H40446   7.940  10.240   7.338 -0.8902  1.2411  1.1355
  300MOL0     H40447   7.943  10.396   7.536  1.1331  1.6114  0.2841
  300MOL0     H40448   7.910  10.441   7.366  1.8589  0.5746 -2.5143
  300MOL0     H40449   8.163  10.511   7.348  0.4067  1.6637  0.2794
  300MOL0     H40450   8.054  10.592   7.465  0.0372 -0.0933 -1.8983
  300MOL0     H40451   8.086  10.529   7.729  2.3716 -0.2611  2.3777
  300MOL0     H40452   8.334  10.506   7.923  1.7143 -1.2799  0.5141
  300MOL0     H40453   8.191  10.405   7.948  2.2993 -2.3450  2.9793
  300MOL0     H40454   8.477  10.305   7.889  1.2367 -0.1233  2.7555
  300MOL0     H40455   8.382  10.299   8.033 -1.0895  2.7972 -0.8358
  300MOL0     H40456   8.330  10.125   7.790  0.2824 -1.0443  1.0907
  300MOL0     H40457   8.205  10.165   7.897 -0.4384 -0.1521  2.9651
  300MOL0     H40458   8.340  10.058   8.088 -2.8419  1.3132 -1.6291
  300MOL0     H40459   8.481  10.052   7.978  0.0601  2.9378 -3.1929
  300MOL0     H40460   8.308   9.723   7.797  0.7823 -0.9583 -0.6758
  300MOL0     H40461   8.361   9.498   7.856  0.3410  0.3995 -1.7566
  300MOL0     H40462   8.371   9.184   8.231 -1.1888 -0.8260  1.8663
  300MOL0     H40463   8.435   8.947   8.319 -1.5548  0.0190 -2.4260
  300MOL0     H40464   8.619   8.895   8.545  0.6427  0.0995  0.1916
  300MOL0     H40465   8.507   8.816   8.432  0.6661  1.0382 -2.8382
  300MOL0     H40466   8.710   8.629   8.425  2.6314 -1.0393  0.2373
  300MOL0     H40467   8.753   8.722   8.576 -0.9597 -0.7208  1.0772
  300MOL0     H40468   8.572   8.667   8.698 -0.4623 -0.4838 -0.6327
  300MOL0     H40469   8.463   8.640   8.562 -1.7076  0.1951  2.2155
  300MOL0     H40470   8.535   8.425   8.533  2.2018  0.5922 -0.4535
  300MOL0     H40471   8.479   8.464   8.693  0.0048 -2.3399  0.3726
  300MOL0     H40472   8.753   8.404   8.569  0.5848  0.9310 -0.3357
  300MOL0     H40473   8.663   8.307   8.690 -1.0538  0.0834 -0.4817
  300MOL0     H40474   8.790   8.569   8.752 -1.1390 -0.2132  0.8275
  300MOL0     H40475   8.724   8.462   8.872  0.6879  0.1507  0.3509
  300MOL0     H40476   8.948   8.401   8.685  1.4006 -0.4663  0.9428
  300MOL0     H40477   8.896   8.280   8.803  2.7991 -1.4605 -3.5847
  300MOL0     H40478   9.029   8.561   8.868 -0.7225  0.0938 -1.9712
  300MOL0     H40479   8.971   8.440   8.985 -1.4055 -1.6361 -0.3441
  300MOL0     H40480   8.850   9.084   8.272  0.0365  1.4457 -1.7672
  300MOL0     H40481   8.789   9.281   8.179 -0.8926  1.8957 -2.5026
  300MOL0     H40482   8.520   9.629   8.230  4.0461  4.9487  0.0537
  300MOL0     H40483   8.451   9.866   8.172 -1.1094  1.2313 -1.1830
  300MOL0     H40484   8.629  10.171   7.635 -0.0947 -0.4850 -0.3792
  300MOL0     H40485   8.735  10.252   7.841 -4.3586 -0.2067  1.8865
  300MOL0     H40486   8.973  10.288   8.115  0.0973 -0.6344  1.2109
  300MOL0     H40487   9.068  10.422   8.302 -0.8775 -0.7078  0.4880
  300MOL0     H40488   9.128  10.505   8.493  1.5726 -2.3762 -1.8492
  300MOL0     H40489   9.175  10.460   8.657  3.1402 -0.9265 -1.2869
  300MOL0     H40490   8.922  10.370   8.524 -0.1915 -0.1798 -0.1505
  300MOL0     H40491   8.939  10.489   8.651  1.4839 -0.0385  1.1195
  300MOL0     H40492   9.048  10.311   8.797  0.9101 -3.8942  0.1738
  300MOL0     H40493   8.982  10.192   8.683  3.9252 -0.3111  0.2861
  300MOL0     H40494   8.818  10.394   8.852 -1.6276 -0.4011  0.5227
  300MOL0     H40495   8.764  10.301   8.705  0.3537  3.1651 -0.3699
  300MOL0     H40496   8.749  10.030   9.008  0.7859 -1.9361 -2.9224
  300MOL0     H40497   9.207  10.066   8.477  0.3622  4.5471  3.1228
  300MOL0     H40498   9.093   9.828   8.246  1.3937 -1.6024  1.2746
  300MOL0     H40499   9.195   9.873   8.377 -0.2231  0.1087  0.9987
  300MOL0     H40500   9.008   9.853   8.397 -1.1763  2.2889  0.3641
  301MOL0     O40501   8.671   1.936   0.544  0.3199 -0.6310  0.6237
  301MOL0     C40502   8.679   1.898   0.424  0.2159  0.2478 -0.5073
  301MOL0     O40503   8.574   1.859   0.350  0.3139  0.3538  0.2748
  301MOL0     C40504   8.448   1.872   0.408 -1.3667 -0.0991  0.1515
  301MOL0     C40505   8.372   1.757   0.431 -0.5900  0.0264  0.4023
  301MOL0     C40506   8.243   1.775   0.477  0.2510 -0.9920  0.0731
  301MOL0     C40507   8.185   1.902   0.499  0.0481 -0.1723 -0.2150
  301MOL0     O40508   8.068   1.901   0.568  0.0985 -0.4155 -0.9586
  301MOL0     C40509   7.971   1.998   0.541  0.5251  0.2404  0.9644
  301MOL0     C40510   7.845   1.977   0.632 -1.0958 -0.3508 -0.2536
  301MOL0     C40511   7.717   2.035   0.573  0.1165 -0.8154  0.3228
  301MOL0     C40512   7.646   1.940   0.481 -0.5168  0.2280 -0.1273
  301MOL0     C40513   7.494   1.971   0.483 -0.4199 -0.0562  0.9826
  301MOL0     C40514   7.398   1.876   0.419  0.8033 -0.1813  0.4366
  301MOL0     C40515   7.410   1.727   0.457 -1.0614  0.0582  0.6310
  301MOL0     C40516   7.295   1.649   0.393  0.2442  0.1886  0.3202
  301MOL0     N40517   7.169   1.624   0.469 -0.5108 -0.2633  0.2469
  301MOL0     C40518   7.089   1.518   0.464  1.0453  0.5022 -0.1823
  301MOL0     C40519   6.977   1.542   0.534 -0.2429  1.0489 -0.3750
  301MOL0     C40520   6.853   1.462   0.559  0.1255 -0.5042 -0.3735
  301MOL0     C40521   6.857   1.406   0.715  0.2608 -1.0785  1.0966
  301MOL0     C40522   6.962   1.297   0.726 -0.3560  0.0941  0.6955
  301MOL0     C40523   7.113   1.338   0.750  0.2759 -0.4234  0.0068
  301MOL0     O40524   7.125   1.383   0.891  0.6980  0.4435 -0.6405
  301MOL0     C40525   7.246   1.398   0.940 -0.0986  0.1576  1.3097
  301MOL0     C40526   7.261   1.401   1.082 -0.0658  0.4715  0.6967
  301MOL0     C40527   7.384   1.407   1.148  0.2798 -0.1440 -0.0494
  301MOL0     C40528   7.499   1.418   1.071 -0.1896  0.0562 -0.0375
  301MOL0     C40529   7.633   1.398   1.122 -0.4422 -0.6602 -0.4404
  301MOL0     O40530   7.738   1.369   1.045 -0.4653 -0.6151  0.8017
  301MOL0     C40531   7.857   1.344   1.092 -0.1995 -0.0876 -0.0683
  301MOL0     C40532   7.904   1.209   1.077 -0.8143 -1.1542 -0.3111
  301MOL0     C40533   8.033   1.179   1.120 -0.7537  0.2774  0.0853
  301MOL0     C40534   8.128   1.280   1.161  0.4042  0.6307 -0.4508
  301MOL0     O40535   8.264   1.251   1.169 -0.7589 -0.6477  0.2431
  301MOL0     C40536   8.339   1.258   1.296  1.0332  0.6279  0.5886
  301MOL0     C40537   8.484   1.290   1.255 -0.0674  0.2089  0.6943
  301MOL0     C40538   8.545   1.176   1.176 -0.1031 -0.0831 -0.3885
  301MOL0     C40539   8.558   1.039   1.244  0.1865  0.3011  0.7524
  301MOL0     C40540   8.642   0.942   1.152  0.0517  0.5280 -0.2124
  301MOL0     C40541   8.586   0.899   1.021  0.4366 -0.2075 -0.0629
  301MOL0     C40542   8.444   0.852   1.010 -0.6581  0.3073  0.7777
  301MOL0     C40543   8.421   0.710   1.066  0.9713 -0.9144 -0.0617
  301MOL0    Cl40544   8.240   0.666   1.075 -0.3198  0.5425 -0.0782
  301MOL0     C40545   8.079   1.406   1.183  0.6631 -0.9031 -0.5757
  301MOL0     C40546   7.943   1.435   1.150  0.2673  0.2655 -0.4915
  301MOL0     O40547   7.643   1.400   1.248  0.1882  0.0761  1.0875
  301MOL0     C40548   7.491   1.415   0.931 -0.2606  0.0043  1.0828
  301MOL0     C40549   7.360   1.412   0.869 -0.3485 -0.2464  0.1286
  301MOL0     N40550   6.993   1.668   0.584  0.2920  0.2346  0.2304
  301MOL0     N40551   7.097   1.722   0.533  0.1656  0.4362  0.3081
  301MOL0     C40552   8.261   2.021   0.474  0.2979  0.4904 -0.3347
  301MOL0     C40553   8.394   2.002   0.429 -0.3876  0.1329  0.4875
  301MOL0     C40554   8.811   1.884   0.349  0.4938  0.2282 -0.6508
  301MOL0     C40555   8.798   1.874   0.212 -0.6133 -0.3306 -0.1709
  301MOL0     C40556   8.916   1.862   0.125  0.3720 -0.0463  0.2234
  301MOL0     C40557   9.042   1.856   0.185  0.6817 -0.3674 -0.1678
  301MOL0     O40558   9.134   1.832   0.099 -0.0723 -0.7957  0.5755
  301MOL0     C40559   9.256   1.771   0.142 -0.5501 -0.3951  0.1277
  301MOL0     C40560   9.303   1.695   0.024  0.6781  0.5202  1.1498
  301MOL0     C40561   9.447   1.645   0.042 -0.0482 -0.1414 -0.2841
  301MOL0     C40562   9.507   1.602  -0.090  0.0496 -0.7534 -0.3426
  301MOL0     C40563   9.624   1.509  -0.075  0.7258 -0.0585 -0.1785
  301MOL0     C40564   9.718   1.431  -0.069  0.2107 -0.6044  0.5853
  301MOL0     C40565   9.057   1.858   0.326 -0.1299 -0.5492  0.0636
  301MOL0     C40566   8.941   1.875   0.406  0.9123 -0.5939  0.1737
  301MOL0     C40567   8.959   1.893   0.548 -0.1523  0.3818  0.8130
  301MOL0     H40568   8.412   1.656   0.420 -2.0297 -0.4774 -0.5159
  301MOL0     H40569   8.173   1.694   0.494 -1.1932  0.2497  0.3074
  301MOL0     H40570   7.998   2.102   0.558  0.0789  0.3576  0.9473
  301MOL0     H40571   7.937   1.987   0.438 -1.5673  0.2851  1.6154
  301MOL0     H40572   7.871   2.032   0.722 -1.8602 -1.1374  0.4660
  301MOL0     H40573   7.827   1.870   0.646 -1.0003 -0.4232 -0.6439
  301MOL0     H40574   7.737   2.126   0.516 -2.0453 -1.6658 -1.9658
  301MOL0     H40575   7.649   2.055   0.656  2.6106 -1.4366  2.6733
  301MOL0     H40576   7.687   1.940   0.379 -0.1486 -0.5765  0.0094
  301MOL0     H40577   7.655   1.840   0.523  1.8467  1.0236  1.4681
  301MOL0     H40578   7.448   1.979   0.582  0.1953  1.1668  1.1906
  301MOL0     H40579   7.498   2.066   0.428  1.5400 -1.0593 -0.7676
  301MOL0     H40580   7.294   1.907   0.430 -0.0574 -1.5927 -2.7356
  301MOL0     H40581   7.415   1.874   0.311  0.2573 -1.5335  0.3438
  301MOL0     H40582   7.411   1.715   0.566  2.1158 -0.2210  0.6688
  301MOL0     H40583   7.513   1.701   0.431 -0.5145 -0.0180  2.6589
  301MOL0     H40584   7.276   1.702   0.299 -1.7610 -2.1154 -0.6969
  301MOL0     H40585   7.329   1.550   0.363  1.7605  1.2595 -1.7836
  301MOL0     H40586   7.126   1.426   0.420  2.8308  1.0413  0.1318
  301MOL0     H40587   6.770   1.533   0.554 -2.0177 -2.8522 -0.2304
  301MOL0     H40588   6.841   1.385   0.483  0.2936 -0.6695 -0.2339
  301MOL0     H40589   6.893   1.488   0.778 -0.1079 -0.0115 -0.0400
  301MOL0     H40590   6.758   1.378   0.751  1.0239  1.0998  5.6134
  301MOL0     H40591   6.968   1.258   0.624 -1.2629  0.8306  0.3448
  301MOL0     H40592   6.932   1.218   0.796  0.9588  0.3607  1.5836
  301MOL0     H40593   7.144   1.413   0.677  0.7090 -0.4291  0.1809
  301MOL0     H40594   7.182   1.256   0.727  0.3575 -0.4658  0.3997
  301MOL0     H40595   7.172   1.398   1.145  0.1724 -1.9926  1.0150
  301MOL0     H40596   7.386   1.402   1.256  2.7550 -1.4449 -0.1068
  301MOL0     H40597   7.841   1.132   1.034  0.1788 -2.9385  1.2777
  301MOL0     H40598   8.070   1.077   1.119 -1.0931  0.1030  1.8431
  301MOL0     H40599   8.302   1.337   1.362 -1.0032  0.4920 -0.3108
  301MOL0     H40600   8.326   1.164   1.350 -0.8875  0.5662  0.0987
  301MOL0     H40601   8.483   1.380   1.193  0.6225  0.2425  0.7153
  301MOL0     H40602   8.550   1.303   1.342 -0.7899  1.2109  1.1152
  301MOL0     H40603   8.476   1.152   1.095 -0.7203  1.3158 -0.2953
  301MOL0     H40604   8.644   1.206   1.138 -0.3122  1.3432  0.1352
  301MOL0     H40605   8.462   0.996   1.271 -0.7119  1.9219  0.2889
  301MOL0     H40606   8.617   1.049   1.336 -1.2293  1.7766  1.5490
  301MOL0     H40607   8.650   0.858   1.222  1.2170  2.2811  1.9279
  301MOL0     H40608   8.747   0.968   1.134  1.4430 -3.9065  0.1743
  301MOL0     H40609   8.589   0.994   0.965 -1.7855  2.3356  3.7071
  301MOL0     H40610   8.645   0.817   0.978 -2.7525 -2.2149 -0.9336
  301MOL0     H40611   8.425   0.865   0.903  2.8390  2.1105  0.2431
  301MOL0     H40612   8.381   0.922   1.067  1.2374  1.4423  1.5724
  301MOL0     H40613   8.480   0.638   1.009  1.7928 -0.2040 -0.1347
  301MOL0     H40614   8.465   0.706   1.166  0.6597  0.1100  0.1291
  301MOL0     H40615   8.135   1.483   1.235 -0.5170 -2.3090  3.0386
  301MOL0     H40616   7.929   1.542   1.161  2.0275  0.9862 -3.9224
  301MOL0     H40617   7.576   1.430   0.864 -1.2696 -2.1436 -0.8597
  301MOL0     H40618   7.361   1.413   0.761  0.2022 -2.7494  0.0450
  301MOL0     H40619   8.212   2.115   0.498 -1.5631 -0.2197 -1.1301
  301MOL0     H40620   8.453   2.085   0.391  0.0118  0.0504  0.9169
  301MOL0     H40621   8.716   1.873   0.141  0.3731  0.8219 -1.3694
  301MOL0     H40622   8.909   1.870   0.017 -1.8616 -1.9405  0.1609
  301MOL0     H40623   9.228   1.699   0.220 -3.2331  2.0386  1.5713
  301MOL0     H40624   9.326   1.846   0.179 -0.9579  0.7485 -1.3354
  301MOL0     H40625   9.303   1.761  -0.064  0.7698  0.4071  1.0634
  301MOL0     H40626   9.234   1.611   0.009  1.2208  0.0566  1.1904
  301MOL0     H40627   9.443   1.559   0.109 -0.8503  0.1414  0.0387
  301MOL0     H40628   9.514   1.718   0.088  1.4537 -0.9924 -1.0509
  301MOL0     H40629   9.429   1.555  -0.151  2.0748 -0.6932 -3.1563
  301MOL0     H40630   9.546   1.690  -0.142  3.0575 -1.9088 -0.2250
  301MOL0     H40631   9.818   1.393  -0.073  0.0169 -1.1106  0.3962
  301MOL0     H40632   9.156   1.853   0.369 -0.7636 -1.3077  1.5248
  301MOL0     H40633   8.897   1.827   0.610  0.8258 -0.5122  0.8716
  301MOL0     H40634   9.062   1.861   0.571 -0.4260  0.1274  1.7335
  301MOL0     H40635   8.932   1.995   0.578 -0.6850 -0.3773  3.0747
  302MOL0     O40636   1.539   6.657  10.569  0.2069 -0.6896 -0.2447
  302MOL0     C40637   1.502   6.727  10.661  0.4810  0.9515 -0.0262
  302MOL0     O40638   1.455   6.669  10.781  0.0946  0.1493 -0.6243
  302MOL0     C40639   1.450   6.529  10.809  0.7641  0.1873 -0.2468
  302MOL0     C40640   1.365   6.489  10.920 -0.3518  0.2857 -0.3329
  302MOL0     C40641   1.348   6.360  10.953  0.3586 -0.2790 -0.0799
  302MOL0     C40642   1.411   6.260  10.880 -0.3901  0.4111 -0.6279
  302MOL0     O40643   1.382   6.132  10.928 -0.1608 -0.1289 -0.2044
  302MOL0     C40644   1.360   6.040  10.824 -0.1258  0.2501  1.0724
  302MOL0     C40645   1.224   6.074  10.742  0.3604 -0.1137 -0.7144
  302MOL0     C40646   1.192   5.961  10.646 -0.2099 -0.2194  1.1695
  302MOL0     C40647   1.299   5.919  10.551  0.2879 -0.5860  0.7649
  302MOL0     C40648   1.247   5.885  10.415  0.2437 -0.3937  0.9249
  302MOL0     C40649   1.365   5.835  10.335  0.8544 -0.0772  0.5612
  302MOL0     C40650   1.338   5.840  10.181  0.0938 -0.7897  0.4022
  302MOL0     C40651   1.465   5.782  10.106 -0.9054  0.7714 -0.2853
  302MOL0     N40652   1.458   5.766   9.954  0.0094 -0.2402 -0.5116
  302MOL0     C40653   1.371   5.679   9.896 -0.0808  0.1295 -0.5965
  302MOL0     C40654   1.429   5.646   9.783 -1.3257  0.8240  0.2354
  302MOL0     C40655   1.369   5.540   9.695  0.0973  0.4303  0.4274
  302MOL0     C40656   1.300   5.603   9.571 -0.5553 -1.1131 -0.5654
  302MOL0     C40657   1.223   5.512   9.475  0.6967 -0.5553  0.1605
  302MOL0     C40658   1.183   5.604   9.358  0.0395 -0.1867 -0.3707
  302MOL0     O40659   1.083   5.541   9.285  0.1634  0.0626 -0.0459
  302MOL0     C40660   1.102   5.539   9.153 -0.6632  0.1906  0.5985
  302MOL0     C40661   1.097   5.652   9.074 -0.4870  0.1683 -0.0593
  302MOL0     C40662   1.108   5.641   8.932 -0.2914 -0.5024 -0.2215
  302MOL0     C40663   1.108   5.518   8.860  0.2035 -0.0763 -0.1254
  302MOL0     C40664   1.107   5.530   8.711 -0.6455 -0.0786 -0.0990
  302MOL0     O40665   1.091   5.659   8.661  0.0330  0.8067 -0.3661
  302MOL0     C40666   1.115   5.669   8.526  0.1789 -0.0015 -0.0557
  302MOL0     C40667   1.019   5.706   8.425  0.5783  0.1172  0.2452
  302MOL0     C40668   1.059   5.694   8.287 -0.1648 -0.4347  0.3443
  302MOL0     C40669   1.186   5.668   8.254  0.2817 -0.8834  0.3309
  302MOL0     O40670   1.224   5.637   8.128  0.0672 -0.6311  0.3189
  302MOL0     C40671   1.188   5.729   8.021 -0.2884  0.3009 -0.3245
  302MOL0     C40672   1.226   5.680   7.880 -0.6025  0.0568 -0.0626
  302MOL0     C40673   1.376   5.706   7.829 -0.9321 -0.7734 -0.0360
  302MOL0     C40674   1.409   5.853   7.852 -0.8555 -0.7677  0.3352
  302MOL0     C40675   1.554   5.882   7.808 -0.0242 -0.3258 -0.4345
  302MOL0     C40676   1.565   5.922   7.664  0.7623  0.1662 -0.3524
  302MOL0     C40677   1.714   5.915   7.622  0.4975 -0.3449 -0.4169
  302MOL0     C40678   1.746   6.016   7.517  0.5749  0.0856  0.3907
  302MOL0    Cl40679   1.651   6.019   7.360 -0.0478  0.0820 -0.2503
  302MOL0     C40680   1.284   5.644   8.355 -0.8687  0.0576  0.5035
  302MOL0     C40681   1.253   5.648   8.492  0.1533 -0.3191  0.3670
  302MOL0     O40682   1.092   5.427   8.646  0.4308  0.2709  0.4948
  302MOL0     C40683   1.103   5.407   8.942  0.2407 -0.2922 -0.1230
  302MOL0     C40684   1.103   5.420   9.086  0.3910  0.0494  0.2993
  302MOL0     N40685   1.550   5.722   9.768 -0.1765 -0.6708  0.0569
  302MOL0     N40686   1.554   5.804   9.860  0.3067 -0.6384 -0.7839
  302MOL0     C40687   1.500   6.296  10.778 -0.2269  0.6709  0.2817
  302MOL0     C40688   1.524   6.422  10.754  0.3086  0.2545 -0.3656
  302MOL0     C40689   1.512   6.874  10.639 -0.6556  0.6711 -1.3247
  302MOL0     C40690   1.504   6.959  10.756  0.6088  0.3168  0.1812
  302MOL0     C40691   1.514   7.092  10.747  0.5456  0.4030 -0.0278
  302MOL0     C40692   1.562   7.154  10.636 -0.2288 -0.9542  1.0148
  302MOL0     O40693   1.595   7.285  10.638  0.5890 -0.5446 -0.0207
  302MOL0     C40694   1.502   7.382  10.581 -0.0933 -0.5264 -0.9056
  302MOL0     C40695   1.387   7.395  10.681  0.5511 -0.7591  0.6499
  302MOL0     C40696   1.293   7.516  10.661 -0.4358 -0.0741 -0.2209
  302MOL0     C40697   1.184   7.492  10.555  0.1728  0.5745 -0.1683
  302MOL0     C40698   1.125   7.617  10.508  0.8745  0.3454 -0.4431
  302MOL0     C40699   1.101   7.733  10.471  0.8625 -0.1919 -0.6063
  302MOL0     C40700   1.557   7.082  10.516 -1.3358 -0.9741  0.2561
  302MOL0     C40701   1.537   6.939  10.515 -0.1660  0.1242 -0.6483
  302MOL0     C40702   1.550   6.863  10.377 -0.1273 -0.2028 -0.1821
  302MOL0     H40703   1.309   6.558  10.981  1.4755  0.3437  1.3666
  302MOL0     H40704   1.286   6.341  11.040 -0.1187  1.2352 -0.0679
  302MOL0     H40705   1.447   6.022  10.762 -0.1334 -3.0613  1.8310
  302MOL0     H40706   1.353   5.940  10.868 -2.0098 -0.3900 -0.4838
  302MOL0     H40707   1.242   6.169  10.690 -2.0626 -0.1381 -1.7185
  302MOL0     H40708   1.138   6.089  10.808  1.0130 -1.7925  0.6001
  302MOL0     H40709   1.099   5.978  10.592 -0.5547  1.0345  2.1063
  302MOL0     H40710   1.180   5.878  10.717 -0.4402 -0.2808  1.0617
  302MOL0     H40711   1.366   6.004  10.535  0.8611 -1.4572 -2.0659
  302MOL0     H40712   1.362   5.840  10.595  0.5407 -0.8074  0.0333
  302MOL0     H40713   1.182   5.799  10.435  0.5741  0.0860  4.8461
  302MOL0     H40714   1.199   5.976  10.380  1.1369  0.8521  2.7663
  302MOL0     H40715   1.459   5.887  10.353  2.2274 -1.8947 -1.0050
  302MOL0     H40716   1.388   5.732  10.366  2.1734 -0.6084 -1.9603
  302MOL0     H40717   1.315   5.943  10.153 -2.4050 -1.1242  0.9851
  302MOL0     H40718   1.260   5.766  10.158 -1.2520  0.7296 -0.1480
  302MOL0     H40719   1.555   5.840  10.130 -1.2619  0.0347  3.3615
  302MOL0     H40720   1.487   5.678  10.135  2.4646  1.3447 -0.3267
  302MOL0     H40721   1.276   5.639   9.931  0.8571 -0.0559  1.9635
  302MOL0     H40722   1.459   5.485   9.664  1.6903  3.1971 -0.1718
  302MOL0     H40723   1.295   5.474   9.742 -0.4380 -2.4555 -3.9285
  302MOL0     H40724   1.235   5.679   9.616  1.1999 -0.2740  0.6626
  302MOL0     H40725   1.369   5.664   9.512 -2.4199  0.7107 -0.9866
  302MOL0     H40726   1.136   5.468   9.524  0.1382  1.5716  1.1619
  302MOL0     H40727   1.296   5.435   9.444  1.4650  0.7598 -1.4434
  302MOL0     H40728   1.275   5.611   9.299  0.5039 -0.4387  0.3184
  302MOL0     H40729   1.149   5.705   9.382  0.7740  0.4165 -1.7542
  302MOL0     H40730   1.084   5.750   9.119 -0.2428  0.6095 -0.9381
  302MOL0     H40731   1.105   5.738   8.884 -2.3122 -0.4482 -0.0827
  302MOL0     H40732   0.916   5.714   8.459  0.3825  4.2350 -0.8009
  302MOL0     H40733   0.990   5.700   8.203 -0.8304  4.7096  0.9611
  302MOL0     H40734   1.080   5.726   8.004 -0.6749 -1.6365  1.9499
  302MOL0     H40735   1.205   5.831   8.058 -2.8998 -1.0257  5.9355
  302MOL0     H40736   1.221   5.571   7.869  3.7199 -0.3011 -0.1265
  302MOL0     H40737   1.157   5.729   7.811  1.9915  1.7695 -1.6425
  302MOL0     H40738   1.452   5.641   7.874  1.4568  0.4877 -1.9923
  302MOL0     H40739   1.393   5.693   7.722 -0.1957 -0.9429  0.0944
  302MOL0     H40740   1.400   5.882   7.957  2.3445 -1.1423  0.8177
  302MOL0     H40741   1.341   5.918   7.796  2.4452  2.7046 -0.0441
  302MOL0     H40742   1.610   5.789   7.821 -1.2072 -1.0641 -0.5740
  302MOL0     H40743   1.594   5.964   7.870 -0.3456  0.7617 -1.6241
  302MOL0     H40744   1.509   5.843   7.612  0.3042 -1.5269  2.5041
  302MOL0     H40745   1.519   6.021   7.653  1.7088  0.5605 -0.8464
  302MOL0     H40746   1.730   5.814   7.582 -5.1104 -1.5226 -0.4437
  302MOL0     H40747   1.769   5.930   7.715 -0.8172  0.1409  0.3136
  302MOL0     H40748   1.719   6.112   7.561 -2.1341  0.4346 -1.7981
  302MOL0     H40749   1.849   5.996   7.485 -0.5059 -0.8885 -2.8797
  302MOL0     H40750   1.384   5.619   8.321 -1.2165 -1.7384  0.7000
  302MOL0     H40751   1.334   5.640   8.563 -1.1736 -0.3282  1.9408
  302MOL0     H40752   1.094   5.309   8.895 -0.0726 -0.7293  0.8226
  302MOL0     H40753   1.087   5.331   9.146  1.9571 -0.2383  0.3127
  302MOL0     H40754   1.563   6.221  10.732 -0.8177  2.0465 -3.1460
  302MOL0     H40755   1.606   6.447  10.687  1.3329  0.0220  0.7735
  302MOL0     H40756   1.490   6.904  10.848 -0.6227 -3.4191 -2.0266
  302MOL0     H40757   1.512   7.143  10.843 -1.0775  1.8066 -0.7611
  302MOL0     H40758   1.472   7.345  10.482 -0.1522 -1.7443 -0.4347
  302MOL0     H40759   1.542   7.484  10.569 -0.2126 -0.2985  0.5252
  302MOL0     H40760   1.418   7.395  10.786  1.1570 -2.9451  0.5232
  302MOL0     H40761   1.325   7.305  10.670  0.7441 -1.0277  1.6516
  302MOL0     H40762   1.356   7.604  10.645  0.0143 -0.0894  1.3202
  302MOL0     H40763   1.236   7.532  10.753  1.5074 -3.3357  1.7331
  302MOL0     H40764   1.241   7.449  10.472  1.0269  2.8989 -0.8730
  302MOL0     H40765   1.107   7.422  10.587 -0.6596 -0.2216 -3.4950
  302MOL0     H40766   1.065   7.828  10.438  1.0890  0.4781  0.9551
  302MOL0     H40767   1.565   7.138  10.424  1.3891  1.4548  1.8214
  302MOL0     H40768   1.625   6.783  10.377 -0.3835 -0.4815  1.3735
  302MOL0     H40769   1.454   6.812  10.358 -2.0948  3.0362  0.3298
  302MOL0     H40770   1.571   6.931  10.295 -2.0102 -0.9362 -1.3473
  303MOL0     O40771   1.227   7.491   6.612 -0.3848  0.8939 -0.0650
  303MOL0     C40772   1.128   7.550   6.664 -0.1506  0.5688 -0.4609
  303MOL0     O40773   1.128   7.620   6.792  0.4390 -0.0069  0.4737
  303MOL0     C40774   1.228   7.601   6.881  0.9497 -0.4404 -0.0309
  303MOL0     C40775   1.254   7.710   6.947 -0.1651 -0.3320  0.3408
  303MOL0     C40776   1.364   7.710   7.038 -0.7374  0.1703  1.4527
  303MOL0     C40777   1.432   7.584   7.067 -1.0669 -0.2970 -0.5997
  303MOL0     O40778   1.518   7.585   7.171  0.5100 -0.8531  0.2026
  303MOL0     C40779   1.609   7.475   7.196 -0.2286  0.7126  0.6085
  303MOL0     C40780   1.701   7.450   7.071  0.7907  0.1698 -0.4964
  303MOL0     C40781   1.787   7.576   7.038  0.0545 -0.4865 -0.4456
  303MOL0     C40782   1.861   7.564   6.908  0.5582  0.4322  0.6924
  303MOL0     C40783   1.908   7.698   6.860 -0.6393 -0.8328 -0.0554
  303MOL0     C40784   1.799   7.806   6.849 -0.9746 -0.6218  0.3850
  303MOL0     C40785   1.853   7.914   6.747  0.4963 -0.4628 -0.6350
  303MOL0     C40786   1.755   8.031   6.714  0.2192 -0.7291 -0.0295
  303MOL0     N40787   1.695   8.108   6.828  0.6223 -0.7092  0.8753
  303MOL0     C40788   1.563   8.107   6.844  0.9212 -0.5837 -0.5144
  303MOL0     C40789   1.536   8.192   6.948  0.4524 -0.0535  0.3524
  303MOL0     C40790   1.414   8.238   7.002  0.3669  0.0777  0.0854
  303MOL0     C40791   1.363   8.367   6.962 -0.0542 -0.5349 -0.6695
  303MOL0     C40792   1.233   8.401   7.029 -0.3658 -0.8438  0.5673
  303MOL0     C40793   1.119   8.359   6.945  0.1773 -0.6286 -1.2612
  303MOL0     O40794   1.093   8.211   6.935  0.7233 -0.0138 -0.3125
  303MOL0     C40795   1.011   8.171   6.835  0.2358 -0.4179  0.2008
  303MOL0     C40796   1.009   8.040   6.788 -0.5446  0.2560  1.1792
  303MOL0     C40797   0.901   7.977   6.712  0.6696 -0.0896  0.4448
  303MOL0     C40798   0.799   8.064   6.667  0.3428 -0.4928  0.6841
  303MOL0     C40799   0.704   7.999   6.570 -0.2118  0.5145  0.2330
  303MOL0     O40800   0.595   8.078   6.540  0.2321  0.2829  0.7589
  303MOL0     C40801   0.501   8.020   6.455  0.2206  0.2196 -0.0913
  303MOL0     C40802   0.480   7.888   6.412  0.5594 -0.3365 -0.3485
  303MOL0     C40803   0.378   7.857   6.325  1.1764 -0.5607 -0.1761
  303MOL0     C40804   0.298   7.951   6.272 -1.4506 -0.0033 -0.5570
  303MOL0     O40805   0.214   7.927   6.172 -0.2371  0.8654 -0.2108
  303MOL0     C40806   0.093   7.990   6.173  0.2304 -0.4635  0.6791
  303MOL0     C40807   0.001   7.912   6.083  0.6738  0.5768 -0.0137
  303MOL0     C40808   0.064   7.904   5.947 -0.7303  0.3373  0.6284
  303MOL0     C40809   0.112   7.760   5.916 -0.0624 -0.6272 -0.6862
  303MOL0     C40810   0.157   7.725   5.772  0.3527  0.5845  0.1533
  303MOL0     C40811   0.283   7.811   5.735 -0.7104 -0.0890 -0.3426
  303MOL0     C40812   0.406   7.791   5.834  0.5729 -0.0246  0.1903
  303MOL0     C40813   0.544   7.829   5.770 -0.6968  0.1358  0.1369
  303MOL0    Cl40814   0.599   7.722   5.637  0.4276  0.3386 -0.4503
  303MOL0     C40815   0.316   8.082   6.310 -0.5816 -0.9393  0.1469
  303MOL0     C40816   0.423   8.126   6.398 -1.0569 -0.1871  0.4199
  303MOL0     O40817   0.730   7.886   6.524 -1.2914 -0.2976 -0.2148
  303MOL0     C40818   0.807   8.198   6.714  0.2500 -0.2911  0.0082
  303MOL0     C40819   0.912   8.251   6.784  0.5366 -0.7441 -0.3658
  303MOL0     N40820   1.665   8.229   6.998  0.2659  0.2645 -1.0717
  303MOL0     N40821   1.761   8.179   6.918 -0.2018 -0.7086  0.4803
  303MOL0     C40822   1.384   7.466   7.011 -0.4903  0.5028  0.2415
  303MOL0     C40823   1.286   7.473   6.909 -0.6638  0.3872 -0.3121
  303MOL0     C40824   0.990   7.529   6.600 -0.2349 -0.7260  1.1863
  303MOL0     C40825   0.981   7.559   6.461 -0.1709 -0.5862 -0.7660
  303MOL0     C40826   0.863   7.528   6.398  0.3499 -0.5685 -0.2314
  303MOL0     C40827   0.746   7.485   6.470  0.3747 -0.3648 -0.1366
  303MOL0     O40828   0.630   7.454   6.414 -0.0178 -0.1631 -0.0296
  303MOL0     C40829   0.604   7.477   6.277  0.7617 -0.0606 -0.7172
  303MOL0     C40830   0.456   7.471   6.273  0.0818  1.0224  0.4291
  303MOL0     C40831   0.395   7.499   6.126 -0.3927 -0.0831  0.2825
  303MOL0     C40832   0.253   7.451   6.099  0.2502  0.5275 -0.6026
  303MOL0     C40833   0.257   7.305   6.132 -0.1841 -0.0284  0.6735
  303MOL0     C40834   0.253   7.190   6.167 -0.5548  0.6429  0.8014
  303MOL0     C40835   0.758   7.463   6.607 -0.6816 -0.0172  0.0121
  303MOL0     C40836   0.880   7.482   6.674  0.1312  0.3195  0.1154
  303MOL0     C40837   0.880   7.460   6.819 -0.1487 -0.6346  0.5742
  303MOL0     H40838   1.198   7.799   6.917  0.1097 -1.1794 -3.1551
  303MOL0     H40839   1.394   7.804   7.082 -0.1395  1.3869 -1.3485
  303MOL0     H40840   1.668   7.492   7.286 -0.7532  1.3403  0.8444
  303MOL0     H40841   1.564   7.378   7.217 -1.2967  1.3492  1.3256
  303MOL0     H40842   1.642   7.437   6.979  0.8573 -0.6877 -0.4244
  303MOL0     H40843   1.765   7.368   7.103 -1.7535 -1.4962  0.6960
  303MOL0     H40844   1.861   7.595   7.118  3.7009 -0.1810 -3.5876
  303MOL0     H40845   1.713   7.656   7.028 -2.9972 -3.1928 -1.0169
  303MOL0     H40846   1.954   7.507   6.918  1.3579  1.8921  2.1851
  303MOL0     H40847   1.782   7.525   6.843 -1.5920  2.4334  1.9458
  303MOL0     H40848   1.985   7.741   6.925  1.6930 -0.7573 -2.6957
  303MOL0     H40849   1.952   7.681   6.762  2.4266  0.7556  0.9231
  303MOL0     H40850   1.719   7.756   6.794 -0.4069 -1.3581  0.2181
  303MOL0     H40851   1.761   7.848   6.943 -0.6762  0.7913 -0.1008
  303MOL0     H40852   1.900   7.870   6.659  1.2275 -1.9948  0.4905
  303MOL0     H40853   1.927   7.970   6.805 -1.5142  0.2771  1.4159
  303MOL0     H40854   1.798   8.107   6.648  1.8040  0.4726  2.2241
  303MOL0     H40855   1.673   7.983   6.660 -2.3216  0.3937  2.5889
  303MOL0     H40856   1.491   8.062   6.777 -0.9428 -0.7394  1.4810
  303MOL0     H40857   1.340   8.162   6.974  1.2562 -0.4755 -0.8211
  303MOL0     H40858   1.436   8.233   7.109  1.5578 -1.0586 -0.1868
  303MOL0     H40859   1.437   8.442   6.992 -0.8262 -1.5253  4.9065
  303MOL0     H40860   1.364   8.383   6.854  0.5865 -0.1511 -0.6133
  303MOL0     H40861   1.226   8.509   7.048  0.8052 -0.8514  1.1551
  303MOL0     H40862   1.217   8.350   7.125  1.8054 -2.6680  0.0478
  303MOL0     H40863   1.127   8.398   6.843  2.5810 -0.6084 -1.1197
  303MOL0     H40864   1.027   8.403   6.984  0.5341  0.3978 -1.5568
  303MOL0     H40865   1.092   7.977   6.816  0.5303  1.2779  0.4157
  303MOL0     H40866   0.917   7.876   6.676  0.4541 -0.6549  1.8778
  303MOL0     H40867   0.536   7.800   6.442  0.7865 -0.0373  0.1079
  303MOL0     H40868   0.361   7.758   6.283 -1.3620 -0.0901 -0.3975
  303MOL0     H40869   0.038   7.990   6.267 -1.4784 -1.2616 -0.2654
  303MOL0     H40870   0.095   8.091   6.132  4.0673  1.2893  4.3973
  303MOL0     H40871  -0.012   7.809   6.119  1.1221  0.6473  0.3482
  303MOL0     H40872  -0.101   7.949   6.072 -0.0819 -1.6007 -0.8837
  303MOL0     H40873  -0.013   7.943   5.879 -0.4960  1.7781  1.1561
  303MOL0     H40874   0.152   7.968   5.948 -2.0443  2.1966  0.9452
  303MOL0     H40875   0.029   7.691   5.934 -0.2197 -0.4317 -0.6669
  303MOL0     H40876   0.194   7.735   5.984 -0.6082 -3.8756 -1.0446
  303MOL0     H40877   0.069   7.744   5.710 -0.2882  2.7801  1.6038
  303MOL0     H40878   0.178   7.618   5.776  2.5507  0.9966  0.8617
  303MOL0     H40879   0.310   7.786   5.632  2.2968  1.7082 -0.1257
  303MOL0     H40880   0.264   7.919   5.731  1.9849  0.4417 -0.5766
  303MOL0     H40881   0.411   7.691   5.879  0.8904  0.4719  1.2942
  303MOL0     H40882   0.373   7.860   5.912 -0.9236 -0.0273 -0.4172
  303MOL0     H40883   0.533   7.934   5.743 -2.5367 -0.0085  0.2317
  303MOL0     H40884   0.622   7.831   5.847  1.4921  1.3094 -1.9656
  303MOL0     H40885   0.251   8.154   6.262 -0.3291 -1.4612 -1.0426
  303MOL0     H40886   0.447   8.228   6.426  0.6122  0.3478 -2.4898
  303MOL0     H40887   0.723   8.261   6.689 -0.2978 -0.5092  1.2112
  303MOL0     H40888   0.895   8.356   6.807 -1.7449 -1.4465  1.6691
  303MOL0     H40889   1.423   7.367   7.029 -0.2542  0.7514  1.1871
  303MOL0     H40890   1.254   7.381   6.863 -2.6046 -0.4447  2.4263
  303MOL0     H40891   1.071   7.588   6.407 -1.1481  0.9125 -1.6915
  303MOL0     H40892   0.856   7.539   6.291 -0.9265 -3.1595 -0.4969
  303MOL0     H40893   0.648   7.405   6.207 -0.9259 -0.5512 -1.3150
  303MOL0     H40894   0.636   7.580   6.259  1.3952 -0.3181 -1.1183
  303MOL0     H40895   0.413   7.545   6.341 -2.2128  0.6205 -0.4909
  303MOL0     H40896   0.422   7.376   6.314  3.9688 -1.1590 -0.9260
  303MOL0     H40897   0.470   7.458   6.058 -0.5433  3.5064 -2.3366
  303MOL0     H40898   0.411   7.603   6.095  0.6435 -0.7765 -1.6824
  303MOL0     H40899   0.174   7.507   6.151  0.5441 -0.5072  1.0576
  303MOL0     H40900   0.220   7.462   5.996 -1.2286  2.6260  0.0387
  303MOL0     H40901   0.232   7.091   6.202 -1.8216  0.5895 -0.0479
  303MOL0     H40902   0.671   7.442   6.668 -1.3894  2.0021 -0.2284
  303MOL0     H40903   0.796   7.398   6.853 -2.3301 -0.1140 -3.3232
  303MOL0     H40904   0.974   7.414   6.851 -0.0123 -0.8380 -0.1101
  303MOL0     H40905   0.881   7.550   6.881 -0.5881  0.8939 -1.5524
  304MOL0     O40906   0.322   6.421   0.305 -0.0827  0.2631 -0.1127
  304MOL0     C40907   0.228   6.499   0.294 -0.3858  0.5471 -0.4315
  304MOL0     O40908   0.123   6.479   0.207 -0.6149 -1.1650 -0.5089
  304MOL0     C40909   0.131   6.365   0.134  0.4603 -0.0663  0.0996
  304MOL0     C40910   0.168   6.370   0.004  0.5203 -0.0027  0.3506
  304MOL0     C40911   0.161   6.249  -0.071  0.6046 -1.0438  0.6954
  304MOL0     C40912   0.123   6.128  -0.024  0.2343  0.8699  0.1914
  304MOL0     O40913   0.125   6.002  -0.081  0.2291 -0.0256  0.0026
  304MOL0     C40914   0.257   5.952  -0.085  0.2225  0.9445  1.0415
  304MOL0     C40915   0.264   5.819  -0.150  1.1277 -0.1295 -0.3495
  304MOL0     C40916   0.226   5.809  -0.302  0.2019  0.1524  0.2761
  304MOL0     C40917   0.256   5.678  -0.363 -0.0442  0.4825  0.0435
  304MOL0     C40918   0.219   5.663  -0.510  0.3799 -0.0321  0.1800
  304MOL0     C40919   0.279   5.528  -0.556 -0.5028 -0.4288  0.6148
  304MOL0     C40920   0.235   5.502  -0.707 -0.1204  0.6357 -0.2547
  304MOL0     C40921   0.097   5.429  -0.700  0.3792  0.3128  0.6769
  304MOL0     N40922   0.065   5.394  -0.838  0.2923  0.1861  0.3857
  304MOL0     C40923   0.099   5.274  -0.905 -0.6294 -0.3672 -0.6489
  304MOL0     C40924   0.060   5.284  -1.032 -0.2383 -0.7587 -0.4045
  304MOL0     C40925   0.056   5.161  -1.125  1.0374  0.8807 -1.2216
  304MOL0     C40926  -0.079   5.169  -1.208  0.0486 -0.1730  0.2312
  304MOL0     C40927  -0.125   5.045  -1.285  0.0574  0.3267 -0.2383
  304MOL0     C40928  -0.023   5.004  -1.399 -0.1169  0.6624 -0.3138
  304MOL0     O40929   0.089   4.955  -1.320 -0.0045 -0.2214  0.2546
  304MOL0     C40930   0.200   4.915  -1.383 -0.5169  0.7297  0.1185
  304MOL0     C40931   0.235   4.778  -1.366  0.3223 -0.3330  0.7067
  304MOL0     C40932   0.352   4.731  -1.421  0.2141 -0.4808  0.2830
  304MOL0     C40933   0.452   4.823  -1.481  1.1268 -0.4317 -0.6152
  304MOL0     C40934   0.585   4.777  -1.505  0.1075 -0.2130  0.3016
  304MOL0     O40935   0.612   4.639  -1.518 -0.2528  0.1034  0.6227
  304MOL0     C40936   0.737   4.592  -1.544  0.0204 -0.1930 -0.2442
  304MOL0     C40937   0.807   4.642  -1.651  0.2345  0.0609  0.1803
  304MOL0     C40938   0.945   4.604  -1.681  0.4826  0.1113 -0.0361
  304MOL0     C40939   1.001   4.504  -1.598 -0.0084  0.3656  0.7883
  304MOL0     O40940   1.132   4.460  -1.616 -0.2628 -0.1453  0.2755
  304MOL0     C40941   1.195   4.474  -1.744 -1.1060  0.5888 -1.4037
  304MOL0     C40942   1.288   4.365  -1.777 -0.5401  0.0480 -0.7260
  304MOL0     C40943   1.406   4.350  -1.680 -1.5026  0.0718 -0.1107
  304MOL0     C40944   1.514   4.246  -1.735  0.5935  0.5988 -1.1835
  304MOL0     C40945   1.456   4.101  -1.716 -0.1051  0.3796 -0.1671
  304MOL0     C40946   1.568   3.994  -1.741  1.0939  0.6600  1.0494
  304MOL0     C40947   1.505   3.850  -1.722 -0.1560  0.1790  0.4248
  304MOL0     C40948   1.594   3.725  -1.741 -0.4515 -0.6941  0.5319
  304MOL0    Cl40949   1.679   3.743  -1.901  0.0282  0.1791  0.0639
  304MOL0     C40950   0.935   4.448  -1.489 -0.6691 -0.1495 -0.0458
  304MOL0     C40951   0.801   4.491  -1.458  0.9296 -0.5201  1.2091
  304MOL0     O40952   0.673   4.864  -1.523  0.0990  0.1605 -0.2267
  304MOL0     C40953   0.416   4.964  -1.488  0.0990  0.7410  0.6004
  304MOL0     C40954   0.296   5.003  -1.444 -0.4508  0.2630  0.5704
  304MOL0     N40955   0.005   5.416  -1.044 -0.0412 -0.7901 -0.0626
  304MOL0     N40956   0.020   5.481  -0.931 -0.0152  0.0963 -0.0970
  304MOL0     C40957   0.089   6.123   0.111 -0.4064  0.1759  0.4685
  304MOL0     C40958   0.101   6.239   0.191  0.4202 -0.3588 -0.2158
  304MOL0     C40959   0.212   6.612   0.397 -1.1480 -0.8366 -0.7141
  304MOL0     C40960   0.093   6.627   0.465  0.1916  0.1335 -1.0863
  304MOL0     C40961   0.080   6.724   0.567 -0.3876 -0.6306 -0.0982
  304MOL0     C40962   0.194   6.787   0.618 -0.1171 -0.2096 -0.0087
  304MOL0     O40963   0.179   6.856   0.732  0.4090  0.0763 -0.1577
  304MOL0     C40964   0.290   6.894   0.811 -0.4191 -0.3696  0.0019
  304MOL0     C40965   0.257   6.931   0.956  0.6568  0.6164  0.4460
  304MOL0     C40966   0.149   7.029   0.980 -1.0607  1.1059  0.7679
  304MOL0     C40967   0.178   7.159   0.900 -0.1523  0.5619 -0.4325
  304MOL0     C40968   0.289   7.231   0.974  0.3477  0.2254  0.2327
  304MOL0     C40969   0.397   7.283   1.005 -0.4405  0.0574  0.5825
  304MOL0     C40970   0.314   6.778   0.553 -0.0483  0.7077  0.8264
  304MOL0     C40971   0.330   6.690   0.441  0.0507  0.4077  0.1835
  304MOL0     C40972   0.466   6.688   0.376 -0.0036  1.0089 -0.8037
  304MOL0     H40973   0.198   6.458  -0.052 -1.7636  0.3378 -0.4112
  304MOL0     H40974   0.182   6.260  -0.177  0.1806 -0.1764  0.6865
  304MOL0     H40975   0.328   6.017  -0.136  1.7423 -0.8550  0.7634
  304MOL0     H40976   0.280   5.947   0.022 -3.7420  0.0130  2.0445
  304MOL0     H40977   0.197   5.750  -0.098 -0.9172 -0.8175 -3.6325
  304MOL0     H40978   0.364   5.776  -0.133  1.9311  2.1677  1.1804
  304MOL0     H40979   0.279   5.884  -0.362  1.9898 -0.8252  0.5486
  304MOL0     H40980   0.117   5.810  -0.306  0.1873 -1.6395 -0.9302
  304MOL0     H40981   0.364   5.656  -0.361  0.2319  1.0792 -3.0224
  304MOL0     H40982   0.216   5.602  -0.296  1.2313  0.1564  0.4645
  304MOL0     H40983   0.110   5.671  -0.505  0.5072  2.0516  0.7865
  304MOL0     H40984   0.247   5.741  -0.582  1.4670 -0.2580  0.3480
  304MOL0     H40985   0.387   5.521  -0.566 -0.7791 -1.5526 -2.6885
  304MOL0     H40986   0.256   5.446  -0.487  1.7809 -0.7311  1.0782
  304MOL0     H40987   0.310   5.440  -0.758 -0.8382 -0.8357  0.3915
  304MOL0     H40988   0.234   5.599  -0.756 -0.3873  0.9754  0.4173
  304MOL0     H40989   0.107   5.343  -0.633  4.2179  0.2800  0.3106
  304MOL0     H40990   0.018   5.492  -0.660 -1.9138 -3.3577  2.5221
  304MOL0     H40991   0.134   5.185  -0.852 -1.0060  0.5575  1.2358
  304MOL0     H40992   0.144   5.158  -1.189  1.8318  0.5570 -0.1263
  304MOL0     H40993   0.052   5.073  -1.061 -0.9665  2.9461  1.8243
  304MOL0     H40994  -0.169   5.204  -1.156 -1.2686 -1.3855 -1.1146
  304MOL0     H40995  -0.061   5.247  -1.282 -3.7985  0.5296 -0.1660
  304MOL0     H40996  -0.219   5.075  -1.332 -0.4229 -3.5940 -2.2103
  304MOL0     H40997  -0.152   4.961  -1.219  0.3068 -0.4675 -1.1294
  304MOL0     H40998   0.002   5.090  -1.462 -3.2922  1.2393 -0.9349
  304MOL0     H40999  -0.065   4.937  -1.474 -3.8665  0.7714  1.4666
  304MOL0     H41000   0.151   4.727  -1.321 -2.5774  1.6208 -2.0899
  304MOL0     H41001   0.381   4.631  -1.391 -2.7699 -1.6277 -0.2522
  304MOL0     H41002   0.763   4.716  -1.718  0.2572 -0.7137 -0.7002
  304MOL0     H41003   0.986   4.646  -1.773 -1.1955 -0.0553 -0.9006
  304MOL0     H41004   1.115   4.464  -1.817 -4.0190  0.2100  1.6025
  304MOL0     H41005   1.261   4.562  -1.747 -2.1850  1.4069 -1.6454
  304MOL0     H41006   1.222   4.278  -1.770 -0.5774  0.1564  0.4879
  304MOL0     H41007   1.310   4.363  -1.884 -2.1758 -3.1197 -1.1222
  304MOL0     H41008   1.461   4.443  -1.663  1.4208 -1.0571 -2.5328
  304MOL0     H41009   1.371   4.319  -1.581  1.4405 -2.2032  0.3725
  304MOL0     H41010   1.605   4.257  -1.675 -1.5169  3.9027  1.8164
  304MOL0     H41011   1.532   4.264  -1.842 -0.3845  1.4346 -1.2253
  304MOL0     H41012   1.368   4.092  -1.781 -1.6365  2.9572  1.3814
  304MOL0     H41013   1.423   4.091  -1.612 -0.0260 -2.2980 -0.3112
  304MOL0     H41014   1.604   3.995  -1.844  0.8825 -2.6107  0.8476
  304MOL0     H41015   1.649   4.011  -1.669  1.6518  0.6326  0.4359
  304MOL0     H41016   1.418   3.847  -1.788  0.8625  2.8412 -1.1815
  304MOL0     H41017   1.465   3.837  -1.621  0.0185  1.9448  0.7550
  304MOL0     H41018   1.662   3.722  -1.655 -0.1972  1.3361  0.4534
  304MOL0     H41019   1.543   3.628  -1.737  1.0368 -1.4792  1.4384
  304MOL0     H41020   0.979   4.365  -1.434  1.0307  0.0639 -1.0108
  304MOL0     H41021   0.732   4.461  -1.380  1.0978  1.1618  2.0463
  304MOL0     H41022   0.493   5.034  -1.520  2.8957 -2.7440 -0.9660
  304MOL0     H41023   0.281   5.106  -1.474 -0.9316 -0.4253 -1.7326
  304MOL0     H41024   0.062   6.020   0.136  1.2021  0.3004  3.1925
  304MOL0     H41025   0.080   6.229   0.297 -2.2734  1.5222 -0.4598
  304MOL0     H41026   0.005   6.584   0.417 -1.5728  0.6591  1.5087
  304MOL0     H41027  -0.019   6.736   0.611 -0.5464 -2.5264  0.1203
  304MOL0     H41028   0.330   6.986   0.767 -1.2764  0.6256  1.2086
  304MOL0     H41029   0.378   6.830   0.811  0.2197  0.5001 -0.0843
  304MOL0     H41030   0.345   6.954   1.016  2.4730 -0.6182 -1.6387
  304MOL0     H41031   0.210   6.838   0.989 -1.7094  2.7322  3.7715
  304MOL0     H41032   0.144   7.045   1.088  0.4995 -1.0843  1.2165
  304MOL0     H41033   0.049   6.996   0.950 -0.2881 -0.5063 -0.1924
  304MOL0     H41034   0.215   7.161   0.798  1.0726  2.5126 -0.0047
  304MOL0     H41035   0.087   7.217   0.923  0.8426  0.8276  3.7196
  304MOL0     H41036   0.485   7.339   1.033  0.9848 -1.4499 -0.6675
  304MOL0     H41037   0.398   6.839   0.583  3.9852 -3.8437  0.1175
  304MOL0     H41038   0.465   6.740   0.280 -0.6429  0.4606 -1.1086
  304MOL0     H41039   0.537   6.735   0.444  0.2898  0.2867 -0.6062
  304MOL0     H41040   0.495   6.586   0.349 -4.3790 -0.7766  0.2740
  305MOL0     O41041   0.254   1.317  11.408  0.2958 -0.2795 -0.5273
  305MOL0     C41042   0.381   1.317  11.404 -0.0434  0.4503 -0.6258
  305MOL0     O41043   0.460   1.359  11.297 -0.4658  0.1743 -0.3367
  305MOL0     C41044   0.421   1.343  11.174  0.5104  0.1398 -0.2202
  305MOL0     C41045   0.492   1.419  11.074  0.5290 -0.7245  0.4951
  305MOL0     C41046   0.453   1.424  10.941  0.1899  0.0970 -0.6744
  305MOL0     C41047   0.342   1.348  10.898  0.9002  0.0688  0.3341
  305MOL0     O41048   0.304   1.351  10.757 -0.1064 -0.4867 -1.6168
  305MOL0     C41049   0.200   1.265  10.710 -0.0002 -0.4260 -0.2312
  305MOL0     C41050   0.202   1.278  10.558 -0.6077 -0.2795 -0.7815
  305MOL0     C41051   0.153   1.405  10.510  0.1574  0.2771 -0.0101
  305MOL0     C41052  -0.006   1.417  10.497 -0.7195  0.1375 -0.5723
  305MOL0     C41053  -0.045   1.560  10.447 -0.1667  0.2799 -1.1751
  305MOL0     C41054  -0.192   1.594  10.483  0.0989 -0.0759  0.5318
  305MOL0     C41055  -0.211   1.749  10.511 -0.7299 -0.6756 -0.4638
  305MOL0     C41056  -0.188   1.836  10.391  0.4647  0.7816 -0.7969
  305MOL0     N41057  -0.237   1.974  10.424  0.3247  0.6418 -0.7077
  305MOL0     C41058  -0.168   2.063  10.502 -0.2861  0.8932 -0.2270
  305MOL0     C41059  -0.266   2.159  10.519  0.4521  0.3248  0.7169
  305MOL0     C41060  -0.263   2.263  10.631 -0.6552  0.0434  0.3812
  305MOL0     C41061  -0.222   2.193  10.758  0.5629 -0.3385  0.7450
  305MOL0     C41062  -0.324   2.089  10.815 -1.0453 -0.5442 -0.3216
  305MOL0     C41063  -0.272   2.023  10.938  0.2970 -0.0558  0.0574
  305MOL0     O41064  -0.250   2.119  11.040 -0.0734 -0.0560  0.4796
  305MOL0     C41065  -0.274   2.078  11.172  0.7658 -0.0405 -0.8518
  305MOL0     C41066  -0.251   1.945  11.214  0.2774  0.3533  0.7491
  305MOL0     C41067  -0.283   1.903  11.342 -1.4454 -0.3344  0.0217
  305MOL0     C41068  -0.329   1.991  11.440 -0.7626  0.4172 -0.1600
  305MOL0     C41069  -0.361   1.956  11.578 -0.6468  0.6152  0.7614
  305MOL0     O41070  -0.381   1.823  11.603 -0.8101 -0.1604  0.4633
  305MOL0     C41071  -0.406   1.788  11.729  0.7713  0.5268 -1.1320
  305MOL0     C41072  -0.345   1.671  11.778  0.1072 -0.2745 -0.2871
  305MOL0     C41073  -0.370   1.624  11.903  0.3032 -0.5976 -0.6882
  305MOL0     C41074  -0.469   1.687  11.986  0.3504 -0.4613 -0.1863
  305MOL0     O41075  -0.484   1.626  12.105  0.2893  0.5574  0.5910
  305MOL0     C41076  -0.533   1.714  12.199  0.3025  0.5700 -0.6198
  305MOL0     C41077  -0.682   1.708  12.199 -0.2543 -0.5234 -0.2217
  305MOL0     C41078  -0.724   1.834  12.289  0.3961 -0.1801 -0.3137
  305MOL0     C41079  -0.867   1.821  12.327  0.2855 -0.1945 -0.3267
  305MOL0     C41080  -0.920   1.947  12.395 -0.4963  0.3244  0.6167
  305MOL0     C41081  -0.941   2.075  12.303  0.0367 -0.2595 -0.6360
  305MOL0     C41082  -1.040   2.059  12.188 -0.3018 -0.1353 -0.6515
  305MOL0     C41083  -1.043   2.189  12.108 -0.7052  0.0710 -0.4352
  305MOL0    Cl41084  -0.947   2.168  11.963  0.8188 -0.7411  0.4941
  305MOL0     C41085  -0.535   1.805  11.937 -0.5745  0.8326 -0.5022
  305MOL0     C41086  -0.506   1.853  11.808 -0.4665  0.5598  0.1413
  305MOL0     O41087  -0.359   2.049  11.659  0.3525  0.8979 -0.1464
  305MOL0     C41088  -0.328   2.131  11.404  0.3649  0.1011  0.4325
  305MOL0     C41089  -0.301   2.174  11.277 -0.3495  0.6929  0.0959
  305MOL0     N41090  -0.375   2.129  10.437  0.3213 -0.4642 -0.1981
  305MOL0     N41091  -0.360   2.015  10.394 -0.0170  0.2759 -0.2874
  305MOL0     C41092   0.279   1.273  10.990  0.2536  0.5304 -0.5045
  305MOL0     C41093   0.319   1.273  11.120  0.2119  0.2509  0.1797
  305MOL0     C41094   0.449   1.317  11.533  0.6340 -0.0097 -0.2282
  305MOL0     C41095   0.568   1.394  11.545  0.0838 -0.5460  0.0011
  305MOL0     C41096   0.658   1.387  11.660  1.0714  0.5816 -0.5225
  305MOL0     C41097   0.619   1.305  11.767  0.5601 -0.5983 -0.2035
  305MOL0     O41098   0.696   1.320  11.881  0.6634 -0.0077 -0.6190
  305MOL0     C41099   0.662   1.249  12.008  0.2275  0.1225  0.0240
  305MOL0     C41100   0.794   1.196  12.075  0.4497 -0.0425 -0.4349
  305MOL0     C41101   0.784   1.201  12.230 -1.1680  0.5512  0.3034
  305MOL0     C41102   0.913   1.136  12.276  0.2150 -0.4695  0.4650
  305MOL0     C41103   0.948   1.168  12.417  0.9577 -1.3810  0.6358
  305MOL0     C41104   0.983   1.195  12.526 -0.2216 -0.0103 -0.5902
  305MOL0     C41105   0.496   1.232  11.759  0.6202 -0.4896 -1.4142
  305MOL0     C41106   0.413   1.234  11.641 -0.0054 -0.2336 -0.0603
  305MOL0     C41107   0.295   1.130  11.639 -0.8633 -0.5387 -0.2500
  305MOL0     H41108   0.571   1.490  11.100  2.3537 -1.1046 -3.3240
  305MOL0     H41109   0.510   1.482  10.870  0.7757 -0.5210 -0.7170
  305MOL0     H41110   0.209   1.161  10.741  2.6730 -0.0104  0.6545
  305MOL0     H41111   0.109   1.298  10.761  1.4254  0.0056  2.2193
  305MOL0     H41112   0.137   1.197  10.523 -1.1667 -0.0481 -0.3010
  305MOL0     H41113   0.300   1.264  10.512 -1.8417  0.5933 -3.9796
  305MOL0     H41114   0.203   1.423  10.414 -1.4206  1.2512 -0.6815
  305MOL0     H41115   0.182   1.490  10.572 -2.6047  0.8923  0.5773
  305MOL0     H41116  -0.051   1.333  10.442 -1.5618 -0.5807  1.1336
  305MOL0     H41117  -0.049   1.414  10.598 -2.0767  0.0972 -1.1289
  305MOL0     H41118   0.004   1.645  10.495 -0.4674 -0.5473  0.6781
  305MOL0     H41119  -0.010   1.568  10.343  0.7500  1.3686 -0.8020
  305MOL0     H41120  -0.252   1.567  10.396 -0.4414 -0.3108  0.9719
  305MOL0     H41121  -0.230   1.538  10.569 -0.1676  0.5159  0.8057
  305MOL0     H41122  -0.155   1.777  10.601  0.4293 -3.3925 -0.2497
  305MOL0     H41123  -0.318   1.743  10.532 -1.6253  3.5940 -2.5474
  305MOL0     H41124  -0.081   1.852  10.374  1.6398 -2.8319  2.0236
  305MOL0     H41125  -0.226   1.778  10.307  2.3131 -1.0481 -0.4520
  305MOL0     H41126  -0.076   2.038  10.554 -0.8453  2.6878  1.7704
  305MOL0     H41127  -0.185   2.337  10.608  0.6126 -1.3204  0.1395
  305MOL0     H41128  -0.359   2.311  10.650 -0.2346  2.0228 -1.9193
  305MOL0     H41129  -0.123   2.147  10.760  0.4401 -0.7662 -0.9083
  305MOL0     H41130  -0.221   2.276  10.829 -0.1390  2.5282 -2.3294
  305MOL0     H41131  -0.340   2.003  10.749  0.0754 -0.7964 -0.2732
  305MOL0     H41132  -0.416   2.143  10.842  0.8804  1.6934  2.3104
  305MOL0     H41133  -0.183   1.964  10.914 -0.5685 -1.7508  0.7810
  305MOL0     H41134  -0.349   1.952  10.969  0.2891  0.1582  0.5327
  305MOL0     H41135  -0.204   1.881  11.140  0.5509  1.1000  0.2557
  305MOL0     H41136  -0.270   1.800  11.374 -3.4088  0.5875  4.5567
  305MOL0     H41137  -0.269   1.621  11.719 -1.3476  0.4984 -3.0156
  305MOL0     H41138  -0.314   1.551  11.961 -0.5585 -0.3601  0.4882
  305MOL0     H41139  -0.499   1.680  12.297  0.1925 -0.4551 -0.9220
  305MOL0     H41140  -0.495   1.816  12.192 -0.0913  0.6279 -2.5520
  305MOL0     H41141  -0.734   1.724  12.104 -1.8182  2.1548  0.9824
  305MOL0     H41142  -0.715   1.613  12.243  1.4375 -0.9766  0.1396
  305MOL0     H41143  -0.668   1.835  12.383  1.7345 -1.2576 -1.0509
  305MOL0     H41144  -0.709   1.928  12.236 -3.4300 -0.3789 -2.0680
  305MOL0     H41145  -0.883   1.747  12.405  1.7522  0.8842  1.0726
  305MOL0     H41146  -0.919   1.802  12.232 -1.1929 -0.3869  0.4981
  305MOL0     H41147  -0.847   1.976  12.471  1.2056 -0.1421 -0.7706
  305MOL0     H41148  -1.016   1.935  12.446 -2.1487 -0.1635 -2.3186
  305MOL0     H41149  -0.980   2.143  12.379 -1.0405 -0.9201 -0.5784
  305MOL0     H41150  -0.846   2.114  12.265 -1.0426 -1.2640 -4.9249
  305MOL0     H41151  -1.138   2.046  12.235  1.6631 -1.7387  3.5141
  305MOL0     H41152  -0.999   1.980  12.125 -1.7909 -1.0991 -0.4738
  305MOL0     H41153  -1.144   2.218  12.077  0.2650 -1.0622 -5.5507
  305MOL0     H41154  -0.997   2.274  12.160  0.8149 -2.0555  1.9121
  305MOL0     H41155  -0.625   1.847  11.979  0.1844  0.6966  1.3647
  305MOL0     H41156  -0.560   1.938  11.766 -0.5639 -0.1675 -1.2543
  305MOL0     H41157  -0.361   2.200  11.481 -0.6949  1.0836 -0.8317
  305MOL0     H41158  -0.315   2.279  11.257 -0.2606  1.4927  3.5686
  305MOL0     H41159   0.189   1.215  10.979  2.0229 -1.9699 -3.0978
  305MOL0     H41160   0.265   1.212  11.192 -0.1808 -3.4230 -2.8908
  305MOL0     H41161   0.614   1.459  11.472  0.6966 -0.0742  0.7957
  305MOL0     H41162   0.756   1.433  11.667  1.2630  0.0481  0.4858
  305MOL0     H41163   0.601   1.161  11.989 -3.1745  2.0520  1.0993
  305MOL0     H41164   0.611   1.321  12.073  1.3777  0.1832  0.8860
  305MOL0     H41165   0.881   1.255  12.045  0.1142 -0.4809 -2.3869
  305MOL0     H41166   0.811   1.093  12.043  1.7430 -0.3252  1.0212
  305MOL0     H41167   0.699   1.142  12.265 -1.4511  0.4659 -0.5023
  305MOL0     H41168   0.777   1.303  12.267 -0.8357  0.3940  0.8112
  305MOL0     H41169   0.916   1.027  12.265 -2.3279 -0.3608 -4.4748
  305MOL0     H41170   0.997   1.175  12.219  0.1558  2.7662  2.3861
  305MOL0     H41171   1.028   1.225  12.618  0.1890  0.2254 -0.8660
  305MOL0     H41172   0.463   1.182  11.850 -1.3005  2.3030 -0.4384
  305MOL0     H41173   0.204   1.181  11.674  0.4898  1.2027  0.9193
  305MOL0     H41174   0.286   1.089  11.538  3.5196  1.4933 -1.7320
  305MOL0     H41175   0.307   1.055  11.718 -0.1310  1.0953  1.2630
  306MOL0     O41176   1.911   4.251   5.723  0.4262  0.7690  0.4348
  306MOL0     C41177   1.992   4.336   5.748  0.3790  1.0669  0.3268
  306MOL0     O41178   1.966   4.462   5.761  0.9272 -0.6501  0.1283
  306MOL0     C41179   1.845   4.528   5.744  0.0317  0.0940 -0.9155
  306MOL0     C41180   1.838   4.647   5.814 -0.2353 -0.6425  0.0551
  306MOL0     C41181   1.718   4.720   5.822  1.1791 -0.0928  0.4678
  306MOL0     C41182   1.608   4.675   5.748 -0.2347 -0.1701  0.5266
  306MOL0     O41183   1.488   4.730   5.765 -0.7191 -0.2402 -0.0158
  306MOL0     C41184   1.481   4.863   5.827  0.0185 -0.4343  0.6014
  306MOL0     C41185   1.332   4.921   5.819 -0.0781 -0.1630 -0.0581
  306MOL0     C41186   1.230   4.830   5.876  0.2140 -0.4991  0.3834
  306MOL0     C41187   1.085   4.898   5.854 -0.3929  0.7571  0.1831
  306MOL0     C41188   0.970   4.807   5.900 -0.7670 -1.5876  0.1612
  306MOL0     C41189   0.831   4.862   5.861 -0.2375  0.0664  0.7878
  306MOL0     C41190   0.717   4.759   5.897  0.4924 -0.2364 -0.0451
  306MOL0     C41191   0.701   4.705   6.032 -0.5325 -0.7081  0.4358
  306MOL0     N41192   0.678   4.818   6.124 -0.2626  0.2103 -0.8309
  306MOL0     C41193   0.561   4.892   6.131 -0.1900  0.4594  0.2597
  306MOL0     C41194   0.574   4.967   6.246 -0.4117 -0.2086 -0.2929
  306MOL0     C41195   0.481   5.076   6.296  0.1372 -0.2091 -0.4963
  306MOL0     C41196   0.337   5.069   6.278 -0.8926 -0.4839 -0.1581
  306MOL0     C41197   0.268   5.161   6.174  0.5255 -0.6345  0.4715
  306MOL0     C41198   0.295   5.310   6.203 -0.2410 -0.1002  1.0274
  306MOL0     O41199   0.273   5.356   6.341  0.3873  0.3642  0.1516
  306MOL0     C41200   0.282   5.490   6.353  0.3602  0.6360  0.9031
  306MOL0     C41201   0.379   5.561   6.420 -0.0846 -0.2827  0.7926
  306MOL0     C41202   0.385   5.707   6.410  0.1819  0.4163 -0.0431
  306MOL0     C41203   0.279   5.775   6.338 -0.0868 -0.3666  0.3218
  306MOL0     C41204   0.283   5.922   6.320 -0.4379 -0.1296  0.1617
  306MOL0     O41205   0.161   5.975   6.285 -0.6691 -0.3383 -0.4266
  306MOL0     C41206   0.149   6.114   6.297 -0.1080  0.3739 -0.1191
  306MOL0     C41207   0.104   6.167   6.413  0.1452 -0.2159 -0.2381
  306MOL0     C41208   0.066   6.306   6.424  0.6934  1.0070 -0.1402
  306MOL0     C41209   0.071   6.387   6.309 -0.6733 -0.9936  0.1764
  306MOL0     O41210   0.037   6.523   6.297  0.1325 -0.6212  0.0479
  306MOL0     C41211  -0.017   6.591   6.410  0.4984  0.6366 -0.0280
  306MOL0     C41212   0.009   6.740   6.376 -0.8815 -0.3426 -0.6736
  306MOL0     C41213   0.002   6.818   6.509  0.2589 -1.1212 -1.2226
  306MOL0     C41214  -0.005   6.969   6.473  0.6738  0.0542 -0.0618
  306MOL0     C41215   0.023   7.060   6.595  0.8979  0.1615 -0.2316
  306MOL0     C41216  -0.103   7.064   6.693 -0.5155  0.0125  0.5315
  306MOL0     C41217  -0.059   7.158   6.810  0.4634 -0.1423  0.9826
  306MOL0     C41218  -0.173   7.214   6.889 -0.0364 -0.6254  0.4266
  306MOL0    Cl41219  -0.271   7.344   6.794  0.0149 -0.0895 -0.4606
  306MOL0     C41220   0.135   6.332   6.198 -0.1000  0.4231  0.2607
  306MOL0     C41221   0.162   6.196   6.194 -0.0072 -0.4304  0.9477
  306MOL0     O41222   0.394   5.989   6.319 -0.1676  0.5241 -0.2553
  306MOL0     C41223   0.165   5.700   6.293  0.5834 -0.6420  0.2812
  306MOL0     C41224   0.177   5.569   6.288  0.5263 -0.1144 -0.3601
  306MOL0     N41225   0.696   4.936   6.308  0.7772 -1.0945  0.5432
  306MOL0     N41226   0.754   4.854   6.239  0.0121  0.8203  0.0724
  306MOL0     C41227   1.616   4.557   5.665  0.6716 -0.4805  0.8680
  306MOL0     C41228   1.731   4.480   5.672 -0.7129 -0.9441  0.8051
  306MOL0     C41229   2.130   4.289   5.763  0.1124 -0.9782  0.1814
  306MOL0     C41230   2.223   4.371   5.824 -0.0208 -0.2762  0.9289
  306MOL0     C41231   2.364   4.336   5.831  0.3978 -0.7317 -0.3663
  306MOL0     C41232   2.409   4.214   5.786 -0.2296  0.8584  0.0762
  306MOL0     O41233   2.542   4.172   5.804  0.3155 -0.1613  0.1599
  306MOL0     C41234   2.638   4.283   5.794 -0.2473  0.2708  0.1754
  306MOL0     C41235   2.777   4.224   5.782  0.0764 -1.2501  0.0232
  306MOL0     C41236   2.796   4.182   5.638 -0.1928 -0.6323 -0.0941
  306MOL0     C41237   2.948   4.163   5.603 -0.3847  0.4661 -0.1875
  306MOL0     C41238   3.046   4.267   5.644  0.1834 -0.4912 -0.9886
  306MOL0     C41239   3.133   4.343   5.679 -0.3851 -0.5497 -0.1279
  306MOL0     C41240   2.320   4.129   5.727  0.0829  0.8458  0.7434
  306MOL0     C41241   2.184   4.165   5.707 -0.3718  0.2934  0.1281
  306MOL0     C41242   2.094   4.067   5.637  0.8707  0.6040 -0.4247
  306MOL0     H41243   1.919   4.697   5.867 -0.2920 -1.2245  0.7197
  306MOL0     H41244   1.714   4.804   5.891 -0.7909 -0.1731  0.5076
  306MOL0     H41245   1.502   4.853   5.934  1.8544 -0.8570  0.2294
  306MOL0     H41246   1.537   4.941   5.776  2.1668 -1.4027  1.3468
  306MOL0     H41247   1.314   4.938   5.712  0.8929 -0.4206 -0.2717
  306MOL0     H41248   1.328   5.018   5.869 -1.0886 -1.6090  2.8761
  306MOL0     H41249   1.247   4.817   5.983 -0.4536  1.0392  0.6973
  306MOL0     H41250   1.232   4.730   5.831 -2.1395  1.7898 -5.9799
  306MOL0     H41251   1.082   4.995   5.904  1.9213  1.5498 -1.0251
  306MOL0     H41252   1.077   4.919   5.747  3.3481  0.7652 -0.2200
  306MOL0     H41253   0.983   4.705   5.864  0.8083 -0.8855 -1.4041
  306MOL0     H41254   0.952   4.824   6.007  0.4292  0.7799  0.0427
  306MOL0     H41255   0.817   4.955   5.918 -0.8825 -1.7049  3.7763
  306MOL0     H41256   0.824   4.874   5.753  1.2602 -0.2381  0.6444
  306MOL0     H41257   0.723   4.675   5.826  1.9462  0.9513 -1.4032
  306MOL0     H41258   0.623   4.810   5.875  2.3726  3.8037  0.3518
  306MOL0     H41259   0.613   4.640   6.033 -1.1014  0.0508  0.2182
  306MOL0     H41260   0.788   4.648   6.067  0.7772  1.8670  1.5667
  306MOL0     H41261   0.476   4.890   6.063  1.6934 -0.2219 -2.2005
  306MOL0     H41262   0.499   5.071   6.404 -0.0969 -0.4439 -0.4666
  306MOL0     H41263   0.505   5.171   6.249 -1.0295  1.5238  2.1910
  306MOL0     H41264   0.310   4.966   6.252 -1.6792  0.1400 -2.0332
  306MOL0     H41265   0.292   5.082   6.376  0.0492 -2.4067  0.5850
  306MOL0     H41266   0.161   5.141   6.184  0.1559  1.3169  0.9635
  306MOL0     H41267   0.303   5.123   6.078 -0.9432  0.7427 -0.6828
  306MOL0     H41268   0.226   5.373   6.145 -1.7841  1.1862  4.0536
  306MOL0     H41269   0.397   5.338   6.174 -0.1553  1.4775  2.7187
  306MOL0     H41270   0.459   5.510   6.473  2.0934 -3.0280 -4.4680
  306MOL0     H41271   0.465   5.768   6.451  0.5133 -0.8017  1.1845
  306MOL0     H41272   0.101   6.107   6.504 -1.3664  0.3091  0.0789
  306MOL0     H41273   0.028   6.346   6.518 -0.9258 -0.9884  0.1188
  306MOL0     H41274  -0.123   6.570   6.425  0.8321  0.1742  1.8766
  306MOL0     H41275   0.043   6.587   6.502  0.7463  2.6470 -0.0599
  306MOL0     H41276   0.105   6.750   6.326 -0.5641 -0.4804 -0.0979
  306MOL0     H41277  -0.071   6.773   6.309 -1.6198  0.4921  0.5788
  306MOL0     H41278  -0.092   6.793   6.561 -0.8331  1.2896 -1.8869
  306MOL0     H41279   0.089   6.795   6.571 -0.0238 -0.3821 -0.5233
  306MOL0     H41280  -0.101   7.002   6.434  0.3199 -1.2447 -0.3260
  306MOL0     H41281   0.073   6.993   6.400  1.6237 -1.9605  0.2134
  306MOL0     H41282   0.029   7.164   6.563  0.3347  0.4383  0.5599
  306MOL0     H41283   0.112   7.024   6.649  0.9288  0.6502  0.0410
  306MOL0     H41284  -0.187   7.115   6.646  1.2562  1.1200 -1.5946
  306MOL0     H41285  -0.133   6.967   6.736  2.2726  0.4795  3.9391
  306MOL0     H41286  -0.010   7.251   6.779 -1.0951  1.0280  1.8707
  306MOL0     H41287   0.010   7.104   6.875 -1.5251 -0.3883  3.0012
  306MOL0     H41288  -0.235   7.133   6.928 -1.2723  0.6396  1.2360
  306MOL0     H41289  -0.135   7.271   6.975 -2.9947  0.9695  0.8504
  306MOL0     H41290   0.158   6.393   6.111  2.0229 -1.2140 -0.4263
  306MOL0     H41291   0.211   6.156   6.106 -0.3618  0.0940  0.5046
  306MOL0     H41292   0.091   5.752   6.233 -0.8247 -2.5642  0.2822
  306MOL0     H41293   0.111   5.525   6.214 -0.4303  2.5126 -1.1858
  306MOL0     H41294   1.538   4.530   5.594  1.2622 -0.0327  0.0265
  306MOL0     H41295   1.742   4.388   5.614 -1.0701  1.3481 -3.3168
  306MOL0     H41296   2.188   4.466   5.864  0.1787 -1.0332  3.0122
  306MOL0     H41297   2.438   4.400   5.879 -0.1449 -1.1535  1.1044
  306MOL0     H41298   2.630   4.350   5.880 -2.2338 -0.7966  0.9144
  306MOL0     H41299   2.617   4.333   5.700  0.7751 -2.9762 -1.9493
  306MOL0     H41300   2.788   4.148   5.859 -0.2746 -0.5260  0.8013
  306MOL0     H41301   2.851   4.295   5.819 -1.8877 -0.1704  2.1959
  306MOL0     H41302   2.770   4.267   5.574 -0.6264 -0.4287  0.3436
  306MOL0     H41303   2.732   4.098   5.612  0.6489 -0.9789 -1.1019
  306MOL0     H41304   2.982   4.068   5.645 -0.2300  1.6507  2.5649
  306MOL0     H41305   2.958   4.146   5.495 -1.3974 -3.6822  0.2086
  306MOL0     H41306   3.205   4.417   5.704 -3.1342  2.0818  0.5696
  306MOL0     H41307   2.368   4.034   5.705 -1.7318  0.3317 -1.2963
  306MOL0     H41308   2.151   3.980   5.603  0.3938  0.4204 -0.7626
  306MOL0     H41309   2.020   4.026   5.707  3.3660 -1.8284  0.9822
  306MOL0     H41310   2.051   4.113   5.548 -1.1274  3.2699  1.7280
  307MOL0     O41311   1.803   8.468   0.984  0.1711  0.4872 -0.4259
  307MOL0     C41312   1.702   8.449   0.924 -0.7796 -0.1200 -0.5145
  307MOL0     O41313   1.609   8.354   0.949 -0.0121  0.3006 -1.1643
  307MOL0     C41314   1.600   8.304   1.076 -0.2096 -0.0279 -0.6949
  307MOL0     C41315   1.672   8.187   1.097 -0.1706  0.6537 -0.3896
  307MOL0     C41316   1.669   8.135   1.223 -0.3859  0.2307 -0.6197
  307MOL0     C41317   1.603   8.192   1.331 -0.2907  0.4470 -0.2905
  307MOL0     O41318   1.603   8.141   1.456 -1.3224 -0.4896 -0.1293
  307MOL0     C41319   1.627   7.996   1.468  0.2799  1.1302  0.4722
  307MOL0     C41320   1.632   7.947   1.615  0.4813 -0.0238  0.7167
  307MOL0     C41321   1.698   8.047   1.709 -0.4139 -0.2072 -0.0953
  307MOL0     C41322   1.720   8.018   1.860  0.2929 -0.1519 -0.1077
  307MOL0     C41323   1.589   7.980   1.935 -0.2089 -0.3898  0.4503
  307MOL0     C41324   1.610   7.902   2.066 -0.3112 -0.6794 -0.0813
  307MOL0     C41325   1.582   7.994   2.185 -0.0527 -0.6093  0.1400
  307MOL0     C41326   1.706   8.071   2.228 -0.5410  0.1182 -0.5595
  307MOL0     N41327   1.680   8.185   2.311  0.3244  1.0179 -0.3281
  307MOL0     C41328   1.675   8.186   2.449 -0.0943  0.4182  0.0992
  307MOL0     C41329   1.705   8.305   2.485 -0.2223 -0.8545  0.0727
  307MOL0     C41330   1.741   8.348   2.622 -0.6637  0.0974 -0.8238
  307MOL0     C41331   1.650   8.461   2.672 -0.4703  0.3940 -0.1484
  307MOL0     C41332   1.522   8.404   2.740  0.8855  0.5112  0.3225
  307MOL0     C41333   1.446   8.521   2.806  0.6444  0.6951  0.3938
  307MOL0     O41334   1.350   8.480   2.906 -0.2114  0.2563  0.2698
  307MOL0     C41335   1.239   8.405   2.864  0.4935 -0.6841 -0.2820
  307MOL0     C41336   1.176   8.417   2.738  0.2466  0.5416  0.4431
  307MOL0     C41337   1.072   8.324   2.713 -0.5394 -0.5756 -0.8590
  307MOL0     C41338   1.019   8.235   2.811  0.3377  0.1720  0.1346
  307MOL0     C41339   0.907   8.150   2.767  0.3402  0.8027 -1.4400
  307MOL0     O41340   0.891   8.119   2.637  0.0712 -0.7906 -0.5685
  307MOL0     C41341   0.789   8.030   2.604  0.0307 -0.9384  0.2471
  307MOL0     C41342   0.652   8.031   2.650 -1.0428 -1.1813  0.6715
  307MOL0     C41343   0.565   7.934   2.609 -0.1474 -0.3093  1.4346
  307MOL0     C41344   0.615   7.836   2.525  0.4028 -0.2190  0.1215
  307MOL0     O41345   0.532   7.729   2.503 -0.3820 -1.0799 -0.0994
  307MOL0     C41346   0.436   7.763   2.406  0.0391  0.8279  0.1873
  307MOL0     C41347   0.389   7.621   2.368  0.3905 -1.6414  0.1826
  307MOL0     C41348   0.274   7.613   2.265  0.0350 -0.3578  0.2364
  307MOL0     C41349   0.142   7.654   2.335  0.0777  0.5076 -0.3450
  307MOL0     C41350   0.017   7.593   2.264 -0.9981  0.1211  0.5878
  307MOL0     C41351  -0.002   7.645   2.120 -0.0826  0.7733 -0.1934
  307MOL0     C41352  -0.121   7.585   2.032 -0.6558 -0.0230  0.3322
  307MOL0     C41353  -0.134   7.432   1.993 -0.3902  0.4831 -0.1055
  307MOL0    Cl41354  -0.256   7.402   1.875 -0.4175  0.0176  0.2503
  307MOL0     C41355   0.742   7.832   2.463 -0.8754 -0.5443 -0.3905
  307MOL0     C41356   0.825   7.934   2.503  0.2625  1.6932  0.1654
  307MOL0     O41357   0.849   8.087   2.858 -0.2157  0.3477  0.4956
  307MOL0     C41358   1.070   8.246   2.939  0.0905 -0.6175 -0.0215
  307MOL0     C41359   1.185   8.316   2.961  0.3333 -1.4858  0.5199
  307MOL0     N41360   1.696   8.383   2.372  0.1473 -0.2565 -0.3942
  307MOL0     N41361   1.682   8.306   2.271 -1.0359  0.9405 -0.3488
  307MOL0     C41362   1.542   8.315   1.311 -0.2110 -0.3859 -0.5953
  307MOL0     C41363   1.529   8.372   1.185  0.5920 -0.2232 -0.1720
  307MOL0     C41364   1.683   8.532   0.800  0.3550 -0.0487  0.8286
  307MOL0     C41365   1.766   8.642   0.769 -0.5285 -0.7254 -0.6173
  307MOL0     C41366   1.748   8.717   0.655 -0.3801  1.0907 -0.5621
  307MOL0     C41367   1.657   8.690   0.563  0.6006  0.2397  0.5082
  307MOL0     O41368   1.656   8.781   0.456 -0.4471 -0.2772 -0.2136
  307MOL0     C41369   1.599   8.745   0.340  0.0100 -0.8697  0.1301
  307MOL0     C41370   1.655   8.804   0.214  0.1602 -0.6996 -0.6634
  307MOL0     C41371   1.791   8.745   0.162 -0.1159 -0.4695  0.1120
  307MOL0     C41372   1.838   8.840   0.042  0.4635  0.0140  0.1938
  307MOL0     C41373   1.765   8.837  -0.088  0.1669 -0.7967  0.1144
  307MOL0     C41374   1.701   8.819  -0.190 -0.6501  0.6978 -1.0591
  307MOL0     C41375   1.583   8.573   0.582 -0.0155 -0.0128 -0.8051
  307MOL0     C41376   1.593   8.490   0.697  0.3778 -0.9060  0.3305
  307MOL0     C41377   1.514   8.358   0.695  1.2815 -0.0542 -0.1978
  307MOL0     H41378   1.744   8.150   1.024  1.4374  2.7830  0.0232
  307MOL0     H41379   1.715   8.037   1.226  1.0774  0.8778  2.6863
  307MOL0     H41380   1.546   7.939   1.422  0.7976  0.8233 -0.0833
  307MOL0     H41381   1.716   7.966   1.412 -0.6946 -2.1774  0.5018
  307MOL0     H41382   1.675   7.846   1.609 -4.2814 -2.2814 -0.0941
  307MOL0     H41383   1.530   7.926   1.647 -0.7490  2.2717 -1.3584
  307MOL0     H41384   1.631   8.133   1.698 -0.3852 -0.3898 -1.8830
  307MOL0     H41385   1.790   8.088   1.666 -0.4941  0.9842  0.7974
  307MOL0     H41386   1.794   7.937   1.859 -0.0150 -0.5078  1.8775
  307MOL0     H41387   1.765   8.098   1.920 -0.0342 -0.3440  0.4055
  307MOL0     H41388   1.522   8.065   1.948  0.0586 -0.2735  1.0853
  307MOL0     H41389   1.522   7.912   1.881  0.5260  0.1388 -1.1960
  307MOL0     H41390   1.541   7.817   2.067 -1.1543 -0.0278 -0.7972
  307MOL0     H41391   1.710   7.859   2.075  0.4454  0.4893 -2.0894
  307MOL0     H41392   1.554   7.933   2.272 -2.2794 -0.6240 -0.5235
  307MOL0     H41393   1.489   8.050   2.178 -0.7882 -2.0051 -2.1483
  307MOL0     H41394   1.762   8.003   2.292 -3.1556 -0.5660  1.1608
  307MOL0     H41395   1.757   8.103   2.136 -0.3158  0.5623 -0.2852
  307MOL0     H41396   1.664   8.091   2.502 -0.6236 -2.5467 -4.7309
  307MOL0     H41397   1.725   8.266   2.692  4.7525 -0.6688 -0.0315
  307MOL0     H41398   1.850   8.359   2.623 -0.3074 -2.8069 -1.0027
  307MOL0     H41399   1.697   8.536   2.736 -2.4353  3.2475 -1.8170
  307MOL0     H41400   1.610   8.523   2.591  0.8048  0.2632 -0.9106
  307MOL0     H41401   1.531   8.327   2.817 -1.1466 -2.8833 -2.4820
  307MOL0     H41402   1.454   8.349   2.674  0.8625 -2.5904  2.7221
  307MOL0     H41403   1.379   8.574   2.737 -0.5096 -1.9579 -0.6417
  307MOL0     H41404   1.507   8.592   2.863  0.8392  0.6123  0.2928
  307MOL0     H41405   1.211   8.479   2.655  1.8479 -2.4103 -1.2606
  307MOL0     H41406   1.019   8.336   2.619  2.7355  0.2749 -2.7528
  307MOL0     H41407   0.623   8.109   2.720  3.9095  0.6229  1.1653
  307MOL0     H41408   0.458   7.931   2.627 -0.6543 -0.1785 -1.1088
  307MOL0     H41409   0.355   7.819   2.454 -1.1943 -0.1493 -0.6791
  307MOL0     H41410   0.470   7.812   2.314 -4.7001  3.2201 -0.5981
  307MOL0     H41411   0.478   7.578   2.321  0.9428  1.0466 -1.4577
  307MOL0     H41412   0.362   7.561   2.455 -0.7059 -0.1487  0.9199
  307MOL0     H41413   0.293   7.685   2.186 -0.7864  0.1472  0.4901
  307MOL0     H41414   0.262   7.517   2.214 -1.0017  0.7533 -1.7013
  307MOL0     H41415   0.140   7.763   2.343  0.0675  0.4075  1.3589
  307MOL0     H41416   0.133   7.614   2.437 -0.0909 -0.7098 -0.8236
  307MOL0     H41417  -0.075   7.615   2.319 -3.9196 -0.8553 -3.4732
  307MOL0     H41418   0.039   7.486   2.260 -2.2943 -0.1562  0.5673
  307MOL0     H41419  -0.011   7.753   2.129  2.2360  0.9161  1.1731
  307MOL0     H41420   0.086   7.623   2.058  0.6014  3.3426 -0.2477
  307MOL0     H41421  -0.122   7.631   1.932 -1.0917 -1.7412 -0.4963
  307MOL0     H41422  -0.212   7.614   2.085  0.2454  1.6561  1.0393
  307MOL0     H41423  -0.033   7.393   1.979 -1.2307 -0.6689 -4.7727
  307MOL0     H41424  -0.164   7.371   2.079  4.8521  0.5697  2.1075
  307MOL0     H41425   0.779   7.752   2.399 -0.2479 -0.9921  0.5072
  307MOL0     H41426   0.924   7.936   2.458  0.7677 -1.3907  0.9741
  307MOL0     H41427   1.041   8.179   3.019 -1.2302 -1.2330 -0.9884
  307MOL0     H41428   1.228   8.332   3.059 -1.3594 -3.5481  1.6967
  307MOL0     H41429   1.502   8.359   1.401 -3.3302 -1.1147 -1.5109
  307MOL0     H41430   1.485   8.468   1.160 -1.4947 -1.1849 -0.4514
  307MOL0     H41431   1.847   8.674   0.834 -2.5772 -0.2263  1.8679
  307MOL0     H41432   1.815   8.801   0.641 -1.3727  1.6625 -2.3573
  307MOL0     H41433   1.497   8.783   0.332  0.8128  1.1480 -1.2981
  307MOL0     H41434   1.607   8.636   0.327  3.6991 -1.0701  2.4475
  307MOL0     H41435   1.667   8.911   0.234 -0.3677 -0.9417  1.1811
  307MOL0     H41436   1.582   8.791   0.134  1.5001 -0.0469 -2.0484
  307MOL0     H41437   1.779   8.646   0.117  0.5734 -1.6437  2.3786
  307MOL0     H41438   1.868   8.761   0.238  1.0730  0.9800 -1.3294
  307MOL0     H41439   1.857   8.943   0.073 -1.8040  1.2464 -2.1066
  307MOL0     H41440   1.932   8.789   0.017 -0.0701 -1.0809  0.3549
  307MOL0     H41441   1.633   8.770  -0.257 -0.9005 -0.0079 -0.3101
  307MOL0     H41442   1.511   8.550   0.505 -0.3512  0.8385 -0.7590
  307MOL0     H41443   1.423   8.363   0.755  1.5039  1.7420  0.0473
  307MOL0     H41444   1.478   8.333   0.595 -0.0139  1.2295 -0.0913
  307MOL0     H41445   1.577   8.274   0.726 -0.8369 -3.0037 -3.1959
  308MOL0     O41446   0.075   5.924   8.137 -0.1553  0.1263 -0.0295
  308MOL0     C41447   0.021   5.816   8.138 -0.4303  0.2863  0.3712
  308MOL0     O41448   0.030   5.731   8.032  0.1665 -0.9243 -0.2328
  308MOL0     C41449   0.139   5.726   7.951 -0.3458 -0.5865 -0.1463
  308MOL0     C41450   0.115   5.687   7.821 -1.2941  0.7122  0.7948
  308MOL0     C41451   0.213   5.669   7.727 -0.4774  0.0895  0.6402
  308MOL0     C41452   0.355   5.690   7.757 -0.1135  0.4423 -0.7033
  308MOL0     O41453   0.459   5.681   7.673 -1.0099 -0.1330 -1.0377
  308MOL0     C41454   0.458   5.574   7.574 -0.0992  0.1548  0.9426
  308MOL0     C41455   0.593   5.565   7.504  0.3528 -0.1854 -0.1958
  308MOL0     C41456   0.600   5.471   7.390  0.6464 -0.4330 -0.3446
  308MOL0     C41457   0.736   5.485   7.318 -0.3656  0.1044 -0.4803
  308MOL0     C41458   0.743   5.406   7.194 -0.1921  0.0695  0.9270
  308MOL0     C41459   0.648   5.459   7.090 -0.1015 -0.7882 -0.4615
  308MOL0     C41460   0.680   5.411   6.954 -0.0883 -0.5972 -0.7461
  308MOL0     C41461   0.585   5.477   6.862 -0.4459 -0.8536  0.5114
  308MOL0     N41462   0.642   5.484   6.722 -0.1633  0.0633  0.4127
  308MOL0     C41463   0.714   5.385   6.661  0.3754  0.5930 -0.0066
  308MOL0     C41464   0.774   5.433   6.552  0.2206  0.1005  0.2202
  308MOL0     C41465   0.876   5.364   6.471 -0.7509  0.9055  0.1508
  308MOL0     C41466   0.815   5.284   6.352  0.3371  0.0842  0.5221
  308MOL0     C41467   0.917   5.199   6.260 -0.9685 -0.4726  0.1049
  308MOL0     C41468   1.000   5.090   6.330 -0.1943 -0.2788 -1.2410
  308MOL0     O41469   1.120   5.160   6.381 -0.5399  0.3164  0.2059
  308MOL0     C41470   1.205   5.168   6.279 -1.2063 -1.1108 -0.7498
  308MOL0     C41471   1.238   5.293   6.229 -0.4097  0.2335 -0.6419
  308MOL0     C41472   1.352   5.315   6.154  1.2092  1.2749 -0.0737
  308MOL0     C41473   1.427   5.205   6.108 -0.1700 -0.7059  0.0488
  308MOL0     C41474   1.538   5.219   6.020 -0.3121 -0.5788  0.9593
  308MOL0     O41475   1.595   5.349   6.019 -1.2278 -0.1050  0.7024
  308MOL0     C41476   1.713   5.366   5.954 -0.9839 -0.1680  0.2164
  308MOL0     C41477   1.821   5.271   5.968 -0.7028  0.7501  0.3144
  308MOL0     C41478   1.943   5.285   5.904  0.0848 -0.5951  0.4746
  308MOL0     C41479   1.955   5.393   5.808  0.0976 -0.1529  1.3861
  308MOL0     O41480   2.074   5.436   5.751 -0.5368 -0.0706  0.0029
  308MOL0     C41481   2.202   5.401   5.810 -0.8561 -0.4328  0.4914
  308MOL0     C41482   2.317   5.462   5.716  0.5985  0.0419 -0.8959
  308MOL0     C41483   2.315   5.618   5.720 -0.1603  0.3376 -0.1074
  308MOL0     C41484   2.433   5.658   5.631 -0.0941  0.8726  0.0461
  308MOL0     C41485   2.429   5.801   5.582 -0.1565 -0.8592 -0.6095
  308MOL0     C41486   2.337   5.798   5.458 -0.2092  0.4201  0.9073
  308MOL0     C41487   2.372   5.921   5.370  0.6573  0.3155  0.2278
  308MOL0     C41488   2.350   6.058   5.425 -0.5288 -0.0465 -0.5309
  308MOL0    Cl41489   2.354   6.175   5.290  0.1386  0.1938  0.1302
  308MOL0     C41490   1.859   5.497   5.810 -0.1720 -0.6599  0.1099
  308MOL0     C41491   1.737   5.477   5.876 -0.1685 -0.1391  0.0545
  308MOL0     O41492   1.581   5.121   5.962 -0.1502 -0.8163 -0.5137
  308MOL0     C41493   1.380   5.075   6.132  0.4455  0.1533 -0.0427
  308MOL0     C41494   1.268   5.054   6.225  0.1330 -0.6487  0.2751
  308MOL0     N41495   0.743   5.566   6.545 -0.4577  0.2700  0.6630
  308MOL0     N41496   0.674   5.593   6.654 -0.0904 -0.4759  0.2638
  308MOL0     C41497   0.381   5.718   7.900 -0.1181 -0.5742 -0.3209
  308MOL0     C41498   0.272   5.748   7.986 -0.2506  0.3198 -0.2853
  308MOL0     C41499  -0.055   5.782   8.254  0.6047 -0.8153 -1.0941
  308MOL0     C41500  -0.044   5.654   8.314 -0.2923 -0.4611 -0.5609
  308MOL0     C41501  -0.111   5.634   8.432  0.4141 -0.3014  0.2418
  308MOL0     C41502  -0.189   5.732   8.491 -0.7388 -1.3261 -1.1007
  308MOL0     O41503  -0.237   5.703   8.620 -0.3817  0.7110  0.0438
  308MOL0     C41504  -0.330   5.794   8.679  1.0655 -0.1622  0.1237
  308MOL0     C41505  -0.470   5.758   8.630 -0.2424 -0.1051  0.7005
  308MOL0     C41506  -0.571   5.869   8.679 -0.9969  0.2889 -0.3924
  308MOL0     C41507  -0.677   5.889   8.574 -0.6386 -0.3621  0.6107
  308MOL0     C41508  -0.670   6.033   8.535  0.5304 -0.5407 -0.5867
  308MOL0     C41509  -0.665   6.157   8.518  0.2881 -0.5348 -0.6478
  308MOL0     C41510  -0.214   5.853   8.426 -0.4392  0.4928 -0.6088
  308MOL0     C41511  -0.149   5.883   8.310 -0.8777  0.0853 -0.0330
  308MOL0     C41512  -0.179   6.015   8.250  0.7064 -0.8003 -1.0551
  308MOL0     H41513   0.009   5.671   7.801 -0.8207 -1.6972 -0.1443
  308MOL0     H41514   0.177   5.633   7.631 -0.0461 -0.6214  0.7426
  308MOL0     H41515   0.440   5.474   7.613  0.0114 -0.8071 -1.3036
  308MOL0     H41516   0.374   5.602   7.509  0.8096  3.3395  0.9510
  308MOL0     H41517   0.667   5.524   7.574  0.3003 -0.9978 -0.6059
  308MOL0     H41518   0.620   5.665   7.469  0.3992  0.4827  1.6320
  308MOL0     H41519   0.521   5.485   7.315  0.6283 -0.3031 -0.3015
  308MOL0     H41520   0.594   5.370   7.431  0.2911 -0.2243  0.1400
  308MOL0     H41521   0.754   5.591   7.296 -0.3038  0.1345 -0.2911
  308MOL0     H41522   0.814   5.446   7.383 -2.4828 -2.4794  0.6900
  308MOL0     H41523   0.846   5.390   7.161 -0.4786  2.8496 -1.7024
  308MOL0     H41524   0.702   5.308   7.221  0.7557 -0.4831  0.4246
  308MOL0     H41525   0.546   5.423   7.107 -0.5194  1.5280  2.7492
  308MOL0     H41526   0.639   5.566   7.109 -0.2600 -1.3160  2.9150
  308MOL0     H41527   0.691   5.302   6.949  3.1904 -0.5689  2.2198
  308MOL0     H41528   0.781   5.448   6.935  0.3997 -2.8030 -2.9182
  308MOL0     H41529   0.493   5.418   6.854  0.3364 -2.1052  0.3655
  308MOL0     H41530   0.554   5.576   6.896  1.4882 -0.0420  0.0748
  308MOL0     H41531   0.708   5.282   6.695 -0.9834  0.2561 -1.1690
  308MOL0     H41532   0.952   5.435   6.438 -1.9617  0.9505 -2.7543
  308MOL0     H41533   0.922   5.297   6.544  0.0668  2.4654  1.1290
  308MOL0     H41534   0.735   5.216   6.384 -1.0192  1.7002  0.6973
  308MOL0     H41535   0.772   5.366   6.295  1.1676  0.1789  0.0128
  308MOL0     H41536   0.989   5.264   6.209  0.1879 -0.7531  1.3289
  308MOL0     H41537   0.868   5.150   6.175 -0.6480 -0.1228 -0.2880
  308MOL0     H41538   1.027   5.021   6.250 -1.1532  0.8564 -2.6027
  308MOL0     H41539   0.946   5.031   6.406  0.8454 -0.2607 -0.4659
  308MOL0     H41540   1.183   5.380   6.263 -0.1201 -0.7817  2.8328
  308MOL0     H41541   1.372   5.419   6.127 -0.7701  2.0850  1.3394
  308MOL0     H41542   1.805   5.185   6.032  2.6076  1.1715  1.9349
  308MOL0     H41543   2.029   5.221   5.918  1.3575  0.8130 -0.5445
  308MOL0     H41544   2.227   5.441   5.908 -0.9830 -4.1909  2.2417
  308MOL0     H41545   2.212   5.294   5.832 -0.4038 -0.3774  0.5621
  308MOL0     H41546   2.413   5.415   5.741  0.4892  0.5659  0.5893
  308MOL0     H41547   2.292   5.434   5.613  0.4153 -0.0710 -0.8208
  308MOL0     H41548   2.220   5.663   5.690 -2.5900 -3.5375  0.9909
  308MOL0     H41549   2.355   5.653   5.816  0.9369 -0.0055 -0.4237
  308MOL0     H41550   2.448   5.587   5.549  0.7441  1.3118 -0.1868
  308MOL0     H41551   2.526   5.628   5.679 -1.1852 -4.5523 -0.5024
  308MOL0     H41552   2.527   5.839   5.551 -1.5011  0.1803 -4.0363
  308MOL0     H41553   2.382   5.875   5.648 -2.4417 -2.6510 -0.0819
  308MOL0     H41554   2.337   5.709   5.394 -1.6060 -1.4543  3.3605
  308MOL0     H41555   2.231   5.805   5.485 -0.5888  3.3594 -0.7842
  308MOL0     H41556   2.327   5.913   5.271 -0.7661 -1.6978  0.9691
  308MOL0     H41557   2.480   5.925   5.352  1.2508  0.5039  3.1823
  308MOL0     H41558   2.246   6.060   5.458 -1.1468 -0.0866 -2.3595
  308MOL0     H41559   2.425   6.071   5.503 -2.7627 -1.0058  1.9371
  308MOL0     H41560   1.877   5.588   5.754  2.0661 -0.0417  1.6763
  308MOL0     H41561   1.651   5.543   5.870 -1.9455 -2.1237  1.9109
  308MOL0     H41562   1.441   4.991   6.102  0.1880  0.0101 -0.1687
  308MOL0     H41563   1.245   4.961   6.277 -2.8960  0.0451  0.3111
  308MOL0     H41564   0.485   5.727   7.931 -0.1193 -2.4703  0.3663
  308MOL0     H41565   0.285   5.781   8.088  3.1532 -2.3351  0.3254
  308MOL0     H41566   0.018   5.583   8.260  0.7060 -0.9651  1.1512
  308MOL0     H41567  -0.084   5.538   8.474  2.5290 -1.0199 -2.4574
  308MOL0     H41568  -0.310   5.901   8.665 -0.0318 -0.1791 -2.0582
  308MOL0     H41569  -0.330   5.776   8.787 -1.6467 -1.3314  0.0057
  308MOL0     H41570  -0.506   5.662   8.668 -1.7862  2.2473  6.1792
  308MOL0     H41571  -0.466   5.751   8.521  2.4644 -0.3378  0.7510
  308MOL0     H41572  -0.511   5.959   8.694 -0.1792 -0.0722 -1.3888
  308MOL0     H41573  -0.622   5.843   8.772 -1.0042  2.3525  0.2290
  308MOL0     H41574  -0.656   5.828   8.486 -1.2312 -0.6331  0.6547
  308MOL0     H41575  -0.773   5.846   8.604 -0.5915 -0.1027  1.1531
  308MOL0     H41576  -0.658   6.264   8.528  4.4801 -0.7490  1.2090
  308MOL0     H41577  -0.276   5.928   8.475  2.7921  0.4246  4.3572
  308MOL0     H41578  -0.110   6.097   8.273  1.4309 -1.8611  0.8406
  308MOL0     H41579  -0.179   6.002   8.142  0.3923  0.7771 -1.2667
  308MOL0     H41580  -0.281   6.053   8.263  1.6414  1.8415 -0.8450
  309MOL0     O41581  10.071   0.775  11.164  0.5099  0.2934 -0.2343
  309MOL0     C41582  10.143   0.776  11.267 -0.4882  0.9579  0.1300
  309MOL0     O41583  10.279   0.797  11.278 -0.6972  0.4381 -0.3714
  309MOL0     C41584  10.369   0.780  11.176  0.1663  0.5332 -0.0071
  309MOL0     C41585  10.351   0.702  11.069  0.2452  0.0409  0.0569
  309MOL0     C41586  10.440   0.682  10.962 -0.3977 -1.0812  0.3618
  309MOL0     C41587  10.554   0.764  10.960  0.2755  0.3495  0.5732
  309MOL0     O41588  10.648   0.778  10.864  0.0652 -0.5635  0.3974
  309MOL0     C41589  10.706   0.672  10.800  0.3468  0.2318 -0.3903
  309MOL0     C41590  10.649   0.681  10.655 -0.5208 -0.0939  0.6433
  309MOL0     C41591  10.744   0.630  10.548  1.6099  0.0194  0.2571
  309MOL0     C41592  10.696   0.659  10.401 -0.2890 -0.2856  0.4457
  309MOL0     C41593  10.812   0.634  10.298 -0.5930 -0.5675  0.0752
  309MOL0     C41594  10.756   0.644  10.145 -0.4535 -0.1838 -0.0722
  309MOL0     C41595  10.877   0.625  10.049 -0.1046 -0.0835 -0.7542
  309MOL0     C41596  10.916   0.480  10.040  0.1536  0.0724 -0.0258
  309MOL0     N41597  11.005   0.446   9.927  0.3325 -0.7163  0.0085
  309MOL0     C41598  10.964   0.397   9.803 -0.6139 -0.5049  0.6526
  309MOL0     C41599  11.075   0.405   9.717  0.4095 -0.9203  0.3352
  309MOL0     C41600  11.089   0.359   9.577  0.5189 -0.7330  0.2157
  309MOL0     C41601  11.038   0.222   9.530 -0.8287  1.4588  0.0078
  309MOL0     C41602  11.090   0.111   9.633  0.7244  0.5208  0.1527
  309MOL0     C41603  11.017  -0.015   9.612 -0.4946 -0.4682  0.3326
  309MOL0     O41604  11.035  -0.066   9.478 -0.4142 -0.1365 -0.4787
  309MOL0     C41605  10.927  -0.131   9.416  0.5319  0.2262 -0.6293
  309MOL0     C41606  10.834  -0.068   9.343  0.8226 -0.6603 -0.1127
  309MOL0     C41607  10.719  -0.130   9.287 -0.0070  1.0344 -0.2000
  309MOL0     C41608  10.693  -0.270   9.321  0.5415 -1.1171 -0.2353
  309MOL0     C41609  10.574  -0.327   9.252 -0.6868 -0.9876  0.1478
  309MOL0     O41610  10.550  -0.458   9.290 -0.1452 -0.0370 -0.8918
  309MOL0     C41611  10.439  -0.519   9.235  0.3105 -0.9960 -0.4642
  309MOL0     C41612  10.310  -0.488   9.271  0.2266 -0.3879 -0.3472
  309MOL0     C41613  10.202  -0.546   9.207  0.0391 -0.5414 -0.0312
  309MOL0     C41614  10.215  -0.618   9.090 -1.3725  0.6570 -0.4278
  309MOL0     O41615  10.122  -0.676   9.020 -0.0324 -0.2960 -0.1693
  309MOL0     C41616   9.991  -0.695   9.058  0.1683  0.2702 -0.3022
  309MOL0     C41617   9.974  -0.802   9.168 -0.3473 -0.6030  0.7522
  309MOL0     C41618   9.829  -0.829   9.191  0.3409  0.5823 -1.2251
  309MOL0     C41619   9.807  -0.952   9.297  0.7049  0.4301  0.9561
  309MOL0     C41620   9.663  -0.996   9.309 -0.0472  1.2429  0.4185
  309MOL0     C41621   9.643  -1.141   9.363  1.0913 -0.5871  0.0705
  309MOL0     C41622   9.704  -1.167   9.501 -0.0093  0.5324  0.1890
  309MOL0     C41623   9.620  -1.265   9.581 -0.0253 -0.0260 -0.3179
  309MOL0    Cl41624   9.689  -1.264   9.737  0.0053  0.0434 -0.3237
  309MOL0     C41625  10.349  -0.664   9.059  0.4512 -0.4319  0.7275
  309MOL0     C41626  10.462  -0.615   9.131 -0.4960  0.7049  0.5333
  309MOL0     O41627  10.492  -0.254   9.195 -0.1103  0.1137 -0.4328
  309MOL0     C41628  10.782  -0.334   9.403  0.1838 -0.0902 -1.1953
  309MOL0     C41629  10.892  -0.262   9.452  0.1892 -0.3160 -0.6156
  309MOL0     N41630  11.176   0.474   9.790 -0.3548 -0.5581  0.5362
  309MOL0     N41631  11.128   0.497   9.908  0.2688 -0.1309 -0.0263
  309MOL0     C41632  10.582   0.844  11.072 -0.5320  0.6473  0.7123
  309MOL0     C41633  10.492   0.841  11.182 -0.1160 -0.1588 -0.6586
  309MOL0     C41634  10.073   0.743  11.398 -0.0093  0.3365  0.0803
  309MOL0     C41635  10.156   0.710  11.502 -0.3945  0.3649  0.4734
  309MOL0     C41636  10.116   0.659  11.624 -0.8045  0.7851  0.4642
  309MOL0     C41637   9.980   0.628  11.630 -0.4018  0.8805 -0.5988
  309MOL0     O41638   9.919   0.555  11.727  0.3390 -0.7520  0.2003
  309MOL0     C41639   9.994   0.459  11.788 -0.6507 -0.6522  0.1288
  309MOL0     C41640   9.909   0.389  11.888 -0.5911 -0.0203  0.2228
  309MOL0     C41641   9.808   0.301  11.816  0.9196  0.2569  0.5008
  309MOL0     C41642   9.863   0.161  11.771 -0.2595 -0.2487 -0.0018
  309MOL0     C41643   9.929   0.082  11.882 -0.3155 -0.1191  0.2543
  309MOL0     C41644   9.967  -0.006  11.958 -0.3552 -0.3543 -0.0024
  309MOL0     C41645   9.890   0.676  11.534 -0.8223  0.7333 -0.5973
  309MOL0     C41646   9.935   0.725  11.413 -0.0658  0.8825  0.2254
  309MOL0     C41647   9.833   0.770  11.318  0.1638 -0.9535 -0.2316
  309MOL0     H41648  10.256   0.650  11.065 -0.0269  0.5717 -0.5467
  309MOL0     H41649  10.415   0.618  10.879 -2.0089  2.0272 -1.7485
  309MOL0     H41650  10.812   0.699  10.798  0.2403  0.7272  0.4875
  309MOL0     H41651  10.696   0.577  10.854  0.4997 -1.3199 -2.8952
  309MOL0     H41652  10.651   0.789  10.642  1.7839 -0.1435  0.2151
  309MOL0     H41653  10.551   0.634  10.654 -0.3215 -0.6727  2.6715
  309MOL0     H41654  10.742   0.522  10.568 -2.3916  0.2368  1.8866
  309MOL0     H41655  10.847   0.668  10.549  1.8822 -0.6916  1.8319
  309MOL0     H41656  10.608   0.598  10.379 -0.3266 -0.3422  0.7465
  309MOL0     H41657  10.681   0.767  10.392  2.1903  0.1482  0.8303
  309MOL0     H41658  10.900   0.699  10.306  1.5383 -3.3616  1.3569
  309MOL0     H41659  10.842   0.532  10.326 -2.3217 -1.7492 -2.0715
  309MOL0     H41660  10.686   0.564  10.122  1.7090 -1.7000 -1.7669
  309MOL0     H41661  10.721   0.745  10.119  2.9539  1.6048  1.6242
  309MOL0     H41662  10.966   0.677  10.086 -1.4644  1.6055  0.2771
  309MOL0     H41663  10.855   0.652   9.945  3.3323 -1.0715 -1.8795
  309MOL0     H41664  10.965   0.450  10.133  1.4957  2.7715  0.2273
  309MOL0     H41665  10.830   0.414  10.028  0.0436  0.2514 -0.2427
  309MOL0     H41666  10.873   0.344   9.778  1.0463 -3.8119  0.9928
  309MOL0     H41667  11.043   0.430   9.507  0.7538 -0.3956  0.4035
  309MOL0     H41668  11.195   0.368   9.552  0.7905  0.8475  1.7440
  309MOL0     H41669  10.929   0.216   9.543 -0.6819  0.7529  1.0166
  309MOL0     H41670  11.076   0.195   9.431 -1.8723  1.9016 -0.5333
  309MOL0     H41671  11.078   0.140   9.737  3.1482 -0.0623  0.6710
  309MOL0     H41672  11.196   0.094   9.610  0.7903 -0.8563  1.3123
  309MOL0     H41673  10.910   0.002   9.627 -0.2279 -0.1766  2.1249
  309MOL0     H41674  11.055  -0.089   9.683 -1.5294  0.0928  1.5122
  309MOL0     H41675  10.850   0.039   9.337 -2.8737 -0.0752 -2.6540
  309MOL0     H41676  10.651  -0.071   9.226  1.5967  0.4412 -2.7271
  309MOL0     H41677  10.285  -0.424   9.356 -0.0307 -3.1038  1.7476
  309MOL0     H41678  10.106  -0.511   9.244  0.2023 -1.2397  1.1035
  309MOL0     H41679   9.949  -0.604   9.102  2.0700  0.3781  1.5064
  309MOL0     H41680   9.936  -0.725   8.969 -0.6067  2.3897 -0.5920
  309MOL0     H41681  10.019  -0.891   9.124 -1.1074 -1.0160  0.8026
  309MOL0     H41682  10.033  -0.774   9.256  2.1848  1.2047 -1.3497
  309MOL0     H41683   9.778  -0.738   9.226 -1.5068 -0.0567 -2.1203
  309MOL0     H41684   9.789  -0.855   9.093  2.2097 -2.1354 -1.3794
  309MOL0     H41685   9.848  -0.934   9.397 -0.9645 -1.2801  2.0110
  309MOL0     H41686   9.859  -1.037   9.250 -2.0896  0.4954 -2.7706
  309MOL0     H41687   9.616  -0.993   9.210  0.9780 -2.4806 -0.3245
  309MOL0     H41688   9.606  -0.927   9.373 -1.8148 -0.5513  0.8913
  309MOL0     H41689   9.534  -1.148   9.371  0.8080  3.4550  3.1141
  309MOL0     H41690   9.676  -1.217   9.292  2.0851  1.2321 -1.5063
  309MOL0     H41691   9.721  -1.077   9.560  0.0236  0.4110  0.3631
  309MOL0     H41692   9.806  -1.197   9.477 -0.2701 -0.5301  0.3349
  309MOL0     H41693   9.512  -1.248   9.577 -0.7785 -4.0915 -2.5163
  309MOL0     H41694   9.632  -1.366   9.542 -1.4812 -0.2308 -0.3069
  309MOL0     H41695  10.377  -0.738   8.985 -1.5719  0.9666 -1.6022
  309MOL0     H41696  10.561  -0.640   9.094 -1.0608 -1.5916  0.4359
  309MOL0     H41697  10.756  -0.435   9.431 -2.4676  1.0342  0.8659
  309MOL0     H41698  10.945  -0.304   9.537 -1.0891  0.2172  0.4904
  309MOL0     H41699  10.669   0.909  11.075  0.8432 -0.9742 -1.5049
  309MOL0     H41700  10.524   0.886  11.275  1.8692 -0.4220 -1.1756
  309MOL0     H41701  10.260   0.742  11.501 -0.9024  2.1987  1.4087
  309MOL0     H41702  10.175   0.647  11.714  0.4472 -2.2028 -0.6201
  309MOL0     H41703  10.071   0.511  11.846 -2.4389  0.8146  1.2788
  309MOL0     H41704  10.031   0.405  11.700  2.1307  0.4002  0.5533
  309MOL0     H41705   9.863   0.466  11.949 -0.4135 -0.1472  0.5188
  309MOL0     H41706   9.970   0.320  11.948  0.0924 -0.8539 -1.3608
  309MOL0     H41707   9.778   0.357  11.727  1.8880  2.0843  1.2821
  309MOL0     H41708   9.720   0.272  11.874  2.3563 -2.5121  1.4963
  309MOL0     H41709   9.772   0.113  11.734 -0.6066  1.0339 -0.8998
  309MOL0     H41710   9.929   0.179  11.686 -1.8580  3.0188 -0.7287
  309MOL0     H41711   9.997  -0.089  12.020  3.0551  0.6034 -0.1983
  309MOL0     H41712   9.786   0.646  11.533 -0.6122 -0.0305 -0.5527
  309MOL0     H41713   9.878   0.855  11.266  4.0949 -2.5975  0.1283
  309MOL0     H41714   9.782   0.707  11.243 -2.7120  0.3568  0.4766
  309MOL0     H41715   9.752   0.818  11.373  0.0966 -2.8458  1.4465
  310MOL0     O41716   7.982   1.672   4.450  0.3039  0.0084 -0.0621
  310MOL0     C41717   7.939   1.710   4.347 -0.5955  0.1943  1.0058
  310MOL0     O41718   7.850   1.807   4.327  1.2008 -0.9256  1.3526
  310MOL0     C41719   7.814   1.886   4.445  0.2678 -0.6933  0.2972
  310MOL0     C41720   7.686   1.870   4.489  0.3292 -0.1112 -1.5513
  310MOL0     C41721   7.643   1.936   4.611 -0.4157  0.8734 -0.1469
  310MOL0     C41722   7.730   2.012   4.693 -0.1115  0.4308  0.2030
  310MOL0     O41723   7.677   2.055   4.808  0.9962  0.2943 -0.5541
  310MOL0     C41724   7.754   2.144   4.899  0.6099  0.7155 -0.1480
  310MOL0     C41725   7.748   2.279   4.827  0.1851 -0.1362 -0.0942
  310MOL0     C41726   7.615   2.350   4.807 -0.1103  1.0538  0.4039
  310MOL0     C41727   7.592   2.462   4.908 -0.5310  0.6162  1.0431
  310MOL0     C41728   7.518   2.406   5.031  0.1897  0.3589  0.6564
  310MOL0     C41729   7.445   2.508   5.118  0.4482  0.6100 -0.3761
  310MOL0     C41730   7.383   2.413   5.232 -0.1228 -0.5547 -0.3669
  310MOL0     C41731   7.289   2.496   5.327 -0.5722  0.2712 -0.3615
  310MOL0     N41732   7.257   2.431   5.456  0.3148  0.1492  0.1113
  310MOL0     C41733   7.198   2.306   5.461 -0.8653 -0.2144 -0.2343
  310MOL0     C41734   7.220   2.262   5.592 -0.2665  0.0199  0.1507
  310MOL0     C41735   7.191   2.129   5.652  0.2469 -0.3814  1.0403
  310MOL0     C41736   7.158   2.133   5.801 -0.5737 -0.2608 -0.1165
  310MOL0     C41737   7.011   2.111   5.834  0.3707 -0.5779 -1.2727
  310MOL0     C41738   6.980   2.126   5.979  0.1402 -0.0984 -0.3941
  310MOL0     O41739   6.843   2.144   5.977  0.0153 -0.3047  0.0751
  310MOL0     C41740   6.782   2.125   6.102 -0.6785 -0.1562  0.7834
  310MOL0     C41741   6.819   2.027   6.201  0.6917  0.0388  0.0458
  310MOL0     C41742   6.746   2.022   6.319  0.0410 -0.6733 -0.1984
  310MOL0     C41743   6.628   2.102   6.353 -0.2958  0.2566  1.1809
  310MOL0     C41744   6.554   2.093   6.469  0.8543  0.5381 -0.1914
  310MOL0     O41745   6.599   2.012   6.562  0.2623  0.0828  0.4424
  310MOL0     C41746   6.523   1.976   6.670 -0.2828 -0.5192 -0.0593
  310MOL0     C41747   6.551   2.037   6.794  1.1292  0.5679 -0.7490
  310MOL0     C41748   6.468   2.029   6.897 -0.8933  0.5362  0.1490
  310MOL0     C41749   6.358   1.946   6.894 -0.9780  0.2304 -0.5610
  310MOL0     O41750   6.288   1.917   7.001  0.5409 -1.0357  0.0684
  310MOL0     C41751   6.275   2.025   7.092  0.4071 -0.4001  0.5951
  310MOL0     C41752   6.192   1.972   7.210  0.6427 -0.3357  0.3532
  310MOL0     C41753   6.207   2.058   7.334 -0.6886 -0.2408  0.4946
  310MOL0     C41754   6.143   2.198   7.308 -1.0640  0.1011 -0.1288
  310MOL0     C41755   6.146   2.286   7.427  0.0314 -0.4164 -1.5329
  310MOL0     C41756   6.287   2.344   7.461 -0.1117 -0.2385 -0.3002
  310MOL0     C41757   6.293   2.445   7.574  0.7963 -2.0099  0.2189
  310MOL0     C41758   6.284   2.591   7.526 -0.1430 -0.5341  0.4020
  310MOL0    Cl41759   6.394   2.646   7.404 -0.4372  0.5834 -0.0861
  310MOL0     C41760   6.337   1.868   6.786  0.2445 -1.0050  0.5216
  310MOL0     C41761   6.410   1.888   6.665 -0.4403  0.2076 -0.5486
  310MOL0     O41762   6.452   2.164   6.478  0.3963  0.2085 -0.2379
  310MOL0     C41763   6.596   2.186   6.242 -0.0448  0.5339  0.2320
  310MOL0     C41764   6.670   2.199   6.128  0.2749 -1.2783  0.7725
  310MOL0     N41765   7.292   2.358   5.662 -0.4025  0.1975  0.2249
  310MOL0     N41766   7.305   2.462   5.581 -1.0727 -0.4028 -0.2070
  310MOL0     C41767   7.862   2.041   4.642  0.6712  0.1642  0.0893
  310MOL0     C41768   7.898   1.972   4.520  0.1596 -0.0380 -0.5898
  310MOL0     C41769   7.995   1.654   4.218  0.0158 -0.0058  1.0783
  310MOL0     C41770   7.926   1.551   4.164 -0.0126 -0.2786  0.6204
  310MOL0     C41771   7.978   1.490   4.049  1.1731 -0.2852  0.1343
  310MOL0     C41772   8.092   1.557   3.989 -0.0769  1.0464 -0.2395
  310MOL0     O41773   8.135   1.507   3.863  0.3171  0.5489 -0.0744
  310MOL0     C41774   8.265   1.526   3.810  0.4831 -0.8381  0.5344
  310MOL0     C41775   8.277   1.424   3.695  0.6668  0.0149 -0.0305
  310MOL0     C41776   8.397   1.469   3.623 -1.6777 -0.7326  0.0704
  310MOL0     C41777   8.432   1.385   3.509 -0.1084  0.2578  0.5873
  310MOL0     C41778   8.493   1.262   3.548  0.0026 -0.2390 -1.1144
  310MOL0     C41779   8.531   1.159   3.590 -0.7179  0.3773 -0.8209
  310MOL0     C41780   8.143   1.669   4.045 -0.6043 -0.2107  0.5490
  310MOL0     C41781   8.097   1.724   4.159 -0.1653  0.2750 -0.5419
  310MOL0     C41782   8.154   1.851   4.193 -0.6042 -0.1732 -0.9146
  310MOL0     H41783   7.626   1.791   4.445  0.3059  0.4739 -2.5763
  310MOL0     H41784   7.541   1.914   4.641 -0.5848  0.8733 -0.7241
  310MOL0     H41785   7.688   2.155   4.985  0.9558  2.8385 -0.1060
  310MOL0     H41786   7.852   2.103   4.926  0.8256 -1.1099 -3.1863
  310MOL0     H41787   7.806   2.272   4.734  5.3104  0.8774  2.6257
  310MOL0     H41788   7.819   2.343   4.882 -0.0331 -0.4772  0.5968
  310MOL0     H41789   7.534   2.277   4.796  0.5815  0.3708 -0.3390
  310MOL0     H41790   7.608   2.402   4.711 -0.9110 -1.6312 -1.1166
  310MOL0     H41791   7.691   2.497   4.937  1.1996 -2.1469 -0.9297
  310MOL0     H41792   7.528   2.539   4.864  2.1396  2.7133  0.5628
  310MOL0     H41793   7.441   2.335   5.000  0.6759  0.2536 -0.3602
  310MOL0     H41794   7.581   2.342   5.094  0.7217  2.0655  1.9231
  310MOL0     H41795   7.515   2.582   5.158  1.6249  0.3749 -1.8937
  310MOL0     H41796   7.360   2.560   5.074 -0.6110  0.7561  1.7299
  310MOL0     H41797   7.468   2.382   5.292  1.8442  0.8651 -2.2741
  310MOL0     H41798   7.312   2.337   5.197 -1.8089  1.3174 -1.2069
  310MOL0     H41799   7.344   2.589   5.345  0.0098 -0.4182  1.5958
  310MOL0     H41800   7.203   2.538   5.274 -0.0521  0.3270 -1.1848
  310MOL0     H41801   7.160   2.236   5.388 -0.1032 -0.2453 -0.6099
  310MOL0     H41802   7.112   2.084   5.592  1.6763 -2.1188  0.3957
  310MOL0     H41803   7.277   2.062   5.645 -1.7480 -3.0422  0.4699
  310MOL0     H41804   7.210   2.046   5.842 -2.0182 -0.2320  1.8804
  310MOL0     H41805   7.199   2.221   5.851 -0.4107  0.5098 -1.5532
  310MOL0     H41806   6.978   2.010   5.806 -0.5246 -0.2833 -1.3280
  310MOL0     H41807   6.958   2.186   5.775  1.4271  0.3504 -1.0772
  310MOL0     H41808   7.029   2.215   6.020  0.9614 -0.2713 -0.9680
  310MOL0     H41809   7.012   2.037   6.034  0.6709  0.6151  0.4852
  310MOL0     H41810   6.887   1.944   6.183 -1.3730 -1.8891  0.6405
  310MOL0     H41811   6.776   1.945   6.389  2.5941 -1.2201 -1.7733
  310MOL0     H41812   6.636   2.103   6.809  2.1753 -0.5868 -1.4672
  310MOL0     H41813   6.494   2.099   6.975  2.9512  0.9446 -1.2585
  310MOL0     H41814   6.373   2.063   7.126  0.2383  0.1251  0.4988
  310MOL0     H41815   6.206   2.094   7.043 -2.2145 -0.6868  3.5583
  310MOL0     H41816   6.088   1.962   7.177  0.8137  1.5757 -0.9277
  310MOL0     H41817   6.223   1.872   7.241 -1.2344 -0.7779  0.9063
  310MOL0     H41818   6.152   1.997   7.406 -0.7523 -4.2432 -2.5675
  310MOL0     H41819   6.307   2.066   7.376 -0.3532 -2.8907  0.3717
  310MOL0     H41820   6.041   2.183   7.273 -0.8990  0.1261 -0.6191
  310MOL0     H41821   6.203   2.248   7.232 -0.2904 -0.3511  0.1641
  310MOL0     H41822   6.101   2.238   7.514  4.4046  0.1842  1.3919
  310MOL0     H41823   6.089   2.376   7.404 -0.8008  0.3421  2.7541
  310MOL0     H41824   6.351   2.265   7.501  0.9166  1.1176  0.8900
  310MOL0     H41825   6.309   2.394   7.366 -1.1096  1.6980  0.4327
  310MOL0     H41826   6.389   2.433   7.625  0.0888  0.4245  2.3670
  310MOL0     H41827   6.210   2.440   7.646 -4.0055  1.5538 -4.3140
  310MOL0     H41828   6.182   2.608   7.491  0.3334  1.6402 -0.0700
  310MOL0     H41829   6.292   2.666   7.606  1.2197  1.7897 -1.7773
  310MOL0     H41830   6.243   1.817   6.769  0.1986 -0.2230 -2.0724
  310MOL0     H41831   6.363   1.838   6.581 -0.7245 -2.9998  1.3260
  310MOL0     H41832   6.506   2.244   6.258 -1.2649 -1.3196  0.3575
  310MOL0     H41833   6.632   2.276   6.061  0.7981 -1.1728  0.5937
  310MOL0     H41834   7.935   2.096   4.700  0.5099 -2.0363  2.5590
  310MOL0     H41835   7.998   2.000   4.486  0.3942  1.5315  1.2324
  310MOL0     H41836   7.838   1.518   4.220  0.5458 -1.1546  1.0088
  310MOL0     H41837   7.927   1.407   4.002 -0.9151 -0.1337  1.9458
  310MOL0     H41838   8.344   1.508   3.883 -1.1462  1.9689  3.2071
  310MOL0     H41839   8.280   1.627   3.770 -0.7574 -1.0294 -0.5183
  310MOL0     H41840   8.180   1.428   3.645 -1.0367 -3.7789  2.4624
  310MOL0     H41841   8.293   1.320   3.725 -3.6438 -1.2620 -1.3575
  310MOL0     H41842   8.483   1.483   3.689 -2.6904  0.9775  1.0902
  310MOL0     H41843   8.380   1.567   3.580 -2.1803  1.2073  4.1833
  310MOL0     H41844   8.339   1.355   3.460 -0.7520  0.2107  1.7815
  310MOL0     H41845   8.493   1.438   3.436  0.0911 -2.5883 -1.4979
  310MOL0     H41846   8.554   1.056   3.611 -2.0621 -0.8465 -4.5259
  310MOL0     H41847   8.227   1.718   3.997  1.7636 -1.6907  2.8659
  310MOL0     H41848   8.230   1.869   4.115 -2.1037  3.2901 -1.7516
  310MOL0     H41849   8.073   1.923   4.186 -2.6091 -2.2843 -0.3825
  310MOL0     H41850   8.196   1.854   4.294  0.3533 -3.0000 -1.1293
  311MOL0     O41851   2.761   6.788   2.707  0.9287  0.3199  0.5040
  311MOL0     C41852   2.734   6.808   2.583 -0.6246 -0.1714 -0.7344
  311MOL0     O41853   2.613   6.787   2.511  0.0738  0.1955  0.1664
  311MOL0     C41854   2.512   6.710   2.555 -0.8567  0.3129  0.0698
  311MOL0     C41855   2.470   6.597   2.487 -0.2524 -0.4751 -0.6967
  311MOL0     C41856   2.352   6.529   2.529  0.6288  0.1565 -1.0641
  311MOL0     C41857   2.266   6.579   2.632 -1.1857 -0.5626 -0.5756
  311MOL0     O41858   2.141   6.533   2.662  0.0404  0.1850 -0.4936
  311MOL0     C41859   2.095   6.402   2.607  0.2399 -0.6454 -0.4172
  311MOL0     C41860   2.156   6.290   2.690  0.0577  1.1976  0.9560
  311MOL0     C41861   2.135   6.305   2.841 -0.0377  0.1667 -0.1756
  311MOL0     C41862   2.142   6.157   2.895  0.4196 -0.1194  0.3398
  311MOL0     C41863   2.121   6.169   3.044 -0.4398 -0.8961  0.4114
  311MOL0     C41864   2.232   6.253   3.106 -0.3319  0.4786  0.7181
  311MOL0     C41865   2.262   6.223   3.260 -0.1252 -0.0228 -0.8051
  311MOL0     C41866   2.345   6.091   3.265  0.4701  0.2550 -0.3320
  311MOL0     N41867   2.342   6.043   3.406 -0.1273 -1.3030 -0.3450
  311MOL0     C41868   2.284   5.923   3.443 -0.5444  0.3215 -0.3252
  311MOL0     C41869   2.349   5.881   3.549  0.2364 -0.5052 -0.3150
  311MOL0     C41870   2.333   5.758   3.623  0.1114  0.1436  0.2075
  311MOL0     C41871   2.442   5.661   3.592 -0.1739 -0.7892 -0.2383
  311MOL0     C41872   2.433   5.529   3.666 -0.3122  0.0563  0.2255
  311MOL0     C41873   2.410   5.528   3.820 -0.4617 -1.3120 -0.0603
  311MOL0     O41874   2.392   5.393   3.859  0.1242 -0.1318 -0.5765
  311MOL0     C41875   2.267   5.335   3.835 -0.0943 -0.3879  0.5577
  311MOL0     C41876   2.265   5.190   3.834  0.4609 -0.0614 -0.3818
  311MOL0     C41877   2.157   5.112   3.798  1.1150  0.6563  0.6067
  311MOL0     C41878   2.037   5.179   3.776 -0.7450  0.7644  0.1323
  311MOL0     C41879   1.905   5.104   3.755 -0.6836 -0.0183 -0.7666
  311MOL0     O41880   1.793   5.176   3.736  0.6656  0.4427  0.4241
  311MOL0     C41881   1.681   5.088   3.728 -0.3738 -0.1172  0.2645
  311MOL0     C41882   1.625   5.059   3.601  0.9663 -0.2133  0.1504
  311MOL0     C41883   1.514   4.972   3.592 -0.5714  0.2280  0.9756
  311MOL0     C41884   1.457   4.907   3.703  0.1838 -0.3114  0.4061
  311MOL0     O41885   1.349   4.819   3.698  0.7176  0.1742 -0.5733
  311MOL0     C41886   1.223   4.888   3.681 -0.0594  0.2253 -0.4029
  311MOL0     C41887   1.173   4.896   3.827 -0.1728  0.8191  1.0872
  311MOL0     C41888   1.153   4.755   3.900 -0.1986  0.4125 -0.6837
  311MOL0     C41889   1.073   4.755   4.034  0.1497  0.6452  0.7318
  311MOL0     C41890   1.064   4.603   4.058 -0.1330  0.9485  0.5790
  311MOL0     C41891   0.996   4.561   4.200 -0.1804  0.2802 -0.2274
  311MOL0     C41892   0.875   4.646   4.230  0.3256 -0.4592 -0.5476
  311MOL0     C41893   0.804   4.588   4.348 -0.1693  0.5328  0.5748
  311MOL0    Cl41894   0.895   4.597   4.510 -0.3248  0.1830  0.6156
  311MOL0     C41895   1.514   4.927   3.827 -0.4882 -1.2484 -0.2719
  311MOL0     C41896   1.633   5.007   3.838 -0.3653 -0.2891 -0.3442
  311MOL0     O41897   1.916   4.983   3.758  0.2409 -0.7052 -0.8888
  311MOL0     C41898   2.030   5.324   3.776 -0.8260 -0.1996  0.1676
  311MOL0     C41899   2.146   5.401   3.802  0.0685  0.3738 -1.1092
  311MOL0     N41900   2.436   5.985   3.591  0.3562  0.3305 -0.3673
  311MOL0     N41901   2.427   6.075   3.499 -0.1801 -0.6944 -0.0410
  311MOL0     C41902   2.322   6.697   2.700  0.1669 -0.2958 -0.0521
  311MOL0     C41903   2.433   6.764   2.652  0.2131 -0.6358  0.8878
  311MOL0     C41904   2.841   6.839   2.490 -0.3123 -0.6072  0.5322
  311MOL0     C41905   2.831   6.971   2.432  0.6242  0.4001 -0.2105
  311MOL0     C41906   2.933   7.014   2.349 -0.9076  0.1101 -0.0037
  311MOL0     C41907   3.056   6.942   2.333 -0.3782  0.6906 -0.4293
  311MOL0     O41908   3.165   6.996   2.266 -0.7177  0.4627 -0.5964
  311MOL0     C41909   3.157   7.129   2.204 -0.4412  0.1212  0.3408
  311MOL0     C41910   3.296   7.187   2.180  0.6906 -1.0391  0.0413
  311MOL0     C41911   3.307   7.323   2.110  0.0522 -0.2830 -0.3646
  311MOL0     C41912   3.261   7.341   1.968  0.7066  0.1563 -0.0721
  311MOL0     C41913   3.332   7.268   1.866  0.7494  0.2204  0.4250
  311MOL0     C41914   3.401   7.200   1.788 -0.0429 -0.5777 -0.0667
  311MOL0     C41915   3.072   6.821   2.395  0.7837 -0.3133  0.2352
  311MOL0     C41916   2.964   6.768   2.472 -1.1964 -0.2814 -0.4588
  311MOL0     C41917   2.990   6.637   2.541  1.0754 -0.5962 -0.9870
  311MOL0     H41918   2.534   6.565   2.406  2.0533 -0.0867  0.8705
  311MOL0     H41919   2.320   6.436   2.485 -1.7567  0.0433  0.6915
  311MOL0     H41920   1.987   6.398   2.628  0.1398 -2.0839 -1.0927
  311MOL0     H41921   2.109   6.393   2.499 -0.1487  0.6098 -0.5887
  311MOL0     H41922   2.262   6.277   2.670 -0.3838 -1.7367  0.0585
  311MOL0     H41923   2.104   6.201   2.653  4.1856 -1.2644  0.4828
  311MOL0     H41924   2.036   6.351   2.852  0.6574  2.8970 -3.5520
  311MOL0     H41925   2.204   6.373   2.891 -1.4427  0.5561  1.2957
  311MOL0     H41926   2.068   6.092   2.848  0.1457 -1.0874  2.0531
  311MOL0     H41927   2.242   6.121   2.868 -0.2586 -2.6283  0.9297
  311MOL0     H41928   2.025   6.211   3.075  0.1760  0.9493 -0.1117
  311MOL0     H41929   2.129   6.066   3.081 -2.1892 -0.8740  0.9357
  311MOL0     H41930   2.332   6.231   3.068 -0.1055  1.9397  0.4017
  311MOL0     H41931   2.213   6.360   3.090 -1.5417  0.3930  1.4429
  311MOL0     H41932   2.161   6.230   3.302 -1.1458  3.8366 -3.4175
  311MOL0     H41933   2.318   6.297   3.318  0.1709 -0.5923 -0.3544
  311MOL0     H41934   2.293   6.021   3.199 -0.0247  1.1020 -0.8542
  311MOL0     H41935   2.446   6.096   3.224 -0.8691 -0.9438 -4.2244
  311MOL0     H41936   2.213   5.869   3.381 -1.5165  2.2521 -0.9481
  311MOL0     H41937   2.326   5.782   3.730 -1.1132  0.0956  0.1626
  311MOL0     H41938   2.237   5.717   3.590  2.1400 -2.3602 -3.0701
  311MOL0     H41939   2.442   5.626   3.489 -0.7014  0.1356 -0.5654
  311MOL0     H41940   2.540   5.707   3.608  1.7502 -4.0909 -1.4404
  311MOL0     H41941   2.520   5.467   3.644 -0.5216 -0.3967  0.6426
  311MOL0     H41942   2.348   5.472   3.627 -1.1601  0.5008  1.3659
  311MOL0     H41943   2.322   5.585   3.851  0.4528 -2.4829  5.7706
  311MOL0     H41944   2.498   5.568   3.871 -0.3913  0.1835 -1.2893
  311MOL0     H41945   2.359   5.139   3.854  0.0135 -0.5505  0.5333
  311MOL0     H41946   2.156   5.003   3.794 -0.1503  0.6483 -3.6105
  311MOL0     H41947   1.666   5.098   3.508  1.3187  2.9001  1.4842
  311MOL0     H41948   1.470   4.948   3.496  0.3788 -2.6745  1.1872
  311MOL0     H41949   1.216   4.982   3.626 -2.2456  1.2860  1.4748
  311MOL0     H41950   1.152   4.826   3.626  1.0282 -1.6364  0.1930
  311MOL0     H41951   1.239   4.952   3.894  2.2414 -1.2609  0.5682
  311MOL0     H41952   1.070   4.934   3.819 -0.5014 -0.0715  1.0025
  311MOL0     H41953   1.115   4.686   3.824  3.2855 -1.3918 -0.9531
  311MOL0     H41954   1.255   4.718   3.912 -0.2914  0.2672 -0.3386
  311MOL0     H41955   0.979   4.809   4.021 -0.4397 -0.8519 -1.9845
  311MOL0     H41956   1.131   4.802   4.114  3.9619 -4.7458  1.7682
  311MOL0     H41957   1.157   4.550   4.036 -1.2952 -1.1907  0.5966
  311MOL0     H41958   0.997   4.558   3.985  1.1171 -0.1734  0.0808
  311MOL0     H41959   0.963   4.456   4.200 -1.3921  0.4655  4.2020
  311MOL0     H41960   1.076   4.561   4.275 -0.4315  0.0268  0.0455
  311MOL0     H41961   0.824   4.652   4.134  1.2516 -1.2975 -1.1092
  311MOL0     H41962   0.891   4.751   4.257 -3.3023  0.2670 -0.6485
  311MOL0     H41963   0.706   4.632   4.370  0.1419  0.9154  1.2205
  311MOL0     H41964   0.784   4.481   4.339 -0.1215  0.3076  2.6772
  311MOL0     H41965   1.482   4.879   3.919 -2.5938 -2.6718 -1.6454
  311MOL0     H41966   1.677   5.014   3.936 -1.5472 -1.5224  0.3145
  311MOL0     H41967   1.936   5.372   3.750 -0.2933  3.3455  3.8056
  311MOL0     H41968   2.134   5.508   3.788 -0.3235  0.6304  0.7845
  311MOL0     H41969   2.248   6.732   2.772  0.4380 -0.8639  0.5198
  311MOL0     H41970   2.462   6.853   2.706 -0.5058 -0.2874  0.7094
  311MOL0     H41971   2.745   7.037   2.443  1.9163  1.9387  1.2496
  311MOL0     H41972   2.924   7.105   2.291  0.6432 -0.0404 -0.5311
  311MOL0     H41973   3.101   7.211   2.251  0.6424  0.7918  0.4982
  311MOL0     H41974   3.105   7.108   2.110  1.9528 -1.5117 -0.7066
  311MOL0     H41975   3.357   7.112   2.129 -1.4334 -2.6929 -0.1974
  311MOL0     H41976   3.345   7.204   2.276 -0.8646  2.1767  0.4183
  311MOL0     H41977   3.409   7.363   2.115  0.3241 -0.6978 -2.1724
  311MOL0     H41978   3.241   7.390   2.168 -2.5380 -1.6486 -1.5511
  311MOL0     H41979   3.153   7.325   1.974  0.6142  1.2135  1.8587
  311MOL0     H41980   3.252   7.446   1.939 -0.1777  0.0746 -0.1326
  311MOL0     H41981   3.452   7.122   1.735 -1.6239 -0.9752 -1.0761
  311MOL0     H41982   3.154   6.755   2.369  1.3251 -1.2672  3.8492
  311MOL0     H41983   3.045   6.572   2.472  1.3766  1.4076 -2.7662
  311MOL0     H41984   3.039   6.646   2.638  0.9490 -0.7356 -0.9106
  311MOL0     H41985   2.894   6.590   2.563 -0.5513  2.7380 -0.2966
  312MOL0     O41986   5.000   5.184   9.323  0.5902  0.2749  0.7461
  312MOL0     C41987   4.890   5.234   9.342 -0.2633 -0.2840  0.4955
  312MOL0     O41988   4.844   5.305   9.461 -0.1548 -0.5971 -1.1429
  312MOL0     C41989   4.919   5.349   9.565 -0.6325 -0.2817 -0.2284
  312MOL0     C41990   5.059   5.395   9.545 -0.1775 -0.1764  0.6724
  312MOL0     C41991   5.139   5.443   9.650  0.8129  0.2302  0.0868
  312MOL0     C41992   5.084   5.438   9.782 -0.0157 -0.3349  0.6882
  312MOL0     O41993   5.179   5.472   9.879  0.0154 -1.2238  0.6356
  312MOL0     C41994   5.178   5.399  10.003  0.2531 -0.5630  0.8106
  312MOL0     C41995   5.321   5.415  10.061  0.4772  0.3170  0.2225
  312MOL0     C41996   5.425   5.364   9.964  0.4818 -0.1296  0.0173
  312MOL0     C41997   5.556   5.317  10.032  0.2097  0.8441 -1.0180
  312MOL0     C41998   5.667   5.266   9.935 -0.1629  1.2361  0.5055
  312MOL0     C41999   5.806   5.220  10.005 -0.2714  0.7023 -0.1258
  312MOL0     C42000   5.883   5.132   9.903 -0.0443  1.5250 -0.6302
  312MOL0     C42001   6.027   5.118   9.955  0.1180  0.0809 -0.3390
  312MOL0     N42002   6.122   5.054   9.859  0.1339 -0.3696  0.2038
  312MOL0     C42003   6.198   4.948   9.876 -0.2461  0.2966  0.4768
  312MOL0     C42004   6.274   4.935   9.770 -0.2318  0.2765 -0.3574
  312MOL0     C42005   6.381   4.849   9.745 -1.0624  0.0925 -0.6209
  312MOL0     C42006   6.471   4.833   9.881  0.3285  0.2243 -0.8979
  312MOL0     C42007   6.551   4.966   9.913  0.1432 -0.3781  0.1554
  312MOL0     C42008   6.635   4.941  10.039 -0.0379  0.4032 -0.4014
  312MOL0     O42009   6.571   4.863  10.143 -0.3447  0.4495 -0.4207
  312MOL0     C42010   6.532   4.932  10.252 -0.4700 -0.1029 -0.4551
  312MOL0     C42011   6.397   4.959  10.280 -0.3875 -0.5984 -0.2160
  312MOL0     C42012   6.361   5.028  10.390 -0.4511  0.1489 -0.1745
  312MOL0     C42013   6.458   5.079  10.483 -0.0972 -0.6235 -0.2564
  312MOL0     C42014   6.423   5.172  10.590  0.1045  0.2251  0.8922
  312MOL0     O42015   6.524   5.217  10.675 -0.3146  0.4492  0.5115
  312MOL0     C42016   6.491   5.312  10.771 -0.5462  0.1404  0.9035
  312MOL0     C42017   6.392   5.284  10.865 -0.6476 -0.2729  0.2739
  312MOL0     C42018   6.343   5.383  10.943  0.3325  0.9639  1.0783
  312MOL0     C42019   6.402   5.515  10.938 -0.4845  0.2673  0.3680
  312MOL0     O42020   6.354   5.626  11.003  0.4672  1.0144 -0.1603
  312MOL0     C42021   6.354   5.620  11.149  0.5620 -0.6995 -0.2600
  312MOL0     C42022   6.224   5.662  11.204  0.1858  0.2505 -1.0656
  312MOL0     C42023   6.193   5.812  11.174 -0.4506 -0.2330 -1.2633
  312MOL0     C42024   6.086   5.865  11.272 -0.2660 -0.1083 -0.3211
  312MOL0     C42025   6.055   6.009  11.238  0.1978  0.2624 -0.5653
  312MOL0     C42026   5.942   6.051  11.341  0.0955  0.1113  0.6840
  312MOL0     C42027   5.897   6.189  11.317  0.2163 -0.5746  0.4358
  312MOL0     C42028   5.773   6.233  11.393  0.2751  0.1695 -0.4916
  312MOL0    Cl42029   5.628   6.131  11.362 -0.0891  0.0673  0.6205
  312MOL0     C42030   6.516   5.532  10.856  0.4543 -0.2736  0.0254
  312MOL0     C42031   6.549   5.439  10.764  0.0768  0.7957 -0.3461
  312MOL0     O42032   6.305   5.205  10.597 -0.5154 -0.1927  0.9963
  312MOL0     C42033   6.590   5.058  10.441 -0.4030  0.1196 -0.5538
  312MOL0     C42034   6.626   4.982  10.337  0.0195 -1.5106  0.5585
  312MOL0     N42035   6.247   5.036   9.687  1.1383 -0.0739 -0.4757
  312MOL0     N42036   6.147   5.101   9.737  0.1059 -0.2685  0.3026
  312MOL0     C42037   4.947   5.413   9.798 -0.4296 -0.5216 -0.0468
  312MOL0     C42038   4.863   5.364   9.695 -0.1071 -0.2375 -0.2323
  312MOL0     C42039   4.814   5.222   9.216 -0.2901  0.3388 -0.3403
  312MOL0     C42040   4.877   5.212   9.093  0.9908  0.2032 -0.4333
  312MOL0     C42041   4.804   5.198   8.980  0.2590  0.7722 -0.9323
  312MOL0     C42042   4.662   5.206   8.972  0.4291  0.7889  0.9056
  312MOL0     O42043   4.601   5.198   8.846 -0.0057  0.1019 -0.0602
  312MOL0     C42044   4.448   5.194   8.849 -0.3709 -0.2787 -0.2463
  312MOL0     C42045   4.398   5.342   8.854  0.2565  0.6115 -0.4455
  312MOL0     C42046   4.243   5.334   8.871  0.8360  0.2133 -0.9515
  312MOL0     C42047   4.172   5.468   8.893 -0.5557  0.4217  0.1864
  312MOL0     C42048   4.029   5.462   8.889 -0.3862  0.6611 -0.2462
  312MOL0     C42049   3.914   5.443   8.875  0.0849 -0.0826  0.5962
  312MOL0     C42050   4.596   5.219   9.101 -0.8454  0.2184 -0.0598
  312MOL0     C42051   4.671   5.227   9.217  0.1983  0.7883 -0.3291
  312MOL0     C42052   4.593   5.220   9.342  0.0005 -0.5267 -0.2134
  312MOL0     H42053   5.100   5.401   9.444  1.5331  3.4530  1.4355
  312MOL0     H42054   5.237   5.480   9.622  1.5047 -2.8183 -1.9831
  312MOL0     H42055   5.098   5.438  10.066 -1.1832 -1.5078 -0.3594
  312MOL0     H42056   5.161   5.293   9.985  0.1382 -0.5014  0.5572
  312MOL0     H42057   5.318   5.354  10.152  0.7659 -1.7390 -1.0825
  312MOL0     H42058   5.341   5.520  10.086  0.0454  0.8073 -1.3692
  312MOL0     H42059   5.454   5.435   9.886  1.2561 -0.2723  0.1589
  312MOL0     H42060   5.387   5.275   9.915  3.7180 -0.2497 -2.6193
  312MOL0     H42061   5.596   5.396  10.097 -1.2583  1.1522 -0.4412
  312MOL0     H42062   5.532   5.252  10.116 -0.7447  0.5572 -1.5006
  312MOL0     H42063   5.631   5.170   9.894 -0.2839  1.8752 -0.9472
  312MOL0     H42064   5.675   5.345   9.860 -1.5041 -0.0088 -1.0564
  312MOL0     H42065   5.860   5.312  10.029  2.0443 -0.5757 -0.2227
  312MOL0     H42066   5.784   5.153  10.089 -1.4968 -3.4294 -3.4284
  312MOL0     H42067   5.871   5.167   9.800 -1.6053  1.6005 -0.4420
  312MOL0     H42068   5.841   5.032   9.915  0.4515  1.4180  0.3280
  312MOL0     H42069   6.064   5.220   9.969  2.1712 -0.4840 -1.4126
  312MOL0     H42070   6.031   5.067  10.052 -1.0797 -0.0512 -0.3359
  312MOL0     H42071   6.208   4.889   9.967 -0.9657 -0.9298 -0.2129
  312MOL0     H42072   6.355   4.745   9.724  0.9959 -0.5968  0.0020
  312MOL0     H42073   6.449   4.881   9.666 -0.5621 -2.9065 -1.5486
  312MOL0     H42074   6.416   4.811   9.973  3.3138  1.0554  1.2534
  312MOL0     H42075   6.538   4.750   9.858 -1.9097 -1.4853 -1.6351
  312MOL0     H42076   6.479   5.045   9.939  0.0566 -0.8305  1.3781
  312MOL0     H42077   6.614   4.988   9.827  0.3721 -2.3402 -0.2270
  312MOL0     H42078   6.665   5.041  10.075  1.9841 -0.6937  1.2234
  312MOL0     H42079   6.726   4.888  10.009 -0.8399 -1.9863  1.1097
  312MOL0     H42080   6.322   4.912  10.216 -0.6600 -1.0260  0.4003
  312MOL0     H42081   6.256   5.037  10.416 -0.3510  0.8808  0.0048
  312MOL0     H42082   6.352   5.184  10.879  1.8283 -1.0046  3.0812
  312MOL0     H42083   6.260   5.356  11.007 -1.1220  0.2940 -0.9845
  312MOL0     H42084   6.390   5.523  11.185  3.0226  0.2669  0.0750
  312MOL0     H42085   6.429   5.690  11.188 -1.3600  2.5637 -1.9856
  312MOL0     H42086   6.141   5.599  11.170  0.5165  0.0948 -1.5877
  312MOL0     H42087   6.235   5.646  11.312 -1.8478 -0.2226 -0.8902
  312MOL0     H42088   6.280   5.879  11.170  1.0806 -1.8858  1.3553
  312MOL0     H42089   6.151   5.806  11.074 -1.3664  0.3585 -0.9316
  312MOL0     H42090   6.121   5.863  11.376 -0.9675  2.3339  0.0149
  312MOL0     H42091   5.995   5.805  11.268  0.5703 -1.5174  0.5776
  312MOL0     H42092   6.017   6.020  11.136 -0.6279  2.4191 -0.0827
  312MOL0     H42093   6.154   6.057  11.244  2.8196 -4.3985 -1.6392
  312MOL0     H42094   5.855   5.987  11.320 -0.5782  0.8530  1.1236
  312MOL0     H42095   5.978   6.027  11.441  2.3384 -0.8305 -0.2953
  312MOL0     H42096   5.859   6.174  11.216 -0.7909 -0.7012  0.8283
  312MOL0     H42097   5.975   6.266  11.327 -0.6940  0.1266  2.6766
  312MOL0     H42098   5.796   6.230  11.500  4.2442 -3.1507 -1.2053
  312MOL0     H42099   5.756   6.335  11.355  0.5859  1.2460  2.0812
  312MOL0     H42100   6.559   5.632  10.856 -1.1850  0.5997  3.2491
  312MOL0     H42101   6.625   5.454  10.688  2.6179  1.9225  2.2342
  312MOL0     H42102   6.665   5.108  10.500 -3.6787  1.7371  2.6100
  312MOL0     H42103   6.732   4.971  10.314 -0.3937 -0.4189 -2.2489
  312MOL0     H42104   4.907   5.425   9.899 -3.5806 -1.2209 -1.0771
  312MOL0     H42105   4.765   5.327   9.723  0.7196  0.2426  3.9590
  312MOL0     H42106   4.985   5.224   9.088  1.0761  0.0178  0.5488
  312MOL0     H42107   4.860   5.202   8.887  1.7056  0.8430 -0.1014
  312MOL0     H42108   4.408   5.139   8.934  0.8252 -1.6761 -0.5572
  312MOL0     H42109   4.410   5.146   8.759 -1.1601 -1.8909  0.8911
  312MOL0     H42110   4.420   5.392   8.760  0.7074  0.6850 -0.3049
  312MOL0     H42111   4.456   5.390   8.933  0.3065 -1.1081  0.6049
  312MOL0     H42112   4.222   5.268   8.955 -0.1628  1.5548 -0.1191
  312MOL0     H42113   4.198   5.297   8.778  0.4458  1.7845 -1.4197
  312MOL0     H42114   4.204   5.521   8.983 -1.0639  0.9740  0.0482
  312MOL0     H42115   4.207   5.524   8.805  1.8659 -0.3077  0.6089
  312MOL0     H42116   3.808   5.436   8.860 -0.2668  0.1297  2.6810
  312MOL0     H42117   4.488   5.213   9.116 -0.6676 -2.0804  0.6904
  312MOL0     H42118   4.491   5.186   9.324 -1.9055  4.0886  0.4002
  312MOL0     H42119   4.636   5.160   9.423  2.7112 -0.7625 -1.6879
  312MOL0     H42120   4.571   5.322   9.376  0.5215 -1.4122  3.0935
  313MOL0     O42121   5.983   4.816  10.227  0.0813  0.6202  0.1145
  313MOL0     C42122   5.942   4.775  10.119 -0.8540  0.4851 -0.5895
  313MOL0     O42123   5.817   4.802  10.073  0.1704  0.5742 -0.3069
  313MOL0     C42124   5.716   4.868  10.135 -0.1764  0.2573  0.4408
  313MOL0     C42125   5.722   4.953  10.245  0.5836 -1.6851  0.1237
  313MOL0     C42126   5.595   5.006  10.287  0.1348  0.2865  0.0284
  313MOL0     C42127   5.468   4.977  10.230 -0.4267 -0.6567 -0.0291
  313MOL0     O42128   5.355   5.043  10.285 -0.0401  0.2442  0.3066
  313MOL0     C42129   5.233   5.026  10.206 -0.7781 -0.4378 -0.5596
  313MOL0     C42130   5.160   4.890  10.238 -0.3902  0.0993  0.2987
  313MOL0     C42131   5.042   4.872  10.157  0.5571 -1.1619  0.1031
  313MOL0     C42132   5.011   4.724  10.169  0.8088  0.1362  0.5870
  313MOL0     C42133   4.868   4.683  10.118 -0.9535  0.6414 -0.3286
  313MOL0     C42134   4.826   4.539  10.162 -0.4647 -0.2701 -0.4607
  313MOL0     C42135   4.809   4.509  10.320  0.7266 -0.0803 -0.0299
  313MOL0     C42136   4.735   4.373  10.324  0.5924  0.1431 -0.3787
  313MOL0     N42137   4.708   4.350  10.466  0.2903 -0.3083  0.6992
  313MOL0     C42138   4.594   4.398  10.528  0.0867  0.1770  0.5974
  313MOL0     C42139   4.598   4.343  10.652 -0.8846  0.0837  0.2500
  313MOL0     C42140   4.493   4.344  10.758 -0.4604 -0.5594 -0.7433
  313MOL0     C42141   4.365   4.260  10.740 -0.5926 -0.0475  0.6727
  313MOL0     C42142   4.301   4.237  10.878  0.2715  0.1654 -0.7469
  313MOL0     C42143   4.165   4.163  10.885 -0.0990 -0.0242  0.0216
  313MOL0     O42144   4.066   4.248  10.826  0.2415 -0.5583  0.2399
  313MOL0     C42145   3.960   4.283  10.888  0.7354 -0.9441 -0.2049
  313MOL0     C42146   3.846   4.315  10.818 -0.4450 -0.1315  0.6570
  313MOL0     C42147   3.718   4.326  10.875  0.2731 -0.9480 -0.1385
  313MOL0     C42148   3.718   4.339  11.017  1.0519  0.2612  0.1615
  313MOL0     C42149   3.593   4.361  11.086  0.2279 -0.0923  0.2473
  313MOL0     O42150   3.486   4.318  11.018  0.8419  0.5428 -0.3788
  313MOL0     C42151   3.368   4.339  11.078  1.3597 -0.0003 -0.2018
  313MOL0     C42152   3.280   4.417  11.005 -0.0329 -0.3269  0.1694
  313MOL0     C42153   3.140   4.434  11.040 -0.5776  0.4943 -0.4591
  313MOL0     C42154   3.087   4.366  11.144 -0.1043 -0.3211  0.5700
  313MOL0     O42155   2.956   4.384  11.180  0.0428  0.0782 -0.3490
  313MOL0     C42156   2.910   4.292  11.279  0.2159 -0.2899  0.9019
  313MOL0     C42157   2.754   4.293  11.273  0.3779 -0.4943  0.0319
  313MOL0     C42158   2.697   4.430  11.322  0.0699  0.4029 -0.2618
  313MOL0     C42159   2.575   4.409  11.411  0.3771  0.8088 -0.3493
  313MOL0     C42160   2.494   4.548  11.433  0.3141  0.9171 -1.7978
  313MOL0     C42161   2.404   4.537  11.561 -0.4159  0.6040 -0.7660
  313MOL0     C42162   2.308   4.652  11.558  0.0157  0.2780  0.5744
  313MOL0     C42163   2.200   4.637  11.667 -0.6310  0.2793  0.8566
  313MOL0    Cl42164   2.099   4.793  11.688  0.1485 -0.4478  0.4418
  313MOL0     C42165   3.183   4.288  11.222 -0.1760  1.0544  0.4965
  313MOL0     C42166   3.318   4.285  11.200  0.0146 -0.1848  0.0390
  313MOL0     O42167   3.598   4.392  11.209  0.8379  0.6208 -0.3051
  313MOL0     C42168   3.839   4.335  11.089  0.3721  0.6075 -0.3519
  313MOL0     C42169   3.956   4.304  11.029 -0.6381 -0.3742  0.2752
  313MOL0     N42170   4.725   4.282  10.665 -0.0123 -0.3274 -0.7283
  313MOL0     N42171   4.792   4.294  10.553  1.1196  0.0790 -0.1333
  313MOL0     C42172   5.479   4.909  10.114  0.3035  0.7318  0.4269
  313MOL0     C42173   5.594   4.850  10.074 -0.3661 -0.5459  0.1301
  313MOL0     C42174   6.026   4.677  10.031 -0.4410  0.1632  0.4580
  313MOL0     C42175   6.021   4.699   9.893  0.0189 -0.9195  0.2806
  313MOL0     C42176   6.112   4.636   9.802  0.4655  0.2133  0.7081
  313MOL0     C42177   6.211   4.556   9.858 -0.0624 -1.0184 -0.1010
  313MOL0     O42178   6.303   4.511   9.760 -0.1534 -0.1979 -0.4174
  313MOL0     C42179   6.344   4.368   9.766  0.1727  0.7405  0.4806
  313MOL0     C42180   6.234   4.290   9.683  0.1688 -0.8825 -0.3443
  313MOL0     C42181   6.169   4.369   9.564  0.0214  0.5769  0.2569
  313MOL0     C42182   6.098   4.285   9.461 -0.2720 -0.0990  0.4448
  313MOL0     C42183   6.177   4.174   9.412  0.0157  0.7118 -0.4876
  313MOL0     C42184   6.256   4.086   9.392  0.0832  1.1756 -1.0950
  313MOL0     C42185   6.212   4.528   9.991 -0.4348  0.6779  0.0900
  313MOL0     C42186   6.118   4.585  10.080  0.0833  0.9550 -0.6019
  313MOL0     C42187   6.127   4.549  10.226 -0.5930  0.1836  0.4257
  313MOL0     H42188   5.810   4.979  10.305  0.3823  0.1202 -0.3035
  313MOL0     H42189   5.586   5.081  10.366 -0.2618  2.1130 -1.6816
  313MOL0     H42190   5.169   5.109  10.237  0.4245  0.3220 -0.0389
  313MOL0     H42191   5.260   5.039  10.101  0.6375  0.8986 -0.0657
  313MOL0     H42192   5.145   4.888  10.347  1.1366  0.0091  0.5331
  313MOL0     H42193   5.233   4.812  10.214  2.4519  2.7107 -0.1031
  313MOL0     H42194   5.056   4.904  10.053 -2.3655  0.2539  0.0500
  313MOL0     H42195   4.955   4.926  10.196  0.0168 -0.7857 -1.5203
  313MOL0     H42196   5.089   4.679  10.107  1.2841  0.5393  0.8942
  313MOL0     H42197   5.019   4.671  10.264  0.0108 -0.8626  0.1277
  313MOL0     H42198   4.792   4.754  10.152 -0.0401  0.6847  1.7799
  313MOL0     H42199   4.869   4.687  10.008  3.8938  2.2600 -0.4647
  313MOL0     H42200   4.733   4.524  10.106 -0.1306  3.7036 -2.4110
  313MOL0     H42201   4.906   4.474  10.124 -1.7691 -2.2600  0.0004
  313MOL0     H42202   4.751   4.595  10.356 -3.9334 -3.3067  1.0880
  313MOL0     H42203   4.913   4.498  10.353  0.6926  1.0299  0.4952
  313MOL0     H42204   4.643   4.376  10.265  0.0189 -0.1491  0.4831
  313MOL0     H42205   4.804   4.295  10.291  2.8416 -0.2411  4.4523
  313MOL0     H42206   4.513   4.456  10.486 -0.6730  0.2063  2.0360
  313MOL0     H42207   4.555   4.310  10.842  2.8230  1.2333 -2.2254
  313MOL0     H42208   4.459   4.444  10.785 -1.0617 -1.4012  1.9354
  313MOL0     H42209   4.303   4.312  10.666 -0.2923 -2.8627 -1.7461
  313MOL0     H42210   4.374   4.164  10.689 -1.8955  0.1265  0.0717
  313MOL0     H42211   4.299   4.331  10.934  0.7795  0.2991 -0.9479
  313MOL0     H42212   4.371   4.179  10.940  1.3001  0.8383 -1.2491
  313MOL0     H42213   4.147   4.145  10.992  3.8951  2.8785  1.4221
  313MOL0     H42214   4.172   4.073  10.823  0.8647  1.2299 -1.7635
  313MOL0     H42215   3.846   4.313  10.709  1.0347 -0.7977  0.6566
  313MOL0     H42216   3.628   4.340  10.816 -0.3528 -1.2771  0.7236
  313MOL0     H42217   3.328   4.457  10.916 -0.2140 -1.2753 -0.3679
  313MOL0     H42218   3.063   4.484  10.982 -1.1528 -0.7939 -0.8401
  313MOL0     H42219   2.939   4.187  11.265  0.4819 -0.0337 -0.5924
  313MOL0     H42220   2.938   4.310  11.383  2.4433  1.9402  0.0011
  313MOL0     H42221   2.722   4.262  11.173  0.1305  1.3557 -0.4995
  313MOL0     H42222   2.719   4.213  11.339 -1.4567 -0.8248 -1.2722
  313MOL0     H42223   2.770   4.466  11.394 -0.9833 -0.4668  1.3066
  313MOL0     H42224   2.689   4.503  11.240 -0.3377  3.3934  2.2506
  313MOL0     H42225   2.600   4.369  11.510 -1.6448 -2.7277 -1.1012
  313MOL0     H42226   2.513   4.339  11.356  0.8357  0.2285 -0.1409
  313MOL0     H42227   2.445   4.564  11.336 -0.5506 -1.0402 -1.7287
  313MOL0     H42228   2.564   4.629  11.456  2.3094 -0.9515 -0.8302
  313MOL0     H42229   2.352   4.442  11.551 -0.6803  0.8339 -1.7019
  313MOL0     H42230   2.478   4.537  11.641 -2.5607  2.9284  1.4072
  313MOL0     H42231   2.250   4.649  11.465  0.9741  0.0175 -0.0230
  313MOL0     H42232   2.359   4.748  11.563  2.2033 -0.5042 -3.1247
  313MOL0     H42233   2.140   4.546  11.659  1.1574 -1.3070  3.8373
  313MOL0     H42234   2.259   4.615  11.756  1.8417 -2.5770 -1.2793
  313MOL0     H42235   3.155   4.230  11.309 -1.3039  0.0009 -0.5355
  313MOL0     H42236   3.394   4.235  11.260 -0.8036 -1.1692  0.2931
  313MOL0     H42237   3.839   4.350  11.196  0.8254  3.3591 -0.6716
  313MOL0     H42238   4.051   4.304  11.081 -1.8067  1.2867  2.5549
  313MOL0     H42239   5.399   4.883  10.046 -0.1226 -0.1603  1.2447
  313MOL0     H42240   5.589   4.794   9.981 -2.4203 -1.3499  0.6633
  313MOL0     H42241   5.946   4.766   9.851  0.6186  0.2566  1.0302
  313MOL0     H42242   6.110   4.642   9.693 -1.3906 -1.3172  0.6115
  313MOL0     H42243   6.339   4.324   9.866 -0.4658  0.6969  0.4323
  313MOL0     H42244   6.447   4.358   9.731  0.7644  0.2752  2.2427
  313MOL0     H42245   6.153   4.260   9.751  1.5773 -2.7678  0.5991
  313MOL0     H42246   6.286   4.198   9.656 -1.1710 -1.0717 -2.5381
  313MOL0     H42247   6.248   4.428   9.517 -2.3543  1.2858 -3.2595
  313MOL0     H42248   6.095   4.437   9.606  2.1966  1.1718  3.5029
  313MOL0     H42249   6.010   4.244   9.511 -0.5448 -0.3962 -0.2676
  313MOL0     H42250   6.072   4.345   9.373  3.1866 -2.3547 -2.4149
  313MOL0     H42251   6.343   4.023   9.387  0.0059  1.1046 -1.6289
  313MOL0     H42252   6.286   4.461  10.032  0.3192 -0.0489 -2.3181
  313MOL0     H42253   6.046   4.587  10.289 -0.5004  0.9267  0.0987
  313MOL0     H42254   6.116   4.440  10.229  0.4900  0.0740  2.3814
  313MOL0     H42255   6.226   4.573  10.267 -1.3630 -2.0063  4.0583
  314MOL0     O42256   6.696   4.492   8.255 -0.3523 -0.4205  0.7727
  314MOL0     C42257   6.714   4.380   8.302 -0.2612  0.9888 -0.3493
  314MOL0     O42258   6.611   4.305   8.341  0.0889  0.7659  0.5569
  314MOL0     C42259   6.487   4.353   8.325  0.1280 -0.7472  0.6267
  314MOL0     C42260   6.412   4.346   8.210 -0.0245 -0.6324  0.4338
  314MOL0     C42261   6.282   4.406   8.201  0.6109 -0.5843  0.2695
  314MOL0     C42262   6.228   4.465   8.321 -0.1263 -0.2263 -0.0387
  314MOL0     O42263   6.106   4.534   8.327  0.2222  0.1406  0.3695
  314MOL0     C42264   5.994   4.454   8.299  0.5509  0.7031  1.4243
  314MOL0     C42265   5.865   4.547   8.288 -0.6231 -1.0839  0.2432
  314MOL0     C42266   5.746   4.463   8.256 -0.4595  0.2475  0.2976
  314MOL0     C42267   5.748   4.374   8.134  0.0339  0.3840  0.4989
  314MOL0     C42268   5.610   4.318   8.088 -0.3881 -0.1500  0.3582
  314MOL0     C42269   5.505   4.290   8.193 -0.4285 -0.2675 -0.5920
  314MOL0     C42270   5.400   4.199   8.150  0.3943 -0.5727 -1.4432
  314MOL0     C42271   5.293   4.184   8.263 -1.9705  0.4324  0.4241
  314MOL0     N42272   5.227   4.304   8.306 -1.2048 -1.3108  0.7486
  314MOL0     C42273   5.148   4.368   8.223  0.0145  0.2832 -0.3444
  314MOL0     C42274   5.100   4.474   8.292 -0.2909 -0.6347 -0.5873
  314MOL0     C42275   4.972   4.557   8.274 -0.2921  0.2201  0.3194
  314MOL0     C42276   5.028   4.699   8.263  0.2908 -0.4749  0.0877
  314MOL0     C42277   4.917   4.805   8.228 -0.1584  0.9644 -0.0801
  314MOL0     C42278   4.954   4.955   8.226 -0.5441 -0.1497 -0.3694
  314MOL0     O42279   4.893   5.034   8.125 -0.1441 -0.1032 -0.9747
  314MOL0     C42280   4.952   5.153   8.082  0.0597  0.1189  0.0424
  314MOL0     C42281   5.038   5.238   8.156 -0.1207  1.2195  0.8093
  314MOL0     C42282   5.106   5.338   8.083  0.5098 -0.0258 -0.3690
  314MOL0     C42283   5.080   5.361   7.943 -0.6118  0.1007 -0.8332
  314MOL0     C42284   5.144   5.476   7.872 -0.9297  0.1832 -0.5787
  314MOL0     O42285   5.245   5.534   7.945 -0.1838  0.0471  0.8808
  314MOL0     C42286   5.375   5.475   7.956 -0.8205 -0.3636  0.2426
  314MOL0     C42287   5.426   5.379   7.872 -0.4639  1.0229 -0.1986
  314MOL0     C42288   5.557   5.338   7.874 -1.0314 -0.1436  0.6679
  314MOL0     C42289   5.637   5.385   7.972 -1.4195 -0.3065 -0.6908
  314MOL0     O42290   5.762   5.354   8.000 -0.0412  0.1432 -0.5599
  314MOL0     C42291   5.798   5.223   8.026 -0.0263  0.5668 -1.0676
  314MOL0     C42292   5.957   5.211   8.052  0.5148 -0.2470  0.0165
  314MOL0     C42293   6.011   5.085   8.000 -0.1002  0.4127 -0.4840
  314MOL0     C42294   6.031   5.079   7.848  0.1486 -0.1491 -0.9171
  314MOL0     C42295   6.116   4.951   7.809  0.2376 -0.0396  0.0013
  314MOL0     C42296   6.101   4.912   7.659 -0.9131  1.2493 -0.1959
  314MOL0     C42297   6.167   4.772   7.635  0.3187 -1.2675 -0.3435
  314MOL0     C42298   6.246   4.759   7.492 -0.1540 -0.3859 -0.1661
  314MOL0    Cl42299   6.325   4.600   7.474  0.0569 -0.4006  0.0548
  314MOL0     C42300   5.590   5.482   8.066 -0.2190 -0.0172 -1.0629
  314MOL0     C42301   5.461   5.531   8.055 -0.0864 -0.8688 -0.1056
  314MOL0     O42302   5.109   5.514   7.754  0.6681 -0.4674 -0.3428
  314MOL0     C42303   4.976   5.295   7.879  0.6817 -0.0409  0.3527
  314MOL0     C42304   4.916   5.190   7.949 -0.4472 -0.3419 -0.4416
  314MOL0     N42305   5.168   4.473   8.415 -0.4438  0.0926 -0.2431
  314MOL0     N42306   5.229   4.363   8.432  0.1600  0.7459  0.4685
  314MOL0     C42307   6.301   4.466   8.439 -0.4081 -0.0625  0.2651
  314MOL0     C42308   6.429   4.411   8.439 -0.1846 -1.9226  0.3499
  314MOL0     C42309   6.858   4.328   8.307 -0.5674 -0.1929  0.3444
  314MOL0     C42310   6.880   4.223   8.394 -0.0866  1.2133 -0.2118
  314MOL0     C42311   7.002   4.160   8.423  0.0356  0.0345  0.3782
  314MOL0     C42312   7.113   4.184   8.350  0.0153 -1.2455  0.1508
  314MOL0     O42313   7.238   4.125   8.360 -0.7852  0.3436 -0.2416
  314MOL0     C42314   7.335   4.202   8.431  0.2087  0.3031  0.9108
  314MOL0     C42315   7.402   4.114   8.537  0.3555 -0.9577  0.1975
  314MOL0     C42316   7.300   4.081   8.651 -1.7401  0.4080  0.9536
  314MOL0     C42317   7.374   4.002   8.752 -0.0503 -0.0577  0.4323
  314MOL0     C42318   7.446   3.890   8.695  0.1433 -0.1700 -0.4281
  314MOL0     C42319   7.505   3.795   8.637 -0.3323 -0.2390 -0.5161
  314MOL0     C42320   7.102   4.292   8.260 -0.0621  0.2186  0.5322
  314MOL0     C42321   6.980   4.367   8.239 -0.3405  0.2525  0.2452
  314MOL0     C42322   6.980   4.459   8.115 -0.2739 -0.1798  0.4505
  314MOL0     H42323   6.460   4.303   8.122  1.4852 -0.6777  1.2484
  314MOL0     H42324   6.221   4.407   8.111  1.5549 -3.0321 -0.4760
  314MOL0     H42325   6.000   4.424   8.194 -1.6992 -1.4727  1.8149
  314MOL0     H42326   5.975   4.362   8.357 -2.0201 -1.9529 -3.0437
  314MOL0     H42327   5.887   4.614   8.204 -2.2479 -1.4331 -0.5096
  314MOL0     H42328   5.863   4.598   8.385 -2.1673  2.1248 -1.2983
  314MOL0     H42329   5.670   4.538   8.231  0.6020  1.0416 -0.6161
  314MOL0     H42330   5.713   4.402   8.341 -2.5336 -2.7449 -2.4087
  314MOL0     H42331   5.783   4.422   8.042  0.9506  0.5449  0.9246
  314MOL0     H42332   5.817   4.290   8.150 -0.4691 -0.3424 -0.9717
  314MOL0     H42333   5.574   4.389   8.013  1.7403 -0.7793 -1.3472
  314MOL0     H42334   5.629   4.227   8.030  0.7462  0.6968 -0.6588
  314MOL0     H42335   5.569   4.238   8.264  1.6623  1.3386 -1.2113
  314MOL0     H42336   5.479   4.387   8.236 -1.2247 -0.0381 -1.5493
  314MOL0     H42337   5.448   4.102   8.138 -0.1263 -1.2378  1.2131
  314MOL0     H42338   5.344   4.232   8.062 -1.6003  1.4768  0.4526
  314MOL0     H42339   5.217   4.114   8.227 -1.5310  1.7209 -3.4287
  314MOL0     H42340   5.340   4.134   8.348 -2.4072 -1.1564 -0.2358
  314MOL0     H42341   5.114   4.354   8.121  2.4353  2.3768 -1.5335
  314MOL0     H42342   4.925   4.521   8.183 -1.8001  1.1240  0.6966
  314MOL0     H42343   4.903   4.544   8.358 -2.9853 -0.5225 -1.8504
  314MOL0     H42344   5.078   4.724   8.357 -0.7335 -1.6639  0.9820
  314MOL0     H42345   5.113   4.710   8.196  0.3531 -0.3326  0.1891
  314MOL0     H42346   4.835   4.795   8.299  0.2895  0.6429  0.3981
  314MOL0     H42347   4.889   4.771   8.128 -3.6979 -0.9108  1.3542
  314MOL0     H42348   5.063   4.965   8.221 -0.8020  4.5520 -0.3322
  314MOL0     H42349   4.926   5.008   8.317 -2.6244  0.8831 -1.5565
  314MOL0     H42350   5.057   5.218   8.261 -0.6002 -1.0669  0.4992
  314MOL0     H42351   5.174   5.397   8.144  0.4592 -3.9794  4.1544
  314MOL0     H42352   5.357   5.326   7.806 -0.1263 -1.1696  1.0904
  314MOL0     H42353   5.592   5.262   7.806  0.4499 -0.1861  1.4356
  314MOL0     H42354   5.740   5.191   8.113 -0.7233 -2.3692 -2.4569
  314MOL0     H42355   5.759   5.153   7.951  0.4920 -0.6639 -0.2091
  314MOL0     H42356   5.997   5.295   7.996 -0.0750 -0.6944 -1.1132
  314MOL0     H42357   5.984   5.208   8.158 -1.3877  0.7447  0.5753
  314MOL0     H42358   6.110   5.082   8.048  0.1450  3.3458 -0.5827
  314MOL0     H42359   5.943   5.007   8.033  1.7170 -1.2431 -0.4689
  314MOL0     H42360   6.081   5.173   7.820 -0.5772  0.1295 -1.3195
  314MOL0     H42361   5.936   5.063   7.796 -1.2005 -0.3595  1.4652
  314MOL0     H42362   6.074   4.863   7.858  0.8613 -1.0151 -1.1461
  314MOL0     H42363   6.224   4.956   7.830  0.6886 -2.7541 -1.1245
  314MOL0     H42364   6.000   4.904   7.618 -0.7236 -0.3938 -0.4195
  314MOL0     H42365   6.161   4.980   7.597 -1.2492  0.5680 -1.2999
  314MOL0     H42366   6.089   4.698   7.659 -3.1893  2.4277  0.6739
  314MOL0     H42367   6.242   4.758   7.714 -2.5298 -1.4019  2.5712
  314MOL0     H42368   6.171   4.778   7.414 -3.6941 -2.7575  2.3605
  314MOL0     H42369   6.327   4.832   7.486  0.1594 -0.8338 -4.7430
  314MOL0     H42370   5.661   5.523   8.137 -0.8440 -0.1285 -0.3656
  314MOL0     H42371   5.427   5.623   8.100  1.1011 -0.4135 -0.0820
  314MOL0     H42372   4.939   5.312   7.778 -0.0137  4.5643  1.1787
  314MOL0     H42373   4.837   5.124   7.916 -1.0112 -0.7544  1.5507
  314MOL0     H42374   6.261   4.525   8.521  0.8201  2.5197 -0.9017
  314MOL0     H42375   6.492   4.425   8.526  1.5701  4.2894 -1.4550
  314MOL0     H42376   6.797   4.184   8.452 -1.9171  4.0560 -0.6914
  314MOL0     H42377   7.016   4.093   8.507 -0.0908 -1.7163 -0.9336
  314MOL0     H42378   7.299   4.297   8.470 -0.2846 -0.0386  1.3079
  314MOL0     H42379   7.408   4.220   8.352 -0.3425 -2.4911 -0.3920
  314MOL0     H42380   7.480   4.182   8.571 -2.0928  2.9576 -1.3701
  314MOL0     H42381   7.446   4.023   8.496 -0.0968  0.3898 -3.7317
  314MOL0     H42382   7.216   4.031   8.602 -1.1407  0.7996 -0.5329
  314MOL0     H42383   7.253   4.164   8.704  2.2599  3.0143  0.8419
  314MOL0     H42384   7.444   4.066   8.807  1.4719 -1.1517 -0.1756
  314MOL0     H42385   7.312   3.967   8.835  0.2657 -1.5197  0.0688
  314MOL0     H42386   7.558   3.719   8.583 -1.3014  0.0524 -1.9357
  314MOL0     H42387   7.181   4.329   8.195  0.0899  0.2130  0.7119
  314MOL0     H42388   7.075   4.470   8.062 -1.2921  1.1866 -1.1787
  314MOL0     H42389   6.927   4.405   8.035 -1.4704 -1.0346  1.7762
  314MOL0     H42390   6.936   4.557   8.133  3.2019  1.2084  2.2491
  315MOL0     O42391   6.250   4.786   6.718  0.3744 -0.4647 -0.2332
  315MOL0     C42392   6.161   4.845   6.662  1.7459 -0.5050 -0.0354
  315MOL0     O42393   6.173   4.975   6.615 -0.1528  0.2019 -0.0467
  315MOL0     C42394   6.290   5.048   6.651 -0.5152 -0.5851  0.2459
  315MOL0     C42395   6.325   5.050   6.789 -0.4904  0.4090 -0.0398
  315MOL0     C42396   6.438   5.121   6.821  0.4996  0.8215 -0.1066
  315MOL0     C42397   6.508   5.194   6.732 -1.2449 -1.0218 -0.1217
  315MOL0     O42398   6.606   5.282   6.779 -0.5121 -0.1227  0.7907
  315MOL0     C42399   6.606   5.427   6.747 -0.7849 -0.3319 -1.0437
  315MOL0     C42400   6.613   5.512   6.872 -0.3929 -0.3730 -0.0176
  315MOL0     C42401   6.513   5.486   6.985  0.8362 -0.0893  0.6567
  315MOL0     C42402   6.364   5.463   6.933  0.0826  0.8081 -0.0478
  315MOL0     C42403   6.263   5.440   7.043 -0.7391  0.5427 -0.0305
  315MOL0     C42404   6.120   5.466   7.007  0.3527 -0.3519  0.1985
  315MOL0     C42405   6.045   5.345   6.956  0.3850  0.2369 -0.1453
  315MOL0     C42406   5.968   5.256   7.067  0.3801 -0.2220  0.1358
  315MOL0     N42407   5.824   5.299   7.093 -0.4649 -0.5123 -0.5380
  315MOL0     C42408   5.767   5.354   7.208 -0.4970  0.0979  0.2324
  315MOL0     C42409   5.635   5.366   7.200 -0.4380 -0.4921 -0.1102
  315MOL0     C42410   5.552   5.412   7.317  0.0981 -0.5645  0.4313
  315MOL0     C42411   5.392   5.403   7.292 -1.3226 -0.5057 -0.8032
  315MOL0     C42412   5.358   5.261   7.278 -0.1737 -0.7657 -0.3181
  315MOL0     C42413   5.212   5.241   7.261  0.1478 -0.0355 -0.4024
  315MOL0     O42414   5.180   5.274   7.126 -1.6153 -0.1741  0.0120
  315MOL0     C42415   5.056   5.254   7.072 -0.7520  0.5506 -0.2545
  315MOL0     C42416   4.947   5.195   7.146 -0.8124  0.2192 -0.1297
  315MOL0     C42417   4.816   5.205   7.088  0.8218 -0.0478  0.1229
  315MOL0     C42418   4.801   5.247   6.953 -0.5916  1.0425  0.8056
  315MOL0     C42419   4.668   5.248   6.883 -0.9051 -0.3867  0.0249
  315MOL0     O42420   4.668   5.323   6.765  0.2583 -0.4407  0.1772
  315MOL0     C42421   4.549   5.333   6.696  0.4045 -0.2427  0.3495
  315MOL0     C42422   4.472   5.218   6.667 -0.2605  0.4155 -0.4894
  315MOL0     C42423   4.339   5.226   6.628 -1.2068 -1.0800  0.2064
  315MOL0     C42424   4.283   5.358   6.592  0.8259 -0.2146 -0.5686
  315MOL0     O42425   4.152   5.376   6.564  0.3125 -0.3800  0.1502
  315MOL0     C42426   4.116   5.453   6.446 -1.0571 -0.7772 -0.4396
  315MOL0     C42427   4.193   5.408   6.328 -0.3291  0.6399  0.3159
  315MOL0     C42428   4.127   5.465   6.210  0.3659  0.0226 -1.0079
  315MOL0     C42429   4.179   5.377   6.107  0.8455 -0.2459  0.5014
  315MOL0     C42430   4.144   5.442   5.976  0.4663  0.3172  0.3127
  315MOL0     C42431   4.185   5.350   5.863 -0.0488 -0.6511  0.1372
  315MOL0     C42432   4.278   5.436   5.771 -0.2203  1.0291 -0.6045
  315MOL0     C42433   4.313   5.361   5.636 -0.8205  0.1073  0.7264
  315MOL0    Cl42434   4.445   5.253   5.678 -0.3682 -0.0389 -0.7556
  315MOL0     C42435   4.366   5.469   6.599  0.0798 -0.1652 -0.6589
  315MOL0     C42436   4.498   5.456   6.654  0.0799 -0.3714 -0.1053
  315MOL0     O42437   4.573   5.192   6.933  0.5655 -0.6373  0.6466
  315MOL0     C42438   4.912   5.301   6.898  1.0276  0.0791 -0.3567
  315MOL0     C42439   5.034   5.313   6.955 -0.4364  0.1135  0.2864
  315MOL0     N42440   5.616   5.345   7.064 -0.9414  0.3011  0.0470
  315MOL0     N42441   5.725   5.305   7.000 -0.1728  0.2842 -0.2965
  315MOL0     C42442   6.475   5.187   6.598  0.3007 -0.3280 -0.0263
  315MOL0     C42443   6.348   5.126   6.559 -0.2779  0.1547  0.0453
  315MOL0     C42444   6.065   4.758   6.593  0.5835 -0.3997 -0.3636
  315MOL0     C42445   6.096   4.625   6.564 -0.1788  0.0284  0.0442
  315MOL0     C42446   6.013   4.534   6.503 -0.5424  0.8935 -0.0407
  315MOL0     C42447   5.886   4.578   6.465  0.2984 -0.6329  0.2984
  315MOL0     O42448   5.798   4.494   6.400 -0.8539  0.8509  0.0163
  315MOL0     C42449   5.654   4.508   6.410  0.1007 -0.7029 -0.4960
  315MOL0     C42450   5.582   4.377   6.455  0.2334 -0.3199  0.3495
  315MOL0     C42451   5.607   4.326   6.600 -0.5751 -0.1305 -0.7977
  315MOL0     C42452   5.589   4.172   6.620 -0.6130 -0.0787  0.0290
  315MOL0     C42453   5.458   4.125   6.649  0.4803  0.0001  0.5329
  315MOL0     C42454   5.341   4.081   6.662  0.7988  0.3320  0.6196
  315MOL0     C42455   5.843   4.707   6.507  0.2041 -0.9067  0.6280
  315MOL0     C42456   5.927   4.801   6.565  0.5839  0.3610  0.2713
  315MOL0     C42457   5.883   4.933   6.609  0.1705  0.6429 -0.4015
  315MOL0     H42458   6.274   4.990   6.863 -0.5141  1.0811  0.5056
  315MOL0     H42459   6.466   5.134   6.925 -0.0236 -1.4852  0.3666
  315MOL0     H42460   6.694   5.440   6.683  1.0359 -0.8618  1.2006
  315MOL0     H42461   6.514   5.459   6.698 -1.0371 -0.4969 -0.6884
  315MOL0     H42462   6.600   5.612   6.829 -1.5941  0.0098  1.1823
  315MOL0     H42463   6.711   5.506   6.919 -0.6607 -0.3032  0.5624
  315MOL0     H42464   6.525   5.566   7.059  0.7568 -0.0928  0.6739
  315MOL0     H42465   6.541   5.395   7.038  0.4601 -0.8392 -0.3859
  315MOL0     H42466   6.331   5.551   6.877  0.0549  0.1199 -1.1322
  315MOL0     H42467   6.361   5.371   6.873  3.4240 -0.7682  1.8862
  315MOL0     H42468   6.276   5.344   7.095  2.3052  1.3008  0.7826
  315MOL0     H42469   6.299   5.512   7.117  2.8568 -0.7789 -0.3254
  315MOL0     H42470   6.068   5.509   7.092  0.9732  1.4056 -0.2614
  315MOL0     H42471   6.120   5.544   6.930 -3.0959  0.0910  0.4964
  315MOL0     H42472   6.115   5.290   6.892  0.6868  0.8613 -0.3609
  315MOL0     H42473   5.963   5.391   6.899  0.0823 -0.0756  0.0368
  315MOL0     H42474   5.983   5.149   7.048 -1.1579 -0.6122  0.8951
  315MOL0     H42475   6.012   5.283   7.163 -0.1076 -1.3244  0.6940
  315MOL0     H42476   5.821   5.378   7.299  3.9876  1.2190 -2.4116
  315MOL0     H42477   5.584   5.349   7.401 -0.5052 -4.9824 -2.3384
  315MOL0     H42478   5.566   5.518   7.340 -2.0238  0.0519 -0.8719
  315MOL0     H42479   5.340   5.455   7.374  0.8988 -1.1590  1.1355
  315MOL0     H42480   5.369   5.451   7.197  1.8707 -1.5593 -2.2427
  315MOL0     H42481   5.384   5.209   7.371 -0.7651  0.6921  0.7050
  315MOL0     H42482   5.416   5.218   7.196 -1.5591 -0.7327 -1.3372
  315MOL0     H42483   5.149   5.294   7.332 -1.6674 -2.4194 -0.1180
  315MOL0     H42484   5.184   5.136   7.268 -6.4505  1.1725 -1.7602
  315MOL0     H42485   4.960   5.159   7.247 -0.6698  2.4456  0.6980
  315MOL0     H42486   4.741   5.171   7.158  0.0400  4.6739  1.9332
  315MOL0     H42487   4.512   5.119   6.687  0.9619  0.0205 -4.0475
  315MOL0     H42488   4.284   5.133   6.628  1.3140 -2.7873  3.6109
  315MOL0     H42489   4.008   5.454   6.430 -0.7994 -0.7271 -2.3730
  315MOL0     H42490   4.142   5.556   6.470 -1.4456 -0.1202 -2.6523
  315MOL0     H42491   4.282   5.470   6.334 -0.5939  1.2755 -1.7249
  315MOL0     H42492   4.220   5.302   6.335 -0.4552  0.6031  0.2481
  315MOL0     H42493   4.018   5.467   6.211  0.2033 -1.1293  3.4253
  315MOL0     H42494   4.167   5.566   6.197  0.6299  0.1502  0.5984
  315MOL0     H42495   4.139   5.276   6.115  0.9707 -0.4251 -0.8207
  315MOL0     H42496   4.288   5.373   6.120  0.6200 -0.1396  2.7586
  315MOL0     H42497   4.209   5.530   5.972  2.3954 -1.0224  0.3481
  315MOL0     H42498   4.037   5.460   5.967  0.3397 -0.6089 -0.1758
  315MOL0     H42499   4.232   5.259   5.901 -1.5146 -0.4404  2.6853
  315MOL0     H42500   4.098   5.314   5.808 -1.9999  1.6541  1.5020
  315MOL0     H42501   4.373   5.463   5.818 -0.9629  2.8053 -0.0427
  315MOL0     H42502   4.221   5.523   5.739 -0.4191  1.1333  0.0344
  315MOL0     H42503   4.224   5.301   5.614 -0.5485  0.1997 -0.7037
  315MOL0     H42504   4.345   5.420   5.550  2.0327  0.3833  1.8717
  315MOL0     H42505   4.335   5.571   6.579 -2.2780 -0.5110  0.7708
  315MOL0     H42506   4.562   5.541   6.675 -0.5853 -0.2972  1.8359
  315MOL0     H42507   4.901   5.356   6.804  3.8257  0.9176 -0.2774
  315MOL0     H42508   5.109   5.365   6.896 -0.2681  0.9140  1.1839
  315MOL0     H42509   6.523   5.254   6.527  0.7865 -0.3012  0.3290
  315MOL0     H42510   6.305   5.118   6.459  0.9291 -1.8966 -0.3763
  315MOL0     H42511   6.194   4.582   6.578  0.5880  1.5903 -0.2885
  315MOL0     H42512   6.055   4.437   6.479  4.3739  2.6880  0.2010
  315MOL0     H42513   5.632   4.561   6.317  0.4978  2.5571  1.1410
  315MOL0     H42514   5.635   4.593   6.476  1.7263 -2.2464  2.1094
  315MOL0     H42515   5.606   4.304   6.377  1.1751  0.1279  0.2000
  315MOL0     H42516   5.474   4.386   6.444  0.5508  3.0811 -1.3308
  315MOL0     H42517   5.527   4.375   6.657 -0.5493  0.8165 -1.5490
  315MOL0     H42518   5.704   4.353   6.643 -0.8802 -1.3616  0.7215
  315MOL0     H42519   5.616   4.107   6.535 -5.4406 -3.8506  0.9173
  315MOL0     H42520   5.655   4.132   6.697  0.3853  0.8551 -0.3107
  315MOL0     H42521   5.238   4.053   6.664  1.1021 -0.8021  2.2490
  315MOL0     H42522   5.743   4.747   6.511  0.1104 -1.2413  1.9453
  315MOL0     H42523   5.912   5.001   6.528 -3.7057  4.1721  0.8277
  315MOL0     H42524   5.776   4.933   6.631  0.3591 -1.5618  0.7522
  315MOL0     H42525   5.938   4.962   6.699  2.1244  0.8332 -1.5850
  316MOL0     O42526   2.215   6.150  11.453  0.4660  0.0612  0.6606
  316MOL0     C42527   2.263   6.099  11.352 -0.5445 -0.5073  0.6814
  316MOL0     O42528   2.299   6.170  11.239 -0.0188  0.8254 -0.3753
  316MOL0     C42529   2.302   6.304  11.237  0.2370 -0.6207  0.6105
  316MOL0     C42530   2.176   6.368  11.232 -0.5590  0.6556  0.5494
  316MOL0     C42531   2.166   6.504  11.228 -1.2515  0.4099 -0.2050
  316MOL0     C42532   2.273   6.592  11.212  0.6489 -0.0356 -0.1649
  316MOL0     O42533   2.268   6.726  11.180 -0.2836 -0.3317  0.2808
  316MOL0     C42534   2.139   6.793  11.162 -0.6416  0.3576  0.4006
  316MOL0     C42535   2.159   6.930  11.240 -0.0857 -0.2886  0.4423
  316MOL0     C42536   2.040   7.026  11.230 -0.0202 -0.4961 -0.6950
  316MOL0     C42537   2.031   7.098  11.093  0.1654 -0.1914 -0.9346
  316MOL0     C42538   1.925   7.210  11.103 -0.0672  0.9935 -0.4434
  316MOL0     C42539   1.900   7.282  10.972 -0.2323  0.7161 -0.0808
  316MOL0     C42540   1.794   7.384  10.989 -0.1561 -0.7013 -0.9106
  316MOL0     C42541   1.786   7.464  10.854 -1.0806 -0.2547  0.7554
  316MOL0     N42542   1.687   7.566  10.833  0.4785 -0.3528  0.2047
  316MOL0     C42543   1.715   7.674  10.741 -0.2350  0.2264  0.0033
  316MOL0     C42544   1.607   7.749  10.757 -0.5335  0.1368 -0.1938
  316MOL0     C42545   1.589   7.876  10.682 -0.9722 -0.7722 -0.5358
  316MOL0     C42546   1.663   7.998  10.735 -0.3787  0.6549  0.3741
  316MOL0     C42547   1.665   8.023  10.878  0.4727 -0.1509 -0.9549
  316MOL0     C42548   1.530   8.041  10.947 -0.6830 -0.3683 -0.1529
  316MOL0     O42549   1.562   8.088  11.081  0.5869 -0.2627  0.6098
  316MOL0     C42550   1.572   8.009  11.185  0.3844  0.1218  0.5987
  316MOL0     C42551   1.591   7.867  11.169 -1.4105  0.1714 -1.2909
  316MOL0     C42552   1.627   7.777  11.274  0.9398 -0.8465 -0.7126
  316MOL0     C42553   1.646   7.829  11.397 -0.6020 -0.2314 -0.0865
  316MOL0     C42554   1.670   7.732  11.516 -0.5163 -0.4949  0.2099
  316MOL0     O42555   1.733   7.609  11.485 -0.1516 -0.0467 -0.2787
  316MOL0     C42556   1.782   7.525  11.576  0.0104  0.1039 -0.4806
  316MOL0     C42557   1.822   7.562  11.704 -0.2074  1.1941  0.3214
  316MOL0     C42558   1.884   7.471  11.795 -0.5223  0.1980  0.3831
  316MOL0     C42559   1.921   7.339  11.751  1.0326 -0.8011 -0.3396
  316MOL0     O42560   1.995   7.252  11.826 -0.1921  0.0604  0.1546
  316MOL0     C42561   2.003   7.284  11.970 -0.3021  0.6682 -0.5471
  316MOL0     C42562   2.089   7.174  12.035  0.4289 -0.6670 -0.4363
  316MOL0     C42563   2.095   7.209  12.200 -0.2697  0.3164 -0.4738
  316MOL0     C42564   2.200   7.317  12.223 -0.6691  0.2374  0.0572
  316MOL0     C42565   2.163   7.396  12.350  0.5409 -0.0524  0.9501
  316MOL0     C42566   2.214   7.325  12.478  0.2743  0.2562  0.2911
  316MOL0     C42567   2.151   7.399  12.604  0.2243 -0.0403  0.0426
  316MOL0     C42568   2.223   7.356  12.721 -0.6165  0.3281 -0.2748
  316MOL0    Cl42569   2.148   7.211  12.777 -0.3032 -0.2586  0.3962
  316MOL0     C42570   1.888   7.307  11.621 -0.8366  0.8852  0.1962
  316MOL0     C42571   1.812   7.392  11.541 -0.9967  0.1142  0.9270
  316MOL0     O42572   1.640   7.771  11.630 -0.1838  0.7572 -0.6965
  316MOL0     C42573   1.623   7.965  11.418 -0.1221 -0.3880  0.5131
  316MOL0     C42574   1.590   8.051  11.312  0.8364  0.1297  0.2625
  316MOL0     N42575   1.506   7.677  10.827  0.0332  0.2710  0.4691
  316MOL0     N42576   1.562   7.577  10.889 -0.0104  0.5129  0.5650
  316MOL0     C42577   2.405   6.530  11.217  0.3789  0.0459  0.4282
  316MOL0     C42578   2.417   6.387  11.228 -0.5481 -0.0028  0.5286
  316MOL0     C42579   2.256   5.948  11.335  0.4801  0.0911 -0.2969
  316MOL0     C42580   2.300   5.890  11.209  0.3883 -0.4770 -1.5731
  316MOL0     C42581   2.308   5.748  11.193  0.6225  0.3991  0.0808
  316MOL0     C42582   2.257   5.661  11.286 -0.0401  0.1327 -0.8235
  316MOL0     O42583   2.234   5.519  11.280  0.0443 -0.2671 -0.2496
  316MOL0     C42584   2.213   5.461  11.148  0.5030  0.3205 -0.7180
  316MOL0     C42585   2.243   5.309  11.146  0.2374  0.2671  0.0722
  316MOL0     C42586   2.397   5.283  11.143 -0.0777  0.9417 -0.1231
  316MOL0     C42587   2.447   5.153  11.074  0.5535  0.4495 -0.1484
  316MOL0     C42588   2.487   5.190  10.942  0.4018 -0.3293  0.6344
  316MOL0     C42589   2.513   5.222  10.828 -0.1492  1.0875  0.6238
  316MOL0     C42590   2.200   5.716  11.399 -0.6434  0.5830 -0.4810
  316MOL0     C42591   2.205   5.853  11.424 -0.2992 -0.4137 -0.1301
  316MOL0     C42592   2.142   5.891  11.559  0.5976  0.5062 -0.9961
  316MOL0     H42593   2.089   6.313  11.268 -0.0801 -0.1860  0.4420
  316MOL0     H42594   2.064   6.540  11.236 -0.6991  2.7263 -2.3204
  316MOL0     H42595   2.134   6.821  11.057  0.2357  4.7342  1.3106
  316MOL0     H42596   2.054   6.738  11.203  0.4539  0.3780  2.9009
  316MOL0     H42597   2.234   6.990  11.188 -2.8318  2.1005 -1.1136
  316MOL0     H42598   2.193   6.909  11.342 -0.6920 -1.4622  0.4207
  316MOL0     H42599   2.059   7.103  11.306  0.4639  0.9468 -2.2177
  316MOL0     H42600   1.938   6.994  11.253 -0.8491  1.7905 -0.9273
  316MOL0     H42601   2.123   7.145  11.057  1.3088 -1.2586  0.5109
  316MOL0     H42602   2.006   7.033  11.009 -1.6290 -0.1582 -0.4692
  316MOL0     H42603   1.830   7.174  11.144  0.8166 -1.2558 -0.1877
  316MOL0     H42604   1.963   7.281  11.177 -1.2625  1.4931 -0.2885
  316MOL0     H42605   1.995   7.321  10.934  0.0746  1.3356  1.2557
  316MOL0     H42606   1.844   7.210  10.911 -0.9864  1.7010 -0.5779
  316MOL0     H42607   1.817   7.464  11.060 -0.0870  1.4537 -3.2440
  316MOL0     H42608   1.702   7.337  11.026 -0.4035 -0.5420 -1.3154
  316MOL0     H42609   1.887   7.500  10.832  1.2519 -7.0668 -2.1079
  316MOL0     H42610   1.774   7.390  10.775  0.2668  0.5547 -0.2429
  316MOL0     H42611   1.803   7.699  10.683 -0.7512  0.4053 -0.7094
  316MOL0     H42612   1.604   7.865  10.574 -0.6713 -1.9261 -0.3859
  316MOL0     H42613   1.480   7.883  10.686 -0.8725  0.4449  1.9256
  316MOL0     H42614   1.771   7.997  10.718  0.3398  4.3048  3.3298
  316MOL0     H42615   1.636   8.089  10.680  1.7079  1.2344  0.1932
  316MOL0     H42616   1.708   8.119  10.905 -4.0296  1.2274  2.6216
  316MOL0     H42617   1.723   7.943  10.926 -1.0808 -0.3581  0.7082
  316MOL0     H42618   1.472   7.948  10.947 -0.8337 -0.2914 -1.2780
  316MOL0     H42619   1.461   8.108  10.896 -1.6864 -0.0124  1.5907
  316MOL0     H42620   1.596   7.824  11.069 -0.2622  2.8646 -2.4786
  316MOL0     H42621   1.652   7.671  11.268  1.9981 -0.8476  2.1720
  316MOL0     H42622   1.826   7.668  11.729 -1.1335  2.2907 -3.5082
  316MOL0     H42623   1.927   7.515  11.884  2.2676  1.0524 -1.2534
  316MOL0     H42624   2.050   7.383  11.983  0.7074  0.4463 -2.2141
  316MOL0     H42625   1.902   7.292  12.012 -0.5235  2.5194 -1.3331
  316MOL0     H42626   2.035   7.079  12.025 -0.9642 -0.3818  2.9280
  316MOL0     H42627   2.182   7.173  11.978 -0.2799  0.6541 -1.6915
  316MOL0     H42628   1.999   7.253  12.229  0.0989  1.3618 -0.8164
  316MOL0     H42629   2.112   7.123  12.267  0.5276  0.1144 -0.9228
  316MOL0     H42630   2.195   7.390  12.142  0.3279 -0.3988 -0.6029
  316MOL0     H42631   2.299   7.272  12.240 -0.5839  0.8072  1.1798
  316MOL0     H42632   2.054   7.392  12.358  0.3094 -0.8321 -1.6985
  316MOL0     H42633   2.208   7.495  12.339  3.2518 -1.1800  1.1387
  316MOL0     H42634   2.189   7.219  12.472 -0.0054  0.3937 -2.0542
  316MOL0     H42635   2.323   7.330  12.482  0.2413  0.8704  0.4417
  316MOL0     H42636   2.046   7.376  12.624  1.0194 -2.8615  1.5363
  316MOL0     H42637   2.167   7.506  12.593  3.0208 -0.4699 -0.9589
  316MOL0     H42638   2.331   7.352  12.702 -0.5691  3.3255 -1.0829
  316MOL0     H42639   2.206   7.432  12.798  0.1276 -1.5707  1.8850
  316MOL0     H42640   1.900   7.204  11.589 -2.3459  1.1135 -1.2053
  316MOL0     H42641   1.770   7.366  11.444 -2.1691 -3.3141  2.1886
  316MOL0     H42642   1.635   8.009  11.516  1.4514  0.0918  0.1264
  316MOL0     H42643   1.574   8.156  11.334  0.7502 -0.0223  0.9433
  316MOL0     H42644   2.486   6.602  11.212 -0.3364  0.8051 -0.4444
  316MOL0     H42645   2.519   6.349  11.226 -0.3349  0.5782  0.1264
  316MOL0     H42646   2.355   5.944  11.133  2.2071  2.0288  1.2796
  316MOL0     H42647   2.356   5.704  11.106 -0.3226  0.4677 -0.4929
  316MOL0     H42648   2.272   5.504  11.066  0.2768 -1.0299 -1.6156
  316MOL0     H42649   2.107   5.457  11.122  1.0788 -0.5034 -3.1990
  316MOL0     H42650   2.196   5.277  11.053  0.7132 -0.0807 -0.0530
  316MOL0     H42651   2.200   5.255  11.231 -2.6295  0.6504 -1.0116
  316MOL0     H42652   2.437   5.288  11.245 -0.2234  3.0776 -0.1253
  316MOL0     H42653   2.449   5.368  11.098 -0.2328  2.3868  2.2321
  316MOL0     H42654   2.535   5.109  11.122  1.4832 -1.5354 -3.3311
  316MOL0     H42655   2.368   5.078  11.072 -2.4624  3.4146 -0.9625
  316MOL0     H42656   2.549   5.245  10.729  0.9435 -3.1470 -0.1618
  316MOL0     H42657   2.150   5.644  11.463  0.4477 -1.4278 -1.8124
  316MOL0     H42658   2.222   5.934  11.621  4.5915 -3.1161 -3.0724
  316MOL0     H42659   2.075   5.975  11.539 -2.2875 -0.5992  2.8741
  316MOL0     H42660   2.092   5.805  11.603  0.7206  0.7654 -0.3384
  317MOL0     O42661   0.486   7.396   5.157  0.7843 -0.1361 -1.2208
  317MOL0     C42662   0.552   7.489   5.120 -0.9503 -0.3560 -0.3146
  317MOL0     O42663   0.507   7.617   5.114 -0.1399 -0.5437  0.5176
  317MOL0     C42664   0.381   7.625   5.164 -0.6416 -0.6560  0.4027
  317MOL0     C42665   0.263   7.633   5.085  1.2510 -0.7597  0.2706
  317MOL0     C42666   0.142   7.639   5.147  0.5497 -0.4003 -0.4399
  317MOL0     C42667   0.128   7.636   5.282 -0.1200  0.1772  0.3204
  317MOL0     O42668  -0.002   7.628   5.330 -0.2643  0.8294 -0.4081
  317MOL0     C42669  -0.036   7.546   5.439 -0.1660  0.1497 -0.3799
  317MOL0     C42670  -0.004   7.401   5.411  1.0745  0.4384  0.6609
  317MOL0     C42671  -0.062   7.312   5.520  0.4541  0.0577 -0.1876
  317MOL0     C42672  -0.002   7.341   5.665  0.0535 -0.0986 -0.2336
  317MOL0     C42673  -0.095   7.284   5.771 -0.2238  1.4706 -0.0502
  317MOL0     C42674  -0.052   7.297   5.916  0.4317 -0.1509  0.1093
  317MOL0     C42675  -0.147   7.217   6.010 -0.0921 -0.2409  0.8430
  317MOL0     C42676  -0.101   7.218   6.150  0.1783 -0.5153 -0.3814
  317MOL0     N42677  -0.142   7.338   6.229 -0.4488  0.1757  0.6186
  317MOL0     C42678  -0.118   7.356   6.366 -0.3722 -0.3144 -0.4733
  317MOL0     C42679  -0.172   7.485   6.380 -0.3791  0.2234 -0.9526
  317MOL0     C42680  -0.136   7.571   6.497 -0.0031  0.6629 -0.7621
  317MOL0     C42681  -0.053   7.701   6.484 -1.2544  0.5777 -0.6662
  317MOL0     C42682   0.096   7.661   6.480 -0.8233  0.1571 -1.1087
  317MOL0     C42683   0.177   7.654   6.612 -0.5798  0.4982 -0.1404
  317MOL0     O42684   0.126   7.549   6.699 -0.0230  0.7590  0.5385
  317MOL0     C42685   0.199   7.518   6.797  0.4017 -0.4981 -0.1621
  317MOL0     C42686   0.195   7.591   6.919  0.4507 -1.0165  0.0852
  317MOL0     C42687   0.269   7.563   7.031 -0.2610 -0.3171  0.3680
  317MOL0     C42688   0.367   7.466   7.025 -0.4616  0.3207 -1.8422
  317MOL0     C42689   0.457   7.443   7.146 -0.4727 -0.1434  1.2563
  317MOL0     O42690   0.454   7.548   7.240  0.5998  0.3899  0.5742
  317MOL0     C42691   0.546   7.541   7.344  0.9578 -0.5215 -0.9665
  317MOL0     C42692   0.513   7.463   7.457  0.5260  0.3693 -0.0543
  317MOL0     C42693   0.596   7.470   7.566 -0.1960  0.2197 -0.3662
  317MOL0     C42694   0.730   7.534   7.553  0.6445 -0.0247  0.1110
  317MOL0     O42695   0.825   7.527   7.653 -0.1737 -0.3594  0.5481
  317MOL0     C42696   0.945   7.458   7.629 -0.2090 -0.0599  0.3233
  317MOL0     C42697   1.027   7.439   7.751 -0.1526  0.1994 -1.2439
  317MOL0     C42698   1.155   7.361   7.741 -0.1289  0.0439 -0.2664
  317MOL0     C42699   1.204   7.330   7.891  0.1340 -0.0103  0.0391
  317MOL0     C42700   1.327   7.229   7.896  0.0126 -0.2082 -0.1278
  317MOL0     C42701   1.379   7.216   8.036 -0.1250  0.2478 -0.3024
  317MOL0     C42702   1.513   7.137   8.056  0.0953  0.6260  0.2806
  317MOL0     C42703   1.523   7.112   8.209 -0.0050 -0.1857  0.5359
  317MOL0    Cl42704   1.678   7.011   8.247  0.8808  0.6474  0.6715
  317MOL0     C42705   0.761   7.604   7.436  0.7272  0.2693  0.2892
  317MOL0     C42706   0.674   7.607   7.329  0.1183  0.4660  0.1756
  317MOL0     O42707   0.533   7.351   7.138  0.8216 -0.5618  0.3183
  317MOL0     C42708   0.373   7.389   6.902 -0.1375 -0.1938 -0.5020
  317MOL0     C42709   0.296   7.417   6.791 -0.4190  0.1945  0.2058
  317MOL0     N42710  -0.236   7.538   6.271 -1.4506  0.2263  0.4343
  317MOL0     N42711  -0.214   7.444   6.181 -0.0163  0.0239 -0.3167
  317MOL0     C42712   0.239   7.628   5.357 -0.9432 -0.3065  0.1117
  317MOL0     C42713   0.372   7.625   5.299  0.4658 -0.2855 -0.4140
  317MOL0     C42714   0.700   7.478   5.087 -1.1922  0.3365 -0.6522
  317MOL0     C42715   0.770   7.578   5.015  0.9491 -0.3536 -0.2639
  317MOL0     C42716   0.896   7.552   4.966 -0.2319  0.3450  0.5166
  317MOL0     C42717   0.968   7.442   5.000  0.3703 -0.5775 -0.9109
  317MOL0     O42718   1.095   7.406   4.955  0.0946 -0.3940  0.1945
  317MOL0     C42719   1.158   7.483   4.852 -0.4702  0.8277 -0.1498
  317MOL0     C42720   1.112   7.448   4.711 -0.1639  0.7618  0.0974
  317MOL0     C42721   1.172   7.523   4.593  0.1357 -0.4757  0.1279
  317MOL0     C42722   1.132   7.672   4.606 -0.1472  0.0110  0.1344
  317MOL0     C42723   0.992   7.695   4.568  0.4016  0.4009  0.3293
  317MOL0     C42724   0.872   7.697   4.545  0.3956 -0.0963 -0.1784
  317MOL0     C42725   0.905   7.346   5.072  0.1211  0.0701 -0.1283
  317MOL0     C42726   0.774   7.364   5.120 -0.6719  0.8901  0.7395
  317MOL0     C42727   0.719   7.250   5.207  0.1084 -1.3483 -0.1419
  317MOL0     H42728   0.258   7.643   4.977 -0.2835 -2.3008  0.1652
  317MOL0     H42729   0.052   7.636   5.087  1.4708 -1.3151 -1.8205
  317MOL0     H42730   0.025   7.593   5.517 -0.5921  0.0599  0.0151
  317MOL0     H42731  -0.141   7.555   5.468 -0.4656  1.0113 -1.6229
  317MOL0     H42732   0.105   7.392   5.408  1.1173  1.0547 -0.7512
  317MOL0     H42733  -0.037   7.375   5.310  2.6711  0.2608  0.1647
  317MOL0     H42734  -0.057   7.205   5.499  0.5108 -0.9818  4.1785
  317MOL0     H42735  -0.167   7.340   5.520  0.3789 -0.1743 -1.3682
  317MOL0     H42736   0.100   7.306   5.680  0.7468  1.0222 -2.0129
  317MOL0     H42737  -0.004   7.448   5.689  1.3477  0.4893 -2.4433
  317MOL0     H42738  -0.196   7.324   5.757 -0.2701  1.9729  1.4760
  317MOL0     H42739  -0.105   7.178   5.745 -1.2033  0.8794  2.4539
  317MOL0     H42740   0.048   7.254   5.922  0.6188 -0.1481 -2.1265
  317MOL0     H42741  -0.067   7.404   5.932 -0.1635 -0.3914  1.2487
  317MOL0     H42742  -0.168   7.117   5.971 -2.6725  0.3305  0.5709
  317MOL0     H42743  -0.251   7.250   6.004 -1.6671 -4.7001 -1.8808
  317MOL0     H42744  -0.154   7.139   6.204  0.8820  0.1232  1.3006
  317MOL0     H42745   0.005   7.191   6.149  0.8730  1.9874 -0.7559
  317MOL0     H42746  -0.047   7.304   6.430  1.9725 -1.0078 -3.4149
  317MOL0     H42747  -0.229   7.612   6.539 -0.1959 -2.1285  1.9046
  317MOL0     H42748  -0.090   7.514   6.578 -0.1431  1.6395  0.0315
  317MOL0     H42749  -0.068   7.764   6.395  0.5750 -0.4155 -1.7490
  317MOL0     H42750  -0.080   7.761   6.572 -2.1436  0.6214 -0.9589
  317MOL0     H42751   0.138   7.749   6.429 -2.9698  0.5031 -2.4043
  317MOL0     H42752   0.114   7.565   6.431 -1.5322 -0.9000  0.6035
  317MOL0     H42753   0.176   7.750   6.665 -0.6935  0.4479 -0.0520
  317MOL0     H42754   0.285   7.648   6.594 -0.5418 -0.5567  0.3770
  317MOL0     H42755   0.121   7.670   6.912  1.8512  0.3041 -0.4778
  317MOL0     H42756   0.259   7.629   7.117  1.6518 -0.7636  0.9707
  317MOL0     H42757   0.418   7.413   7.471  0.2941  0.5617 -0.8671
  317MOL0     H42758   0.569   7.413   7.654  1.1073 -0.2246 -0.2315
  317MOL0     H42759   0.914   7.359   7.596  0.1224 -0.5230  1.3774
  317MOL0     H42760   1.005   7.497   7.546 -1.9562 -1.0710 -1.5277
  317MOL0     H42761   1.039   7.536   7.800 -1.3560 -0.7615  1.1014
  317MOL0     H42762   0.956   7.391   7.819  1.5334 -0.9430 -0.2035
  317MOL0     H42763   1.129   7.270   7.685 -2.3890 -0.5731  1.6389
  317MOL0     H42764   1.232   7.418   7.687 -0.0163  0.7299  0.6012
  317MOL0     H42765   1.122   7.281   7.944  0.8622  0.4811  1.6877
  317MOL0     H42766   1.235   7.426   7.931 -2.4558  1.1691 -0.5528
  317MOL0     H42767   1.416   7.247   7.835 -0.1913 -0.8554 -0.6288
  317MOL0     H42768   1.274   7.137   7.869 -2.8108  0.0941  3.5878
  317MOL0     H42769   1.386   7.316   8.079 -0.8377 -0.6662  2.1273
  317MOL0     H42770   1.307   7.161   8.097  1.1262  0.1612  1.1836
  317MOL0     H42771   1.598   7.197   8.019  2.5265 -0.8662  3.0610
  317MOL0     H42772   1.518   7.037   8.013  0.3023  0.1577  1.3717
  317MOL0     H42773   1.533   7.210   8.255  1.1009  0.7622 -1.5622
  317MOL0     H42774   1.439   7.054   8.248  0.9228 -2.9299 -1.2564
  317MOL0     H42775   0.859   7.651   7.433  1.4829 -1.2959 -2.0671
  317MOL0     H42776   0.688   7.652   7.232  0.2953  0.1968  0.0749
  317MOL0     H42777   0.437   7.303   6.892  0.8665  0.5665 -0.8438
  317MOL0     H42778   0.313   7.363   6.698 -4.0352 -0.3715 -0.2884
  317MOL0     H42779   0.220   7.633   5.464 -0.8805  0.4519  0.0920
  317MOL0     H42780   0.461   7.621   5.361  0.2798  2.1299  0.1442
  317MOL0     H42781   0.707   7.659   4.978  0.7473 -0.9822 -1.3381
  317MOL0     H42782   0.940   7.624   4.898  0.3545 -0.5534 -0.0687
  317MOL0     H42783   1.261   7.447   4.862 -0.1821  1.4749 -0.7507
  317MOL0     H42784   1.159   7.586   4.888  1.2171  0.7091  0.1899
  317MOL0     H42785   1.003   7.447   4.712 -0.1797 -0.6693 -0.3729
  317MOL0     H42786   1.139   7.343   4.698 -0.9772  0.7504 -1.7825
  317MOL0     H42787   1.139   7.483   4.497  1.7093 -0.3155 -0.5079
  317MOL0     H42788   1.281   7.514   4.583 -0.0391 -0.4583 -2.3079
  317MOL0     H42789   1.163   7.702   4.707 -1.0303 -2.0976  1.0909
  317MOL0     H42790   1.195   7.729   4.537 -1.4705 -0.9220 -1.9107
  317MOL0     H42791   0.773   7.727   4.519  0.1484  1.5285  2.2555
  317MOL0     H42792   0.975   7.263   5.080  2.3507  1.2251 -4.3472
  317MOL0     H42793   0.689   7.296   5.301  1.1104  0.3719 -0.6045
  317MOL0     H42794   0.627   7.208   5.167  0.0574  0.4199 -2.0460
  317MOL0     H42795   0.793   7.170   5.217 -0.0803 -1.5595 -0.4202
  318MOL0     O42796   1.216   7.191   7.388  0.8876 -0.4856  0.5208
  318MOL0     C42797   1.276   7.296   7.403  0.7716 -0.8384 -0.1024
  318MOL0     O42798   1.400   7.318   7.459 -0.3246  0.6002  0.0806
  318MOL0     C42799   1.481   7.209   7.480  0.9156 -0.3804 -0.2904
  318MOL0     C42800   1.480   7.100   7.393 -0.0251 -0.5951  0.5109
  318MOL0     C42801   1.572   6.993   7.410 -0.8604  0.4533  0.0012
  318MOL0     C42802   1.655   6.990   7.529  0.5192 -0.0743  0.5659
  318MOL0     O42803   1.740   6.895   7.569  0.2930 -0.3140  0.8022
  318MOL0     C42804   1.715   6.752   7.555 -0.1430  0.1307  0.0913
  318MOL0     C42805   1.807   6.665   7.649 -0.0418  0.4399  0.3744
  318MOL0     C42806   1.834   6.721   7.789 -0.8545 -0.8565  0.5872
  318MOL0     C42807   1.703   6.744   7.874  0.4314  0.2449  0.8468
  318MOL0     C42808   1.733   6.781   8.011 -0.7274 -0.1498  0.1867
  318MOL0     C42809   1.793   6.660   8.083 -0.8042 -0.0060  0.7107
  318MOL0     C42810   1.833   6.684   8.224 -0.6095 -0.6175 -0.5525
  318MOL0     C42811   1.858   6.544   8.295 -0.1805  1.1029  1.0326
  318MOL0     N42812   1.895   6.559   8.439 -0.1043  0.1033 -0.3429
  318MOL0     C42813   1.840   6.501   8.553 -0.1751 -0.6138 -0.4999
  318MOL0     C42814   1.941   6.533   8.646  0.3413  0.1927 -0.5009
  318MOL0     C42815   1.942   6.484   8.792  0.6174 -0.7264 -0.9261
  318MOL0     C42816   1.824   6.556   8.865 -0.5115  0.1557 -0.1914
  318MOL0     C42817   1.786   6.495   9.004 -0.0570 -0.3303  0.3836
  318MOL0     C42818   1.694   6.575   9.097 -0.5991  0.1202  0.1838
  318MOL0     O42819   1.741   6.704   9.124  0.2690  0.4959  0.6939
  318MOL0     C42820   1.845   6.726   9.212 -0.2310 -0.2494 -0.2597
  318MOL0     C42821   1.869   6.861   9.247 -0.9183 -0.4372  0.3895
  318MOL0     C42822   1.984   6.898   9.321 -0.0681 -0.1835 -0.1990
  318MOL0     C42823   2.049   6.802   9.393  0.2160  0.3400 -0.5221
  318MOL0     C42824   2.162   6.851   9.479 -0.3070  0.1054 -0.0586
  318MOL0     O42825   2.146   6.973   9.538 -0.3495 -0.4167  0.1379
  318MOL0     C42826   2.252   7.029   9.607 -0.0322  0.0911  0.0214
  318MOL0     C42827   2.381   7.045   9.546  0.6432  0.4073  0.1516
  318MOL0     C42828   2.491   7.081   9.624  0.6078 -0.8006  0.2177
  318MOL0     C42829   2.461   7.137   9.752  0.5220 -0.2963  0.4014
  318MOL0     O42830   2.566   7.194   9.819  0.5952 -0.0161 -0.5256
  318MOL0     C42831   2.536   7.325   9.873  0.6414  0.5893  0.2712
  318MOL0     C42832   2.658   7.391   9.911 -0.3807 -0.1712 -0.6974
  318MOL0     C42833   2.716   7.357  10.059 -0.0321 -0.5293 -0.8164
  318MOL0     C42834   2.828   7.461  10.083 -0.6210 -0.6434  2.0647
  318MOL0     C42835   2.861   7.477  10.225 -0.1856 -0.3172  0.8908
  318MOL0     C42836   2.983   7.567  10.254  0.6513 -0.0906 -0.1672
  318MOL0     C42837   2.987   7.627  10.397 -0.1292  0.1015 -0.1456
  318MOL0     C42838   2.992   7.534  10.510  0.6236  0.5092 -0.9976
  318MOL0    Cl42839   3.030   7.616  10.659 -0.6972  0.7354  0.0405
  318MOL0     C42840   2.338   7.124   9.816 -0.8578  0.0673  0.0761
  318MOL0     C42841   2.234   7.064   9.744 -0.4357  0.8381  0.4991
  318MOL0     O42842   2.266   6.782   9.487  0.0562 -0.5771 -0.0816
  318MOL0     C42843   2.036   6.667   9.367  0.1813  0.3042 -0.0093
  318MOL0     C42844   1.927   6.629   9.278 -0.4709  0.3516 -1.4722
  318MOL0     N42845   2.035   6.615   8.595  0.4769  0.1147  0.1017
  318MOL0     N42846   2.009   6.622   8.468 -0.0553 -0.0775  0.1027
  318MOL0     C42847   1.639   7.095   7.619  0.1215  0.3098 -0.1786
  318MOL0     C42848   1.562   7.202   7.590  0.9651 -0.5856 -0.5150
  318MOL0     C42849   1.207   7.418   7.342  0.8254 -0.2914 -0.4882
  318MOL0     C42850   1.253   7.536   7.396 -1.0436  0.2368  0.7877
  318MOL0     C42851   1.207   7.661   7.363 -0.2029 -0.3382 -0.4258
  318MOL0     C42852   1.090   7.668   7.284 -0.6090  0.9889  0.2434
  318MOL0     O42853   1.021   7.785   7.272  0.2463  0.0183 -0.0313
  318MOL0     C42854   1.092   7.917   7.259 -0.3354  0.3483  0.4794
  318MOL0     C42855   1.009   8.014   7.340 -0.0929 -0.4956  0.3453
  318MOL0     C42856   1.044   8.035   7.484 -0.0679 -1.2131  0.0961
  318MOL0     C42857   1.143   8.148   7.498  0.0184  0.4868  0.6118
  318MOL0     C42858   1.166   8.200   7.637  0.2865 -0.3315  0.8858
  318MOL0     C42859   1.202   8.247   7.743  1.4746 -0.4591  0.4607
  318MOL0     C42860   1.043   7.547   7.226  0.6701 -0.0456  0.4132
  318MOL0     C42861   1.097   7.418   7.254  0.6546  0.0438 -0.6070
  318MOL0     C42862   1.034   7.297   7.186  0.6613  0.2022 -0.5274
  318MOL0     H42863   1.417   7.105   7.305 -1.2700  1.2491  1.4423
  318MOL0     H42864   1.587   6.911   7.340 -0.9756  1.0758 -0.7772
  318MOL0     H42865   1.614   6.731   7.592  0.4050 -0.7798  1.1418
  318MOL0     H42866   1.734   6.723   7.452  1.3217 -0.3661  0.4737
  318MOL0     H42867   1.898   6.635   7.596 -1.4837  3.9645 -4.8180
  318MOL0     H42868   1.763   6.569   7.679  0.5793 -0.2992 -0.9804
  318MOL0     H42869   1.896   6.810   7.775 -0.5024 -1.5028 -2.6139
  318MOL0     H42870   1.912   6.660   7.835 -0.3704 -0.9601 -0.3616
  318MOL0     H42871   1.625   6.808   7.832 -0.8036 -1.1896  0.8432
  318MOL0     H42872   1.647   6.650   7.868 -0.5100  0.8904 -1.7623
  318MOL0     H42873   1.802   6.865   8.022 -0.2322 -0.6197  0.6849
  318MOL0     H42874   1.639   6.806   8.061 -1.6676  1.1463 -2.0520
  318MOL0     H42875   1.727   6.572   8.085  0.3447 -0.8901  1.8572
  318MOL0     H42876   1.882   6.615   8.038  0.0769  1.4674  0.9322
  318MOL0     H42877   1.749   6.736   8.270  1.0522  1.1550  0.6222
  318MOL0     H42878   1.920   6.749   8.219 -0.8223 -0.3852 -1.3604
  318MOL0     H42879   1.767   6.486   8.278 -0.0075  1.0941  0.0523
  318MOL0     H42880   1.936   6.479   8.255 -1.7401 -1.4847  1.9455
  318MOL0     H42881   1.748   6.445   8.564 -1.9184  2.2584  0.7621
  318MOL0     H42882   1.926   6.376   8.795  2.8078 -1.1095 -1.5036
  318MOL0     H42883   2.039   6.499   8.841  0.3347 -1.5404 -0.0905
  318MOL0     H42884   1.841   6.664   8.878  0.2459 -0.0654  0.7121
  318MOL0     H42885   1.732   6.555   8.805 -1.0210  2.2630  0.4443
  318MOL0     H42886   1.871   6.447   9.053 -2.4200 -2.7308  2.4826
  318MOL0     H42887   1.718   6.415   8.973  0.4046  0.1057 -1.8888
  318MOL0     H42888   1.678   6.523   9.192 -3.2960  0.5674  0.0479
  318MOL0     H42889   1.593   6.577   9.054 -0.0500 -1.2555 -1.2676
  318MOL0     H42890   1.817   6.945   9.200 -0.9353 -0.7604 -0.1889
  318MOL0     H42891   2.006   7.003   9.339  1.9177 -0.7204  0.7906
  318MOL0     H42892   2.387   7.016   9.442 -4.7265 -1.7217  0.0989
  318MOL0     H42893   2.593   7.075   9.587  1.4024 -3.6956  2.4698
  318MOL0     H42894   2.491   7.384   9.793 -0.2509  2.4230  2.0461
  318MOL0     H42895   2.464   7.321   9.955 -2.5266  4.1094 -1.9808
  318MOL0     H42896   2.741   7.386   9.841  0.0480 -2.9708 -0.1292
  318MOL0     H42897   2.638   7.497   9.899  1.2872  0.2711  0.2025
  318MOL0     H42898   2.636   7.376  10.132  0.2621  3.4464 -1.3167
  318MOL0     H42899   2.751   7.255  10.077 -2.8799 -1.5480 -0.5102
  318MOL0     H42900   2.805   7.565  10.057  2.3674 -0.5336 -0.7587
  318MOL0     H42901   2.921   7.425  10.039 -0.6507  2.8658 -1.4193
  318MOL0     H42902   2.864   7.376  10.265  1.5649 -0.2130  1.1040
  318MOL0     H42903   2.772   7.534  10.258 -1.1815  1.4030 -3.9844
  318MOL0     H42904   3.081   7.520  10.238  0.5512  0.1489 -1.6251
  318MOL0     H42905   2.981   7.646  10.179  0.6081 -1.7086 -1.9596
  318MOL0     H42906   2.892   7.681  10.403 -0.9421 -1.0539 -1.8034
  318MOL0     H42907   3.077   7.689  10.403 -1.1579  2.0979 -3.1685
  318MOL0     H42908   2.889   7.498  10.512  1.1161 -1.0891 -2.0057
  318MOL0     H42909   3.057   7.449  10.485  0.5592  0.2080 -0.1571
  318MOL0     H42910   2.338   7.142   9.923 -1.0529  0.8024 -0.0385
  318MOL0     H42911   2.144   7.026   9.793 -0.6529 -2.2914 -1.9864
  318MOL0     H42912   2.088   6.591   9.424 -2.9122 -0.5050  1.9969
  318MOL0     H42913   1.912   6.523   9.258 -1.3202 -0.0034  0.8376
  318MOL0     H42914   1.694   7.085   7.712 -0.1049 -1.0107 -0.1637
  318MOL0     H42915   1.564   7.290   7.653 -0.8010 -0.9546  0.1203
  318MOL0     H42916   1.325   7.535   7.477 -1.7484 -1.0004  1.4301
  318MOL0     H42917   1.266   7.731   7.421  1.2857 -1.0447 -1.0541
  318MOL0     H42918   1.088   7.953   7.156 -0.8747  2.4562  1.1922
  318MOL0     H42919   1.192   7.895   7.297  0.9708 -0.9900 -3.2877
  318MOL0     H42920   0.902   7.995   7.328 -0.0480  0.2558 -1.8038
  318MOL0     H42921   1.033   8.112   7.297 -0.0956 -0.7653 -0.2751
  318MOL0     H42922   1.103   7.951   7.522  1.4203  0.3470  1.3888
  318MOL0     H42923   0.959   8.059   7.549 -2.1916  0.9857 -3.1524
  318MOL0     H42924   1.239   8.136   7.447 -1.9627  0.9078 -3.6665
  318MOL0     H42925   1.103   8.233   7.442 -1.2287 -0.8062 -0.5423
  318MOL0     H42926   1.243   8.288   7.833  2.5993  1.5668 -0.9106
  318MOL0     H42927   0.967   7.542   7.148  0.1509 -1.3730  0.9758
  318MOL0     H42928   0.926   7.314   7.174  0.6786  0.1239 -0.7792
  318MOL0     H42929   1.080   7.293   7.088  0.3860  1.8231 -0.7560
  318MOL0     H42930   1.034   7.209   7.252  1.1222  1.8950  1.8694
  319MOL0     O42931   4.002  10.821   9.747  0.0563 -0.3335 -0.4223
  319MOL0     C42932   3.997  10.906   9.661 -0.2087  0.1925  0.1097
  319MOL0     O42933   3.892  10.914   9.565  1.2716  0.3098 -0.2455
  319MOL0     C42934   3.768  10.859   9.584  0.1301 -0.8465  0.6460
  319MOL0     C42935   3.721  10.744   9.511  0.5350 -0.9376 -0.3034
  319MOL0     C42936   3.599  10.682   9.543 -0.0249  0.1269 -0.1556
  319MOL0     C42937   3.512  10.739   9.646  0.6433 -0.0271 -0.1284
  319MOL0     O42938   3.392  10.681   9.683 -0.8058 -0.1466  0.3047
  319MOL0     C42939   3.397  10.600   9.800  1.0422  1.1896 -0.8395
  319MOL0     C42940   3.345  10.455   9.771 -0.7204 -0.4549 -0.6526
  319MOL0     C42941   3.388  10.365   9.885 -0.2269 -0.0067 -0.5140
  319MOL0     C42942   3.335  10.232   9.855 -0.2905 -0.5410 -0.6752
  319MOL0     C42943   3.355  10.132   9.969  0.1404  0.3473 -0.0424
  319MOL0     C42944   3.302  10.000   9.912  0.3815 -0.4000  0.1435
  319MOL0     C42945   3.351   9.878   9.995  0.4416 -0.2151 -0.6353
  319MOL0     C42946   3.495   9.863  10.025  0.4233 -0.2661 -0.1478
  319MOL0     N42947   3.526   9.730  10.065 -0.2607  0.6412  0.0194
  319MOL0     C42948   3.560   9.633   9.972  0.6096 -1.7893  0.4157
  319MOL0     C42949   3.624   9.547  10.049 -1.1444  0.2504  0.3064
  319MOL0     C42950   3.670   9.431   9.973  0.8311 -0.1374  0.1945
  319MOL0     C42951   3.814   9.437   9.916 -0.1403  0.1048 -0.2424
  319MOL0     C42952   3.872   9.302   9.888 -0.7446  0.4042  0.6941
  319MOL0     C42953   3.895   9.200  10.007 -0.1881 -0.3830 -0.2216
  319MOL0     O42954   3.775   9.157  10.084 -0.0626  0.2774  0.6092
  319MOL0     C42955   3.794   9.082  10.194 -0.7290  0.2382  0.3879
  319MOL0     C42956   3.853   9.134  10.312  0.0237 -0.4823 -0.4497
  319MOL0     C42957   3.867   9.052  10.421  0.5297  0.0920  0.1711
  319MOL0     C42958   3.838   8.916  10.408  0.4291 -0.1233 -0.2076
  319MOL0     C42959   3.861   8.820  10.530 -0.0434 -0.2996 -0.4628
  319MOL0     O42960   3.906   8.885  10.644  0.0220  0.4673  0.6502
  319MOL0     C42961   3.921   8.804  10.760  0.2735  0.0005  0.1217
  319MOL0     C42962   4.045   8.761  10.810 -0.2669  0.3554  0.5365
  319MOL0     C42963   4.055   8.660  10.912 -0.0374 -0.0246  0.0444
  319MOL0     C42964   3.933   8.604  10.973 -0.5447 -0.5310  0.4791
  319MOL0     O42965   3.948   8.510  11.071  0.3520 -1.1465 -0.4050
  319MOL0     C42966   4.065   8.418  11.071  0.2872  0.3977  0.0126
  319MOL0     C42967   4.047   8.307  11.171 -0.0918 -1.3091  0.1767
  319MOL0     C42968   3.973   8.179  11.128 -0.2909  0.5749  0.7459
  319MOL0     C42969   4.054   8.111  11.020 -0.6703 -0.2157 -0.1251
  319MOL0     C42970   4.032   7.967  10.970  0.9430 -0.4084 -0.1608
  319MOL0     C42971   3.889   7.929  10.967  0.5015 -0.1475 -0.2856
  319MOL0     C42972   3.794   7.991  10.856 -0.0145 -0.6847 -1.2757
  319MOL0     C42973   3.861   8.050  10.727  0.1838  0.8512  0.3464
  319MOL0    Cl42974   3.748   8.088  10.602  0.2864  0.3439 -0.6698
  319MOL0     C42975   3.808   8.651  10.927  0.8501 -0.3667  0.2150
  319MOL0     C42976   3.806   8.750  10.822  0.6392  0.2194 -0.7166
  319MOL0     O42977   3.834   8.695  10.523 -0.0291 -0.3472  0.7173
  319MOL0     C42978   3.773   8.862  10.291 -0.0852  0.3612  0.1434
  319MOL0     C42979   3.753   8.949  10.186 -0.3263 -0.4857 -0.2846
  319MOL0     N42980   3.636   9.585  10.183  0.0647 -1.1586 -0.6122
  319MOL0     N42981   3.564   9.696  10.193  0.3129 -0.6225  0.4163
  319MOL0     C42982   3.551  10.857   9.715 -0.1150 -0.4521 -0.7494
  319MOL0     C42983   3.676  10.914   9.683  1.0210 -0.2372 -0.2206
  319MOL0     C42984   4.101  11.011   9.649  0.6174  0.3332 -0.3683
  319MOL0     C42985   4.113  11.075   9.522 -0.2440 -0.5158 -0.0896
  319MOL0     C42986   4.212  11.180   9.501  0.2762  0.8033  0.8400
  319MOL0     C42987   4.306  11.210   9.601  0.9669  0.7318  0.7444
  319MOL0     O42988   4.412  11.291   9.581  0.0747 -0.8871 -0.2303
  319MOL0     C42989   4.377  11.431   9.619 -0.8487 -0.3027 -0.0716
  319MOL0     C42990   4.504  11.515   9.656 -0.0999 -0.4166  0.5479
  319MOL0     C42991   4.632  11.517   9.569  0.4133  0.5612  0.1330
  319MOL0     C42992   4.614  11.598   9.433 -0.0911 -0.4557  0.5288
  319MOL0     C42993   4.520  11.533   9.349  0.3223 -0.1190  0.1231
  319MOL0     C42994   4.434  11.472   9.283 -0.3081 -0.9375 -0.9870
  319MOL0     C42995   4.287  11.158   9.725  0.7654 -0.9392  0.0075
  319MOL0     C42996   4.194  11.054   9.745 -0.1500 -0.7301  0.6483
  319MOL0     C42997   4.192  10.998   9.886 -0.2835 -0.3085  0.2896
  319MOL0     H42998   3.784  10.693   9.439 -0.1309 -1.4106 -0.5508
  319MOL0     H42999   3.572  10.588   9.495 -1.5295  0.6370 -0.3728
  319MOL0     H43000   3.501  10.605   9.831  0.1480 -0.7787  3.0324
  319MOL0     H43001   3.338  10.637   9.884 -0.3835 -2.7452  0.1449
  319MOL0     H43002   3.387  10.432   9.673 -2.2320  0.5836 -1.5872
  319MOL0     H43003   3.236  10.448   9.767 -0.9204  1.0774  0.8562
  319MOL0     H43004   3.331  10.396   9.973  3.9641 -0.7014  2.6899
  319MOL0     H43005   3.495  10.357   9.905 -0.5842 -2.0237  0.8289
  319MOL0     H43006   3.230  10.243   9.825  0.1205  1.8473 -1.4588
  319MOL0     H43007   3.387  10.195   9.767 -2.1637  0.5537 -2.3213
  319MOL0     H43008   3.461  10.120   9.992  0.3241  0.4657 -0.7801
  319MOL0     H43009   3.300  10.158  10.059 -1.3390 -0.9114 -0.5449
  319MOL0     H43010   3.194  10.015   9.911  0.5212  1.8289  3.2731
  319MOL0     H43011   3.334   9.983   9.808 -1.5317  0.6969 -0.6637
  319MOL0     H43012   3.312   9.789   9.946 -1.6417  1.5225 -2.3592
  319MOL0     H43013   3.297   9.891  10.090 -1.4373  2.4240 -1.9127
  319MOL0     H43014   3.564   9.881   9.942  0.8028  1.0769  0.4389
  319MOL0     H43015   3.518   9.937  10.102  0.4256 -0.7635  0.3347
  319MOL0     H43016   3.550   9.629   9.864 -0.8030 -2.5802  0.5576
  319MOL0     H43017   3.647   9.342  10.032 -3.8124  2.6394  3.1894
  319MOL0     H43018   3.596   9.409   9.896  0.8138  2.2191 -0.5443
  319MOL0     H43019   3.823   9.503   9.830 -0.1909  0.8655  0.3289
  319MOL0     H43020   3.875   9.482   9.995  2.4303 -1.5926 -1.1164
  319MOL0     H43021   3.970   9.309   9.841  0.2057  0.8194  2.6561
  319MOL0     H43022   3.804   9.260   9.813  3.5320 -3.7073 -1.4507
  319MOL0     H43023   3.965   9.245  10.077  0.4790  0.2919 -1.2961
  319MOL0     H43024   3.940   9.108   9.967 -0.0220 -0.3619 -0.0813
  319MOL0     H43025   3.881   9.235  10.339 -0.8486 -0.3710  0.0685
  319MOL0     H43026   3.912   9.090  10.512  0.5287  1.4655 -0.3715
  319MOL0     H43027   4.138   8.793  10.765  0.7533 -3.2102 -0.2754
  319MOL0     H43028   4.154   8.637  10.949  0.0401  1.2285  0.6753
  319MOL0     H43029   4.071   8.372  10.972  2.3869 -0.9223  0.6743
  319MOL0     H43030   4.156   8.477  11.089  1.4653 -0.9309 -1.2784
  319MOL0     H43031   4.146   8.269  11.198  0.9659  0.5774 -0.8182
  319MOL0     H43032   3.996   8.342  11.262 -0.8715 -0.6596 -0.4955
  319MOL0     H43033   3.979   8.104  11.207 -2.2276 -2.6988 -1.9479
  319MOL0     H43034   3.867   8.190  11.102  0.0403 -0.8086 -1.4890
  319MOL0     H43035   4.158   8.107  11.054  0.2812  0.2047 -2.7613
  319MOL0     H43036   4.040   8.170  10.929 -2.1843 -1.2850 -0.6340
  319MOL0     H43037   4.084   7.896  11.035  3.9869  1.0202 -0.8579
  319MOL0     H43038   4.084   7.954  10.875 -1.2590 -2.4170 -1.1989
  319MOL0     H43039   3.886   7.820  10.959 -3.1281 -0.2804  0.8574
  319MOL0     H43040   3.842   7.946  11.064  0.6561  0.7817 -0.3673
  319MOL0     H43041   3.743   8.070  10.911 -1.3004 -2.2240 -0.1744
  319MOL0     H43042   3.722   7.913  10.828 -1.7783  0.2051  0.5636
  319MOL0     H43043   3.910   8.145  10.751  0.9581  0.2886  1.0420
  319MOL0     H43044   3.935   7.976  10.695 -1.8125 -3.0609  3.8270
  319MOL0     H43045   3.711   8.633  10.974  0.2328 -1.2463 -1.3252
  319MOL0     H43046   3.716   8.800  10.788  1.7397  1.5483 -1.8104
  319MOL0     H43047   3.734   8.760  10.292  0.1532  0.2642 -0.0726
  319MOL0     H43048   3.692   8.913  10.103  0.2139  1.3466 -1.5364
  319MOL0     H43049   3.493  10.900   9.795  1.4872 -3.5392  2.3374
  319MOL0     H43050   3.708  10.997   9.745 -1.4048 -0.4403  1.4720
  319MOL0     H43051   4.045  11.071   9.437 -1.9408  0.7672  1.1492
  319MOL0     H43052   4.219  11.230   9.405  1.4857 -1.5191 -0.3723
  319MOL0     H43053   4.306  11.437   9.702 -2.7128 -0.9340 -1.5565
  319MOL0     H43054   4.328  11.478   9.534 -0.4562  0.3173  0.0363
  319MOL0     H43055   4.536  11.474   9.753  2.7576  0.2073 -0.0585
  319MOL0     H43056   4.483  11.621   9.677  0.6420 -0.7803  3.6569
  319MOL0     H43057   4.673  11.416   9.559 -0.3889 -0.2064  3.4474
  319MOL0     H43058   4.711  11.568   9.625  2.1911  0.4409 -2.1043
  319MOL0     H43059   4.574  11.696   9.460  0.3437 -0.6023  1.7836
  319MOL0     H43060   4.706  11.609   9.376  0.4045 -1.3351  1.1240
  319MOL0     H43061   4.350  11.420   9.240  0.8955 -2.5380 -1.4867
  319MOL0     H43062   4.353  11.197   9.802  0.4302 -0.5984  0.1271
  319MOL0     H43063   4.236  10.897   9.880  0.3469 -0.1814  2.2545
  319MOL0     H43064   4.250  11.055   9.959  0.7713  1.3685 -1.7449
  319MOL0     H43065   4.096  10.981   9.935 -2.1024  4.3010 -1.2058
  320MOL0     O43066   1.942   3.150   6.340 -0.1148 -0.6887 -0.1687
  320MOL0     C43067   2.015   3.112   6.431  0.5462  1.2787 -0.2861
  320MOL0     O43068   1.979   3.091   6.564  0.5306  0.8142 -0.8339
  320MOL0     C43069   1.844   3.095   6.608 -0.2752 -0.4780  0.1680
  320MOL0     C43070   1.738   3.057   6.532 -1.0570 -0.1281 -0.1922
  320MOL0     C43071   1.611   3.051   6.593 -0.4886 -0.2178  0.3282
  320MOL0     C43072   1.590   3.106   6.725 -0.7756 -0.4201 -0.0704
  320MOL0     O43073   1.473   3.129   6.790 -0.1871 -0.3332  0.2871
  320MOL0     C43074   1.356   3.123   6.709  0.5303  0.8962  0.3255
  320MOL0     C43075   1.239   3.204   6.767 -0.7406 -0.4189 -0.8957
  320MOL0     C43076   1.198   3.170   6.908  0.1182 -0.2622 -0.0394
  320MOL0     C43077   1.203   3.274   7.031  0.3604 -0.6248  0.3087
  320MOL0     C43078   1.151   3.406   6.989 -0.2591 -0.4857  0.6860
  320MOL0     C43079   1.186   3.520   7.089 -0.0626 -0.5598 -0.6805
  320MOL0     C43080   1.329   3.575   7.077  0.3009  0.5305 -0.0856
  320MOL0     C43081   1.340   3.697   7.168 -0.0308 -0.4719 -0.4567
  320MOL0     N43082   1.479   3.756   7.155 -0.3935  0.9472  0.1577
  320MOL0     C43083   1.563   3.746   7.042  0.6225 -0.0590  0.4116
  320MOL0     C43084   1.663   3.821   7.087  0.8736 -1.6408 -0.2948
  320MOL0     C43085   1.769   3.881   7.003 -0.3669 -0.4966 -0.3664
  320MOL0     C43086   1.740   3.987   6.891 -0.4905  0.1942  0.2583
  320MOL0     C43087   1.779   4.129   6.929 -0.6402 -0.5608  0.2472
  320MOL0     C43088   1.929   4.150   6.921 -0.4099  0.3723 -0.2340
  320MOL0     O43089   1.950   4.285   6.969 -0.1457 -0.5388 -0.3989
  320MOL0     C43090   2.059   4.352   6.928 -0.1213  0.6478 -0.1924
  320MOL0     C43091   2.162   4.289   6.853  0.2097 -0.5808  0.5535
  320MOL0     C43092   2.277   4.359   6.841 -0.0761 -0.3776 -0.1752
  320MOL0     C43093   2.298   4.496   6.880  0.3657  0.3050 -0.2463
  320MOL0     C43094   2.423   4.579   6.860  0.0875 -0.6316  0.4519
  320MOL0     O43095   2.430   4.704   6.912 -0.1669 -0.4012 -0.8524
  320MOL0     C43096   2.548   4.774   6.916  0.4456 -0.8427 -0.6171
  320MOL0     C43097   2.662   4.710   6.978 -0.0024  0.2091 -0.0422
  320MOL0     C43098   2.784   4.781   6.978  0.6835 -0.7329 -0.3481
  320MOL0     C43099   2.799   4.912   6.931  0.2961 -0.3941  0.0270
  320MOL0     O43100   2.915   4.986   6.933  0.0568 -0.0365  0.3891
  320MOL0     C43101   3.030   4.914   6.875  0.8331 -0.3238 -0.1171
  320MOL0     C43102   3.129   5.001   6.791 -0.7935  0.0523 -1.4519
  320MOL0     C43103   3.206   5.109   6.878 -0.2682  0.4662 -0.4787
  320MOL0     C43104   3.337   5.173   6.827 -0.0005  0.2581 -0.3811
  320MOL0     C43105   3.399   5.277   6.924 -1.1148  0.3075  0.1074
  320MOL0     C43106   3.530   5.327   6.873 -0.5504  0.1271  0.0395
  320MOL0     C43107   3.516   5.403   6.736 -0.6941  0.2410 -0.0916
  320MOL0     C43108   3.626   5.506   6.733 -0.3163  0.6496  0.5287
  320MOL0    Cl43109   3.581   5.598   6.587  0.1848  0.1621  0.5931
  320MOL0     C43110   2.683   4.976   6.893 -0.6290  0.6304  0.1832
  320MOL0     C43111   2.556   4.909   6.876  1.1015  0.0907 -0.5355
  320MOL0     O43112   2.509   4.530   6.785  0.3576  0.0119 -0.2414
  320MOL0     C43113   2.187   4.560   6.946  0.5732  0.0693  0.3962
  320MOL0     C43114   2.064   4.490   6.958  0.2552 -0.2574  0.1377
  320MOL0     N43115   1.652   3.856   7.216  0.1009 -0.3411  0.6478
  320MOL0     N43116   1.548   3.810   7.260 -0.4724  0.1239  1.1069
  320MOL0     C43117   1.702   3.148   6.793  0.5352  0.2927  0.6309
  320MOL0     C43118   1.829   3.138   6.738 -0.4188 -0.2892 -0.2737
  320MOL0     C43119   2.153   3.082   6.401  0.0251  0.0167 -0.1554
  320MOL0     C43120   2.192   3.029   6.272 -0.1335  0.3017  0.4212
  320MOL0     C43121   2.325   2.995   6.240  0.3092 -0.5823  0.7581
  320MOL0     C43122   2.426   3.008   6.332 -0.2523  0.7362  0.3958
  320MOL0     O43123   2.561   2.975   6.323 -0.5862 -0.2356  0.0222
  320MOL0     C43124   2.613   2.895   6.209 -0.5214  0.6726  0.6335
  320MOL0     C43125   2.580   2.748   6.215  0.7949  0.5646 -1.2546
  320MOL0     C43126   2.584   2.685   6.344 -0.1235 -0.3492 -0.9401
  320MOL0     C43127   2.570   2.529   6.358  0.3537  0.7978  0.2063
  320MOL0     C43128   2.625   2.479   6.487 -0.0659  0.1935  0.2701
  320MOL0     C43129   2.670   2.425   6.586 -0.3724  0.3556  0.4042
  320MOL0     C43130   2.395   3.069   6.455  0.0147  1.0049 -0.1950
  320MOL0     C43131   2.262   3.096   6.490  0.8724 -0.1281  0.6299
  320MOL0     C43132   2.240   3.170   6.624 -0.2601  0.4671 -0.3095
  320MOL0     H43133   1.749   3.030   6.427  0.1240 -1.2521  0.1940
  320MOL0     H43134   1.525   3.023   6.534 -0.7738  1.1139  0.0674
  320MOL0     H43135   1.381   3.170   6.613  1.4306  0.9265  0.5761
  320MOL0     H43136   1.330   3.018   6.691  2.0924 -0.1658  3.6463
  320MOL0     H43137   1.148   3.212   6.707 -0.9558  1.3582 -0.4012
  320MOL0     H43138   1.284   3.303   6.782 -2.1527 -0.1960  3.1165
  320MOL0     H43139   1.265   3.090   6.941  3.1148  3.3914  3.9438
  320MOL0     H43140   1.093   3.142   6.894 -0.8917  3.5484 -1.2201
  320MOL0     H43141   1.139   3.246   7.115  0.1160 -2.3973 -0.4166
  320MOL0     H43142   1.302   3.272   7.076  0.1475 -0.5061  0.7978
  320MOL0     H43143   1.196   3.437   6.894  2.1243  1.0703  2.2293
  320MOL0     H43144   1.044   3.398   6.972 -0.0675  1.0332 -1.7900
  320MOL0     H43145   1.117   3.604   7.079 -2.2515 -2.0862  0.8600
  320MOL0     H43146   1.166   3.487   7.191  0.8960  0.3537 -0.1828
  320MOL0     H43147   1.351   3.594   6.971  0.4906 -1.4275 -0.4365
  320MOL0     H43148   1.404   3.503   7.111  1.7227  1.6445 -0.7081
  320MOL0     H43149   1.268   3.779   7.158 -1.3566 -1.6858 -1.3037
  320MOL0     H43150   1.336   3.669   7.273 -0.6526  1.9678  0.2357
  320MOL0     H43151   1.555   3.706   6.942 -0.7512 -1.7163  1.1273
  320MOL0     H43152   1.842   3.914   7.078 -0.0850  0.3485 -0.9905
  320MOL0     H43153   1.814   3.795   6.953  1.4531  0.8108 -1.1142
  320MOL0     H43154   1.789   3.960   6.797 -0.3041 -0.2077  0.4697
  320MOL0     H43155   1.631   3.990   6.891 -0.5353  0.4958 -2.0688
  320MOL0     H43156   1.735   4.158   7.024  1.1640  2.4294  0.2809
  320MOL0     H43157   1.725   4.192   6.858 -1.0354  1.4366  2.2227
  320MOL0     H43158   1.943   4.125   6.816  0.6351 -3.6529  0.6823
  320MOL0     H43159   1.970   4.076   6.991 -0.7447  0.6703  0.2814
  320MOL0     H43160   2.158   4.185   6.821 -0.4257  0.0181 -1.4703
  320MOL0     H43161   2.361   4.321   6.784  2.0121  1.4631  1.4654
  320MOL0     H43162   2.677   4.606   7.003  0.8695 -0.2289 -2.1457
  320MOL0     H43163   2.864   4.721   7.021 -0.2949 -1.2704  0.7908
  320MOL0     H43164   3.084   4.872   6.961 -0.9519  0.3898  1.4213
  320MOL0     H43165   3.001   4.826   6.817 -0.1144 -0.4584  0.5435
  320MOL0     H43166   3.206   4.935   6.749  0.7691 -0.3723  1.7674
  320MOL0     H43167   3.054   5.051   6.729 -3.1304 -2.6549 -1.0336
  320MOL0     H43168   3.129   5.185   6.899  0.2974  1.6221 -2.3328
  320MOL0     H43169   3.224   5.078   6.982 -2.6751  0.6743  0.0758
  320MOL0     H43170   3.312   5.225   6.734 -1.5018  1.3421  0.5857
  320MOL0     H43171   3.398   5.086   6.802 -2.5248 -1.3517 -1.4192
  320MOL0     H43172   3.405   5.241   7.027 -1.3420  0.3500  0.1364
  320MOL0     H43173   3.329   5.361   6.931 -1.2963  0.1956 -0.3253
  320MOL0     H43174   3.561   5.401   6.948  2.1478  3.6535 -4.0806
  320MOL0     H43175   3.598   5.242   6.861 -0.1668  0.8113 -3.4317
  320MOL0     H43176   3.419   5.453   6.744 -0.7617  0.0367  0.4170
  320MOL0     H43177   3.518   5.335   6.651 -0.7992  1.3539 -1.0029
  320MOL0     H43178   3.615   5.560   6.828 -0.7995 -1.6468  1.8634
  320MOL0     H43179   3.720   5.453   6.713 -0.4823  1.1516 -1.8818
  320MOL0     H43180   2.704   5.079   6.866 -0.4436  0.4406 -0.4219
  320MOL0     H43181   2.468   4.963   6.843 -1.4580 -2.0704  2.1004
  320MOL0     H43182   2.181   4.662   6.982  1.0107  0.3865 -0.4310
  320MOL0     H43183   1.985   4.538   7.016  1.3133  1.5352  0.1718
  320MOL0     H43184   1.681   3.185   6.892  2.1824 -1.7416  1.8365
  320MOL0     H43185   1.912   3.168   6.801  0.8014  2.7605 -3.0458
  320MOL0     H43186   2.127   3.019   6.186 -0.8269 -0.8427  1.0565
  320MOL0     H43187   2.344   2.971   6.136 -1.2139  0.8896  0.0866
  320MOL0     H43188   2.721   2.909   6.211 -0.3828 -0.1612 -0.2552
  320MOL0     H43189   2.589   2.927   6.107  4.2665  0.7108 -0.7118
  320MOL0     H43190   2.646   2.689   6.150 -1.4036 -0.3941 -2.7391
  320MOL0     H43191   2.479   2.741   6.174  0.0532 -1.2055  0.6750
  320MOL0     H43192   2.513   2.732   6.412 -0.1031  0.8969 -1.7549
  320MOL0     H43193   2.681   2.715   6.385 -1.5259  2.4351  0.6352
  320MOL0     H43194   2.464   2.504   6.345  0.8526  0.1270 -3.9341
  320MOL0     H43195   2.630   2.475   6.285 -1.4408 -0.5378 -0.3396
  320MOL0     H43196   2.732   2.398   6.669 -4.0351 -1.0043  2.9553
  320MOL0     H43197   2.466   3.096   6.532 -0.8543 -1.4907  1.6271
  320MOL0     H43198   2.330   3.231   6.631 -0.8130  1.1698  1.0149
  320MOL0     H43199   2.151   3.233   6.614  0.2961  1.2632 -0.2334
  320MOL0     H43200   2.225   3.094   6.701  1.4663 -0.6627 -1.0107
  321MOL0     O43201   6.952   7.418   1.125 -0.0458 -0.1557  0.4981
  321MOL0     C43202   6.973   7.527   1.073  0.1142  0.0531 -0.6008
  321MOL0     O43203   7.085   7.562   0.996 -0.0303 -0.4818  0.3564
  321MOL0     C43204   7.190   7.477   0.997  0.8404  0.4319 -0.4285
  321MOL0     C43205   7.290   7.479   1.098  0.2222 -0.2133 -0.4952
  321MOL0     C43206   7.402   7.391   1.095  0.2636 -0.3352  1.0397
  321MOL0     C43207   7.414   7.298   0.989  0.1113  0.0023  0.3382
  321MOL0     O43208   7.516   7.212   0.986  0.2507  0.6025  0.0012
  321MOL0     C43209   7.561   7.186   0.858  0.6551  0.5300 -0.1492
  321MOL0     C43210   7.702   7.123   0.879  0.2289 -0.7258 -0.2873
  321MOL0     C43211   7.796   7.217   0.958  0.2087  1.2108 -0.4890
  321MOL0     C43212   7.808   7.349   0.880 -0.2715 -0.0311  0.6204
  321MOL0     C43213   7.937   7.417   0.916 -0.1034 -0.2135  0.4778
  321MOL0     C43214   8.069   7.338   0.889  0.1534 -0.3023  0.5509
  321MOL0     C43215   8.201   7.424   0.870 -0.1470 -0.7484 -0.5092
  321MOL0     C43216   8.266   7.494   0.994  0.4616  0.1133 -1.0261
  321MOL0     N43217   8.356   7.406   1.081  0.3909 -0.3293  0.0023
  321MOL0     C43218   8.304   7.307   1.159 -0.1431 -0.3436  0.4559
  321MOL0     C43219   8.405   7.230   1.201  0.7956  0.2950  0.2200
  321MOL0     C43220   8.396   7.116   1.300  0.5923 -0.0934  0.7298
  321MOL0     C43221   8.428   7.182   1.434  0.1065  0.1762  0.2421
  321MOL0     C43222   8.441   7.066   1.542 -0.6203  0.3394  0.0754
  321MOL0     C43223   8.455   7.123   1.679  0.6317 -0.1097 -0.3007
  321MOL0     O43224   8.417   7.026   1.781  0.0493 -0.1210 -0.0383
  321MOL0     C43225   8.529   6.964   1.837  0.2782  0.3534  0.5064
  321MOL0     C43226   8.503   6.873   1.937 -0.0691 -1.0566  1.5171
  321MOL0     C43227   8.596   6.773   1.980 -0.5855  0.1669 -0.9852
  321MOL0     C43228   8.728   6.795   1.946 -0.5795  0.1055  0.6096
  321MOL0     C43229   8.833   6.688   1.970  1.3158  0.3951 -0.2438
  321MOL0     O43230   8.816   6.587   2.052 -0.3772  0.1574 -0.2193
  321MOL0     C43231   8.921   6.497   2.062  0.7078 -0.5411  0.8242
  321MOL0     C43232   8.951   6.404   1.963 -0.9817  0.3115 -0.5211
  321MOL0     C43233   9.061   6.316   1.980  0.5671 -0.5096 -0.0441
  321MOL0     C43234   9.127   6.311   2.101  0.3194 -0.4265  1.1918
  321MOL0     O43235   9.245   6.240   2.124  0.3340 -0.3994 -0.7375
  321MOL0     C43236   9.328   6.252   2.012  0.8442 -0.8088 -0.3786
  321MOL0     C43237   9.478   6.248   2.050  0.2891 -0.5601  0.2440
  321MOL0     C43238   9.526   6.370   2.127  0.3218  0.1203 -0.6970
  321MOL0     C43239   9.524   6.345   2.280  0.2522 -0.2508  0.1786
  321MOL0     C43240   9.547   6.476   2.363 -0.2962 -0.5786 -0.1964
  321MOL0     C43241   9.414   6.542   2.410  0.1006  0.1007 -0.3030
  321MOL0     C43242   9.360   6.612   2.290 -1.5270  0.0014  0.7657
  321MOL0     C43243   9.242   6.699   2.330 -0.1168 -0.2393 -0.6536
  321MOL0    Cl43244   9.171   6.784   2.186  0.0289  0.3518 -0.3027
  321MOL0     C43245   9.075   6.389   2.208  0.1282 -0.0484  0.3498
  321MOL0     C43246   8.973   6.478   2.184 -0.0816  0.3722 -0.1583
  321MOL0     O43247   8.937   6.703   1.899  0.7532  0.3152 -1.2636
  321MOL0     C43248   8.760   6.903   1.861  0.0306  0.6178 -0.0243
  321MOL0     C43249   8.663   6.978   1.801  0.6894  0.3251 -0.3219
  321MOL0     N43250   8.520   7.281   1.149 -0.2991  0.5100  0.5648
  321MOL0     N43251   8.487   7.379   1.067 -0.3678 -0.1572  0.5610
  321MOL0     C43252   7.311   7.292   0.893  1.1058  0.2489 -0.4687
  321MOL0     C43253   7.199   7.382   0.898  0.1919 -1.1176 -0.9097
  321MOL0     C43254   6.871   7.635   1.084  0.6705  0.4172 -0.0983
  321MOL0     C43255   6.912   7.772   1.075 -0.6605 -1.2134  0.1467
  321MOL0     C43256   6.823   7.872   1.090 -0.7953 -0.1090  0.2406
  321MOL0     C43257   6.691   7.840   1.124  0.5104 -1.2076 -0.4520
  321MOL0     O43258   6.618   7.957   1.130 -0.1528  0.2080 -0.3433
  321MOL0     C43259   6.478   7.965   1.130 -0.3474 -0.6897  0.0020
  321MOL0     C43260   6.423   8.061   1.238 -0.7525  0.2110  0.4400
  321MOL0     C43261   6.472   8.057   1.380  0.1311 -0.3146  0.1044
  321MOL0     C43262   6.436   7.927   1.460 -0.8016  0.1990  1.0275
  321MOL0     C43263   6.372   7.941   1.592 -0.1253 -0.2174 -0.4298
  321MOL0     C43264   6.324   7.963   1.699  0.5992 -0.0884 -0.0704
  321MOL0     C43265   6.644   7.712   1.132  0.0339 -0.0689  0.2411
  321MOL0     C43266   6.737   7.611   1.117  1.4009  0.2969  1.4054
  321MOL0     C43267   6.679   7.468   1.137  0.4581  0.0009  0.3014
  321MOL0     H43268   7.274   7.555   1.174 -0.0276  0.8257 -1.5617
  321MOL0     H43269   7.481   7.406   1.167 -0.6446  3.8897  1.3680
  321MOL0     H43270   7.496   7.115   0.805  1.1584 -1.2947  1.5678
  321MOL0     H43271   7.565   7.282   0.806 -0.8916 -0.0024 -1.3352
  321MOL0     H43272   7.757   7.106   0.786  2.2568  1.4106  0.4180
  321MOL0     H43273   7.692   7.028   0.932  0.2617 -1.1394 -1.0138
  321MOL0     H43274   7.890   7.161   0.967  0.6226  2.2093  2.2045
  321MOL0     H43275   7.774   7.235   1.063  1.0486  1.2260 -0.3083
  321MOL0     H43276   7.811   7.348   0.771  4.5318 -0.6710  0.5476
  321MOL0     H43277   7.732   7.422   0.907 -1.8577 -1.9700  1.6321
  321MOL0     H43278   7.947   7.514   0.866  0.0307 -0.4335  0.0770
  321MOL0     H43279   7.935   7.446   1.022 -1.1346  2.2327 -0.1252
  321MOL0     H43280   8.077   7.253   0.957 -0.8934 -1.4203 -0.6501
  321MOL0     H43281   8.064   7.285   0.793  3.2166 -0.2263  0.2342
  321MOL0     H43282   8.176   7.505   0.800 -0.8874  0.3060  0.9078
  321MOL0     H43283   8.280   7.356   0.838 -1.4270 -3.6104  1.9572
  321MOL0     H43284   8.327   7.581   0.968  3.3119 -0.2156  3.3983
  321MOL0     H43285   8.184   7.528   1.058  0.7093  1.9957 -1.6348
  321MOL0     H43286   8.206   7.278   1.195  0.1857 -0.9536  0.8884
  321MOL0     H43287   8.293   7.080   1.304  0.6883 -0.9791 -2.4593
  321MOL0     H43288   8.453   7.029   1.266 -1.6604 -1.5052  0.3571
  321MOL0     H43289   8.524   7.234   1.427  0.1389  0.0202 -0.6680
  321MOL0     H43290   8.347   7.248   1.465 -0.0942 -0.2146  0.5648
  321MOL0     H43291   8.532   7.006   1.528 -0.9998 -0.1446 -0.3687
  321MOL0     H43292   8.344   7.015   1.534 -1.6134  2.2433 -0.4180
  321MOL0     H43293   8.390   7.209   1.700 -0.7823 -1.5218  1.5662
  321MOL0     H43294   8.554   7.169   1.688  1.6616 -2.0443 -1.2024
  321MOL0     H43295   8.403   6.877   1.979 -0.8988 -1.9899 -0.2295
  321MOL0     H43296   8.556   6.699   2.048  0.6222  1.5305  1.3296
  321MOL0     H43297   8.913   6.425   1.864  1.7083 -1.2153 -2.0123
  321MOL0     H43298   9.104   6.256   1.899 -0.7634  0.9454 -1.9140
  321MOL0     H43299   9.316   6.159   1.957  2.2419 -1.7795  0.8608
  321MOL0     H43300   9.313   6.344   1.955  2.8137  0.2535  0.6797
  321MOL0     H43301   9.479   6.157   2.112 -3.6808 -2.6473 -2.3260
  321MOL0     H43302   9.554   6.226   1.974  1.7433  0.6806  1.2733
  321MOL0     H43303   9.627   6.396   2.093 -0.1204  2.2713 -0.4939
  321MOL0     H43304   9.467   6.457   2.096 -1.4766 -0.2924  1.3238
  321MOL0     H43305   9.616   6.290   2.302 -0.3971 -1.7049 -0.5985
  321MOL0     H43306   9.439   6.288   2.317  2.3036 -2.7509  1.3823
  321MOL0     H43307   9.616   6.547   2.317 -1.3430  0.8722  0.3953
  321MOL0     H43308   9.597   6.450   2.457 -1.8640  0.3610  0.9553
  321MOL0     H43309   9.336   6.473   2.443 -1.9298  1.1455 -2.5747
  321MOL0     H43310   9.446   6.606   2.492  0.9484  1.1695 -1.4393
  321MOL0     H43311   9.334   6.538   2.213 -1.5446  0.4732  0.3117
  321MOL0     H43312   9.443   6.677   2.259 -1.2324 -0.6009  0.2750
  321MOL0     H43313   9.172   6.635   2.387 -0.6223  0.3298 -0.6258
  321MOL0     H43314   9.261   6.780   2.401 -1.6412  0.3875 -0.9231
  321MOL0     H43315   9.134   6.390   2.300  0.2298 -1.7458  0.3300
  321MOL0     H43316   8.927   6.544   2.257 -2.1005 -0.7789 -0.3120
  321MOL0     H43317   8.863   6.919   1.830 -0.2799 -0.8229 -2.0453
  321MOL0     H43318   8.700   7.045   1.725  1.8701 -2.7191 -2.6616
  321MOL0     H43319   7.300   7.223   0.809 -1.5388 -0.4166  0.3129
  321MOL0     H43320   7.117   7.371   0.828  0.4082 -4.8173 -0.7617
  321MOL0     H43321   7.012   7.794   1.039 -2.3711  1.9288 -3.2490
  321MOL0     H43322   6.856   7.971   1.062  0.6231 -1.1629 -2.1454
  321MOL0     H43323   6.438   7.867   1.156  1.9008 -1.6694  0.0619
  321MOL0     H43324   6.439   7.988   1.031  3.7261  1.0755 -1.3988
  321MOL0     H43325   6.313   8.058   1.239 -0.8145  1.6351  0.3982
  321MOL0     H43326   6.437   8.163   1.200 -0.0874  0.2553  0.7962
  321MOL0     H43327   6.428   8.147   1.424  1.5313  2.8718 -4.2858
  321MOL0     H43328   6.579   8.079   1.380  0.2991 -0.8685 -1.9498
  321MOL0     H43329   6.374   7.861   1.399 -2.1406 -0.3166  2.8639
  321MOL0     H43330   6.535   7.881   1.472 -0.6612 -0.4134 -1.7332
  321MOL0     H43331   6.282   7.982   1.796 -1.9998 -0.0101 -1.1277
  321MOL0     H43332   6.545   7.681   1.163  0.0033 -2.7727 -2.0620
  321MOL0     H43333   6.733   7.415   1.216  0.5491  1.2272  1.0989
  321MOL0     H43334   6.573   7.478   1.161  0.1786 -0.3443 -0.7676
  321MOL0     H43335   6.685   7.414   1.043  0.2640  0.4291  0.0390
  322MOL0     O43336   1.851   0.776   4.194 -0.0906  0.3299  0.9138
  322MOL0     C43337   1.843   0.668   4.252  0.6680 -0.3294  0.8684
  322MOL0     O43338   1.771   0.569   4.198  0.6473  0.7080 -0.4559
  322MOL0     C43339   1.720   0.580   4.067  0.0403  0.9436  0.3161
  322MOL0     C43340   1.597   0.646   4.040 -0.2349 -0.6491 -0.6611
  322MOL0     C43341   1.548   0.656   3.900 -0.3839 -0.2021 -1.0713
  322MOL0     C43342   1.620   0.596   3.801 -0.2298  0.3884 -0.0482
  322MOL0     O43343   1.570   0.581   3.673 -0.6608 -0.3927  0.6185
  322MOL0     C43344   1.480   0.677   3.617  0.0476  0.0570  0.1891
  322MOL0     C43345   1.466   0.638   3.475 -0.4146 -0.7313 -0.4817
  322MOL0     C43346   1.348   0.539   3.456  0.0720 -0.0614 -0.2713
  322MOL0     C43347   1.353   0.478   3.314  0.8487  0.3338 -0.9365
  322MOL0     C43348   1.283   0.576   3.229 -0.2768 -0.1026  0.0359
  322MOL0     C43349   1.279   0.505   3.095  0.4644 -0.0175 -1.5662
  322MOL0     C43350   1.205   0.590   2.995  0.3126  0.2276  1.1900
  322MOL0     C43351   1.180   0.538   2.854 -0.6012  0.8254 -0.8706
  322MOL0     N43352   1.112   0.414   2.839 -0.7078 -0.1956  0.1584
  322MOL0     C43353   0.997   0.385   2.911  0.2215  0.5906 -0.3135
  322MOL0     C43354   0.958   0.261   2.863  0.5986 -0.1717 -0.1667
  322MOL0     C43355   0.831   0.181   2.886  1.0484 -0.6237  0.5962
  322MOL0     C43356   0.710   0.247   2.944  0.6624  0.1134 -0.1337
  322MOL0     C43357   0.604   0.153   3.009 -0.3912  0.4399  1.1024
  322MOL0     C43358   0.467   0.214   3.045 -0.1884 -0.5135  0.2606
  322MOL0     O43359   0.458   0.325   3.142  0.7309 -1.5197 -0.7742
  322MOL0     C43360   0.483   0.288   3.276  0.6528 -0.1426  0.9102
  322MOL0     C43361   0.468   0.156   3.330 -0.2539  0.8147 -0.0113
  322MOL0     C43362   0.469   0.135   3.472 -0.2347  0.0851 -0.5877
  322MOL0     C43363   0.494   0.247   3.555  0.4122 -0.7209  0.2618
  322MOL0     C43364   0.498   0.236   3.702  0.0570  0.1498  0.9132
  322MOL0     O43365   0.498   0.348   3.762 -0.7298 -0.4713  0.0340
  322MOL0     C43366   0.468   0.371   3.891 -0.6653 -0.3088  0.8652
  322MOL0     C43367   0.377   0.288   3.969  0.0232 -0.2309  0.2329
  322MOL0     C43368   0.336   0.341   4.097  1.0635 -0.3906 -0.1549
  322MOL0     C43369   0.387   0.465   4.146  0.8127  0.3081  1.2908
  322MOL0     O43370   0.332   0.509   4.270  1.0274  0.5368 -0.2930
  322MOL0     C43371   0.242   0.628   4.255 -0.9773  0.7406 -0.3791
  322MOL0     C43372   0.204   0.681   4.395 -0.2238 -0.4156 -0.0199
  322MOL0     C43373   0.105   0.795   4.382  0.1761 -0.0720 -0.6785
  322MOL0     C43374   0.007   0.800   4.498  0.4301  0.6717  0.5522
  322MOL0     C43375  -0.024   0.949   4.539  0.0495 -0.3023  0.7992
  322MOL0     C43376  -0.112   0.954   4.662  0.6759 -0.2280  0.8917
  322MOL0     C43377  -0.129   1.104   4.713 -0.3306  0.4075  0.8464
  322MOL0     C43378  -0.171   1.202   4.606  1.1262 -0.5302  0.4792
  322MOL0    Cl43379  -0.320   1.141   4.520 -0.3106 -0.2302  0.2329
  322MOL0     C43380   0.493   0.530   4.078  0.1565  0.1394  0.9832
  322MOL0     C43381   0.539   0.476   3.962 -0.2463 -0.2534  0.2429
  322MOL0     O43382   0.498   0.125   3.758  0.3566 -0.5603 -0.3644
  322MOL0     C43383   0.523   0.375   3.490  0.3270  0.0917 -0.4585
  322MOL0     C43384   0.519   0.387   3.353 -0.0271 -0.0992 -0.0127
  322MOL0     N43385   1.049   0.221   2.770 -0.4744 -0.2896 -0.1804
  322MOL0     N43386   1.140   0.315   2.747  0.2165 -0.3297  0.2953
  322MOL0     C43387   1.741   0.527   3.832 -1.1664 -0.0260 -0.1797
  322MOL0     C43388   1.794   0.511   3.962  0.5910  0.6418 -0.3389
  322MOL0     C43389   1.934   0.645   4.365  0.3371 -0.3314  0.2091
  322MOL0     C43390   1.987   0.747   4.447  0.2565  0.5571 -0.6472
  322MOL0     C43391   2.075   0.717   4.553  0.2278  0.0577 -0.2175
  322MOL0     C43392   2.102   0.583   4.588 -0.7313  0.6713  0.1847
  322MOL0     O43393   2.175   0.554   4.701 -0.1290 -0.9417 -0.4207
  322MOL0     C43394   2.286   0.467   4.693  0.5088 -0.4869 -0.9817
  322MOL0     C43395   2.374   0.491   4.827  0.5853  0.1829  0.2197
  322MOL0     C43396   2.403   0.635   4.867  0.0797 -0.1210  0.3751
  322MOL0     C43397   2.530   0.675   4.776  0.3326 -0.0589  0.2123
  322MOL0     C43398   2.481   0.735   4.646  0.2464  0.2104  1.0301
  322MOL0     C43399   2.431   0.764   4.540  0.2538  1.2073  0.4378
  322MOL0     C43400   2.075   0.485   4.495  1.2029  0.3536  0.7667
  322MOL0     C43401   1.987   0.512   4.385  0.3406 -0.5541  0.5977
  322MOL0     C43402   1.947   0.397   4.301 -0.0103 -0.5932  0.1738
  322MOL0     H43403   1.546   0.684   4.128  0.9582 -1.7630  0.5484
  322MOL0     H43404   1.454   0.703   3.872 -1.1454  0.7627  2.5079
  322MOL0     H43405   1.383   0.681   3.667 -1.2879  1.6742 -2.3080
  322MOL0     H43406   1.531   0.774   3.620  1.3268 -0.5983  2.3827
  322MOL0     H43407   1.561   0.594   3.445  0.7607 -0.1633  2.1451
  322MOL0     H43408   1.440   0.732   3.427 -1.3005  0.2296  1.7362
  322MOL0     H43409   1.250   0.585   3.473  1.7700  3.2715  1.5048
  322MOL0     H43410   1.367   0.465   3.534  0.8996  0.5182  0.0793
  322MOL0     H43411   1.455   0.459   3.281  0.7484  1.3353 -1.8763
  322MOL0     H43412   1.297   0.384   3.317  4.2236 -1.8918 -1.9493
  322MOL0     H43413   1.178   0.598   3.251  0.1566  2.5684 -0.3407
  322MOL0     H43414   1.330   0.674   3.227  2.1443 -1.1848 -0.0140
  322MOL0     H43415   1.381   0.482   3.065  0.5694 -2.6246  0.3844
  322MOL0     H43416   1.228   0.409   3.114  1.0371 -0.0861 -0.2888
  322MOL0     H43417   1.247   0.691   2.989 -0.4940  0.5542  0.9551
  322MOL0     H43418   1.110   0.626   3.036  0.4154  1.9449  0.0564
  322MOL0     H43419   1.113   0.612   2.810 -3.9973 -0.7952  1.1221
  322MOL0     H43420   1.276   0.522   2.805 -0.0890  0.4522  0.2269
  322MOL0     H43421   0.944   0.449   2.980 -1.7897 -0.8387 -0.4433
  322MOL0     H43422   0.796   0.141   2.791  2.4651 -0.3901 -0.0603
  322MOL0     H43423   0.859   0.094   2.946  3.4163 -1.9161 -2.1176
  322MOL0     H43424   0.746   0.309   3.027  1.8852 -0.0986 -0.4839
  322MOL0     H43425   0.676   0.315   2.866 -3.5293 -2.0253 -0.4537
  322MOL0     H43426   0.664   0.115   3.093  1.5420 -0.5774 -0.6548
  322MOL0     H43427   0.590   0.068   2.942  0.0927  1.5106 -0.4020
  322MOL0     H43428   0.406   0.127   3.072 -0.7607 -0.3074 -0.3464
  322MOL0     H43429   0.434   0.267   2.955  0.3212  1.3135  1.0960
  322MOL0     H43430   0.460   0.067   3.268  2.7609 -1.1848  2.1819
  322MOL0     H43431   0.454   0.032   3.502 -0.6050  0.3453  0.1411
  322MOL0     H43432   0.332   0.199   3.928  1.1374 -1.6383  1.9519
  322MOL0     H43433   0.264   0.281   4.152 -0.0791 -1.1769 -2.4131
  322MOL0     H43434   0.311   0.698   4.208 -0.1104  0.4683  0.4499
  322MOL0     H43435   0.153   0.602   4.197  0.0491 -1.0937 -1.2287
  322MOL0     H43436   0.170   0.601   4.461  0.4001 -0.5402  0.1553
  322MOL0     H43437   0.299   0.722   4.430  1.0440 -2.8655 -0.3179
  322MOL0     H43438   0.169   0.883   4.395  4.6584 -2.7161 -2.4628
  322MOL0     H43439   0.050   0.807   4.289 -1.5690  0.6041  0.3907
  322MOL0     H43440   0.045   0.752   4.588 -0.2431 -0.0367  0.4709
  322MOL0     H43441  -0.085   0.749   4.466 -0.0591  1.4980  0.6029
  322MOL0     H43442  -0.074   1.001   4.457  2.0449 -1.6684 -1.4544
  322MOL0     H43443   0.067   1.004   4.565 -1.2505 -0.2342  6.3507
  322MOL0     H43444  -0.201   0.895   4.638  1.7752 -2.6762  2.4848
  322MOL0     H43445  -0.075   0.895   4.746 -2.8442 -3.1453  0.6747
  322MOL0     H43446  -0.030   1.139   4.740  0.0845 -0.1769  0.1164
  322MOL0     H43447  -0.200   1.111   4.796 -2.6708  3.7920 -1.1653
  322MOL0     H43448  -0.198   1.301   4.645 -3.3710 -1.0652 -0.7555
  322MOL0     H43449  -0.105   1.213   4.520 -3.7932  0.8426 -3.6426
  322MOL0     H43450   0.525   0.617   4.134 -2.6191  2.1107 -0.2099
  322MOL0     H43451   0.622   0.524   3.910  2.1000 -0.0009  3.8365
  322MOL0     H43452   0.554   0.462   3.546 -0.7913 -0.6047  1.3216
  322MOL0     H43453   0.539   0.483   3.305  0.8300  1.6911  3.6035
  322MOL0     H43454   1.803   0.497   3.748 -1.5852  1.9768 -1.2756
  322MOL0     H43455   1.886   0.457   3.984  0.1298  1.0852  3.3341
  322MOL0     H43456   1.963   0.849   4.419  1.0568  1.1824  0.8578
  322MOL0     H43457   2.117   0.802   4.605 -0.0991 -0.0867  0.2852
  322MOL0     H43458   2.350   0.477   4.605 -1.8200  3.4817 -2.5036
  322MOL0     H43459   2.246   0.365   4.701  2.0358 -0.9651  4.4535
  322MOL0     H43460   2.469   0.438   4.830 -0.0410 -1.0055 -0.4977
  322MOL0     H43461   2.305   0.455   4.904  0.6806 -0.3285  0.0696
  322MOL0     H43462   2.417   0.635   4.975  1.3996 -0.5201  0.2288
  322MOL0     H43463   2.316   0.699   4.854  0.8840  1.3454  1.9173
  322MOL0     H43464   2.581   0.757   4.827 -1.7289  0.1365  2.1322
  322MOL0     H43465   2.600   0.591   4.777  0.5404  0.1077  1.4392
  322MOL0     H43466   2.367   0.793   4.459 -1.0054  0.6691  1.2176
  322MOL0     H43467   2.106   0.383   4.518 -2.1843 -0.7135  1.1502
  322MOL0     H43468   2.018   0.316   4.320 -2.3623 -2.9609 -0.4963
  322MOL0     H43469   1.852   0.355   4.335 -0.6024  0.0604 -0.6107
  322MOL0     H43470   1.963   0.423   4.196 -0.8063  2.3336  0.6893
  323MOL0     O43471   9.532   4.643   8.215  0.4480  0.4234 -0.0943
  323MOL0     C43472   9.654   4.670   8.200  0.7360  0.6741 -0.2838
  323MOL0     O43473   9.747   4.689   8.297  0.2093  0.1658  0.6126
  323MOL0     C43474   9.706   4.664   8.427 -0.2961  0.5288 -0.7298
  323MOL0     C43475   9.768   4.558   8.496  0.2719 -0.2655 -0.6254
  323MOL0     C43476   9.709   4.515   8.618  1.1305 -0.2484 -0.3054
  323MOL0     C43477   9.602   4.585   8.690 -0.0922 -0.1393  0.9249
  323MOL0     O43478   9.552   4.559   8.816  0.4010 -0.1036  0.3947
  323MOL0     C43479   9.642   4.485   8.898  0.3796 -0.2095  0.8858
  323MOL0     C43480   9.605   4.494   9.048  0.6122  0.9287  0.6855
  323MOL0     C43481   9.646   4.631   9.113  0.2177  0.9701  0.7381
  323MOL0     C43482   9.558   4.665   9.231 -0.1213  0.7138  0.0948
  323MOL0     C43483   9.614   4.806   9.281 -0.0557  1.1408  0.2479
  323MOL0     C43484   9.559   4.840   9.421  0.7481  0.2499  0.3931
  323MOL0     C43485   9.609   4.975   9.444 -0.3119 -1.2375 -0.5100
  323MOL0     C43486   9.517   5.058   9.519  0.5066 -0.4848 -0.5468
  323MOL0     N43487   9.586   5.189   9.564 -0.5598 -0.0558  1.0142
  323MOL0     C43488   9.606   5.294   9.485  0.4766 -0.1479 -0.2269
  323MOL0     C43489   9.702   5.370   9.533 -1.0235 -0.4570 -0.4069
  323MOL0     C43490   9.769   5.494   9.471 -0.1587  0.2174 -0.2936
  323MOL0     C43491   9.827   5.463   9.333 -0.6120 -0.1687 -0.0708
  323MOL0     C43492   9.910   5.336   9.330 -1.1651  0.1243  0.4958
  323MOL0     C43493  10.026   5.347   9.421 -0.3139  0.6448 -0.0688
  323MOL0     O43494  10.096   5.476   9.427  0.1837 -0.2093  0.4025
  323MOL0     C43495  10.228   5.484   9.459  0.7716 -0.2799 -0.3257
  323MOL0     C43496  10.296   5.376   9.516 -0.7540  0.1543 -0.1582
  323MOL0     C43497  10.435   5.373   9.532  0.8557  0.2308  0.4259
  323MOL0     C43498  10.507   5.481   9.472  0.1860  0.3526  0.3353
  323MOL0     C43499  10.657   5.491   9.494  0.0110  0.8186  0.3530
  323MOL0     O43500  10.726   5.576   9.414  0.2749  0.0657 -0.7342
  323MOL0     C43501  10.853   5.607   9.445  0.1560 -0.4562  0.3370
  323MOL0     C43502  10.870   5.704   9.546 -0.5031 -0.7974  0.9973
  323MOL0     C43503  11.001   5.743   9.580  0.6692  0.5975 -0.3758
  323MOL0     C43504  11.107   5.680   9.512  0.4464  0.2596  0.5283
  323MOL0     O43505  11.233   5.712   9.553  0.3375  0.2364  1.1214
  323MOL0     C43506  11.342   5.706   9.452  0.1062 -0.1410 -0.0448
  323MOL0     C43507  11.458   5.782   9.512  0.4630 -0.1490  0.1210
  323MOL0     C43508  11.417   5.918   9.570 -0.1768 -0.1166  0.1316
  323MOL0     C43509  11.535   6.002   9.605  1.0890  0.2443 -1.0977
  323MOL0     C43510  11.501   6.145   9.617 -0.4782 -1.2311 -0.5329
  323MOL0     C43511  11.634   6.227   9.613  0.0748  0.4124 -0.6086
  323MOL0     C43512  11.717   6.213   9.485 -0.8618 -0.1214  0.7877
  323MOL0     C43513  11.838   6.310   9.476 -0.2507  0.0605 -0.4721
  323MOL0    Cl43514  11.957   6.237   9.356  0.7294 -0.3199 -0.0063
  323MOL0     C43515  11.083   5.577   9.414 -0.0988 -0.3355 -0.1352
  323MOL0     C43516  10.955   5.547   9.376  0.3462  0.5825 -0.5646
  323MOL0     O43517  10.709   5.424   9.584  0.4580 -0.0146 -0.4933
  323MOL0     C43518  10.430   5.589   9.421 -0.0566 -0.9706 -0.3671
  323MOL0     C43519  10.296   5.593   9.402  0.7659  0.5962  0.5230
  323MOL0     N43520   9.756   5.299   9.646  0.2512  0.1367 -0.7660
  323MOL0     N43521   9.680   5.189   9.656  0.0225 -0.6941  0.9852
  323MOL0     C43522   9.550   4.694   8.617 -0.7711  0.3385 -0.1978
  323MOL0     C43523   9.604   4.729   8.494 -0.3020 -0.2094  0.4818
  323MOL0     C43524   9.704   4.697   8.060 -0.5282  0.7078 -0.3927
  323MOL0     C43525   9.842   4.719   8.036  0.2228  0.4897  0.0707
  323MOL0     C43526   9.880   4.716   7.905 -0.0671  0.3039 -0.1485
  323MOL0     C43527   9.808   4.686   7.792  0.3432 -0.3352 -0.5774
  323MOL0     O43528   9.863   4.673   7.668 -0.3407 -0.2681  0.3561
  323MOL0     C43529   9.786   4.606   7.569 -0.7984  0.6441  0.9941
  323MOL0     C43530   9.860   4.571   7.438  0.3374 -0.7489 -0.2087
  323MOL0     C43531  10.009   4.529   7.492  0.5944  0.3553 -0.0544
  323MOL0     C43532  10.087   4.460   7.373 -0.6411 -0.7924 -0.2538
  323MOL0     C43533  10.226   4.413   7.427  0.9558  1.1221 -0.2962
  323MOL0     C43534  10.324   4.361   7.461 -0.3958 -0.3880  0.6052
  323MOL0     C43535   9.673   4.663   7.816  0.4122 -1.1616 -0.0130
  323MOL0     C43536   9.619   4.669   7.940  0.3453 -0.1459 -0.1215
  323MOL0     C43537   9.467   4.643   7.955 -0.3164 -0.4870  0.3798
  323MOL0     H43538   9.850   4.497   8.460  1.3487  0.3032  0.7899
  323MOL0     H43539   9.746   4.423   8.662 -1.3140 -0.6310  1.1309
  323MOL0     H43540   9.633   4.383   8.858  0.6384  0.6447 -1.5297
  323MOL0     H43541   9.746   4.517   8.886  0.3861 -0.4452  0.2791
  323MOL0     H43542   9.656   4.409   9.093  0.9585  0.5751 -0.3521
  323MOL0     H43543   9.502   4.461   9.066  1.1191 -1.6292 -0.6977
  323MOL0     H43544   9.633   4.704   9.032 -0.9556 -1.0341 -0.9794
  323MOL0     H43545   9.753   4.635   9.133  1.2279  0.5489 -3.5697
  323MOL0     H43546   9.455   4.688   9.200  0.7152  3.4175 -0.9572
  323MOL0     H43547   9.559   4.581   9.301 -1.3179 -0.1820 -0.9025
  323MOL0     H43548   9.723   4.812   9.288 -0.0293  3.2986 -1.2339
  323MOL0     H43549   9.582   4.883   9.210 -1.3023 -0.7456 -1.3133
  323MOL0     H43550   9.453   4.861   9.405  0.8969  1.3135  0.7228
  323MOL0     H43551   9.565   4.772   9.507  2.2609  3.7885  3.3400
  323MOL0     H43552   9.631   5.034   9.355  1.6199 -0.6043  0.3415
  323MOL0     H43553   9.702   4.965   9.501  2.3751  1.5716 -3.9571
  323MOL0     H43554   9.432   5.068   9.450  1.2896 -1.1862 -1.6345
  323MOL0     H43555   9.488   4.993   9.603  0.9519  0.4538  0.3576
  323MOL0     H43556   9.556   5.306   9.390 -1.2394 -0.6677  0.5765
  323MOL0     H43557   9.714   5.587   9.456 -0.8802 -0.4143 -1.7932
  323MOL0     H43558   9.855   5.504   9.538  1.2280 -0.0349 -1.9826
  323MOL0     H43559   9.752   5.454   9.254 -0.1692 -0.4145 -0.4732
  323MOL0     H43560   9.890   5.544   9.293  4.9958 -2.6598  2.5535
  323MOL0     H43561   9.950   5.322   9.230  1.0404 -0.0820  1.3565
  323MOL0     H43562   9.843   5.254   9.360 -1.9955  0.1432 -1.2066
  323MOL0     H43563  10.100   5.278   9.379 -1.3534  1.4646 -3.5779
  323MOL0     H43564   9.996   5.309   9.519 -1.8265  1.2772 -0.2595
  323MOL0     H43565  10.231   5.298   9.554  0.6518 -1.8893 -1.7822
  323MOL0     H43566  10.491   5.300   9.589  0.5672 -1.2543 -1.1387
  323MOL0     H43567  10.791   5.772   9.576  1.6346  1.0858  2.7195
  323MOL0     H43568  11.029   5.819   9.653 -1.0074 -0.8562  1.9192
  323MOL0     H43569  11.383   5.606   9.436 -1.8794 -0.6623 -2.6245
  323MOL0     H43570  11.306   5.741   9.354 -4.0529 -0.7779  1.0876
  323MOL0     H43571  11.506   5.721   9.589 -1.2249 -0.9646  0.5557
  323MOL0     H43572  11.535   5.794   9.435 -1.8042 -0.6148 -2.3647
  323MOL0     H43573  11.347   5.964   9.499 -1.3482  0.2715  1.4830
  323MOL0     H43574  11.367   5.897   9.665 -0.0705 -1.0793 -0.0072
  323MOL0     H43575  11.607   5.986   9.524 -1.1661  0.8458 -3.3511
  323MOL0     H43576  11.591   5.964   9.691 -3.4864  1.0502  2.6919
  323MOL0     H43577  11.443   6.168   9.707  2.2340  0.5622  0.9081
  323MOL0     H43578  11.438   6.176   9.533 -0.5416  1.3748  0.3895
  323MOL0     H43579  11.612   6.332   9.634 -3.5481  0.0688 -1.9045
  323MOL0     H43580  11.706   6.186   9.683  1.2749 -0.7464 -2.4301
  323MOL0     H43581  11.662   6.237   9.394  2.9852 -0.4054 -1.8523
  323MOL0     H43582  11.757   6.112   9.481  0.0917  0.2824 -0.5821
  323MOL0     H43583  11.805   6.411   9.453  1.6020  0.4062 -1.8599
  323MOL0     H43584  11.899   6.326   9.565  2.6127  1.7365 -2.5704
  323MOL0     H43585  11.165   5.527   9.365 -0.2547 -0.0510 -0.6961
  323MOL0     H43586  10.930   5.473   9.300  0.8417  1.8548 -1.9998
  323MOL0     H43587  10.490   5.673   9.389 -0.6879  0.8335  2.8180
  323MOL0     H43588  10.231   5.671   9.362  2.2380  1.5368 -0.1420
  323MOL0     H43589   9.463   4.749   8.652 -0.6135  2.7198 -3.2078
  323MOL0     H43590   9.555   4.806   8.436 -3.4677 -2.9722 -0.8634
  323MOL0     H43591   9.900   4.742   8.124 -3.4251  1.4797  2.4595
  323MOL0     H43592   9.985   4.737   7.890  0.1359 -0.0666  0.7223
  323MOL0     H43593   9.703   4.674   7.546 -0.3334  2.3105  3.8090
  323MOL0     H43594   9.747   4.510   7.603 -4.9168  0.1524 -3.9178
  323MOL0     H43595   9.866   4.663   7.380 -0.7275 -2.4227 -3.1554
  323MOL0     H43596   9.799   4.492   7.394 -1.8892 -1.7427  4.0665
  323MOL0     H43597   9.991   4.467   7.580 -3.3890  0.3933 -0.6436
  323MOL0     H43598  10.056   4.626   7.511 -0.1975  0.5073  1.2769
  323MOL0     H43599  10.033   4.378   7.326  1.7312 -2.3106 -0.4644
  323MOL0     H43600  10.097   4.547   7.308  0.1303 -0.7869 -0.1354
  323MOL0     H43601  10.425   4.332   7.485  0.2737  0.5603 -0.8865
  323MOL0     H43602   9.620   4.628   7.728  1.1312  1.5220 -1.6238
  323MOL0     H43603   9.420   4.642   7.857  0.9153 -2.0813 -0.2580
  323MOL0     H43604   9.455   4.545   8.003 -1.5445 -0.0274  1.0362
  323MOL0     H43605   9.421   4.722   8.014  1.8683 -0.3987  2.1307
  324MOL0     O43606   5.722   3.910   6.372 -0.3560 -0.1825  0.4595
  324MOL0     C43607   5.678   4.001   6.302 -0.2829  0.0936  0.2406
  324MOL0     O43608   5.547   4.009   6.252  0.5615  0.3259 -0.3861
  324MOL0     C43609   5.471   3.899   6.281  1.2072 -0.5593  0.4302
  324MOL0     C43610   5.354   3.917   6.366 -0.5946 -0.3299 -0.3751
  324MOL0     C43611   5.277   3.801   6.387  0.7612 -0.4151  0.7553
  324MOL0     C43612   5.317   3.679   6.333  0.9608  0.9865  0.6033
  324MOL0     O43613   5.260   3.561   6.371  0.1894  0.3834  0.4106
  324MOL0     C43614   5.135   3.566   6.446  0.8593 -0.4179 -0.6128
  324MOL0     C43615   5.106   3.431   6.511 -0.7872  0.4237 -0.3561
  324MOL0     C43616   5.129   3.310   6.423  0.5568 -0.3458 -0.0734
  324MOL0     C43617   5.051   3.188   6.469 -0.4824  0.4074  0.1808
  324MOL0     C43618   4.902   3.186   6.462  0.7475 -0.1233 -0.5030
  324MOL0     C43619   4.844   3.215   6.325  0.2254 -1.0802  0.5701
  324MOL0     C43620   4.855   3.104   6.221  0.5114  1.3899 -0.1790
  324MOL0     C43621   4.774   3.131   6.100 -0.1090  0.2682 -0.1910
  324MOL0     N43622   4.739   3.012   6.023 -0.1006  0.5036  0.7027
  324MOL0     C43623   4.797   2.967   5.911 -0.0193 -0.1135 -0.3138
  324MOL0     C43624   4.775   2.835   5.895 -0.4723  1.1711 -0.1380
  324MOL0     C43625   4.840   2.761   5.777  0.5075  1.0683  0.2689
  324MOL0     C43626   4.740   2.672   5.693 -0.6886 -0.7303  0.1266
  324MOL0     C43627   4.798   2.618   5.566  0.5193  0.1326  0.7825
  324MOL0     C43628   4.837   2.719   5.463  1.0298  0.1986  0.3428
  324MOL0     O43629   4.961   2.768   5.501 -0.1670  0.2958 -0.2360
  324MOL0     C43630   5.018   2.874   5.444 -0.4638 -0.2384  0.1962
  324MOL0     C43631   5.076   2.968   5.529  0.0660 -0.0136  0.4075
  324MOL0     C43632   5.117   3.088   5.476 -0.7451 -0.2349 -0.7300
  324MOL0     C43633   5.134   3.103   5.345 -0.2516  0.1311 -0.3997
  324MOL0     C43634   5.202   3.224   5.282  0.2984  0.6465  0.1209
  324MOL0     O43635   5.220   3.238   5.141 -0.4690 -0.4662  0.2898
  324MOL0     C43636   5.304   3.337   5.095  0.3003  0.3372 -0.2256
  324MOL0     C43637   5.440   3.354   5.119 -1.0320  0.0594  0.4123
  324MOL0     C43638   5.509   3.456   5.055 -0.2250  0.1236 -0.5904
  324MOL0     C43639   5.450   3.552   4.963 -0.1278 -0.2979 -0.8538
  324MOL0     O43640   5.508   3.654   4.892 -0.6104  0.0698 -0.3604
  324MOL0     C43641   5.642   3.706   4.940  1.0118  1.2650 -0.4265
  324MOL0     C43642   5.683   3.819   4.843 -0.3454 -1.3413 -0.4813
  324MOL0     C43643   5.692   3.955   4.922 -0.3616 -0.1075 -0.0572
  324MOL0     C43644   5.664   4.066   4.819 -0.1886  0.3000 -0.3902
  324MOL0     C43645   5.773   4.093   4.713  0.5563  0.4497  0.2697
  324MOL0     C43646   5.724   4.183   4.590 -0.3598  0.1214 -0.2001
  324MOL0     C43647   5.779   4.126   4.452  0.0283  0.1379  0.3632
  324MOL0     C43648   5.728   4.200   4.320  0.4944 -0.5345 -0.5913
  324MOL0    Cl43649   5.804   4.125   4.184  0.0375 -0.2592  0.4418
  324MOL0     C43650   5.319   3.506   4.929  0.5164 -0.2909  0.7420
  324MOL0     C43651   5.243   3.415   4.992  0.7270  0.8026 -0.5819
  324MOL0     O43652   5.241   3.306   5.366 -0.1168  0.6117 -0.2616
  324MOL0     C43653   5.096   3.000   5.255  0.7234 -0.5196  0.1127
  324MOL0     C43654   5.032   2.885   5.306 -0.0396 -0.1238 -1.1292
  324MOL0     N43655   4.695   2.792   6.004 -0.1332 -0.2554  0.8416
  324MOL0     N43656   4.679   2.895   6.076 -0.2089 -0.7640  0.9550
  324MOL0     C43657   5.432   3.666   6.254 -0.4019  0.5887 -0.1107
  324MOL0     C43658   5.503   3.777   6.224  0.7562  0.0380  0.3271
  324MOL0     C43659   5.773   4.095   6.245 -0.2308 -0.4805  0.2488
  324MOL0     C43660   5.737   4.157   6.123 -0.6709  0.3678  0.0723
  324MOL0     C43661   5.816   4.268   6.080  0.7128  0.3573  0.5402
  324MOL0     C43662   5.936   4.298   6.134 -0.2490 -0.6990 -0.2579
  324MOL0     O43663   6.021   4.401   6.084 -0.7948  1.3554  0.1766
  324MOL0     C43664   5.986   4.485   5.976 -1.0997 -0.5993  0.8500
  324MOL0     C43665   6.115   4.559   5.946  0.0207 -0.0882  0.3169
  324MOL0     C43666   6.182   4.641   6.046  0.7882 -0.0839 -0.8306
  324MOL0     C43667   6.071   4.724   6.115 -0.1148  0.3607 -0.9060
  324MOL0     C43668   6.123   4.838   6.204  0.1211  0.5149 -0.3777
  324MOL0     C43669   6.172   4.923   6.274 -0.7358  0.2752 -0.3544
  324MOL0     C43670   5.974   4.219   6.247 -0.4784 -0.6132 -0.1184
  324MOL0     C43671   5.895   4.123   6.308 -0.6277 -0.9280  0.5396
  324MOL0     C43672   5.951   4.079   6.444  0.3362  0.1674  0.1300
  324MOL0     H43673   5.325   4.006   6.422  2.6688  2.2772 -2.4771
  324MOL0     H43674   5.199   3.806   6.462  1.1865  0.8227  1.1431
  324MOL0     H43675   5.135   3.639   6.528 -2.8826 -0.8408 -0.0604
  324MOL0     H43676   5.060   3.599   6.373  1.2869 -1.1139 -1.3782
  324MOL0     H43677   5.006   3.418   6.555 -0.3547  0.4037  0.6488
  324MOL0     H43678   5.177   3.430   6.594  1.4182 -0.1445 -2.1781
  324MOL0     H43679   5.235   3.283   6.432  0.4939 -0.0098  2.4622
  324MOL0     H43680   5.100   3.321   6.318  1.5073  1.5862 -0.1859
  324MOL0     H43681   5.074   3.103   6.404 -1.5514 -2.4585  3.2386
  324MOL0     H43682   5.085   3.169   6.571 -1.8155  1.6445  0.8845
  324MOL0     H43683   4.868   3.088   6.497  1.5667 -0.6125 -1.0400
  324MOL0     H43684   4.859   3.262   6.528 -0.3106 -1.5306  0.4868
  324MOL0     H43685   4.738   3.238   6.343 -0.0474  0.4273 -2.3081
  324MOL0     H43686   4.882   3.308   6.281 -0.4918 -0.3106  1.5378
  324MOL0     H43687   4.804   3.024   6.274 -1.6263  1.5690 -1.8325
  324MOL0     H43688   4.958   3.069   6.205  0.1031 -0.6358  1.2332
  324MOL0     H43689   4.678   3.176   6.126  0.2478  0.5296  0.7064
  324MOL0     H43690   4.826   3.193   6.026 -1.5513  0.8009 -0.8005
  324MOL0     H43691   4.876   3.017   5.856 -1.5901  3.0506  0.1210
  324MOL0     H43692   4.888   2.842   5.721 -2.5075  2.5382 -0.3886
  324MOL0     H43693   4.906   2.684   5.817  0.6582  0.8134 -0.4698
  324MOL0     H43694   4.694   2.592   5.752  1.8215 -0.9915  1.8350
  324MOL0     H43695   4.650   2.733   5.684  0.2308  1.2562  3.1393
  324MOL0     H43696   4.707   2.571   5.526  0.7455  3.0579 -4.0028
  324MOL0     H43697   4.873   2.539   5.576  1.6002  0.6286 -2.3904
  324MOL0     H43698   4.751   2.787   5.465 -1.4459 -2.7539  1.3284
  324MOL0     H43699   4.842   2.681   5.360 -0.2343  1.3784 -0.2046
  324MOL0     H43700   5.073   2.955   5.636 -2.2759  0.2089  0.4327
  324MOL0     H43701   5.154   3.163   5.545  3.5736 -0.7355 -2.2130
  324MOL0     H43702   5.483   3.275   5.180 -0.2751  0.9312  1.0417
  324MOL0     H43703   5.616   3.459   5.070 -0.4036 -1.7138  1.4248
  324MOL0     H43704   5.637   3.746   5.042 -2.1691  0.0635  0.0272
  324MOL0     H43705   5.708   3.621   4.956 -2.1449 -1.2020  0.5158
  324MOL0     H43706   5.781   3.786   4.807 -0.8159 -0.2519 -2.9257
  324MOL0     H43707   5.624   3.833   4.753  2.1984  2.5491 -1.7933
  324MOL0     H43708   5.613   3.964   4.997  1.6578  0.3174  2.1587
  324MOL0     H43709   5.787   3.965   4.976  1.1935 -1.7834 -2.2677
  324MOL0     H43710   5.662   4.154   4.884 -0.5342 -1.7111  2.5728
  324MOL0     H43711   5.568   4.061   4.767 -0.9692  2.0231  0.7694
  324MOL0     H43712   5.810   4.001   4.668 -0.4971  0.4892 -0.7069
  324MOL0     H43713   5.860   4.135   4.766 -0.7142  0.8746  2.1104
  324MOL0     H43714   5.616   4.170   4.581 -0.4535 -0.5739  1.5251
  324MOL0     H43715   5.759   4.287   4.589 -2.3268  0.8390  0.5397
  324MOL0     H43716   5.763   4.019   4.437  0.3722  0.3971 -2.3788
  324MOL0     H43717   5.889   4.131   4.448 -0.0191  0.2467 -1.0883
  324MOL0     H43718   5.618   4.205   4.326  0.4792 -0.8519 -0.5667
  324MOL0     H43719   5.763   4.303   4.321 -3.8556  1.2036 -1.6918
  324MOL0     H43720   5.267   3.568   4.857  0.9396  1.6340  2.0273
  324MOL0     H43721   5.144   3.393   4.954  1.3530 -2.8516 -0.4714
  324MOL0     H43722   5.103   3.018   5.149 -3.2491  0.6636 -0.0956
  324MOL0     H43723   5.008   2.810   5.231  4.6889 -2.0562 -1.0225
  324MOL0     H43724   5.457   3.571   6.207 -1.6291 -0.5686  1.4413
  324MOL0     H43725   5.585   3.760   6.155 -2.0400  0.3056 -3.4011
  324MOL0     H43726   5.647   4.135   6.068  0.4956  0.2790 -1.8774
  324MOL0     H43727   5.796   4.315   5.984 -0.8343 -2.3474 -0.5606
  324MOL0     H43728   5.890   4.533   5.997 -3.7189 -5.1214  0.4653
  324MOL0     H43729   5.969   4.422   5.888 -2.6783  1.3676 -0.3433
  324MOL0     H43730   6.102   4.627   5.861  3.2711 -0.0064 -0.2570
  324MOL0     H43731   6.185   4.486   5.902  1.1783  1.6055 -0.7572
  324MOL0     H43732   6.254   4.713   6.007  4.0385  0.5287  5.0402
  324MOL0     H43733   6.236   4.593   6.128 -0.3540 -0.3085 -0.1717
  324MOL0     H43734   5.999   4.762   6.043  0.1866  0.6560 -1.0515
  324MOL0     H43735   6.011   4.663   6.184 -0.9771  1.8844 -0.2692
  324MOL0     H43736   6.200   5.010   6.329 -0.7520 -0.0116  0.1080
  324MOL0     H43737   6.076   4.232   6.282  0.4782 -0.1747 -2.8231
  324MOL0     H43738   5.950   3.970   6.453  2.3656  0.3276  4.2078
  324MOL0     H43739   6.055   4.106   6.463 -0.0886  1.8104  0.3030
  324MOL0     H43740   5.884   4.128   6.516  2.3348  0.8629  1.5878
  325MOL0     O43741   6.923  10.532   9.529  0.2373 -0.5448  0.6778
  325MOL0     C43742   6.854  10.591   9.444 -0.1291  0.3660 -0.1799
  325MOL0     O43743   6.753  10.520   9.363 -0.8694 -0.1849 -0.2454
  325MOL0     C43744   6.778  10.395   9.311  0.3843  0.3612  0.0065
  325MOL0     C43745   6.671  10.342   9.232 -0.4111 -0.3441  0.5746
  325MOL0     C43746   6.683  10.208   9.186 -0.2977 -0.7126  0.1694
  325MOL0     C43747   6.797  10.134   9.205  0.1320 -0.3339 -0.0067
  325MOL0     O43748   6.782  10.002   9.165  0.2956 -0.4954  0.6473
  325MOL0     C43749   6.894   9.914   9.163  0.6226  0.6489 -0.0162
  325MOL0     C43750   6.940   9.845   9.291 -0.2252  0.1356 -0.3541
  325MOL0     C43751   6.824   9.784   9.369 -0.2220  0.2272 -0.0859
  325MOL0     C43752   6.766   9.666   9.300  0.2486  0.9870  0.5231
  325MOL0     C43753   6.665   9.592   9.387  0.2335  0.5696 -0.4421
  325MOL0     C43754   6.612   9.468   9.317 -0.1007 -0.3131 -0.8300
  325MOL0     C43755   6.491   9.412   9.400 -0.6832 -0.4892  0.3201
  325MOL0     C43756   6.362   9.488   9.369  0.3623 -1.4391  0.6940
  325MOL0     N43757   6.239   9.419   9.419 -0.0193 -0.2722 -0.6278
  325MOL0     C43758   6.187   9.411   9.545 -0.5116 -0.9057  0.4501
  325MOL0     C43759   6.080   9.326   9.545 -0.1760  0.1350  0.6611
  325MOL0     C43760   6.003   9.284   9.668  0.4416 -0.3086 -0.1540
  325MOL0     C43761   6.088   9.204   9.775 -0.2564 -0.2686  0.3140
  325MOL0     C43762   6.071   9.049   9.773 -1.0873 -0.8554 -0.0289
  325MOL0     C43763   6.102   8.976   9.633  0.9399  0.0671  0.1498
  325MOL0     O43764   6.094   8.832   9.638 -0.2285 -0.1999 -1.3717
  325MOL0     C43765   6.196   8.758   9.680  0.0759  0.4142 -0.8332
  325MOL0     C43766   6.325   8.811   9.720  0.1944  0.4175  0.0472
  325MOL0     C43767   6.428   8.722   9.750 -0.0166  0.8805 -0.6403
  325MOL0     C43768   6.406   8.584   9.764 -0.3787 -0.0060  0.0206
  325MOL0     C43769   6.503   8.483   9.804  0.5029 -0.3961  0.4495
  325MOL0     O43770   6.630   8.511   9.758 -0.2951 -0.1526 -0.1946
  325MOL0     C43771   6.741   8.445   9.799  0.7648  0.4969  0.0211
  325MOL0     C43772   6.739   8.331   9.884  0.7912  0.0427 -1.0553
  325MOL0     C43773   6.857   8.287   9.949 -0.3305 -0.5339 -0.4957
  325MOL0     C43774   6.981   8.339   9.909 -0.0472 -1.5535 -0.1640
  325MOL0     O43775   7.090   8.274   9.965 -0.0593 -0.2778 -0.1453
  325MOL0     C43776   7.201   8.248   9.882  0.2802 -0.3548 -0.2628
  325MOL0     C43777   7.318   8.328   9.937 -0.1989  0.3854  0.6218
  325MOL0     C43778   7.404   8.235  10.022 -0.0438 -0.0944 -0.2634
  325MOL0     C43779   7.513   8.306  10.107 -0.0413 -0.0046 -0.1290
  325MOL0     C43780   7.592   8.210  10.194  0.5345 -0.4386  0.5587
  325MOL0     C43781   7.672   8.112  10.111  0.4849 -0.3445  0.3746
  325MOL0     C43782   7.788   8.065  10.192  0.1412 -1.0403 -0.1152
  325MOL0     C43783   7.751   7.995  10.328  0.9868 -0.1682  0.2487
  325MOL0    Cl43784   7.593   7.906  10.325 -0.4646 -0.5370 -0.1945
  325MOL0     C43785   6.983   8.448   9.802  0.0231 -0.4011 -1.2863
  325MOL0     C43786   6.863   8.503   9.758  0.2544  0.2549 -0.0669
  325MOL0     O43787   6.458   8.378   9.852 -0.4897 -0.6309  0.0894
  325MOL0     C43788   6.282   8.534   9.726  0.8417 -0.2456  0.5145
  325MOL0     C43789   6.178   8.620   9.677 -0.2402  1.1080  0.7821
  325MOL0     N43790   6.053   9.282   9.418  0.1451 -0.4603  0.6155
  325MOL0     N43791   6.153   9.335   9.348  0.1625  0.3836 -0.9241
  325MOL0     C43792   6.902  10.182   9.276 -0.4125  0.8467  0.8315
  325MOL0     C43793   6.892  10.311   9.319  0.5199  0.4335  0.1308
  325MOL0     C43794   6.850  10.743   9.427  0.4608  0.4403  0.7017
  325MOL0     C43795   6.727  10.799   9.392  1.0186 -0.4578  0.5999
  325MOL0     C43796   6.704  10.930   9.369  0.4108 -1.0289 -0.4323
  325MOL0     C43797   6.806  11.008   9.409 -0.0436 -1.2270  0.4599
  325MOL0     O43798   6.790  11.142   9.435  0.1356  0.2101  1.2031
  325MOL0     C43799   6.726  11.217   9.332 -0.7933  0.0015  0.6323
  325MOL0     C43800   6.823  11.259   9.208  0.2555 -0.4015  0.3679
  325MOL0     C43801   6.920  11.159   9.155 -0.1342  0.7461  0.5070
  325MOL0     C43802   6.991  11.207   9.027 -0.1401 -0.6806 -0.3916
  325MOL0     C43803   7.060  11.337   9.046 -0.7548 -0.3327 -0.1623
  325MOL0     C43804   7.125  11.444   9.048 -0.0091  0.2504  0.2266
  325MOL0     C43805   6.931  10.960   9.442  0.1535  0.3777  0.4143
  325MOL0     C43806   6.959  10.828   9.447  0.0218  0.2801  0.6382
  325MOL0     C43807   7.093  10.787   9.499  0.7056 -1.0046  0.7331
  325MOL0     H43808   6.587  10.409   9.215  0.9583  0.8543 -2.1920
  325MOL0     H43809   6.594  10.165   9.140 -1.8343  0.8211  1.5746
  325MOL0     H43810   6.865   9.842   9.086  1.5129  3.2174 -2.9799
  325MOL0     H43811   6.983   9.960   9.119  1.2552 -0.2827  0.2589
  325MOL0     H43812   6.981   9.921   9.359 -2.4689  3.0542 -2.0038
  325MOL0     H43813   7.018   9.768   9.288 -1.1250 -0.8515  0.7719
  325MOL0     H43814   6.746   9.859   9.386  1.1754  1.5564  0.7003
  325MOL0     H43815   6.869   9.762   9.466 -1.2872 -1.9879 -0.0294
  325MOL0     H43816   6.728   9.700   9.203 -3.3115  1.5183  1.9645
  325MOL0     H43817   6.847   9.597   9.275 -0.8559 -1.1378  2.4586
  325MOL0     H43818   6.711   9.572   9.484  2.1094  0.6572 -1.2707
  325MOL0     H43819   6.586   9.661   9.417 -1.3453 -2.2595  2.5065
  325MOL0     H43820   6.581   9.487   9.214 -0.4045  1.4893 -0.4293
  325MOL0     H43821   6.703   9.406   9.319  0.6938  0.7834  2.3017
  325MOL0     H43822   6.505   9.432   9.507  0.2194  2.0751 -0.1913
  325MOL0     H43823   6.487   9.305   9.383  0.2763 -0.9072  2.3469
  325MOL0     H43824   6.358   9.592   9.402 -1.8422 -0.5251 -2.0040
  325MOL0     H43825   6.348   9.505   9.261 -0.8100 -3.9524  0.3687
  325MOL0     H43826   6.223   9.456   9.637 -2.0312  2.2031 -0.3270
  325MOL0     H43827   5.964   9.375   9.713  0.9043  0.9607 -2.1956
  325MOL0     H43828   5.910   9.231   9.647  0.6542 -0.2365 -1.3357
  325MOL0     H43829   6.196   9.217   9.768  0.0221 -0.7735  2.7845
  325MOL0     H43830   6.055   9.246   9.870  0.3945  1.9463 -0.3779
  325MOL0     H43831   5.972   9.018   9.808 -0.9861 -0.6380  0.4644
  325MOL0     H43832   6.139   9.007   9.848  2.2510 -2.3808 -3.5934
  325MOL0     H43833   6.194   9.010   9.585 -1.1199  2.2228 -2.6529
  325MOL0     H43834   6.028   9.007   9.558  3.4785 -2.5612 -3.8310
  325MOL0     H43835   6.339   8.919   9.724 -1.1020  0.5905  0.3554
  325MOL0     H43836   6.530   8.748   9.777  0.0637  1.2819 -1.3217
  325MOL0     H43837   6.644   8.284   9.909 -0.0552 -0.1039 -4.1378
  325MOL0     H43838   6.849   8.204  10.018 -3.8565 -0.8460 -1.1156
  325MOL0     H43839   7.207   8.138   9.879 -0.7247 -0.4611  0.8850
  325MOL0     H43840   7.176   8.266   9.777  3.7856  0.5394 -1.0751
  325MOL0     H43841   7.377   8.360   9.851 -1.2152 -0.2337 -0.3337
  325MOL0     H43842   7.289   8.409  10.005 -0.4938 -2.6602  4.5029
  325MOL0     H43843   7.338   8.182  10.091 -1.4515  1.3268 -0.4590
  325MOL0     H43844   7.451   8.160   9.958 -1.0655  0.4133 -1.6640
  325MOL0     H43845   7.467   8.385  10.168 -0.7560 -0.2716 -0.3186
  325MOL0     H43846   7.578   8.358  10.037 -0.2384 -1.5913 -1.5426
  325MOL0     H43847   7.518   8.151  10.249 -0.0592 -1.6143 -1.4082
  325MOL0     H43848   7.653   8.277  10.255  0.3860 -0.8103  1.1290
  325MOL0     H43849   7.619   8.023  10.075  1.4502 -0.1387 -1.6812
  325MOL0     H43850   7.712   8.149  10.016 -2.3666 -3.5514 -2.3998
  325MOL0     H43851   7.856   8.146  10.221 -2.3717  0.1988  2.7856
  325MOL0     H43852   7.850   8.001  10.128  1.6901  0.5168 -0.2506
  325MOL0     H43853   7.823   7.915  10.349 -0.6814 -1.5512  1.0052
  325MOL0     H43854   7.743   8.074  10.403 -1.9204 -0.3765  0.2853
  325MOL0     H43855   7.074   8.497   9.771  1.6393 -2.1635  0.4046
  325MOL0     H43856   6.868   8.581   9.684 -0.5566  2.9982  2.5761
  325MOL0     H43857   6.266   8.427   9.732  0.2660 -0.1273  1.2801
  325MOL0     H43858   6.079   8.597   9.639 -0.4362  1.5774  0.9990
  325MOL0     H43859   6.993  10.125   9.292  1.5993  3.4983 -0.2477
  325MOL0     H43860   6.969  10.354   9.382  1.6932  1.5167 -1.9216
  325MOL0     H43861   6.639  10.736   9.379 -0.7158  1.7224  1.2309
  325MOL0     H43862   6.606  10.970   9.345  1.4187  2.0856  0.2490
  325MOL0     H43863   6.705  11.317   9.371 -1.6815 -0.1406  0.5430
  325MOL0     H43864   6.641  11.166   9.287 -0.8116  1.5871 -1.2583
  325MOL0     H43865   6.883  11.344   9.244  0.3110  0.1033 -0.8675
  325MOL0     H43866   6.766  11.289   9.119  1.4594 -0.7646 -0.5490
  325MOL0     H43867   6.870  11.064   9.134  2.9074 -1.3522  1.8683
  325MOL0     H43868   6.992  11.145   9.236  1.5903  1.8960 -0.7582
  325MOL0     H43869   7.059  11.125   9.000 -0.0593 -1.7293  2.5749
  325MOL0     H43870   6.923  11.215   8.942 -1.5356  1.7403  0.8546
  325MOL0     H43871   7.187  11.530   9.060  1.2397 -0.0642 -2.9725
  325MOL0     H43872   7.002  11.026   9.492  1.3682 -0.3399 -0.3194
  325MOL0     H43873   7.127  10.695   9.450 -2.6472 -1.3075 -1.3076
  325MOL0     H43874   7.160  10.870   9.473  1.6426 -1.4422  1.6865
  325MOL0     H43875   7.089  10.768   9.607 -0.1015 -1.8931  0.5531
  326MOL0     O43876   1.983   1.889   9.645  0.3436 -0.9375 -0.1514
  326MOL0     C43877   1.938   1.881   9.534 -0.7029 -0.9634  0.0693
  326MOL0     O43878   1.807   1.918   9.494  0.3827 -0.4263  0.0814
  326MOL0     C43879   1.702   1.928   9.591 -0.2288  0.2279 -0.8364
  326MOL0     C43880   1.611   2.027   9.568 -0.3263  0.7461  0.9940
  326MOL0     C43881   1.510   2.042   9.659 -0.0711  1.2198 -0.3592
  326MOL0     C43882   1.499   1.955   9.778  0.1846 -0.1354 -0.6420
  326MOL0     O43883   1.399   1.972   9.878 -0.2075 -0.4422 -0.6559
  326MOL0     C43884   1.262   1.976   9.846 -0.9112 -0.2149  0.4067
  326MOL0     C43885   1.201   1.847   9.791  0.2330 -0.1342 -0.6104
  326MOL0     C43886   1.210   1.735   9.897 -0.3652  0.4972 -0.5679
  326MOL0     C43887   1.161   1.597   9.844 -0.2637  0.7574 -0.0931
  326MOL0     C43888   1.173   1.493   9.954  0.1647 -0.6076 -0.3369
  326MOL0     C43889   1.158   1.354   9.900 -0.0943  0.2895 -0.5612
  326MOL0     C43890   1.275   1.300   9.824 -0.3063  0.4866  0.4991
  326MOL0     C43891   1.344   1.183   9.899  0.2647 -0.1479  0.3909
  326MOL0     N43892   1.262   1.058   9.876  0.0935 -0.1918  0.7589
  326MOL0     C43893   1.265   0.978   9.772  0.4602 -0.5336  0.4541
  326MOL0     C43894   1.169   0.883   9.786  0.4002 -0.2915 -0.0441
  326MOL0     C43895   1.141   0.768   9.690 -0.2146 -0.0017 -0.6537
  326MOL0     C43896   1.156   0.791   9.540  0.2296  0.0812 -0.3502
  326MOL0     C43897   1.304   0.806   9.495  0.5810  0.4570 -0.1914
  326MOL0     C43898   1.301   0.879   9.362 -0.2517 -0.4638  1.2004
  326MOL0     O43899   1.202   0.818   9.288  0.6792  0.3068 -0.3728
  326MOL0     C43900   1.168   0.893   9.178  0.3607  0.4997  0.1783
  326MOL0     C43901   1.231   0.864   9.060 -0.1285 -0.1731 -0.5315
  326MOL0     C43902   1.201   0.928   8.938  0.4427 -0.0150 -0.8495
  326MOL0     C43903   1.101   1.024   8.939  0.5407 -0.0549 -0.6028
  326MOL0     C43904   1.055   1.088   8.817 -0.9681 -0.5962  0.3499
  326MOL0     O43905   0.942   1.148   8.823  0.1961  0.4132  0.1351
  326MOL0     C43906   0.906   1.240   8.724  1.1484  0.1929  0.1263
  326MOL0     C43907   0.952   1.369   8.731 -0.0992 -0.2321 -0.6742
  326MOL0     C43908   0.927   1.466   8.636  1.1228 -1.3082 -0.0296
  326MOL0     C43909   0.859   1.430   8.523  0.2247 -0.2376  0.2808
  326MOL0     O43910   0.846   1.537   8.433 -0.4081 -0.2193  0.0969
  326MOL0     C43911   0.782   1.512   8.303  0.6038 -1.0945  0.5742
  326MOL0     C43912   0.826   1.626   8.212 -0.1554 -0.2778 -0.0270
  326MOL0     C43913   0.983   1.625   8.186  0.6364  0.4974 -0.8955
  326MOL0     C43914   1.033   1.766   8.181 -0.6994  0.4493  0.0888
  326MOL0     C43915   1.187   1.768   8.141  1.1336 -0.5773 -0.3999
  326MOL0     C43916   1.255   1.905   8.118  0.1804 -0.1546 -0.0712
  326MOL0     C43917   1.172   2.006   8.027  0.2867 -0.9844  0.2157
  326MOL0     C43918   1.252   2.145   8.016  0.6138 -0.4179  1.4681
  326MOL0    Cl43919   1.285   2.219   8.191  0.0139  0.4073  0.4304
  326MOL0     C43920   0.822   1.289   8.504 -0.2068 -0.5344  0.3688
  326MOL0     C43921   0.829   1.207   8.608 -0.5293 -0.2430 -0.3292
  326MOL0     O43922   1.138   1.103   8.724 -0.8496 -0.4852  0.8726
  326MOL0     C43923   1.044   1.061   9.061  0.2498 -0.3332  0.0382
  326MOL0     C43924   1.078   0.991   9.179  0.5456 -0.5343  0.0293
  326MOL0     N43925   1.125   0.896   9.922  0.1942 -0.0611 -0.1587
  326MOL0     N43926   1.182   1.002   9.970 -0.5977 -0.2440 -0.2921
  326MOL0     C43927   1.593   1.858   9.801 -0.3481  0.8538 -0.4928
  326MOL0     C43928   1.696   1.847   9.710 -0.1507 -0.0380  0.0745
  326MOL0     C43929   2.046   1.859   9.427 -0.0711  0.4014 -0.5039
  326MOL0     C43930   2.131   1.965   9.403  0.4154 -1.0965 -0.1672
  326MOL0     C43931   2.231   1.948   9.298 -0.3826 -0.6335  0.3306
  326MOL0     C43932   2.239   1.831   9.226 -0.2979 -0.4713 -0.6547
  326MOL0     O43933   2.341   1.832   9.132  0.5362 -0.9910 -0.0794
  326MOL0     C43934   2.337   1.736   9.029  0.7077  0.9285  1.1166
  326MOL0     C43935   2.458   1.742   8.927 -1.0795 -1.1036  0.2298
  326MOL0     C43936   2.418   1.741   8.783 -0.4616  0.0184 -0.0218
  326MOL0     C43937   2.351   1.875   8.734  0.6766  0.9813 -0.4051
  326MOL0     C43938   2.363   1.871   8.591  0.1714 -0.9508  0.4275
  326MOL0     C43939   2.382   1.871   8.472  0.0712 -0.2701  1.2365
  326MOL0     C43940   2.143   1.729   9.250  0.4205 -0.5755  0.2841
  326MOL0     C43941   2.060   1.734   9.357  0.5506 -0.0648  0.0484
  326MOL0     C43942   1.973   1.620   9.394 -0.1432  0.1718 -0.2988
  326MOL0     H43943   1.621   2.091   9.481 -3.5757  1.4408  0.9972
  326MOL0     H43944   1.440   2.124   9.643  0.8261  1.4335 -3.7981
  326MOL0     H43945   1.190   2.016   9.918 -0.2316  0.0493  0.9555
  326MOL0     H43946   1.251   2.042   9.760  3.2267  0.5822  0.2976
  326MOL0     H43947   1.221   1.819   9.687 -1.2419  0.2919 -1.0427
  326MOL0     H43948   1.093   1.865   9.786 -0.7414 -2.5769  4.5942
  326MOL0     H43949   1.154   1.757   9.989 -2.2141  0.1763 -1.5609
  326MOL0     H43950   1.315   1.730   9.927 -0.4543  2.1997  0.1310
  326MOL0     H43951   1.056   1.611   9.819 -0.5858  1.2352  1.3829
  326MOL0     H43952   1.219   1.578   9.753  0.4161  1.0959  0.2582
  326MOL0     H43953   1.267   1.494  10.010 -0.9655  2.0258  1.7281
  326MOL0     H43954   1.097   1.525  10.027 -0.8218  2.8653 -2.6412
  326MOL0     H43955   1.126   1.285   9.979  0.1336  1.8478  0.9515
  326MOL0     H43956   1.079   1.351   9.824  1.0382 -0.8041 -1.7482
  326MOL0     H43957   1.345   1.380   9.800  0.3328  0.5236  2.3515
  326MOL0     H43958   1.240   1.255   9.730  0.9766  0.1699  0.1429
  326MOL0     H43959   1.445   1.183   9.855 -0.0527  1.1393 -0.3756
  326MOL0     H43960   1.358   1.197  10.006  2.6393 -2.7151  0.5268
  326MOL0     H43961   1.344   0.991   9.699 -0.5819  1.2882 -0.4357
  326MOL0     H43962   1.207   0.684   9.714 -3.5776 -2.2223  1.9249
  326MOL0     H43963   1.044   0.731   9.726  0.7069 -2.1813 -0.2096
  326MOL0     H43964   1.123   0.701   9.487  1.8507  0.9653 -3.0229
  326MOL0     H43965   1.082   0.864   9.505 -1.3518  0.1873  2.8292
  326MOL0     H43966   1.350   0.708   9.479 -0.1796  0.4871 -3.1951
  326MOL0     H43967   1.377   0.850   9.563  2.2816  1.8262 -2.7388
  326MOL0     H43968   1.387   0.872   9.296 -1.4573  0.9795 -0.6136
  326MOL0     H43969   1.285   0.984   9.390  0.5980 -0.0031  0.0245
  326MOL0     H43970   1.312   0.793   9.052  1.3077  1.5558 -2.2537
  326MOL0     H43971   1.238   0.903   8.839  1.8371 -0.8355 -0.1495
  326MOL0     H43972   1.022   1.391   8.812 -0.2261 -1.7032 -0.1475
  326MOL0     H43973   0.968   1.565   8.654  1.5475 -1.6552  1.0583
  326MOL0     H43974   0.811   1.416   8.260 -1.3662 -0.0838 -3.5793
  326MOL0     H43975   0.673   1.509   8.306  0.5332  0.1962  0.0918
  326MOL0     H43976   0.771   1.620   8.118 -0.7970  1.2733  0.2154
  326MOL0     H43977   0.797   1.723   8.253 -0.5025 -0.9024  1.2836
  326MOL0     H43978   1.038   1.571   8.264 -1.6129  0.9025  1.0591
  326MOL0     H43979   0.995   1.567   8.094 -4.1190  3.3369 -3.6883
  326MOL0     H43980   1.022   1.816   8.278  0.3915 -0.3304  0.6342
  326MOL0     H43981   0.970   1.827   8.115  1.0201  2.0442 -0.1432
  326MOL0     H43982   1.208   1.705   8.053 -1.0600 -0.9030 -0.7494
  326MOL0     H43983   1.237   1.717   8.224 -1.9401 -5.4382 -1.1145
  326MOL0     H43984   1.275   1.947   8.217  2.2381 -1.8701  0.3127
  326MOL0     H43985   1.353   1.880   8.078 -1.0422 -5.2246 -0.5043
  326MOL0     H43986   1.072   2.029   8.063 -0.4062  2.6755 -3.3926
  326MOL0     H43987   1.164   1.966   7.925  0.3138  0.0443 -0.1963
  326MOL0     H43988   1.347   2.127   7.965  0.0310  0.1612  0.1289
  326MOL0     H43989   1.197   2.216   7.954  1.4961 -2.5345 -1.9744
  326MOL0     H43990   0.779   1.262   8.409  3.9743 -1.5160 -1.4804
  326MOL0     H43991   0.775   1.113   8.602  3.0970 -2.5684  0.1052
  326MOL0     H43992   0.966   1.136   9.068  0.0827 -0.5971  1.4274
  326MOL0     H43993   1.031   1.010   9.275 -1.5982 -1.1523 -0.8427
  326MOL0     H43994   1.580   1.786   9.881  2.7479 -0.5312 -1.0994
  326MOL0     H43995   1.764   1.762   9.711  0.7818  0.6748  1.8826
  326MOL0     H43996   2.120   2.064   9.445  0.1599 -0.5923 -1.3709
  326MOL0     H43997   2.305   2.023   9.276 -1.7104  0.6421  0.0763
  326MOL0     H43998   2.243   1.735   8.974  2.8936  2.2087 -3.0882
  326MOL0     H43999   2.358   1.635   9.065  0.7802 -0.2444 -1.9002
  326MOL0     H44000   2.526   1.657   8.934 -0.7648 -0.9738 -1.0371
  326MOL0     H44001   2.525   1.826   8.949 -0.2349 -1.6443 -0.2299
  326MOL0     H44002   2.360   1.661   8.737  1.4564 -0.9621 -0.8267
  326MOL0     H44003   2.516   1.742   8.735 -0.7980  5.3729 -1.2647
  326MOL0     H44004   2.250   1.873   8.777 -0.3706 -1.6380 -2.6512
  326MOL0     H44005   2.395   1.966   8.776 -2.9766  1.4036  3.2064
  326MOL0     H44006   2.397   1.865   8.366 -0.1461  0.3932  1.1618
  326MOL0     H44007   2.148   1.643   9.184 -1.3393 -0.1409 -0.4747
  326MOL0     H44008   1.974   1.606   9.502 -0.1521 -1.7917 -0.5145
  326MOL0     H44009   1.867   1.643   9.375 -1.4383 -2.6428  2.5681
  326MOL0     H44010   2.019   1.526   9.363  1.0165  0.5898  0.0993
  327MOL0     O44011   7.886   7.422   9.390 -0.1493 -0.1140 -0.5627
  327MOL0     C44012   7.939   7.323   9.337 -0.3990 -0.0861  1.2172
  327MOL0     O44013   8.044   7.248   9.389 -0.3097 -0.1999 -0.0210
  327MOL0     C44014   8.129   7.305   9.480 -0.7873 -0.0981  0.5220
  327MOL0     C44015   8.272   7.307   9.458  0.1758 -0.4541  0.1528
  327MOL0     C44016   8.360   7.360   9.543 -0.3872  0.5587 -0.0310
  327MOL0     C44017   8.317   7.442   9.654 -0.1926  0.3370 -0.1412
  327MOL0     O44018   8.393   7.483   9.753 -0.1451  0.2243 -0.0547
  327MOL0     C44019   8.528   7.449   9.750 -0.0254  1.0732 -0.6314
  327MOL0     C44020   8.592   7.485   9.881  0.2937 -0.1101 -0.4333
  327MOL0     C44021   8.538   7.392   9.998  0.1134 -0.6722  0.1032
  327MOL0     C44022   8.634   7.384  10.117 -0.5000 -0.0280 -0.0338
  327MOL0     C44023   8.579   7.285  10.217 -0.2963 -0.0434 -0.1026
  327MOL0     C44024   8.676   7.274  10.342 -0.2309  0.3081 -0.1217
  327MOL0     C44025   8.806   7.208  10.307  0.1615 -0.1843 -0.2681
  327MOL0     C44026   8.884   7.169  10.434  1.0085  0.3009  0.1983
  327MOL0     N44027   9.026   7.146  10.412 -0.1022  0.2545 -0.3393
  327MOL0     C44028   9.105   7.088  10.503 -0.1868  0.7276  0.5439
  327MOL0     C44029   9.205   7.037  10.431 -1.0804  0.2334  0.1308
  327MOL0     C44030   9.296   6.929  10.485  0.0294 -0.0465  0.1185
  327MOL0     C44031   9.410   6.992  10.567  0.0650 -0.0332  0.1334
  327MOL0     C44032   9.449   6.881  10.664 -0.6944  0.2798 -0.2117
  327MOL0     C44033   9.567   6.962  10.744  1.1134  0.4492 -0.0117
  327MOL0     O44034   9.623   6.868  10.844  0.1004  1.3844 -0.3388
  327MOL0     C44035   9.760   6.866  10.838 -0.1270 -0.4565  0.0658
  327MOL0     C44036   9.829   6.752  10.809 -0.0793 -0.5457  0.3969
  327MOL0     C44037   9.967   6.758  10.777  0.8693 -0.1716 -0.5867
  327MOL0     C44038  10.044   6.873  10.805  0.8081  0.3186 -0.7290
  327MOL0     C44039  10.189   6.869  10.783 -0.2990 -0.8251  0.5128
  327MOL0     O44040  10.243   6.744  10.760 -0.2687  0.4091  1.1498
  327MOL0     C44041  10.355   6.737  10.686 -0.9802  0.7911  0.4473
  327MOL0     C44042  10.426   6.614  10.693 -0.1358  0.0736 -0.3760
  327MOL0     C44043  10.544   6.584  10.622 -0.0288 -0.7813  0.6714
  327MOL0     C44044  10.580   6.667  10.514 -0.4938  0.7761 -1.4368
  327MOL0     O44045  10.673   6.634  10.420  1.0878 -1.5834  0.0225
  327MOL0     C44046  10.712   6.500  10.416 -0.8166 -0.3748  0.4187
  327MOL0     C44047  10.805   6.479  10.300  0.0408  0.4278  0.6174
  327MOL0     C44048  10.853   6.333  10.286 -0.2280  0.0680 -0.4483
  327MOL0     C44049  10.999   6.308  10.329  0.1238  0.2577  0.3802
  327MOL0     C44050  11.046   6.164  10.303 -0.0550  0.2520  0.3956
  327MOL0     C44051  11.057   6.141  10.143  0.5521 -0.3528 -0.0814
  327MOL0     C44052  11.111   5.995  10.109  0.0224  0.3692 -0.5850
  327MOL0     C44053  11.142   5.992   9.957  0.1275  0.3031 -0.3608
  327MOL0    Cl44054  11.270   6.105   9.901 -0.1705  0.0889  0.2198
  327MOL0     C44055  10.516   6.791  10.499 -0.2660  0.4408 -0.5058
  327MOL0     C44056  10.412   6.830  10.583 -0.0414 -0.0615 -0.4914
  327MOL0     O44057  10.249   6.976  10.795 -0.4895 -0.7067 -0.2796
  327MOL0     C44058   9.975   6.986  10.844 -0.4453  0.1854 -0.2401
  327MOL0     C44059   9.830   6.980  10.857 -0.9666 -0.6481 -0.3674
  327MOL0     N44060   9.198   7.067  10.304  0.4765  1.0111  0.2080
  327MOL0     N44061   9.086   7.126  10.289 -0.1709  0.2344  0.0253
  327MOL0     C44062   8.182   7.450   9.671  0.2356 -0.6981  0.0687
  327MOL0     C44063   8.093   7.374   9.595 -0.5962  1.2660  0.7225
  327MOL0     C44064   7.878   7.272   9.216 -0.3042 -0.4020  0.7239
  327MOL0     C44065   7.874   7.136   9.191 -0.2928  0.8485  0.1226
  327MOL0     C44066   7.831   7.085   9.071 -0.3824  0.5074  0.3539
  327MOL0     C44067   7.774   7.167   8.970 -0.0574 -0.2352 -0.0240
  327MOL0     O44068   7.705   7.132   8.857 -0.0085  0.2397 -0.0277
  327MOL0     C44069   7.701   6.998   8.809  0.8280 -0.2252 -0.9587
  327MOL0     C44070   7.560   6.947   8.800  0.0636  0.6107 -0.3507
  327MOL0     C44071   7.497   6.924   8.944 -0.3163 -0.5946 -0.6496
  327MOL0     C44072   7.372   6.841   8.930  0.7691  0.1300  0.5948
  327MOL0     C44073   7.399   6.699   8.940  0.5952  0.2145  0.4304
  327MOL0     C44074   7.430   6.578   8.925  0.1508 -0.0773  0.5182
  327MOL0     C44075   7.765   7.301   9.000  0.4895  0.2325 -0.5270
  327MOL0     C44076   7.834   7.357   9.113  0.3439  0.4079 -0.1006
  327MOL0     C44077   7.832   7.509   9.130  0.2409 -0.0794 -0.2971
  327MOL0     H44078   8.313   7.251   9.376  2.0018 -2.8484  2.5359
  327MOL0     H44079   8.468   7.361   9.532 -0.5787 -0.8694 -3.2755
  327MOL0     H44080   8.547   7.341   9.744  1.0201  1.1658  0.6096
  327MOL0     H44081   8.568   7.500   9.663 -1.6223  3.2430 -0.1720
  327MOL0     H44082   8.569   7.590   9.903 -1.4076 -0.7561  1.2258
  327MOL0     H44083   8.699   7.468   9.866  0.4177  0.7059 -0.5396
  327MOL0     H44084   8.505   7.298   9.954 -3.7175  1.1725 -1.4478
  327MOL0     H44085   8.447   7.436  10.042  0.2290  0.3686 -0.6454
  327MOL0     H44086   8.734   7.351  10.086  0.8310  1.0183  2.8023
  327MOL0     H44087   8.654   7.484  10.156  1.9778 -0.1579 -0.7994
  327MOL0     H44088   8.481   7.323  10.245  0.7849  1.3867  1.9515
  327MOL0     H44089   8.572   7.186  10.169 -2.8802  0.6992 -1.3933
  327MOL0     H44090   8.691   7.374  10.384  1.9050  0.1049 -0.3259
  327MOL0     H44091   8.636   7.207  10.419  2.4934  0.5434  1.6177
  327MOL0     H44092   8.874   7.275  10.256 -2.1181  1.6378 -1.0934
  327MOL0     H44093   8.782   7.118  10.249  1.3590 -0.9431  0.3882
  327MOL0     H44094   8.869   7.235  10.520 -0.4007 -0.9089  0.9269
  327MOL0     H44095   8.840   7.076  10.471  1.1255  1.3633  3.3398
  327MOL0     H44096   9.083   7.067  10.607 -2.2310 -0.4211 -0.0554
  327MOL0     H44097   9.231   6.864  10.544  2.0097 -0.7137  1.6704
  327MOL0     H44098   9.320   6.874  10.394 -1.7787 -2.8208  1.1581
  327MOL0     H44099   9.496   7.015  10.503  1.2324 -0.3187  1.5633
  327MOL0     H44100   9.372   7.078  10.621  2.2645  0.1588  1.5045
  327MOL0     H44101   9.486   6.789  10.618 -2.0423 -1.1204  1.3973
  327MOL0     H44102   9.369   6.857  10.733  2.0382 -2.6352  2.2541
  327MOL0     H44103   9.527   7.046  10.800  2.8074  1.8986 -0.8872
  327MOL0     H44104   9.645   6.998  10.676  1.6304 -2.3364 -1.0453
  327MOL0     H44105   9.759   6.669  10.810 -0.1951 -0.4470  1.7206
  327MOL0     H44106  10.007   6.673  10.723 -1.4555 -1.1126 -0.9554
  327MOL0     H44107  10.380   6.545  10.762 -2.6025  0.7743 -1.1966
  327MOL0     H44108  10.585   6.485  10.641  0.1675 -0.8619 -0.1586
  327MOL0     H44109  10.779   6.493  10.503  1.3502 -0.9634 -1.2037
  327MOL0     H44110  10.628   6.431  10.405 -2.3347  1.2425  1.4225
  327MOL0     H44111  10.750   6.502  10.208  1.8353 -0.0339 -0.6199
  327MOL0     H44112  10.880   6.557  10.305  2.6112 -1.8747  0.4114
  327MOL0     H44113  10.792   6.259  10.338  2.4664 -2.1748 -0.2396
  327MOL0     H44114  10.838   6.297  10.184 -1.4667  0.1127 -0.2965
  327MOL0     H44115  11.017   6.341  10.432  0.9845  1.9565 -0.2675
  327MOL0     H44116  11.055   6.384  10.273  2.1192 -2.2896 -1.3161
  327MOL0     H44117  10.976   6.096  10.352 -0.0270  0.6056  0.9323
  327MOL0     H44118  11.144   6.144  10.346 -0.5493 -0.4787  1.2136
  327MOL0     H44119  10.957   6.158  10.101 -0.9103 -0.0399  3.2356
  327MOL0     H44120  11.120   6.218  10.098  0.4119  0.7034  1.4419
  327MOL0     H44121  11.030   5.925  10.133 -0.8604  1.5684  0.0172
  327MOL0     H44122  11.195   5.963  10.171 -1.2094 -0.3069  0.8179
  327MOL0     H44123  11.161   5.886   9.936 -0.8270  0.0170  0.1609
  327MOL0     H44124  11.051   6.003   9.898 -0.4342  0.4243  0.4988
  327MOL0     H44125  10.559   6.862  10.428 -2.6453 -0.0950 -2.6454
  327MOL0     H44126  10.363   6.926  10.566 -1.3472 -0.5884  0.1455
  327MOL0     H44127  10.010   7.085  10.873  0.4783 -0.1717 -0.1064
  327MOL0     H44128   9.781   7.072  10.886 -0.4237 -1.3954  3.4630
  327MOL0     H44129   8.138   7.503   9.755  1.6937 -1.1766  1.1857
  327MOL0     H44130   7.987   7.371   9.620 -0.2107  0.6789  2.4748
  327MOL0     H44131   7.920   7.069   9.263  2.7189 -0.2200 -2.5074
  327MOL0     H44132   7.830   6.976   9.063  1.0554  0.2596  2.6944
  327MOL0     H44133   7.763   6.933   8.871  0.8870 -2.7115 -3.4240
  327MOL0     H44134   7.744   6.983   8.710  0.3323 -3.5839 -0.7582
  327MOL0     H44135   7.566   6.858   8.737 -5.1239 -0.2512 -0.0597
  327MOL0     H44136   7.504   7.014   8.735  2.5844 -0.0906 -3.4653
  327MOL0     H44137   7.473   7.015   8.999  1.7510  0.1852 -0.9605
  327MOL0     H44138   7.569   6.864   9.000  0.4876  0.8713 -0.0751
  327MOL0     H44139   7.300   6.858   9.010  0.8663  2.6119  0.2374
  327MOL0     H44140   7.320   6.860   8.835  2.3007  2.3943  0.0999
  327MOL0     H44141   7.440   6.471   8.924  0.9381 -0.1108  3.3519
  327MOL0     H44142   7.716   7.378   8.942 -0.9980 -1.2136 -1.3022
  327MOL0     H44143   7.764   7.550   9.205  0.6683  0.6841 -0.3041
  327MOL0     H44144   7.934   7.545   9.150  0.7409 -2.1654  1.1896
  327MOL0     H44145   7.795   7.548   9.034 -0.4298  2.1436  0.7847
  328MOL0     O44146   9.506   8.821   2.635 -0.2147 -0.0974  0.1282
  328MOL0     C44147   9.383   8.814   2.610 -0.8098 -0.1131 -0.0696
  328MOL0     O44148   9.304   8.703   2.619  0.7115 -0.9451  0.5552
  328MOL0     C44149   9.333   8.611   2.715 -0.8549  0.4335 -0.2689
  328MOL0     C44150   9.392   8.642   2.839 -0.7368 -0.2685  0.2113
  328MOL0     C44151   9.417   8.537   2.933 -0.8382  0.4918 -0.1420
  328MOL0     C44152   9.391   8.404   2.901  0.1110  0.5261 -0.6163
  328MOL0     O44153   9.400   8.299   2.993 -0.4490 -0.4001 -0.4294
  328MOL0     C44154   9.303   8.307   3.099  0.4008  0.5583 -0.3197
  328MOL0     C44155   9.344   8.222   3.215 -0.4531 -0.1446 -0.5170
  328MOL0     C44156   9.380   8.079   3.195 -0.9808 -0.2523 -0.0516
  328MOL0     C44157   9.441   8.022   3.318  0.1691  1.0201 -0.9530
  328MOL0     C44158   9.491   7.879   3.303  0.3035 -0.0166  0.6903
  328MOL0     C44159   9.381   7.773   3.274 -0.3862  0.5138 -0.7217
  328MOL0     C44160   9.326   7.739   3.419 -0.0140 -0.0327  1.1506
  328MOL0     C44161   9.217   7.635   3.408  0.3896  0.0216 -0.0169
  328MOL0     N44162   9.260   7.500   3.453 -0.9726  0.0338  1.4827
  328MOL0     C44163   9.261   7.472   3.589 -0.2323 -0.3015  0.6310
  328MOL0     C44164   9.320   7.348   3.592  0.8422 -0.2999  0.6503
  328MOL0     C44165   9.376   7.273   3.703 -1.4221  0.5047 -0.0759
  328MOL0     C44166   9.359   7.340   3.844  0.4662 -0.1363  1.3730
  328MOL0     C44167   9.233   7.315   3.912 -0.8553  0.5378  0.8604
  328MOL0     C44168   9.229   7.182   3.969 -0.1274 -0.3701  0.1307
  328MOL0     O44169   9.314   7.158   4.078 -0.0089  0.3237 -0.6761
  328MOL0     C44170   9.300   7.226   4.195 -0.4895  0.2341  0.4216
  328MOL0     C44171   9.200   7.320   4.233  0.6186 -0.2603  0.1860
  328MOL0     C44172   9.202   7.371   4.368  0.6006 -0.7805  1.0048
  328MOL0     C44173   9.299   7.327   4.454  0.0348  0.2937 -0.3611
  328MOL0     C44174   9.304   7.395   4.579 -0.0265 -0.2528  0.2556
  328MOL0     O44175   9.205   7.475   4.616 -0.1079  0.2684  0.4375
  328MOL0     C44176   9.208   7.569   4.721  0.1245  0.7304  0.2480
  328MOL0     C44177   9.316   7.664   4.741  0.3985 -0.2969  0.3640
  328MOL0     C44178   9.309   7.753   4.848 -0.9650  0.6419 -0.3708
  328MOL0     C44179   9.191   7.777   4.916 -0.2342  0.5096  0.5159
  328MOL0     O44180   9.176   7.873   5.019  0.4987  0.2988  0.3345
  328MOL0     C44181   9.235   8.000   4.990  0.6336 -0.8917  0.2618
  328MOL0     C44182   9.214   8.090   5.104 -0.7867 -0.8391 -0.0249
  328MOL0     C44183   9.287   8.063   5.237  0.3491  0.0209  0.3995
  328MOL0     C44184   9.435   8.085   5.233  0.8125 -0.6781 -0.1807
  328MOL0     C44185   9.493   8.045   5.367  0.4601  0.3476 -0.7299
  328MOL0     C44186   9.644   8.053   5.367 -0.4702  0.3275 -0.1025
  328MOL0     C44187   9.720   7.978   5.477  0.0287 -0.3039  0.9173
  328MOL0     C44188   9.874   8.023   5.487  0.1643  0.2378  0.1389
  328MOL0    Cl44189   9.965   7.932   5.607 -0.1145 -0.3801 -0.0553
  328MOL0     C44190   9.080   7.691   4.896 -0.0792 -0.9080 -0.4334
  328MOL0     C44191   9.096   7.590   4.801 -0.7308  0.2452  0.1569
  328MOL0     O44192   9.404   7.372   4.651  0.4881 -0.8173 -0.7620
  328MOL0     C44193   9.400   7.227   4.420  0.0444  0.0135 -0.2405
  328MOL0     C44194   9.401   7.182   4.288 -0.6184 -0.0574  0.0314
  328MOL0     N44195   9.341   7.309   3.457  0.1898  0.4750  0.0884
  328MOL0     N44196   9.306   7.405   3.373  0.9142  0.0152 -0.2162
  328MOL0     C44197   9.325   8.374   2.780 -0.1118 -1.0703 -0.8832
  328MOL0     C44198   9.312   8.476   2.682 -0.0036  0.2665 -0.0056
  328MOL0     C44199   9.334   8.938   2.557  0.7982 -0.7436  0.6793
  328MOL0     C44200   9.374   8.976   2.424  0.3578  0.6339 -0.0762
  328MOL0     C44201   9.313   9.091   2.374 -0.5674  0.3325 -0.7241
  328MOL0     C44202   9.208   9.158   2.443  0.4485 -0.4184  0.0071
  328MOL0     O44203   9.140   9.262   2.385 -0.7084  0.6997 -0.7425
  328MOL0     C44204   9.193   9.330   2.270  0.0295  1.0073 -0.1810
  328MOL0     C44205   9.096   9.450   2.250  0.0321 -0.2838 -0.6409
  328MOL0     C44206   8.937   9.426   2.230  0.8035 -0.1153  0.2780
  328MOL0     C44207   8.891   9.365   2.096  0.7192  0.1746 -0.6999
  328MOL0     C44208   8.744   9.348   2.093 -0.2451  0.5942 -0.4524
  328MOL0     C44209   8.621   9.350   2.096  0.1893 -0.4720  0.3573
  328MOL0     C44210   9.163   9.113   2.568  0.1299 -0.1816 -0.9503
  328MOL0     C44211   9.226   9.009   2.637 -0.4844  0.2186  0.3208
  328MOL0     C44212   9.180   8.963   2.776 -0.4161  0.3592  0.2677
  328MOL0     H44213   9.433   8.741   2.858 -0.2315 -0.6409  1.1130
  328MOL0     H44214   9.464   8.560   3.027  0.1405  2.1020 -0.9853
  328MOL0     H44215   9.283   8.409   3.133 -1.6421  1.6263 -4.0976
  328MOL0     H44216   9.208   8.278   3.051  1.0856 -0.9381 -0.8158
  328MOL0     H44217   9.267   8.217   3.292  0.6729  0.5438  0.7034
  328MOL0     H44218   9.433   8.271   3.256 -0.9518  0.2545  0.1190
  328MOL0     H44219   9.447   8.073   3.108  2.2782 -0.3557  2.2635
  328MOL0     H44220   9.290   8.022   3.171 -1.6810 -0.1348  2.0862
  328MOL0     H44221   9.517   8.073   3.378 -2.9019  2.6004  1.9155
  328MOL0     H44222   9.367   8.018   3.399  2.5454 -0.3544  1.3178
  328MOL0     H44223   9.560   7.865   3.219 -0.1190  0.3506  0.2731
  328MOL0     H44224   9.544   7.854   3.395 -1.4291 -0.5540  1.5936
  328MOL0     H44225   9.296   7.800   3.211 -4.0975 -1.8785  2.6962
  328MOL0     H44226   9.429   7.686   3.228 -0.2436  0.2161 -0.0363
  328MOL0     H44227   9.262   7.819   3.459 -1.8175  0.1763 -1.8570
  328MOL0     H44228   9.407   7.717   3.489  1.0184  1.0347  0.3196
  328MOL0     H44229   9.149   7.660   3.490  1.3677  0.0382  0.8104
  328MOL0     H44230   9.161   7.636   3.315 -0.9600 -2.9284  0.6649
  328MOL0     H44231   9.243   7.533   3.677  4.1097  0.2784  1.2961
  328MOL0     H44232   9.325   7.177   3.692  0.3723 -0.3487 -1.4521
  328MOL0     H44233   9.483   7.259   3.685 -0.6089 -0.1141  4.0725
  328MOL0     H44234   9.439   7.317   3.915  2.7166  1.4315 -0.4656
  328MOL0     H44235   9.372   7.447   3.825  2.8369 -0.3148  1.6453
  328MOL0     H44236   9.152   7.321   3.840  0.3327 -3.1159 -1.0343
  328MOL0     H44237   9.217   7.392   3.988  0.1232 -0.5479  2.2241
  328MOL0     H44238   9.245   7.108   3.891 -0.0868 -1.7720  1.4163
  328MOL0     H44239   9.127   7.161   4.003 -2.1098  2.1731 -3.5943
  328MOL0     H44240   9.118   7.348   4.167  2.3660  1.8858 -1.2286
  328MOL0     H44241   9.132   7.449   4.396 -0.8725 -2.6188  2.6514
  328MOL0     H44242   9.400   7.665   4.673 -0.6843 -0.0829 -1.0250
  328MOL0     H44243   9.398   7.814   4.852  0.7440 -1.6996 -0.7919
  328MOL0     H44244   9.343   7.982   4.977  0.0556 -2.7971 -3.1401
  328MOL0     H44245   9.178   8.038   4.905 -2.2856 -0.0636  2.4375
  328MOL0     H44246   9.252   8.187   5.072  1.9085 -1.0815  2.0260
  328MOL0     H44247   9.105   8.093   5.116 -1.1881 -0.7616 -2.8822
  328MOL0     H44248   9.228   8.115   5.312 -0.8288 -0.1536 -0.3872
  328MOL0     H44249   9.279   7.958   5.267 -3.7779  1.1408  4.3044
  328MOL0     H44250   9.462   8.187   5.204 -1.3667 -0.3794 -1.3201
  328MOL0     H44251   9.484   8.026   5.155  1.0538 -1.0918  0.2746
  328MOL0     H44252   9.465   7.943   5.395  1.1355 -0.2318 -2.0660
  328MOL0     H44253   9.450   8.111   5.443 -2.6179 -2.2223 -0.0331
  328MOL0     H44254   9.682   7.999   5.280  0.0698 -1.0469  0.9512
  328MOL0     H44255   9.682   8.156   5.364  0.6099 -0.0518  0.1085
  328MOL0     H44256   9.729   7.871   5.455  2.4596 -0.3896  1.9995
  328MOL0     H44257   9.675   7.980   5.576  1.0317  0.5259  1.3695
  328MOL0     H44258   9.926   8.002   5.393 -1.0835  0.0281 -0.5283
  328MOL0     H44259   9.884   8.127   5.521 -1.0226  0.6984 -0.8526
  328MOL0     H44260   8.989   7.711   4.951  1.0465  1.6563  0.6741
  328MOL0     H44261   9.016   7.518   4.782  1.7930 -1.8489 -4.1433
  328MOL0     H44262   9.473   7.188   4.490  2.7208  0.5792 -2.5436
  328MOL0     H44263   9.481   7.123   4.244  0.3530  0.7089  0.7346
  328MOL0     H44264   9.299   8.273   2.751  1.4284 -2.0655  0.9607
  328MOL0     H44265   9.263   8.446   2.591  0.9486 -4.1024  0.7068
  328MOL0     H44266   9.461   8.935   2.375 -1.2005 -1.1293 -1.5345
  328MOL0     H44267   9.345   9.118   2.274 -3.6829  0.1760 -1.8964
  328MOL0     H44268   9.170   9.270   2.181 -1.4832  0.8420  0.2885
  328MOL0     H44269   9.297   9.364   2.271  0.4317 -0.1826  1.2441
  328MOL0     H44270   9.139   9.502   2.164  0.9067  0.3634  0.1753
  328MOL0     H44271   9.112   9.517   2.335 -1.5837  0.7436 -1.1004
  328MOL0     H44272   8.878   9.517   2.245 -0.9342 -1.1958  0.2222
  328MOL0     H44273   8.898   9.361   2.309 -3.4821 -0.2639 -1.6759
  328MOL0     H44274   8.930   9.425   2.014 -0.0851  0.1835 -1.0907
  328MOL0     H44275   8.945   9.270   2.088  0.6401  0.0281  0.3652
  328MOL0     H44276   8.514   9.350   2.101  0.2283 -1.6141  3.4706
  328MOL0     H44277   9.103   9.180   2.628 -1.1888 -2.3067  0.2167
  328MOL0     H44278   9.079   8.923   2.767  1.2887 -3.8821 -4.4003
  328MOL0     H44279   9.242   8.888   2.826 -2.0937  0.3621  2.5465
  328MOL0     H44280   9.176   9.045   2.849  1.1386  0.7012 -0.0040
  329MOL0     O44281   9.110   9.518  11.246  0.0192 -0.6006  0.2892
  329MOL0     C44282   9.181   9.451  11.177  0.0922  0.5847  0.4208
  329MOL0     O44283   9.306   9.489  11.137  0.5422  0.3064  0.0987
  329MOL0     C44284   9.362   9.607  11.162 -0.1998 -0.0156  0.2746
  329MOL0     C44285   9.432   9.611  11.281  0.1636 -0.6145  0.3705
  329MOL0     C44286   9.506   9.725  11.324  0.2245 -0.2355 -0.1221
  329MOL0     C44287   9.515   9.832  11.242 -0.1599  0.1554 -1.0563
  329MOL0     O44288   9.566   9.944  11.296 -0.1166  0.4179  0.4045
  329MOL0     C44289   9.470  10.050  11.295 -0.1298 -0.0960 -0.2964
  329MOL0     C44290   9.490  10.134  11.428 -0.1391 -0.8762 -0.1749
  329MOL0     C44291   9.485  10.046  11.558  0.2092 -0.0296 -0.0463
  329MOL0     C44292   9.341   9.998  11.599  0.0206  0.6007  0.3537
  329MOL0     C44293   9.345   9.928  11.732  1.0793  0.2952 -0.0969
  329MOL0     C44294   9.411   9.791  11.721 -0.1463  0.0179  0.2366
  329MOL0     C44295   9.404   9.716  11.849 -0.0957  0.1928  0.0408
  329MOL0     C44296   9.454   9.562  11.838  0.7606 -1.4154 -0.2248
  329MOL0     N44297   9.459   9.513  11.981 -0.5951 -0.6962  0.0472
  329MOL0     C44298   9.362   9.455  12.049  0.4738 -0.4289 -0.9021
  329MOL0     C44299   9.408   9.410  12.163 -0.8932 -1.1482  0.3482
  329MOL0     C44300   9.335   9.325  12.267 -0.0015 -0.1609  0.1347
  329MOL0     C44301   9.430   9.254  12.356 -0.1029 -0.5277 -0.3901
  329MOL0     C44302   9.358   9.169  12.461  0.0582  0.2713 -0.2007
  329MOL0     C44303   9.453   9.110  12.558 -0.5883  0.1492 -0.5255
  329MOL0     O44304   9.509   8.985  12.512 -0.5137 -0.6554 -0.1794
  329MOL0     C44305   9.622   8.953  12.581 -0.3821  0.4179  0.0416
  329MOL0     C44306   9.737   9.028  12.562  0.2645 -0.3279 -0.8475
  329MOL0     C44307   9.841   9.009  12.651  0.1141 -0.8854  0.0678
  329MOL0     C44308   9.835   8.913  12.748 -0.4120 -0.0353  0.7010
  329MOL0     C44309   9.949   8.886  12.844  0.3981  0.8112  0.4481
  329MOL0     O44310   9.922   8.810  12.962 -0.3258 -0.2784  0.1894
  329MOL0     C44311  10.026   8.809  13.056  0.2797  0.6539 -0.3903
  329MOL0     C44312  10.116   8.694  13.059 -0.5723 -0.5679  0.3191
  329MOL0     C44313  10.216   8.694  13.155 -0.5447 -0.3666 -1.8025
  329MOL0     C44314  10.228   8.802  13.247  0.0201 -0.5668  0.4049
  329MOL0     O44315  10.328   8.788  13.348 -0.0872 -0.0623 -0.2637
  329MOL0     C44316  10.336   8.894  13.447 -0.7936 -0.0939  0.0907
  329MOL0     C44317  10.433   8.859  13.560 -0.2526  0.3908  1.1859
  329MOL0     C44318  10.365   8.773  13.664  0.5792  1.1281 -0.2834
  329MOL0     C44319  10.465   8.662  13.731 -1.1923 -0.4542 -0.2010
  329MOL0     C44320  10.558   8.732  13.843  0.4217  0.2936  0.1886
  329MOL0     C44321  10.512   8.679  13.983 -0.7851 -0.7655  0.2295
  329MOL0     C44322  10.610   8.727  14.097  0.5444  0.1406  0.0328
  329MOL0     C44323  10.727   8.637  14.099  0.2455  0.5358  0.6420
  329MOL0    Cl44324  10.843   8.696  14.211 -0.2908  0.6348 -1.2950
  329MOL0     C44325  10.141   8.911  13.236  0.7047 -0.7103  0.3394
  329MOL0     C44326  10.048   8.913  13.141  1.5928  0.0293 -0.7535
  329MOL0     O44327  10.056   8.930  12.821  0.3187 -0.1598  0.2575
  329MOL0     C44328   9.720   8.829  12.759 -0.0378  0.6657  0.0892
  329MOL0     C44329   9.614   8.844  12.668 -0.1742  0.1661 -0.3712
  329MOL0     N44330   9.539   9.457  12.172 -0.9002 -0.4839 -0.2463
  329MOL0     N44331   9.567   9.519  12.062 -0.8382  0.7478  0.5506
  329MOL0     C44332   9.452   9.825  11.118  1.1408 -0.3193 -0.1488
  329MOL0     C44333   9.382   9.717  11.071 -0.2567  0.1076  0.5320
  329MOL0     C44334   9.134   9.323  11.120  0.5536 -0.9112  0.2922
  329MOL0     C44335   9.164   9.292  10.987 -0.4433  0.0795  0.3977
  329MOL0     C44336   9.108   9.177  10.934  0.2039  0.4299 -0.0920
  329MOL0     C44337   9.039   9.084  11.010  0.2073  0.3322 -0.5999
  329MOL0     O44338   8.984   8.967  10.976  0.3766 -0.2615 -0.2385
  329MOL0     C44339   9.027   8.914  10.849  0.0535 -0.0866  0.5905
  329MOL0     C44340   9.163   8.842  10.866 -1.0615 -0.4351 -0.4098
  329MOL0     C44341   9.205   8.757  10.744  0.3587 -0.6152 -0.3442
  329MOL0     C44342   9.306   8.651  10.789  0.0237 -0.6957  0.4848
  329MOL0     C44343   9.430   8.715  10.831  0.2992  0.3272 -0.5053
  329MOL0     C44344   9.534   8.763  10.866 -0.6119  0.3647 -0.1291
  329MOL0     C44345   9.006   9.118  11.135  0.6884  0.6787  0.3047
  329MOL0     C44346   9.043   9.235  11.189 -0.0159 -0.0760  0.2863
  329MOL0     C44347   9.007   9.264  11.332 -0.8990  0.4246  0.0762
  329MOL0     H44348   9.410   9.528  11.347  0.8482 -0.0802  1.2867
  329MOL0     H44349   9.540   9.724  11.427  0.7163 -0.2497 -0.2839
  329MOL0     H44350   9.497  10.104  11.204  1.0259 -1.1550 -0.6043
  329MOL0     H44351   9.366  10.024  11.276 -0.6717  0.4981  1.5822
  329MOL0     H44352   9.402  10.199  11.437  0.4949 -0.2416  1.7822
  329MOL0     H44353   9.585  10.185  11.412  0.5856 -1.4382  2.0962
  329MOL0     H44354   9.519  10.110  11.640  1.4771  0.5226 -0.9661
  329MOL0     H44355   9.561   9.968  11.540 -0.6692 -0.4823 -2.1295
  329MOL0     H44356   9.262  10.074  11.596 -2.4603 -1.8217  0.1131
  329MOL0     H44357   9.316   9.923  11.523  0.1662  0.6662  0.2414
  329MOL0     H44358   9.382   9.993  11.812 -1.9202 -0.8040  2.3552
  329MOL0     H44359   9.241   9.903  11.754  0.7002  0.3643 -1.7122
  329MOL0     H44360   9.352   9.734  11.649  0.8877  0.0323 -0.6428
  329MOL0     H44361   9.517   9.791  11.694  1.1100 -2.3975  4.3691
  329MOL0     H44362   9.303   9.710  11.892  1.1450  0.4564  3.2194
  329MOL0     H44363   9.475   9.761  11.919  2.5678 -0.7558 -1.8764
  329MOL0     H44364   9.392   9.501  11.772 -5.0451  0.6513  2.6111
  329MOL0     H44365   9.554   9.572  11.794  0.6001 -1.2889 -0.5693
  329MOL0     H44366   9.261   9.434  12.015  0.4961  0.7846 -1.7943
  329MOL0     H44367   9.266   9.388  12.324  0.2667  0.7542 -0.5224
  329MOL0     H44368   9.271   9.252  12.218  1.4092 -0.9138 -0.6508
  329MOL0     H44369   9.487   9.186  12.292  0.5712  1.9836 -2.6393
  329MOL0     H44370   9.492   9.330  12.403 -0.0770  2.0753 -4.1742
  329MOL0     H44371   9.277   9.106  12.424 -1.7925  4.1265 -3.5676
  329MOL0     H44372   9.307   9.240  12.528  1.1730  0.7269  0.1899
  329MOL0     H44373   9.393   9.093  12.648 -1.1306  0.6980 -0.7755
  329MOL0     H44374   9.533   9.182  12.580  0.6127 -1.4574  0.5656
  329MOL0     H44375   9.752   9.094  12.477  1.2751 -0.4495 -0.7742
  329MOL0     H44376   9.927   9.075  12.642 -2.6210  3.0003 -0.0872
  329MOL0     H44377  10.109   8.616  12.984 -3.0615  0.7040 -0.8990
  329MOL0     H44378  10.283   8.609  13.161  0.6547  0.5888 -1.1461
  329MOL0     H44379  10.367   8.986  13.396  1.7541 -0.0973  1.4524
  329MOL0     H44380  10.242   8.920  13.497  0.6831  0.1495  2.9260
  329MOL0     H44381  10.511   8.804  13.507  0.3063  0.7846  1.5796
  329MOL0     H44382  10.458   8.953  13.610  1.1453 -1.0493  3.3804
  329MOL0     H44383  10.317   8.828  13.745  0.1660 -1.5151  1.4000
  329MOL0     H44384  10.288   8.715  13.612  1.6346  1.1649 -1.9875
  329MOL0     H44385  10.526   8.611  13.656 -2.9909  1.5187 -3.2291
  329MOL0     H44386  10.410   8.580  13.777 -0.3066 -1.1663 -0.3780
  329MOL0     H44387  10.549   8.841  13.832 -1.1539 -0.0486 -4.2850
  329MOL0     H44388  10.665   8.718  13.830  0.4709 -0.7642  1.5267
  329MOL0     H44389  10.408   8.712  13.994  0.0691  1.7693  1.3637
  329MOL0     H44390  10.528   8.571  13.989  0.4743 -0.5537  0.9580
  329MOL0     H44391  10.552   8.735  14.190 -1.0123  1.9514 -1.0262
  329MOL0     H44392  10.643   8.830  14.083  2.4201  0.0138  2.7176
  329MOL0     H44393  10.710   8.531  14.117 -0.1817  0.6059  0.6468
  329MOL0     H44394  10.779   8.635  14.002 -2.3716 -2.8019 -0.9107
  329MOL0     H44395  10.136   8.991  13.309 -4.0730  1.0249 -1.4479
  329MOL0     H44396   9.973   8.991  13.131  0.1667 -0.7574  2.4629
  329MOL0     H44397   9.709   8.765  12.846  1.3762  2.7397  1.8804
  329MOL0     H44398   9.512   8.809  12.685  0.5663 -2.4571 -0.9695
  329MOL0     H44399   9.438   9.906  11.047 -0.3065 -0.9942 -0.6755
  329MOL0     H44400   9.365   9.720  10.964  2.1074 -2.5588 -0.0622
  329MOL0     H44401   9.223   9.353  10.920  0.1323  0.4657  1.2419
  329MOL0     H44402   9.125   9.163  10.828  0.1548  0.3727 -0.0915
  329MOL0     H44403   9.025   8.989  10.769  1.7107  0.8781  1.3952
  329MOL0     H44404   8.944   8.843  10.836 -1.4190  1.1155  2.7821
  329MOL0     H44405   9.158   8.769  10.947  0.4702 -1.0605 -0.8506
  329MOL0     H44406   9.237   8.918  10.889 -3.5427  2.2591 -0.6912
  329MOL0     H44407   9.259   8.827  10.680  0.3356  2.3234  2.6128
  329MOL0     H44408   9.119   8.707  10.699  0.8622 -2.4836  0.6752
  329MOL0     H44409   9.262   8.595  10.871 -1.5268  2.7155  2.1585
  329MOL0     H44410   9.334   8.585  10.706 -0.5408 -1.5544  0.9652
  329MOL0     H44411   9.630   8.803  10.889 -1.4792  1.6991  1.3326
  329MOL0     H44412   8.943   9.057  11.198  0.6706  1.0067  0.6043
  329MOL0     H44413   8.956   9.191  11.395 -2.1126  2.1264  1.1732
  329MOL0     H44414   9.092   9.301  11.391 -1.2581  3.9119 -1.3448
  329MOL0     H44415   8.937   9.348  11.335 -3.4173 -1.5829  1.2747
  330MOL0     O44416   7.964   1.374   6.483  0.2653  0.2202 -1.2354
  330MOL0     C44417   7.965   1.400   6.364  0.5671  0.7894 -0.1214
  330MOL0     O44418   8.043   1.499   6.306  0.7905 -0.5111  0.2904
  330MOL0     C44419   8.093   1.602   6.388 -0.6680  0.2055  0.3375
  330MOL0     C44420   8.220   1.573   6.451  0.9527  0.1929  0.4242
  330MOL0     C44421   8.275   1.689   6.521  0.1258  0.1086 -0.1622
  330MOL0     C44422   8.221   1.819   6.520 -0.5350 -0.3450  0.5258
  330MOL0     O44423   8.284   1.920   6.591  0.4996 -0.2540  0.2147
  330MOL0     C44424   8.251   2.057   6.561 -0.3135 -0.1137 -0.2255
  330MOL0     C44425   8.308   2.162   6.646  0.4193 -0.8698  0.1565
  330MOL0     C44426   8.282   2.154   6.803 -0.7471 -0.2329 -0.2589
  330MOL0     C44427   8.356   2.260   6.896 -0.1115  0.3518 -0.5748
  330MOL0     C44428   8.281   2.399   6.885  0.7397 -0.5606  0.6332
  330MOL0     C44429   8.325   2.505   6.996 -0.5306  0.5265 -0.8278
  330MOL0     C44430   8.230   2.625   7.001 -0.4726  1.1400 -0.4232
  330MOL0     C44431   8.282   2.720   7.101  0.1911  0.6625 -0.0946
  330MOL0     N44432   8.175   2.815   7.132 -0.0359 -0.1948 -0.2901
  330MOL0     C44433   8.129   2.850   7.263 -0.0228 -1.1793 -0.3302
  330MOL0     C44434   8.025   2.941   7.240 -0.5472  0.0455  0.2215
  330MOL0     C44435   7.933   3.022   7.337 -0.1395 -1.0296 -0.7704
  330MOL0     C44436   7.856   2.930   7.427 -0.0560  0.2836  0.3906
  330MOL0     C44437   7.736   2.868   7.359 -0.6038 -0.0457 -0.0047
  330MOL0     C44438   7.645   2.798   7.459  0.5106 -0.2462 -0.0001
  330MOL0     O44439   7.735   2.730   7.540 -0.4238 -0.4154 -0.3668
  330MOL0     C44440   7.694   2.633   7.631 -0.1234 -0.1741  0.1891
  330MOL0     C44441   7.566   2.586   7.654 -0.2972 -0.0786 -1.2112
  330MOL0     C44442   7.521   2.500   7.756  0.3389  0.0218  0.7317
  330MOL0     C44443   7.621   2.453   7.837 -0.9486  0.6135 -1.2907
  330MOL0     C44444   7.588   2.375   7.959 -0.1769  0.0290 -0.0585
  330MOL0     O44445   7.478   2.409   8.026  1.1158  0.1081  0.2847
  330MOL0     C44446   7.439   2.352   8.145 -0.1507  0.3434  0.2209
  330MOL0     C44447   7.305   2.320   8.178  0.3671 -1.0642 -0.0386
  330MOL0     C44448   7.272   2.257   8.301  0.3965 -0.4077 -0.8046
  330MOL0     C44449   7.369   2.244   8.404 -0.2702 -0.3038  0.1979
  330MOL0     O44450   7.343   2.185   8.524 -0.8872 -0.2723 -0.4067
  330MOL0     C44451   7.407   2.059   8.547 -1.2324 -0.8798  0.0510
  330MOL0     C44452   7.345   1.945   8.470  0.5838 -0.0398  0.4240
  330MOL0     C44453   7.391   1.801   8.495 -0.0503  0.0686 -1.0648
  330MOL0     C44454   7.354   1.711   8.380 -0.4053  0.1105  1.0956
  330MOL0     C44455   7.430   1.573   8.370  0.6900  0.7669  0.2973
  330MOL0     C44456   7.580   1.565   8.362  0.3152  0.2262  0.0103
  330MOL0     C44457   7.621   1.421   8.341  0.4888  0.5875  0.4500
  330MOL0     C44458   7.645   1.392   8.193  0.6238  0.0354  0.3160
  330MOL0    Cl44459   7.494   1.343   8.114  0.5006  0.3639 -0.1842
  330MOL0     C44460   7.500   2.287   8.369  0.9930  0.3009 -0.8759
  330MOL0     C44461   7.533   2.327   8.245  0.1190  0.1719  0.9361
  330MOL0     O44462   7.652   2.270   7.973 -0.3284  0.1511  0.3295
  330MOL0     C44463   7.754   2.484   7.816  0.2908 -0.8414  0.0500
  330MOL0     C44464   7.794   2.574   7.708 -0.4675  0.6572 -0.3447
  330MOL0     N44465   8.031   2.967   7.102 -0.0418 -0.1856  0.0067
  330MOL0     N44466   8.127   2.899   7.046  1.0278 -1.5698 -0.3649
  330MOL0     C44467   8.100   1.837   6.432 -0.2782  0.1872 -0.8928
  330MOL0     C44468   8.042   1.730   6.377  0.8569  0.3499  0.2958
  330MOL0     C44469   7.897   1.300   6.279  1.0548 -0.6212 -0.0014
  330MOL0     C44470   7.785   1.233   6.335 -0.0615  0.0330 -0.5532
  330MOL0     C44471   7.709   1.143   6.260 -0.1056  0.3622 -0.7979
  330MOL0     C44472   7.737   1.123   6.127 -0.3763  0.3692 -0.4778
  330MOL0     O44473   7.665   1.033   6.062 -0.2271  0.3091  0.5564
  330MOL0     C44474   7.532   1.077   6.026 -0.5831  0.5138  0.0733
  330MOL0     C44475   7.473   1.020   5.894 -0.4151  0.2372 -0.0296
  330MOL0     C44476   7.452   0.868   5.894  0.3412 -0.1767  0.5901
  330MOL0     C44477   7.355   0.840   5.777  1.0163  0.0705 -0.1768
  330MOL0     C44478   7.224   0.791   5.835  0.1604  0.1964  0.1324
  330MOL0     C44479   7.127   0.752   5.902 -0.6947  0.5509 -0.1832
  330MOL0     C44480   7.851   1.184   6.068  1.0061  0.1010  0.3727
  330MOL0     C44481   7.932   1.268   6.149  0.5385 -0.6696 -0.2861
  330MOL0     C44482   8.061   1.322   6.074  0.3148  0.9945  0.2650
  330MOL0     H44483   8.264   1.474   6.458  1.3231  0.3825  0.7910
  330MOL0     H44484   8.376   1.683   6.560 -0.7812 -1.1512  2.1634
  330MOL0     H44485   8.259   2.079   6.455 -2.0615 -0.8693 -0.5478
  330MOL0     H44486   8.142   2.067   6.569 -0.4416 -1.3179 -0.2381
  330MOL0     H44487   8.252   2.250   6.612 -0.6384 -0.6393  2.3244
  330MOL0     H44488   8.414   2.172   6.621 -0.2972  0.9646 -2.6037
  330MOL0     H44489   8.316   2.053   6.829 -2.7293 -1.0127 -0.5763
  330MOL0     H44490   8.173   2.152   6.804 -0.8080 -2.6990  2.3976
  330MOL0     H44491   8.358   2.215   6.996 -1.9777  0.4263 -0.4669
  330MOL0     H44492   8.460   2.272   6.864 -0.4698 -1.4771 -2.7710
  330MOL0     H44493   8.301   2.438   6.784  0.6302  3.1612  1.8944
  330MOL0     H44494   8.173   2.388   6.893  0.6121 -0.3297 -0.5101
  330MOL0     H44495   8.323   2.456   7.094 -0.0770  3.0612  0.5062
  330MOL0     H44496   8.430   2.523   6.971 -0.5536  0.7991 -0.7266
  330MOL0     H44497   8.129   2.586   7.020 -0.2102  0.1154 -1.0728
  330MOL0     H44498   8.222   2.674   6.903 -0.6168 -1.4043 -1.7624
  330MOL0     H44499   8.294   2.665   7.194  2.2531 -3.4690 -2.5040
  330MOL0     H44500   8.373   2.773   7.072  2.1804 -2.3132  0.2642
  330MOL0     H44501   8.158   2.810   7.360 -3.0882 -2.1062  0.3222
  330MOL0     H44502   7.982   3.096   7.400  0.3533 -1.8143 -0.2090
  330MOL0     H44503   7.864   3.074   7.270  0.0836 -1.0255 -0.9993
  330MOL0     H44504   7.925   2.857   7.472  0.7752  0.0155 -1.2353
  330MOL0     H44505   7.814   2.998   7.502  1.8020  1.2241  0.6552
  330MOL0     H44506   7.777   2.798   7.285 -0.0536 -0.2766  0.5089
  330MOL0     H44507   7.665   2.933   7.308 -0.3683  0.7624  0.6679
  330MOL0     H44508   7.580   2.728   7.405 -0.8963 -0.8006  2.2956
  330MOL0     H44509   7.581   2.861   7.521  0.0695 -1.8970  1.3131
  330MOL0     H44510   7.482   2.642   7.613 -0.2418 -1.9718 -4.2160
  330MOL0     H44511   7.419   2.472   7.777  0.2777 -2.4644 -2.1908
  330MOL0     H44512   7.234   2.342   8.099  0.5800 -0.9127 -0.1891
  330MOL0     H44513   7.175   2.211   8.320  1.3074 -1.4994  1.5519
  330MOL0     H44514   7.511   2.052   8.511 -1.0672 -2.0697  0.7008
  330MOL0     H44515   7.406   2.038   8.654  1.6981 -1.1943  0.1153
  330MOL0     H44516   7.240   1.932   8.497  0.4720  2.7688  1.6674
  330MOL0     H44517   7.351   1.970   8.363 -0.2814  2.3162  0.8714
  330MOL0     H44518   7.500   1.795   8.498 -0.0013  0.8722 -1.0312
  330MOL0     H44519   7.356   1.767   8.593 -1.0289  0.5494 -1.2275
  330MOL0     H44520   7.382   1.767   8.291  3.9694  0.0876  2.2434
  330MOL0     H44521   7.246   1.699   8.367 -0.3758  0.7314  0.2463
  330MOL0     H44522   7.390   1.525   8.281 -2.7927 -1.6360  2.8948
  330MOL0     H44523   7.407   1.503   8.450  1.9454 -2.4628 -1.9677
  330MOL0     H44524   7.627   1.637   8.294 -1.4709  0.1032 -1.4340
  330MOL0     H44525   7.619   1.600   8.458  3.0046 -0.6308 -0.6808
  330MOL0     H44526   7.555   1.350   8.391 -0.3877 -0.0638 -1.5233
  330MOL0     H44527   7.719   1.402   8.385  0.1261 -0.3635  0.8729
  330MOL0     H44528   7.698   1.474   8.144 -1.9161  2.6010  1.5862
  330MOL0     H44529   7.703   1.299   8.186 -0.2369 -0.6039  1.2806
  330MOL0     H44530   7.580   2.264   8.439 -0.7435 -1.8375  0.5836
  330MOL0     H44531   7.636   2.353   8.220 -0.2877 -0.4199 -1.6737
  330MOL0     H44532   7.831   2.446   7.882  0.7788  1.8445  1.1781
  330MOL0     H44533   7.901   2.591   7.703 -0.0041 -2.0592 -1.7932
  330MOL0     H44534   8.050   1.932   6.416  0.3510  0.1503 -3.4813
  330MOL0     H44535   7.949   1.742   6.322  0.0955  1.7260  1.7782
  330MOL0     H44536   7.757   1.249   6.438 -1.0817 -0.3186 -0.7671
  330MOL0     H44537   7.628   1.088   6.307  0.5112 -0.8766 -1.1332
  330MOL0     H44538   7.539   1.186   6.030  2.4463  0.5032  5.3144
  330MOL0     H44539   7.468   1.037   6.106  0.3662 -0.7776  0.2205
  330MOL0     H44540   7.557   1.036   5.826  0.7910 -1.4540  0.9527
  330MOL0     H44541   7.381   1.067   5.859 -1.3524 -1.2594  0.2857
  330MOL0     H44542   7.419   0.833   5.992  0.7428 -0.0527  0.7702
  330MOL0     H44543   7.544   0.811   5.878  1.0904  0.7519  1.4235
  330MOL0     H44544   7.340   0.922   5.706 -1.1758 -0.9845 -1.0418
  330MOL0     H44545   7.392   0.756   5.717 -1.3080 -0.3437 -1.1489
  330MOL0     H44546   7.042   0.733   5.965  0.0688 -0.5582  0.5464
  330MOL0     H44547   7.869   1.150   5.966  1.3374  1.4547 -0.0327
  330MOL0     H44548   8.045   1.409   6.011  0.2536  1.2125  0.5775
  330MOL0     H44549   8.142   1.340   6.146  0.0842  0.7205  0.5967
  330MOL0     H44550   8.098   1.237   6.016  0.0971 -0.8899  2.6778
  331MOL0     O44551  10.133   7.808  11.392  0.4511  0.5857  0.2800
  331MOL0     C44552  10.016   7.804  11.348 -0.9733 -0.2244 -0.4864
  331MOL0     O44553   9.973   7.859  11.232  0.3120  0.0761 -0.9645
  331MOL0     C44554  10.055   7.877  11.128  0.0917  0.0574 -0.5715
  331MOL0     C44555  10.082   7.768  11.047  0.5427  0.3397 -0.0608
  331MOL0     C44556  10.187   7.775  10.955 -1.2099  0.7675  0.7172
  331MOL0     C44557  10.263   7.887  10.938  0.1138 -0.1162  0.0570
  331MOL0     O44558  10.370   7.908  10.853  0.0920  0.2079 -0.1324
  331MOL0     C44559  10.424   7.792  10.781  0.1225 -0.4507  0.1818
  331MOL0     C44560  10.554   7.836  10.732 -0.8049  1.3202 -1.2174
  331MOL0     C44561  10.652   7.866  10.839  0.5992 -0.6020  0.5192
  331MOL0     C44562  10.791   7.821  10.812  0.4121  0.7516 -0.2277
  331MOL0     C44563  10.870   7.855  10.940  1.0893  0.2200 -0.0097
  331MOL0     C44564  11.015   7.831  10.911  0.2314 -0.3958 -0.0662
  331MOL0     C44565  11.111   7.889  11.013  0.3144  0.3910 -0.4761
  331MOL0     C44566  11.259   7.844  10.973  0.8833  0.0393  0.2545
  331MOL0     N44567  11.292   7.913  10.845  0.0261  0.0314 -0.2481
  331MOL0     C44568  11.287   8.052  10.828  0.2979  0.2753 -0.4850
  331MOL0     C44569  11.325   8.063  10.698  0.8997  0.9716  0.4945
  331MOL0     C44570  11.335   8.195  10.633  0.7491  0.0994  0.5237
  331MOL0     C44571  11.481   8.241  10.611 -1.6047 -1.0267 -0.4065
  331MOL0     C44572  11.555   8.279  10.747  0.3084  0.8447  0.5900
  331MOL0     C44573  11.694   8.352  10.741 -0.2328  0.3931 -0.1526
  331MOL0     O44574  11.729   8.376  10.884  0.3881 -0.1544  0.2154
  331MOL0     C44575  11.826   8.284  10.927  0.6431 -0.2612  0.5652
  331MOL0     C44576  11.967   8.286  10.891  0.1019 -0.8029 -0.4669
  331MOL0     C44577  12.053   8.187  10.938 -0.3379  0.0749 -0.1410
  331MOL0     C44578  12.001   8.080  11.016 -0.6139  1.1290  0.2290
  331MOL0     C44579  12.096   7.976  11.074  0.4970 -0.9892  0.4912
  331MOL0     O44580  12.065   7.925  11.196  0.1283  0.0430 -0.8568
  331MOL0     C44581  12.140   7.810  11.227 -0.5892  0.5797 -0.1451
  331MOL0     C44582  12.081   7.681  11.229 -0.2876  0.8298  0.3628
  331MOL0     C44583  12.157   7.564  11.262  0.6696  0.5363 -0.6278
  331MOL0     C44584  12.293   7.565  11.312 -1.2441  0.1477 -0.8446
  331MOL0     O44585  12.373   7.462  11.355  0.8282  0.2659  0.2729
  331MOL0     C44586  12.290   7.347  11.395  0.6152  0.8475  0.6565
  331MOL0     C44587  12.210   7.352  11.519 -0.0078  0.0275 -0.5649
  331MOL0     C44588  12.289   7.343  11.650 -0.1514  1.2589  0.1805
  331MOL0     C44589  12.200   7.342  11.769  0.4326 -0.5986 -0.0138
  331MOL0     C44590  12.282   7.325  11.905 -1.1328 -0.0133 -0.1741
  331MOL0     C44591  12.197   7.271  12.013 -1.0920 -0.3264  0.4533
  331MOL0     C44592  12.281   7.251  12.140 -0.0181 -0.0863 -0.4669
  331MOL0     C44593  12.199   7.226  12.273  0.1135 -0.3189 -0.0140
  331MOL0    Cl44594  12.091   7.085  12.235 -0.4090 -0.4793 -0.3860
  331MOL0     C44595  12.344   7.694  11.315 -1.1415  0.0149  0.7990
  331MOL0     C44596  12.271   7.813  11.285  0.1763 -0.6907  0.1407
  331MOL0     O44597  12.189   7.943  11.002  0.3586  0.1744  0.4459
  331MOL0     C44598  11.868   8.082  11.053 -0.2199  0.0233 -1.1804
  331MOL0     C44599  11.786   8.179  11.010  1.0681  0.0164 -0.1549
  331MOL0     N44600  11.364   7.944  10.648 -0.0364 -0.2739 -0.1925
  331MOL0     N44601  11.348   7.847  10.736 -0.6748  0.4460  0.3269
  331MOL0     C44602  10.230   8.001  11.011  0.0458  0.9031 -0.5954
  331MOL0     C44603  10.136   7.988  11.115 -0.7341 -0.1176  0.6461
  331MOL0     C44604   9.917   7.749  11.442 -0.1709  1.2256  0.3286
  331MOL0     C44605   9.955   7.723  11.575  1.5430 -0.8463 -0.9476
  331MOL0     C44606   9.860   7.684  11.670 -0.4084  0.1071 -0.2065
  331MOL0     C44607   9.729   7.658  11.629  0.3444  0.0397 -0.5026
  331MOL0     O44608   9.643   7.609  11.733  0.1513  0.3567 -0.5187
  331MOL0     C44609   9.535   7.515  11.704  0.1880  0.0198  0.3283
  331MOL0     C44610   9.566   7.386  11.623 -0.3775  0.1772 -0.1422
  331MOL0     C44611   9.451   7.272  11.622 -0.1658 -0.2005 -0.2721
  331MOL0     C44612   9.334   7.313  11.533 -0.9285  0.1577  0.0405
  331MOL0     C44613   9.235   7.210  11.523  0.7804 -0.2178  0.7849
  331MOL0     C44614   9.143   7.131  11.512  0.1810  0.1208  0.3732
  331MOL0     C44615   9.692   7.691  11.506  0.2070 -0.1640 -0.1213
  331MOL0     C44616   9.782   7.726  11.408 -0.1342  0.6331 -0.2721
  331MOL0     C44617   9.723   7.753  11.270 -1.1804 -0.4332 -0.3606
  331MOL0     H44618  10.022   7.677  11.051  3.0390 -1.4817 -1.1835
  331MOL0     H44619  10.212   7.690  10.893 -1.9129  0.0747  1.3472
  331MOL0     H44620  10.437   7.710  10.851  0.8627  1.7235  2.7241
  331MOL0     H44621  10.356   7.768  10.698 -0.0449 -1.0592  0.4861
  331MOL0     H44622  10.530   7.925  10.673  0.8724  2.3572 -0.4254
  331MOL0     H44623  10.606   7.757  10.677  1.1069  0.3550  1.7464
  331MOL0     H44624  10.622   7.813  10.930  0.1706  0.3318  0.9418
  331MOL0     H44625  10.646   7.971  10.871  0.7803  0.0955 -1.5930
  331MOL0     H44626  10.778   7.715  10.791  0.4274  0.4678  1.0815
  331MOL0     H44627  10.829   7.878  10.727  0.1260  0.6911 -0.3945
  331MOL0     H44628  10.847   7.954  10.979 -0.7710  0.3730 -1.4000
  331MOL0     H44629  10.842   7.780  11.015  0.1864  0.1993 -0.3611
  331MOL0     H44630  11.041   7.727  10.893 -1.0118 -0.4238 -1.9377
  331MOL0     H44631  11.029   7.887  10.818 -0.2259  0.6782  0.4927
  331MOL0     H44632  11.074   7.850  11.108  0.1356  1.1916 -0.2106
  331MOL0     H44633  11.104   7.998  11.018  0.7428  0.6491 -3.3456
  331MOL0     H44634  11.340   7.864  11.044  2.6743 -0.1963 -1.6318
  331MOL0     H44635  11.257   7.734  10.977 -0.1123  0.0221 -0.3343
  331MOL0     H44636  11.245   8.127  10.894  2.6081  1.9572 -0.8135
  331MOL0     H44637  11.286   8.199  10.535  2.2143 -0.0780 -0.2404
  331MOL0     H44638  11.278   8.269  10.690  1.0988  1.9606 -1.4461
  331MOL0     H44639  11.539   8.170  10.553  2.0850  2.3187 -1.2439
  331MOL0     H44640  11.477   8.325  10.541 -2.0084 -1.4828 -0.9411
  331MOL0     H44641  11.548   8.194  10.815  1.8912  2.0212  2.2912
  331MOL0     H44642  11.478   8.348  10.783  1.2278  1.3909  1.5605
  331MOL0     H44643  11.694   8.441  10.677 -0.9128  0.5667  0.0892
  331MOL0     H44644  11.759   8.286  10.683 -2.2172 -1.9112  0.0847
  331MOL0     H44645  12.011   8.358  10.824 -0.1108 -1.8981 -1.8370
  331MOL0     H44646  12.160   8.200  10.924  0.4292  2.9777  5.3533
  331MOL0     H44647  11.973   7.681  11.218 -0.1750 -1.3447 -1.3548
  331MOL0     H44648  12.092   7.477  11.261  2.8523 -1.4709  3.7942
  331MOL0     H44649  12.224   7.309  11.316  0.2504  0.3942  1.1710
  331MOL0     H44650  12.357   7.261  11.402 -0.3984 -0.5466 -3.5306
  331MOL0     H44651  12.161   7.448  11.504  0.9374  0.7621  0.8585
  331MOL0     H44652  12.129   7.279  11.506  1.9685 -1.9043 -3.3662
  331MOL0     H44653  12.322   7.239  11.642 -3.1254  0.4105 -4.5017
  331MOL0     H44654  12.362   7.423  11.665 -0.3891  1.7850 -1.3689
  331MOL0     H44655  12.124   7.264  11.763 -1.4019  0.9115  1.8857
  331MOL0     H44656  12.147   7.438  11.770 -1.7898 -1.7769  0.1853
  331MOL0     H44657  12.329   7.418  11.937  4.0381 -1.2694 -2.9048
  331MOL0     H44658  12.363   7.253  11.887  1.8083  3.4379 -1.9894
  331MOL0     H44659  12.109   7.335  12.025 -1.7015 -0.5613 -2.1434
  331MOL0     H44660  12.154   7.178  11.975 -0.0119 -0.6948  0.1027
  331MOL0     H44661  12.339   7.342  12.158 -1.7704  1.1334 -0.7528
  331MOL0     H44662  12.346   7.164  12.125  1.0123  0.8729 -1.7763
  331MOL0     H44663  12.262   7.199  12.358 -0.8896  0.9727  1.1875
  331MOL0     H44664  12.137   7.313  12.299  0.8188  0.0927  0.3065
  331MOL0     H44665  12.447   7.689  11.349 -1.2163  0.5620  1.1100
  331MOL0     H44666  12.321   7.909  11.289  1.6558 -1.4025 -0.3027
  331MOL0     H44667  11.824   8.009  11.120 -0.0379 -3.4002 -4.4436
  331MOL0     H44668  11.683   8.172  11.045  1.6536 -0.1786  1.6522
  331MOL0     H44669  10.279   8.098  11.002  1.0931  0.6187  1.4137
  331MOL0     H44670  10.114   8.077  11.172 -1.7857  1.3332 -1.8769
  331MOL0     H44671  10.060   7.713  11.601  1.4656  1.2460  0.4806
  331MOL0     H44672   9.894   7.675  11.773  0.5827  0.1796 -0.5119
  331MOL0     H44673   9.464   7.568  11.639  0.5201 -2.7934 -2.6059
  331MOL0     H44674   9.495   7.466  11.793 -2.5769 -3.0095 -2.2593
  331MOL0     H44675   9.655   7.339  11.666 -0.7028 -1.2032 -0.9198
  331MOL0     H44676   9.596   7.415  11.523 -2.0511 -0.1604 -0.7767
  331MOL0     H44677   9.415   7.267  11.725  2.3060  4.8933  1.1897
  331MOL0     H44678   9.506   7.183  11.592  1.1183  0.8416 -1.1505
  331MOL0     H44679   9.295   7.406  11.577  1.5098  0.3686  1.9728
  331MOL0     H44680   9.374   7.337  11.434 -0.5464 -0.4272  0.0524
  331MOL0     H44681   9.076   7.050  11.532 -0.0737 -0.1227 -1.2721
  331MOL0     H44682   9.591   7.667  11.476 -0.6948  0.5096  2.1256
  331MOL0     H44683   9.795   7.719  11.194  2.4417 -1.1765  3.0862
  331MOL0     H44684   9.629   7.699  11.259 -0.7068 -1.8373  1.8652
  331MOL0     H44685   9.705   7.859  11.254 -0.9423 -0.5675 -1.7036
  332MOL0     O44686   0.787   7.121   3.798  0.2901  0.8662  0.0260
  332MOL0     C44687   0.898   7.074   3.824  0.2545 -0.6997 -0.2128
  332MOL0     O44688   1.012   7.151   3.821 -0.6339  0.5899  0.0074
  332MOL0     C44689   1.021   7.260   3.746  0.1860 -0.9201 -0.3478
  332MOL0     C44690   0.967   7.387   3.785 -0.2172 -1.1479 -0.6335
  332MOL0     C44691   0.975   7.497   3.692  0.5244 -0.3456 -0.2992
  332MOL0     C44692   1.016   7.469   3.556 -0.3663  0.1925 -0.1855
  332MOL0     O44693   1.020   7.580   3.476  0.4488  0.1928  0.0201
  332MOL0     C44694   1.097   7.573   3.352  0.1397  0.0648  1.1413
  332MOL0     C44695   1.249   7.570   3.359  0.4308 -0.5321 -0.5521
  332MOL0     C44696   1.313   7.573   3.223  1.2001  0.0993  0.6419
  332MOL0     C44697   1.465   7.565   3.215 -0.1346  0.5705 -0.2625
  332MOL0     C44698   1.535   7.604   3.077 -0.0936 -0.0314 -0.5345
  332MOL0     C44699   1.691   7.581   3.086  0.1003 -0.3037  1.2766
  332MOL0     C44700   1.754   7.616   2.948 -1.1049 -0.7923 -0.2754
  332MOL0     C44701   1.909   7.626   2.971  0.5443 -0.1283 -0.1908
  332MOL0     N44702   1.975   7.626   2.847  0.3888 -0.2809  0.0031
  332MOL0     C44703   1.980   7.520   2.761 -0.6688 -0.0286  0.1442
  332MOL0     C44704   2.062   7.569   2.660 -0.7311  0.3902  0.5376
  332MOL0     C44705   2.115   7.478   2.548 -0.5483  0.6419  0.1966
  332MOL0     C44706   2.245   7.403   2.602  0.0104 -0.0338 -0.2408
  332MOL0     C44707   2.343   7.389   2.480 -0.2739  0.1639  0.2171
  332MOL0     C44708   2.441   7.498   2.470  0.7410  0.0246 -0.0107
  332MOL0     O44709   2.374   7.621   2.429 -0.0590  0.1789  0.0155
  332MOL0     C44710   2.448   7.725   2.371  0.5814 -0.9138  0.3993
  332MOL0     C44711   2.377   7.835   2.306 -0.8764  0.1696  0.2762
  332MOL0     C44712   2.445   7.946   2.257 -1.3833 -0.0591 -0.9769
  332MOL0     C44713   2.587   7.958   2.278 -1.0690 -0.0379  0.2860
  332MOL0     C44714   2.657   8.087   2.238  0.0742 -1.0949 -0.7968
  332MOL0     O44715   2.589   8.191   2.177  0.2529  0.1111 -0.7560
  332MOL0     C44716   2.662   8.300   2.137 -0.2847 -0.5796  0.7701
  332MOL0     C44717   2.705   8.388   2.235 -0.7623  0.7774 -0.3696
  332MOL0     C44718   2.749   8.518   2.201 -0.7523 -0.2442  0.0685
  332MOL0     C44719   2.748   8.561   2.070  0.3203 -0.0148  0.6656
  332MOL0     O44720   2.804   8.673   2.011  0.1461  0.2486 -0.3627
  332MOL0     C44721   2.852   8.773   2.100  0.6047 -0.8456 -0.4141
  332MOL0     C44722   2.940   8.861   2.014  0.4567  0.7463  0.1648
  332MOL0     C44723   2.951   9.003   2.078 -0.2509  0.8231  1.0505
  332MOL0     C44724   3.035   9.008   2.197 -1.2409  0.0419 -0.3585
  332MOL0     C44725   3.047   9.151   2.261 -0.5545  0.4286 -0.6893
  332MOL0     C44726   3.120   9.249   2.172 -0.1226 -0.0774 -0.1009
  332MOL0     C44727   3.159   9.383   2.244  0.1958 -0.0015 -1.0870
  332MOL0     C44728   3.141   9.511   2.157 -0.0844  1.1330 -0.6828
  332MOL0    Cl44729   3.170   9.658   2.257  0.2968  0.1051  0.4078
  332MOL0     C44730   2.688   8.481   1.973 -0.5075 -0.1585  1.1185
  332MOL0     C44731   2.646   8.350   2.008 -0.6950 -0.5935  0.3506
  332MOL0     O44732   2.779   8.089   2.257 -0.2636  0.3417 -0.0677
  332MOL0     C44733   2.658   7.849   2.319 -0.9222  1.0019 -0.3946
  332MOL0     C44734   2.593   7.732   2.373  0.7391 -0.5608  0.9237
  332MOL0     N44735   2.109   7.695   2.694 -0.0230 -0.3399  0.0547
  332MOL0     N44736   2.064   7.725   2.814  0.3409  0.2926  0.8365
  332MOL0     C44737   1.059   7.337   3.525  1.2097  0.1094  0.0326
  332MOL0     C44738   1.069   7.239   3.616 -0.5781  0.4722  0.4587
  332MOL0     C44739   0.904   6.950   3.895 -0.4320 -0.3738 -0.4167
  332MOL0     C44740   1.009   6.857   3.869  1.2273 -1.0214  0.3647
  332MOL0     C44741   1.023   6.749   3.941 -0.1568  0.7195  0.0849
  332MOL0     C44742   0.949   6.721   4.060  0.0570 -1.1838 -0.7131
  332MOL0     O44743   0.980   6.617   4.143  0.0192  0.4436  0.0343
  332MOL0     C44744   1.086   6.643   4.230  0.6364 -0.2155 -0.5349
  332MOL0     C44745   1.075   6.574   4.364 -0.0663 -0.2817  0.0036
  332MOL0     C44746   0.941   6.626   4.437  0.0096 -0.3331  0.1757
  332MOL0     C44747   0.972   6.748   4.528  0.1563  0.1562 -0.0206
  332MOL0     C44748   0.860   6.829   4.562  1.3322 -0.5314  0.1020
  332MOL0     C44749   0.753   6.886   4.586 -0.4317  1.0915  0.8291
  332MOL0     C44750   0.856   6.816   4.100 -0.1584  0.8024 -0.0837
  332MOL0     C44751   0.821   6.922   4.009 -0.2663 -0.1161 -0.6479
  332MOL0     C44752   0.724   7.018   4.048  0.0564  0.3960 -0.7803
  332MOL0     H44753   0.920   7.404   3.881  0.1103 -0.7369 -0.5421
  332MOL0     H44754   0.942   7.596   3.722  0.3592 -0.4761 -0.0423
  332MOL0     H44755   1.058   7.497   3.284  0.5743 -2.0210  3.0905
  332MOL0     H44756   1.074   7.670   3.307 -0.3463 -1.3729 -1.9335
  332MOL0     H44757   1.280   7.479   3.411 -0.8388 -0.5192  0.2569
  332MOL0     H44758   1.276   7.657   3.420 -1.9224 -0.2889  0.2490
  332MOL0     H44759   1.290   7.671   3.180  0.7767  0.8710  2.5226
  332MOL0     H44760   1.275   7.484   3.172  1.6345 -0.3305  1.0567
  332MOL0     H44761   1.502   7.622   3.301  1.3672 -1.3954  0.4566
  332MOL0     H44762   1.493   7.462   3.236  0.0049  0.7601  0.5290
  332MOL0     H44763   1.480   7.533   3.014 -5.0329  0.1721  2.8883
  332MOL0     H44764   1.497   7.704   3.054 -1.0691 -0.7799 -2.3821
  332MOL0     H44765   1.731   7.643   3.166 -0.5879  1.8504  0.0390
  332MOL0     H44766   1.705   7.474   3.102 -0.6214 -0.1276  3.4231
  332MOL0     H44767   1.732   7.717   2.913  1.6524 -0.1918 -0.5125
  332MOL0     H44768   1.719   7.550   2.868 -0.8044  1.1175 -2.0748
  332MOL0     H44769   1.927   7.715   3.033 -1.7919  0.6689 -0.5628
  332MOL0     H44770   1.941   7.534   3.020  2.0105  0.1520 -0.5544
  332MOL0     H44771   1.941   7.419   2.760 -0.1771 -0.2640  1.7302
  332MOL0     H44772   2.033   7.409   2.527  1.0134 -0.7899 -1.6581
  332MOL0     H44773   2.134   7.549   2.466  3.8709  1.7485  1.8967
  332MOL0     H44774   2.292   7.459   2.683 -0.6391  0.5086 -0.2262
  332MOL0     H44775   2.213   7.308   2.646  2.1816  0.1332  1.8890
  332MOL0     H44776   2.288   7.379   2.386  0.5710 -3.0848 -0.0496
  332MOL0     H44777   2.404   7.298   2.487 -1.1233 -0.5741 -1.3397
  332MOL0     H44778   2.514   7.467   2.394 -0.9367 -1.4007 -1.1217
  332MOL0     H44779   2.492   7.518   2.565  1.5914  3.7620 -1.0873
  332MOL0     H44780   2.272   7.831   2.280 -0.8712 -1.1481  0.4187
  332MOL0     H44781   2.392   8.017   2.195  0.8890  1.0514 -1.7713
  332MOL0     H44782   2.709   8.350   2.336 -3.1238 -2.4920 -1.3418
  332MOL0     H44783   2.796   8.581   2.276  1.3659 -1.0158 -0.5554
  332MOL0     H44784   2.768   8.836   2.132  1.3534 -0.3289  0.5691
  332MOL0     H44785   2.906   8.735   2.186  0.3389  1.1160  0.6827
  332MOL0     H44786   3.037   8.818   1.988  0.5688  1.8011 -1.3138
  332MOL0     H44787   2.882   8.867   1.921 -1.7666  1.4947  1.5188
  332MOL0     H44788   2.993   9.064   1.998 -2.3987  0.0431 -0.7852
  332MOL0     H44789   2.859   9.049   2.115 -0.4902  0.7421  0.5581
  332MOL0     H44790   3.137   8.968   2.186 -1.4247 -0.8441  1.0621
  332MOL0     H44791   2.986   8.938   2.265 -3.1760 -1.7296 -3.3469
  332MOL0     H44792   3.110   9.145   2.351 -3.2115  2.5048  1.4989
  332MOL0     H44793   2.947   9.191   2.279  0.1410  2.2299 -0.5820
  332MOL0     H44794   3.213   9.202   2.139  0.8567  0.2691  1.9752
  332MOL0     H44795   3.068   9.270   2.078 -0.4986 -1.1323 -0.1443
  332MOL0     H44796   3.259   9.378   2.288  0.8483  4.5660 -1.4961
  332MOL0     H44797   3.089   9.391   2.327 -1.9690  0.6828 -2.8680
  332MOL0     H44798   3.218   9.501   2.080 -0.3055  2.4363 -1.0986
  332MOL0     H44799   3.042   9.508   2.110 -1.0457  0.8284  1.2287
  332MOL0     H44800   2.672   8.501   1.867 -0.6265 -3.3088  0.4527
  332MOL0     H44801   2.599   8.282   1.937 -2.5034  1.4480 -0.5330
  332MOL0     H44802   2.766   7.855   2.312 -0.8826 -0.6425 -2.0021
  332MOL0     H44803   2.644   7.651   2.424  2.4620  1.5794  2.8709
  332MOL0     H44804   1.073   7.307   3.422 -2.7458  1.2667 -1.0165
  332MOL0     H44805   1.110   7.139   3.603 -0.4855  0.3681  1.4454
  332MOL0     H44806   1.081   6.881   3.791  0.5825 -1.5193 -0.3930
  332MOL0     H44807   1.100   6.683   3.902  0.0150 -0.0867  1.6727
  332MOL0     H44808   1.084   6.751   4.246  0.7256 -0.4274  1.0687
  332MOL0     H44809   1.170   6.617   4.165 -1.9915 -0.2316 -4.2415
  332MOL0     H44810   1.157   6.601   4.432 -0.7303 -2.3149  1.7498
  332MOL0     H44811   1.074   6.465   4.353 -0.7090 -0.3788  0.8935
  332MOL0     H44812   0.901   6.553   4.507 -0.7372 -0.1382 -0.0400
  332MOL0     H44813   0.862   6.656   4.367  2.6855  0.5948 -2.6884
  332MOL0     H44814   1.028   6.714   4.616  2.0064  4.0320  0.4848
  332MOL0     H44815   1.047   6.810   4.478  0.2638 -1.0619 -1.4327
  332MOL0     H44816   0.682   6.965   4.601  2.1151  3.4438  1.4249
  332MOL0     H44817   0.788   6.789   4.180 -1.2042 -1.7280 -1.7192
  332MOL0     H44818   0.645   7.026   3.972  1.4767 -2.7079 -2.7811
  332MOL0     H44819   0.680   6.994   4.145  0.3859  2.5223 -0.0431
  332MOL0     H44820   0.775   7.113   4.069 -1.2300  1.0003 -0.2690
  333MOL0     O44821   7.434   3.896   2.740 -0.1204 -0.2008  0.3822
  333MOL0     C44822   7.538   3.859   2.690 -0.3073  1.0181  0.6678
  333MOL0     O44823   7.619   3.764   2.744 -0.0705 -0.0954  0.3592
  333MOL0     C44824   7.573   3.710   2.864 -0.0514  0.2444  0.7026
  333MOL0     C44825   7.606   3.755   2.984 -0.4472 -0.3001  0.0531
  333MOL0     C44826   7.549   3.686   3.098 -0.4283  0.0707 -0.3918
  333MOL0     C44827   7.455   3.585   3.084 -0.2451 -0.2958 -0.4081
  333MOL0     O44828   7.415   3.516   3.197 -0.5258  0.6286  0.5387
  333MOL0     C44829   7.270   3.526   3.226  0.2322  0.4755 -0.2512
  333MOL0     C44830   7.255   3.598   3.355 -1.2277 -0.5123 -0.7602
  333MOL0     C44831   7.119   3.565   3.423 -0.0571  0.1108  1.1227
  333MOL0     C44832   7.111   3.432   3.487  0.4764 -0.3100 -0.4070
  333MOL0     C44833   7.149   3.438   3.637 -0.7564 -1.0037  0.0124
  333MOL0     C44834   7.141   3.305   3.702 -1.1528  0.0958 -0.0472
  333MOL0     C44835   7.137   3.300   3.852 -0.2268  0.4895  0.6456
  333MOL0     C44836   7.163   3.153   3.893 -0.0485  0.8891 -0.7763
  333MOL0     N44837   7.040   3.074   3.902 -0.1087 -0.7729 -0.1149
  333MOL0     C44838   6.981   2.991   3.803  0.6169  0.1414 -0.7127
  333MOL0     C44839   6.883   2.920   3.872  0.5341 -0.1078 -0.9215
  333MOL0     C44840   6.804   2.800   3.831 -1.0985  0.0380  0.9139
  333MOL0     C44841   6.693   2.844   3.732 -0.0610  0.5960 -0.2980
  333MOL0     C44842   6.575   2.748   3.737  0.3887  0.3266 -0.2613
  333MOL0     C44843   6.613   2.600   3.733 -0.7952 -0.9899 -0.5747
  333MOL0     O44844   6.706   2.564   3.626 -0.2513  0.3425 -0.4881
  333MOL0     C44845   6.648   2.479   3.532  0.0716 -0.3234  1.1074
  333MOL0     C44846   6.611   2.351   3.548  0.1079  0.0427  0.6419
  333MOL0     C44847   6.528   2.278   3.462  0.9376 -1.1230  0.4567
  333MOL0     C44848   6.497   2.342   3.336 -0.0664 -0.1816 -0.3809
  333MOL0     C44849   6.424   2.269   3.229  0.5316  0.9246  0.4634
  333MOL0     O44850   6.397   2.341   3.111  0.3295 -0.2042  0.2670
  333MOL0     C44851   6.318   2.267   3.025  0.8445 -0.5025  0.5256
  333MOL0     C44852   6.379   2.188   2.929  0.4085 -0.0695  0.1870
  333MOL0     C44853   6.306   2.116   2.833 -0.1085  0.5171 -0.7876
  333MOL0     C44854   6.167   2.131   2.832  0.3308  0.9182 -0.2812
  333MOL0     O44855   6.104   2.068   2.726 -0.2100  0.6078  0.0579
  333MOL0     C44856   5.968   2.035   2.755  0.2506  0.1126 -0.4559
  333MOL0     C44857   5.910   1.920   2.672  0.3851 -0.5962 -1.1044
  333MOL0     C44858   5.752   1.911   2.673 -0.1934  0.3148 -0.1794
  333MOL0     C44859   5.692   1.863   2.808  0.1767 -0.1937  0.8560
  333MOL0     C44860   5.689   1.709   2.841  0.0846 -0.1866  0.0495
  333MOL0     C44861   5.629   1.661   2.977 -0.4348  0.6266  0.0342
  333MOL0     C44862   5.596   1.513   2.969  0.0535 -0.8118  0.0956
  333MOL0     C44863   5.505   1.474   3.082 -0.1941 -0.6007 -0.3275
  333MOL0    Cl44864   5.430   1.314   3.057 -0.0248 -0.8667 -0.0391
  333MOL0     C44865   6.106   2.213   2.924  0.0083  0.6590  0.0691
  333MOL0     C44866   6.175   2.281   3.025  0.6207  0.5236  0.4576
  333MOL0     O44867   6.404   2.148   3.236 -0.3712 -0.0612  0.4805
  333MOL0     C44868   6.547   2.476   3.304 -0.7140 -0.0025 -0.6148
  333MOL0     C44869   6.622   2.544   3.409 -0.2805  1.1465  0.9745
  333MOL0     N44870   6.894   2.954   4.009 -0.5301  0.1287 -0.9588
  333MOL0     N44871   6.995   3.035   4.021 -0.6170  0.6347 -0.0755
  333MOL0     C44872   7.415   3.549   2.955 -0.1783 -0.0487 -0.4771
  333MOL0     C44873   7.469   3.621   2.842  0.0431  0.2867 -0.7290
  333MOL0     C44874   7.575   3.928   2.565 -0.0798  0.2341 -0.4378
  333MOL0     C44875   7.712   3.950   2.528 -0.6059 -0.6130 -0.1395
  333MOL0     C44876   7.748   4.018   2.412 -0.2579  0.1564 -1.0935
  333MOL0     C44877   7.646   4.048   2.319  0.0674 -0.3847  0.3877
  333MOL0     O44878   7.666   4.125   2.203  0.3130 -0.6237 -0.8431
  333MOL0     C44879   7.654   4.267   2.220  0.6987  1.3885  0.2544
  333MOL0     C44880   7.789   4.325   2.231  0.7414 -0.2428 -0.4888
  333MOL0     C44881   7.798   4.480   2.231  0.0168 -0.2510 -0.0172
  333MOL0     C44882   7.948   4.530   2.249 -0.2592 -1.2041 -1.0779
  333MOL0     C44883   7.945   4.675   2.243  0.1044  0.7395 -0.9677
  333MOL0     C44884   7.929   4.790   2.227  1.0386  0.8247 -0.3669
  333MOL0     C44885   7.514   4.021   2.344 -0.4392  0.2302  0.4013
  333MOL0     C44886   7.479   3.971   2.467  0.2828 -0.0327  0.4413
  333MOL0     C44887   7.326   3.958   2.484 -0.7688 -0.8911  0.2882
  333MOL0     H44888   7.677   3.831   3.015 -1.2313  0.5610 -0.2176
  333MOL0     H44889   7.581   3.720   3.196  0.6882  3.1710 -1.7128
  333MOL0     H44890   7.223   3.594   3.154 -0.1250 -1.1435 -1.6000
  333MOL0     H44891   7.213   3.433   3.229 -4.4164  3.0134 -0.0634
  333MOL0     H44892   7.234   3.702   3.329 -1.1502  0.7196  3.3331
  333MOL0     H44893   7.345   3.591   3.417 -1.9121 -1.4892  0.1642
  333MOL0     H44894   7.041   3.578   3.346  1.8560  3.8661 -0.4747
  333MOL0     H44895   7.091   3.644   3.493 -0.2454 -1.0470  2.3839
  333MOL0     H44896   7.004   3.410   3.473  0.0471  0.4194  1.4949
  333MOL0     H44897   7.165   3.349   3.439 -1.9427 -2.1992 -0.0719
  333MOL0     H44898   7.254   3.469   3.644 -0.9231 -0.3056 -0.4810
  333MOL0     H44899   7.095   3.519   3.689  0.4671  0.4442 -0.8760
  333MOL0     H44900   7.047   3.263   3.667  0.6363 -2.9022 -1.6824
  333MOL0     H44901   7.220   3.249   3.651 -0.8371  2.7770 -2.7531
  333MOL0     H44902   7.037   3.331   3.883 -0.8224  0.1838 -0.8399
  333MOL0     H44903   7.212   3.375   3.880  1.2324  0.2175 -2.0916
  333MOL0     H44904   7.246   3.108   3.837  0.8238  1.2646  0.1817
  333MOL0     H44905   7.199   3.158   3.996 -1.4440  1.6448 -0.3003
  333MOL0     H44906   6.994   2.989   3.695 -1.9651 -3.1101 -1.1094
  333MOL0     H44907   6.875   2.723   3.798  1.1642  1.9450  1.1156
  333MOL0     H44908   6.759   2.770   3.927 -2.0064 -2.8643 -0.2768
  333MOL0     H44909   6.661   2.946   3.755 -1.2836 -0.2233  1.9779
  333MOL0     H44910   6.741   2.842   3.634 -0.3491 -0.0066 -0.4367
  333MOL0     H44911   6.518   2.765   3.645  0.9546 -1.5470 -0.9913
  333MOL0     H44912   6.497   2.750   3.814 -1.4157 -1.5086 -1.9013
  333MOL0     H44913   6.519   2.546   3.716 -2.2399  1.5156 -0.9823
  333MOL0     H44914   6.660   2.574   3.828 -0.2684 -1.2159 -0.8884
  333MOL0     H44915   6.618   2.318   3.651  0.2711 -1.1857  0.2488
  333MOL0     H44916   6.484   2.183   3.493 -1.3317 -0.1798  0.3263
  333MOL0     H44917   6.487   2.190   2.945  0.2854 -2.6529  1.9068
  333MOL0     H44918   6.349   2.058   2.752 -4.3029 -1.0099 -2.1397
  333MOL0     H44919   5.971   2.016   2.863  4.6213  0.5209 -0.3433
  333MOL0     H44920   5.903   2.119   2.727  2.3432  1.5784 -1.1512
  333MOL0     H44921   5.938   1.947   2.570 -0.6533  3.0655 -0.5397
  333MOL0     H44922   5.962   1.826   2.693  3.1809  1.6193  3.6504
  333MOL0     H44923   5.711   2.010   2.652  1.0345  0.9865  0.5304
  333MOL0     H44924   5.730   1.842   2.590  1.1155  2.4196 -2.3984
  333MOL0     H44925   5.593   1.909   2.794  1.6385  2.1396 -3.3945
  333MOL0     H44926   5.734   1.924   2.888  4.6962  2.6996 -3.2103
  333MOL0     H44927   5.783   1.659   2.819  0.1313  0.5987 -1.6958
  333MOL0     H44928   5.628   1.670   2.759  0.7355  0.3437 -0.6968
  333MOL0     H44929   5.699   1.681   3.058 -0.3254  6.6917 -1.1449
  333MOL0     H44930   5.537   1.716   3.000 -0.6328 -0.1110  1.0891
  333MOL0     H44931   5.689   1.455   2.970 -0.1003 -1.1616  2.5328
  333MOL0     H44932   5.540   1.504   2.876 -2.3299 -2.3630  1.5649
  333MOL0     H44933   5.574   1.474   3.167  0.2543 -0.0753 -0.6836
  333MOL0     H44934   5.438   1.553   3.117  0.7041 -0.2260  0.6008
  333MOL0     H44935   5.999   2.223   2.912 -0.3132 -2.9009 -1.2435
  333MOL0     H44936   6.127   2.322   3.113 -0.5928  2.8722 -1.2010
  333MOL0     H44937   6.520   2.516   3.207 -0.6349 -1.0552 -1.0850
  333MOL0     H44938   6.657   2.643   3.383  1.5370 -0.5654 -4.4771
  333MOL0     H44939   7.335   3.479   2.936 -2.4064  2.2253 -0.0020
  333MOL0     H44940   7.428   3.595   2.745  0.1070 -1.3426 -0.3534
  333MOL0     H44941   7.784   3.936   2.608 -1.2128 -2.3829  0.1572
  333MOL0     H44942   7.845   4.066   2.401 -0.3957  2.2104  3.8949
  333MOL0     H44943   7.602   4.280   2.315  1.7616 -1.1302  1.2717
  333MOL0     H44944   7.589   4.316   2.147 -1.4834 -2.0484 -0.3768
  333MOL0     H44945   7.845   4.296   2.142  2.5312  2.0011 -0.1892
  333MOL0     H44946   7.841   4.282   2.317  2.5363  1.4108 -0.6758
  333MOL0     H44947   7.732   4.536   2.297  0.3751 -1.3848  1.3676
  333MOL0     H44948   7.766   4.509   2.131 -1.6030 -0.1125  0.5206
  333MOL0     H44949   7.980   4.500   2.349  4.2497  1.9512 -1.2974
  333MOL0     H44950   8.009   4.491   2.167  1.5397 -0.4172 -0.1741
  333MOL0     H44951   7.924   4.894   2.202  0.7342  1.3505  1.7024
  333MOL0     H44952   7.447   4.060   2.268  1.7220  1.3925 -1.0148
  333MOL0     H44953   7.290   3.928   2.385  3.2353  1.0179 -2.0078
  333MOL0     H44954   7.288   3.879   2.550  2.1685 -1.3962  1.5165
  333MOL0     H44955   7.289   4.059   2.503 -1.0854 -0.7886 -0.7819
  334MOL0     O44956   7.053   3.612   7.625 -0.4470  0.0538 -0.2045
  334MOL0     C44957   6.973   3.667   7.696  0.0406 -0.9631  0.1344
  334MOL0     O44958   6.897   3.780   7.657 -0.8127  0.8394 -0.6440
  334MOL0     C44959   6.870   3.808   7.522 -1.2640  0.8870 -0.4190
  334MOL0     C44960   6.774   3.747   7.440  0.3724  0.3311  0.1392
  334MOL0     C44961   6.761   3.785   7.303  1.3071 -0.7288 -0.7912
  334MOL0     C44962   6.819   3.904   7.261  0.3533 -0.2156  0.6892
  334MOL0     O44963   6.791   3.969   7.150 -0.4943  0.3238 -0.5362
  334MOL0     C44964   6.653   3.963   7.095 -0.3354  0.0095  0.3745
  334MOL0     C44965   6.603   4.078   7.000 -0.4322 -0.3015 -0.7308
  334MOL0     C44966   6.639   4.223   7.031 -0.1254  0.0600 -0.0793
  334MOL0     C44967   6.580   4.266   7.164 -1.1212 -0.8336 -0.5153
  334MOL0     C44968   6.428   4.273   7.167  0.2086 -0.3945  0.3604
  334MOL0     C44969   6.366   4.363   7.275 -0.6917  0.0308 -0.1697
  334MOL0     C44970   6.211   4.374   7.255  0.3248  0.4158 -0.5166
  334MOL0     C44971   6.169   4.453   7.136  0.7005  0.0057 -0.3831
  334MOL0     N44972   6.023   4.476   7.122  0.1868 -1.1154  0.1883
  334MOL0     C44973   5.934   4.402   7.051  0.9748 -0.0910  0.4299
  334MOL0     C44974   5.814   4.466   7.069  0.6772  0.1685  0.4573
  334MOL0     C44975   5.674   4.446   7.019  0.4169 -0.5037  0.4316
  334MOL0     C44976   5.643   4.293   7.008  0.4987 -0.7700 -0.2423
  334MOL0     C44977   5.496   4.272   6.981  0.6619  0.4163  0.7225
  334MOL0     C44978   5.453   4.123   6.992  0.2713  0.1303 -0.2424
  334MOL0     O44979   5.305   4.112   7.000  0.1562  0.2381 -0.1316
  334MOL0     C44980   5.245   4.001   6.952  0.4365 -0.9521  0.9086
  334MOL0     C44981   5.306   3.871   6.962  0.0859 -0.3120 -0.3173
  334MOL0     C44982   5.243   3.760   6.928  0.8723  0.5213  0.6129
  334MOL0     C44983   5.108   3.767   6.885 -1.3259 -0.0091 -0.3659
  334MOL0     C44984   5.020   3.645   6.862 -0.5855 -0.6685 -0.3916
  334MOL0     O44985   4.898   3.673   6.803  0.0829  0.7755 -0.6835
  334MOL0     C44986   4.808   3.571   6.794  0.5371  0.9182  0.1879
  334MOL0     C44987   4.745   3.516   6.908  0.4346  0.9052  0.6925
  334MOL0     C44988   4.643   3.427   6.892 -0.4483  0.0009 -0.4535
  334MOL0     C44989   4.589   3.395   6.770 -0.8314 -0.5117  0.1630
  334MOL0     O44990   4.484   3.315   6.756 -0.2016  0.1076 -0.0896
  334MOL0     C44991   4.490   3.186   6.830 -1.3208 -0.2285  0.8908
  334MOL0     C44992   4.510   3.081   6.719 -0.4905  0.2647  0.7928
  334MOL0     C44993   4.408   3.088   6.597  0.0385 -0.5347 -0.8614
  334MOL0     C44994   4.424   2.964   6.501  0.6369  0.2241 -0.9227
  334MOL0     C44995   4.325   2.982   6.388  1.2795 -0.6623  0.6364
  334MOL0     C44996   4.270   2.841   6.333 -0.6379 -1.2156  0.2834
  334MOL0     C44997   4.194   2.861   6.197  0.5567 -0.4558 -1.1821
  334MOL0     C44998   4.127   2.726   6.152 -0.1440  0.1435  0.0056
  334MOL0    Cl44999   4.045   2.740   6.003  0.4353  0.0127  0.0431
  334MOL0     C45000   4.635   3.464   6.659 -0.2820  0.2369  0.7049
  334MOL0     C45001   4.751   3.543   6.667  0.9272  0.1836 -0.9644
  334MOL0     O45002   5.067   3.533   6.889 -0.3084 -0.2352  1.1739
  334MOL0     C45003   5.060   3.892   6.858  0.9272 -1.4807  0.2406
  334MOL0     C45004   5.122   4.011   6.892 -0.2705 -0.1633 -0.4488
  334MOL0     N45005   5.831   4.567   7.162 -0.0119  1.0640 -0.0078
  334MOL0     N45006   5.953   4.571   7.195  0.0056  0.1905 -0.9739
  334MOL0     C45007   6.913   3.956   7.339 -0.2993 -0.7808 -0.0327
  334MOL0     C45008   6.942   3.910   7.466 -0.3835 -0.0114 -0.7985
  334MOL0     C45009   6.934   3.622   7.836 -0.0473 -0.6645 -0.3662
  334MOL0     C45010   6.808   3.586   7.864  0.5609 -0.1357 -0.2071
  334MOL0     C45011   6.769   3.555   7.998 -0.1930 -1.0952  0.2892
  334MOL0     C45012   6.862   3.559   8.095  0.0946  0.9816  0.6293
  334MOL0     O45013   6.832   3.530   8.224  1.0907  0.1474 -0.3165
  334MOL0     C45014   6.713   3.447   8.257 -0.5753 -0.4721 -0.3993
  334MOL0     C45015   6.724   3.298   8.214 -0.8969  0.5367  0.8493
  334MOL0     C45016   6.836   3.232   8.291 -1.0490  0.3788  0.5528
  334MOL0     C45017   6.836   3.081   8.285 -0.4723  0.1644  0.4152
  334MOL0     C45018   6.960   3.032   8.347 -0.0869  0.1763  0.7803
  334MOL0     C45019   7.055   3.005   8.421  0.3332 -0.9619  0.5058
  334MOL0     C45020   6.997   3.586   8.073 -0.6426 -0.3784  0.6509
  334MOL0     C45021   7.038   3.620   7.945  0.4207  0.4385  0.3702
  334MOL0     C45022   7.180   3.631   7.930 -0.6148 -0.5981 -0.4006
  334MOL0     H45023   6.728   3.654   7.472  2.3765 -0.4423  0.9287
  334MOL0     H45024   6.687   3.733   7.243  1.0604 -0.1172 -1.0209
  334MOL0     H45025   6.650   3.869   7.040 -1.2982  0.1129  0.2402
  334MOL0     H45026   6.573   3.945   7.167 -1.3062 -3.9768 -1.4324
  334MOL0     H45027   6.496   4.057   6.989 -0.4062 -1.2432  0.4928
  334MOL0     H45028   6.651   4.068   6.903  3.7238  1.0410  0.9612
  334MOL0     H45029   6.610   4.291   6.951 -0.6189  1.7992  1.5176
  334MOL0     H45030   6.748   4.231   7.032  0.0336 -0.1850 -3.3789
  334MOL0     H45031   6.610   4.184   7.229  2.7339 -0.5688 -1.7496
  334MOL0     H45032   6.624   4.356   7.207  1.2536 -4.1108  5.0131
  334MOL0     H45033   6.390   4.313   7.072 -0.8656 -0.6413  0.6639
  334MOL0     H45034   6.388   4.174   7.193  1.4228 -0.6184  1.4521
  334MOL0     H45035   6.386   4.318   7.373 -2.5832 -1.1781 -0.2918
  334MOL0     H45036   6.418   4.457   7.252  0.6230 -1.1366 -2.3390
  334MOL0     H45037   6.188   4.425   7.349  0.0701  1.3360 -1.0649
  334MOL0     H45038   6.155   4.280   7.256 -1.7249  1.3776  4.5610
  334MOL0     H45039   6.209   4.551   7.161  2.2058 -0.9807  1.3224
  334MOL0     H45040   6.204   4.407   7.043 -1.0440  0.3741 -1.2761
  334MOL0     H45041   5.941   4.309   6.995 -1.9708 -0.9245  1.2774
  334MOL0     H45042   5.601   4.493   7.085 -0.2537  0.2000 -0.7668
  334MOL0     H45043   5.672   4.491   6.919 -0.5398 -1.7240 -0.1310
  334MOL0     H45044   5.703   4.258   6.923  0.7162  1.0006 -0.8654
  334MOL0     H45045   5.672   4.240   7.099  5.4711 -1.4078 -1.8698
  334MOL0     H45046   5.453   4.316   6.891  0.9483 -0.2436  0.2527
  334MOL0     H45047   5.441   4.315   7.065  0.6701  2.7270 -0.3828
  334MOL0     H45048   5.498   4.081   7.082 -2.6960  0.0359  1.3090
  334MOL0     H45049   5.488   4.082   6.897  1.0897 -1.3590  0.6625
  334MOL0     H45050   5.411   3.864   6.991  1.0511 -0.6979 -3.4981
  334MOL0     H45051   5.289   3.662   6.925 -1.0059 -0.3864 -1.6710
  334MOL0     H45052   4.804   3.531   6.998  1.7275  1.4173 -0.1951
  334MOL0     H45053   4.600   3.388   6.983 -0.1824  4.2691  1.7589
  334MOL0     H45054   4.567   3.178   6.908 -1.5088 -0.2422  1.0738
  334MOL0     H45055   4.395   3.172   6.882 -1.5339 -0.4075  0.4578
  334MOL0     H45056   4.609   3.094   6.673 -1.2750  3.8873 -0.2149
  334MOL0     H45057   4.508   2.980   6.762 -1.2963 -0.4340 -0.7927
  334MOL0     H45058   4.304   3.085   6.631 -0.5788  1.8613 -2.2883
  334MOL0     H45059   4.421   3.177   6.534  0.6169 -1.1803 -1.6743
  334MOL0     H45060   4.384   2.880   6.558 -1.8216 -0.3988 -3.3481
  334MOL0     H45061   4.523   2.932   6.465 -0.0204 -0.6413 -2.0287
  334MOL0     H45062   4.372   3.036   6.305  0.4008  0.1573  0.6507
  334MOL0     H45063   4.236   3.033   6.426  1.7722  3.7641 -3.2885
  334MOL0     H45064   4.360   2.783   6.310  0.0535 -0.8074  1.7959
  334MOL0     H45065   4.221   2.772   6.402  1.2901 -4.6596 -1.4830
  334MOL0     H45066   4.275   2.889   6.129 -1.5629  2.3750 -2.7582
  334MOL0     H45067   4.116   2.938   6.201 -1.4256 -2.3183 -2.0486
  334MOL0     H45068   4.210   2.655   6.140 -1.1698 -0.9853 -0.6422
  334MOL0     H45069   4.057   2.701   6.232 -2.6158  1.4727 -1.6157
  334MOL0     H45070   4.591   3.462   6.559  2.2162 -1.6568 -0.4426
  334MOL0     H45071   4.783   3.592   6.575  1.0856  1.1166 -0.4293
  334MOL0     H45072   4.956   3.904   6.828  1.9674  1.8471 -2.6138
  334MOL0     H45073   5.067   4.104   6.890 -1.7838 -0.8981  2.2922
  334MOL0     H45074   6.976   4.035   7.299 -0.6257 -1.0915 -1.1687
  334MOL0     H45075   7.024   3.953   7.523 -0.1047 -1.8823  0.3215
  334MOL0     H45076   6.735   3.606   7.785  0.6407 -0.0586 -0.2616
  334MOL0     H45077   6.664   3.535   8.016 -1.1337  2.2617 -0.7646
  334MOL0     H45078   6.623   3.482   8.205  0.6846  1.3570 -1.4686
  334MOL0     H45079   6.703   3.445   8.366  2.6357  3.2938  0.1760
  334MOL0     H45080   6.743   3.293   8.106  2.3612 -0.4120  1.3613
  334MOL0     H45081   6.635   3.246   8.249  1.9551 -4.2472  1.8838
  334MOL0     H45082   6.838   3.273   8.392 -1.2734  0.3368  0.5736
  334MOL0     H45083   6.933   3.257   8.246 -1.6535 -3.1523 -3.4170
  334MOL0     H45084   6.761   3.043   8.354  0.4437 -1.9914  0.3018
  334MOL0     H45085   6.812   3.043   8.185 -0.7344  1.1050  0.1026
  334MOL0     H45086   7.148   2.985   8.471  2.2635  2.7455 -1.1616
  334MOL0     H45087   7.079   3.595   8.144 -1.5725  1.3690  1.5397
  334MOL0     H45088   7.217   3.625   7.827 -0.4108  3.9743 -0.7899
  334MOL0     H45089   7.208   3.734   7.955 -1.2515 -0.5345  0.0988
  334MOL0     H45090   7.235   3.565   7.998 -2.6767 -2.4159 -0.3635
  335MOL0     O45091   7.323   8.336   5.294 -0.3365  0.6809  0.1263
  335MOL0     C45092   7.389   8.274   5.383  0.1549 -0.1749 -0.9554
  335MOL0     O45093   7.351   8.275   5.516 -0.0146  0.1524  0.7187
  335MOL0     C45094   7.232   8.328   5.577 -0.8422 -0.6506  0.9656
  335MOL0     C45095   7.222   8.355   5.719 -0.4945  1.1660  0.3197
  335MOL0     C45096   7.110   8.419   5.776 -0.1700 -0.0204  0.5381
  335MOL0     C45097   7.003   8.460   5.690 -0.7315 -0.1197 -0.9500
  335MOL0     O45098   6.897   8.537   5.718  0.2144  0.5479  0.0145
  335MOL0     C45099   6.887   8.584   5.849 -0.4796  0.7122 -0.1125
  335MOL0     C45100   6.751   8.652   5.873 -0.5985  1.1359  0.2008
  335MOL0     C45101   6.636   8.552   5.829 -0.0231 -0.3744 -0.4531
  335MOL0     C45102   6.598   8.456   5.942 -0.7905 -0.6896  0.7096
  335MOL0     C45103   6.469   8.374   5.929 -0.7526  0.3957 -0.1913
  335MOL0     C45104   6.353   8.440   5.860 -0.6765 -0.5736  1.0489
  335MOL0     C45105   6.240   8.334   5.835  0.4854 -0.3168 -0.4010
  335MOL0     C45106   6.122   8.327   5.928  0.5839 -0.1431  1.2869
  335MOL0     N45107   6.171   8.285   6.056  0.7797  0.1550  0.1969
  335MOL0     C45108   6.183   8.149   6.090 -0.6787 -0.0827  0.4128
  335MOL0     C45109   6.204   8.148   6.220  0.0715 -0.1468 -0.9181
  335MOL0     C45110   6.219   8.024   6.300 -0.3435 -0.4399 -0.9245
  335MOL0     C45111   6.283   8.058   6.437 -0.0815 -0.0943 -0.1168
  335MOL0     C45112   6.290   7.936   6.527  0.3644  0.4619  0.0938
  335MOL0     C45113   6.388   7.968   6.641  0.4211  0.3205 -0.8847
  335MOL0     O45114   6.354   7.909   6.767 -0.1803  0.4397 -0.1083
  335MOL0     C45115   6.377   7.770   6.786 -0.1781  0.0152 -0.1671
  335MOL0     C45116   6.414   7.676   6.688 -0.5390  0.9010  0.8582
  335MOL0     C45117   6.428   7.541   6.733  0.9432  0.8047 -0.0080
  335MOL0     C45118   6.401   7.491   6.860 -0.8942  0.0826  0.0713
  335MOL0     C45119   6.398   7.345   6.895 -0.8563  0.0546  0.6872
  335MOL0     O45120   6.338   7.299   7.014  0.0892 -0.2615  0.9135
  335MOL0     C45121   6.285   7.175   7.035 -0.1961 -1.1145  0.4813
  335MOL0     C45122   6.263   7.075   6.948 -1.0486  0.1118  0.5188
  335MOL0     C45123   6.181   6.966   6.982  0.0758  0.9131  0.4454
  335MOL0     C45124   6.137   6.944   7.113  0.0959  0.0794 -0.9979
  335MOL0     O45125   6.076   6.822   7.147  0.0912  0.1642 -0.1723
  335MOL0     C45126   6.084   6.769   7.281  0.0645  0.1662 -0.2103
  335MOL0     C45127   6.235   6.715   7.308  0.0268  0.1643 -0.2093
  335MOL0     C45128   6.268   6.622   7.429 -0.2831 -0.7395  0.4158
  335MOL0     C45129   6.415   6.581   7.409  0.1004 -0.7773  0.2993
  335MOL0     C45130   6.447   6.479   7.513 -0.3617  0.8631 -1.1197
  335MOL0     C45131   6.567   6.393   7.483 -0.1647 -0.4823  0.0006
  335MOL0     C45132   6.701   6.466   7.458  0.2196 -0.6954 -0.6624
  335MOL0     C45133   6.809   6.400   7.368  0.3251 -0.4524  0.4139
  335MOL0    Cl45134   6.876   6.263   7.483  0.3626 -0.5536  0.1760
  335MOL0     C45135   6.158   7.048   7.201 -0.4537 -0.1271  0.4063
  335MOL0     C45136   6.223   7.167   7.160  0.6946  0.9173 -0.2379
  335MOL0     O45137   6.450   7.274   6.809  0.1428 -0.6101  0.6557
  335MOL0     C45138   6.362   7.585   6.951 -0.4259 -0.6946  0.1538
  335MOL0     C45139   6.355   7.724   6.916  0.3588  0.4588  0.3947
  335MOL0     N45140   6.196   8.270   6.272 -0.3301 -0.4939 -0.8185
  335MOL0     N45141   6.181   8.353   6.178 -0.7234 -0.3386 -0.3324
  335MOL0     C45142   7.010   8.424   5.552 -0.6159 -0.6593 -0.6646
  335MOL0     C45143   7.123   8.373   5.498 -0.6876 -0.3113 -0.6946
  335MOL0     C45144   7.500   8.191   5.344  0.4652  0.2035  0.7624
  335MOL0     C45145   7.575   8.134   5.448 -0.1121  0.2740  0.5063
  335MOL0     C45146   7.684   8.046   5.425 -0.1869  0.3075  0.7573
  335MOL0     C45147   7.739   8.050   5.297  0.3519 -0.5623  0.6819
  335MOL0     O45148   7.852   7.976   5.256  0.2643  0.1266 -0.2617
  335MOL0     C45149   7.939   7.927   5.360 -0.8272  0.2472 -0.2888
  335MOL0     C45150   8.040   7.823   5.299 -0.0921 -1.0900 -0.7407
  335MOL0     C45151   8.131   7.884   5.183 -0.4367 -0.4465  0.2578
  335MOL0     C45152   8.264   7.927   5.247  0.5758 -0.4991 -0.2855
  335MOL0     C45153   8.343   7.989   5.139 -0.2919 -0.1047  0.3053
  335MOL0     C45154   8.420   8.033   5.058 -0.7311 -0.4920 -0.0090
  335MOL0     C45155   7.671   8.110   5.187  0.0731 -1.0745  1.2200
  335MOL0     C45156   7.550   8.175   5.206  0.0455 -0.4826 -0.5173
  335MOL0     C45157   7.468   8.214   5.083 -0.4017 -0.5171 -0.3208
  335MOL0     H45158   7.301   8.329   5.789  2.4418 -0.0949 -3.1262
  335MOL0     H45159   7.110   8.452   5.880  1.0868  1.9237 -0.0299
  335MOL0     H45160   6.887   8.501   5.920  0.1856 -0.2612 -1.2179
  335MOL0     H45161   6.968   8.655   5.870  2.8714 -1.8634 -3.1036
  335MOL0     H45162   6.751   8.744   5.814  0.6183  0.4336 -0.9510
  335MOL0     H45163   6.732   8.684   5.976  1.2344 -0.5577  1.1360
  335MOL0     H45164   6.656   8.503   5.734  5.8354 -2.2204  1.3024
  335MOL0     H45165   6.551   8.618   5.815 -0.2583 -0.8770 -1.4290
  335MOL0     H45166   6.685   8.390   5.955  0.4978  0.7147 -0.3471
  335MOL0     H45167   6.589   8.507   6.038 -1.8231  1.4840 -0.4640
  335MOL0     H45168   6.493   8.280   5.877 -1.9272  0.9742 -1.8669
  335MOL0     H45169   6.432   8.344   6.027  1.0029 -0.2506  0.3096
  335MOL0     H45170   6.307   8.526   5.908  0.0031  0.8947 -0.8135
  335MOL0     H45171   6.367   8.476   5.757  0.7356  0.0332  1.4395
  335MOL0     H45172   6.267   8.231   5.809 -2.9511 -1.1990 -1.0397
  335MOL0     H45173   6.195   8.358   5.739  0.6972  2.0425  0.0419
  335MOL0     H45174   6.061   8.417   5.925 -0.6729 -0.9978 -0.6418
  335MOL0     H45175   6.066   8.238   5.897  0.6447 -0.7058  2.7095
  335MOL0     H45176   6.182   8.068   6.018 -2.7725  0.5025 -0.2918
  335MOL0     H45177   6.123   7.980   6.331  0.9127 -1.7115  1.4258
  335MOL0     H45178   6.282   7.954   6.244  0.0939 -1.5403  0.8581
  335MOL0     H45179   6.385   8.092   6.421  0.7216 -2.8744 -1.5163
  335MOL0     H45180   6.239   8.145   6.487  2.0422  0.3329  1.1021
  335MOL0     H45181   6.328   7.845   6.479  0.4177  1.2599 -1.4539
  335MOL0     H45182   6.188   7.913   6.561 -0.9910  4.4669 -0.6608
  335MOL0     H45183   6.396   8.076   6.656 -0.9767  0.5328 -1.4188
  335MOL0     H45184   6.486   7.926   6.616  2.1893  2.7987  1.3823
  335MOL0     H45185   6.438   7.707   6.587  0.0526 -1.4385  0.2204
  335MOL0     H45186   6.455   7.466   6.658 -1.0038  2.2176 -2.2399
  335MOL0     H45187   6.283   7.090   6.842 -5.7270  1.2264 -0.4665
  335MOL0     H45188   6.160   6.896   6.902  0.6734  2.6991 -1.3296
  335MOL0     H45189   6.059   6.850   7.351 -1.0254  0.9849 -1.4982
  335MOL0     H45190   6.016   6.683   7.290 -1.2980  1.3579  1.7020
  335MOL0     H45191   6.266   6.656   7.221 -0.0910 -1.4174  0.7887
  335MOL0     H45192   6.297   6.805   7.311  2.9377 -1.7117  0.1662
  335MOL0     H45193   6.254   6.673   7.525 -1.1845  0.5541 -0.3670
  335MOL0     H45194   6.194   6.542   7.432 -0.7490 -0.4348 -1.6318
  335MOL0     H45195   6.483   6.666   7.415  0.9938 -1.2939 -1.5227
  335MOL0     H45196   6.430   6.530   7.313  0.6454  0.3963 -0.2581
  335MOL0     H45197   6.356   6.424   7.538 -0.9187  1.4484 -1.7919
  335MOL0     H45198   6.474   6.531   7.605 -0.6396  1.9800 -1.6442
  335MOL0     H45199   6.579   6.310   7.554 -1.1199  0.4022  1.2346
  335MOL0     H45200   6.535   6.350   7.388 -1.7748  2.7566 -1.0686
  335MOL0     H45201   6.740   6.490   7.557 -0.3708  1.0942 -0.8217
  335MOL0     H45202   6.660   6.553   7.406 -0.2738 -0.2876  0.3847
  335MOL0     H45203   6.761   6.358   7.279 -1.4474 -1.0160  1.5939
  335MOL0     H45204   6.890   6.467   7.337  0.1516 -1.6613 -3.0585
  335MOL0     H45205   6.113   7.038   7.299  0.2432 -3.0810  0.5168
  335MOL0     H45206   6.214   7.248   7.232 -3.3523 -0.3841  0.9896
  335MOL0     H45207   6.338   7.537   7.045  3.0220 -5.8622 -1.2103
  335MOL0     H45208   6.313   7.804   6.977 -1.4321  0.5777 -0.9248
  335MOL0     H45209   6.943   8.485   5.492  4.7677  4.8118 -2.2202
  335MOL0     H45210   7.121   8.363   5.390 -1.0970  0.9595 -0.8161
  335MOL0     H45211   7.546   8.145   5.552  1.7905  0.9660  1.0020
  335MOL0     H45212   7.724   8.001   5.515 -0.8738 -0.2383  0.8014
  335MOL0     H45213   7.881   7.878   5.439  1.4965  2.1899  2.8387
  335MOL0     H45214   7.987   8.015   5.404 -0.7237  0.3431 -0.5859
  335MOL0     H45215   7.980   7.741   5.259 -0.9103  0.4453 -2.8654
  335MOL0     H45216   8.103   7.783   5.379  1.1555  1.3988 -0.3638
  335MOL0     H45217   8.077   7.970   5.142  1.0951 -0.0321 -0.9806
  335MOL0     H45218   8.141   7.807   5.106 -0.9037 -0.0399 -0.2188
  335MOL0     H45219   8.231   7.977   5.338 -1.9958 -2.7122  0.1314
  335MOL0     H45220   8.322   7.843   5.285  1.1300  0.3119  0.7194
  335MOL0     H45221   8.508   8.065   5.006  1.5147 -0.2843  3.5747
  335MOL0     H45222   7.710   8.105   5.086  0.6319  2.8384  1.0885
  335MOL0     H45223   7.527   8.183   4.996 -0.0854 -1.0504  0.0846
  335MOL0     H45224   7.367   8.171   5.089 -0.3451 -0.4656  4.3345
  335MOL0     H45225   7.446   8.321   5.085 -0.7230 -0.5756 -0.5808
  336MOL0     O45226   5.952   0.876   0.561  0.2099  0.8866 -0.5176
  336MOL0     C45227   5.882   0.937   0.479 -0.6815  0.1043  0.3679
  336MOL0     O45228   5.919   0.983   0.357 -0.7495  0.0053  0.5143
  336MOL0     C45229   6.051   1.002   0.338  1.2785 -0.0027 -0.1671
  336MOL0     C45230   6.135   1.071   0.424 -0.7752  0.7209 -0.0857
  336MOL0     C45231   6.273   1.092   0.389  0.0354  0.1242 -1.0472
  336MOL0     C45232   6.315   1.065   0.261  0.6269  0.1095  1.1608
  336MOL0     O45233   6.437   1.101   0.209 -0.7560 -0.5976 -0.4475
  336MOL0     C45234   6.488   1.229   0.256 -0.3195  0.5413 -0.3761
  336MOL0     C45235   6.558   1.288   0.126 -0.0894 -0.1628 -1.5648
  336MOL0     C45236   6.645   1.405   0.173 -0.4731 -0.3580  0.5864
  336MOL0     C45237   6.681   1.483   0.042 -0.4428 -0.6449 -0.4885
  336MOL0     C45238   6.797   1.576   0.061 -0.3605 -1.2306  0.4916
  336MOL0     C45239   6.767   1.709   0.133 -1.2597 -0.2617  1.1948
  336MOL0     C45240   6.876   1.733   0.241  0.5775  1.5442 -0.1678
  336MOL0     C45241   6.854   1.872   0.294 -0.7500  0.0755  0.3287
  336MOL0     N45242   6.740   1.885   0.384 -0.2366  0.8497  0.6050
  336MOL0     C45243   6.734   1.884   0.522 -0.8734  0.3048  0.1769
  336MOL0     C45244   6.600   1.894   0.544  0.6344 -0.1317 -0.9520
  336MOL0     C45245   6.525   1.897   0.681 -0.3015 -0.3605 -0.3306
  336MOL0     C45246   6.509   1.772   0.760 -0.3366  0.0244  0.0413
  336MOL0     C45247   6.402   1.682   0.708  0.1208  1.5121  0.2072
  336MOL0     C45248   6.421   1.625   0.566 -0.4249 -0.7193  0.9231
  336MOL0     O45249   6.347   1.512   0.544 -1.0521 -0.3166 -0.4047
  336MOL0     C45250   6.210   1.520   0.515  0.3763 -1.1880 -1.0245
  336MOL0     C45251   6.137   1.619   0.455 -0.9455  0.0968  0.4855
  336MOL0     C45252   5.993   1.626   0.447  0.5451  0.4018 -0.7360
  336MOL0     C45253   5.920   1.511   0.487 -0.1650 -0.0627  0.2340
  336MOL0     C45254   5.776   1.502   0.482  0.6864 -0.4763 -0.5076
  336MOL0     O45255   5.713   1.613   0.448  0.9125  0.2789  0.5148
  336MOL0     C45256   5.578   1.636   0.497 -1.6614 -0.4080 -0.0041
  336MOL0     C45257   5.468   1.614   0.414  0.1748  0.2312 -0.3840
  336MOL0     C45258   5.338   1.632   0.465  0.2673 -0.9218 -0.8902
  336MOL0     C45259   5.323   1.678   0.596  0.1857 -0.2359  0.4462
  336MOL0     O45260   5.211   1.707   0.661  0.8149 -0.1138 -0.4106
  336MOL0     C45261   5.098   1.625   0.616  0.3611  0.6825 -0.7775
  336MOL0     C45262   4.995   1.587   0.721  0.4457  0.7433  0.9970
  336MOL0     C45263   4.904   1.703   0.753  0.1970  0.3260 -0.6272
  336MOL0     C45264   4.812   1.649   0.859 -0.4187  0.9222 -1.0092
  336MOL0     C45265   4.731   1.759   0.916  0.4131  0.0135  0.8094
  336MOL0     C45266   4.629   1.694   1.022 -0.2292  0.3257  0.6378
  336MOL0     C45267   4.558   1.801   1.106 -0.1839  0.7406 -0.6555
  336MOL0     C45268   4.475   1.729   1.228  0.2282 -0.0461  0.1260
  336MOL0    Cl45269   4.348   1.624   1.161  0.4625  0.5991  0.1698
  336MOL0     C45270   5.436   1.709   0.669 -0.1450  0.1958  0.2467
  336MOL0     C45271   5.564   1.680   0.625 -0.6741  0.3103  0.4668
  336MOL0     O45272   5.723   1.401   0.521  0.6991 -0.3827  0.3926
  336MOL0     C45273   5.999   1.410   0.536 -0.4453  0.3909 -0.5579
  336MOL0     C45274   6.138   1.407   0.547 -1.1922  0.3693 -0.3749
  336MOL0     N45275   6.528   1.894   0.425  0.6394  0.0013 -0.5940
  336MOL0     N45276   6.619   1.900   0.331  0.1930  0.7736 -0.3673
  336MOL0     C45277   6.225   0.996   0.174 -0.1889 -0.1510 -1.4310
  336MOL0     C45278   6.100   0.957   0.214  0.1283  0.2677 -0.1001
  336MOL0     C45279   5.730   0.941   0.496 -0.1400  0.0443 -0.7683
  336MOL0     C45280   5.664   0.854   0.586 -1.3033  0.0396 -0.1706
  336MOL0     C45281   5.530   0.848   0.610  0.1742 -0.1161  0.0074
  336MOL0     C45282   5.444   0.934   0.535  0.0975  0.3773  0.7461
  336MOL0     O45283   5.306   0.921   0.551  0.3185 -0.2527 -0.1328
  336MOL0     C45284   5.216   1.021   0.511 -0.4755  0.3966 -0.1300
  336MOL0     C45285   5.092   1.019   0.601 -0.3187 -0.8537 -0.0786
  336MOL0     C45286   5.116   1.057   0.750 -0.1332  0.0826 -1.1069
  336MOL0     C45287   5.093   1.207   0.770  0.3673  0.8848 -0.3220
  336MOL0     C45288   5.209   1.281   0.718 -0.4987  0.0841  0.0394
  336MOL0     C45289   5.313   1.322   0.669  0.6203 -0.2405 -0.0248
  336MOL0     C45290   5.506   1.027   0.450  0.0638 -1.1182 -0.0360
  336MOL0     C45291   5.644   1.030   0.429 -0.2832  0.2149 -0.0601
  336MOL0     C45292   5.690   1.141   0.339  0.5547 -0.1951  0.0788
  336MOL0     H45293   6.111   1.088   0.529 -0.1107 -0.7038  0.3297
  336MOL0     H45294   6.356   1.122   0.452  1.7459 -4.1550 -0.9002
  336MOL0     H45295   6.411   1.298   0.291 -3.6320 -2.7738 -0.5264
  336MOL0     H45296   6.567   1.233   0.332  0.4360  1.0813 -1.1722
  336MOL0     H45297   6.481   1.322   0.056  0.0161 -2.0896 -2.6647
  336MOL0     H45298   6.615   1.213   0.072  0.0613 -0.4669 -0.9944
  336MOL0     H45299   6.730   1.358   0.223 -2.4368 -2.9395  1.7942
  336MOL0     H45300   6.584   1.467   0.240 -2.1558 -0.0182 -1.1718
  336MOL0     H45301   6.699   1.414  -0.041 -1.5137 -0.1200 -1.1745
  336MOL0     H45302   6.595   1.540   0.008 -0.2398  0.2603  0.4595
  336MOL0     H45303   6.886   1.532   0.106  1.3617  1.9543  0.5111
  336MOL0     H45304   6.841   1.606  -0.035 -0.3721  0.3143  0.9480
  336MOL0     H45305   6.778   1.784   0.053  0.4027 -3.0915 -1.4437
  336MOL0     H45306   6.667   1.700   0.175 -0.1165  1.1129  4.5711
  336MOL0     H45307   6.977   1.718   0.200 -0.2313 -1.9543 -1.2440
  336MOL0     H45308   6.857   1.665   0.324  1.0743  0.1748 -1.1385
  336MOL0     H45309   6.944   1.902   0.348 -1.0308  1.7094 -0.0646
  336MOL0     H45310   6.842   1.942   0.211  2.9158  0.5756  0.0620
  336MOL0     H45311   6.819   1.885   0.590  1.0565  1.1689 -2.0799
  336MOL0     H45312   6.570   1.967   0.752  0.4607 -1.9610  0.8325
  336MOL0     H45313   6.423   1.935   0.671  0.1991  1.8022  1.9297
  336MOL0     H45314   6.603   1.720   0.781  0.1703  0.6435 -0.6772
  336MOL0     H45315   6.470   1.808   0.855 -1.6073 -2.7606  0.6796
  336MOL0     H45316   6.303   1.728   0.715 -0.2681  0.6604  0.3936
  336MOL0     H45317   6.406   1.588   0.763 -3.6263  0.4162 -1.1059
  336MOL0     H45318   6.524   1.590   0.560 -0.1083 -0.0249  1.9415
  336MOL0     H45319   6.403   1.693   0.482 -0.9865 -0.6207  1.1162
  336MOL0     H45320   6.204   1.694   0.415  2.1865 -1.2769  2.7182
  336MOL0     H45321   5.947   1.717   0.410  0.8998  0.7007 -0.4543
  336MOL0     H45322   5.475   1.588   0.308  0.5773  0.1870 -0.3502
  336MOL0     H45323   5.259   1.615   0.393 -0.3472  0.8713 -0.6951
  336MOL0     H45324   5.045   1.695   0.550 -1.1993  0.3017  0.0246
  336MOL0     H45325   5.123   1.535   0.559 -2.7534 -1.1739  0.5880
  336MOL0     H45326   4.938   1.505   0.676 -0.5499  3.5913 -3.5242
  336MOL0     H45327   5.050   1.559   0.811 -1.2098  1.4008  2.2718
  336MOL0     H45328   4.958   1.794   0.781 -0.0849  0.1253  0.6357
  336MOL0     H45329   4.852   1.733   0.662  1.5557 -0.9539 -1.8699
  336MOL0     H45330   4.870   1.592   0.932  1.0953  0.9733 -2.1232
  336MOL0     H45331   4.749   1.576   0.807  1.4203 -1.3659 -0.2182
  336MOL0     H45332   4.671   1.811   0.840  1.8359  1.7248  0.7807
  336MOL0     H45333   4.804   1.829   0.958  3.0165 -2.2028  0.3068
  336MOL0     H45334   4.565   1.628   0.963 -0.1448 -0.0237  0.9374
  336MOL0     H45335   4.692   1.630   1.085 -3.5981 -2.0674  1.8308
  336MOL0     H45336   4.486   1.854   1.042 -0.8953 -1.0156 -1.3837
  336MOL0     H45337   4.631   1.865   1.156  1.8502 -2.1094  0.2851
  336MOL0     H45338   4.547   1.672   1.286  0.6820  0.6176  0.2255
  336MOL0     H45339   4.430   1.803   1.295  1.7131 -0.8467  2.0942
  336MOL0     H45340   5.435   1.759   0.766  1.6494  1.3427 -0.2769
  336MOL0     H45341   5.654   1.702   0.681 -1.6376  0.7678  1.8939
  336MOL0     H45342   5.959   1.319   0.582  0.5189  1.6401  3.1231
  336MOL0     H45343   6.198   1.327   0.590  2.2716  3.6979  1.5870
  336MOL0     H45344   6.261   0.969   0.075  1.2922  1.8841 -1.5125
  336MOL0     H45345   6.035   0.895   0.154 -2.1136  1.7613  0.6508
  336MOL0     H45346   5.729   0.785   0.640  0.8830  1.4213 -0.9372
  336MOL0     H45347   5.483   0.777   0.678  2.9532 -0.8629  1.2897
  336MOL0     H45348   5.182   0.990   0.412 -1.5233 -2.4323  1.0044
  336MOL0     H45349   5.268   1.116   0.496  0.2690 -0.0527 -0.4689
  336MOL0     H45350   5.043   0.922   0.596 -0.7025 -0.7127  0.7773
  336MOL0     H45351   5.028   1.085   0.541  3.1862  0.1278 -3.1390
  336MOL0     H45352   5.208   1.017   0.794 -0.4590  0.5642  0.0781
  336MOL0     H45353   5.047   1.016   0.825  1.4992  1.0992  1.0838
  336MOL0     H45354   5.004   1.237   0.715 -0.0506 -0.9474 -0.7221
  336MOL0     H45355   5.089   1.240   0.874 -0.3139  0.0378 -0.0657
  336MOL0     H45356   5.397   1.368   0.620  0.8453 -2.3191 -1.7257
  336MOL0     H45357   5.445   1.097   0.395 -0.3229 -2.6695 -1.6323
  336MOL0     H45358   5.705   1.111   0.234  0.9893  0.8655 -0.1754
  336MOL0     H45359   5.613   1.219   0.340  0.3454 -0.2846 -2.2718
  336MOL0     H45360   5.776   1.193   0.382 -0.0856  1.9104 -1.0313
  337MOL0     O45361   8.311   0.820   7.688  0.1115  0.0733  0.1960
  337MOL0     C45362   8.238   0.818   7.588  0.5492  0.1017  0.1753
  337MOL0     O45363   8.258   0.729   7.487  0.3219  0.3058  0.5018
  337MOL0     C45364   8.373   0.658   7.473  0.6397 -0.5759 -0.0280
  337MOL0     C45365   8.502   0.680   7.510 -0.3008 -1.2566 -0.4395
  337MOL0     C45366   8.607   0.598   7.474  0.0819 -0.4403  0.2564
  337MOL0     C45367   8.584   0.486   7.401  0.7514  0.3791  0.5819
  337MOL0     O45368   8.678   0.396   7.367 -0.2768  0.0088 -0.0686
  337MOL0     C45369   8.819   0.419   7.391  0.3648 -0.5179 -0.7528
  337MOL0     C45370   8.909   0.313   7.329 -0.3281  1.1762  0.1896
  337MOL0     C45371   8.888   0.307   7.173 -0.0443 -0.8516  0.3280
  337MOL0     C45372   8.989   0.214   7.109 -0.0437  0.2076  0.0390
  337MOL0     C45373   9.005   0.233   6.964  0.3444  0.7012  0.3416
  337MOL0     C45374   9.097   0.134   6.895 -0.1535  0.3605 -0.9851
  337MOL0     C45375   9.082   0.117   6.748 -0.8057  0.7188 -0.3211
  337MOL0     C45376   9.177   0.013   6.700  0.1976  0.2944  0.3997
  337MOL0     N45377   9.169  -0.018   6.559 -0.3232  0.8902  0.3453
  337MOL0     C45378   9.129   0.078   6.466  1.1833  0.0536  0.1966
  337MOL0     C45379   9.123   0.007   6.349  0.6502 -0.5263 -0.4383
  337MOL0     C45380   9.064   0.058   6.220 -0.3588 -0.4806 -0.8361
  337MOL0     C45381   8.920   0.012   6.188  0.3943 -1.2736 -0.2289
  337MOL0     C45382   8.817   0.028   6.298  0.4349 -0.2822  0.3451
  337MOL0     C45383   8.692  -0.036   6.253 -0.0690 -0.0682 -0.4384
  337MOL0     O45384   8.642   0.042   6.154 -0.6428  0.4023  0.4241
  337MOL0     C45385   8.539   0.008   6.071  0.9077  0.1905 -0.0827
  337MOL0     C45386   8.499   0.096   5.973  0.4063 -0.0328  0.5891
  337MOL0     C45387   8.390   0.066   5.889 -0.5662  0.4644 -0.1286
  337MOL0     C45388   8.325  -0.065   5.900 -0.1934 -0.5316  0.0150
  337MOL0     C45389   8.219  -0.103   5.818 -0.0441 -0.3182  0.0817
  337MOL0     O45390   8.152  -0.223   5.839 -0.3131  0.5673 -0.6369
  337MOL0     C45391   8.062  -0.277   5.748  0.7012 -0.6073 -0.7871
  337MOL0     C45392   8.045  -0.233   5.609 -0.3676  0.3044 -0.2037
  337MOL0     C45393   7.945  -0.301   5.537 -1.0059 -0.0694 -0.5396
  337MOL0     C45394   7.868  -0.407   5.588  0.6794  0.0987 -0.1946
  337MOL0     O45395   7.769  -0.457   5.513 -0.6268  0.4925  0.2251
  337MOL0     C45396   7.630  -0.469   5.560  0.1447 -0.2136  0.3878
  337MOL0     C45397   7.560  -0.378   5.453  0.7520  0.0662 -1.2561
  337MOL0     C45398   7.433  -0.327   5.517  0.2019 -0.6927 -0.6890
  337MOL0     C45399   7.349  -0.230   5.430  0.0411 -0.1090 -0.6030
  337MOL0     C45400   7.228  -0.182   5.516 -0.4118 -0.4177 -0.4660
  337MOL0     C45401   7.129  -0.082   5.454 -0.0523 -0.5391 -0.2498
  337MOL0     C45402   7.209   0.056   5.456  0.0696  0.1484  0.1271
  337MOL0     C45403   7.124   0.166   5.404  0.8955 -0.1487 -0.5341
  337MOL0    Cl45404   7.069   0.272   5.550  0.2791 -0.2863  0.2671
  337MOL0     C45405   7.889  -0.440   5.723 -0.3966 -0.9909  0.7104
  337MOL0     C45406   7.983  -0.381   5.799 -0.3736 -0.3469 -0.2581
  337MOL0     O45407   8.188  -0.017   5.727  0.2067 -0.3119 -0.0858
  337MOL0     C45408   8.377  -0.156   5.993 -0.0759 -0.8936 -0.5892
  337MOL0     C45409   8.481  -0.122   6.078 -0.8663 -0.5013  0.0269
  337MOL0     N45410   9.148  -0.127   6.372 -0.1157 -0.1573 -0.1877
  337MOL0     N45411   9.189  -0.139   6.497 -0.5432  0.9150 -0.8787
  337MOL0     C45412   8.457   0.457   7.361 -0.4071  0.0336 -0.2211
  337MOL0     C45413   8.350   0.544   7.397 -0.4826  0.3764  0.4670
  337MOL0     C45414   8.109   0.891   7.580 -0.6255  0.9708  0.1238
  337MOL0     C45415   8.020   0.862   7.473  0.1726 -0.2775 -0.5046
  337MOL0     C45416   7.906   0.939   7.448 -0.6183  0.1236 -0.4026
  337MOL0     C45417   7.878   1.047   7.525 -0.5326 -0.4401 -0.5483
  337MOL0     O45418   7.772   1.119   7.505 -0.5652 -0.0945  0.0372
  337MOL0     C45419   7.728   1.152   7.373 -0.2376  0.3144  1.0053
  337MOL0     C45420   7.635   1.272   7.370 -0.7223  0.1544  0.9906
  337MOL0     C45421   7.722   1.403   7.379  0.0962  0.1197  1.0109
  337MOL0     C45422   7.634   1.521   7.349  0.5565  0.0695  0.8286
  337MOL0     C45423   7.535   1.541   7.453 -1.0639  0.4911  0.3746
  337MOL0     C45424   7.471   1.571   7.554 -0.4866 -0.6638  0.3433
  337MOL0     C45425   7.955   1.065   7.638 -0.5277 -0.3733  0.1657
  337MOL0     C45426   8.072   0.997   7.673  0.7624  0.5065  0.1886
  337MOL0     C45427   8.155   1.035   7.794 -0.5156  0.6213 -1.0820
  337MOL0     H45428   8.525   0.763   7.576 -0.2818  0.6709 -2.7342
  337MOL0     H45429   8.701   0.616   7.525  0.3332  0.5571 -0.5480
  337MOL0     H45430   8.842   0.522   7.365 -3.0834 -0.2698 -3.6747
  337MOL0     H45431   8.855   0.400   7.492 -0.0635 -0.2111 -0.5387
  337MOL0     H45432   8.880   0.214   7.365  0.6316 -0.0105 -2.0768
  337MOL0     H45433   9.012   0.340   7.352  0.0954  1.0937 -1.4781
  337MOL0     H45434   8.894   0.403   7.121 -2.9621 -0.9147 -0.2731
  337MOL0     H45435   8.792   0.266   7.141  0.8943 -2.5569 -0.4434
  337MOL0     H45436   9.086   0.243   7.151  0.0498  1.6799 -1.1080
  337MOL0     H45437   8.955   0.116   7.143  1.1578 -0.2023  0.0910
  337MOL0     H45438   8.905   0.243   6.921  0.4204  0.8636  0.1976
  337MOL0     H45439   9.050   0.329   6.938  1.0884  0.4130  0.5351
  337MOL0     H45440   9.198   0.159   6.930 -0.3555 -2.4415  2.0031
  337MOL0     H45441   9.074   0.038   6.941  2.6710 -0.5278 -1.2294
  337MOL0     H45442   9.088   0.216   6.701 -1.7639  1.1132  0.3567
  337MOL0     H45443   8.977   0.088   6.735 -0.5273 -1.0812  1.0413
  337MOL0     H45444   9.283   0.041   6.709  0.2320  0.6557 -0.9715
  337MOL0     H45445   9.144  -0.075   6.756 -2.5675 -0.6624 -2.4518
  337MOL0     H45446   9.111   0.182   6.491 -4.1406 -0.8499  1.3058
  337MOL0     H45447   9.080   0.166   6.217  1.7241 -0.7669 -1.0719
  337MOL0     H45448   9.121   0.014   6.138 -2.0029 -2.0629 -1.1953
  337MOL0     H45449   8.891   0.064   6.097 -1.6380 -1.5926  0.1977
  337MOL0     H45450   8.934  -0.094   6.163  2.9775 -1.5326  1.7828
  337MOL0     H45451   8.800   0.136   6.300 -2.5146 -0.6857  0.9893
  337MOL0     H45452   8.858  -0.018   6.389 -1.6659 -0.8213  1.0661
  337MOL0     H45453   8.630  -0.046   6.343 -0.2508 -2.5892 -0.7722
  337MOL0     H45454   8.717  -0.138   6.221  1.9827 -1.1712  3.8657
  337MOL0     H45455   8.544   0.195   5.970 -2.4350  1.3715 -1.9906
  337MOL0     H45456   8.343   0.142   5.827 -2.9872 -0.0326  0.9790
  337MOL0     H45457   8.108  -0.153   5.571 -0.0504  1.3751  2.3766
  337MOL0     H45458   7.937  -0.273   5.433  1.1341 -1.1710 -1.0487
  337MOL0     H45459   7.603  -0.575   5.549  4.0940 -1.3215 -0.3342
  337MOL0     H45460   7.607  -0.435   5.662  0.9818  0.7653  0.2620
  337MOL0     H45461   7.622  -0.297   5.414 -0.8939  1.8098 -0.4340
  337MOL0     H45462   7.532  -0.439   5.367  1.1639 -0.4254 -1.0491
  337MOL0     H45463   7.361  -0.408   5.535  2.3235 -2.1022  2.1335
  337MOL0     H45464   7.448  -0.285   5.616 -1.5220  0.0367 -0.6962
  337MOL0     H45465   7.314  -0.263   5.331 -4.4291  2.6398 -0.1984
  337MOL0     H45466   7.424  -0.152   5.417  0.2971 -0.2658 -0.1224
  337MOL0     H45467   7.259  -0.145   5.614  2.5797 -0.1806 -1.4152
  337MOL0     H45468   7.173  -0.274   5.540  0.8100 -1.2904 -0.8973
  337MOL0     H45469   7.114  -0.111   5.350  3.8771  1.1775 -1.5291
  337MOL0     H45470   7.036  -0.071   5.509 -0.1420 -2.6318  0.0578
  337MOL0     H45471   7.306   0.059   5.407 -0.8279 -0.8662 -1.8282
  337MOL0     H45472   7.247   0.067   5.558  1.2707  1.2863 -0.4122
  337MOL0     H45473   7.186   0.230   5.340  0.6526 -0.4256 -1.0575
  337MOL0     H45474   7.046   0.133   5.334  1.6432 -1.6475 -0.6851
  337MOL0     H45475   7.834  -0.522   5.769  0.3318 -3.2893 -2.2096
  337MOL0     H45476   8.006  -0.429   5.894 -0.3417 -2.9180 -1.4671
  337MOL0     H45477   8.325  -0.248   6.015 -2.8091  0.7423  0.2806
  337MOL0     H45478   8.531  -0.193   6.143  0.8657  1.5601  1.0935
  337MOL0     H45479   8.452   0.362   7.310  3.0074 -0.9409  0.9604
  337MOL0     H45480   8.251   0.516   7.363  0.4802 -0.2552 -2.0263
  337MOL0     H45481   8.043   0.780   7.406  4.1044 -1.2983  1.7375
  337MOL0     H45482   7.843   0.906   7.366  0.8577 -1.7038 -0.8811
  337MOL0     H45483   7.676   1.062   7.341  3.0288 -1.5268  0.4975
  337MOL0     H45484   7.809   1.156   7.300 -2.5925 -1.2588 -1.9148
  337MOL0     H45485   7.566   1.269   7.455 -1.5197 -2.0014  0.3317
  337MOL0     H45486   7.582   1.280   7.274 -0.9499 -0.9410  1.0149
  337MOL0     H45487   7.802   1.401   7.304  1.1794  1.2988  2.0853
  337MOL0     H45488   7.767   1.406   7.478 -0.4672  0.8791  1.2480
  337MOL0     H45489   7.699   1.609   7.336  3.5845 -1.6863  2.9061
  337MOL0     H45490   7.587   1.501   7.252 -1.3511 -0.6882  1.8613
  337MOL0     H45491   7.392   1.585   7.625 -0.9105  2.4036 -0.5785
  337MOL0     H45492   7.920   1.135   7.712 -1.1618 -0.9078  0.3817
  337MOL0     H45493   8.262   1.045   7.775  0.0619 -2.5743 -0.2557
  337MOL0     H45494   8.112   1.132   7.818 -0.3212  1.0481 -2.3917
  337MOL0     H45495   8.128   0.958   7.867  2.9100  0.7773  0.5438
  338MOL0     O45496   2.745   5.104   4.605  0.3066 -1.1799  0.2047
  338MOL0     C45497   2.689   5.174   4.515 -0.9565 -0.2672 -0.9557
  338MOL0     O45498   2.695   5.306   4.494  0.0681 -0.0462 -0.3009
  338MOL0     C45499   2.799   5.372   4.565  0.0545 -0.8446 -0.2096
  338MOL0     C45500   2.926   5.375   4.515  0.3438 -0.0267  0.5282
  338MOL0     C45501   3.024   5.427   4.590  0.0304 -1.4239  0.2607
  338MOL0     C45502   2.999   5.489   4.705  0.2950  0.0982 -0.4507
  338MOL0     O45503   3.109   5.537   4.778  0.9700  0.3014  0.1486
  338MOL0     C45504   3.107   5.682   4.787  0.7315  1.3610  0.8041
  338MOL0     C45505   3.177   5.753   4.675  0.2955 -0.5160  1.0774
  338MOL0     C45506   3.323   5.724   4.675 -0.1294  0.2192  0.9146
  338MOL0     C45507   3.399   5.796   4.560  0.7959 -1.0358  0.2975
  338MOL0     C45508   3.552   5.776   4.559 -0.0784  0.0140  0.1873
  338MOL0     C45509   3.631   5.889   4.493  0.4055  0.6085  0.2298
  338MOL0     C45510   3.759   5.913   4.574  0.0208 -0.3419 -0.2087
  338MOL0     C45511   3.864   6.005   4.502 -0.4315  0.2796  0.5594
  338MOL0     N45512   3.977   5.928   4.440  0.2103 -0.2930 -1.0385
  338MOL0     C45513   3.970   5.810   4.365 -0.0345 -0.8913  0.5160
  338MOL0     C45514   4.089   5.795   4.300 -0.0154 -0.0183 -0.5345
  338MOL0     C45515   4.117   5.669   4.224 -0.9313  0.1858 -0.0703
  338MOL0     C45516   4.249   5.669   4.148 -0.0241 -0.6146 -0.6540
  338MOL0     C45517   4.256   5.550   4.037 -0.8127  0.1994  0.0856
  338MOL0     C45518   4.240   5.408   4.092  0.2822  0.0900  0.1044
  338MOL0     O45519   4.115   5.383   4.156  0.4743  0.9031 -0.1060
  338MOL0     C45520   4.000   5.367   4.092 -0.2252  0.4848 -0.0126
  338MOL0     C45521   3.994   5.358   3.949 -0.1043  0.6811 -0.8930
  338MOL0     C45522   3.882   5.314   3.882  0.0280  0.4390 -0.2631
  338MOL0     C45523   3.768   5.267   3.954 -0.0525 -0.0349  0.1767
  338MOL0     C45524   3.650   5.220   3.888  1.0073 -1.1122 -0.0933
  338MOL0     O45525   3.538   5.190   3.963  0.0730 -0.1584 -0.9101
  338MOL0     C45526   3.412   5.200   3.900 -0.7152  0.2019 -0.3563
  338MOL0     C45527   3.355   5.081   3.886 -0.0252 -0.0885 -0.0396
  338MOL0     C45528   3.219   5.065   3.833 -0.2539  0.7546  0.3778
  338MOL0     C45529   3.156   5.176   3.780 -0.7235  0.8312 -0.4913
  338MOL0     O45530   3.043   5.179   3.710  0.7178 -0.7081  0.8901
  338MOL0     C45531   2.968   5.057   3.691  0.3555 -0.8397 -0.3150
  338MOL0     C45532   3.025   4.989   3.577  1.1708  0.5259  0.1964
  338MOL0     C45533   2.956   4.851   3.575 -0.1284  0.4227 -0.2349
  338MOL0     C45534   3.016   4.772   3.457 -1.1131  0.2311 -0.2464
  338MOL0     C45535   2.992   4.621   3.479  0.7413 -0.3346  0.1879
  338MOL0     C45536   2.845   4.574   3.492 -0.3925 -0.0583 -0.2065
  338MOL0     C45537   2.834   4.429   3.462 -0.4259  0.9808 -0.7840
  338MOL0     C45538   2.697   4.366   3.487  0.3439 -0.5874  0.0247
  338MOL0    Cl45539   2.693   4.195   3.430 -0.5762  0.2852 -0.0805
  338MOL0     C45540   3.216   5.302   3.803  0.2716 -0.6031  0.7389
  338MOL0     C45541   3.344   5.315   3.853 -0.1642  0.3701  1.0950
  338MOL0     O45542   3.647   5.246   3.766  0.6944  0.7692  0.0503
  338MOL0     C45543   3.761   5.291   4.093  0.5779 -0.7308 -0.0139
  338MOL0     C45544   3.880   5.340   4.163 -0.7521  0.7734 -0.3287
  338MOL0     N45545   4.173   5.902   4.322 -0.2361 -0.6877 -0.1500
  338MOL0     N45546   4.098   5.978   4.410 -0.1756 -0.1430 -0.2030
  338MOL0     C45547   2.882   5.483   4.763  0.2087 -0.4017  0.5012
  338MOL0     C45548   2.775   5.422   4.694  0.7481 -0.3453  0.5990
  338MOL0     C45549   2.610   5.097   4.419 -0.3451  0.1206  0.9041
  338MOL0     C45550   2.630   5.122   4.282  0.1962 -0.2709  0.4108
  338MOL0     C45551   2.552   5.060   4.181  0.0274  0.9319 -0.0423
  338MOL0     C45552   2.447   4.979   4.223  0.0175  0.2529 -0.5801
  338MOL0     O45553   2.369   4.913   4.129 -0.8165  0.3491 -0.9081
  338MOL0     C45554   2.227   4.877   4.148 -0.5670  0.3269  0.6038
  338MOL0     C45555   2.136   4.999   4.171 -0.5573  0.6841 -0.3858
  338MOL0     C45556   1.987   4.988   4.133  0.0838 -0.5792 -0.0369
  338MOL0     C45557   1.900   4.945   4.249 -0.4616  0.8060 -0.0501
  338MOL0     C45558   1.948   4.829   4.305  0.0726 -0.0868  0.5493
  338MOL0     C45559   1.995   4.723   4.352  0.2360 -0.6309 -1.1449
  338MOL0     C45560   2.425   4.954   4.358 -1.1591 -0.1745  0.7209
  338MOL0     C45561   2.499   5.015   4.456  0.6136 -0.8097  0.0522
  338MOL0     C45562   2.459   5.008   4.600  0.6230  0.1487  0.1616
  338MOL0     H45563   2.959   5.332   4.421 -1.9696 -1.6391  0.3660
  338MOL0     H45564   3.126   5.440   4.554 -0.7618 -0.4157 -1.7178
  338MOL0     H45565   3.005   5.723   4.794  0.8027  1.2250  3.2852
  338MOL0     H45566   3.166   5.706   4.875  1.2564  1.4901  0.4195
  338MOL0     H45567   3.156   5.860   4.684 -0.1013 -0.3957 -0.8664
  338MOL0     H45568   3.130   5.721   4.581 -0.8725  0.4916  1.2805
  338MOL0     H45569   3.348   5.619   4.660 -1.5868 -0.1101  0.5963
  338MOL0     H45570   3.355   5.749   4.776 -2.5491 -0.3248  1.9042
  338MOL0     H45571   3.348   5.764   4.469 -0.7515 -0.5528  0.9721
  338MOL0     H45572   3.364   5.899   4.567 -1.4462 -1.8620  2.1792
  338MOL0     H45573   3.593   5.740   4.654  4.1212 -3.8675 -2.6441
  338MOL0     H45574   3.568   5.686   4.498 -0.0018 -0.2679  0.6244
  338MOL0     H45575   3.669   5.850   4.398  2.3731 -2.2939  2.0141
  338MOL0     H45576   3.580   5.985   4.483 -0.4145  0.4178  2.0792
  338MOL0     H45577   3.795   5.812   4.594 -0.2049 -0.6306 -1.2178
  338MOL0     H45578   3.743   5.966   4.669 -0.9843  1.6388 -1.4211
  338MOL0     H45579   3.819   6.066   4.423 -1.2567  0.2134  0.9628
  338MOL0     H45580   3.893   6.080   4.575  1.3872  0.0446  0.1149
  338MOL0     H45581   3.881   5.748   4.355 -2.0091  1.4225  2.3666
  338MOL0     H45582   4.124   5.593   4.302 -1.8744 -0.4147 -0.5516
  338MOL0     H45583   4.035   5.647   4.154  1.0229 -0.4813 -2.2814
  338MOL0     H45584   4.246   5.763   4.091  2.2203  1.1749  1.8945
  338MOL0     H45585   4.330   5.667   4.220  0.0042 -0.0815 -0.6610
  338MOL0     H45586   4.358   5.552   3.999  0.7037  2.9607  3.7412
  338MOL0     H45587   4.180   5.564   3.959 -1.0798  2.8689  0.7262
  338MOL0     H45588   4.325   5.389   4.158  2.5941  2.3952 -1.9865
  338MOL0     H45589   4.263   5.346   4.005  2.5028  1.9710 -0.7697
  338MOL0     H45590   4.085   5.384   3.897 -0.0359 -0.4381 -1.3632
  338MOL0     H45591   3.891   5.308   3.774  1.2600  1.0146 -0.2113
  338MOL0     H45592   3.410   4.993   3.919 -1.2991 -0.5576  0.9091
  338MOL0     H45593   3.184   4.963   3.827  0.2425  0.6721 -1.6895
  338MOL0     H45594   2.962   4.998   3.783 -1.2530  0.5008  0.5020
  338MOL0     H45595   2.864   5.084   3.668  0.3671  1.8543  2.1134
  338MOL0     H45596   3.001   5.031   3.479 -1.4391  1.4934  1.1695
  338MOL0     H45597   3.132   4.968   3.586  0.9061 -0.7659  0.4843
  338MOL0     H45598   2.981   4.795   3.665 -2.7235 -3.6921 -1.8257
  338MOL0     H45599   2.848   4.860   3.560  0.1716  1.4745 -2.0775
  338MOL0     H45600   3.120   4.794   3.434  0.2181 -4.2362  0.6080
  338MOL0     H45601   2.974   4.809   3.363  0.3582 -2.2291 -1.9735
  338MOL0     H45602   3.055   4.586   3.562  0.1140  1.4021  1.4698
  338MOL0     H45603   3.034   4.581   3.386  1.5478  1.1567 -0.1368
  338MOL0     H45604   2.802   4.596   3.590  0.4153  0.6724 -0.0164
  338MOL0     H45605   2.798   4.638   3.417  0.7823  2.0986  0.7984
  338MOL0     H45606   2.903   4.384   3.534  1.6545  4.1734 -0.5481
  338MOL0     H45607   2.881   4.408   3.366  1.1337  0.3341  0.0879
  338MOL0     H45608   2.667   4.370   3.592  0.7558  1.7568  0.1089
  338MOL0     H45609   2.625   4.427   3.433  0.3081 -2.5233 -2.3065
  338MOL0     H45610   3.180   5.390   3.750  4.5072 -0.5947 -2.6340
  338MOL0     H45611   3.394   5.411   3.853 -0.2066  0.3923  0.9400
  338MOL0     H45612   3.671   5.271   4.150  2.0034 -0.0429  2.6470
  338MOL0     H45613   3.886   5.363   4.269  0.1349 -0.2498 -0.1438
  338MOL0     H45614   2.867   5.525   4.862  0.8163 -2.4354  1.4999
  338MOL0     H45615   2.673   5.403   4.725  0.7748 -1.2983  0.1158
  338MOL0     H45616   2.702   5.194   4.245 -0.5600  2.3006  3.5259
  338MOL0     H45617   2.551   5.082   4.074  1.9941  0.7022 -0.1530
  338MOL0     H45618   2.227   4.810   4.234  0.1302 -1.1546 -0.5076
  338MOL0     H45619   2.189   4.811   4.070  0.0383  1.2722 -0.5178
  338MOL0     H45620   2.180   5.072   4.103 -1.1514 -1.2943 -3.0875
  338MOL0     H45621   2.145   5.033   4.275  2.2296 -0.6452 -0.1183
  338MOL0     H45622   1.972   4.917   4.051 -0.4971 -2.4541  1.6307
  338MOL0     H45623   1.937   5.080   4.102  2.5994  0.3368 -1.6892
  338MOL0     H45624   1.899   5.013   4.334  0.7681 -2.6019  2.9909
  338MOL0     H45625   1.799   4.942   4.208 -0.7787 -0.7316  0.7540
  338MOL0     H45626   2.035   4.635   4.400  5.1638  2.2708  0.8130
  338MOL0     H45627   2.347   4.886   4.392 -1.3970  0.9192  2.5049
  338MOL0     H45628   2.513   4.932   4.657 -1.9956  0.0748  2.7601
  338MOL0     H45629   2.463   5.098   4.662 -1.3716  0.1611  0.3407
  338MOL0     H45630   2.357   4.970   4.605  0.7058  0.0597  1.6840
  339MOL0     O45631  10.097   4.314   2.605 -0.9898 -0.4000 -0.0840
  339MOL0     C45632  10.041   4.264   2.509 -0.4202  0.7225  0.9017
  339MOL0     O45633  10.109   4.185   2.425  0.1188 -0.1998  0.6080
  339MOL0     C45634  10.238   4.152   2.451 -0.4501  0.4191 -0.3985
  339MOL0     C45635  10.338   4.245   2.448  0.1360  0.2866 -0.1615
  339MOL0     C45636  10.461   4.210   2.500  0.9674 -0.5492  0.0604
  339MOL0     C45637  10.505   4.077   2.502  0.1388 -0.0763 -0.4994
  339MOL0     O45638  10.635   4.040   2.540 -0.0728  0.6612  0.5938
  339MOL0     C45639  10.660   4.009   2.678  0.1790  0.2475  0.7484
  339MOL0     C45640  10.747   3.887   2.699 -0.8113 -0.7309  0.5870
  339MOL0     C45641  10.808   3.867   2.841  0.3386 -0.9861 -0.9687
  339MOL0     C45642  10.694   3.851   2.949 -0.8590 -0.4050  0.8429
  339MOL0     C45643  10.750   3.863   3.093 -0.2346  0.8288 -0.3141
  339MOL0     C45644  10.874   3.781   3.146 -0.2464  0.0509  0.2678
  339MOL0     C45645  10.849   3.633   3.159 -0.5143  0.2751  0.4074
  339MOL0     C45646  10.716   3.600   3.234 -0.2179  0.8726 -0.4845
  339MOL0     N45647  10.718   3.463   3.275 -0.0566  1.0794 -0.3998
  339MOL0     C45648  10.783   3.405   3.384 -0.4296 -0.3889 -0.0729
  339MOL0     C45649  10.754   3.282   3.389  0.4226  0.7718 -0.1847
  339MOL0     C45650  10.794   3.175   3.472  0.3207  0.2727 -0.2990
  339MOL0     C45651  10.735   3.180   3.618 -0.3843 -0.5074  0.0488
  339MOL0     C45652  10.819   3.115   3.735 -1.0899  0.8993 -1.1757
  339MOL0     C45653  10.913   3.002   3.681  0.9983  0.9353 -0.3036
  339MOL0     O45654  10.947   2.923   3.794  0.0207 -0.2041  0.7568
  339MOL0     C45655  11.032   2.811   3.770 -0.6534 -0.3709  1.0580
  339MOL0     C45656  11.070   2.763   3.647 -0.3008  0.1566 -0.1629
  339MOL0     C45657  11.154   2.652   3.640 -1.1191 -0.6350 -0.0570
  339MOL0     C45658  11.226   2.612   3.757  0.7815 -0.3264 -0.2945
  339MOL0     C45659  11.328   2.504   3.751  0.3489 -0.5141 -0.6463
  339MOL0     O45660  11.414   2.495   3.642 -0.1680 -0.8391  0.0470
  339MOL0     C45661  11.531   2.422   3.654  0.1874 -0.0774 -0.0539
  339MOL0     C45662  11.654   2.485   3.670 -0.2531 -0.3082 -0.1152
  339MOL0     C45663  11.766   2.408   3.682  0.9191 -0.6649  0.0233
  339MOL0     C45664  11.749   2.264   3.675 -0.5783  0.6649 -0.6406
  339MOL0     O45665  11.865   2.182   3.679 -0.0254  0.4388 -0.1773
  339MOL0     C45666  11.866   2.070   3.778  1.1063  0.0599 -0.0907
  339MOL0     C45667  12.015   2.047   3.821 -0.1385  0.3293 -0.9943
  339MOL0     C45668  12.092   2.184   3.820 -0.2111  0.5010 -0.4005
  339MOL0     C45669  12.218   2.178   3.901 -0.9980  0.3035  0.2620
  339MOL0     C45670  12.315   2.070   3.832 -0.6683 -0.1492  0.6275
  339MOL0     C45671  12.458   2.054   3.898 -0.3783 -0.5188  0.7442
  339MOL0     C45672  12.571   2.040   3.790  0.1574 -0.7108  0.6196
  339MOL0     C45673  12.697   2.007   3.853  0.4687 -1.0949 -1.2022
  339MOL0    Cl45674  12.715   1.832   3.913 -0.2406 -0.1335  0.3417
  339MOL0     C45675  11.628   2.199   3.667  0.2839  0.7163  0.2437
  339MOL0     C45676  11.520   2.281   3.643  0.1636 -0.3297 -0.0937
  339MOL0     O45677  11.345   2.444   3.856 -0.1097 -0.0511  0.0437
  339MOL0     C45678  11.192   2.671   3.879  0.4465  0.6635 -0.3453
  339MOL0     C45679  11.086   2.759   3.884  0.0308  0.0349 -0.8708
  339MOL0     N45680  10.669   3.247   3.281 -0.2871  0.4410 -0.0634
  339MOL0     N45681  10.657   3.356   3.208 -0.7328 -1.2551  1.0204
  339MOL0     C45682  10.412   3.980   2.473 -0.7166  0.2350 -0.8853
  339MOL0     C45683  10.281   4.016   2.459 -0.3300  0.7688  1.3370
  339MOL0     C45684   9.902   4.291   2.470  0.4488  0.6506  0.5447
  339MOL0     C45685   9.866   4.304   2.334  0.1983 -0.0241  0.2453
  339MOL0     C45686   9.745   4.357   2.297  0.4312  0.1137  0.3080
  339MOL0     C45687   9.652   4.408   2.398 -0.1188  1.3794  0.6087
  339MOL0     O45688   9.546   4.483   2.350  0.0426  0.2189  0.8561
  339MOL0     C45689   9.507   4.583   2.434  0.1530 -1.1299  0.5967
  339MOL0     C45690   9.434   4.685   2.355 -1.4154 -0.1008  0.3263
  339MOL0     C45691   9.520   4.747   2.249 -0.7950 -0.2336 -0.1981
  339MOL0     C45692   9.431   4.844   2.164 -1.3415  0.7885 -0.8803
  339MOL0     C45693   9.425   4.972   2.231 -0.1145  0.0221 -0.6462
  339MOL0     C45694   9.412   5.071   2.298 -0.0797 -0.6313 -0.2370
  339MOL0     C45695   9.686   4.396   2.534  1.1185  0.9154 -0.9519
  339MOL0     C45696   9.809   4.334   2.566 -0.5545  0.1345 -0.9646
  339MOL0     C45697   9.847   4.332   2.714 -0.5270  0.8055  0.3974
  339MOL0     H45698  10.298   4.344   2.428  0.5784  0.5087  0.0482
  339MOL0     H45699  10.528   4.293   2.520 -1.8949  2.2980 -1.1204
  339MOL0     H45700  10.704   4.096   2.727 -1.5789  0.1143  2.6653
  339MOL0     H45701  10.563   3.985   2.720 -2.6649  1.5926 -4.2071
  339MOL0     H45702  10.840   3.899   2.643 -0.6334 -0.6724  0.8958
  339MOL0     H45703  10.707   3.797   2.651  1.0118  0.1918 -3.0429
  339MOL0     H45704  10.875   3.945   2.877 -0.2321 -0.4555 -1.0282
  339MOL0     H45705  10.869   3.778   2.855  1.8390  0.4166  2.5972
  339MOL0     H45706  10.616   3.928   2.937  1.2254  1.4076 -2.7960
  339MOL0     H45707  10.646   3.754   2.936 -0.2115 -0.3415 -3.1262
  339MOL0     H45708  10.782   3.967   3.092 -1.6652  1.2882 -0.0979
  339MOL0     H45709  10.665   3.852   3.160  0.1856 -1.7500 -0.0827
  339MOL0     H45710  10.972   3.806   3.103  1.1392 -5.4030 -0.5295
  339MOL0     H45711  10.877   3.806   3.253 -0.5378  2.0677 -0.1681
  339MOL0     H45712  10.938   3.596   3.212  1.7181  2.5940 -1.4608
  339MOL0     H45713  10.850   3.589   3.059  0.1530 -0.1133  0.5821
  339MOL0     H45714  10.696   3.660   3.324 -1.3078 -0.5849  0.2891
  339MOL0     H45715  10.633   3.625   3.167 -0.3372  1.8800  0.0112
  339MOL0     H45716  10.826   3.464   3.465 -0.3650  1.9693 -1.7108
  339MOL0     H45717  10.773   3.079   3.424 -1.5096  0.6520 -0.3444
  339MOL0     H45718  10.902   3.192   3.475  0.3058  0.5466  2.9691
  339MOL0     H45719  10.736   3.286   3.644 -0.7583 -1.1008  2.8153
  339MOL0     H45720  10.627   3.164   3.629 -1.3520  4.6928  0.5003
  339MOL0     H45721  10.756   3.066   3.809  1.3107 -0.1789  0.2527
  339MOL0     H45722  10.871   3.193   3.791 -0.0342 -2.7023  3.4509
  339MOL0     H45723  11.010   3.029   3.639  2.3902  0.0207  2.1109
  339MOL0     H45724  10.858   2.939   3.611  0.5569  1.3002 -0.2908
  339MOL0     H45725  11.011   2.783   3.558 -0.6921 -0.2114  0.0153
  339MOL0     H45726  11.184   2.619   3.541  2.8842  1.6627  0.1921
  339MOL0     H45727  11.657   2.592   3.691 -0.6994 -0.5344  1.2002
  339MOL0     H45728  11.858   2.461   3.706 -0.4903  2.2140 -0.4547
  339MOL0     H45729  11.809   2.113   3.861  1.5509  0.1706  0.1608
  339MOL0     H45730  11.814   1.978   3.748  0.1122  0.3405  0.7482
  339MOL0     H45731  12.007   2.008   3.922  1.9966 -0.9960 -1.2878
  339MOL0     H45732  12.066   1.973   3.758 -0.3070 -0.8561  0.2141
  339MOL0     H45733  12.120   2.199   3.715 -2.7862  2.6137 -0.8981
  339MOL0     H45734  12.033   2.272   3.849  0.7470  1.3771 -1.0206
  339MOL0     H45735  12.193   2.150   4.004  1.4445  0.3008  0.9189
  339MOL0     H45736  12.287   2.261   3.885  3.1594 -2.5977  1.4545
  339MOL0     H45737  12.331   2.089   3.725 -1.4605  0.3567  0.5906
  339MOL0     H45738  12.268   1.971   3.832  0.6096 -0.7925  0.0867
  339MOL0     H45739  12.474   2.143   3.960 -0.5498  0.7360 -0.9678
  339MOL0     H45740  12.462   1.959   3.953  1.8679  0.5867  2.6810
  339MOL0     H45741  12.585   2.122   3.718  2.6146 -0.9367  0.7641
  339MOL0     H45742  12.545   1.948   3.737  0.0361  0.6372 -1.8657
  339MOL0     H45743  12.768   2.027   3.772  1.9559 -0.5780  0.1823
  339MOL0     H45744  12.714   2.079   3.934 -1.2107  0.0089 -1.7578
  339MOL0     H45745  11.619   2.092   3.652  1.0581  0.7687 -0.7129
  339MOL0     H45746  11.427   2.229   3.627 -0.1322  1.1476 -4.5109
  339MOL0     H45747  11.238   2.651   3.975  3.7738  2.0810 -1.5164
  339MOL0     H45748  11.059   2.804   3.979 -0.0282  3.0990 -2.2086
  339MOL0     H45749  10.450   3.882   2.502 -1.6556  0.4637  1.3661
  339MOL0     H45750  10.206   3.938   2.448  2.9195 -2.4847 -0.1306
  339MOL0     H45751   9.936   4.286   2.253 -1.8112 -3.2873 -0.9722
  339MOL0     H45752   9.714   4.377   2.195  1.2213 -0.2658 -0.0103
  339MOL0     H45753   9.597   4.639   2.461 -1.2884  1.2497  0.6878
  339MOL0     H45754   9.445   4.536   2.512 -1.8281  0.8296  0.3091
  339MOL0     H45755   9.400   4.766   2.421  1.9115  1.7375  0.0104
  339MOL0     H45756   9.350   4.641   2.300  0.1160 -1.0060 -1.3773
  339MOL0     H45757   9.561   4.666   2.187 -0.8880 -0.0897 -0.4489
  339MOL0     H45758   9.597   4.810   2.294 -1.6212  1.5674 -1.1735
  339MOL0     H45759   9.472   4.854   2.063  4.2627  0.3115  0.9625
  339MOL0     H45760   9.330   4.802   2.156 -0.7345 -0.3555 -3.5413
  339MOL0     H45761   9.406   5.163   2.352  1.1618 -0.1533 -0.8744
  339MOL0     H45762   9.622   4.432   2.613  1.4163  0.4507 -0.4961
  339MOL0     H45763   9.901   4.426   2.730  1.7872 -0.2947 -0.3677
  339MOL0     H45764   9.755   4.314   2.770 -0.8193 -0.7633 -0.5367
  339MOL0     H45765   9.915   4.249   2.736 -0.0601  0.7464 -1.1357
  340MOL0     O45766   7.875   1.808   2.982  0.4021 -0.4526  0.1169
  340MOL0     C45767   7.829   1.928   2.973  0.7922  0.4173 -1.6147
  340MOL0     O45768   7.906   2.038   2.985  0.2053  0.1078  0.4581
  340MOL0     C45769   8.042   2.021   2.985  1.1450 -0.9423 -0.4621
  340MOL0     C45770   8.100   2.082   2.882  0.0417  0.0369  0.9282
  340MOL0     C45771   8.231   2.049   2.873  0.4464 -0.7228 -0.4219
  340MOL0     C45772   8.289   1.958   2.957 -0.3182 -0.1894  0.3778
  340MOL0     O45773   8.420   1.925   2.941  0.1944  1.1047  0.0331
  340MOL0     C45774   8.513   1.972   2.840 -0.6318  0.6043 -0.3207
  340MOL0     C45775   8.578   2.103   2.884 -1.0698 -1.1516  0.4945
  340MOL0     C45776   8.630   2.184   2.756 -0.4445  0.4989 -0.4340
  340MOL0     C45777   8.766   2.140   2.704  0.1023  0.7228 -0.7329
  340MOL0     C45778   8.809   2.216   2.571 -0.7689  0.2975 -0.3711
  340MOL0     C45779   8.963   2.222   2.560  0.0102  1.2212  0.8637
  340MOL0     C45780   9.010   2.310   2.450 -0.1329 -0.3329  0.1367
  340MOL0     C45781   9.154   2.350   2.462 -0.6571  0.8046  0.2483
  340MOL0     N45782   9.176   2.455   2.369 -0.1261  0.0775  0.0386
  340MOL0     C45783   9.229   2.431   2.244  0.5686 -0.4590  0.2839
  340MOL0     C45784   9.225   2.557   2.181 -0.5367  0.0205 -1.0716
  340MOL0     C45785   9.303   2.602   2.053 -0.1270 -0.3712 -0.8051
  340MOL0     C45786   9.202   2.605   1.938  0.9908 -0.1371 -0.2759
  340MOL0     C45787   9.172   2.476   1.866  0.3633 -0.0380 -0.4885
  340MOL0     C45788   9.036   2.457   1.811 -0.0002  0.5415  0.0210
  340MOL0     O45789   8.993   2.541   1.703 -0.7978  0.1330 -0.5591
  340MOL0     C45790   8.999   2.498   1.572 -0.5276 -0.3962 -0.1106
  340MOL0     C45791   8.896   2.545   1.491  0.1095 -0.5337 -0.6610
  340MOL0     C45792   8.893   2.516   1.350  0.8265 -0.5671 -1.0303
  340MOL0     C45793   8.984   2.430   1.289 -0.2744  0.0603 -0.8703
  340MOL0     C45794   8.975   2.397   1.142  0.5844 -0.1162  1.4461
  340MOL0     O45795   8.898   2.479   1.055 -0.6026  0.4546 -0.3056
  340MOL0     C45796   8.906   2.436   0.927 -0.7071 -0.6040 -0.1135
  340MOL0     C45797   9.002   2.495   0.831  0.8332 -0.2796 -0.2227
  340MOL0     C45798   9.022   2.446   0.702  0.4525 -0.9790  0.4174
  340MOL0     C45799   8.950   2.335   0.666  0.5620 -0.3387 -0.4910
  340MOL0     O45800   8.989   2.261   0.556  0.3541  0.6120  0.1679
  340MOL0     C45801   8.952   2.325   0.426  0.6211  0.9378 -0.1166
  340MOL0     C45802   8.888   2.209   0.340  1.0875 -0.1668 -0.0144
  340MOL0     C45803   8.827   2.273   0.219 -0.3711 -0.7028 -0.8927
  340MOL0     C45804   8.932   2.276   0.108  0.4486  0.8787 -0.1069
  340MOL0     C45805   8.864   2.311  -0.027 -0.2922  0.1707 -0.4560
  340MOL0     C45806   8.748   2.220  -0.061  0.5113  0.0357 -0.0013
  340MOL0     C45807   8.704   2.239  -0.206 -0.1454  0.0370 -0.9652
  340MOL0     C45808   8.642   2.383  -0.243 -0.6185 -0.3928  0.3147
  340MOL0    Cl45809   8.540   2.354  -0.388 -0.1665 -0.6133  0.1107
  340MOL0     C45810   8.853   2.276   0.756  0.2681  0.7105 -0.0246
  340MOL0     C45811   8.838   2.329   0.886  0.7262 -0.3969 -0.6389
  340MOL0     O45812   9.033   2.294   1.101 -0.3134  0.2327  0.5355
  340MOL0     C45813   9.081   2.377   1.371 -1.2195  0.1964  0.2671
  340MOL0     C45814   9.092   2.401   1.512 -0.4844 -0.6421  0.4204
  340MOL0     N45815   9.163   2.639   2.274  0.1576 -0.1958 -0.2552
  340MOL0     N45816   9.141   2.586   2.388 -0.2675 -0.0725 -0.5874
  340MOL0     C45817   8.231   1.902   3.064  0.2615 -0.1788  0.5028
  340MOL0     C45818   8.108   1.944   3.084  0.1558  0.0974  0.5353
  340MOL0     C45819   7.683   1.953   2.966 -0.5473 -0.1369 -0.1367
  340MOL0     C45820   7.643   2.090   2.947  0.6266 -0.5385 -0.6126
  340MOL0     C45821   7.506   2.123   2.941  0.3438 -0.2765 -0.1288
  340MOL0     C45822   7.405   2.028   2.933 -0.1730  0.7354 -0.4162
  340MOL0     O45823   7.276   2.066   2.918  0.5340  0.3654 -0.1285
  340MOL0     C45824   7.203   1.989   2.817  0.3864 -0.4492 -0.4509
  340MOL0     C45825   7.066   1.937   2.877  0.4575 -0.2167  0.4338
  340MOL0     C45826   6.948   2.025   2.858  0.0817 -0.3395 -0.8904
  340MOL0     C45827   6.952   2.161   2.939 -0.1318  0.4898 -0.8001
  340MOL0     C45828   6.848   2.253   2.896 -0.7519 -0.2002 -0.8385
  340MOL0     C45829   6.762   2.336   2.872  0.6429 -0.1580 -0.1061
  340MOL0     C45830   7.446   1.895   2.944 -0.1968 -0.1323 -0.1236
  340MOL0     C45831   7.578   1.852   2.958 -0.3617  0.1801  0.6488
  340MOL0     C45832   7.595   1.702   2.971 -0.5805  0.2348  0.0201
  340MOL0     H45833   8.053   2.143   2.806  2.2259  0.6747  0.0223
  340MOL0     H45834   8.287   2.089   2.789  1.3625  1.5153  1.1372
  340MOL0     H45835   8.585   1.893   2.818 -0.2587  1.4458 -2.2818
  340MOL0     H45836   8.445   1.984   2.755 -1.7485 -0.1472  0.4365
  340MOL0     H45837   8.662   2.095   2.953 -0.8051 -1.4857  0.1409
  340MOL0     H45838   8.501   2.166   2.927  1.5988  1.7189  1.4493
  340MOL0     H45839   8.640   2.289   2.786  0.7313  0.2954 -0.0851
  340MOL0     H45840   8.561   2.189   2.670 -2.8162  0.7509  1.3712
  340MOL0     H45841   8.837   2.158   2.785 -0.9828 -0.3915  0.5094
  340MOL0     H45842   8.771   2.032   2.687  1.4659 -0.0670  3.5603
  340MOL0     H45843   8.769   2.162   2.484  0.0548 -1.5263  0.3263
  340MOL0     H45844   8.762   2.315   2.566 -0.2532  0.4888 -2.3680
  340MOL0     H45845   8.999   2.248   2.660 -1.9153  2.4576  1.3010
  340MOL0     H45846   8.991   2.121   2.530 -1.9671  0.6356  0.8594
  340MOL0     H45847   8.960   2.407   2.446 -0.9525 -0.7397  0.2257
  340MOL0     H45848   8.998   2.250   2.359 -4.3952 -0.2974  0.4951
  340MOL0     H45849   9.187   2.384   2.560 -1.2016 -1.5137  1.3106
  340MOL0     H45850   9.217   2.262   2.448  2.6965  2.9626  0.6313
  340MOL0     H45851   9.266   2.334   2.211 -1.4089 -0.1656 -3.2534
  340MOL0     H45852   9.335   2.707   2.063  0.0167 -0.6629  3.3659
  340MOL0     H45853   9.397   2.547   2.039  2.3047  1.6449  4.5653
  340MOL0     H45854   9.115   2.653   1.983  0.1725 -0.5727 -1.3411
  340MOL0     H45855   9.234   2.679   1.864 -1.2221 -1.1600 -2.3747
  340MOL0     H45856   9.188   2.395   1.937 -0.7395 -0.5966 -0.8515
  340MOL0     H45857   9.253   2.463   1.794  1.8143  2.8627  0.4602
  340MOL0     H45858   8.970   2.466   1.899 -1.8034 -3.1362 -0.7665
  340MOL0     H45859   9.020   2.354   1.779 -0.1438  0.4524  0.3738
  340MOL0     H45860   8.813   2.609   1.520  0.1135  0.0020 -1.7576
  340MOL0     H45861   8.805   2.548   1.295  0.7465  1.6844  0.3248
  340MOL0     H45862   9.076   2.573   0.840  0.5076 -0.0601  0.7913
  340MOL0     H45863   9.093   2.480   0.627 -0.8560 -0.2326 -0.5294
  340MOL0     H45864   8.871   2.397   0.441 -0.4063 -0.1232 -0.4246
  340MOL0     H45865   9.037   2.380   0.384 -1.4680  2.5791 -2.4880
  340MOL0     H45866   8.968   2.141   0.308  0.6609  0.5764 -2.9160
  340MOL0     H45867   8.817   2.156   0.404  0.7173  1.6422  1.1625
  340MOL0     H45868   8.745   2.213   0.178 -1.0235 -0.3078 -0.1988
  340MOL0     H45869   8.795   2.375   0.242  1.4091 -0.0457 -1.1788
  340MOL0     H45870   8.964   2.172   0.096 -1.7973  0.1364 -0.1953
  340MOL0     H45871   9.017   2.341   0.133  1.4383  0.2515 -1.6959
  340MOL0     H45872   8.937   2.314  -0.108  0.0839  2.6465 -0.1001
  340MOL0     H45873   8.826   2.413  -0.016 -3.6779 -0.9154 -0.9557
  340MOL0     H45874   8.782   2.116  -0.061  0.3824 -0.0353 -1.7295
  340MOL0     H45875   8.658   2.223  -0.000 -0.2560  0.3482 -1.1214
  340MOL0     H45876   8.636   2.155  -0.225 -0.1034 -0.8729  2.3688
  340MOL0     H45877   8.792   2.224  -0.270  0.0755 -2.1578 -0.2092
  340MOL0     H45878   8.594   2.430  -0.156  2.4054  2.7026  0.5384
  340MOL0     H45879   8.724   2.453  -0.262  0.5306 -1.1288  2.2856
  340MOL0     H45880   8.804   2.185   0.722  1.9979  0.0046 -0.7108
  340MOL0     H45881   8.777   2.287   0.964 -2.8101  2.6614 -1.4881
  340MOL0     H45882   9.149   2.308   1.321 -3.3211 -0.4312 -1.9541
  340MOL0     H45883   9.151   2.336   1.575 -1.8019 -0.4214  1.9287
  340MOL0     H45884   8.287   1.841   3.134 -0.3884 -0.3336  0.8948
  340MOL0     H45885   8.048   1.914   3.169 -0.4714  0.7981  0.3494
  340MOL0     H45886   7.713   2.173   2.947 -1.1356  1.0686  1.7904
  340MOL0     H45887   7.457   2.219   2.934 -0.8118 -0.7161  1.4196
  340MOL0     H45888   7.256   1.899   2.785 -0.1771  0.0855 -3.1510
  340MOL0     H45889   7.183   2.049   2.728  2.1995 -1.2900 -1.4979
  340MOL0     H45890   7.068   1.896   2.978 -2.1408  0.6800  0.9199
  340MOL0     H45891   7.055   1.851   2.810 -0.5226 -0.9886  1.5518
  340MOL0     H45892   6.858   1.971   2.889 -0.1786  1.4641  1.9671
  340MOL0     H45893   6.930   2.041   2.752  2.8310  1.3440 -1.2175
  340MOL0     H45894   6.922   2.142   3.043 -0.8898 -1.4440 -1.3258
  340MOL0     H45895   7.048   2.212   2.928 -0.3401  0.8410 -1.0022
  340MOL0     H45896   6.702   2.421   2.848 -1.7168 -1.2347  1.6419
  340MOL0     H45897   7.371   1.817   2.942  0.9608 -1.3990  2.0193
  340MOL0     H45898   7.659   1.686   3.059  0.5925  0.1006 -0.8331
  340MOL0     H45899   7.505   1.641   2.981 -1.1918  1.1219 -0.0423
  340MOL0     H45900   7.645   1.668   2.880 -1.4637 -0.7335 -0.1223
  341MOL0     O45901   8.954  11.240  10.948  0.2186 -0.2976  0.9904
  341MOL0     C45902   8.879  11.169  10.895  1.0897  1.2351  0.2313
  341MOL0     O45903   8.877  11.134  10.761  0.5459  0.3282 -0.5048
  341MOL0     C45904   8.994  11.136  10.682  0.4613 -0.5747 -0.5953
  341MOL0     C45905   8.983  11.160  10.544 -0.8248  0.3905  0.7780
  341MOL0     C45906   9.094  11.198  10.470 -0.1846 -0.1040 -0.7811
  341MOL0     C45907   9.222  11.223  10.524  1.1265  0.3019  0.1254
  341MOL0     O45908   9.309  11.287  10.442 -0.1203  0.3751  0.0303
  341MOL0     C45909   9.358  11.413  10.483  0.3929 -0.1690  0.4048
  341MOL0     C45910   9.359  11.496  10.348 -0.5134  0.3129  0.2670
  341MOL0     C45911   9.437  11.445  10.240  0.5761 -0.3290 -0.2621
  341MOL0     C45912   9.423  11.541  10.124  0.4354  0.4319 -0.0495
  341MOL0     C45913   9.518  11.488  10.020  0.2303 -0.2768  0.0213
  341MOL0     C45914   9.466  11.380   9.934 -0.3024 -0.3160 -0.1341
  341MOL0     C45915   9.515  11.389   9.792  0.3139 -0.3996  0.2120
  341MOL0     C45916   9.443  11.298   9.700  0.2991  0.4885  0.0229
  341MOL0     N45917   9.511  11.265   9.576 -0.2164  0.3819  0.2503
  341MOL0     C45918   9.639  11.206   9.575  0.9526 -0.7312 -0.3100
  341MOL0     C45919   9.688  11.259   9.455 -0.1360 -0.2284  0.4058
  341MOL0     C45920   9.823  11.235   9.386 -1.6974 -0.4681 -0.4262
  341MOL0     C45921   9.928  11.350   9.403 -0.2711  1.0498 -0.4451
  341MOL0     C45922  10.074  11.313   9.383 -0.1670 -0.3567 -0.1822
  341MOL0     C45923  10.187  11.428   9.370  0.7445  0.5867  0.3242
  341MOL0     O45924  10.142  11.502   9.253 -0.2711  0.3198 -0.3276
  341MOL0     C45925  10.127  11.636   9.270  1.0105 -0.4099  0.0555
  341MOL0     C45926  10.212  11.714   9.197  0.1906  0.3363  0.7503
  341MOL0     C45927  10.207  11.854   9.205 -0.5103  0.6666 -0.3122
  341MOL0     C45928  10.106  11.911   9.290 -0.4701 -1.1524  0.0017
  341MOL0     C45929  10.101  12.060   9.306  0.0868  0.4237 -0.1589
  341MOL0     O45930   9.986  12.111   9.346 -0.3693  0.7214  0.1799
  341MOL0     C45931   9.989  12.244   9.367  0.7021 -0.1195 -0.1764
  341MOL0     C45932  10.059  12.314   9.459 -1.0960 -0.3262  0.7038
  341MOL0     C45933  10.043  12.451   9.469  0.0810 -0.8039  0.0376
  341MOL0     C45934   9.955  12.526   9.384  0.1367 -0.5791 -0.6358
  341MOL0     O45935   9.946  12.665   9.413 -0.7530  0.2298 -0.1712
  341MOL0     C45936   9.857  12.749   9.340 -0.3420  0.2516  0.2887
  341MOL0     C45937   9.846  12.879   9.424 -0.2451  0.1130 -0.2044
  341MOL0     C45938   9.751  12.988   9.366 -0.1717 -0.0694  0.2304
  341MOL0     C45939   9.767  13.125   9.448  0.6173  0.0781 -0.9560
  341MOL0     C45940   9.700  13.236   9.376 -0.2536 -0.2939 -0.4898
  341MOL0     C45941   9.664  13.345   9.479 -0.2927 -0.6747  0.3484
  341MOL0     C45942   9.533  13.414   9.456 -0.5302 -0.2764  0.3074
  341MOL0     C45943   9.543  13.490   9.325  0.8304 -1.0818 -0.4033
  341MOL0    Cl45944   9.637  13.637   9.354  0.5413  0.0186 -0.0845
  341MOL0     C45945   9.876  12.452   9.297 -1.1653  1.0261 -0.3580
  341MOL0     C45946   9.890  12.307   9.289 -0.0656 -0.4483 -1.5027
  341MOL0     O45947  10.201  12.126   9.285 -0.0538  0.4737  0.2987
  341MOL0     C45948  10.016  11.832   9.363  1.1980  0.0979  0.3551
  341MOL0     C45949  10.031  11.696   9.354  0.7955 -0.4882  0.5773
  341MOL0     N45950   9.579  11.314   9.381 -0.0526  0.6814 -1.0527
  341MOL0     N45951   9.481  11.333   9.459 -0.5652  0.0785  0.2092
  341MOL0     C45952   9.239  11.190  10.657 -0.2143  0.4041 -0.2264
  341MOL0     C45953   9.129  11.140  10.732 -0.3038  0.8714 -0.9227
  341MOL0     C45954   8.758  11.130  10.980  0.0282 -0.3356 -0.2557
  341MOL0     C45955   8.648  11.073  10.910 -0.6624 -0.6902 -0.8520
  341MOL0     C45956   8.529  11.034  10.981 -0.0369 -0.1018 -0.2926
  341MOL0     C45957   8.511  11.067  11.111  0.3898  0.3443  0.1690
  341MOL0     O45958   8.390  11.067  11.172 -0.0605  0.1400  1.3011
  341MOL0     C45959   8.309  11.178  11.117 -0.5669  0.3153  0.6065
  341MOL0     C45960   8.208  11.111  11.010 -0.1214 -0.4545  0.7864
  341MOL0     C45961   8.100  11.015  11.071 -0.4442  0.8063 -1.1058
  341MOL0     C45962   7.970  11.085  11.135  0.1478  0.1401 -0.4966
  341MOL0     C45963   7.854  10.996  11.128 -0.3603 -0.2727  0.0816
  341MOL0     C45964   7.755  10.924  11.154  0.3570  0.3489  0.9069
  341MOL0     C45965   8.614  11.128  11.175  0.4857 -0.2623 -0.9164
  341MOL0     C45966   8.747  11.157  11.119  0.2615  0.7986 -0.3747
  341MOL0     C45967   8.847  11.222  11.215  0.4498  0.9823 -0.8861
  341MOL0     H45968   8.882  11.153  10.507 -2.2766  3.1147  3.7315
  341MOL0     H45969   9.070  11.211  10.365  0.5859 -0.8041 -1.0542
  341MOL0     H45970   9.299  11.474  10.552 -0.2281  0.7104 -0.8673
  341MOL0     H45971   9.462  11.399  10.516  1.0504 -1.3511 -1.9678
  341MOL0     H45972   9.405  11.592  10.373 -2.0944  1.8400 -2.2067
  341MOL0     H45973   9.260  11.525  10.311 -0.9953  0.0563  1.3040
  341MOL0     H45974   9.405  11.343  10.214 -4.3415  0.6247  1.0008
  341MOL0     H45975   9.543  11.451  10.266  0.7847  4.5055 -1.2785
  341MOL0     H45976   9.318  11.533  10.095 -0.2561 -0.2811  2.3908
  341MOL0     H45977   9.462  11.641  10.145  5.9849 -1.6375  1.3349
  341MOL0     H45978   9.550  11.576   9.962 -2.1513  0.6784  0.0657
  341MOL0     H45979   9.609  11.439  10.055  0.8082  0.0500 -0.9546
  341MOL0     H45980   9.482  11.281   9.978  0.6077 -0.7728 -1.4427
  341MOL0     H45981   9.358  11.392   9.921 -0.9159 -2.4660  2.1444
  341MOL0     H45982   9.624  11.380   9.803  0.9325  4.2294 -0.0751
  341MOL0     H45983   9.490  11.491   9.762 -0.7059  0.1040  2.5520
  341MOL0     H45984   9.427  11.207   9.760  1.4455  2.0633  2.9140
  341MOL0     H45985   9.343  11.330   9.671 -2.3016 -4.5375  2.2603
  341MOL0     H45986   9.686  11.155   9.658  1.8627  0.4397 -0.0762
  341MOL0     H45987   9.875  11.149   9.429  2.7894  0.4422 -3.3831
  341MOL0     H45988   9.806  11.206   9.282  0.4491  1.6972 -1.4810
  341MOL0     H45989   9.902  11.419   9.323 -2.3337 -0.2313 -0.9638
  341MOL0     H45990   9.916  11.399   9.501 -0.1681  0.1684  0.0194
  341MOL0     H45991  10.067  11.255   9.291 -1.2288  0.9382 -0.9569
  341MOL0     H45992  10.112  11.248   9.462  0.8605 -0.8699 -1.0617
  341MOL0     H45993  10.290  11.409   9.341  0.5743  1.6545 -1.0928
  341MOL0     H45994  10.175  11.493   9.458  0.8355  2.1218 -0.7573
  341MOL0     H45995  10.284  11.666   9.132  0.5213  1.8082 -0.0170
  341MOL0     H45996  10.274  11.911   9.142 -2.3235  1.0803 -1.9824
  341MOL0     H45997  10.124  12.256   9.523  0.9293  0.7571 -0.2576
  341MOL0     H45998  10.101  12.511   9.539 -0.2261  1.3307 -1.4225
  341MOL0     H45999   9.894  12.766   9.239  1.6096 -0.9670  0.7367
  341MOL0     H46000   9.758  12.703   9.337 -0.4146  0.4061  0.2844
  341MOL0     H46001   9.809  12.850   9.523 -0.2809  2.1807  0.4390
  341MOL0     H46002   9.945  12.921   9.444  0.4395 -1.0126 -1.1466
  341MOL0     H46003   9.796  13.012   9.269  3.0647  1.1315  1.8628
  341MOL0     H46004   9.644  12.963   9.363 -0.0270 -0.8012  0.9027
  341MOL0     H46005   9.871  13.146   9.475  0.9839 -0.7526 -1.7026
  341MOL0     H46006   9.714  13.095   9.539  2.6330 -1.8704 -0.3424
  341MOL0     H46007   9.608  13.184   9.347 -0.3682 -0.7364  0.6014
  341MOL0     H46008   9.755  13.261   9.285 -0.5224  0.4753 -0.4471
  341MOL0     H46009   9.653  13.298   9.577 -1.6113 -0.3526  0.3762
  341MOL0     H46010   9.747  13.416   9.472  2.2950 -3.6362 -1.3327
  341MOL0     H46011   9.501  13.480   9.536  0.8227 -0.6888  1.2263
  341MOL0     H46012   9.455  13.341   9.429 -0.9044 -1.0895  3.2889
  341MOL0     H46013   9.593  13.436   9.243  0.0708 -2.9366  0.2943
  341MOL0     H46014   9.443  13.516   9.290  1.6486 -1.1733 -3.1055
  341MOL0     H46015   9.806  12.503   9.231 -0.7423  1.4284 -0.5012
  341MOL0     H46016   9.829  12.243   9.225 -0.5357 -0.5881 -0.9169
  341MOL0     H46017   9.940  11.870   9.430 -0.0225 -3.5593  1.2581
  341MOL0     H46018   9.973  11.641   9.428  0.1196 -0.7520 -0.1328
  341MOL0     H46019   9.339  11.213  10.691 -0.8384  1.7789  0.7790
  341MOL0     H46020   9.142  11.119  10.837  0.1231 -2.4196 -1.5411
  341MOL0     H46021   8.638  11.067  10.802 -0.4834  0.7462 -0.9741
  341MOL0     H46022   8.452  10.978  10.930 -1.5084  0.2810  1.4204
  341MOL0     H46023   8.351  11.263  11.064 -0.4749 -1.1097 -1.7356
  341MOL0     H46024   8.259  11.216  11.207  0.8133 -1.1186  2.0564
  341MOL0     H46025   8.271  11.055  10.940  1.2730  2.0862 -0.1089
  341MOL0     H46026   8.160  11.195  10.960  0.2736  0.0834  1.3032
  341MOL0     H46027   8.150  10.957  11.149 -2.5083  1.3417  0.7201
  341MOL0     H46028   8.077  10.943  10.991  1.4472  2.5315 -3.3649
  341MOL0     H46029   7.991  11.104  11.240 -1.2664  2.5235 -0.5696
  341MOL0     H46030   7.952  11.183  11.091  0.8742  0.2852 -0.4932
  341MOL0     H46031   7.664  10.870  11.170  1.2456 -1.5378 -0.1735
  341MOL0     H46032   8.600  11.175  11.272  0.6493 -0.5005 -0.7763
  341MOL0     H46033   8.949  11.203  11.178  1.3278  1.0642  1.3413
  341MOL0     H46034   8.826  11.329  11.224  1.1529  0.9907  1.4943
  341MOL0     H46035   8.845  11.185  11.318  1.3215 -1.4026 -1.6564
  342MOL0     O46036   4.339   0.169   7.244 -0.4943 -0.3429 -0.0176
  342MOL0     C46037   4.448   0.210   7.284  0.1410  0.3663 -0.7738
  342MOL0     O46038   4.498   0.341   7.277  0.2342  0.4194 -0.1888
  342MOL0     C46039   4.405   0.425   7.219  0.4384  0.0190 -0.0080
  342MOL0     C46040   4.342   0.516   7.305 -0.4650 -0.2967  0.0116
  342MOL0     C46041   4.262   0.616   7.254 -0.9313 -0.0572 -0.2982
  342MOL0     C46042   4.254   0.644   7.120 -0.0012  0.0989 -0.3804
  342MOL0     O46043   4.184   0.742   7.052 -0.4063 -0.0930  0.5907
  342MOL0     C46044   4.124   0.852   7.126  0.2936  0.4797 -1.3708
  342MOL0     C46045   4.046   0.948   7.040 -0.4274  0.1836  0.3394
  342MOL0     C46046   4.140   1.029   6.948  0.3213 -0.0424  1.3049
  342MOL0     C46047   4.063   1.133   6.860  0.1613  0.5814  0.1139
  342MOL0     C46048   3.953   1.227   6.927  0.0336 -0.8521 -0.0955
  342MOL0     C46049   4.015   1.298   7.050 -0.4105  0.0641 -0.1423
  342MOL0     C46050   3.899   1.356   7.128  0.3207  0.0432  0.9284
  342MOL0     C46051   3.825   1.470   7.068  1.1009  0.2394  0.8433
  342MOL0     N46052   3.888   1.556   6.961 -0.1638  0.5138 -0.0194
  342MOL0     C46053   3.850   1.570   6.828 -0.1336  0.3541 -0.9180
  342MOL0     C46054   3.967   1.634   6.777  0.9109  0.0195 -0.1932
  342MOL0     C46055   3.991   1.653   6.628 -0.6080  0.0060 -0.7102
  342MOL0     C46056   4.009   1.527   6.548  0.0566  0.0890 -0.2059
  342MOL0     C46057   4.134   1.438   6.597 -0.2707  0.1179 -0.7776
  342MOL0     C46058   4.268   1.501   6.610 -0.2288  0.1121  0.5298
  342MOL0     O46059   4.359   1.389   6.604 -0.1698 -0.4405 -0.3939
  342MOL0     C46060   4.422   1.346   6.721 -0.2086  1.2864  0.0258
  342MOL0     C46061   4.357   1.346   6.842  0.3577  0.2315  0.6949
  342MOL0     C46062   4.433   1.308   6.957 -0.1814  0.9909  0.4951
  342MOL0     C46063   4.565   1.255   6.956  0.5854 -0.2949  0.3952
  342MOL0     C46064   4.633   1.219   7.075 -0.3013  1.2432  0.0053
  342MOL0     O46065   4.773   1.205   7.064 -0.9089  0.6973  0.2984
  342MOL0     C46066   4.839   1.137   7.161 -0.2604 -0.1474 -0.1902
  342MOL0     C46067   4.843   1.188   7.293  0.5501 -0.3908  0.0285
  342MOL0     C46068   4.916   1.118   7.391 -1.1016 -0.1017  0.2129
  342MOL0     C46069   4.980   0.994   7.360 -0.5034  0.1413  0.1897
  342MOL0     O46070   5.049   0.937   7.469 -0.0373 -0.0341 -0.4791
  342MOL0     C46071   4.969   0.868   7.564  1.0959 -0.0732  0.2172
  342MOL0     C46072   5.039   0.740   7.607  0.2792  0.2720  0.4826
  342MOL0     C46073   5.116   0.767   7.739 -0.5971 -0.0834 -1.0756
  342MOL0     C46074   5.159   0.648   7.822  0.1490  0.6407 -0.9972
  342MOL0     C46075   5.285   0.685   7.898 -0.5538 -0.3405  0.4842
  342MOL0     C46076   5.350   0.573   7.976  0.1850  0.6521 -0.6387
  342MOL0     C46077   5.439   0.482   7.887  0.3045  0.2573 -0.6219
  342MOL0     C46078   5.497   0.371   7.968 -0.3345 -0.5892 -0.0966
  342MOL0    Cl46079   5.497   0.226   7.875  0.1254  0.7163  0.2825
  342MOL0     C46080   5.000   0.969   7.222 -0.1668 -0.5603  0.1961
  342MOL0     C46081   4.919   1.033   7.129 -0.0612 -1.2289  0.6213
  342MOL0     O46082   4.568   1.201   7.172  0.4786 -0.5489 -0.2005
  342MOL0     C46083   4.616   1.238   6.827 -0.1590  0.2881  0.6549
  342MOL0     C46084   4.548   1.285   6.714  0.3514  0.6999  1.4197
  342MOL0     N46085   4.045   1.670   6.876  0.4095 -0.0865  0.6523
  342MOL0     N46086   4.003   1.623   6.981  1.2226  1.0758  0.7403
  342MOL0     C46087   4.317   0.551   7.038  0.1870 -0.2313  0.0819
  342MOL0     C46088   4.386   0.446   7.084  0.1063  0.0980  1.1586
  342MOL0     C46089   4.541   0.114   7.347  0.7005 -0.6660  0.1949
  342MOL0     C46090   4.668   0.155   7.396  0.2048 -0.7533 -0.3978
  342MOL0     C46091   4.747   0.073   7.468  0.4033 -0.6296  0.3616
  342MOL0     C46092   4.698  -0.055   7.508 -0.1050  0.4950  1.2478
  342MOL0     O46093   4.776  -0.134   7.588 -0.5727 -1.1740 -1.1572
  342MOL0     C46094   4.765  -0.276   7.606 -0.1234  0.4881 -0.0716
  342MOL0     C46095   4.689  -0.316   7.725 -0.0787  1.1609 -0.6193
  342MOL0     C46096   4.772  -0.281   7.853  0.3741  0.0745 -0.0945
  342MOL0     C46097   4.755  -0.143   7.915  0.2443 -0.1682 -0.9247
  342MOL0     C46098   4.838  -0.122   8.035 -0.6782 -0.2806  0.2735
  342MOL0     C46099   4.910  -0.089   8.132 -0.2255 -0.6922  0.7063
  342MOL0     C46100   4.581  -0.103   7.448  0.8867 -0.0854  0.0405
  342MOL0     C46101   4.504  -0.020   7.364  0.8228 -0.1533 -0.4694
  342MOL0     C46102   4.394  -0.092   7.283  0.3741 -0.0591 -0.2271
  342MOL0     H46103   4.331   0.504   7.412 -2.1989  4.7168  0.6405
  342MOL0     H46104   4.244   0.695   7.326  1.5489  1.6012 -1.3722
  342MOL0     H46105   4.059   0.811   7.203 -0.7458  1.2540 -1.8090
  342MOL0     H46106   4.202   0.904   7.182  1.0071  0.2886 -2.1724
  342MOL0     H46107   3.987   1.014   7.105 -1.6822 -1.3125  0.7846
  342MOL0     H46108   3.973   0.901   6.974 -1.0996  0.5952  0.7749
  342MOL0     H46109   4.180   0.952   6.881 -1.7318 -0.1337  0.1099
  342MOL0     H46110   4.213   1.082   7.011  2.5364  0.8394 -1.7523
  342MOL0     H46111   4.132   1.184   6.792 -2.7722  3.0726 -1.2495
  342MOL0     H46112   3.998   1.082   6.789 -0.2455  2.8218 -1.2262
  342MOL0     H46113   3.905   1.299   6.861 -0.7098  1.4411  2.7074
  342MOL0     H46114   3.874   1.159   6.961 -1.9630 -0.3240 -3.2855
  342MOL0     H46115   4.064   1.222   7.111  0.7652  0.4804 -0.5401
  342MOL0     H46116   4.093   1.370   7.024 -1.9523  1.6989 -0.4891
  342MOL0     H46117   3.934   1.398   7.223  1.2654 -0.1058  0.6633
  342MOL0     H46118   3.829   1.275   7.152 -0.9829  0.8173 -0.1660
  342MOL0     H46119   3.732   1.435   7.021  3.0364  0.0279 -3.2637
  342MOL0     H46120   3.795   1.537   7.149 -1.0678  0.0427  0.2868
  342MOL0     H46121   3.785   1.513   6.762  3.1760 -0.7311 -3.5724
  342MOL0     H46122   3.897   1.697   6.591 -1.5032 -0.2671  1.1212
  342MOL0     H46123   4.068   1.729   6.612 -0.1461 -0.6180 -1.4644
  342MOL0     H46124   3.920   1.463   6.550  1.3443 -1.9088 -2.1262
  342MOL0     H46125   4.018   1.568   6.447  1.9778  2.4194  0.8090
  342MOL0     H46126   4.142   1.360   6.521  5.0067  0.1732 -0.6383
  342MOL0     H46127   4.107   1.391   6.692  0.7843  0.2362 -0.4162
  342MOL0     H46128   4.267   1.559   6.703 -1.2785  3.1653 -1.2428
  342MOL0     H46129   4.286   1.575   6.532 -1.0484 -0.1075  0.1184
  342MOL0     H46130   4.259   1.391   6.853 -1.1221 -1.5976 -3.0700
  342MOL0     H46131   4.380   1.325   7.051 -2.1370  0.4476 -0.4495
  342MOL0     H46132   4.798   1.285   7.311  2.9722  0.2704  3.4928
  342MOL0     H46133   4.918   1.165   7.489 -3.2772  2.4537 -0.8224
  342MOL0     H46134   4.930   0.930   7.645 -1.8936  0.7935 -1.7023
  342MOL0     H46135   4.870   0.839   7.528  1.7294 -0.9147 -0.9425
  342MOL0     H46136   4.959   0.666   7.609  1.2367 -0.7609  1.5251
  342MOL0     H46137   5.117   0.703   7.541 -0.2889  1.4778 -0.9218
  342MOL0     H46138   5.203   0.819   7.697  0.9941 -3.0846 -1.7801
  342MOL0     H46139   5.057   0.838   7.798 -1.4338 -0.3085 -1.6369
  342MOL0     H46140   5.181   0.560   7.762  2.1390  1.4253 -1.5042
  342MOL0     H46141   5.088   0.612   7.897  2.0846 -2.2063 -0.3609
  342MOL0     H46142   5.261   0.763   7.971  0.1807 -0.3992  0.7910
  342MOL0     H46143   5.355   0.724   7.825 -3.9681 -1.2120 -3.6706
  342MOL0     H46144   5.416   0.609   8.057  0.0188  0.8772 -0.6038
  342MOL0     H46145   5.268   0.518   8.023 -0.3048 -0.8876 -3.1323
  342MOL0     H46146   5.512   0.536   7.826 -0.5134  1.3457 -0.6867
  342MOL0     H46147   5.377   0.444   7.804  2.3904 -0.1451 -2.0675
  342MOL0     H46148   5.597   0.398   8.003  0.3421 -2.4297 -0.4836
  342MOL0     H46149   5.435   0.347   8.054 -1.7056 -2.9409 -1.6235
  342MOL0     H46150   5.075   0.897   7.192  0.3638  0.8252 -2.0363
  342MOL0     H46151   4.921   0.991   7.029  0.7554  2.2950 -0.9950
  342MOL0     H46152   4.717   1.201   6.817  0.5866  2.1522  0.9845
  342MOL0     H46153   4.594   1.275   6.617  0.1489  5.8145  0.5193
  342MOL0     H46154   4.305   0.552   6.931  1.0452 -2.5055 -0.0944
  342MOL0     H46155   4.426   0.372   7.015  0.8890  2.3270 -0.9307
  342MOL0     H46156   4.687   0.262   7.396  0.3053 -0.7699 -0.7531
  342MOL0     H46157   4.843   0.105   7.508  1.7628 -0.4965 -2.7304
  342MOL0     H46158   4.866  -0.320   7.605 -0.1673  0.3831 -0.6758
  342MOL0     H46159   4.702  -0.309   7.523 -0.6650  0.4903  0.3404
  342MOL0     H46160   4.678  -0.425   7.721 -0.9234  1.1271  1.2228
  342MOL0     H46161   4.593  -0.264   7.723 -0.4017  0.5544 -1.2346
  342MOL0     H46162   4.875  -0.302   7.825 -0.4628 -2.4799 -1.5944
  342MOL0     H46163   4.732  -0.351   7.928  0.2318  1.1902  0.9080
  342MOL0     H46164   4.791  -0.070   7.842  1.6628  0.3357  0.2466
  342MOL0     H46165   4.646  -0.130   7.918 -0.0307 -2.3149 -0.5500
  342MOL0     H46166   4.962  -0.055   8.219  0.1815 -2.4798  1.2106
  342MOL0     H46167   4.538  -0.202   7.462 -1.9097  1.3227  2.8277
  342MOL0     H46168   4.377  -0.064   7.178  0.6816 -4.0477 -1.5009
  342MOL0     H46169   4.419  -0.197   7.298 -0.7328  0.1265  4.0339
  342MOL0     H46170   4.304  -0.074   7.343  1.0632  1.1212  0.4941
  343MOL0     O46171   9.298   8.263  10.675 -0.7761 -0.3667  0.0695
  343MOL0     C46172   9.268   8.270  10.548 -0.1638  0.2026 -0.9869
  343MOL0     O46173   9.134   8.240  10.500  0.2582 -0.3276  0.0671
  343MOL0     C46174   9.032   8.263  10.585 -0.1351  0.3889  0.6465
  343MOL0     C46175   8.921   8.183  10.566  0.7268  0.8763  0.7200
  343MOL0     C46176   8.796   8.211  10.631  0.5370 -0.5947  0.4492
  343MOL0     C46177   8.786   8.332  10.704  0.0653 -0.3043  0.6549
  343MOL0     O46178   8.667   8.379  10.750  0.1154 -0.0386 -0.2132
  343MOL0     C46179   8.550   8.373  10.669 -0.9481 -0.3531  0.5691
  343MOL0     C46180   8.439   8.276  10.719  0.3169 -0.4348  0.6540
  343MOL0     C46181   8.364   8.343  10.848 -0.3948 -0.0133 -0.6715
  343MOL0     C46182   8.295   8.236  10.924 -1.0460  0.0869  1.0352
  343MOL0     C46183   8.237   8.278  11.056 -0.4211  0.1167  0.6711
  343MOL0     C46184   8.119   8.378  11.066 -0.8770  0.7782  0.0916
  343MOL0     C46185   8.065   8.403  11.205 -0.2547  0.0611  0.8275
  343MOL0     C46186   8.006   8.544  11.223  0.8918  0.6177 -0.0593
  343MOL0     N46187   8.002   8.593  11.366 -0.2712 -0.0911 -0.2700
  343MOL0     C46188   8.049   8.719  11.404  0.6235  0.1501  1.2276
  343MOL0     C46189   8.035   8.716  11.546 -0.2614  0.3556 -0.3631
  343MOL0     C46190   8.068   8.822  11.645 -0.7151 -0.6650 -0.7800
  343MOL0     C46191   7.999   8.963  11.632  0.0759 -0.3095  0.4834
  343MOL0     C46192   7.864   8.961  11.715  0.2420  0.1550  0.0115
  343MOL0     C46193   7.785   9.091  11.711  0.1739 -0.5546  0.1839
  343MOL0     O46194   7.849   9.205  11.783 -0.2174 -0.1949 -0.2986
  343MOL0     C46195   7.817   9.224  11.915 -1.0971 -0.3711  0.8225
  343MOL0     C46196   7.723   9.166  11.987 -0.2662  1.0697  0.7770
  343MOL0     C46197   7.706   9.198  12.117  0.7441 -0.5457  0.0624
  343MOL0     C46198   7.784   9.291  12.179  0.1925  0.1040  0.3752
  343MOL0     C46199   7.745   9.332  12.312 -0.9461  0.4104 -0.4793
  343MOL0     O46200   7.655   9.251  12.380  0.2888 -0.1783  0.4506
  343MOL0     C46201   7.611   9.284  12.510 -0.7690  0.2223 -0.0437
  343MOL0     C46202   7.587   9.414  12.563  0.1957  0.1784 -0.3019
  343MOL0     C46203   7.529   9.430  12.693 -0.2498 -0.3623 -0.3628
  343MOL0     C46204   7.511   9.322  12.770  0.2507  0.5114  0.0640
  343MOL0     O46205   7.479   9.337  12.903  0.1594 -0.0245  0.6281
  343MOL0     C46206   7.391   9.239  12.961  0.1684 -0.0971  0.3326
  343MOL0     C46207   7.358   9.282  13.101 -0.7022 -0.4046 -0.1528
  343MOL0     C46208   7.250   9.394  13.089  0.5782 -0.1253 -0.2150
  343MOL0     C46209   7.231   9.457  13.232  0.3772  0.9401 -0.1377
  343MOL0     C46210   7.134   9.567  13.228  0.2249 -0.1062  0.2702
  343MOL0     C46211   7.211   9.694  13.204  0.2609  0.0542  0.2698
  343MOL0     C46212   7.110   9.809  13.173 -1.2381  0.2484  0.7071
  343MOL0     C46213   7.173   9.938  13.117 -0.5093  0.1408 -0.1685
  343MOL0    Cl46214   7.041  10.054  13.073  0.3175  0.0313 -0.7381
  343MOL0     C46215   7.529   9.194  12.707  0.1675  0.4853 -0.0783
  343MOL0     C46216   7.574   9.175  12.582  0.3379  0.5367  0.0282
  343MOL0     O46217   7.787   9.439  12.353  0.3415  0.8941 -0.6808
  343MOL0     C46218   7.888   9.353  12.111 -0.2988  0.7764 -0.0484
  343MOL0     C46219   7.912   9.312  11.978  1.2386 -0.4089 -0.1397
  343MOL0     N46220   7.990   8.591  11.584  0.2229  0.3932  0.1393
  343MOL0     N46221   7.956   8.522  11.476  0.0675  0.5369  0.1157
  343MOL0     C46222   8.902   8.397  10.737 -0.5375  0.7576 -0.1503
  343MOL0     C46223   9.020   8.357  10.689  0.4428 -0.5026  0.1376
  343MOL0     C46224   9.377   8.298  10.458 -0.2300  0.6071 -0.0405
  343MOL0     C46225   9.351   8.269  10.327  0.6990 -0.3634  0.2051
  343MOL0     C46226   9.444   8.294  10.222  1.3779 -0.4232 -0.6350
  343MOL0     C46227   9.569   8.344  10.264  0.9548  0.1352 -0.2835
  343MOL0     O46228   9.659   8.387  10.169 -0.3380  0.5318  0.1978
  343MOL0     C46229   9.715   8.290  10.085  0.3592  0.1247  1.0963
  343MOL0     C46230   9.856   8.277  10.118 -1.3048 -0.2091  0.3500
  343MOL0     C46231   9.942   8.397  10.091 -1.4564 -0.1839 -0.7677
  343MOL0     C46232  10.053   8.425  10.189  0.2003 -0.6736 -0.1809
  343MOL0     C46233  10.013   8.465  10.325 -0.1393 -0.8242 -0.4352
  343MOL0     C46234  10.005   8.494  10.451  0.1769  0.5868  0.0248
  343MOL0     C46235   9.598   8.361  10.403 -0.3993 -0.3619 -0.5924
  343MOL0     C46236   9.502   8.341  10.494  0.0716 -0.3203  0.3622
  343MOL0     C46237   9.559   8.344  10.636 -0.0425  0.9265 -0.3501
  343MOL0     H46238   8.925   8.098  10.499 -2.6651  0.7861  0.4377
  343MOL0     H46239   8.706   8.156  10.608  1.2754 -1.3230 -0.8090
  343MOL0     H46240   8.499   8.470  10.676  0.1306  0.3679 -0.8808
  343MOL0     H46241   8.573   8.360  10.563 -2.1975 -1.6950  0.4426
  343MOL0     H46242   8.482   8.177  10.733 -0.6611 -0.9344  0.2563
  343MOL0     H46243   8.362   8.263  10.642 -1.6166  0.1649  2.3855
  343MOL0     H46244   8.279   8.406  10.819 -1.1172 -0.7609 -0.2325
  343MOL0     H46245   8.424   8.407  10.913  0.8547 -0.4201 -1.4000
  343MOL0     H46246   8.219   8.181  10.868 -1.8167  1.3778  0.7763
  343MOL0     H46247   8.373   8.162  10.945 -1.7142 -0.7942  0.5064
  343MOL0     H46248   8.201   8.191  11.113 -0.4337 -0.8372 -0.7334
  343MOL0     H46249   8.321   8.330  11.103 -0.0311  0.3811 -0.3124
  343MOL0     H46250   8.145   8.472  11.017 -0.9662  2.4784  3.0456
  343MOL0     H46251   8.041   8.327  11.008  0.9297  1.3230 -3.0477
  343MOL0     H46252   8.153   8.401  11.269 -1.2715 -3.0515  2.3236
  343MOL0     H46253   7.989   8.327  11.229  0.5089 -0.7780  0.6343
  343MOL0     H46254   8.056   8.603  11.146  2.9078  0.9565  1.4254
  343MOL0     H46255   7.903   8.529  11.190  1.8839 -1.7576 -2.4575
  343MOL0     H46256   8.077   8.799  11.337 -2.3038  1.3225  1.2599
  343MOL0     H46257   8.033   8.783  11.741 -2.9448  2.2938 -0.2473
  343MOL0     H46258   8.177   8.832  11.652 -0.8209 -0.5469  1.3156
  343MOL0     H46259   8.066   9.043  11.666  1.1462 -1.7518  1.9612
  343MOL0     H46260   7.984   8.978  11.525 -0.8292 -1.1568  0.4848
  343MOL0     H46261   7.875   8.939  11.822 -0.4931 -0.3137 -0.0042
  343MOL0     H46262   7.797   8.885  11.674  2.6025 -2.1138  0.1354
  343MOL0     H46263   7.678   9.080  11.734  0.2740  1.7076  2.1848
  343MOL0     H46264   7.787   9.135  11.611  3.1184  3.7412  1.8026
  343MOL0     H46265   7.658   9.091  11.944  2.3261 -0.2358 -1.1612
  343MOL0     H46266   7.622   9.154  12.171  0.2568 -0.5640 -0.6944
  343MOL0     H46267   7.590   9.502  12.499 -3.0937  1.3861  0.9632
  343MOL0     H46268   7.517   9.530  12.732 -2.2363  0.3270 -2.4817
  343MOL0     H46269   7.300   9.248  12.902  1.5641 -2.6130 -2.5210
  343MOL0     H46270   7.435   9.138  12.960  1.9574  0.5611 -3.0795
  343MOL0     H46271   7.322   9.196  13.159  0.0110  0.1734  1.1984
  343MOL0     H46272   7.445   9.333  13.144  0.7571 -2.5763 -0.3745
  343MOL0     H46273   7.289   9.467  13.018  1.2970 -0.6202 -0.3397
  343MOL0     H46274   7.155   9.359  13.047 -1.8082  2.0847  2.8612
  343MOL0     H46275   7.328   9.489  13.270  2.4736 -2.3718 -2.1452
  343MOL0     H46276   7.198   9.374  13.295  0.2563 -0.5480 -2.0781
  343MOL0     H46277   7.087   9.561  13.327  0.5356 -0.4594  0.4005
  343MOL0     H46278   7.050   9.545  13.161 -0.5865 -2.9330  2.0131
  343MOL0     H46279   7.279   9.724  13.284  1.1909 -1.2653  0.0111
  343MOL0     H46280   7.276   9.680  13.117 -4.1607  1.0335 -3.6078
  343MOL0     H46281   7.042   9.836  13.255 -2.7996  2.3797 -1.1423
  343MOL0     H46282   7.043   9.769  13.097  2.6027 -0.9637 -2.3112
  343MOL0     H46283   7.240   9.979  13.194 -0.9032 -0.9367  0.7920
  343MOL0     H46284   7.228   9.924  13.023  0.4304 -0.8842  0.4980
  343MOL0     H46285   7.535   9.105  12.769  2.0886  0.9395  0.4384
  343MOL0     H46286   7.609   9.078  12.548 -2.3751  0.1272 -1.9104
  343MOL0     H46287   7.949   9.431  12.158  0.4905  0.2845 -0.2324
  343MOL0     H46288   8.003   9.353  11.935  2.5731 -1.4489  1.5721
  343MOL0     H46289   8.911   8.478  10.808  3.9972 -0.4852  1.0308
  343MOL0     H46290   9.104   8.419  10.719 -1.7762  0.9791  3.8928
  343MOL0     H46291   9.252   8.236  10.297  0.5057  1.6983 -1.7420
  343MOL0     H46292   9.418   8.261  10.122  1.0499 -0.0578 -0.6750
  343MOL0     H46293   9.709   8.333   9.984  0.4852  2.2748  1.9490
  343MOL0     H46294   9.670   8.191  10.090 -1.2128  0.2574 -4.2120
  343MOL0     H46295   9.915   8.195  10.076 -1.2146  0.1101 -0.1556
  343MOL0     H46296   9.858   8.259  10.226 -0.4693 -2.3272  0.0301
  343MOL0     H46297   9.873   8.481  10.105 -1.9602 -1.0447  3.4477
  343MOL0     H46298   9.963   8.397   9.984  0.4231 -2.3703 -0.4618
  343MOL0     H46299  10.125   8.343  10.204  1.2397  0.6588  2.9291
  343MOL0     H46300  10.111   8.511  10.155  1.9889 -1.4213  0.8221
  343MOL0     H46301  10.013   8.515  10.555 -0.8915  2.9531 -0.2988
  343MOL0     H46302   9.688   8.410  10.438 -0.6847  0.3605 -0.8526
  343MOL0     H46303   9.509   8.420  10.696  0.6438  1.4415 -0.4229
  343MOL0     H46304   9.556   8.244  10.681  0.2596  0.9575 -0.2614
  343MOL0     H46305   9.665   8.369  10.645  0.0126 -0.0908  4.9395
  344MOL0     O46306  10.706   7.937   7.853 -0.4830 -0.0172 -0.3097
  344MOL0     C46307  10.623   7.888   7.772  0.8770  0.1751 -1.3407
  344MOL0     O46308  10.548   7.777   7.790 -0.5322  0.0472 -0.7498
  344MOL0     C46309  10.532   7.725   7.916  0.2827 -0.0230  0.5217
  344MOL0     C46310  10.516   7.583   7.923 -0.3856 -0.0568  0.2851
  344MOL0     C46311  10.477   7.516   8.035  0.5247  1.0125 -0.9335
  344MOL0     C46312  10.486   7.593   8.159 -0.0488  0.3459  0.0028
  344MOL0     O46313  10.447   7.543   8.281 -0.2008 -0.0423  0.3044
  344MOL0     C46314  10.548   7.458   8.338  0.6483  0.0016 -0.1462
  344MOL0     C46315  10.646   7.530   8.426  0.1227  0.3327 -0.3203
  344MOL0     C46316  10.591   7.568   8.552 -0.7515 -0.4821  0.2451
  344MOL0     C46317  10.616   7.715   8.567  0.1162  0.0930 -0.1624
  344MOL0     C46318  10.538   7.779   8.681  0.2241  0.5929  1.1375
  344MOL0     C46319  10.575   7.927   8.700  0.4843  0.3015  0.4769
  344MOL0     C46320  10.485   7.993   8.802  0.0305 -0.1843 -0.4363
  344MOL0     C46321  10.498   7.931   8.950  0.0157  0.1345  0.8918
  344MOL0     N46322  10.412   7.815   8.954  0.5843  1.1295 -1.3303
  344MOL0     C46323  10.279   7.819   8.925  0.1872 -0.0485 -0.0198
  344MOL0     C46324  10.242   7.692   8.936 -1.8592  0.5112  1.1573
  344MOL0     C46325  10.102   7.639   8.896 -0.1885  0.4634 -0.6928
  344MOL0     C46326  10.106   7.535   8.782 -0.6172  0.5789 -0.4346
  344MOL0     C46327  10.186   7.585   8.661 -0.2075  1.0937 -0.0160
  344MOL0     C46328  10.135   7.511   8.535 -0.8234 -0.2690 -0.4683
  344MOL0     O46329  10.130   7.369   8.567 -0.1673 -0.2676  0.2888
  344MOL0     C46330  10.151   7.276   8.465  0.1593 -0.1835 -0.1598
  344MOL0     C46331  10.173   7.148   8.509 -0.6220 -0.8600 -0.3259
  344MOL0     C46332  10.167   7.055   8.419 -0.0524 -0.3588  0.0543
  344MOL0     C46333  10.170   7.075   8.273 -0.5561 -0.0881 -0.1468
  344MOL0     C46334  10.173   6.962   8.175 -0.3482  0.5804 -0.4651
  344MOL0     O46335  10.127   6.838   8.209  0.6041  0.3673 -0.2672
  344MOL0     C46336  10.144   6.747   8.111 -0.2927  0.5058  0.3026
  344MOL0     C46337  10.276   6.705   8.075 -1.0672  1.6532 -0.3994
  344MOL0     C46338  10.294   6.587   7.999  0.1891  0.1562 -0.0098
  344MOL0     C46339  10.184   6.512   7.960  0.4207 -0.5913  0.3048
  344MOL0     O46340  10.207   6.394   7.894 -0.4590 -0.0894  0.4508
  344MOL0     C46341  10.334   6.377   7.817  0.2931  0.5222  0.2121
  344MOL0     C46342  10.334   6.458   7.688  0.7356 -0.6621 -0.4140
  344MOL0     C46343  10.452   6.434   7.595 -0.2545  0.4030  0.2238
  344MOL0     C46344  10.484   6.287   7.552  1.0583 -0.1475  1.1552
  344MOL0     C46345  10.619   6.274   7.489 -0.1323  0.7713  0.5581
  344MOL0     C46346  10.679   6.130   7.472 -0.5902 -0.6674  0.3128
  344MOL0     C46347  10.826   6.129   7.417  1.0540 -0.5049 -0.0759
  344MOL0     C46348  10.872   5.987   7.401 -0.2654  0.4714  0.3073
  344MOL0    Cl46349  10.868   5.906   7.556  0.4029  0.0094 -0.1459
  344MOL0     C46350  10.055   6.557   7.991  0.2356  0.8144  0.3412
  344MOL0     C46351  10.036   6.674   8.065  0.4016  0.5706  0.9193
  344MOL0     O46352  10.219   6.993   8.069 -0.3418 -0.6780 -0.7092
  344MOL0     C46353  10.164   7.203   8.230  0.0173 -0.9710 -0.0105
  344MOL0     C46354  10.159   7.306   8.329 -0.6205  0.6985  0.5309
  344MOL0     N46355  10.348   7.608   8.976  0.2582 -0.2420 -0.5045
  344MOL0     N46356  10.451   7.684   8.996  0.0318  0.0701  0.0220
  344MOL0     C46357  10.519   7.728   8.156  0.7887 -0.1136 -0.4093
  344MOL0     C46358  10.528   7.796   8.036 -0.0904 -0.1196  0.1888
  344MOL0     C46359  10.614   7.955   7.640  0.4298 -0.1934 -1.1500
  344MOL0     C46360  10.566   7.876   7.538  0.4005 -0.3124 -0.0432
  344MOL0     C46361  10.575   7.918   7.400  0.1410  0.3535 -0.5312
  344MOL0     C46362  10.616   8.047   7.381 -0.3921 -0.4214  0.4966
  344MOL0     O46363  10.597   8.083   7.248 -0.4131  0.7093 -0.2868
  344MOL0     C46364  10.646   8.210   7.214 -1.0138 -0.7234  0.1292
  344MOL0     C46365  10.548   8.318   7.268 -0.4123  0.2905 -0.3385
  344MOL0     C46366  10.597   8.466   7.238 -0.6753 -0.4126  0.8549
  344MOL0     C46367  10.480   8.563   7.266 -0.6596  0.6118  0.5297
  344MOL0     C46368  10.354   8.532   7.199  0.0005 -1.4382  0.5484
  344MOL0     C46369  10.251   8.523   7.139 -0.1865  0.2425  0.2428
  344MOL0     C46370  10.665   8.121   7.486  0.4133 -0.0901  0.4593
  344MOL0     C46371  10.649   8.086   7.619 -0.4424 -0.5633  0.9455
  344MOL0     C46372  10.660   8.191   7.723  0.5284 -1.2262  0.0951
  344MOL0     H46373  10.523   7.518   7.836  1.0175 -1.0598  1.1022
  344MOL0     H46374  10.439   7.414   8.028 -3.6561  2.2965  0.0047
  344MOL0     H46375  10.504   7.371   8.386 -0.3811 -0.2805 -1.5212
  344MOL0     H46376  10.601   7.409   8.255  1.3349 -1.0361  0.8818
  344MOL0     H46377  10.680   7.614   8.364  1.2127  1.3069  1.5002
  344MOL0     H46378  10.736   7.469   8.434  0.2898  0.8332  3.4811
  344MOL0     H46379  10.642   7.503   8.624 -0.5605 -2.7409 -1.8019
  344MOL0     H46380  10.486   7.540   8.563 -0.7496 -0.5439  0.1047
  344MOL0     H46381  10.723   7.727   8.588  0.6956  0.5987 -2.9781
  344MOL0     H46382  10.595   7.773   8.477  2.5675  0.2515 -0.7099
  344MOL0     H46383  10.430   7.783   8.663 -0.2765  0.1066  3.6520
  344MOL0     H46384  10.555   7.728   8.777  1.8388 -2.0363 -0.4179
  344MOL0     H46385  10.682   7.922   8.724  0.6272 -1.2802 -0.3473
  344MOL0     H46386  10.560   7.970   8.601  1.7413 -1.7987 -0.7223
  344MOL0     H46387  10.379   7.992   8.776 -0.1917  1.8122  0.2028
  344MOL0     H46388  10.531   8.092   8.806  1.7201 -0.8626 -1.8435
  344MOL0     H46389  10.601   7.900   8.968 -0.1383 -0.9298  0.0405
  344MOL0     H46390  10.467   8.011   9.018 -0.1013 -0.5030  1.5948
  344MOL0     H46391  10.214   7.898   8.891  0.6184  0.8934  1.2941
  344MOL0     H46392  10.065   7.572   8.974  1.0243 -1.1067 -1.3951
  344MOL0     H46393  10.031   7.721   8.882 -1.6365 -0.9068 -1.7937
  344MOL0     H46394  10.141   7.438   8.818  0.7357  0.0367 -2.9449
  344MOL0     H46395  10.001   7.514   8.757  0.1303 -1.9731 -1.7331
  344MOL0     H46396  10.293   7.573   8.680 -0.6949 -0.0100  2.3922
  344MOL0     H46397  10.167   7.691   8.641  2.2445  0.9833 -4.0327
  344MOL0     H46398  10.214   7.533   8.463  2.8109 -0.0852  3.2066
  344MOL0     H46399  10.039   7.555   8.507 -0.1514  0.4832 -1.6534
  344MOL0     H46400  10.166   7.137   8.617 -2.3595 -1.9179 -0.5109
  344MOL0     H46401  10.168   6.951   8.449  2.2919 -0.7328 -1.0727
  344MOL0     H46402  10.368   6.758   8.096 -1.1581  2.3033 -1.5572
  344MOL0     H46403  10.388   6.549   7.961  0.8570  2.2012 -0.5285
  344MOL0     H46404  10.430   6.393   7.868  1.2011  2.1635 -1.8407
  344MOL0     H46405  10.339   6.271   7.792 -3.1846  0.7946 -2.3294
  344MOL0     H46406  10.242   6.438   7.632  1.0408 -1.5836 -0.6175
  344MOL0     H46407  10.345   6.557   7.732  2.6727 -0.8328 -0.4354
  344MOL0     H46408  10.445   6.489   7.501  2.3458  0.5159  0.0186
  344MOL0     H46409  10.532   6.478   7.655 -0.2504  0.7008  0.0003
  344MOL0     H46410  10.414   6.264   7.472 -1.0291  2.3570  2.1024
  344MOL0     H46411  10.474   6.224   7.641  0.3836  0.2319  1.3509
  344MOL0     H46412  10.694   6.322   7.553  1.7839 -2.2631  0.7833
  344MOL0     H46413  10.617   6.330   7.395 -1.7932  0.5524  0.4213
  344MOL0     H46414  10.690   6.089   7.573 -1.2329  0.6231  0.9314
  344MOL0     H46415  10.617   6.069   7.406 -0.6287 -1.2526  0.8818
  344MOL0     H46416  10.896   6.174   7.488  1.2392 -1.3052  0.2556
  344MOL0     H46417  10.830   6.173   7.317  2.0618  0.6813  0.4641
  344MOL0     H46418  10.806   5.932   7.334  0.9210 -1.1946  0.4391
  344MOL0     H46419  10.971   5.977   7.356 -0.0886 -0.5585  0.8838
  344MOL0     H46420   9.975   6.495   7.951  1.4941 -0.8345  0.2492
  344MOL0     H46421   9.938   6.716   8.088 -0.1426  0.3749 -0.8594
  344MOL0     H46422  10.147   7.229   8.126  1.2097  1.1048  0.2643
  344MOL0     H46423  10.146   7.406   8.289  1.8469 -0.4272 -3.6850
  344MOL0     H46424  10.538   7.790   8.242  3.1466  0.4410 -1.2545
  344MOL0     H46425  10.539   7.903   8.049 -1.0085  0.0053 -0.0358
  344MOL0     H46426  10.530   7.774   7.549  1.0079 -0.6858 -1.2992
  344MOL0     H46427  10.540   7.850   7.323  0.9148  1.3656 -1.8052
  344MOL0     H46428  10.650   8.233   7.107  1.2278  1.1344  0.5530
  344MOL0     H46429  10.746   8.228   7.252 -1.7008 -0.1131  1.7309
  344MOL0     H46430  10.539   8.316   7.377  2.1256  1.9661 -0.0045
  344MOL0     H46431  10.446   8.300   7.233 -0.3788 -0.6865  0.0528
  344MOL0     H46432  10.620   8.479   7.131  3.6869  1.4849  1.7882
  344MOL0     H46433  10.694   8.494   7.281  0.9701 -2.0731 -1.4820
  344MOL0     H46434  10.452   8.574   7.372 -0.6883  2.1568  0.3898
  344MOL0     H46435  10.518   8.661   7.233  0.8107  0.1193  0.6670
  344MOL0     H46436  10.156   8.508   7.091 -0.7199  1.3922  0.8795
  344MOL0     H46437  10.718   8.214   7.468  1.4133 -0.9660 -1.4414
  344MOL0     H46438  10.576   8.209   7.791  1.2562  1.0729  0.4866
  344MOL0     H46439  10.747   8.170   7.786 -0.8372  0.4159  2.7054
  344MOL0     H46440  10.679   8.293   7.687  0.5607 -0.7632  1.3802
  345MOL0     O46441  10.680   4.767  10.034  1.0454  1.0981 -0.0077
  345MOL0     C46442  10.694   4.751  10.158  0.6006  0.0802 -0.1560
  345MOL0     O46443  10.602   4.767  10.253  0.6111  1.0838 -0.5185
  345MOL0     C46444  10.470   4.793  10.230 -0.0457 -0.2809 -0.1782
  345MOL0     C46445  10.405   4.863  10.337  0.5568 -0.1965  0.4151
  345MOL0     C46446  10.270   4.901  10.333 -0.6592  0.2549  0.6525
  345MOL0     C46447  10.199   4.858  10.214 -0.2287 -1.2381 -0.6235
  345MOL0     O46448  10.068   4.897  10.192  0.0221  0.0880  0.0074
  345MOL0     C46449   9.981   4.917  10.302  0.1513  0.3987 -0.3880
  345MOL0     C46450   9.841   4.924  10.238  1.0935 -0.2603 -0.6047
  345MOL0     C46451   9.797   4.799  10.176  1.0789 -0.1696  0.0159
  345MOL0     C46452   9.775   4.683  10.274 -0.2676 -0.3960  0.1797
  345MOL0     C46453   9.725   4.559  10.194 -0.4629 -0.0875 -0.1431
  345MOL0     C46454   9.801   4.504  10.087  0.2362 -0.6143 -0.4866
  345MOL0     C46455   9.769   4.358  10.042  0.5082 -0.0850 -0.6232
  345MOL0     C46456   9.864   4.305   9.939  0.4613 -0.1769  0.6230
  345MOL0     N46457   9.831   4.373   9.811 -0.0219  0.4434 -0.5164
  345MOL0     C46458   9.909   4.452   9.729  0.1193  0.5139 -0.1777
  345MOL0     C46459   9.852   4.442   9.606  0.9237 -0.0529  0.1361
  345MOL0     C46460   9.885   4.516   9.477 -0.1378  0.4199  0.2379
  345MOL0     C46461  10.025   4.564   9.466  0.3137 -0.2196  0.2311
  345MOL0     C46462  10.038   4.661   9.344 -0.2128  0.5404 -0.3444
  345MOL0     C46463  10.177   4.687   9.310 -0.0843  1.3664  1.0710
  345MOL0     O46464  10.213   4.563   9.256  0.1276 -0.6968  0.0511
  345MOL0     C46465  10.343   4.548   9.228  0.2995 -0.2066  0.1639
  345MOL0     C46466  10.367   4.460   9.123 -0.5310 -0.6504 -0.2842
  345MOL0     C46467  10.500   4.451   9.066  0.1868 -0.0489 -1.0590
  345MOL0     C46468  10.616   4.497   9.144  0.5349  1.3102 -0.0305
  345MOL0     C46469  10.754   4.467   9.093 -0.0304  0.6068  0.4773
  345MOL0     O46470  10.773   4.397   8.969  0.1581 -0.2049  0.1403
  345MOL0     C46471  10.897   4.373   8.914 -0.5767 -0.4018  0.2887
  345MOL0     C46472  10.994   4.472   8.921  0.4307 -1.0609  0.3677
  345MOL0     C46473  11.116   4.451   8.871 -0.4187  1.0747  0.0230
  345MOL0     C46474  11.158   4.324   8.803  1.0401 -0.1911  0.1573
  345MOL0     O46475  11.286   4.308   8.743 -0.2474 -0.2734  0.0140
  345MOL0     C46476  11.362   4.430   8.712 -0.5595  0.2730 -0.9360
  345MOL0     C46477  11.481   4.418   8.604  0.4474 -0.3226  0.1827
  345MOL0     C46478  11.589   4.346   8.663 -0.6575 -0.0146 -0.0067
  345MOL0     C46479  11.694   4.324   8.550  0.0734  0.3814  0.0490
  345MOL0     C46480  11.835   4.321   8.594 -0.7899  0.0099 -0.1615
  345MOL0     C46481  11.858   4.221   8.721  1.2007 -0.3121  0.8748
  345MOL0     C46482  11.998   4.178   8.727 -0.1642  0.5212 -0.2486
  345MOL0     C46483  12.105   4.300   8.743  0.7497  0.2613  0.0058
  345MOL0    Cl46484  12.280   4.268   8.727  0.7180  0.2660 -0.0292
  345MOL0     C46485  11.056   4.225   8.796  0.2379  1.3309 -0.0600
  345MOL0     C46486  10.930   4.251   8.850  0.2953 -0.2963  0.1311
  345MOL0     O46487  10.841   4.517   9.162  0.9476  0.4946 -0.6126
  345MOL0     C46488  10.588   4.582   9.250 -0.8077 -0.1776  0.4944
  345MOL0     C46489  10.458   4.606   9.296 -0.7280 -0.7393 -0.0677
  345MOL0     N46490   9.743   4.351   9.611 -0.0523 -0.1417 -1.1635
  345MOL0     N46491   9.731   4.321   9.733 -0.6606  0.8830  0.4826
  345MOL0     C46492  10.258   4.771  10.121 -0.7345  0.0674 -0.2516
  345MOL0     C46493  10.391   4.743  10.132  0.2724 -0.1424 -0.0444
  345MOL0     C46494  10.830   4.732  10.200  0.4109 -1.1502 -0.3495
  345MOL0     C46495  10.937   4.782  10.116 -0.0567 -1.2135  0.0584
  345MOL0     C46496  11.074   4.796  10.159 -0.7096 -1.0401 -0.7168
  345MOL0     C46497  11.111   4.757  10.287  0.4252 -0.4029  0.7473
  345MOL0     O46498  11.243   4.745  10.326  0.4884 -0.4251 -0.1690
  345MOL0     C46499  11.337   4.715  10.229  0.1745 -0.2464  0.2234
  345MOL0     C46500  11.321   4.567  10.180 -0.5806 -0.1884 -0.5167
  345MOL0     C46501  11.373   4.450  10.264 -0.8227 -0.1698 -0.3824
  345MOL0     C46502  11.339   4.462  10.412  0.0037 -0.2363  0.5520
  345MOL0     C46503  11.382   4.337  10.486  0.5708 -0.3702  0.3111
  345MOL0     C46504  11.384   4.232  10.548 -0.4427  0.4529 -0.2826
  345MOL0     C46505  11.015   4.705  10.371 -0.2206 -0.7226 -0.5324
  345MOL0     C46506  10.875   4.694  10.333 -0.4439 -0.1778  0.5444
  345MOL0     C46507  10.786   4.652  10.447 -0.0668 -0.1884 -0.4553
  345MOL0     H46508  10.468   4.898  10.418 -0.0976 -2.5013  2.0307
  345MOL0     H46509  10.229   4.968  10.408 -0.1449 -0.8533  1.9681
  345MOL0     H46510   9.975   4.839  10.378  0.4132 -1.1982 -1.9348
  345MOL0     H46511  10.001   5.010  10.356 -0.6834  0.1719  0.3292
  345MOL0     H46512   9.849   5.005  10.165  2.8634 -0.7432 -1.0095
  345MOL0     H46513   9.772   4.951  10.318  1.9379 -0.6313  0.2720
  345MOL0     H46514   9.864   4.772  10.094  1.0547 -1.5570  0.4286
  345MOL0     H46515   9.701   4.817  10.127 -0.3169 -2.0380  1.8844
  345MOL0     H46516   9.871   4.660  10.321  0.2793  2.0354  0.4048
  345MOL0     H46517   9.700   4.704  10.351 -2.5710 -0.5602 -1.9014
  345MOL0     H46518   9.727   4.478  10.267  0.4959 -1.2876 -1.4526
  345MOL0     H46519   9.624   4.579  10.158 -0.7946 -0.2662  0.6693
  345MOL0     H46520   9.792   4.571  10.001 -0.1913 -1.9756 -1.5426
  345MOL0     H46521   9.907   4.490  10.112  0.5206 -1.2073 -1.8955
  345MOL0     H46522   9.668   4.355  10.001  0.8388  0.8830 -1.5435
  345MOL0     H46523   9.768   4.287  10.125 -1.9780 -2.6581 -2.6623
  345MOL0     H46524   9.966   4.329   9.968  1.3376 -0.4975 -1.9373
  345MOL0     H46525   9.846   4.198   9.927 -0.2174  0.1174 -1.4986
  345MOL0     H46526   9.986   4.520   9.762  1.0627  0.2840 -1.7693
  345MOL0     H46527   9.864   4.457   9.388  2.5277  0.9252 -0.8177
  345MOL0     H46528   9.839   4.615   9.485 -1.4212 -0.2326  1.4186
  345MOL0     H46529  10.031   4.612   9.564 -0.7409  1.4006 -0.4581
  345MOL0     H46530  10.091   4.476   9.469 -1.0838 -1.3612  3.8565
  345MOL0     H46531   9.995   4.760   9.360 -2.1427 -0.4816  1.4379
  345MOL0     H46532   9.987   4.609   9.262  1.9561 -0.8430 -0.9147
  345MOL0     H46533  10.220   4.712   9.407  0.7101 -0.4096  1.2318
  345MOL0     H46534  10.177   4.762   9.231  0.5707 -3.5883 -4.3117
  345MOL0     H46535  10.282   4.407   9.083 -0.8973  1.5189 -2.6782
  345MOL0     H46536  10.518   4.404   8.970  1.6773  1.4264 -1.5484
  345MOL0     H46537  10.988   4.560   8.985 -1.5690 -1.0427  0.2104
  345MOL0     H46538  11.189   4.531   8.878  2.0119 -1.1108  1.2215
  345MOL0     H46539  11.288   4.502   8.677 -1.0417 -0.1789 -0.8441
  345MOL0     H46540  11.426   4.467   8.793  0.7404 -1.3555 -1.1647
  345MOL0     H46541  11.444   4.361   8.518  0.7284  0.9568 -0.8039
  345MOL0     H46542  11.520   4.514   8.571 -2.0611  1.0180  0.8665
  345MOL0     H46543  11.641   4.405   8.740 -0.0646 -0.8102  0.2156
  345MOL0     H46544  11.564   4.248   8.706  2.1305 -0.0423  1.9028
  345MOL0     H46545  11.674   4.401   8.473 -1.1241 -1.7815 -1.9477
  345MOL0     H46546  11.673   4.228   8.503 -0.7569  0.4935  0.1727
  345MOL0     H46547  11.869   4.423   8.613  1.4469 -0.8556  0.9154
  345MOL0     H46548  11.912   4.287   8.524  0.9619 -1.3727  2.2348
  345MOL0     H46549  11.830   4.284   8.805  4.1977  2.3838  0.0323
  345MOL0     H46550  11.794   4.133   8.708 -1.1381  1.4021  0.0152
  345MOL0     H46551  12.020   4.130   8.631 -3.8280  1.4553 -1.7172
  345MOL0     H46552  12.008   4.100   8.803  0.7242 -2.3281 -3.0774
  345MOL0     H46553  12.081   4.361   8.655  1.8801  1.0931  0.2581
  345MOL0     H46554  12.076   4.359   8.830 -2.4227 -0.1095 -0.6715
  345MOL0     H46555  11.080   4.126   8.758 -2.8992  0.0740  0.9230
  345MOL0     H46556  10.864   4.165   8.858 -0.9219  0.3382 -2.1469
  345MOL0     H46557  10.665   4.644   9.295 -2.1515  2.3812 -0.4888
  345MOL0     H46558  10.447   4.677   9.376  0.3553  1.1335 -1.4978
  345MOL0     H46559  10.201   4.718  10.045  0.2855 -1.3217 -0.0855
  345MOL0     H46560  10.429   4.662  10.070 -1.3349 -3.1537  2.6409
  345MOL0     H46561  10.920   4.809  10.012  0.8143 -2.2824 -0.3860
  345MOL0     H46562  11.145   4.848  10.097  0.4978  0.4335  1.7287
  345MOL0     H46563  11.438   4.724  10.272  1.9367  0.0281 -3.5694
  345MOL0     H46564  11.332   4.792  10.152  2.2012  2.6652  2.7479
  345MOL0     H46565  11.377   4.552  10.087  2.5384  0.9630  1.0392
  345MOL0     H46566  11.214   4.543  10.174 -1.7142  2.5405  3.9791
  345MOL0     H46567  11.482   4.448  10.271 -0.9154  0.7894  3.5187
  345MOL0     H46568  11.345   4.353  10.220  0.4060 -0.8610  0.3078
  345MOL0     H46569  11.387   4.547  10.460 -0.9435  0.6721 -0.0494
  345MOL0     H46570  11.233   4.483  10.425 -0.8259 -3.3511 -0.1332
  345MOL0     H46571  11.388   4.133  10.589  1.3614  0.8159  0.4891
  345MOL0     H46572  11.042   4.669  10.469 -2.3315 -1.1826 -0.0595
  345MOL0     H46573  10.757   4.742  10.502 -0.0882  0.9917 -2.3180
  345MOL0     H46574  10.702   4.589  10.417  0.4477 -2.1709  1.9489
  345MOL0     H46575  10.854   4.594  10.510  1.0061 -2.8299 -3.7552
  346MOL0     O46576   5.013  10.538  10.883 -0.2506 -0.0338  0.5996
  346MOL0     C46577   4.948  10.517  10.992  0.2530 -0.4309  0.1580
  346MOL0     O46578   4.968  10.433  11.084 -0.3581 -0.0454 -0.0823
  346MOL0     C46579   5.053  10.333  11.068  0.0633 -0.3350 -0.4045
  346MOL0     C46580   5.020  10.238  10.971  0.6482  0.3762 -0.1406
  346MOL0     C46581   5.105  10.130  10.930  0.6814  0.9612  0.0218
  346MOL0     C46582   5.227  10.118  10.997  0.7109 -0.1957 -0.9239
  346MOL0     O46583   5.297  10.002  10.965  0.1016 -0.1388  0.8316
  346MOL0     C46584   5.375   9.946  11.068  0.1668 -0.7712  0.6203
  346MOL0     C46585   5.454   9.830  11.000 -0.3833 -0.4160  0.0784
  346MOL0     C46586   5.372   9.704  10.966  0.5178 -0.2067 -0.7006
  346MOL0     C46587   5.441   9.593  10.882 -0.2775  0.5248 -0.4326
  346MOL0     C46588   5.389   9.452  10.928 -0.9970  0.1698 -0.3520
  346MOL0     C46589   5.255   9.408  10.859  0.8913  0.0824  0.6050
  346MOL0     C46590   5.183   9.294  10.921  0.1791 -0.7069  0.8141
  346MOL0     C46591   5.252   9.164  10.872 -0.2226 -0.3296  0.8237
  346MOL0     N46592   5.389   9.153  10.908  0.5607 -0.9903  0.6447
  346MOL0     C46593   5.439   9.173  11.034 -0.4988 -0.4091  0.3636
  346MOL0     C46594   5.577   9.147  11.030  0.6282 -0.4762 -0.5883
  346MOL0     C46595   5.667   9.185  11.138  0.2023 -0.2740 -0.7915
  346MOL0     C46596   5.742   9.312  11.101 -0.5152  0.3035  0.0366
  346MOL0     C46597   5.872   9.345  11.171 -1.0214 -0.6281 -0.0449
  346MOL0     C46598   5.846   9.360  11.324 -1.6472 -0.0679  0.7796
  346MOL0     O46599   5.957   9.443  11.368 -0.0627 -1.2380 -0.3650
  346MOL0     C46600   6.074   9.375  11.412  0.5247  0.3111  0.4782
  346MOL0     C46601   6.070   9.275  11.513 -0.0718  0.0730  0.4639
  346MOL0     C46602   6.185   9.211  11.563  0.4607 -0.2894  0.3914
  346MOL0     C46603   6.306   9.241  11.498  1.0763 -0.6074  0.2835
  346MOL0     C46604   6.434   9.164  11.517 -0.8341  0.6586 -0.0918
  346MOL0     O46605   6.434   9.029  11.557  0.6545 -0.6187  0.5123
  346MOL0     C46606   6.547   8.954  11.586 -0.1487  0.9628  0.2816
  346MOL0     C46607   6.571   8.834  11.511 -0.1581 -0.5139 -0.0778
  346MOL0     C46608   6.687   8.769  11.515  0.0751  0.6680  0.6317
  346MOL0     C46609   6.785   8.798  11.608  0.2212  0.0927 -0.5015
  346MOL0     O46610   6.905   8.730  11.597  1.2241  0.4385  0.1762
  346MOL0     C46611   7.015   8.798  11.648  0.2190  0.5026 -0.8867
  346MOL0     C46612   7.131   8.701  11.624  0.3047  0.4605  0.3460
  346MOL0     C46613   7.259   8.754  11.688 -0.1520  0.1610 -0.4936
  346MOL0     C46614   7.361   8.633  11.722  0.5770 -0.5980  0.3606
  346MOL0     C46615   7.475   8.700  11.808  0.7070  0.7134 -0.3203
  346MOL0     C46616   7.585   8.594  11.825  0.0912  0.3601  0.4610
  346MOL0     C46617   7.712   8.656  11.886  0.5196  0.0998  0.5800
  346MOL0     C46618   7.809   8.551  11.928 -0.6516 -0.3205 -0.0029
  346MOL0    Cl46619   7.955   8.621  12.010  0.2248  0.0631  0.0275
  346MOL0     C46620   6.767   8.914  11.688 -0.4339 -0.6980  0.8327
  346MOL0     C46621   6.655   8.997  11.668 -0.2906 -0.3088  0.3028
  346MOL0     O46622   6.539   9.230  11.501  0.6498  0.1359  0.3021
  346MOL0     C46623   6.315   9.324  11.384 -0.4623 -1.0376 -0.4852
  346MOL0     C46624   6.199   9.396  11.344  0.3658 -0.2011 -0.0662
  346MOL0     N46625   5.593   9.098  10.901 -0.2257 -0.4183 -0.1991
  346MOL0     N46626   5.485   9.110  10.828  0.0653  0.3138  0.4064
  346MOL0     C46627   5.258  10.211  11.103 -0.3557  0.4094  0.0313
  346MOL0     C46628   5.177  10.326  11.125 -0.8066  0.6529 -0.4100
  346MOL0     C46629   4.824  10.606  11.036  0.6767 -0.2545  0.9601
  346MOL0     C46630   4.775  10.592  11.169 -0.4733 -0.3901  0.0331
  346MOL0     C46631   4.667  10.663  11.216 -0.4945 -0.1267  0.2134
  346MOL0     C46632   4.588  10.731  11.119 -0.7539  0.4028  0.0240
  346MOL0     O46633   4.488  10.805  11.171  0.8778  0.2544 -0.0793
  346MOL0     C46634   4.383  10.854  11.078  0.2682 -0.3474 -0.7384
  346MOL0     C46635   4.299  10.744  11.019  0.0048 -0.3236  0.5427
  346MOL0     C46636   4.187  10.682  11.109  0.1278 -0.0965 -0.4633
  346MOL0     C46637   4.113  10.580  11.039  0.0249  0.7186  0.2574
  346MOL0     C46638   4.193  10.460  11.005  0.8008 -0.1428  0.0733
  346MOL0     C46639   4.271  10.367  10.975 -0.5967  0.6204  0.5297
  346MOL0     C46640   4.628  10.748  10.990  1.2669  0.4209 -0.7412
  346MOL0     C46641   4.751  10.685  10.943  0.4875  0.9147 -0.7037
  346MOL0     C46642   4.779  10.693  10.790  0.3928 -0.0608 -0.5494
  346MOL0     H46643   4.926  10.258  10.921  1.2500 -1.1724 -2.0195
  346MOL0     H46644   5.072  10.052  10.862  2.1400  2.1659 -2.2185
  346MOL0     H46645   5.451  10.020  11.097  1.4965 -2.2881  1.1562
  346MOL0     H46646   5.314   9.907  11.150 -1.0197  0.1027  0.1879
  346MOL0     H46647   5.547   9.805  11.052 -0.0114  2.3030  0.9199
  346MOL0     H46648   5.502   9.868  10.909  0.7205 -3.1861 -0.5761
  346MOL0     H46649   5.273   9.732  10.929 -0.8850 -3.9459 -0.2533
  346MOL0     H46650   5.350   9.651  11.060 -1.5343  1.2486 -0.2964
  346MOL0     H46651   5.448   9.601  10.773  0.5487 -4.2751 -0.9533
  346MOL0     H46652   5.547   9.594  10.910  0.5113 -0.5952 -3.0900
  346MOL0     H46653   5.464   9.381  10.893  0.5049  1.2436  0.5907
  346MOL0     H46654   5.387   9.454  11.038 -1.2962 -1.5512 -0.2985
  346MOL0     H46655   5.187   9.494  10.865  0.9093  0.3530 -2.0121
  346MOL0     H46656   5.284   9.389  10.755 -1.0374  0.0157  0.0250
  346MOL0     H46657   5.077   9.296  10.895  0.0455 -0.6967  1.3536
  346MOL0     H46658   5.184   9.287  11.030 -1.1921  1.3125  1.0032
  346MOL0     H46659   5.207   9.080  10.927  2.5590 -2.4634  0.0976
  346MOL0     H46660   5.237   9.158  10.764 -2.2137 -2.1570  1.1124
  346MOL0     H46661   5.384   9.220  11.114 -3.3753  0.1080 -1.7698
  346MOL0     H46662   5.621   9.219  11.231  2.4774 -0.5895  0.5191
  346MOL0     H46663   5.736   9.106  11.167 -0.4003 -0.4898  0.1230
  346MOL0     H46664   5.761   9.294  10.995 -2.9718 -2.8719 -0.0071
  346MOL0     H46665   5.668   9.392  11.100 -0.6690  0.1673 -1.0386
  346MOL0     H46666   5.920   9.434  11.129  6.2792 -2.4965  2.8627
  346MOL0     H46667   5.951   9.271  11.158  0.2092  0.6810 -0.2391
  346MOL0     H46668   5.854   9.258  11.363  0.1729 -0.2150  0.1309
  346MOL0     H46669   5.753   9.411  11.347 -0.6128  2.8515 -0.9624
  346MOL0     H46670   5.970   9.262  11.554 -0.4624  1.9932  0.2059
  346MOL0     H46671   6.194   9.150  11.653 -1.5534 -1.3049 -0.0267
  346MOL0     H46672   6.497   8.806  11.437 -0.1715 -2.2639  0.5686
  346MOL0     H46673   6.691   8.687  11.444 -3.7390  2.9515 -2.6485
  346MOL0     H46674   7.025   8.886  11.584 -2.1319  0.7512 -0.9830
  346MOL0     H46675   7.008   8.813  11.756  1.1287 -1.5313 -0.5070
  346MOL0     H46676   7.100   8.604  11.665 -1.3593  0.0465 -1.7023
  346MOL0     H46677   7.141   8.679  11.517  0.7541 -3.3468  1.0065
  346MOL0     H46678   7.303   8.826  11.619 -0.3568  0.9726  0.2072
  346MOL0     H46679   7.236   8.806  11.781  0.8271  0.4940 -0.4249
  346MOL0     H46680   7.398   8.586  11.630  0.8145  3.6025 -1.9570
  346MOL0     H46681   7.304   8.563  11.783 -0.1698 -2.1479 -1.9744
  346MOL0     H46682   7.433   8.739  11.901 -0.9854  4.4386 -2.4087
  346MOL0     H46683   7.512   8.782  11.746  1.3091  0.7318  0.0599
  346MOL0     H46684   7.545   8.517  11.892 -3.6548  0.8085 -0.9797
  346MOL0     H46685   7.609   8.554  11.726  1.4421  1.8621  0.1427
  346MOL0     H46686   7.675   8.719  11.968 -1.6023  0.4582 -0.5886
  346MOL0     H46687   7.760   8.718  11.811 -0.4790  1.7241  1.2142
  346MOL0     H46688   7.768   8.483  12.003  2.1901 -0.2182  1.7680
  346MOL0     H46689   7.829   8.488  11.841  1.0091  0.0535  0.0852
  346MOL0     H46690   6.846   8.959  11.748 -0.9911  1.9200 -0.2873
  346MOL0     H46691   6.658   9.092  11.721  2.3187  0.2687 -0.7454
  346MOL0     H46692   6.386   9.318  11.302 -0.7103 -1.2926 -0.6853
  346MOL0     H46693   6.224   9.472  11.271  0.6230  1.8640  2.0768
  346MOL0     H46694   5.352  10.198  11.156 -0.1307 -4.5792 -1.0923
  346MOL0     H46695   5.199  10.409  11.192  0.1197 -0.2081  0.3922
  346MOL0     H46696   4.836  10.539  11.241 -1.2394  0.3195  1.2464
  346MOL0     H46697   4.649  10.677  11.322 -3.5008 -1.4640 -0.0300
  346MOL0     H46698   4.427  10.911  10.996  1.2574 -0.2468 -0.1549
  346MOL0     H46699   4.314  10.922  11.129  1.3495  1.1570 -1.2290
  346MOL0     H46700   4.361  10.662  10.982  1.0050  0.2038  0.9981
  346MOL0     H46701   4.247  10.795  10.938  2.4865  1.1016 -0.2858
  346MOL0     H46702   4.124  10.769  11.127  1.9639  1.4851 -1.4294
  346MOL0     H46703   4.226  10.648  11.206  0.4508  0.9041 -0.2402
  346MOL0     H46704   4.036  10.548  11.109  2.1321 -2.3054  1.3830
  346MOL0     H46705   4.067  10.611  10.944  0.3199 -4.5054 -1.9036
  346MOL0     H46706   4.345  10.294  10.950 -0.3046  1.0302  0.1830
  346MOL0     H46707   4.561  10.790  10.915  3.3538 -1.3908 -3.8650
  346MOL0     H46708   4.689  10.720  10.736 -1.6069 -1.2676  1.9644
  346MOL0     H46709   4.846  10.777  10.772 -2.0082  1.9189 -0.6145
  346MOL0     H46710   4.820  10.600  10.748  1.3435 -1.1425  2.4438
  347MOL0     O46711   1.914   8.724   5.470  0.1708 -0.4151  0.7671
  347MOL0     C46712   1.951   8.797   5.387  0.0274  0.2154 -0.1298
  347MOL0     O46713   1.909   8.790   5.258 -0.1167  0.1115 -0.5354
  347MOL0     C46714   1.856   8.685   5.197  0.5939  0.9109 -0.2724
  347MOL0     C46715   1.921   8.560   5.211  0.8972  0.7068  0.1307
  347MOL0     C46716   1.867   8.446   5.156  0.0779  0.1091 -0.0469
  347MOL0     C46717   1.749   8.457   5.083  0.9056  0.3041  0.0883
  347MOL0     O46718   1.695   8.338   5.048 -0.5459  0.5497 -0.2531
  347MOL0     C46719   1.640   8.326   4.913  0.4818 -0.1892  0.0925
  347MOL0     C46720   1.582   8.180   4.908 -0.5806  0.6119  0.2297
  347MOL0     C46721   1.469   8.155   5.014 -0.0011 -0.3516 -0.2867
  347MOL0     C46722   1.348   8.255   4.986 -0.0297  0.4927 -0.7271
  347MOL0     C46723   1.236   8.243   5.080  0.5324 -0.5901 -0.7067
  347MOL0     C46724   1.145   8.367   5.068  0.5453  0.2157 -0.2462
  347MOL0     C46725   1.000   8.344   5.113  0.1145  0.2742 -0.1527
  347MOL0     C46726   0.902   8.456   5.067 -0.2462  0.4758  0.6647
  347MOL0     N46727   0.863   8.448   4.921 -1.0114  0.0490 -0.0289
  347MOL0     C46728   0.785   8.358   4.864  0.0807 -0.2123  0.1135
  347MOL0     C46729   0.805   8.362   4.730 -0.0275 -0.5123 -0.4109
  347MOL0     C46730   0.727   8.295   4.613 -0.2692 -0.3327 -0.5129
  347MOL0     C46731   0.623   8.389   4.560  0.7863 -0.6206 -0.8521
  347MOL0     C46732   0.523   8.344   4.456 -0.4566  0.0746  0.4980
  347MOL0     C46733   0.413   8.453   4.446  0.4895 -0.3349  1.3373
  347MOL0     O46734   0.342   8.447   4.321 -1.2135  0.9465  0.0844
  347MOL0     C46735   0.276   8.329   4.295 -0.4240 -1.1393 -0.2635
  347MOL0     C46736   0.190   8.259   4.395  0.1569 -0.3230  0.2677
  347MOL0     C46737   0.119   8.149   4.358  0.1109 -0.1162  0.4402
  347MOL0     C46738   0.144   8.092   4.233  0.1265  0.3802  0.7495
  347MOL0     C46739   0.066   7.967   4.198  0.1999  0.1118 -0.3158
  347MOL0     O46740  -0.026   7.923   4.292  0.5673  0.1016 -0.8737
  347MOL0     C46741  -0.116   7.818   4.258 -0.3911  1.2161  0.2000
  347MOL0     C46742  -0.217   7.793   4.355 -0.6445 -0.3711  1.2286
  347MOL0     C46743  -0.313   7.694   4.347 -0.7320 -0.4232  0.3777
  347MOL0     C46744  -0.303   7.597   4.249  0.4150 -0.1377  0.3428
  347MOL0     O46745  -0.376   7.482   4.261 -0.1427 -0.0776 -0.0177
  347MOL0     C46746  -0.349   7.360   4.197  1.4255 -0.6050 -0.3628
  347MOL0     C46747  -0.202   7.312   4.196 -0.4091 -0.8162 -0.3237
  347MOL0     C46748  -0.158   7.276   4.342 -0.8402  0.6020 -0.3883
  347MOL0     C46749  -0.037   7.178   4.343 -0.0971  0.2045 -0.5899
  347MOL0     C46750   0.095   7.256   4.330 -0.6096  0.1664 -0.4000
  347MOL0     C46751   0.220   7.158   4.322  0.9289  0.1736  0.7662
  347MOL0     C46752   0.343   7.229   4.281  0.4185 -0.8066  0.6279
  347MOL0     C46753   0.441   7.131   4.227 -0.5093 -0.2088  0.0501
  347MOL0    Cl46754   0.500   7.043   4.367 -0.2326 -0.4742  0.3251
  347MOL0     C46755  -0.203   7.621   4.146 -0.0772  0.3775 -0.5980
  347MOL0     C46756  -0.119   7.734   4.152 -1.0958  0.2912 -0.4755
  347MOL0     O46757   0.090   7.924   4.089 -0.2437  0.7037  0.6412
  347MOL0     C46758   0.228   8.151   4.143  0.0215  0.5102  0.2759
  347MOL0     C46759   0.284   8.278   4.168 -1.0254 -0.0615  0.4637
  347MOL0     N46760   0.906   8.451   4.713  0.2199 -0.0954  0.1287
  347MOL0     N46761   0.940   8.500   4.827 -0.4568  0.4556 -0.4836
  347MOL0     C46762   1.681   8.581   5.075 -0.5036  0.3778  0.0113
  347MOL0     C46763   1.731   8.693   5.136 -0.2810  0.3745 -0.1474
  347MOL0     C46764   2.034   8.922   5.428 -0.4364 -0.1037 -1.4109
  347MOL0     C46765   2.041   9.029   5.336  1.3231  0.3547  0.1596
  347MOL0     C46766   2.113   9.151   5.361  0.1352 -0.5172  0.7756
  347MOL0     C46767   2.190   9.154   5.470 -0.1403 -0.4148 -1.0824
  347MOL0     O46768   2.264   9.265   5.495 -0.0425  0.8400 -0.0565
  347MOL0     C46769   2.194   9.354   5.587  0.5527 -0.4819  0.6234
  347MOL0     C46770   2.263   9.492   5.612 -0.5522  0.7909 -1.0895
  347MOL0     C46771   2.407   9.463   5.656 -0.0900 -0.3443  0.4211
  347MOL0     C46772   2.461   9.573   5.742  0.7970  0.0494 -0.3470
  347MOL0     C46773   2.377   9.600   5.863  0.1609 -0.3676 -0.3797
  347MOL0     C46774   2.307   9.617   5.965 -0.2730  0.5215  0.7061
  347MOL0     C46775   2.206   9.040   5.559  0.3213  0.5578 -0.3117
  347MOL0     C46776   2.127   8.921   5.538  0.7129 -0.9997 -1.5151
  347MOL0     C46777   2.139   8.805   5.639  0.0125 -0.8922  0.6769
  347MOL0     H46778   2.006   8.565   5.279 -0.0690  0.4635  1.3849
  347MOL0     H46779   1.914   8.348   5.159  0.1575  0.1575  0.5755
  347MOL0     H46780   1.566   8.402   4.886 -0.8280 -2.3149 -2.9421
  347MOL0     H46781   1.722   8.323   4.841 -0.0435 -1.1174 -0.4898
  347MOL0     H46782   1.658   8.107   4.936  2.3316  1.8336 -3.5690
  347MOL0     H46783   1.538   8.155   4.811 -2.6312 -1.9340  1.6854
  347MOL0     H46784   1.497   8.191   5.113 -0.0457 -0.2951 -0.2945
  347MOL0     H46785   1.433   8.052   5.019  2.2945 -1.2275 -0.5044
  347MOL0     H46786   1.385   8.358   4.999 -1.7262  1.0805 -0.2497
  347MOL0     H46787   1.309   8.254   4.884  2.2844  0.5346 -1.6827
  347MOL0     H46788   1.184   8.148   5.069 -0.6849 -0.2754  1.6717
  347MOL0     H46789   1.269   8.249   5.184 -2.0336 -0.9837  0.1966
  347MOL0     H46790   1.190   8.450   5.124 -0.7287  2.7048 -2.6889
  347MOL0     H46791   1.146   8.402   4.965  4.0469  0.7087 -0.1523
  347MOL0     H46792   1.009   8.328   5.220  1.9822  1.1513 -0.1283
  347MOL0     H46793   0.964   8.248   5.076 -1.4645 -0.3406  2.7253
  347MOL0     H46794   0.818   8.452   5.136  0.5768 -1.8665  1.6480
  347MOL0     H46795   0.953   8.552   5.082  0.0030  1.0069 -2.9235
  347MOL0     H46796   0.719   8.283   4.906 -0.3499 -1.8840 -3.1723
  347MOL0     H46797   0.805   8.260   4.545  2.9801  0.4192  2.5405
  347MOL0     H46798   0.672   8.206   4.645 -2.4511  1.0103 -0.2945
  347MOL0     H46799   0.564   8.422   4.646 -0.5062 -1.2910 -1.4662
  347MOL0     H46800   0.657   8.485   4.519 -1.9698 -0.4489 -3.0156
  347MOL0     H46801   0.469   8.251   4.476 -0.5276  0.4635  2.2625
  347MOL0     H46802   0.571   8.344   4.357 -0.3332 -0.1672  0.5584
  347MOL0     H46803   0.460   8.551   4.439  0.1348 -0.2337  0.0833
  347MOL0     H46804   0.343   8.456   4.530 -2.9531 -0.7891 -1.2869
  347MOL0     H46805   0.180   8.307   4.492 -1.4400  0.8006 -0.4155
  347MOL0     H46806   0.039   8.110   4.421 -1.5885 -3.0762 -3.1546
  347MOL0     H46807  -0.212   7.862   4.438  2.0336  1.7999 -0.5623
  347MOL0     H46808  -0.398   7.681   4.414 -1.2677 -2.2945 -0.5845
  347MOL0     H46809  -0.409   7.282   4.246 -2.1048 -0.4815 -3.9560
  347MOL0     H46810  -0.397   7.367   4.099 -0.5598  0.8142  0.6571
  347MOL0     H46811  -0.190   7.220   4.137 -2.2524 -0.8307 -0.7271
  347MOL0     H46812  -0.135   7.377   4.139  0.2925 -2.7443 -1.8281
  347MOL0     H46813  -0.137   7.368   4.398 -0.6125 -1.0409  2.4163
  347MOL0     H46814  -0.241   7.235   4.400 -0.8121 -0.0955 -0.8355
  347MOL0     H46815  -0.041   7.108   4.258  2.6869  2.3859 -2.7532
  347MOL0     H46816  -0.038   7.124   4.438 -0.9036  0.5642 -0.3936
  347MOL0     H46817   0.103   7.323   4.416 -0.1264  1.0512 -1.1218
  347MOL0     H46818   0.098   7.322   4.243 -2.2822  1.4721  0.4677
  347MOL0     H46819   0.235   7.113   4.420  0.9704 -3.0830 -0.6066
  347MOL0     H46820   0.210   7.075   4.251  0.2671  0.9179 -0.0384
  347MOL0     H46821   0.385   7.280   4.368 -0.9957 -1.6910  1.8770
  347MOL0     H46822   0.310   7.301   4.205 -0.7246 -1.5099  0.4299
  347MOL0     H46823   0.405   7.069   4.145  1.2081  1.2458 -1.9377
  347MOL0     H46824   0.518   7.180   4.166 -3.4221 -0.0990 -3.8947
  347MOL0     H46825  -0.214   7.571   4.051  2.9347  0.4772 -1.1041
  347MOL0     H46826  -0.054   7.737   4.066  1.1717  0.0123  1.1354
  347MOL0     H46827   0.260   8.095   4.055  3.6785  0.7592  1.2924
  347MOL0     H46828   0.359   8.321   4.102  1.0098  1.4414  3.5093
  347MOL0     H46829   1.589   8.570   5.018  0.0025 -2.7602 -0.3846
  347MOL0     H46830   1.690   8.793   5.127  0.5891  0.6894 -0.8505
  347MOL0     H46831   1.993   9.010   5.240  2.2546 -4.1404  0.3672
  347MOL0     H46832   2.113   9.241   5.301 -4.5951  0.9314  2.4303
  347MOL0     H46833   2.157   9.305   5.677  1.2642 -2.9194 -0.3251
  347MOL0     H46834   2.106   9.384   5.529  0.0622  1.2688  2.1527
  347MOL0     H46835   2.204   9.542   5.689 -0.2262  0.0789 -0.3688
  347MOL0     H46836   2.267   9.546   5.517  1.8266  0.6474 -1.1464
  347MOL0     H46837   2.469   9.450   5.567 -1.2217  4.0052 -1.2591
  347MOL0     H46838   2.401   9.369   5.713 -0.1819  1.0243  2.7977
  347MOL0     H46839   2.561   9.555   5.781  1.5972 -0.9527 -2.6744
  347MOL0     H46840   2.451   9.671   5.694 -0.4920  0.2910  0.3614
  347MOL0     H46841   2.233   9.645   6.038 -3.0298  2.7177 -2.5812
  347MOL0     H46842   2.271   9.044   5.645  0.6058 -1.9452 -0.3322
  347MOL0     H46843   2.143   8.714   5.577 -2.2198 -0.8388  0.3657
  347MOL0     H46844   2.234   8.816   5.692 -1.3032 -0.7082  3.1345
  347MOL0     H46845   2.058   8.790   5.711 -0.8027 -2.5191 -0.5081
  348MOL0     O46846   3.631   2.115   4.520 -0.6196 -0.1980  0.9090
  348MOL0     C46847   3.676   2.222   4.568  0.1195  0.7250  0.3019
  348MOL0     O46848   3.719   2.330   4.500 -0.4471 -0.1026 -0.0558
  348MOL0     C46849   3.741   2.316   4.369  1.0692  0.9329  0.0491
  348MOL0     C46850   3.823   2.215   4.316  0.5400  0.3949 -0.0944
  348MOL0     C46851   3.825   2.200   4.174  0.2605  0.1695 -0.4342
  348MOL0     C46852   3.755   2.291   4.085  1.1330 -0.0903 -0.7075
  348MOL0     O46853   3.744   2.287   3.950  0.0301  0.0082  0.2435
  348MOL0     C46854   3.871   2.264   3.879  0.6430 -0.4786 -0.3069
  348MOL0     C46855   3.839   2.188   3.749 -0.6938  0.4040 -0.0413
  348MOL0     C46856   3.821   2.036   3.765  0.9525 -0.6908 -0.0463
  348MOL0     C46857   3.966   1.980   3.771 -0.7268  0.8052 -0.2012
  348MOL0     C46858   3.977   1.831   3.816  0.1284  0.2325 -0.1440
  348MOL0     C46859   3.904   1.731   3.729 -0.3137 -1.2208  0.0158
  348MOL0     C46860   3.935   1.582   3.768 -0.0412  0.4010  1.7664
  348MOL0     C46861   4.076   1.524   3.724 -0.2934 -0.1652  0.0117
  348MOL0     N46862   4.177   1.554   3.824  0.8275 -0.9266 -0.5903
  348MOL0     C46863   4.167   1.529   3.959 -0.1713 -0.3844 -0.4751
  348MOL0     C46864   4.287   1.564   4.011  0.4862 -0.0386 -0.1604
  348MOL0     C46865   4.312   1.563   4.155  0.9883 -0.2099  0.5482
  348MOL0     C46866   4.252   1.691   4.222  0.3403 -0.3171  0.5974
  348MOL0     C46867   4.304   1.686   4.371 -1.1178  0.3654 -0.2474
  348MOL0     C46868   4.295   1.827   4.436 -0.3700  0.1486 -0.0785
  348MOL0     O46869   4.157   1.872   4.424 -0.2643 -0.3251 -0.0046
  348MOL0     C46870   4.159   1.999   4.392  0.6639 -0.5379 -0.2736
  348MOL0     C46871   4.180   2.030   4.255  0.4449  0.0926 -0.7252
  348MOL0     C46872   4.170   2.163   4.218 -0.9908 -0.5152  1.1993
  348MOL0     C46873   4.185   2.266   4.309 -0.2286 -0.2422 -0.0689
  348MOL0     C46874   4.203   2.411   4.263  0.5105  0.2375 -1.1578
  348MOL0     O46875   4.181   2.427   4.133  0.1911 -0.7191  0.3595
  348MOL0     C46876   4.182   2.566   4.112  0.2551  0.2543 -0.4311
  348MOL0     C46877   4.312   2.630   4.087 -0.5878  0.7632 -0.4085
  348MOL0     C46878   4.328   2.767   4.073  0.2813 -1.0646 -0.2892
  348MOL0     C46879   4.212   2.839   4.077 -0.1450  0.2403 -0.0281
  348MOL0     O46880   4.232   2.973   4.060 -0.5519  0.6154  0.4107
  348MOL0     C46881   4.211   3.061   4.173 -0.5092 -0.2799 -0.0504
  348MOL0     C46882   4.192   3.211   4.139 -0.1234 -0.4980 -0.8296
  348MOL0     C46883   4.313   3.259   4.060 -0.6109  0.3230 -0.3645
  348MOL0     C46884   4.314   3.403   4.004 -0.4921 -0.6691  0.3208
  348MOL0     C46885   4.181   3.441   3.920  0.1569 -0.7926 -0.0773
  348MOL0     C46886   4.225   3.569   3.850  0.4043 -0.1940 -0.0234
  348MOL0     C46887   4.120   3.637   3.763 -0.6174  0.0611 -0.1968
  348MOL0     C46888   4.056   3.559   3.652  0.7794 -0.2037 -0.5481
  348MOL0    Cl46889   3.955   3.660   3.558 -0.2936  0.0786  0.0144
  348MOL0     C46890   4.086   2.785   4.100 -0.3608  0.2634 -0.1170
  348MOL0     C46891   4.069   2.648   4.124 -1.0034  0.2781 -1.0930
  348MOL0     O46892   4.226   2.497   4.356 -0.6181  0.0292  0.0215
  348MOL0     C46893   4.182   2.231   4.446 -0.0572 -0.8214  0.2297
  348MOL0     C46894   4.158   2.098   4.490 -0.3800 -0.9723 -0.0585
  348MOL0     N46895   4.379   1.610   3.909 -0.3032  1.1537 -0.2108
  348MOL0     N46896   4.311   1.592   3.801  0.5440 -0.2148  0.7578
  348MOL0     C46897   3.680   2.389   4.149 -1.0180 -0.7477  0.1059
  348MOL0     C46898   3.666   2.394   4.285  0.1786 -0.6891  0.2742
  348MOL0     C46899   3.666   2.229   4.718 -0.0796 -0.4693 -0.5745
  348MOL0     C46900   3.585   2.335   4.774  0.2239  0.6979 -0.2864
  348MOL0     C46901   3.575   2.332   4.915  0.5310 -0.0889  0.8367
  348MOL0     C46902   3.655   2.250   4.997  0.7118 -0.2308  0.0674
  348MOL0     O46903   3.641   2.243   5.133  0.9071 -0.0372 -0.2421
  348MOL0     C46904   3.663   2.364   5.203  0.1102  0.2041  0.5272
  348MOL0     C46905   3.544   2.359   5.292 -0.0717  0.2495 -0.3664
  348MOL0     C46906   3.520   2.482   5.385 -0.0978  0.0575 -0.1835
  348MOL0     C46907   3.482   2.607   5.311  0.4062 -0.5789  0.6347
  348MOL0     C46908   3.336   2.617   5.281 -0.0059 -0.3495 -0.1746
  348MOL0     C46909   3.218   2.634   5.265 -0.3199 -0.4025  0.8030
  348MOL0     C46910   3.728   2.155   4.937 -0.6610 -0.3094  0.2356
  348MOL0     C46911   3.747   2.152   4.804  0.3236  0.5391  0.5000
  348MOL0     C46912   3.844   2.061   4.738  0.3553  0.1095  0.5538
  348MOL0     H46913   3.863   2.138   4.382 -3.0763 -3.8572 -2.3263
  348MOL0     H46914   3.881   2.117   4.133  0.6524 -0.0216  0.4607
  348MOL0     H46915   3.908   2.361   3.844 -0.0706 -0.5203 -1.2315
  348MOL0     H46916   3.943   2.215   3.945 -0.4791 -0.5163  0.9303
  348MOL0     H46917   3.927   2.203   3.684 -0.2867  1.3671  0.7206
  348MOL0     H46918   3.755   2.235   3.698  1.0566  1.1246 -2.4914
  348MOL0     H46919   3.789   1.994   3.669  3.7827 -2.6536 -0.2722
  348MOL0     H46920   3.748   2.015   3.843  1.0709 -1.3992 -0.1171
  348MOL0     H46921   4.012   1.998   3.674 -0.6004  0.2461 -0.2481
  348MOL0     H46922   4.034   2.043   3.829 -0.2371  1.2241 -1.2109
  348MOL0     H46923   4.081   1.798   3.824 -0.1213 -0.1573  2.7053
  348MOL0     H46924   3.935   1.818   3.916  1.2508 -1.1486  0.1819
  348MOL0     H46925   3.797   1.753   3.736 -0.3651  0.4587 -3.7208
  348MOL0     H46926   3.926   1.743   3.622 -1.3332 -1.4232 -0.2261
  348MOL0     H46927   3.868   1.521   3.707  1.0993  0.3587  0.5135
  348MOL0     H46928   3.916   1.562   3.874 -1.9578  0.7280  1.5318
  348MOL0     H46929   4.076   1.415   3.721  2.2496 -0.2306  0.3890
  348MOL0     H46930   4.116   1.565   3.631  0.0120  1.3412  0.7614
  348MOL0     H46931   4.079   1.487   4.004  1.5829 -1.0335  2.6204
  348MOL0     H46932   4.277   1.471   4.203 -0.2990 -2.6487 -4.4329
  348MOL0     H46933   4.420   1.573   4.170  0.8837  0.3603  0.9928
  348MOL0     H46934   4.290   1.779   4.169  1.4193 -0.5611  0.9225
  348MOL0     H46935   4.143   1.682   4.217  0.4564 -1.0418 -1.2939
  348MOL0     H46936   4.408   1.650   4.376 -0.2537  2.5206 -1.2211
  348MOL0     H46937   4.245   1.613   4.426  2.1551 -1.6519  0.9243
  348MOL0     H46938   4.360   1.894   4.379  1.5077 -1.0244  0.5918
  348MOL0     H46939   4.333   1.822   4.539 -0.9801  3.7947  0.4575
  348MOL0     H46940   4.183   1.960   4.171  0.3851  1.3742 -1.8307
  348MOL0     H46941   4.184   2.195   4.115  3.2463  1.2730  2.1142
  348MOL0     H46942   4.397   2.564   4.071 -0.2584  0.4572  2.2273
  348MOL0     H46943   4.420   2.812   4.037 -0.0513  0.2989  0.4780
  348MOL0     H46944   4.117   3.032   4.220  0.1542 -0.9808  0.8789
  348MOL0     H46945   4.288   3.039   4.248  1.6049  3.6036 -0.7948
  348MOL0     H46946   4.099   3.214   4.080 -1.3142  2.8636  0.9278
  348MOL0     H46947   4.172   3.266   4.231  0.0137  0.0838 -1.1421
  348MOL0     H46948   4.410   3.247   4.110  0.6383 -2.4042 -3.0854
  348MOL0     H46949   4.315   3.206   3.964 -1.4250 -1.3606  0.4926
  348MOL0     H46950   4.399   3.413   3.937 -0.0147 -0.4059  0.9599
  348MOL0     H46951   4.335   3.474   4.083  0.2382  1.0672 -1.3610
  348MOL0     H46952   4.107   3.467   3.997 -0.8085 -0.0722 -1.2139
  348MOL0     H46953   4.148   3.365   3.848 -0.1470 -0.1603 -0.6086
  348MOL0     H46954   4.262   3.631   3.932 -3.7397 -0.5801  2.4440
  348MOL0     H46955   4.307   3.547   3.782  0.8712  0.9006  0.1683
  348MOL0     H46956   4.165   3.732   3.731 -2.1498  2.1333  3.1537
  348MOL0     H46957   4.044   3.684   3.826  1.9405  3.6451  0.5197
  348MOL0     H46958   4.132   3.504   3.597 -0.0234 -1.6882 -0.2166
  348MOL0     H46959   4.004   3.477   3.703 -1.0403  1.1711 -0.0831
  348MOL0     H46960   4.001   2.851   4.111 -0.6800  0.8626 -4.4320
  348MOL0     H46961   3.969   2.612   4.143 -1.6371  2.1106 -0.7211
  348MOL0     H46962   4.182   2.303   4.528  0.5145  0.4061 -0.8177
  348MOL0     H46963   4.149   2.063   4.592 -3.1092 -2.6618 -0.7870
  348MOL0     H46964   3.627   2.462   4.088 -1.9109  0.3491  2.1007
  348MOL0     H46965   3.593   2.459   4.333  1.9455  1.2683  0.4574
  348MOL0     H46966   3.529   2.394   4.702 -0.7806 -1.1707 -1.0841
  348MOL0     H46967   3.517   2.402   4.973 -0.3632 -0.0455 -0.0733
  348MOL0     H46968   3.674   2.451   5.138  1.5866 -0.7568 -0.5709
  348MOL0     H46969   3.757   2.356   5.258  1.5540 -0.4242 -1.8762
  348MOL0     H46970   3.548   2.273   5.359  0.0292  0.8191  0.3657
  348MOL0     H46971   3.458   2.356   5.224 -1.0616 -0.5208  0.8842
  348MOL0     H46972   3.611   2.498   5.443  0.7496 -2.9033 -0.5461
  348MOL0     H46973   3.450   2.465   5.468  0.7970 -2.9129  0.0726
  348MOL0     H46974   3.509   2.693   5.374 -0.2652  0.5317 -0.5429
  348MOL0     H46975   3.543   2.619   5.221  0.5235  0.4307  0.8354
  348MOL0     H46976   3.118   2.636   5.225 -0.4448 -4.5480  0.4104
  348MOL0     H46977   3.773   2.078   4.999  0.0157 -0.4336 -0.3916
  348MOL0     H46978   3.889   1.994   4.812 -0.9932 -1.5390 -0.0713
  348MOL0     H46979   3.781   1.995   4.679 -2.7889  1.6730  1.9105
  348MOL0     H46980   3.919   2.112   4.677  2.1038 -1.6106  1.1565
  349MOL0     O46981   0.974   5.853   7.566  0.1006  0.6733  0.3115
  349MOL0     C46982   0.938   5.862   7.444  0.2755  0.0580  0.0653
  349MOL0     O46983   0.824   5.917   7.400  0.5645  0.2931 -0.0092
  349MOL0     C46984   0.740   5.973   7.495  0.7260 -0.8443  0.2758
  349MOL0     C46985   0.692   5.916   7.611 -0.5078 -0.7132  0.0036
  349MOL0     C46986   0.588   5.975   7.687 -0.4711 -0.3012  0.9610
  349MOL0     C46987   0.539   6.094   7.639  0.3770  0.5128 -0.6969
  349MOL0     O46988   0.428   6.148   7.702 -0.4920  0.6361  0.8611
  349MOL0     C46989   0.409   6.131   7.841  0.9258 -0.2556  0.6451
  349MOL0     C46990   0.524   6.174   7.925  0.9959 -0.0403 -0.3911
  349MOL0     C46991   0.486   6.183   8.073  0.1623  0.0359 -0.4624
  349MOL0     C46992   0.511   6.063   8.175 -0.2120 -0.2259  0.4758
  349MOL0     C46993   0.641   6.058   8.255  0.7133  0.7528  0.5818
  349MOL0     C46994   0.765   6.036   8.159 -0.2192  0.6962  0.5527
  349MOL0     C46995   0.771   5.906   8.067 -0.2308 -1.4133  0.4798
  349MOL0     C46996   0.832   5.935   7.930 -0.7428 -0.3099  0.1822
  349MOL0     N46997   0.939   6.037   7.935  0.2019 -0.0532  0.2080
  349MOL0     C46998   0.976   6.123   7.832 -0.0335 -0.7686 -0.5134
  349MOL0     C46999   1.107   6.170   7.861  0.6471 -0.2042  0.5741
  349MOL0     C47000   1.191   6.269   7.789 -0.0356 -0.4887  0.3257
  349MOL0     C47001   1.309   6.196   7.732  0.5316  1.1093 -0.7018
  349MOL0     C47002   1.377   6.271   7.615 -0.5283 -0.0003  0.9198
  349MOL0     C47003   1.339   6.222   7.471 -0.4544 -0.4038  0.4015
  349MOL0     O47004   1.191   6.244   7.434 -0.0963 -0.6827 -0.1761
  349MOL0     C47005   1.156   6.188   7.307 -0.9388  0.2484  0.7040
  349MOL0     C47006   1.246   6.121   7.217 -0.7065 -0.0303 -0.1372
  349MOL0     C47007   1.189   6.070   7.100  0.3479  0.6677  0.1805
  349MOL0     C47008   1.062   6.095   7.055 -0.5724  0.3711  0.7430
  349MOL0     C47009   1.021   6.063   6.917 -0.7126  0.1149 -0.6394
  349MOL0     O47010   1.096   5.963   6.862 -0.1707 -0.2060 -0.2112
  349MOL0     C47011   1.073   5.934   6.726  0.0841 -0.1325  0.0796
  349MOL0     C47012   1.030   5.809   6.702  0.4270 -0.0025 -0.4173
  349MOL0     C47013   1.022   5.778   6.564  0.3319  0.2355  0.0514
  349MOL0     C47014   1.044   5.864   6.463 -0.9929  0.2523  0.2124
  349MOL0     O47015   1.039   5.834   6.330 -0.5802  0.1830 -0.3156
  349MOL0     C47016   0.929   5.752   6.288 -0.2089 -0.1520 -1.0166
  349MOL0     C47017   0.904   5.783   6.136 -0.3401  0.6932  0.9511
  349MOL0     C47018   0.823   5.678   6.062 -0.7284 -0.7223  0.2526
  349MOL0     C47019   0.671   5.714   6.079 -0.1245 -0.8560  0.6920
  349MOL0     C47020   0.591   5.623   5.973  0.0670 -0.1588  0.6662
  349MOL0     C47021   0.458   5.687   5.949  0.0987  0.3426 -0.7847
  349MOL0     C47022   0.357   5.586   5.886  0.2375  0.4626  0.6907
  349MOL0     C47023   0.238   5.669   5.839 -0.0870 -0.3234  0.2029
  349MOL0    Cl47024   0.161   5.747   5.976  0.2834  0.3864  0.0492
  349MOL0     C47025   1.090   6.000   6.494  0.7409  0.3355  0.9312
  349MOL0     C47026   1.106   6.028   6.628  0.4844  0.3130  0.0051
  349MOL0     O47027   0.917   6.104   6.874 -0.1739  0.1693  0.7113
  349MOL0     C47028   0.982   6.151   7.151  0.1239 -0.1883 -0.3233
  349MOL0     C47029   1.021   6.194   7.269 -0.0846 -0.8414  0.0495
  349MOL0     N47030   1.145   6.101   7.969 -0.6783 -0.2566 -0.2107
  349MOL0     N47031   1.049   6.028   8.020 -0.1900 -0.0668 -0.3214
  349MOL0     C47032   0.598   6.167   7.540 -0.1452  0.6441  0.8204
  349MOL0     C47033   0.693   6.103   7.459 -0.6039 -0.4305  0.6138
  349MOL0     C47034   1.021   5.815   7.333 -0.5792 -0.6720 -0.0924
  349MOL0     C47035   0.971   5.795   7.202  0.0192 -0.1939 -0.2975
  349MOL0     C47036   1.049   5.725   7.099 -0.6650 -0.4452 -1.0885
  349MOL0     C47037   1.177   5.694   7.125  1.1174  0.3141 -0.7582
  349MOL0     O47038   1.245   5.621   7.024  0.0810 -0.1693 -0.8018
  349MOL0     C47039   1.392   5.606   7.029 -0.0825 -0.5098 -0.9376
  349MOL0     C47040   1.452   5.520   6.916 -0.0579  0.1405 -0.2650
  349MOL0     C47041   1.599   5.495   6.928 -0.6479 -0.9954  0.1534
  349MOL0     C47042   1.663   5.400   6.819  0.0683  0.0772 -0.3971
  349MOL0     C47043   1.808   5.408   6.841 -0.2928  0.2375 -0.5864
  349MOL0     C47044   1.923   5.396   6.871 -0.8511 -0.2722 -0.9002
  349MOL0     C47045   1.231   5.736   7.248 -0.1166  1.0502 -1.2210
  349MOL0     C47046   1.160   5.796   7.350 -0.8885  0.3854 -0.2237
  349MOL0     C47047   1.244   5.821   7.468 -0.5637 -0.1490 -0.2128
  349MOL0     H47048   0.726   5.827   7.663 -0.7230 -0.6253  0.3029
  349MOL0     H47049   0.557   5.919   7.774  0.3104 -0.0946  1.3842
  349MOL0     H47050   0.314   6.182   7.861  1.0991  0.2419  0.2480
  349MOL0     H47051   0.381   6.027   7.854 -3.1921  0.4200 -1.2370
  349MOL0     H47052   0.555   6.271   7.885  1.9845 -0.5677 -0.9482
  349MOL0     H47053   0.603   6.102   7.904 -0.7724 -1.9058 -0.9009
  349MOL0     H47054   0.386   6.225   8.081  0.1775  0.0039 -0.0658
  349MOL0     H47055   0.546   6.264   8.116 -0.8752 -0.2974  1.7275
  349MOL0     H47056   0.430   6.060   8.249 -0.7663  1.0688 -0.0532
  349MOL0     H47057   0.488   5.971   8.120 -0.2857 -0.9375  1.6540
  349MOL0     H47058   0.647   6.144   8.323  0.0035 -0.3825  2.1325
  349MOL0     H47059   0.634   5.970   8.321  4.3598  1.7460  2.6164
  349MOL0     H47060   0.761   6.123   8.093 -1.0241  0.5104  0.3400
  349MOL0     H47061   0.857   6.042   8.218 -1.3443  1.7541  2.3008
  349MOL0     H47062   0.672   5.861   8.059  0.5498 -3.1634  0.3046
  349MOL0     H47063   0.839   5.841   8.124  1.8599  1.0372  1.0075
  349MOL0     H47064   0.890   5.848   7.897  4.1671  2.2974  0.9774
  349MOL0     H47065   0.768   5.969   7.848  2.0382  3.2666 -0.7774
  349MOL0     H47066   0.906   6.163   7.758 -1.7502 -0.4373  1.1915
  349MOL0     H47067   1.133   6.310   7.705  0.4910 -0.1159  0.1443
  349MOL0     H47068   1.235   6.348   7.849 -1.5275 -0.2697  1.1702
  349MOL0     H47069   1.378   6.178   7.815 -0.3343  1.3211  0.0707
  349MOL0     H47070   1.257   6.107   7.695  2.5911 -1.0003  1.1464
  349MOL0     H47071   1.485   6.257   7.632 -0.5833 -3.2302 -0.5461
  349MOL0     H47072   1.365   6.379   7.619 -1.3783 -0.0570  0.1981
  349MOL0     H47073   1.341   6.113   7.462 -0.5528 -0.3353 -0.4668
  349MOL0     H47074   1.405   6.280   7.407 -1.4866 -1.6632 -1.9071
  349MOL0     H47075   1.352   6.118   7.241 -1.1312  1.5886  2.4638
  349MOL0     H47076   1.253   6.008   7.038 -3.2025 -2.6826 -0.5667
  349MOL0     H47077   1.019   5.743   6.787 -2.6429  1.4549  0.4921
  349MOL0     H47078   0.977   5.681   6.545  2.5895 -1.2643  1.8702
  349MOL0     H47079   0.967   5.649   6.299  0.1188  0.0264 -0.4156
  349MOL0     H47080   0.850   5.761   6.362  1.5036 -0.2117  0.9107
  349MOL0     H47081   0.862   5.884   6.127  1.0486  1.1663 -1.1384
  349MOL0     H47082   1.006   5.783   6.096 -0.7364 -2.7962 -0.3756
  349MOL0     H47083   0.830   5.690   5.954  0.0260  2.1467  0.5519
  349MOL0     H47084   0.847   5.576   6.096 -0.0117 -0.4347  0.6318
  349MOL0     H47085   0.657   5.813   6.035  1.6448 -1.7824 -2.2315
  349MOL0     H47086   0.632   5.705   6.181 -1.2354 -0.5425  0.3158
  349MOL0     H47087   0.567   5.532   6.028 -0.3372  0.1802  1.0502
  349MOL0     H47088   0.642   5.601   5.879  2.2449  0.1953  1.7007
  349MOL0     H47089   0.423   5.720   6.047 -3.5802 -1.9147 -1.1273
  349MOL0     H47090   0.471   5.764   5.872  1.2875  1.8366  0.8390
  349MOL0     H47091   0.326   5.526   5.972 -1.4559 -0.3698 -0.4489
  349MOL0     H47092   0.393   5.519   5.808 -1.5848 -1.9923  1.8431
  349MOL0     H47093   0.276   5.738   5.763  0.6657 -1.5089 -0.5219
  349MOL0     H47094   0.169   5.605   5.783 -1.0328 -0.1166  1.0756
  349MOL0     H47095   1.103   6.078   6.420 -1.0622  0.1112  0.3203
  349MOL0     H47096   1.147   6.124   6.656 -1.6429  1.2143  0.1653
  349MOL0     H47097   0.877   6.159   7.125 -0.2574  3.4473  1.7157
  349MOL0     H47098   0.950   6.239   7.338  0.8120 -1.3212  1.3185
  349MOL0     H47099   0.561   6.264   7.510  0.0911 -0.3120 -3.1861
  349MOL0     H47100   0.715   6.159   7.369 -0.0672  0.9956  1.5956
  349MOL0     H47101   0.863   5.793   7.193 -0.1687 -3.8771  1.0108
  349MOL0     H47102   1.001   5.701   7.005 -2.5875  0.8248 -0.4759
  349MOL0     H47103   1.414   5.554   7.123 -1.1338  1.6962  0.5944
  349MOL0     H47104   1.456   5.695   7.022 -0.7944 -0.0906 -2.7509
  349MOL0     H47105   1.433   5.570   6.821  0.9175 -3.7190 -2.6842
  349MOL0     H47106   1.399   5.425   6.918  1.2358 -0.6842 -2.1378
  349MOL0     H47107   1.631   5.453   7.024  0.8999 -0.9627 -0.3249
  349MOL0     H47108   1.653   5.589   6.918 -2.0258 -0.1618  0.3353
  349MOL0     H47109   1.633   5.297   6.837  0.6702  0.3456  2.5775
  349MOL0     H47110   1.638   5.426   6.715  0.6828 -2.3468 -1.2063
  349MOL0     H47111   2.025   5.375   6.893 -0.1666  1.6068 -1.9852
  349MOL0     H47112   1.336   5.711   7.263 -1.0973 -1.9771  2.4173
  349MOL0     H47113   1.348   5.841   7.439 -0.9563  0.8495 -0.9798
  349MOL0     H47114   1.209   5.913   7.517 -0.0436 -0.3410  0.5344
  349MOL0     H47115   1.236   5.741   7.542  4.5623  0.1897  1.0840
  350MOL0     O47116   2.846  10.006   0.328 -0.0826 -0.3413 -0.4506
  350MOL0     C47117   2.910   9.928   0.398  0.5852  0.7008 -0.3046
  350MOL0     O47118   2.880   9.792   0.414  0.7818 -0.6103  0.2148
  350MOL0     C47119   2.819   9.730   0.305 -0.3222 -0.0097 -0.2726
  350MOL0     C47120   2.899   9.641   0.230 -0.1788 -0.2622 -0.4653
  350MOL0     C47121   2.837   9.580   0.122  0.7196  0.4246  0.3838
  350MOL0     C47122   2.714   9.616   0.066  0.4653 -0.8394  0.1001
  350MOL0     O47123   2.679   9.560  -0.055  0.4415  0.3023  0.3545
  350MOL0     C47124   2.547   9.583  -0.105  1.1199 -0.8340  0.5777
  350MOL0     C47125   2.553   9.550  -0.253 -0.4064  0.9417  0.8347
  350MOL0     C47126   2.418   9.582  -0.324 -0.1343  0.1283  0.9254
  350MOL0     C47127   2.427   9.512  -0.463  0.0861  0.0063  0.0099
  350MOL0     C47128   2.316   9.561  -0.550 -0.1555  0.1637  0.4995
  350MOL0     C47129   2.260   9.438  -0.640  0.2654 -0.6672  0.4189
  350MOL0     C47130   2.361   9.376  -0.732  0.2605  0.0524  0.1712
  350MOL0     C47131   2.388   9.459  -0.849  0.1095  0.8639 -0.1935
  350MOL0     N47132   2.510   9.411  -0.923  1.2945 -1.1045  0.5306
  350MOL0     C47133   2.513   9.318  -1.029  0.0781  0.5927  0.3735
  350MOL0     C47134   2.640   9.329  -1.072  0.5705 -0.5518  0.6728
  350MOL0     C47135   2.699   9.244  -1.187  1.0585 -0.2732 -0.8797
  350MOL0     C47136   2.632   9.281  -1.312 -0.2586  0.5193  0.4842
  350MOL0     C47137   2.680   9.178  -1.420  1.1865 -0.1097  0.5237
  350MOL0     C47138   2.816   9.222  -1.478  0.9256  0.4125  0.6013
  350MOL0     O47139   2.802   9.336  -1.564 -0.0620  0.1293 -0.5195
  350MOL0     C47140   2.919   9.391  -1.610 -0.4248  0.3766 -0.1273
  350MOL0     C47141   3.034   9.311  -1.620 -0.8674  0.6691  0.8840
  350MOL0     C47142   3.155   9.360  -1.675 -0.8185 -0.2816  0.1741
  350MOL0     C47143   3.162   9.494  -1.718 -0.2440  0.4291  0.3258
  350MOL0     C47144   3.282   9.554  -1.791  0.3463  0.6504 -0.5050
  350MOL0     O47145   3.380   9.464  -1.801 -0.3539  0.2609  0.0831
  350MOL0     C47146   3.483   9.460  -1.888 -0.0583  0.6672 -0.5902
  350MOL0     C47147   3.564   9.575  -1.908  0.1554 -0.2666  0.2618
  350MOL0     C47148   3.661   9.578  -1.997 -0.3592  0.3036 -0.0699
  350MOL0     C47149   3.693   9.457  -2.069  0.5990  0.6328  0.2045
  350MOL0     O47150   3.789   9.441  -2.160  0.0669  0.5754  0.6848
  350MOL0     C47151   3.803   9.558  -2.255  0.4315 -0.4207  0.3174
  350MOL0     C47152   3.885   9.524  -2.382  0.0028  1.0788  0.1492
  350MOL0     C47153   3.801   9.425  -2.471 -0.3017  0.5739  0.3621
  350MOL0     C47154   3.693   9.502  -2.550  0.5842  0.2467 -0.4468
  350MOL0     C47155   3.621   9.414  -2.649  0.1654 -0.2914  0.4579
  350MOL0     C47156   3.496   9.485  -2.699  0.0071  0.9209 -0.6932
  350MOL0     C47157   3.417   9.395  -2.793  0.0445  0.1474 -0.6578
  350MOL0     C47158   3.277   9.455  -2.814  0.5129 -0.4895  0.8202
  350MOL0    Cl47159   3.178   9.348  -2.916  0.1835  0.0987  0.1134
  350MOL0     C47160   3.615   9.339  -2.048 -0.5301  0.0518  0.0832
  350MOL0     C47161   3.508   9.345  -1.961  0.3336 -0.3080  0.1446
  350MOL0     O47162   3.282   9.665  -1.840 -0.3747  0.7710 -0.1308
  350MOL0     C47163   3.051   9.578  -1.699  0.7957  0.1620  0.7704
  350MOL0     C47164   2.931   9.522  -1.656  0.0535 -0.4924 -0.3766
  350MOL0     N47165   2.711   9.422  -1.011 -0.7832  0.2023  0.8185
  350MOL0     N47166   2.629   9.463  -0.911 -1.1360  0.3954  0.2448
  350MOL0     C47167   2.641   9.714   0.142 -0.0496  0.3237  0.4299
  350MOL0     C47168   2.691   9.761   0.266  0.0266 -0.3399  0.2953
  350MOL0     C47169   3.008   9.993   0.487 -0.1738  0.6205 -0.2367
  350MOL0     C47170   3.020   9.934   0.605  0.7426  0.3008 -0.1317
  350MOL0     C47171   3.114   9.974   0.704 -0.3113 -1.2360  0.7406
  350MOL0     C47172   3.185  10.100   0.697  0.6896  0.6600  0.3393
  350MOL0     O47173   3.284  10.144   0.785 -0.4442  0.2149 -0.2282
  350MOL0     C47174   3.279  10.090   0.922 -0.5341 -0.4395 -0.3744
  350MOL0     C47175   3.326  10.188   1.035 -0.1923  0.1952 -0.2985
  350MOL0     C47176   3.470  10.157   1.057 -1.1755 -0.3450  0.0507
  350MOL0     C47177   3.543  10.274   1.135  0.8260  0.9418  0.2646
  350MOL0     C47178   3.477  10.316   1.255 -0.9438 -0.5945 -0.2200
  350MOL0     C47179   3.430  10.329   1.365  0.9455  0.5885  0.1632
  350MOL0     C47180   3.153  10.162   0.582 -0.8773  0.4995 -0.0733
  350MOL0     C47181   3.077  10.114   0.477  0.1270  0.9683  0.8710
  350MOL0     C47182   3.059  10.207   0.358 -0.4633  0.0738 -0.0062
  350MOL0     H47183   3.002   9.609   0.231  0.3902  1.4357 -0.1250
  350MOL0     H47184   2.900   9.529   0.050  0.8554 -0.6376  1.2421
  350MOL0     H47185   2.472   9.520  -0.057 -1.1527 -0.3283 -2.0295
  350MOL0     H47186   2.526   9.690  -0.098 -0.7959 -1.1923  0.8778
  350MOL0     H47187   2.584   9.445  -0.262 -0.8967  0.9201 -1.0309
  350MOL0     H47188   2.625   9.617  -0.301 -0.3123  1.7574  2.0672
  350MOL0     H47189   2.403   9.689  -0.337 -0.8732 -0.1922 -1.1773
  350MOL0     H47190   2.335   9.540  -0.266  1.3658 -0.3337  2.8329
  350MOL0     H47191   2.520   9.529  -0.518  0.6744  1.4355  1.3818
  350MOL0     H47192   2.422   9.406  -0.435 -3.3009  0.3561  1.1844
  350MOL0     H47193   2.233   9.599  -0.489  1.1901  0.5868  2.1426
  350MOL0     H47194   2.361   9.644  -0.606  0.0555  0.9539  1.8071
  350MOL0     H47195   2.219   9.355  -0.581  0.2571 -1.3503 -0.5186
  350MOL0     H47196   2.172   9.479  -0.690 -0.4303 -0.6000  1.6422
  350MOL0     H47197   2.328   9.283  -0.779  0.5646  0.6669 -1.3154
  350MOL0     H47198   2.454   9.362  -0.677 -0.3815  0.2479  1.3414
  350MOL0     H47199   2.307   9.451  -0.922  0.4874 -0.8246 -0.4809
  350MOL0     H47200   2.403   9.559  -0.808 -0.1060  0.9267 -0.2693
  350MOL0     H47201   2.430   9.257  -1.063  1.2735  0.0552 -1.6941
  350MOL0     H47202   2.807   9.260  -1.190  2.0538 -4.9133  1.0270
  350MOL0     H47203   2.692   9.139  -1.157 -1.0146 -0.2357 -1.1024
  350MOL0     H47204   2.524   9.285  -1.298 -0.6904  1.1753 -2.4441
  350MOL0     H47205   2.665   9.380  -1.346 -1.2076 -0.4458 -3.8271
  350MOL0     H47206   2.602   9.179  -1.497  0.3969  0.9713  1.3049
  350MOL0     H47207   2.681   9.076  -1.381 -1.4936 -1.9736 -3.5228
  350MOL0     H47208   2.845   9.128  -1.526  3.0308  0.8776  0.8408
  350MOL0     H47209   2.889   9.242  -1.400  4.0067 -0.7287 -1.7708
  350MOL0     H47210   3.010   9.206  -1.607 -4.2429  1.3175  0.6549
  350MOL0     H47211   3.233   9.284  -1.670 -2.3295 -1.8157  1.9328
  350MOL0     H47212   3.542   9.671  -1.862 -2.0778 -0.7207  0.2524
  350MOL0     H47213   3.711   9.674  -2.009 -1.8164  0.7331 -4.8952
  350MOL0     H47214   3.710   9.604  -2.288  1.6056  0.1777 -2.5119
  350MOL0     H47215   3.859   9.641  -2.210  0.0951  0.7657 -1.3489
  350MOL0     H47216   3.906   9.613  -2.443  0.9526  0.5410 -0.3249
  350MOL0     H47217   3.980   9.476  -2.359 -1.0580 -0.2259  2.0547
  350MOL0     H47218   3.876   9.374  -2.531 -0.6330 -1.7290  1.7988
  350MOL0     H47219   3.752   9.348  -2.410 -0.4139  1.1681  1.0448
  350MOL0     H47220   3.738   9.583  -2.608  0.8670 -0.5961 -1.4405
  350MOL0     H47221   3.624   9.546  -2.478 -0.1620 -0.4725 -0.7040
  350MOL0     H47222   3.591   9.323  -2.597  0.2775 -0.4808  0.1912
  350MOL0     H47223   3.687   9.391  -2.733 -0.2585 -0.2033  0.0959
  350MOL0     H47224   3.429   9.507  -2.615  0.2179  2.8415 -0.9809
  350MOL0     H47225   3.510   9.579  -2.754 -0.2391 -0.0054 -2.4134
  350MOL0     H47226   3.416   9.292  -2.754 -0.2887  0.9037  1.4753
  350MOL0     H47227   3.474   9.385  -2.886  1.3142 -1.3821  0.2320
  350MOL0     H47228   3.224   9.473  -2.720 -0.9177  0.1962 -0.0969
  350MOL0     H47229   3.293   9.556  -2.852 -0.5121 -0.2168  1.0847
  350MOL0     H47230   3.625   9.250  -2.109  1.0325 -0.9129  1.6775
  350MOL0     H47231   3.448   9.255  -1.950  1.0423 -0.7174  0.6949
  350MOL0     H47232   3.049   9.684  -1.724  0.7005  0.3482  1.5368
  350MOL0     H47233   2.849   9.588  -1.633  0.2722 -1.2055  3.0432
  350MOL0     H47234   2.545   9.759   0.118  0.5740  0.8274 -1.2096
  350MOL0     H47235   2.621   9.825   0.319 -0.2348 -2.2437  2.3999
  350MOL0     H47236   2.977   9.837   0.626 -1.0718  1.0827  0.0004
  350MOL0     H47237   3.135   9.912   0.790  2.0348 -2.6882 -0.7793
  350MOL0     H47238   3.343  10.002   0.918 -1.9751 -1.5422 -0.2854
  350MOL0     H47239   3.180  10.057   0.957  0.1139 -1.2896  0.7231
  350MOL0     H47240   3.269  10.166   1.126 -0.6607 -3.9086 -1.4013
  350MOL0     H47241   3.317  10.295   1.013 -0.8626  0.2948  0.4302
  350MOL0     H47242   3.512  10.163   0.956 -0.4762 -0.8412  0.2982
  350MOL0     H47243   3.474  10.059   1.106 -2.4727 -0.5420 -0.1930
  350MOL0     H47244   3.640  10.239   1.172 -0.3028 -1.8395  0.8312
  350MOL0     H47245   3.570  10.351   1.063 -1.0559 -0.4960 -2.1138
  350MOL0     H47246   3.388  10.323   1.463  3.4877  0.3254  1.3231
  350MOL0     H47247   3.200  10.259   0.565  2.4048 -1.0332 -0.5056
  350MOL0     H47248   3.046  10.151   0.265 -0.3742 -1.6464  0.9915
  350MOL0     H47249   2.970  10.270   0.363  0.8668  1.9322  1.4054
  350MOL0     H47250   3.146  10.273   0.347  0.8188 -1.9560 -4.1976
  351MOL0     O47251   9.825   1.013   4.737 -0.1596  0.4997 -0.5125
  351MOL0     C47252   9.806   1.093   4.646 -0.3821  0.4346 -0.6138
  351MOL0     O47253   9.907   1.182   4.589  0.0399 -0.5471 -0.7006
  351MOL0     C47254  10.020   1.202   4.669 -0.3765 -0.8009  0.3267
  351MOL0     C47255  10.091   1.119   4.745 -0.0296  0.4570 -0.6165
  351MOL0     C47256  10.200   1.148   4.826 -0.2528  0.3340  0.1866
  351MOL0     C47257  10.252   1.270   4.812 -0.8212 -0.4926  0.6012
  351MOL0     O47258  10.368   1.321   4.872 -0.0262 -0.5491  0.0769
  351MOL0     C47259  10.383   1.286   5.012 -0.4402 -0.0156 -0.2408
  351MOL0     C47260  10.523   1.332   5.066 -0.8738  0.2400  0.2797
  351MOL0     C47261  10.563   1.474   5.017 -0.4402 -0.2751  0.2360
  351MOL0     C47262  10.712   1.490   5.043 -0.2572 -0.2639 -0.4426
  351MOL0     C47263  10.807   1.384   4.975 -0.0488 -0.5420  0.1352
  351MOL0     C47264  10.783   1.365   4.819  0.3575  0.2841 -0.8080
  351MOL0     C47265  10.907   1.303   4.750  0.2364 -0.3834  0.5329
  351MOL0     C47266  10.860   1.213   4.634  0.5589 -0.7472 -1.1273
  351MOL0     N47267  10.799   1.301   4.530  0.3769  0.0907 -0.1984
  351MOL0     C47268  10.668   1.354   4.525  0.0798  0.3827 -0.8737
  351MOL0     C47269  10.670   1.440   4.423  0.2933  0.2232  0.0383
  351MOL0     C47270  10.547   1.510   4.384 -0.3670 -0.3102 -0.1591
  351MOL0     C47271  10.527   1.636   4.468 -0.4416  0.0920  0.3989
  351MOL0     C47272  10.606   1.763   4.434  0.8073  0.6947 -0.7697
  351MOL0     C47273  10.744   1.767   4.491 -0.5921 -0.8531  0.5510
  351MOL0     O47274  10.827   1.874   4.433  0.0683  0.2467 -0.0302
  351MOL0     C47275  10.902   1.837   4.319 -0.7083  1.3849 -0.2754
  351MOL0     C47276  11.020   1.762   4.336 -0.8566 -0.1876  0.2579
  351MOL0     C47277  11.103   1.728   4.229 -0.3001  0.8290  0.5046
  351MOL0     C47278  11.064   1.756   4.095 -0.8903 -0.6994 -0.6366
  351MOL0     C47279  11.151   1.705   3.988 -0.0358  0.5969 -0.0599
  351MOL0     O47280  11.093   1.684   3.874 -0.0444  0.3760 -0.2423
  351MOL0     C47281  11.163   1.639   3.767  1.3766  0.5359 -0.0462
  351MOL0     C47282  11.156   1.723   3.662  0.1433 -0.0782 -0.5755
  351MOL0     C47283  11.210   1.691   3.539 -0.3181  0.6868 -0.3574
  351MOL0     C47284  11.288   1.578   3.529 -0.0133 -0.2825  0.3843
  351MOL0     O47285  11.338   1.553   3.401 -0.2912  0.6886 -0.3722
  351MOL0     C47286  11.461   1.485   3.372 -0.0416  0.4382  0.1976
  351MOL0     C47287  11.599   1.550   3.414  0.5400 -0.2087 -0.5961
  351MOL0     C47288  11.600   1.605   3.556 -0.3359 -1.0050 -0.5365
  351MOL0     C47289  11.731   1.674   3.606 -0.4050  0.6203  0.4708
  351MOL0     C47290  11.843   1.576   3.615  0.4276  0.0802  0.0790
  351MOL0     C47291  11.955   1.631   3.698 -0.6939  0.1653  0.0946
  351MOL0     C47292  12.057   1.519   3.735  0.0868 -0.7286 -0.5029
  351MOL0     C47293  12.155   1.567   3.840  0.7065  0.2006  0.5554
  351MOL0    Cl47294  12.252   1.684   3.748 -0.0597  0.0018  0.0862
  351MOL0     C47295  11.290   1.490   3.633 -0.1183  0.9261 -0.4168
  351MOL0     C47296  11.228   1.519   3.761 -0.3712 -0.1866  0.1282
  351MOL0     O47297  11.268   1.682   4.010  0.4684  0.3879 -0.6517
  351MOL0     C47298  10.934   1.818   4.081 -0.0880 -0.1983 -0.3304
  351MOL0     C47299  10.859   1.860   4.188  0.1661  0.2542 -0.4279
  351MOL0     N47300  10.794   1.436   4.355  0.2521  1.0168  0.0364
  351MOL0     N47301  10.860   1.351   4.422 -0.1841  0.6796 -0.8058
  351MOL0     C47302  10.184   1.364   4.727  0.1823  0.0359  0.2793
  351MOL0     C47303  10.074   1.330   4.657  0.7539 -0.1211  0.4812
  351MOL0     C47304   9.667   1.099   4.585  0.8460 -0.2959 -0.8121
  351MOL0     C47305   9.563   1.024   4.646  1.2106 -0.2564  0.4929
  351MOL0     C47306   9.428   1.026   4.603 -0.6431  0.2501  0.8564
  351MOL0     C47307   9.404   1.112   4.488  0.0573 -0.9706  0.0103
  351MOL0     O47308   9.271   1.132   4.433  1.2397  0.5217 -0.1601
  351MOL0     C47309   9.176   1.035   4.477  1.3720 -0.1384  0.3681
  351MOL0     C47310   9.045   1.056   4.411  0.2936 -0.7061  0.0902
  351MOL0     C47311   8.967   0.924   4.416 -0.1201  0.4074 -0.2774
  351MOL0     C47312   8.840   0.935   4.335 -0.3716  0.6417 -0.1665
  351MOL0     C47313   8.742   0.994   4.434 -0.6565  0.0289  0.4406
  351MOL0     C47314   8.666   1.046   4.512  0.6298 -0.1469 -0.5231
  351MOL0     C47315   9.499   1.180   4.424 -1.1123  0.7892  0.4251
  351MOL0     C47316   9.635   1.178   4.469  0.2370  0.0746  0.1031
  351MOL0     C47317   9.740   1.245   4.384  0.0518 -0.0284  0.4431
  351MOL0     H47318  10.065   1.014   4.737 -1.3748  0.7746 -0.7327
  351MOL0     H47319  10.240   1.060   4.875 -1.3564 -0.9776 -1.1548
  351MOL0     H47320  10.298   1.327   5.067 -2.6683 -0.3728 -3.1844
  351MOL0     H47321  10.369   1.178   5.016  0.8449 -0.2441 -1.2242
  351MOL0     H47322  10.595   1.256   5.036 -0.2531  0.4056  1.3088
  351MOL0     H47323  10.513   1.328   5.175  0.6769  0.2372  0.4330
  351MOL0     H47324  10.515   1.560   5.066  2.3274  1.7540 -0.3621
  351MOL0     H47325  10.545   1.491   4.911  0.5591 -0.5212  0.0143
  351MOL0     H47326  10.739   1.593   5.016  0.5468 -0.2466  0.3389
  351MOL0     H47327  10.721   1.497   5.152 -0.4196 -1.9362 -0.2995
  351MOL0     H47328  10.906   1.421   5.002  1.4161 -3.7041 -0.5165
  351MOL0     H47329  10.805   1.290   5.031  4.1614  0.3073  2.0154
  351MOL0     H47330  10.692   1.305   4.802  2.2395 -3.6889  1.6343
  351MOL0     H47331  10.768   1.462   4.770 -1.6445 -0.3532 -1.5908
  351MOL0     H47332  10.968   1.241   4.815  1.5051 -0.5620 -0.7681
  351MOL0     H47333  10.961   1.390   4.710  1.6722 -0.9019  1.2594
  351MOL0     H47334  10.943   1.156   4.590  0.5919  0.7076 -3.1120
  351MOL0     H47335  10.778   1.151   4.671  1.7491 -0.2302  2.9112
  351MOL0     H47336  10.580   1.328   4.581 -1.4567  1.8087 -2.4940
  351MOL0     H47337  10.544   1.549   4.282 -2.2323  3.6930  1.1986
  351MOL0     H47338  10.458   1.446   4.387 -1.1446  0.4757 -2.8983
  351MOL0     H47339  10.424   1.654   4.438 -0.6121 -1.3067  0.0684
  351MOL0     H47340  10.536   1.618   4.576 -0.1738  2.2639  0.7889
  351MOL0     H47341  10.556   1.849   4.480  2.6915  0.5525  1.7315
  351MOL0     H47342  10.603   1.778   4.326  0.1621 -4.0686 -1.6248
  351MOL0     H47343  10.788   1.667   4.487 -2.4459 -1.7446  1.0405
  351MOL0     H47344  10.724   1.799   4.594  0.3497  0.5851  0.3001
  351MOL0     H47345  11.064   1.725   4.428  0.4401 -0.8620 -0.5906
  351MOL0     H47346  11.195   1.679   4.259 -0.5054  1.1176  1.6627
  351MOL0     H47347  11.089   1.809   3.662 -1.2231 -0.9023 -4.4763
  351MOL0     H47348  11.221   1.760   3.456  0.7410 -0.1057 -0.9101
  351MOL0     H47349  11.453   1.389   3.423  0.5709  0.5226  0.4723
  351MOL0     H47350  11.467   1.452   3.268  0.7522 -2.8357  1.1758
  351MOL0     H47351  11.686   1.485   3.404  2.9394  2.2799  2.2222
  351MOL0     H47352  11.613   1.638   3.351  1.7215 -0.3554 -0.5565
  351MOL0     H47353  11.531   1.690   3.558  0.2849 -0.5015 -0.2440
  351MOL0     H47354  11.559   1.530   3.624 -2.7392 -1.9247 -2.8101
  351MOL0     H47355  11.708   1.717   3.704 -0.4097 -0.1659  0.8222
  351MOL0     H47356  11.759   1.757   3.540 -1.0539 -0.0387 -0.6597
  351MOL0     H47357  11.874   1.541   3.517  0.5157  2.5927 -0.8631
  351MOL0     H47358  11.801   1.487   3.662 -0.1709  0.4101  0.1955
  351MOL0     H47359  12.003   1.712   3.643  2.3324 -1.8321 -0.4122
  351MOL0     H47360  11.910   1.669   3.791  0.4795  0.7946  0.4308
  351MOL0     H47361  12.116   1.494   3.647 -0.2167 -2.0581 -0.3495
  351MOL0     H47362  12.002   1.427   3.759  2.0541 -1.9024 -0.2774
  351MOL0     H47363  12.117   1.611   3.933  0.4250  0.0462  0.5153
  351MOL0     H47364  12.208   1.482   3.883 -1.1106 -0.4082  1.7149
  351MOL0     H47365  11.342   1.396   3.618 -1.6831 -0.0305 -0.1716
  351MOL0     H47366  11.232   1.452   3.846  1.0225  2.4942  2.3798
  351MOL0     H47367  10.898   1.836   3.980 -1.9360  0.3580  0.3905
  351MOL0     H47368  10.764   1.910   4.172  1.1697  2.6574  0.6916
  351MOL0     H47369  10.235   1.459   4.713 -0.2001 -0.0658 -2.2183
  351MOL0     H47370  10.037   1.396   4.579  2.3342 -1.8251 -1.8367
  351MOL0     H47371   9.581   0.972   4.740  1.6798 -1.0864 -0.0389
  351MOL0     H47372   9.348   0.978   4.658 -0.4435 -0.3774  0.6137
  351MOL0     H47373   9.177   1.039   4.586  0.2813  2.3111  0.3438
  351MOL0     H47374   9.209   0.938   4.439  0.7313  0.8538 -3.0646
  351MOL0     H47375   9.053   1.094   4.309 -1.2198  2.2578  0.9656
  351MOL0     H47376   8.992   1.131   4.471  0.2202 -0.4434 -0.3032
  351MOL0     H47377   8.958   0.894   4.520 -1.3342 -0.2943 -0.5679
  351MOL0     H47378   9.023   0.845   4.365  2.2210  1.3093  0.7660
  351MOL0     H47379   8.863   1.003   4.252 -1.4298  2.8542  1.2622
  351MOL0     H47380   8.797   0.841   4.300  0.3343 -0.6249  2.1065
  351MOL0     H47381   8.593   1.090   4.577  1.3608 -0.4124  0.5015
  351MOL0     H47382   9.482   1.254   4.346 -3.0027  1.2344  1.2043
  351MOL0     H47383   9.792   1.325   4.438  0.8737 -1.2906  1.6115
  351MOL0     H47384   9.811   1.165   4.358  2.0189  1.4621  1.0000
  351MOL0     H47385   9.698   1.293   4.295  2.2091  0.7288 -0.2272
  352MOL0     O47386   7.655   8.328  10.985  0.1435  0.0809 -0.5277
  352MOL0     C47387   7.643   8.389  11.092 -0.3035  0.3005 -0.3367
  352MOL0     O47388   7.608   8.521  11.100  0.0976 -0.9985 -0.4084
  352MOL0     C47389   7.526   8.575  11.006 -0.4276  0.3995  0.1402
  352MOL0     C47390   7.559   8.691  10.939 -1.1787 -1.1593  0.3534
  352MOL0     C47391   7.466   8.739  10.839 -0.3368  0.4281 -0.5848
  352MOL0     C47392   7.337   8.671  10.822 -0.5527 -0.0150  0.3798
  352MOL0     O47393   7.247   8.717  10.733  0.2810 -0.1859 -0.2265
  352MOL0     C47394   7.109   8.672  10.754 -0.0775 -0.1533 -0.6559
  352MOL0     C47395   7.002   8.783  10.712  0.4174  0.1601 -0.1024
  352MOL0     C47396   7.018   8.909  10.788 -1.0062  0.0816 -0.2826
  352MOL0     C47397   6.893   9.003  10.768  0.1882 -0.3937 -0.3534
  352MOL0     C47398   6.921   9.138  10.839 -0.1098  0.4999  0.0278
  352MOL0     C47399   6.834   9.259  10.812  0.2174 -0.2244 -0.6718
  352MOL0     C47400   6.837   9.364  10.914 -0.1077  0.8266  0.5769
  352MOL0     C47401   6.722   9.468  10.890  0.1518 -0.0610 -0.1993
  352MOL0     N47402   6.586   9.428  10.936 -0.5955 -0.3896  0.1056
  352MOL0     C47403   6.486   9.397  10.852  0.0683 -0.4088 -1.2999
  352MOL0     C47404   6.381   9.358  10.931 -0.8272 -0.4538  0.1759
  352MOL0     C47405   6.241   9.321  10.888 -0.4817  1.1619 -0.3070
  352MOL0     C47406   6.142   9.428  10.937  0.8143  0.3049 -0.8623
  352MOL0     C47407   6.172   9.582  10.915 -0.5840 -0.5495  0.9531
  352MOL0     C47408   6.062   9.676  10.953  0.4274  0.0968 -0.1294
  352MOL0     O47409   5.959   9.650  10.851  0.6191  0.2590 -0.9567
  352MOL0     C47410   5.867   9.753  10.825  0.1312  0.2773  0.3700
  352MOL0     C47411   5.772   9.719  10.719 -0.1864  0.1528 -0.6302
  352MOL0     C47412   5.677   9.815  10.687  0.2110  0.2056  0.1736
  352MOL0     C47413   5.685   9.950  10.737  0.7516  0.2152 -0.2645
  352MOL0     C47414   5.603  10.059  10.698 -0.4806  0.3500  0.0384
  352MOL0     O47415   5.652  10.190  10.732 -0.1816  0.0979  0.0953
  352MOL0     C47416   5.571  10.294  10.697  0.3142 -0.1773 -0.4510
  352MOL0     C47417   5.466  10.339  10.783  0.1303  0.1365  0.2935
  352MOL0     C47418   5.399  10.450  10.750  0.0232  0.1237 -0.8651
  352MOL0     C47419   5.424  10.511  10.630 -0.6438  0.1969 -0.4548
  352MOL0     O47420   5.343  10.612  10.576  0.0989  0.4903 -0.7947
  352MOL0     C47421   5.202  10.613  10.609 -0.1273  0.2843 -0.2424
  352MOL0     C47422   5.113  10.683  10.506  0.0684 -0.9396 -0.5069
  352MOL0     C47423   5.156  10.656  10.362 -1.3173 -0.0637  0.3371
  352MOL0     C47424   5.066  10.727  10.265  0.8930 -1.0293  0.2864
  352MOL0     C47425   5.116  10.729  10.117  0.1570 -1.0339 -0.8885
  352MOL0     C47426   5.060  10.623  10.023  0.5394 -0.1811 -0.0331
  352MOL0     C47427   4.906  10.627   9.997 -0.0587 -0.4570  0.0277
  352MOL0     C47428   4.870  10.560   9.867  0.5818 -0.2895 -0.2373
  352MOL0    Cl47429   4.697  10.512   9.860 -0.1688  0.5337  0.2317
  352MOL0     C47430   5.544  10.486  10.561  0.5016  0.5344 -0.8352
  352MOL0     C47431   5.611  10.372  10.589  0.8531  0.1903 -0.2560
  352MOL0     O47432   5.507  10.037  10.622 -0.6301  0.2554  0.2802
  352MOL0     C47433   5.774   9.971  10.838 -0.7416 -0.2695  0.0326
  352MOL0     C47434   5.865   9.878  10.885 -0.0799 -0.3753 -0.6103
  352MOL0     N47435   6.430   9.378  11.061  0.9280  0.2687 -0.0790
  352MOL0     N47436   6.545   9.420  11.065 -0.5244  0.3519  0.0071
  352MOL0     C47437   7.321   8.543  10.881 -0.3577 -0.0917  0.5647
  352MOL0     C47438   7.410   8.503  10.967 -0.5519  0.1193  0.3705
  352MOL0     C47439   7.661   8.322  11.224  0.4342  0.3436 -0.1029
  352MOL0     C47440   7.664   8.401  11.341  1.1310  0.1762 -0.2350
  352MOL0     C47441   7.684   8.340  11.473 -0.0059 -0.4145 -0.1368
  352MOL0     C47442   7.684   8.204  11.476 -0.4555  0.3963  0.7957
  352MOL0     O47443   7.665   8.135  11.587 -0.4549  0.6489  0.1407
  352MOL0     C47444   7.678   8.202  11.708 -0.4363 -0.0625 -0.7870
  352MOL0     C47445   7.664   8.089  11.803 -0.6285  0.1913 -0.0419
  352MOL0     C47446   7.704   8.133  11.945  0.2018 -0.0962 -0.4296
  352MOL0     C47447   7.842   8.169  11.966  0.7228 -0.3985 -0.0824
  352MOL0     C47448   7.868   8.197  12.108  1.4066 -0.5516  0.3656
  352MOL0     C47449   7.883   8.216  12.229 -0.6673  0.5717 -0.0356
  352MOL0     C47450   7.690   8.119  11.363 -0.3635  0.2962  0.8650
  352MOL0     C47451   7.676   8.181  11.240 -0.8895 -0.0488  0.0448
  352MOL0     C47452   7.684   8.085  11.119 -0.2419  0.2612 -0.1619
  352MOL0     H47453   7.646   8.749  10.970 -1.3530  0.0829 -1.3441
  352MOL0     H47454   7.493   8.831  10.787 -0.2555  0.9370  0.3332
  352MOL0     H47455   7.094   8.575  10.708  0.4413 -0.7843  0.4579
  352MOL0     H47456   7.091   8.659  10.861  1.5550  2.2181  0.0099
  352MOL0     H47457   6.899   8.752  10.732  0.7130 -0.3552  0.6565
  352MOL0     H47458   7.007   8.794  10.603  2.1663  1.2095  0.0467
  352MOL0     H47459   7.106   8.966  10.756  0.9157 -1.4770  1.9455
  352MOL0     H47460   7.031   8.889  10.895  0.0013  1.6356 -0.0701
  352MOL0     H47461   6.874   8.997  10.660  2.3933 -2.3983 -0.7140
  352MOL0     H47462   6.803   8.958  10.811  1.0041 -3.2606 -1.4263
  352MOL0     H47463   6.918   9.118  10.946 -0.2192  0.0332 -0.0629
  352MOL0     H47464   7.022   9.175  10.818  0.8822 -1.0455  1.7528
  352MOL0     H47465   6.833   9.307  10.714 -2.1819  0.7891 -0.2155
  352MOL0     H47466   6.735   9.212  10.820 -0.2638  0.7041 -1.1112
  352MOL0     H47467   6.928   9.426  10.915  0.2692  0.3006  1.8152
  352MOL0     H47468   6.842   9.318  11.013  0.4623  1.3579  0.8074
  352MOL0     H47469   6.750   9.563  10.937 -0.8878  0.1434  0.0392
  352MOL0     H47470   6.729   9.494  10.784  3.9078  0.7699  0.1229
  352MOL0     H47471   6.465   9.407  10.746 -2.8081 -2.8338 -1.0868
  352MOL0     H47472   6.233   9.305  10.780  0.4471 -3.7236  0.1249
  352MOL0     H47473   6.218   9.225  10.935  3.2267  0.1372 -0.2644
  352MOL0     H47474   6.046   9.395  10.896 -1.5622  2.3943  2.4629
  352MOL0     H47475   6.137   9.413  11.045  1.3442  3.6360 -0.2516
  352MOL0     H47476   6.207   9.581  10.812  1.2349 -3.0301  1.5007
  352MOL0     H47477   6.252   9.621  10.978  0.2345  2.6687 -1.7961
  352MOL0     H47478   6.100   9.776  10.931 -3.7736  2.1253  0.8029
  352MOL0     H47479   6.020   9.665  11.053  1.8732  2.1671  0.7534
  352MOL0     H47480   5.764   9.623  10.669  1.0610 -0.3476  0.0962
  352MOL0     H47481   5.603   9.793  10.611 -0.9823 -1.6995  1.7513
  352MOL0     H47482   5.445  10.279  10.871  1.6968 -3.2661 -1.4601
  352MOL0     H47483   5.318  10.477  10.817  0.1704  0.0749 -0.6661
  352MOL0     H47484   5.166  10.510  10.600  0.2489  0.3163 -2.8460
  352MOL0     H47485   5.177  10.647  10.710 -0.5902 -2.3309  0.5976
  352MOL0     H47486   5.011  10.644  10.510 -2.3414  3.2382 -6.3696
  352MOL0     H47487   5.118  10.792  10.517  2.0808 -1.1919  1.7998
  352MOL0     H47488   5.259  10.691  10.351 -0.7354 -1.4893  0.9208
  352MOL0     H47489   5.171  10.552  10.332 -0.5814  0.0361  0.3359
  352MOL0     H47490   5.050  10.831  10.295 -1.4054 -0.9963 -0.8302
  352MOL0     H47491   4.965  10.685  10.255  1.3453 -1.6954 -1.9441
  352MOL0     H47492   5.225  10.735  10.120  0.1529 -1.3327  0.7718
  352MOL0     H47493   5.082  10.813  10.056  1.5569 -2.0652 -3.2375
  352MOL0     H47494   5.115  10.633   9.929  0.5444 -0.7907 -0.1009
  352MOL0     H47495   5.082  10.526  10.070  0.2579 -0.6636 -0.8906
  352MOL0     H47496   4.898  10.736  10.004  5.7435  0.3065 -0.7479
  352MOL0     H47497   4.846  10.588  10.079 -1.6532  1.1679 -0.2945
  352MOL0     H47498   4.902  10.629   9.789  0.4745  2.0515  1.6646
  352MOL0     H47499   4.926  10.466   9.861 -2.4063 -2.1381 -1.6217
  352MOL0     H47500   5.573  10.537  10.469  1.6640 -0.4729 -1.0564
  352MOL0     H47501   5.696  10.342  10.529  1.0956 -0.0002  0.1693
  352MOL0     H47502   5.759  10.063  10.894 -3.9922 -0.0866 -0.8923
  352MOL0     H47503   5.931   9.908  10.965 -0.7736 -0.6774  0.0919
  352MOL0     H47504   7.245   8.470  10.853 -0.0616 -0.3977  0.5444
  352MOL0     H47505   7.389   8.403  11.004 -0.0239  0.5496  1.9047
  352MOL0     H47506   7.655   8.509  11.336  1.9516  0.1912 -1.6199
  352MOL0     H47507   7.698   8.406  11.558  2.3416 -1.9609  0.7681
  352MOL0     H47508   7.591   8.266  11.720  0.5846  0.8071  4.4681
  352MOL0     H47509   7.778   8.247  11.706  0.7848 -2.5538 -0.7040
  352MOL0     H47510   7.724   8.002  11.777 -0.9932 -1.1595  3.0889
  352MOL0     H47511   7.563   8.049  11.792 -1.1982 -0.3679  4.8965
  352MOL0     H47512   7.680   8.051  12.014  1.3276  0.1070  0.2230
  352MOL0     H47513   7.639   8.215  11.976 -0.6339 -0.5675 -0.8671
  352MOL0     H47514   7.909   8.084  11.951  2.0284 -0.0916  3.1165
  352MOL0     H47515   7.871   8.256  11.905 -2.1822  3.3008  3.2427
  352MOL0     H47516   7.909   8.239  12.330 -1.0382 -1.2666  0.5285
  352MOL0     H47517   7.705   8.012  11.374  2.8629  0.5497 -0.0323
  352MOL0     H47518   7.684   7.982  11.156 -0.1700  0.5006  0.5189
  352MOL0     H47519   7.596   8.090  11.053 -1.8572  0.0260  1.8687
  352MOL0     H47520   7.778   8.119  11.075  2.0178  0.2108  4.1340
  353MOL0     O47521   6.111   3.760   0.061 -0.0878 -0.5260 -0.9236
  353MOL0     C47522   6.223   3.704   0.073  0.0156 -0.1340 -0.1729
  353MOL0     O47523   6.344   3.774   0.093 -0.2492  0.2603 -0.4254
  353MOL0     C47524   6.350   3.910   0.096  0.6456  0.3788 -0.5683
  353MOL0     C47525   6.266   3.982   0.172  0.4949  0.8574  0.7363
  353MOL0     C47526   6.262   4.120   0.173  0.0539 -0.1525  0.4922
  353MOL0     C47527   6.332   4.186   0.073  0.6506  0.1418  0.4138
  353MOL0     O47528   6.305   4.324   0.067  0.3175  0.3649  0.2261
  353MOL0     C47529   6.276   4.386  -0.059  0.1095  0.8071  0.1693
  353MOL0     C47530   6.150   4.474  -0.043  0.8880  0.3790  0.2293
  353MOL0     C47531   6.125   4.570  -0.166 -1.1841 -0.3521 -0.2375
  353MOL0     C47532   5.986   4.637  -0.163 -0.2226  0.2366  0.9882
  353MOL0     C47533   5.958   4.709  -0.288 -0.1625 -0.1004  0.3111
  353MOL0     C47534   5.807   4.749  -0.303  0.5109  0.1270 -0.2980
  353MOL0     C47535   5.769   4.778  -0.448  0.6586  0.5800  0.4841
  353MOL0     C47536   5.615   4.772  -0.466 -1.2967  0.4469 -0.0262
  353MOL0     N47537   5.568   4.808  -0.599  0.9020 -0.1226 -0.3174
  353MOL0     C47538   5.462   4.758  -0.672 -0.1600 -0.1309  0.4513
  353MOL0     C47539   5.439   4.833  -0.781  0.6091 -0.3592 -0.9750
  353MOL0     C47540   5.343   4.809  -0.899 -0.4789  0.0999  0.2807
  353MOL0     C47541   5.379   4.683  -0.976 -0.4078 -0.8124  0.0799
  353MOL0     C47542   5.525   4.685  -1.027 -0.2682 -0.6475  0.4618
  353MOL0     C47543   5.591   4.554  -1.060 -1.0823  0.0489  0.3767
  353MOL0     O47544   5.528   4.471  -1.162 -0.3679  0.4958 -0.5787
  353MOL0     C47545   5.583   4.462  -1.288  0.4827  0.0758  0.1252
  353MOL0     C47546   5.511   4.502  -1.403  0.2633 -0.0298 -0.9500
  353MOL0     C47547   5.563   4.503  -1.530 -1.3974  0.6241 -0.7347
  353MOL0     C47548   5.694   4.451  -1.553 -1.0899 -1.0958 -0.7920
  353MOL0     C47549   5.758   4.446  -1.693 -0.1785 -0.1675 -0.6947
  353MOL0     O47550   5.683   4.489  -1.802 -0.0095 -0.2493  0.4937
  353MOL0     C47551   5.737   4.481  -1.926 -0.2534 -0.6661 -0.2002
  353MOL0     C47552   5.702   4.383  -2.009  0.1856 -0.8922  0.4763
  353MOL0     C47553   5.759   4.371  -2.138  0.4769 -0.4003 -0.8661
  353MOL0     C47554   5.843   4.466  -2.186  0.7906  0.4534 -0.1263
  353MOL0     O47555   5.901   4.472  -2.308  0.2456  0.0693 -0.0367
  353MOL0     C47556   5.838   4.417  -2.420  0.0497  0.2292  0.0701
  353MOL0     C47557   5.920   4.443  -2.552 -0.4434  0.2480  1.7061
  353MOL0     C47558   5.902   4.581  -2.607  0.3490 -0.9605  0.4376
  353MOL0     C47559   6.001   4.595  -2.728  0.3712 -0.4385 -0.3232
  353MOL0     C47560   5.976   4.727  -2.789 -0.3248  0.2811 -0.6629
  353MOL0     C47561   6.052   4.736  -2.917  0.0614  0.3093 -0.5433
  353MOL0     C47562   6.009   4.856  -3.001  0.1383 -0.0208  0.1786
  353MOL0     C47563   6.105   4.897  -3.119 -0.4644  0.3036  0.3344
  353MOL0    Cl47564   6.083   5.065  -3.151 -0.3571 -0.0880 -0.7061
  353MOL0     C47565   5.869   4.572  -2.098  0.2490  1.4452  0.1712
  353MOL0     C47566   5.828   4.579  -1.971 -0.8714 -0.4906 -0.2321
  353MOL0     O47567   5.871   4.390  -1.705  0.1608 -0.8465  0.7862
  353MOL0     C47568   5.771   4.418  -1.438  0.1777 -0.1368 -0.0382
  353MOL0     C47569   5.720   4.423  -1.309  0.1828 -0.1551  0.5506
  353MOL0     N47570   5.540   4.941  -0.771 -0.4667 -0.0598 -0.0820
  353MOL0     N47571   5.608   4.917  -0.666 -0.3369  0.1607 -0.1132
  353MOL0     C47572   6.420   4.114  -0.014 -0.0331  0.6927  0.2521
  353MOL0     C47573   6.421   3.974   0.001  0.6905  0.7215  0.2359
  353MOL0     C47574   6.241   3.558   0.067  1.2573 -0.2314  0.7082
  353MOL0     C47575   6.369   3.505   0.085  0.1619 -0.1577  0.2487
  353MOL0     C47576   6.386   3.378   0.114 -0.1558  0.5444  0.5187
  353MOL0     C47577   6.285   3.285   0.100  0.9924 -0.0213 -0.3522
  353MOL0     O47578   6.307   3.150   0.106 -0.1094  0.1815  0.2320
  353MOL0     C47579   6.350   3.111   0.245 -0.4607 -0.7811  0.0205
  353MOL0     C47580   6.386   2.959   0.242 -0.4277  1.3743  0.2467
  353MOL0     C47581   6.263   2.872   0.219  0.8685 -0.9370  0.4181
  353MOL0     C47582   6.282   2.724   0.219 -0.4730 -0.3650 -0.5516
  353MOL0     C47583   6.339   2.662   0.339 -0.7866  0.2496  0.7986
  353MOL0     C47584   6.399   2.629   0.439 -1.3482 -0.1606  0.0270
  353MOL0     C47585   6.154   3.322   0.059  0.7824 -0.3290  0.6389
  353MOL0     C47586   6.129   3.467   0.053 -0.2003 -0.3410 -0.8491
  353MOL0     C47587   5.987   3.514   0.051  1.0005 -0.4299 -0.3418
  353MOL0     H47588   6.187   3.940   0.234 -2.3716  4.4317 -0.1457
  353MOL0     H47589   6.195   4.168   0.244  0.6022  2.1793 -0.4845
  353MOL0     H47590   6.359   4.449  -0.090 -0.3336  1.2266 -0.1790
  353MOL0     H47591   6.257   4.308  -0.133 -3.8119  1.1261  0.6256
  353MOL0     H47592   6.158   4.537   0.046  0.8865  2.2345 -1.0146
  353MOL0     H47593   6.063   4.410  -0.026  2.3671 -2.1860 -1.1375
  353MOL0     H47594   6.151   4.516  -0.257 -0.2558 -2.2743  1.0849
  353MOL0     H47595   6.192   4.657  -0.164 -3.5181  1.5516  0.9591
  353MOL0     H47596   5.915   4.554  -0.156 -1.5753  1.2748  0.0424
  353MOL0     H47597   5.990   4.718  -0.090  0.5806  4.5414 -3.3291
  353MOL0     H47598   6.025   4.796  -0.293 -1.0012  0.9114  3.8969
  353MOL0     H47599   5.984   4.647  -0.374 -0.6090  2.2742 -1.6695
  353MOL0     H47600   5.748   4.665  -0.267  0.9161  0.4748  1.2382
  353MOL0     H47601   5.783   4.828  -0.232  2.2373  0.5494 -0.1363
  353MOL0     H47602   5.810   4.701  -0.514  0.2456 -0.1564  1.0783
  353MOL0     H47603   5.802   4.873  -0.492 -1.7815  1.1512 -0.2807
  353MOL0     H47604   5.578   4.675  -0.432  4.4637 -1.1675  2.7288
  353MOL0     H47605   5.583   4.851  -0.398 -1.4576 -0.1651  0.6074
  353MOL0     H47606   5.403   4.671  -0.645  0.3423  0.1475  2.5676
  353MOL0     H47607   5.244   4.794  -0.855  0.9470 -0.0359  3.7722
  353MOL0     H47608   5.349   4.899  -0.961 -0.7831  0.8024  1.2522
  353MOL0     H47609   5.360   4.602  -0.905 -2.1965 -0.4751  0.0299
  353MOL0     H47610   5.315   4.667  -1.063 -1.6977  0.9251  0.6314
  353MOL0     H47611   5.591   4.726  -0.950 -1.3459  0.2609  0.9368
  353MOL0     H47612   5.533   4.748  -1.116  1.9703 -1.7686 -0.1809
  353MOL0     H47613   5.587   4.488  -0.973  0.2655 -2.7906 -1.5701
  353MOL0     H47614   5.692   4.578  -1.095 -0.9841 -2.9265 -1.7318
  353MOL0     H47615   5.407   4.529  -1.390  0.7800  1.1415  1.2733
  353MOL0     H47616   5.508   4.556  -1.608  2.1893  1.6230 -2.8269
  353MOL0     H47617   5.620   4.320  -1.977 -1.1362  0.6470  0.2535
  353MOL0     H47618   5.721   4.288  -2.197 -0.3884 -0.9581  0.4263
  353MOL0     H47619   5.831   4.309  -2.403  0.7147 -0.0954 -1.4614
  353MOL0     H47620   5.737   4.450  -2.445 -1.2043 -4.1489 -1.7905
  353MOL0     H47621   6.027   4.425  -2.533  0.3950  3.0941  0.2670
  353MOL0     H47622   5.889   4.378  -2.634  3.4075 -1.0123  1.0468
  353MOL0     H47623   5.795   4.587  -2.630 -0.6990  0.7172  4.8365
  353MOL0     H47624   5.918   4.649  -2.523 -0.6372 -1.0457  0.7088
  353MOL0     H47625   5.972   4.511  -2.792  0.6608 -0.8942  0.1313
  353MOL0     H47626   6.107   4.579  -2.705  0.4990  0.7223 -0.0121
  353MOL0     H47627   6.007   4.807  -2.722  0.7593 -1.0213  0.4584
  353MOL0     H47628   5.871   4.736  -2.821  0.3333 -2.4087 -4.2610
  353MOL0     H47629   6.158   4.747  -2.893 -0.0665  3.0046 -0.9248
  353MOL0     H47630   6.041   4.644  -2.975  1.1558 -0.2400  0.0838
  353MOL0     H47631   5.998   4.940  -2.932 -1.2012 -0.1715  0.1802
  353MOL0     H47632   5.911   4.832  -3.042  0.5122 -0.6130 -0.3801
  353MOL0     H47633   6.210   4.878  -3.096 -0.1851  0.5521 -0.6688
  353MOL0     H47634   6.083   4.844  -3.212 -1.3103  1.7147 -0.3121
  353MOL0     H47635   5.945   4.640  -2.138  1.4204 -0.3065 -0.7077
  353MOL0     H47636   5.869   4.661  -1.914  2.6024 -1.3385 -1.2767
  353MOL0     H47637   5.876   4.392  -1.443  0.9839  2.6628  0.7239
  353MOL0     H47638   5.786   4.384  -1.232  0.6416 -4.8198 -1.8268
  353MOL0     H47639   6.487   4.171  -0.078  0.2856  2.8216  2.3466
  353MOL0     H47640   6.482   3.911  -0.063 -0.1827  0.0878  0.0020
  353MOL0     H47641   6.461   3.561   0.089 -1.2302  2.2366  0.5486
  353MOL0     H47642   6.491   3.362   0.135  0.4882 -0.6340 -2.9911
  353MOL0     H47643   6.274   3.133   0.321  0.6462  0.1691  0.9021
  353MOL0     H47644   6.445   3.161   0.265 -1.9745  0.8505  4.4250
  353MOL0     H47645   6.434   2.946   0.340 -2.3846 -0.3205  1.0352
  353MOL0     H47646   6.453   2.941   0.158 -3.6651 -1.5147 -1.9649
  353MOL0     H47647   6.240   2.899   0.116  2.9537 -1.9070 -0.3650
  353MOL0     H47648   6.184   2.911   0.283  1.5316  1.2931 -0.0353
  353MOL0     H47649   6.187   2.679   0.188 -1.0384  0.7401 -0.4391
  353MOL0     H47650   6.351   2.723   0.134 -2.2122  3.8267 -2.2579
  353MOL0     H47651   6.446   2.622   0.535 -1.4880  0.5291  0.1555
  353MOL0     H47652   6.086   3.241   0.035  1.1954 -0.2811 -0.7957
  353MOL0     H47653   5.957   3.588  -0.023 -1.2647  0.1262  1.0468
  353MOL0     H47654   5.928   3.425   0.027  0.8422  0.3217 -3.0769
  353MOL0     H47655   5.952   3.549   0.148  1.3721 -0.6995 -0.1078
  354MOL0     O47656   8.666   5.498  10.298 -0.7743 -0.5931 -0.1102
  354MOL0     C47657   8.584   5.541  10.218  0.5193 -0.0656  0.0271
  354MOL0     O47658   8.498   5.456  10.149 -0.5459 -0.2702  0.2251
  354MOL0     C47659   8.548   5.330  10.116  0.4864  0.7604 -0.5951
  354MOL0     C47660   8.469   5.208  10.129 -0.6185  0.8101  0.1295
  354MOL0     C47661   8.523   5.082  10.090 -0.0990 -0.4394  0.1201
  354MOL0     C47662   8.649   5.080  10.031 -0.2672  0.0106 -0.0804
  354MOL0     O47663   8.679   4.955   9.976 -0.7767  0.0379 -0.1633
  354MOL0     C47664   8.818   4.926   9.931  0.4408  0.5087  0.0395
  354MOL0     C47665   8.843   4.951   9.782 -0.7449 -0.2185  0.7951
  354MOL0     C47666   8.775   4.862   9.670 -0.1726  0.5595 -0.0405
  354MOL0     C47667   8.824   4.716   9.673 -0.5215  0.0997 -0.4222
  354MOL0     C47668   8.757   4.620   9.575  0.2327  0.0674  0.0532
  354MOL0     C47669   8.842   4.492   9.556  1.0207 -0.1340 -0.2675
  354MOL0     C47670   8.743   4.375   9.531  0.1625  0.0474 -0.0094
  354MOL0     C47671   8.788   4.234   9.570  0.7277 -0.2559 -0.7043
  354MOL0     N47672   8.736   4.120   9.494  0.2729  0.2232 -0.0324
  354MOL0     C47673   8.618   4.118   9.429  0.0002 -0.4718  0.3716
  354MOL0     C47674   8.620   4.004   9.358 -0.7403  0.7678 -0.5069
  354MOL0     C47675   8.513   3.962   9.261 -0.2936 -0.0107 -0.1638
  354MOL0     C47676   8.529   4.022   9.120 -0.0280 -0.4999  0.7392
  354MOL0     C47677   8.405   3.993   9.031  0.3303  0.3471  0.4857
  354MOL0     C47678   8.305   4.114   9.031  1.1947  0.7021  0.0054
  354MOL0     O47679   8.184   4.053   8.986  1.2400  0.1749 -0.0864
  354MOL0     C47680   8.128   3.958   9.065  0.8850  0.9907 -0.4250
  354MOL0     C47681   8.076   3.849   8.994 -1.1067 -0.1947  0.8828
  354MOL0     C47682   8.007   3.745   9.056 -0.2037  0.3732  0.3249
  354MOL0     C47683   7.980   3.749   9.193  0.1251 -0.2967  0.8186
  354MOL0     C47684   7.875   3.663   9.260  0.1274  0.3166  0.1241
  354MOL0     O47685   7.814   3.707   9.370 -0.0759  0.4864 -0.3442
  354MOL0     C47686   7.741   3.614   9.447 -0.0500 -0.3093 -0.4412
  354MOL0     C47687   7.739   3.487   9.454 -0.7068  0.1902  0.5460
  354MOL0     C47688   7.650   3.414   9.533  1.1317 -0.2181  0.2039
  354MOL0     C47689   7.563   3.478   9.620  0.1583 -1.0076  0.2504
  354MOL0     O47690   7.482   3.412   9.703  0.0683 -0.3052 -0.6499
  354MOL0     C47691   7.349   3.382   9.661 -0.4751 -0.2986  1.1176
  354MOL0     C47692   7.351   3.229   9.617  0.4771 -0.8333  0.7898
  354MOL0     C47693   7.211   3.185   9.580 -0.3274 -0.7073  0.6430
  354MOL0     C47694   7.165   3.246   9.443  0.0781  0.0932  0.0054
  354MOL0     C47695   7.036   3.187   9.384 -0.0241 -0.1948  0.0963
  354MOL0     C47696   6.912   3.279   9.401 -0.1455  1.2445 -0.0444
  354MOL0     C47697   6.780   3.219   9.362  0.0982 -0.5013  0.2050
  354MOL0     C47698   6.677   3.326   9.332  0.1227  0.5266 -0.3038
  354MOL0    Cl47699   6.703   3.385   9.176 -0.1054  0.2488 -0.1385
  354MOL0     C47700   7.564   3.619   9.620 -0.2317  0.7083  0.8692
  354MOL0     C47701   7.659   3.682   9.543 -0.1842  0.4157  0.2447
  354MOL0     O47702   7.847   3.566   9.188 -0.1772  0.2079 -0.2514
  354MOL0     C47703   8.020   3.858   9.266  0.6408 -0.3711 -0.2707
  354MOL0     C47704   8.096   3.955   9.205 -0.0499  0.2699 -0.1057
  354MOL0     N47705   8.733   3.930   9.388  0.0702 -0.1092  0.1641
  354MOL0     N47706   8.805   4.003   9.464 -0.0708 -0.2894  0.2600
  354MOL0     C47707   8.727   5.191  10.028 -0.7539 -0.0184 -0.2942
  354MOL0     C47708   8.677   5.315  10.060 -0.8228  0.2310  0.1232
  354MOL0     C47709   8.551   5.683  10.210 -0.5889 -0.0254 -0.3613
  354MOL0     C47710   8.519   5.739  10.087 -0.4311  0.2189  0.2015
  354MOL0     C47711   8.517   5.878  10.076 -0.4053  0.0591  0.4166
  354MOL0     C47712   8.523   5.966  10.188 -0.2681 -0.2345 -0.4831
  354MOL0     O47713   8.512   6.101  10.185  0.0052 -0.0064  0.5365
  354MOL0     C47714   8.503   6.170  10.058  0.5978 -0.9353  0.0116
  354MOL0     C47715   8.484   6.315  10.110  0.0645  0.3479  0.1106
  354MOL0     C47716   8.432   6.414  10.012  1.3481  0.3740  0.4530
  354MOL0     C47717   8.503   6.439   9.885  0.5010 -0.3912 -0.0408
  354MOL0     C47718   8.404   6.505   9.790 -0.6882 -0.0484  0.1761
  354MOL0     C47719   8.307   6.549   9.734 -0.1280 -0.9321  0.1098
  354MOL0     C47720   8.542   5.899  10.312 -0.3386 -0.6915 -0.6020
  354MOL0     C47721   8.556   5.771  10.323  0.8359  0.4774 -0.7214
  354MOL0     C47722   8.571   5.719  10.467 -0.9169 -0.5499 -0.6007
  354MOL0     H47723   8.369   5.224  10.168 -0.6148  1.7962 -0.2333
  354MOL0     H47724   8.454   4.999  10.085 -1.6990  0.7898  0.7891
  354MOL0     H47725   8.896   4.972   9.994  1.2162 -0.4594 -0.1788
  354MOL0     H47726   8.829   4.819   9.950  0.2174  0.4793  0.0068
  354MOL0     H47727   8.951   4.963   9.767 -0.8751 -0.1437 -0.0968
  354MOL0     H47728   8.812   5.054   9.763  0.3853  0.1798  1.0165
  354MOL0     H47729   8.792   4.905   9.571  1.3504  2.8448  1.1205
  354MOL0     H47730   8.668   4.851   9.690 -0.2295 -0.3109 -0.7636
  354MOL0     H47731   8.931   4.704   9.656 -0.1501  2.4308  0.0058
  354MOL0     H47732   8.813   4.675   9.774  0.9453  0.5841 -0.0356
  354MOL0     H47733   8.661   4.607   9.628 -0.3605  1.3745 -0.6561
  354MOL0     H47734   8.730   4.667   9.480  0.3842 -0.8074 -0.4230
  354MOL0     H47735   8.922   4.493   9.481  0.7625  0.3512 -0.5422
  354MOL0     H47736   8.893   4.472   9.651  2.1387  6.0386  0.8001
  354MOL0     H47737   8.708   4.378   9.427 -2.7099  1.2524  0.8939
  354MOL0     H47738   8.652   4.394   9.589 -0.2251 -1.5495 -0.0175
  354MOL0     H47739   8.897   4.222   9.564  1.2574  3.1654 -0.0594
  354MOL0     H47740   8.778   4.216   9.678 -1.0118 -0.1415 -0.8221
  354MOL0     H47741   8.546   4.199   9.427  2.3291  1.7475  0.4161
  354MOL0     H47742   8.511   3.853   9.262  0.6890 -0.1258 -3.1103
  354MOL0     H47743   8.416   3.998   9.299 -1.6243 -3.2641 -0.1532
  354MOL0     H47744   8.537   4.131   9.122 -1.3438 -0.1160 -3.6559
  354MOL0     H47745   8.613   3.983   9.062 -0.0141  1.6929 -0.8725
  354MOL0     H47746   8.358   3.897   9.056 -2.9574  1.0400 -2.2497
  354MOL0     H47747   8.439   3.991   8.927 -1.3540  3.9680 -0.2878
  354MOL0     H47748   8.347   4.178   8.953  1.5032 -0.8968 -1.1937
  354MOL0     H47749   8.285   4.166   9.125  1.4161  2.9361 -1.1424
  354MOL0     H47750   8.084   3.851   8.886  0.9803  2.1795  0.9894
  354MOL0     H47751   7.967   3.661   9.000  0.9991  0.0185 -0.0341
  354MOL0     H47752   7.808   3.431   9.391 -0.1579  1.4036  0.0264
  354MOL0     H47753   7.643   3.306   9.525  2.7506 -0.2568 -1.5603
  354MOL0     H47754   7.268   3.391   9.734 -1.4055 -3.1005  0.5417
  354MOL0     H47755   7.319   3.451   9.582  2.3506  0.3248  0.4611
  354MOL0     H47756   7.412   3.231   9.526 -2.6026 -2.8638 -1.5260
  354MOL0     H47757   7.396   3.161   9.690 -0.5785 -2.4573 -0.0227
  354MOL0     H47758   7.214   3.076   9.567  1.2139 -0.4314 -1.9630
  354MOL0     H47759   7.140   3.204   9.661  1.0745 -0.7915  1.9593
  354MOL0     H47760   7.247   3.230   9.373 -0.0940 -0.1522 -0.1413
  354MOL0     H47761   7.141   3.351   9.460  1.1960  0.1550  1.4446
  354MOL0     H47762   7.029   3.086   9.427  0.5089 -1.2440 -2.1119
  354MOL0     H47763   7.053   3.171   9.277  1.0805 -2.6381  0.5420
  354MOL0     H47764   6.911   3.307   9.507  1.2247 -0.1008  0.3631
  354MOL0     H47765   6.928   3.370   9.343 -0.6125  0.4446 -1.4749
  354MOL0     H47766   6.755   3.149   9.442  3.1875 -1.5866  0.3707
  354MOL0     H47767   6.796   3.174   9.263 -0.5355 -0.1984 -0.0393
  354MOL0     H47768   6.572   3.297   9.347 -0.3501  2.8148  1.4331
  354MOL0     H47769   6.693   3.415   9.394  0.8658 -0.0908  0.3949
  354MOL0     H47770   7.501   3.673   9.690 -3.2487 -0.4368 -0.7534
  354MOL0     H47771   7.651   3.790   9.547  2.7288  0.7217 -0.0280
  354MOL0     H47772   8.006   3.867   9.373  2.9592 -0.4906  0.0770
  354MOL0     H47773   8.131   4.048   9.250  0.9305  0.5722 -1.4397
  354MOL0     H47774   8.830   5.187   9.994 -0.0008  1.0209  1.6928
  354MOL0     H47775   8.745   5.398  10.045  2.4677 -2.4962 -1.5021
  354MOL0     H47776   8.502   5.682   9.996 -1.8812 -0.1621  0.6865
  354MOL0     H47777   8.498   5.916   9.977  1.0060 -2.2520 -0.8248
  354MOL0     H47778   8.415   6.152   9.995  1.2861  1.1183 -1.6345
  354MOL0     H47779   8.589   6.159   9.991  2.1561 -0.8847  1.9141
  354MOL0     H47780   8.584   6.350  10.138 -0.2784  1.4742 -0.0021
  354MOL0     H47781   8.424   6.312  10.201 -2.1725 -1.0292 -1.3084
  354MOL0     H47782   8.428   6.506  10.071  1.5511  0.5928  0.1296
  354MOL0     H47783   8.331   6.376   9.993  0.9527 -0.1175  3.1008
  354MOL0     H47784   8.588   6.509   9.889 -0.6343  1.0367 -0.1482
  354MOL0     H47785   8.549   6.353   9.836  0.1011  0.0233 -1.1695
  354MOL0     H47786   8.226   6.599   9.686  0.7577 -0.3549 -0.8362
  354MOL0     H47787   8.534   5.959  10.402 -2.4343  0.8941 -1.7415
  354MOL0     H47788   8.500   5.636  10.469 -0.5836 -0.8343 -0.5715
  354MOL0     H47789   8.671   5.675  10.470 -0.7531 -0.4663 -2.9881
  354MOL0     H47790   8.547   5.794  10.543  1.4711  0.6495 -0.9192
  355MOL0     O47791   2.345   4.907   8.040  0.1856  0.1665  0.3320
  355MOL0     C47792   2.380   4.957   7.931 -0.5428 -0.3733  1.2963
  355MOL0     O47793   2.318   4.936   7.809  0.3500 -0.4618 -0.1933
  355MOL0     C47794   2.217   4.845   7.802  0.3774 -0.5090 -0.6760
  355MOL0     C47795   2.092   4.840   7.867 -0.5048 -0.5280  0.0079
  355MOL0     C47796   2.003   4.730   7.857  0.3237  0.7982 -0.5059
  355MOL0     C47797   2.036   4.628   7.769 -0.5181  0.1768  0.1700
  355MOL0     O47798   1.967   4.506   7.754  0.1660 -0.2647  0.0830
  355MOL0     C47799   1.861   4.479   7.855  0.2063 -0.1495  0.5469
  355MOL0     C47800   1.824   4.323   7.852 -0.6748  0.0822 -0.3692
  355MOL0     C47801   1.947   4.236   7.802 -0.2707 -0.1043 -0.4558
  355MOL0     C47802   2.078   4.243   7.885  0.4227 -0.7073  0.3915
  355MOL0     C47803   2.172   4.118   7.871  1.2075 -0.0417  0.9427
  355MOL0     C47804   2.251   4.125   7.749  0.3341  0.3427  0.1266
  355MOL0     C47805   2.338   4.000   7.743  0.5378 -1.2627 -0.0577
  355MOL0     C47806   2.395   3.975   7.605 -0.7387  1.0067  0.0174
  355MOL0     N47807   2.480   3.854   7.600 -0.2187  0.3879  1.0467
  355MOL0     C47808   2.607   3.838   7.655  0.2743 -0.6410  0.9239
  355MOL0     C47809   2.668   3.745   7.575  0.3589  0.4500 -0.6675
  355MOL0     C47810   2.800   3.693   7.598 -0.0968 -0.3357  0.3961
  355MOL0     C47811   2.904   3.759   7.497  1.1350  0.4769  0.5208
  355MOL0     C47812   3.051   3.715   7.534  0.2056 -0.2717 -0.2335
  355MOL0     C47813   3.076   3.562   7.548 -0.1415  0.0171 -0.8744
  355MOL0     O47814   3.216   3.552   7.559  0.0067  0.0251  0.2670
  355MOL0     C47815   3.274   3.432   7.574 -0.6695  0.2535 -0.5385
  355MOL0     C47816   3.403   3.435   7.626 -0.6441  0.1521  0.0552
  355MOL0     C47817   3.472   3.324   7.655 -0.7876 -0.0149  0.4256
  355MOL0     C47818   3.420   3.193   7.633  0.9134  0.1048  0.8014
  355MOL0     C47819   3.503   3.072   7.651  0.0388  0.3649  0.6836
  355MOL0     O47820   3.451   2.954   7.608  0.5664 -0.2103  0.3565
  355MOL0     C47821   3.524   2.838   7.629  0.6148  0.0139 -1.6346
  355MOL0     C47822   3.451   2.726   7.665 -0.1186  0.1698  0.8782
  355MOL0     C47823   3.507   2.609   7.709 -0.4090  0.9343  0.4027
  355MOL0     C47824   3.649   2.590   7.704 -0.8886  0.2060 -0.6307
  355MOL0     O47825   3.712   2.470   7.735  0.7794 -0.3432  0.0383
  355MOL0     C47826   3.855   2.465   7.767 -0.1740 -0.3843 -0.1005
  355MOL0     C47827   3.894   2.326   7.838  0.6119 -0.1361  0.5343
  355MOL0     C47828   4.040   2.324   7.849  0.4126 -0.3693  0.6329
  355MOL0     C47829   4.089   2.207   7.938  0.2300  0.3797 -0.3003
  355MOL0     C47830   4.101   2.250   8.086 -0.9311  0.4662  0.1521
  355MOL0     C47831   4.109   2.125   8.171 -0.2423  0.1947  0.2110
  355MOL0     C47832   4.162   2.182   8.297  0.0320  0.7602 -0.3800
  355MOL0     C47833   4.198   2.083   8.400 -0.8394 -0.3774 -0.2247
  355MOL0    Cl47834   4.076   1.946   8.408 -0.1181 -0.0855  0.2490
  355MOL0     C47835   3.727   2.701   7.664  1.2132  0.5117  0.5139
  355MOL0     C47836   3.663   2.825   7.625 -0.3417 -0.0996 -0.3274
  355MOL0     O47837   3.603   3.090   7.721 -0.1362  0.1458 -0.0491
  355MOL0     C47838   3.292   3.182   7.576  0.6184 -0.0764 -0.6184
  355MOL0     C47839   3.219   3.299   7.551  0.5724  0.5800  0.0384
  355MOL0     N47840   2.574   3.694   7.486  0.2187 -0.3135  0.7801
  355MOL0     N47841   2.462   3.764   7.490 -0.7325 -0.2552 -0.2552
  355MOL0     C47842   2.155   4.629   7.704 -1.0345 -0.4122 -0.3604
  355MOL0     C47843   2.244   4.741   7.712  0.7656  0.2287 -0.5837
  355MOL0     C47844   2.475   5.069   7.943 -1.0264 -0.1399  0.0493
  355MOL0     C47845   2.521   5.121   8.068 -0.0457 -0.3125 -0.1547
  355MOL0     C47846   2.624   5.210   8.090  0.3059  0.4064 -0.4714
  355MOL0     C47847   2.684   5.263   7.979  0.0736 -0.8469  0.1049
  355MOL0     O47848   2.779   5.355   8.010  0.1675 -0.5636 -0.3983
  355MOL0     C47849   2.858   5.420   7.909  0.2729 -0.5430 -0.1611
  355MOL0     C47850   2.909   5.555   7.952 -1.4657  0.6321  0.0022
  355MOL0     C47851   2.996   5.557   8.078  0.4911  0.0733 -0.1635
  355MOL0     C47852   3.035   5.693   8.104 -0.1458  0.9843 -1.1521
  355MOL0     C47853   3.063   5.685   8.249  0.2473 -0.1108  0.5354
  355MOL0     C47854   3.076   5.658   8.369 -0.0894 -0.6882  0.0197
  355MOL0     C47855   2.635   5.225   7.848  0.4187 -0.1420 -0.1051
  355MOL0     C47856   2.539   5.127   7.826  0.2751 -0.2779  0.2460
  355MOL0     C47857   2.516   5.081   7.688  0.5498  0.4251  1.1836
  355MOL0     H47858   2.073   4.928   7.928  2.3114 -0.1101  0.4168
  355MOL0     H47859   1.908   4.720   7.909 -0.3987  0.6016 -1.8087
  355MOL0     H47860   1.899   4.494   7.957 -0.7309  3.5395  0.5112
  355MOL0     H47861   1.769   4.536   7.838 -1.9111 -3.8052 -1.5700
  355MOL0     H47862   1.737   4.310   7.787 -0.2484  0.9465 -1.1299
  355MOL0     H47863   1.795   4.284   7.950 -3.3594 -2.2794 -1.9575
  355MOL0     H47864   1.969   4.247   7.695  0.2725 -1.4227 -0.4998
  355MOL0     H47865   1.917   4.132   7.791 -0.1393 -0.0047 -2.0674
  355MOL0     H47866   2.132   4.336   7.861  0.7325 -0.8956  0.3594
  355MOL0     H47867   2.064   4.251   7.993  2.0924  1.7347  0.5322
  355MOL0     H47868   2.231   4.117   7.963  0.7860  0.5889  1.2237
  355MOL0     H47869   2.093   4.043   7.862  0.3767  0.8480  0.7023
  355MOL0     H47870   2.178   4.121   7.668 -0.7655 -3.7300  1.0766
  355MOL0     H47871   2.297   4.223   7.735 -2.5909  1.7489 -0.4034
  355MOL0     H47872   2.280   3.912   7.773  1.0821 -2.1203 -1.4763
  355MOL0     H47873   2.426   4.024   7.803  0.8883 -0.0929 -0.9950
  355MOL0     H47874   2.313   3.959   7.535 -0.0296 -1.9479 -0.2393
  355MOL0     H47875   2.438   4.059   7.550  1.0732 -1.5019 -2.7054
  355MOL0     H47876   2.637   3.902   7.737 -1.1846  0.9146  0.3090
  355MOL0     H47877   2.844   3.716   7.696  0.0517 -0.0088  0.2504
  355MOL0     H47878   2.806   3.584   7.584 -0.4360 -0.3645  0.4633
  355MOL0     H47879   2.874   3.734   7.395  2.8742 -2.9498  0.6948
  355MOL0     H47880   2.890   3.867   7.509 -0.6677  0.3494 -0.1567
  355MOL0     H47881   3.088   3.778   7.615 -2.6582  0.1014  0.9052
  355MOL0     H47882   3.116   3.740   7.450 -1.6166  1.4846 -1.2166
  355MOL0     H47883   3.045   3.515   7.454 -2.5572 -0.1186 -0.0818
  355MOL0     H47884   3.028   3.510   7.631 -0.4734 -1.1537 -1.7764
  355MOL0     H47885   3.457   3.528   7.629 -1.0133  0.3371  1.5733
  355MOL0     H47886   3.574   3.328   7.692 -0.5677 -1.1518 -0.0151
  355MOL0     H47887   3.342   2.719   7.666 -0.0739 -0.6043  1.6805
  355MOL0     H47888   3.445   2.523   7.730 -0.6956  1.1537  0.4666
  355MOL0     H47889   3.921   2.471   7.681  2.9117 -1.4798  2.0060
  355MOL0     H47890   3.889   2.546   7.832 -1.0905 -2.8889  3.8828
  355MOL0     H47891   3.842   2.318   7.934 -4.2000  3.2177 -1.4434
  355MOL0     H47892   3.868   2.248   7.765 -1.2387  0.9955 -0.0878
  355MOL0     H47893   4.087   2.323   7.750 -0.9948  1.1464 -0.1094
  355MOL0     H47894   4.074   2.420   7.890  4.5240 -1.5963  0.5101
  355MOL0     H47895   4.192   2.184   7.908  1.0456  0.7707  2.0434
  355MOL0     H47896   4.022   2.120   7.934 -0.1249  0.5440  1.4629
  355MOL0     H47897   4.008   2.296   8.123 -0.9840  0.7019 -0.2668
  355MOL0     H47898   4.192   2.310   8.076 -1.0221  0.2620 -2.5106
  355MOL0     H47899   4.014   2.076   8.196  0.2248 -1.5625 -1.3140
  355MOL0     H47900   4.182   2.055   8.132 -1.3119 -0.5325 -0.5443
  355MOL0     H47901   4.080   2.236   8.346  0.5154  0.3905  0.8753
  355MOL0     H47902   4.249   2.244   8.275  2.1162 -1.7128  0.3990
  355MOL0     H47903   4.300   2.050   8.375 -0.5207  0.5330 -0.1561
  355MOL0     H47904   4.215   2.131   8.497  0.1315 -2.1808  0.5465
  355MOL0     H47905   3.834   2.682   7.669  0.8049 -2.5446  0.0521
  355MOL0     H47906   3.726   2.905   7.587 -2.8333  1.5549 -1.2731
  355MOL0     H47907   3.254   3.082   7.559 -1.2428  0.4369  0.2521
  355MOL0     H47908   3.123   3.280   7.504  0.4027 -1.6177  1.1393
  355MOL0     H47909   2.188   4.558   7.630  0.8022 -1.3775  1.2746
  355MOL0     H47910   2.326   4.757   7.643 -0.7885 -0.5719 -2.7545
  355MOL0     H47911   2.497   5.082   8.167 -3.1629  1.2817 -0.1726
  355MOL0     H47912   2.650   5.243   8.190  0.9690 -1.2446 -0.0740
  355MOL0     H47913   2.815   5.431   7.809  1.2566 -0.0734 -0.5481
  355MOL0     H47914   2.945   5.362   7.876  0.8305  1.5437 -2.6770
  355MOL0     H47915   2.825   5.625   7.956 -1.9406  0.2163 -1.7786
  355MOL0     H47916   2.963   5.573   7.859  0.4235 -1.9796  0.4918
  355MOL0     H47917   3.086   5.495   8.070  0.0175 -0.7220  0.4720
  355MOL0     H47918   2.933   5.516   8.158  1.7312 -2.0063 -0.1835
  355MOL0     H47919   3.119   5.727   8.042  1.5673  2.5924  1.8445
  355MOL0     H47920   2.949   5.757   8.082 -0.0090  1.5339 -0.1174
  355MOL0     H47921   3.071   5.622   8.470 -3.6712 -1.8553 -0.4248
  355MOL0     H47922   2.682   5.274   7.764 -0.3643  1.7264  0.4989
  355MOL0     H47923   2.581   5.125   7.612 -0.2375 -1.3139 -0.5878
  355MOL0     H47924   2.507   4.972   7.678 -1.1534  0.7343 -3.5365
  355MOL0     H47925   2.419   5.122   7.657 -1.1468 -2.3942  2.2962
  356MOL0     O47926   5.655   6.998   0.895  0.1583  0.2120 -0.0342
  356MOL0     C47927   5.731   7.031   0.983  0.1510  0.5527  0.0378
  356MOL0     O47928   5.867   6.989   0.989 -0.3438 -0.0426 -0.3028
  356MOL0     C47929   5.900   6.888   0.906 -0.6939  0.1238  0.0444
  356MOL0     C47930   5.944   6.929   0.779  1.8613  0.0032 -0.6715
  356MOL0     C47931   5.985   6.830   0.683 -0.1704 -0.0479  0.6550
  356MOL0     C47932   5.990   6.693   0.711 -0.5398 -0.4603 -0.5977
  356MOL0     O47933   6.017   6.592   0.615  0.5758 -0.0157  0.6042
  356MOL0     C47934   6.019   6.610   0.479  0.3858  0.4153  0.4909
  356MOL0     C47935   6.165   6.610   0.441 -0.0209  0.1160 -0.6472
  356MOL0     C47936   6.236   6.471   0.450  0.7523  0.6063 -0.8627
  356MOL0     C47937   6.382   6.491   0.403 -0.6786 -0.0170  0.3412
  356MOL0     C47938   6.475   6.361   0.424  0.1993 -0.3103  0.2991
  356MOL0     C47939   6.615   6.388   0.372  0.3063  0.4855  0.4509
  356MOL0     C47940   6.681   6.250   0.339 -0.4184  0.3114  0.5474
  356MOL0     C47941   6.735   6.172   0.465  0.5927  0.0970  0.5972
  356MOL0     N47942   6.776   6.032   0.409  0.3890  0.7805 -0.1965
  356MOL0     C47943   6.885   5.994   0.330  0.0206 -0.1354  0.6381
  356MOL0     C47944   6.868   5.862   0.311  0.6264  0.2634  0.7354
  356MOL0     C47945   6.947   5.770   0.229 -0.2040 -0.0453  0.7977
  356MOL0     C47946   6.876   5.734   0.100 -0.1764 -0.1735 -0.4730
  356MOL0     C47947   6.749   5.654   0.111  0.0173 -0.1299 -0.5939
  356MOL0     C47948   6.699   5.618  -0.033 -0.0758 -0.2741  0.2713
  356MOL0     O47949   6.588   5.523  -0.046  0.2160 -0.6465  1.0029
  356MOL0     C47950   6.459   5.553   0.001 -0.0354  0.3098  0.2485
  356MOL0     C47951   6.411   5.672   0.051 -0.4063  0.2475  0.1103
  356MOL0     C47952   6.277   5.685   0.087 -0.2400 -0.6016  0.6765
  356MOL0     C47953   6.186   5.575   0.075 -0.1624 -0.9140  0.6662
  356MOL0     C47954   6.046   5.598   0.098 -0.0910 -1.1346 -0.4676
  356MOL0     O47955   5.983   5.726   0.067 -0.2682 -0.2377 -0.7401
  356MOL0     C47956   5.849   5.741   0.058  0.0345  0.9807  0.1228
  356MOL0     C47957   5.786   5.856   0.100 -0.0187  0.5597 -0.6252
  356MOL0     C47958   5.651   5.856   0.111 -0.1790  0.8976 -0.5361
  356MOL0     C47959   5.564   5.753   0.069  0.1379  0.2147 -0.2709
  356MOL0     O47960   5.430   5.775   0.073 -0.4966 -0.1704 -0.6105
  356MOL0     C47961   5.384   5.779   0.216 -0.4685 -0.8138  0.7237
  356MOL0     C47962   5.253   5.696   0.239 -0.2707 -0.7868 -0.2351
  356MOL0     C47963   5.277   5.554   0.273  0.9009 -0.7990 -0.8642
  356MOL0     C47964   5.150   5.473   0.306 -0.0884 -0.5417 -1.0504
  356MOL0     C47965   5.085   5.515   0.444  0.1184  0.0838  0.1444
  356MOL0     C47966   5.004   5.400   0.503 -0.6065  0.4273 -1.2121
  356MOL0     C47967   4.993   5.425   0.656 -0.6045  0.5796 -0.2895
  356MOL0     C47968   4.915   5.309   0.731 -1.2753  0.2996 -0.3499
  356MOL0    Cl47969   4.758   5.262   0.669 -0.2707 -0.1847  0.3930
  356MOL0     C47970   5.626   5.646   0.004 -0.5619 -0.1348  0.0684
  356MOL0     C47971   5.769   5.637   0.001 -0.1871 -0.8543  0.3598
  356MOL0     O47972   5.984   5.505   0.139  0.1368  0.4441  0.6973
  356MOL0     C47973   6.235   5.462   0.017 -0.7682  0.5954 -0.9128
  356MOL0     C47974   6.368   5.443  -0.016  0.9845 -0.9668 -0.3207
  356MOL0     N47975   6.745   5.829   0.372  0.2054  0.3298 -0.1395
  356MOL0     N47976   6.689   5.927   0.435  1.4671  0.3797 -0.6367
  356MOL0     C47977   5.952   6.653   0.842  0.7740  0.3304  0.0203
  356MOL0     C47978   5.910   6.751   0.939 -0.2765  0.3738  0.0959
  356MOL0     C47979   5.694   7.127   1.087  0.5759 -0.3133 -0.1068
  356MOL0     C47980   5.792   7.180   1.178  0.8449  0.4667 -0.4633
  356MOL0     C47981   5.758   7.258   1.284  1.2217 -0.9934 -0.5383
  356MOL0     C47982   5.622   7.301   1.300  1.1230 -0.2153 -0.3080
  356MOL0     O47983   5.612   7.397   1.391 -0.0297 -0.1512  0.4879
  356MOL0     C47984   5.490   7.415   1.460  0.0684 -0.4558  0.1557
  356MOL0     C47985   5.525   7.521   1.577  0.4600  0.0796  0.3924
  356MOL0     C47986   5.551   7.662   1.530  0.2999 -0.4316 -0.8208
  356MOL0     C47987   5.625   7.729   1.637  0.2819 -0.9852  0.0245
  356MOL0     C47988   5.528   7.788   1.723  0.1329 -0.7656 -0.0559
  356MOL0     C47989   5.433   7.843   1.781 -1.1815  0.1615 -0.4180
  356MOL0     C47990   5.526   7.268   1.201 -0.4360 -0.2083 -0.1244
  356MOL0     C47991   5.563   7.179   1.100  0.7603  0.4776  0.5132
  356MOL0     C47992   5.449   7.136   1.006 -0.0508  0.2714  0.0757
  356MOL0     H47993   5.946   7.035   0.758 -0.5085  0.2501  0.0431
  356MOL0     H47994   6.029   6.845   0.586 -0.2728 -1.1534  0.4258
  356MOL0     H47995   5.968   6.533   0.421 -0.3542  0.3185  1.2336
  356MOL0     H47996   5.967   6.705   0.461  0.3242  0.8399  2.6197
  356MOL0     H47997   6.212   6.683   0.508  0.3567 -1.3994  0.8042
  356MOL0     H47998   6.184   6.636   0.337 -0.6029 -2.8769 -1.5971
  356MOL0     H47999   6.180   6.408   0.380  0.0110  0.8023 -0.4612
  356MOL0     H48000   6.218   6.428   0.549  0.4253 -1.5406 -1.8011
  356MOL0     H48001   6.387   6.500   0.294 -0.6952  1.5426  0.4433
  356MOL0     H48002   6.429   6.572   0.459  0.4088 -2.0729  2.5089
  356MOL0     H48003   6.469   6.334   0.530 -1.5684  0.6004  0.4692
  356MOL0     H48004   6.417   6.288   0.368 -1.0699  0.7489  0.1856
  356MOL0     H48005   6.600   6.429   0.272  1.2904 -1.1081 -0.4099
  356MOL0     H48006   6.673   6.456   0.434 -1.2213  0.6968  1.7202
  356MOL0     H48007   6.755   6.257   0.259 -2.5022 -0.9489 -1.6307
  356MOL0     H48008   6.599   6.187   0.304 -0.4546  0.9334 -0.5394
  356MOL0     H48009   6.820   6.225   0.510  0.0009  1.1353  0.5275
  356MOL0     H48010   6.655   6.156   0.537  0.8803  1.7489  1.3426
  356MOL0     H48011   6.964   6.052   0.283 -0.5252 -1.7899 -2.6026
  356MOL0     H48012   7.039   5.826   0.212 -0.9857  2.0832  2.8827
  356MOL0     H48013   6.965   5.688   0.299 -0.7012  1.2067  2.4711
  356MOL0     H48014   6.853   5.828   0.050 -0.8158 -0.6719 -1.1440
  356MOL0     H48015   6.953   5.676   0.047  1.3775  0.6182  0.8177
  356MOL0     H48016   6.667   5.710   0.157  0.7105 -1.0191  1.8981
  356MOL0     H48017   6.773   5.560   0.162  1.5155 -0.1479 -1.2855
  356MOL0     H48018   6.786   5.587  -0.091 -1.3941 -2.7377 -0.5801
  356MOL0     H48019   6.669   5.711  -0.082  0.5937 -0.7563 -1.1107
  356MOL0     H48020   6.463   5.766   0.064  1.5859 -0.6219 -0.9987
  356MOL0     H48021   6.241   5.780   0.126 -0.0167 -0.7428  1.2374
  356MOL0     H48022   5.842   5.944   0.127 -0.3414  1.1921 -1.9371
  356MOL0     H48023   5.594   5.947   0.127 -1.7706 -0.3589  1.4190
  356MOL0     H48024   5.458   5.761   0.294 -0.9279 -0.2504  1.3050
  356MOL0     H48025   5.360   5.884   0.237  0.1414  0.1032 -2.5708
  356MOL0     H48026   5.205   5.753   0.319 -2.2117  1.2697 -2.6712
  356MOL0     H48027   5.184   5.707   0.155  0.0081 -2.2253 -0.6780
  356MOL0     H48028   5.318   5.503   0.186 -1.6557 -1.4873 -1.7638
  356MOL0     H48029   5.347   5.547   0.356  1.2355 -0.6526 -1.1309
  356MOL0     H48030   5.188   5.371   0.318 -0.1262 -0.5113 -0.6661
  356MOL0     H48031   5.079   5.475   0.223 -0.8421  2.7398 -0.4941
  356MOL0     H48032   5.027   5.608   0.434 -0.9737 -0.3960  1.5951
  356MOL0     H48033   5.167   5.539   0.512  2.3278  1.3162 -2.7553
  356MOL0     H48034   4.901   5.387   0.468 -0.3277  0.9514 -2.2758
  356MOL0     H48035   5.066   5.311   0.487  0.5697  1.0943 -0.5306
  356MOL0     H48036   4.943   5.517   0.687 -0.2856  0.1308  1.7226
  356MOL0     H48037   5.096   5.429   0.692 -0.1778 -3.1924 -0.6847
  356MOL0     H48038   4.980   5.223   0.711  1.6602  2.1575  0.5704
  356MOL0     H48039   4.925   5.322   0.839  4.5608  0.0676 -0.5339
  356MOL0     H48040   5.567   5.564  -0.037 -1.0747  0.2690 -0.0131
  356MOL0     H48041   5.811   5.547  -0.042 -0.8505 -0.6152 -0.8685
  356MOL0     H48042   6.173   5.376  -0.006  0.5581 -0.6109 -0.2058
  356MOL0     H48043   6.388   5.344  -0.057  1.7983 -0.5250 -1.0191
  356MOL0     H48044   5.956   6.548   0.866  1.2289  0.0186 -1.3032
  356MOL0     H48045   5.867   6.732   1.037 -3.1148  3.0437 -0.4576
  356MOL0     H48046   5.897   7.157   1.167  0.9949 -0.0487  1.7199
  356MOL0     H48047   5.841   7.291   1.346  0.1269 -0.7738  0.8884
  356MOL0     H48048   5.442   7.330   1.508 -0.8513  0.9371  1.8151
  356MOL0     H48049   5.407   7.464   1.409 -1.8195 -0.7222  2.7703
  356MOL0     H48050   5.617   7.487   1.624  2.2521  0.4652 -2.5888
  356MOL0     H48051   5.449   7.528   1.656  0.3254 -1.6529  0.4550
  356MOL0     H48052   5.465   7.716   1.491  1.6292  1.0766 -1.8056
  356MOL0     H48053   5.615   7.659   1.441  0.7315  2.9646 -0.7634
  356MOL0     H48054   5.684   7.659   1.696 -0.8699 -4.4235 -2.5800
  356MOL0     H48055   5.683   7.807   1.586 -2.2846  1.1512  0.1202
  356MOL0     H48056   5.352   7.897   1.827 -1.9954  1.4160 -3.1276
  356MOL0     H48057   5.428   7.310   1.221 -0.6008  0.4757 -2.2215
  356MOL0     H48058   5.442   7.027   0.993  2.3727 -0.0288  0.8639
  356MOL0     H48059   5.352   7.176   1.037 -0.6294  0.0362 -1.3404
  356MOL0     H48060   5.479   7.183   0.912 -0.6606  0.7548  0.1143
  357MOL0     O48061  10.577   7.508   0.078  0.0275 -0.0389  0.4109
  357MOL0     C48062  10.636   7.495   0.183 -1.1096  0.2864  0.3147
  357MOL0     O48063  10.577   7.522   0.307 -0.5257  0.4093  0.0250
  357MOL0     C48064  10.464   7.598   0.306 -0.7011  0.6660  0.2688
  357MOL0     C48065  10.356   7.563   0.380  0.4684  0.7974  0.5033
  357MOL0     C48066  10.235   7.636   0.397 -0.1917 -0.0262 -0.2724
  357MOL0     C48067  10.227   7.753   0.328 -0.6275 -0.3274 -0.2317
  357MOL0     O48068  10.110   7.815   0.348  0.5655  0.3192  1.0408
  357MOL0     C48069  10.108   7.947   0.305  0.1515  0.4406 -0.0189
  357MOL0     C48070   9.989   8.021   0.367  1.2587 -0.1235 -0.0769
  357MOL0     C48071   9.846   7.955   0.343 -0.5171  0.1977 -0.2066
  357MOL0     C48072   9.741   8.038   0.417  0.6500  0.3256  0.6249
  357MOL0     C48073   9.600   7.973   0.439 -0.8806  0.3266  0.1505
  357MOL0     C48074   9.516   7.934   0.316  0.5982 -0.0365 -0.3416
  357MOL0     C48075   9.373   7.911   0.354 -0.5289 -0.5198  0.3766
  357MOL0     C48076   9.302   7.843   0.240 -0.1163 -0.7442 -0.5512
  357MOL0     N48077   9.175   7.800   0.307 -0.2439 -1.0676  0.0511
  357MOL0     C48078   9.054   7.866   0.306  1.0420  0.6642 -0.4951
  357MOL0     C48079   8.976   7.805   0.403 -0.8873  0.1765  0.6180
  357MOL0     C48080   8.843   7.842   0.471 -0.2311  0.2864  0.9700
  357MOL0     C48081   8.860   7.932   0.585  0.1932 -0.2050  0.1885
  357MOL0     C48082   8.824   7.866   0.714  0.4577  0.2009 -0.4642
  357MOL0     C48083   8.924   7.776   0.762 -0.6063 -0.5712  0.0745
  357MOL0     O48084   9.013   7.841   0.849  0.0349  0.4440  0.0276
  357MOL0     C48085   9.141   7.819   0.829 -0.6057 -0.4084 -0.0896
  357MOL0     C48086   9.203   7.711   0.765  0.2706 -0.2972  0.0718
  357MOL0     C48087   9.347   7.700   0.752 -0.2037  0.2314  1.0037
  357MOL0     C48088   9.430   7.792   0.811 -0.3211  0.0934  0.1022
  357MOL0     C48089   9.570   7.771   0.792  0.1981  0.2401  0.4926
  357MOL0     O48090   9.622   7.643   0.804  0.0582  0.4334 -0.7006
  357MOL0     C48091   9.746   7.599   0.772  0.3054  0.6584 -0.9752
  357MOL0     C48092   9.830   7.671   0.683 -0.1637  0.0026 -0.4790
  357MOL0     C48093   9.970   7.628   0.656  0.1201 -0.4167  0.1396
  357MOL0     C48094  10.034   7.514   0.708  1.4977 -0.1400 -0.5399
  357MOL0     O48095  10.163   7.493   0.687 -0.7614  0.4078 -0.5374
  357MOL0     C48096  10.243   7.394   0.766 -0.0506 -0.2273  0.6365
  357MOL0     C48097  10.231   7.260   0.700 -0.4804  0.0200  0.0559
  357MOL0     C48098  10.284   7.139   0.784  0.6760 -0.3811 -0.9590
  357MOL0     C48099  10.287   7.008   0.705 -0.0002  0.3101  0.3084
  357MOL0     C48100  10.329   6.880   0.793  0.4391  0.0874 -0.6849
  357MOL0     C48101  10.312   6.738   0.735 -0.0403 -0.8880  0.9094
  357MOL0     C48102  10.162   6.694   0.736  0.6101  0.0378  0.0985
  357MOL0     C48103  10.123   6.658   0.593 -0.2323 -0.1897 -0.4325
  357MOL0    Cl48104   9.964   6.568   0.610  0.0461  0.5757 -0.0023
  357MOL0     C48105   9.937   7.444   0.791  0.3009  0.9636  0.7541
  357MOL0     C48106   9.804   7.486   0.832 -0.5032  0.3716 -0.5618
  357MOL0     O48107   9.636   7.862   0.749 -0.3441  1.0775  0.1701
  357MOL0     C48108   9.377   7.905   0.872  0.1466 -0.1524  0.4695
  357MOL0     C48109   9.236   7.913   0.879 -0.2226  0.0880 -0.4325
  357MOL0     N48110   9.050   7.691   0.447 -0.2567  0.1903  0.3500
  357MOL0     N48111   9.163   7.686   0.384  0.2106 -0.0192  0.4834
  357MOL0     C48112  10.332   7.787   0.244 -0.0601  0.1678 -0.2525
  357MOL0     C48113  10.443   7.711   0.235 -0.2243  0.2574  0.2013
  357MOL0     C48114  10.747   7.398   0.179 -0.9563 -0.6026  0.4167
  357MOL0     C48115  10.806   7.376   0.044 -0.0960  0.3560 -0.2503
  357MOL0     C48116  10.918   7.297   0.021 -0.0343  0.3596  0.2088
  357MOL0     C48117  10.978   7.234   0.125  0.7940  1.5975  0.3200
  357MOL0     O48118  11.100   7.163   0.119  0.4650  0.1653 -0.3166
  357MOL0     C48119  11.156   7.121  -0.002 -0.0603  0.2129 -0.5025
  357MOL0     C48120  11.282   7.038   0.004  0.2823 -0.2426 -0.4912
  357MOL0     C48121  11.321   7.011  -0.142  0.3059  0.5938  0.8256
  357MOL0     C48122  11.433   6.922  -0.165  0.0355  0.1620 -0.0831
  357MOL0     C48123  11.476   6.912  -0.309 -0.6783  0.0995 -0.7701
  357MOL0     C48124  11.501   6.870  -0.422 -0.1324 -0.1424 -0.6521
  357MOL0     C48125  10.921   7.237   0.251  0.0090 -0.4439 -0.1955
  357MOL0     C48126  10.812   7.326   0.285  0.1392  0.0211 -0.8739
  357MOL0     C48127  10.761   7.327   0.423 -0.0154 -0.5325 -0.1327
  357MOL0     H48128  10.354   7.466   0.428 -1.0361  0.4429 -0.1834
  357MOL0     H48129  10.158   7.594   0.460 -0.3395  0.7966  0.1053
  357MOL0     H48130  10.201   7.993   0.339 -0.0518 -0.6451  2.1178
  357MOL0     H48131  10.102   7.962   0.196  0.4372  1.2289  0.0665
  357MOL0     H48132   9.993   8.129   0.351 -2.3610  0.7331  3.3497
  357MOL0     H48133  10.010   8.010   0.474  1.3355  0.5001 -0.0255
  357MOL0     H48134   9.841   7.850   0.374  0.7061 -0.3870 -1.8100
  357MOL0     H48135   9.835   7.965   0.234  2.6021  3.2595 -0.4429
  357MOL0     H48136   9.781   8.048   0.519  1.3499  0.0055  0.3924
  357MOL0     H48137   9.738   8.139   0.376  1.3352  0.4148  0.7689
  357MOL0     H48138   9.618   7.880   0.495 -3.3749  0.1010  0.7096
  357MOL0     H48139   9.541   8.031   0.511  0.3474 -0.6492  2.0320
  357MOL0     H48140   9.523   8.017   0.244 -3.0107  1.7529  1.1369
  357MOL0     H48141   9.567   7.846   0.276  2.1082  0.9655 -0.7017
  357MOL0     H48142   9.327   8.003   0.391  0.5068 -0.5721  1.8916
  357MOL0     H48143   9.380   7.845   0.442 -2.3055 -0.1782  0.8073
  357MOL0     H48144   9.281   7.909   0.156  1.8327 -0.4318 -0.8493
  357MOL0     H48145   9.351   7.751   0.209  0.9159  0.1750 -1.7508
  357MOL0     H48146   9.019   7.965   0.275 -0.0901  0.8461  1.2029
  357MOL0     H48147   8.785   7.882   0.388 -2.1278 -2.6770  0.7097
  357MOL0     H48148   8.790   7.751   0.501  1.3118 -0.3739  1.8404
  357MOL0     H48149   8.964   7.966   0.593  1.1887 -2.5092 -1.5824
  357MOL0     H48150   8.794   8.019   0.578  0.4574 -0.0465 -0.4511
  357MOL0     H48151   8.729   7.813   0.709 -0.6631  2.2080 -1.6222
  357MOL0     H48152   8.805   7.953   0.779  0.4309  1.5239 -2.1629
  357MOL0     H48153   8.972   7.734   0.673 -2.1752 -2.1939 -0.0671
  357MOL0     H48154   8.876   7.693   0.815 -0.5792 -1.0824 -0.6843
  357MOL0     H48155   9.145   7.633   0.718 -2.1330  0.2032  1.9723
  357MOL0     H48156   9.400   7.626   0.693  0.7477  1.6642 -0.0306
  357MOL0     H48157   9.787   7.747   0.618  1.2097 -1.8869 -3.8530
  357MOL0     H48158  10.020   7.693   0.586  0.2024  1.4578  1.8554
  357MOL0     H48159  10.350   7.413   0.758 -0.1967 -0.1368 -2.1183
  357MOL0     H48160  10.204   7.404   0.868  0.8843 -2.9716  1.3397
  357MOL0     H48161  10.127   7.249   0.669 -1.4022  2.2591  2.0054
  357MOL0     H48162  10.291   7.258   0.608 -2.0823  0.1715 -1.0349
  357MOL0     H48163  10.376   7.178   0.828 -1.7208  1.8194  2.6092
  357MOL0     H48164  10.228   7.136   0.878  1.8442  1.4814 -0.1294
  357MOL0     H48165  10.359   7.007   0.622 -0.0241 -0.5285  0.2972
  357MOL0     H48166  10.191   6.995   0.656 -0.5204 -1.2993  1.6621
  357MOL0     H48167  10.257   6.892   0.874 -2.1746  3.0681 -3.1633
  357MOL0     H48168  10.423   6.901   0.844 -1.1742  1.5322  1.9498
  357MOL0     H48169  10.345   6.737   0.631 -4.0309 -1.4576 -0.5485
  357MOL0     H48170  10.365   6.664   0.794  1.1350 -0.8268 -0.0409
  357MOL0     H48171  10.086   6.770   0.755 -2.0497 -2.4708  0.2444
  357MOL0     H48172  10.141   6.605   0.796 -3.5506  0.1611 -0.8574
  357MOL0     H48173  10.117   6.745   0.527  4.4438  0.4612 -0.3601
  357MOL0     H48174  10.199   6.588   0.558  2.4718  1.8738  0.8801
  357MOL0     H48175   9.970   7.344   0.817 -2.0865  0.0312  0.4003
  357MOL0     H48176   9.730   7.427   0.884 -1.9254  2.7759  0.2907
  357MOL0     H48177   9.431   7.985   0.922 -1.1229  0.1341  1.4067
  357MOL0     H48178   9.208   8.010   0.919  0.6185  1.2993 -2.5805
  357MOL0     H48179  10.339   7.871   0.175  1.0287  0.7895  0.5948
  357MOL0     H48180  10.525   7.736   0.169  2.0802  0.1202  2.8074
  357MOL0     H48181  10.769   7.425  -0.045 -0.8129 -1.9111 -1.2582
  357MOL0     H48182  10.963   7.277  -0.075 -2.8877  1.0871 -1.4006
  357MOL0     H48183  11.170   7.212  -0.060  0.8669  1.3637  1.4219
  357MOL0     H48184  11.081   7.057  -0.049 -0.4593  0.8855 -0.8000
  357MOL0     H48185  11.257   6.948   0.061 -0.5256 -1.4612 -2.6638
  357MOL0     H48186  11.359   7.091   0.062 -2.3177  2.3957  0.7953
  357MOL0     H48187  11.334   7.104  -0.199  0.5992 -1.5817 -2.9729
  357MOL0     H48188  11.229   6.962  -0.177  0.4179  1.1286 -0.2501
  357MOL0     H48189  11.510   6.954  -0.094 -1.3347  0.3405  1.3739
  357MOL0     H48190  11.398   6.824  -0.132  3.4755 -1.6876 -1.4284
  357MOL0     H48191  11.530   6.844  -0.522  2.7029 -0.0079  0.0582
  357MOL0     H48192  10.963   7.172   0.328  4.9197  2.1823 -0.2675
  357MOL0     H48193  10.823   7.267   0.491 -0.6771  2.2941  3.2229
  357MOL0     H48194  10.770   7.429   0.461  2.0502 -0.9571  0.6476
  357MOL0     H48195  10.663   7.280   0.437  1.3573 -2.9438  2.7518
  358MOL0     O48196   5.770  10.409   2.916  0.7467  0.0351  0.9403
  358MOL0     C48197   5.865  10.327   2.909  1.3549 -0.2444  0.2175
  358MOL0     O48198   6.001  10.354   2.893 -0.6750 -0.6489  0.9128
  358MOL0     C48199   6.034  10.486   2.860 -0.2002  0.1012  0.2185
  358MOL0     C48200   6.067  10.540   2.737  0.4986 -0.3928  1.4022
  358MOL0     C48201   6.091  10.672   2.714 -0.7643 -1.1749  0.2424
  358MOL0     C48202   6.085  10.765   2.818  0.5946  0.4387  0.0869
  358MOL0     O48203   6.083  10.897   2.796  0.0425 -0.5887 -0.1626
  358MOL0     C48204   6.157  10.984   2.888 -0.1130  1.3212 -0.0310
  358MOL0     C48205   6.193  11.124   2.832  0.3652 -0.6625 -0.3437
  358MOL0     C48206   6.257  11.112   2.699 -0.6240  0.1165 -0.0409
  358MOL0     C48207   6.412  11.151   2.722  0.6971 -0.0480 -0.6275
  358MOL0     C48208   6.488  11.216   2.610 -0.7354 -0.4138 -0.5492
  358MOL0     C48209   6.645  11.220   2.638 -0.8208  0.5204 -0.7990
  358MOL0     C48210   6.736  11.286   2.523 -0.0411 -0.0211 -0.6811
  358MOL0     C48211   6.706  11.237   2.393  0.1732  0.3659 -0.6334
  358MOL0     N48212   6.802  11.283   2.284  0.0311  0.3349  0.1794
  358MOL0     C48213   6.815  11.227   2.156 -1.0064 -1.1873 -0.7166
  358MOL0     C48214   6.916  11.299   2.103  0.6201 -0.5788 -0.7961
  358MOL0     C48215   6.957  11.286   1.964 -0.8525 -0.6010 -0.3854
  358MOL0     C48216   7.105  11.314   1.955 -0.6485  0.4482 -0.5548
  358MOL0     C48217   7.145  11.308   1.800 -0.6068 -0.6780  0.3589
  358MOL0     C48218   7.302  11.315   1.795 -0.2553 -0.3509 -1.1699
  358MOL0     O48219   7.347  11.451   1.818  0.3554 -0.6191  1.2947
  358MOL0     C48220   7.406  11.499   1.929  0.3892  0.6793 -0.1618
  358MOL0     C48221   7.450  11.432   2.050 -0.1964  0.1438  1.3679
  358MOL0     C48222   7.514  11.496   2.154 -0.2204 -0.2038  0.3526
  358MOL0     C48223   7.539  11.632   2.146 -0.5800 -0.6346 -0.6672
  358MOL0     C48224   7.606  11.714   2.255  0.6403 -0.1841 -0.1144
  358MOL0     O48225   7.640  11.651   2.368 -0.0235  0.1927 -0.3556
  358MOL0     C48226   7.722  11.710   2.455  0.9452 -0.5390  0.8763
  358MOL0     C48227   7.854  11.759   2.411  0.0981 -0.3952  0.2370
  358MOL0     C48228   7.930  11.834   2.501 -0.2633 -0.6280  0.4797
  358MOL0     C48229   7.883  11.853   2.632  0.6543  0.1951  0.2738
  358MOL0     O48230   7.948  11.928   2.726 -0.5042 -0.0908 -0.6203
  358MOL0     C48231   8.076  11.981   2.703 -0.3791 -0.1771 -0.0483
  358MOL0     C48232   8.125  12.042   2.838 -0.5661  0.9835  0.7000
  358MOL0     C48233   8.265  12.099   2.835 -0.0474 -0.1625  0.7380
  358MOL0     C48234   8.276  12.204   2.948 -0.6227  0.1042  0.6272
  358MOL0     C48235   8.420  12.225   3.001 -0.7920 -0.1659 -0.1587
  358MOL0     C48236   8.400  12.277   3.150  0.4235  0.4311  0.3796
  358MOL0     C48237   8.338  12.413   3.167  0.4413 -0.4305  0.3111
  358MOL0     C48238   8.443  12.513   3.120  0.4554 -0.3944 -0.1299
  358MOL0    Cl48239   8.579  12.489   3.231  0.2510  0.0871  0.1844
  358MOL0     C48240   7.759  11.806   2.675  0.4422  0.5014  0.2728
  358MOL0     C48241   7.676  11.732   2.592  1.2471  0.0146 -0.2332
  358MOL0     O48242   7.630  11.834   2.235 -0.2490  0.1142 -0.1557
  358MOL0     C48243   7.498  11.708   2.030  0.7042  0.3330  0.7111
  358MOL0     C48244   7.426  11.636   1.928  0.4472 -0.2127  1.0071
  358MOL0     N48245   6.975  11.373   2.200  0.4917 -0.1115  0.5607
  358MOL0     N48246   6.900  11.379   2.305 -0.2997  0.8605  0.6320
  358MOL0     C48247   6.041  10.709   2.941  0.0030 -0.3048 -0.7331
  358MOL0     C48248   6.017  10.576   2.962 -0.3616  0.2313 -0.3113
  358MOL0     C48249   5.824  10.187   2.933 -0.2394 -0.3370  0.8376
  358MOL0     C48250   5.731  10.164   3.029  0.2590  0.1658 -0.0347
  358MOL0     C48251   5.666  10.042   3.048 -0.9702 -0.1151  1.4305
  358MOL0     C48252   5.678   9.941   2.952 -1.0916  0.9752 -0.3482
  358MOL0     O48253   5.592   9.829   2.962  0.2675 -0.2806  0.5124
  358MOL0     C48254   5.649   9.719   3.042  0.3229  0.4333 -0.2745
  358MOL0     C48255   5.802   9.697   3.054  0.7046 -0.2040 -0.2996
  358MOL0     C48256   5.864   9.620   2.937 -0.2146  0.0190 -0.1570
  358MOL0     C48257   6.016   9.623   2.936  1.1756  0.6509 -0.1497
  358MOL0     C48258   6.074   9.596   2.808  0.3848  1.3057  0.2986
  358MOL0     C48259   6.135   9.593   2.703 -0.0415 -0.5516  0.3157
  358MOL0     C48260   5.772   9.963   2.844 -0.3968  0.3489 -0.8281
  358MOL0     C48261   5.852  10.087   2.832  0.5563  0.8535  0.1441
  358MOL0     C48262   5.941  10.112   2.707  0.6981  0.2368 -0.1457
  358MOL0     H48263   6.056  10.473   2.652 -0.3077 -1.0971  2.0404
  358MOL0     H48264   6.119  10.717   2.620 -0.7250  2.8325  1.9534
  358MOL0     H48265   6.111  10.996   2.987 -0.2273  1.3080 -0.0824
  358MOL0     H48266   6.245  10.925   2.916  0.2787  1.6214 -0.6122
  358MOL0     H48267   6.258  11.183   2.898 -0.4638  1.4869 -1.3594
  358MOL0     H48268   6.097  11.176   2.829  0.7874  1.0961  5.2184
  358MOL0     H48269   6.207  11.176   2.625  2.4015  0.8585 -1.6057
  358MOL0     H48270   6.255  11.009   2.660 -2.3311 -0.0216  0.3432
  358MOL0     H48271   6.425  11.232   2.795 -1.7812  0.6567 -0.8519
  358MOL0     H48272   6.467  11.062   2.751  0.6482  0.6880  2.0673
  358MOL0     H48273   6.475  11.143   2.530  3.4777 -1.4071 -0.5480
  358MOL0     H48274   6.439  11.310   2.582 -2.1457 -0.7890  0.5133
  358MOL0     H48275   6.656  11.280   2.729 -1.5637 -2.1081  1.1500
  358MOL0     H48276   6.678  11.124   2.678  0.2164  2.2945  3.1298
  358MOL0     H48277   6.837  11.279   2.564 -0.1946  4.8939  1.2392
  358MOL0     H48278   6.718  11.393   2.514 -0.8514 -0.2391 -1.8854
  358MOL0     H48279   6.709  11.128   2.402  1.1022  0.5043  1.1333
  358MOL0     H48280   6.610  11.271   2.351  0.3602  0.7220 -0.7804
  358MOL0     H48281   6.748  11.156   2.109 -0.6213 -0.2801 -2.7314
  358MOL0     H48282   6.924  11.189   1.925 -1.7385 -0.5735  0.2538
  358MOL0     H48283   6.892  11.361   1.919 -0.0759  0.5004  0.2850
  358MOL0     H48284   7.126  11.412   1.999  0.6434 -0.0462 -0.0367
  358MOL0     H48285   7.155  11.235   2.010  1.8219  1.2674 -1.4964
  358MOL0     H48286   7.086  11.378   1.741 -0.9022 -0.9364  0.3470
  358MOL0     H48287   7.119  11.213   1.751  0.3794 -0.7831  0.0038
  358MOL0     H48288   7.348  11.271   1.706  2.7502 -1.0345  0.5788
  358MOL0     H48289   7.341  11.256   1.878 -2.6672  0.8979  1.0196
  358MOL0     H48290   7.430  11.326   2.057 -0.8835  0.1648 -0.0094
  358MOL0     H48291   7.537  11.441   2.244  0.9160  0.6730  0.6266
  358MOL0     H48292   7.901  11.748   2.314 -0.2327  1.5429 -0.1701
  358MOL0     H48293   8.026  11.863   2.460 -0.7906 -1.5120 -1.5174
  358MOL0     H48294   8.146  11.900   2.681 -1.6209 -0.8402 -1.7901
  358MOL0     H48295   8.075  12.054   2.622 -2.9344 -1.7126 -1.5545
  358MOL0     H48296   8.057  12.128   2.848 -1.0037  0.5110  1.9492
  358MOL0     H48297   8.109  11.974   2.922 -0.3315 -3.1630 -2.3420
  358MOL0     H48298   8.325  12.010   2.861 -0.8941 -1.4357 -1.4280
  358MOL0     H48299   8.301  12.149   2.745  0.8159 -0.7709  0.7282
  358MOL0     H48300   8.210  12.160   3.024 -3.7796  0.7921 -1.5490
  358MOL0     H48301   8.237  12.300   2.914  0.8919  1.0506  1.4330
  358MOL0     H48302   8.482  12.288   2.937  2.2913 -1.4398  1.3768
  358MOL0     H48303   8.474  12.130   3.004  0.1107  0.2770 -1.5879
  358MOL0     H48304   8.327  12.210   3.198 -0.7243  0.8303 -0.7705
  358MOL0     H48305   8.493  12.265   3.206  1.5136 -0.4442 -1.5411
  358MOL0     H48306   8.337  12.430   3.275  3.5698  3.8028 -0.0509
  358MOL0     H48307   8.239  12.433   3.126  0.6354 -1.5513 -0.7962
  358MOL0     H48308   8.477  12.496   3.017  2.2333  3.4837 -0.3786
  358MOL0     H48309   8.393  12.610   3.133 -1.7506 -1.5436  0.3236
  358MOL0     H48310   7.739  11.827   2.779 -2.0144  1.5288 -0.3560
  358MOL0     H48311   7.580  11.693   2.623  1.6378 -0.3540  0.5587
  358MOL0     H48312   7.507  11.816   2.020  0.2218  0.4195  1.1687
  358MOL0     H48313   7.402  11.683   1.833  0.6554 -5.5398 -2.0846
  358MOL0     H48314   6.023  10.767   3.031 -1.6518 -2.1518  0.2024
  358MOL0     H48315   5.979  10.544   3.059  2.1463  1.3653  1.1577
  358MOL0     H48316   5.727  10.240   3.107  2.9663 -1.0077  1.3476
  358MOL0     H48317   5.589  10.025   3.124 -1.5744  1.5403  1.2309
  358MOL0     H48318   5.619   9.625   2.996  1.2392  0.5682 -1.2029
  358MOL0     H48319   5.608   9.726   3.143 -3.9775 -0.3185 -1.7689
  358MOL0     H48320   5.831   9.644   3.144 -1.0805  1.7437  1.5369
  358MOL0     H48321   5.853   9.792   3.073 -0.3260  0.2138  0.4611
  358MOL0     H48322   5.822   9.656   2.842  1.5813 -3.4472 -2.4846
  358MOL0     H48323   5.826   9.519   2.949 -0.8146  0.3264  0.5725
  358MOL0     H48324   6.047   9.720   2.977 -2.8627  1.3610  1.7775
  358MOL0     H48325   6.045   9.554   3.016  0.4540  1.1423  0.5581
  358MOL0     H48326   6.175   9.600   2.604 -1.3862  1.8616 -0.1218
  358MOL0     H48327   5.780   9.890   2.764 -2.3049 -1.2224  0.3334
  358MOL0     H48328   5.948  10.218   2.680  0.4690  0.1987 -0.3627
  358MOL0     H48329   6.033  10.063   2.738 -0.6950 -2.1020  0.6078
  358MOL0     H48330   5.899  10.049   2.627 -0.3498  0.7616 -0.0259
  359MOL0     O48331   0.361   0.058   6.800  0.1408  0.0679  0.0552
  359MOL0     C48332   0.405   0.166   6.843 -0.0371  0.1548 -0.6883
  359MOL0     O48333   0.410   0.273   6.769 -0.1474 -1.3265  0.1359
  359MOL0     C48334   0.348   0.277   6.645  0.2358 -0.1949 -0.0560
  359MOL0     C48335   0.414   0.225   6.533 -0.2819  0.1311 -0.3080
  359MOL0     C48336   0.360   0.235   6.405  0.5421 -0.4994 -0.6432
  359MOL0     C48337   0.235   0.299   6.390  1.2274  0.5339 -0.2021
  359MOL0     O48338   0.187   0.318   6.257  0.0967  0.2281 -0.7450
  359MOL0     C48339   0.155   0.449   6.213  0.8832 -0.5624 -0.1627
  359MOL0     C48340  -0.002   0.463   6.188 -0.4390  0.1945 -0.1898
  359MOL0     C48341  -0.053   0.603   6.144  0.5925 -0.2896 -0.7703
  359MOL0     C48342  -0.013   0.729   6.226 -0.2887 -0.2274  0.3773
  359MOL0     C48343  -0.120   0.850   6.211 -0.3395 -0.9959  0.3770
  359MOL0     C48344  -0.070   0.987   6.265 -0.2886  0.8804  0.5254
  359MOL0     C48345  -0.175   1.089   6.300  0.9439 -0.8041 -0.1605
  359MOL0     C48346  -0.273   1.120   6.189  0.0665  0.4399 -1.2601
  359MOL0     N48347  -0.341   1.244   6.208 -0.1305 -0.4503  0.1040
  359MOL0     C48348  -0.304   1.352   6.133  0.4904 -1.3685 -0.1769
  359MOL0     C48349  -0.390   1.446   6.192 -0.4864 -0.8166 -0.4371
  359MOL0     C48350  -0.385   1.592   6.164  1.4243  0.7827  0.1388
  359MOL0     C48351  -0.336   1.637   6.025 -0.2977 -0.9894 -0.7282
  359MOL0     C48352  -0.351   1.785   6.007 -0.1520 -0.0826 -0.0831
  359MOL0     C48353  -0.249   1.872   6.081 -0.5958  0.3236 -0.0878
  359MOL0     O48354  -0.245   2.011   6.045  0.7852 -0.3129  0.4206
  359MOL0     C48355  -0.127   2.062   6.033 -0.3241 -0.2062 -0.0013
  359MOL0     C48356  -0.044   2.020   5.927  0.2029  0.4878  0.4875
  359MOL0     C48357   0.080   2.083   5.918 -0.3201  0.0988  0.2180
  359MOL0     C48358   0.134   2.177   6.005 -0.2328  0.6369  0.0658
  359MOL0     C48359   0.266   2.231   5.977  0.5255 -0.1084  0.4143
  359MOL0     O48360   0.305   2.308   6.076  0.0895 -0.3309  0.5320
  359MOL0     C48361   0.425   2.364   6.064 -0.9740  0.0987 -1.6096
  359MOL0     C48362   0.462   2.452   5.956 -0.9446  0.6006 -1.0141
  359MOL0     C48363   0.585   2.517   5.953  0.5746 -0.4081  0.1062
  359MOL0     C48364   0.678   2.505   6.052 -0.4073 -0.6032 -0.5081
  359MOL0     O48365   0.799   2.570   6.049  0.1248 -0.5228 -0.4266
  359MOL0     C48366   0.879   2.525   5.936  0.6554  0.6548  0.1837
  359MOL0     C48367   1.032   2.543   5.983 -0.0951  0.1813  0.1125
  359MOL0     C48368   1.081   2.413   6.049 -1.1214  0.9340  0.4750
  359MOL0     C48369   1.225   2.411   6.091  0.0299  0.6127  0.3863
  359MOL0     C48370   1.257   2.276   6.162 -0.0922 -0.4676 -1.1547
  359MOL0     C48371   1.393   2.268   6.211  0.8346  1.1441  0.7431
  359MOL0     C48372   1.429   2.151   6.310 -0.2086  0.0396 -0.4061
  359MOL0     C48373   1.536   2.201   6.421  0.7438 -0.2409 -0.5440
  359MOL0    Cl48374   1.705   2.226   6.367 -0.6454  0.4984  0.0236
  359MOL0     C48375   0.649   2.416   6.150 -0.4152  0.1656  0.6218
  359MOL0     C48376   0.527   2.343   6.159 -0.4013  0.9341 -0.2966
  359MOL0     O48377   0.342   2.181   5.891  0.3065 -0.4347 -0.5225
  359MOL0     C48378   0.046   2.213   6.115  0.0923  0.4641 -0.0004
  359MOL0     C48379  -0.077   2.142   6.131  1.0663  0.2966 -0.2375
  359MOL0     N48380  -0.458   1.387   6.301  0.1067 -0.0961  0.6596
  359MOL0     N48381  -0.418   1.268   6.317 -0.1703  0.5966 -0.7205
  359MOL0     C48382   0.166   0.352   6.506 -0.3647 -0.6307  0.5650
  359MOL0     C48383   0.223   0.344   6.631 -0.3484  1.0292 -0.6238
  359MOL0     C48384   0.489   0.157   6.963 -0.6394  0.0457  0.2505
  359MOL0     C48385   0.600   0.246   6.973 -0.4168  0.0389  0.3951
  359MOL0     C48386   0.694   0.246   7.076  0.0847  0.0702  0.5551
  359MOL0     C48387   0.669   0.174   7.190  0.3991 -0.9471  0.7304
  359MOL0     O48388   0.764   0.180   7.290 -0.3238 -0.4845 -0.0889
  359MOL0     C48389   0.729   0.102   7.403  0.3384  0.0577  0.7379
  359MOL0     C48390   0.831   0.134   7.515  0.1934  0.4846  0.5076
  359MOL0     C48391   0.976   0.120   7.456 -0.8799 -0.1853 -0.2522
  359MOL0     C48392   1.102   0.123   7.551 -0.0289 -0.1488 -0.1427
  359MOL0     C48393   1.103   0.007   7.642  0.3981  0.3573 -0.6683
  359MOL0     C48394   1.108  -0.095   7.710 -0.6478 -0.4113 -0.8974
  359MOL0     C48395   0.558   0.077   7.184 -0.1597 -0.7129 -0.7241
  359MOL0     C48396   0.471   0.071   7.075  0.8561  0.2814 -0.0654
  359MOL0     C48397   0.342  -0.018   7.091 -0.1811 -0.3505  0.5135
  359MOL0     H48398   0.513   0.183   6.548  0.1766  1.3964  0.3120
  359MOL0     H48399   0.410   0.204   6.314  0.9083  1.1591 -1.0322
  359MOL0     H48400   0.184   0.519   6.292  2.3262  0.3231 -1.4271
  359MOL0     H48401   0.203   0.472   6.117  1.5015 -3.1260 -0.5341
  359MOL0     H48402  -0.050   0.433   6.282  2.3926 -2.7439  0.4965
  359MOL0     H48403  -0.033   0.393   6.111 -4.6383  0.6384  0.8462
  359MOL0     H48404  -0.161   0.593   6.157  0.4112  3.5835  3.9410
  359MOL0     H48405  -0.030   0.612   6.038  0.7196 -1.9108 -0.8959
  359MOL0     H48406  -0.001   0.700   6.331 -1.0119  0.7684  0.7495
  359MOL0     H48407   0.083   0.761   6.184 -0.8834  0.8616 -0.1893
  359MOL0     H48408  -0.147   0.859   6.105  1.0369 -2.5988 -0.1595
  359MOL0     H48409  -0.211   0.807   6.254 -1.9613 -2.1154 -3.6953
  359MOL0     H48410  -0.001   0.974   6.349 -0.1442 -2.6262  0.0384
  359MOL0     H48411  -0.014   1.027   6.180 -0.1714 -3.1516 -1.5599
  359MOL0     H48412  -0.134   1.187   6.328 -2.9242  1.2766 -1.0999
  359MOL0     H48413  -0.240   1.042   6.374 -1.0928 -1.6471 -2.3538
  359MOL0     H48414  -0.219   1.126   6.095  3.0723 -0.7863  0.2624
  359MOL0     H48415  -0.337   1.034   6.165 -2.8676  1.8667  0.8112
  359MOL0     H48416  -0.226   1.360   6.058  0.2531 -0.0965 -0.3171
  359MOL0     H48417  -0.487   1.630   6.176  0.7340 -1.1543  0.7206
  359MOL0     H48418  -0.326   1.644   6.240  0.3923 -0.5202  1.9108
  359MOL0     H48419  -0.227   1.626   6.012  0.1854  2.0400 -0.0658
  359MOL0     H48420  -0.380   1.570   5.950 -2.5400 -1.2890  0.7813
  359MOL0     H48421  -0.440   1.824   6.058  0.7386  1.1506  0.5932
  359MOL0     H48422  -0.348   1.810   5.901  4.0312  2.4370  0.4092
  359MOL0     H48423  -0.150   1.830   6.061  0.1859  1.8950  0.3180
  359MOL0     H48424  -0.276   1.859   6.186 -0.2597  0.0536 -0.0280
  359MOL0     H48425  -0.086   1.953   5.853 -3.4715  1.7095  1.2341
  359MOL0     H48426   0.144   2.040   5.841 -0.7010 -0.9985  0.5014
  359MOL0     H48427   0.383   2.471   5.884  0.3039  0.1151 -2.5521
  359MOL0     H48428   0.594   2.596   5.878  1.6008  2.7629  3.2578
  359MOL0     H48429   0.846   2.424   5.913 -2.8623  1.6478  0.2643
  359MOL0     H48430   0.848   2.592   5.855 -0.7141 -1.8252 -1.4576
  359MOL0     H48431   1.081   2.552   5.885  1.4028  0.7258  0.8796
  359MOL0     H48432   1.055   2.629   6.048 -0.5735  2.0285 -2.0221
  359MOL0     H48433   1.018   2.409   6.138  0.5111  3.3968  1.8975
  359MOL0     H48434   1.068   2.328   5.982  1.0900  0.6671  0.2891
  359MOL0     H48435   1.252   2.498   6.152 -2.1068  0.5021  1.5664
  359MOL0     H48436   1.294   2.400   6.007 -0.0471  0.4177  0.3492
  359MOL0     H48437   1.245   2.196   6.088 -0.0474 -1.6392  0.0673
  359MOL0     H48438   1.179   2.260   6.236 -1.6368  1.2807 -2.3031
  359MOL0     H48439   1.453   2.240   6.124  0.1161  0.1348  0.5561
  359MOL0     H48440   1.426   2.368   6.243  2.8906  0.7921 -0.1128
  359MOL0     H48441   1.488   2.079   6.253  1.1050  0.5674  0.2574
  359MOL0     H48442   1.344   2.103   6.359  0.6513 -0.3569  0.7386
  359MOL0     H48443   1.497   2.291   6.468  0.4951 -0.1227 -0.9796
  359MOL0     H48444   1.541   2.119   6.494 -1.6030 -0.2502 -0.3357
  359MOL0     H48445   0.726   2.404   6.226 -2.5524  0.2868  2.9306
  359MOL0     H48446   0.510   2.273   6.241  3.2864 -0.1330 -0.2591
  359MOL0     H48447   0.068   2.288   6.191 -0.3146 -0.4035  1.0027
  359MOL0     H48448  -0.134   2.150   6.223 -0.3193  1.7272 -1.1617
  359MOL0     H48449   0.072   0.405   6.511 -0.8346 -1.5448  2.8138
  359MOL0     H48450   0.171   0.364   6.725 -1.2974 -2.0413 -0.3730
  359MOL0     H48451   0.618   0.302   6.881  0.0555  0.4600  0.7354
  359MOL0     H48452   0.785   0.304   7.062  0.0512 -0.2287 -1.1401
  359MOL0     H48453   0.732  -0.005   7.382 -0.6541  0.0180  0.7357
  359MOL0     H48454   0.629   0.126   7.441  0.4910  1.6388  0.2053
  359MOL0     H48455   0.833   0.054   7.589 -0.2676  1.4076  1.5611
  359MOL0     H48456   0.806   0.223   7.575  1.4003 -0.0225  1.8152
  359MOL0     H48457   0.981   0.201   7.382  1.3683  1.6463  1.7279
  359MOL0     H48458   0.981   0.024   7.405  1.4277 -1.2427  1.7763
  359MOL0     H48459   1.197   0.120   7.497  0.7718  0.4463  1.1838
  359MOL0     H48460   1.098   0.210   7.618 -0.0052 -1.4692  1.6528
  359MOL0     H48461   1.109  -0.170   7.786  1.1988  1.8213  1.4435
  359MOL0     H48462   0.542   0.009   7.267 -0.0521  1.4130  1.1430
  359MOL0     H48463   0.246   0.034   7.098 -0.9294 -1.8203  1.8561
  359MOL0     H48464   0.331  -0.092   7.011  0.1607  0.7254 -0.5538
  359MOL0     H48465   0.343  -0.081   7.181 -3.4405 -0.3265  0.7066
  360MOL0     O48466   6.241   5.579   4.737 -0.3525 -0.4562 -0.8023
  360MOL0     C48467   6.198   5.486   4.669 -0.2811 -0.5681  0.0920
  360MOL0     O48468   6.200   5.488   4.525  0.5197  0.4013 -0.5857
  360MOL0     C48469   6.254   5.595   4.458  1.0838 -0.6166  0.1292
  360MOL0     C48470   6.239   5.734   4.500 -0.7753  0.3185 -0.3357
  360MOL0     C48471   6.300   5.834   4.429  0.4461 -0.2909  0.2870
  360MOL0     C48472   6.360   5.812   4.301  0.1823  0.2093 -0.9810
  360MOL0     O48473   6.417   5.916   4.228 -0.1426  0.6759  0.0804
  360MOL0     C48474   6.392   6.051   4.274  0.0766 -0.4185 -0.1762
  360MOL0     C48475   6.451   6.168   4.185  0.8429  0.6020 -0.1404
  360MOL0     C48476   6.400   6.310   4.219  0.5077  0.9355 -0.3834
  360MOL0     C48477   6.458   6.418   4.135 -0.0546  1.6752  0.1965
  360MOL0     C48478   6.368   6.536   4.124  0.0864  0.6411  0.3203
  360MOL0     C48479   6.354   6.619   4.259 -0.3207  0.2893  0.7941
  360MOL0     C48480   6.264   6.743   4.246 -0.8975  0.2677 -0.0809
  360MOL0     C48481   6.228   6.795   4.384 -0.5856  0.2805 -0.3799
  360MOL0     N48482   6.116   6.887   4.382  0.3504  0.1299 -0.2002
  360MOL0     C48483   5.982   6.847   4.371  0.5676 -0.2265 -0.1367
  360MOL0     C48484   5.908   6.964   4.380  0.2528  0.2766 -0.0916
  360MOL0     C48485   5.756   6.988   4.350  0.8067  0.0029  0.1109
  360MOL0     C48486   5.673   6.921   4.450 -0.5415  0.7249  0.5144
  360MOL0     C48487   5.526   6.960   4.464  0.5017  0.1338  0.4262
  360MOL0     C48488   5.477   6.916   4.608  0.1898  0.2680  0.0476
  360MOL0     O48489   5.521   6.785   4.639  0.1491 -0.3142 -0.1630
  360MOL0     C48490   5.461   6.730   4.751  1.1723 -0.1936 -0.4813
  360MOL0     C48491   5.394   6.794   4.847  1.1682 -0.1736 -1.5214
  360MOL0     C48492   5.320   6.718   4.946  0.0726  0.5329  1.1404
  360MOL0     C48493   5.329   6.572   4.944  0.6931 -0.4087 -1.7316
  360MOL0     C48494   5.256   6.491   5.045 -0.2044  0.5747  0.4417
  360MOL0     O48495   5.231   6.358   5.011  0.3075 -0.4684 -0.4413
  360MOL0     C48496   5.163   6.271   5.094 -0.0143 -0.6517 -0.0362
  360MOL0     C48497   5.162   6.265   5.242 -0.2908 -0.5947 -0.4106
  360MOL0     C48498   5.087   6.178   5.313  0.6576 -0.2229  0.2298
  360MOL0     C48499   5.004   6.082   5.240  0.0930 -0.4688 -0.9346
  360MOL0     O48500   4.907   6.007   5.310  0.0497  0.6837  0.5161
  360MOL0     C48501   4.953   5.862   5.325 -0.1135  0.0659  1.0606
  360MOL0     C48502   4.869   5.802   5.443 -0.1141 -0.2862  0.1489
  360MOL0     C48503   4.932   5.666   5.488  0.1342 -0.4743 -0.6626
  360MOL0     C48504   4.832   5.596   5.585 -0.5644  0.6277  1.7670
  360MOL0     C48505   4.851   5.447   5.607 -0.7550 -0.1452 -0.6122
  360MOL0     C48506   4.750   5.391   5.702 -0.1127 -0.3503 -0.2946
  360MOL0     C48507   4.775   5.431   5.852 -0.3156 -0.1358 -0.0095
  360MOL0     C48508   4.670   5.375   5.943 -1.0493 -0.1115  0.2345
  360MOL0    Cl48509   4.675   5.199   5.952 -0.1763 -0.0557 -0.2753
  360MOL0     C48510   5.002   6.091   5.102 -1.1833  1.2759  0.4653
  360MOL0     C48511   5.087   6.178   5.035 -0.0018 -0.3393 -0.0869
  360MOL0     O48512   5.210   6.542   5.148 -0.2339  0.6654 -0.1260
  360MOL0     C48513   5.400   6.513   4.842  0.0731  0.0230 -0.8973
  360MOL0     C48514   5.467   6.593   4.754  0.9227  0.7775  0.6514
  360MOL0     N48515   6.001   7.071   4.380 -0.5495  0.3450  0.3152
  360MOL0     N48516   6.117   7.022   4.389  0.6332  0.0638 -0.9518
  360MOL0     C48517   6.356   5.689   4.250 -0.0308  1.0797 -0.6549
  360MOL0     C48518   6.290   5.583   4.324  0.0199 -0.4411  0.8931
  360MOL0     C48519   6.159   5.359   4.738  0.3521 -1.0948  0.3465
  360MOL0     C48520   6.112   5.253   4.655  1.1523 -1.1388 -0.1357
  360MOL0     C48521   6.091   5.124   4.709  0.4249  0.3652  0.1735
  360MOL0     C48522   6.120   5.095   4.837 -0.3400 -0.2436 -0.2094
  360MOL0     O48523   6.103   4.972   4.883 -0.0891 -0.2079  0.5305
  360MOL0     C48524   5.973   4.922   4.909 -0.1537 -0.5845  0.5763
  360MOL0     C48525   5.915   4.972   5.040  0.6726 -0.0078  0.7481
  360MOL0     C48526   6.013   4.943   5.153 -0.2194  0.2408 -0.6139
  360MOL0     C48527   5.940   4.877   5.260  1.3208  1.3305 -0.5636
  360MOL0     C48528   5.886   4.740   5.221  0.1560  1.0501  0.8956
  360MOL0     C48529   5.841   4.621   5.190 -0.5951  0.4917 -0.4575
  360MOL0     C48530   6.191   5.195   4.909  0.5335 -0.1658 -0.1257
  360MOL0     C48531   6.199   5.322   4.866 -0.5847 -0.7760 -0.1609
  360MOL0     C48532   6.262   5.422   4.970 -0.6237  0.3998 -0.8105
  360MOL0     H48533   6.180   5.758   4.588 -0.2768 -1.9390  0.6976
  360MOL0     H48534   6.289   5.931   4.476 -4.1368 -0.9623  1.0163
  360MOL0     H48535   6.285   6.068   4.290  0.4274 -0.2202  2.3439
  360MOL0     H48536   6.440   6.055   4.372 -0.8822 -1.0631  0.3303
  360MOL0     H48537   6.420   6.151   4.081 -0.2000 -0.4090  0.3131
  360MOL0     H48538   6.559   6.160   4.198  0.6482 -3.4887  0.2139
  360MOL0     H48539   6.441   6.323   4.319 -0.2080 -4.5215  0.9652
  360MOL0     H48540   6.292   6.315   4.238  0.5238  1.1862 -0.3471
  360MOL0     H48541   6.554   6.460   4.167  0.2328  2.2613 -1.3461
  360MOL0     H48542   6.477   6.368   4.039  0.9122 -0.7129  1.5341
  360MOL0     H48543   6.408   6.605   4.049  1.9638 -0.4724  0.2446
  360MOL0     H48544   6.272   6.497   4.090  0.9507 -1.8639  0.5509
  360MOL0     H48545   6.324   6.544   4.332  3.3479 -2.9164 -0.6249
  360MOL0     H48546   6.453   6.648   4.297 -0.0937 -1.4698  1.6248
  360MOL0     H48547   6.176   6.726   4.184 -0.1565  0.7571 -1.3089
  360MOL0     H48548   6.328   6.821   4.202 -1.1756  0.0980 -0.8082
  360MOL0     H48549   6.211   6.708   4.447  3.9328  1.7839  3.4219
  360MOL0     H48550   6.319   6.844   4.418  0.2667 -4.0200  4.7862
  360MOL0     H48551   5.948   6.746   4.352  0.5841 -0.4488  0.9057
  360MOL0     H48552   5.736   7.093   4.369 -2.9405 -0.4015 -0.8838
  360MOL0     H48553   5.736   6.963   4.245  1.7721 -2.6511  0.4580
  360MOL0     H48554   5.675   6.813   4.435  1.1021  0.4297  2.4846
  360MOL0     H48555   5.729   6.946   4.541  2.9028  0.6858 -1.4051
  360MOL0     H48556   5.468   6.903   4.391 -0.9896  2.1428 -0.0508
  360MOL0     H48557   5.504   7.066   4.452  0.5568  0.0545 -0.4000
  360MOL0     H48558   5.368   6.914   4.622 -0.2318 -1.8138 -2.6501
  360MOL0     H48559   5.529   6.985   4.674  0.3333 -1.5446  1.9083
  360MOL0     H48560   5.389   6.901   4.862  2.1996 -0.1993 -0.9081
  360MOL0     H48561   5.264   6.762   5.028 -0.9606  1.0768  0.1733
  360MOL0     H48562   5.205   6.342   5.306  0.6713 -1.8766  0.5424
  360MOL0     H48563   5.081   6.192   5.420 -1.1846  1.3437 -0.0148
  360MOL0     H48564   4.946   5.816   5.226  3.2732  1.0437  0.2467
  360MOL0     H48565   5.058   5.865   5.355 -0.1519  0.3178  1.1737
  360MOL0     H48566   4.865   5.868   5.530 -4.5608 -2.9388  2.2909
  360MOL0     H48567   4.767   5.788   5.408 -0.5567  2.9277 -0.1608
  360MOL0     H48568   4.954   5.604   5.401  1.6491  0.8476 -1.3005
  360MOL0     H48569   5.024   5.686   5.545 -1.3982 -0.1891  1.8236
  360MOL0     H48570   4.731   5.599   5.543  0.4078  0.7401 -0.6879
  360MOL0     H48571   4.829   5.640   5.685 -0.1288 -2.6009  3.3170
  360MOL0     H48572   4.950   5.426   5.649 -0.9995  3.0698  2.0415
  360MOL0     H48573   4.839   5.384   5.518  2.0383 -2.5902  0.5811
  360MOL0     H48574   4.655   5.440   5.675  1.0175  0.3833 -3.3174
  360MOL0     H48575   4.738   5.285   5.680 -0.1598 -0.1227 -1.4890
  360MOL0     H48576   4.790   5.538   5.864 -2.4859  0.6390 -2.9076
  360MOL0     H48577   4.872   5.398   5.892 -1.5423 -2.8006  1.0107
  360MOL0     H48578   4.675   5.411   6.046 -0.3628 -1.8490  0.8517
  360MOL0     H48579   4.574   5.408   5.904 -2.3224 -4.1708 -0.5505
  360MOL0     H48580   4.947   6.021   5.041  0.0362  3.7799 -3.9548
  360MOL0     H48581   5.085   6.158   4.928  3.0168 -1.9173  0.0561
  360MOL0     H48582   5.427   6.409   4.860 -1.8989 -0.2409  0.9498
  360MOL0     H48583   5.538   6.554   4.682 -0.5917 -0.3528 -0.2700
  360MOL0     H48584   6.377   5.653   4.150  2.9957  0.0770  0.2162
  360MOL0     H48585   6.293   5.487   4.273 -0.9521 -1.6999  3.0833
  360MOL0     H48586   6.088   5.249   4.549  1.3314 -0.2745 -0.2162
  360MOL0     H48587   6.057   5.050   4.637  1.6831  0.9297 -1.0680
  360MOL0     H48588   5.978   4.813   4.914 -0.2019 -0.8427 -2.7438
  360MOL0     H48589   5.902   4.951   4.830  0.0901  2.2152  1.2814
  360MOL0     H48590   5.815   4.931   5.056 -0.1085  1.7308  0.4560
  360MOL0     H48591   5.906   5.081   5.042 -0.0216 -0.0640  0.9685
  360MOL0     H48592   6.052   5.038   5.193  1.1781 -0.4842 -0.1792
  360MOL0     H48593   6.097   4.880   5.124 -0.3239 -0.6168  0.8329
  360MOL0     H48594   6.012   4.843   5.335  2.5089 -0.7174 -2.4616
  360MOL0     H48595   5.871   4.946   5.308 -1.4118  0.9809 -3.5985
  360MOL0     H48596   5.800   4.523   5.173 -2.6969  1.3857 -0.9260
  360MOL0     H48597   6.238   5.166   5.003  1.8394 -3.0905 -1.5437
  360MOL0     H48598   6.204   5.515   4.978  0.2278  1.0488 -1.9405
  360MOL0     H48599   6.265   5.379   5.071 -0.0635  0.5502 -0.7587
  360MOL0     H48600   6.366   5.446   4.948 -0.5381 -0.2466 -1.1357
  361MOL0     O48601   7.510   8.672   6.920 -0.1145 -0.5123 -0.2068
  361MOL0     C48602   7.502   8.694   7.046  0.3192  0.2137  0.1718
  361MOL0     O48603   7.464   8.805   7.104  0.8290  0.3633  0.1895
  361MOL0     C48604   7.476   8.917   7.027 -0.7124 -0.8365  0.7792
  361MOL0     C48605   7.555   9.019   7.083  0.4854 -0.0497 -0.2848
  361MOL0     C48606   7.560   9.145   7.015 -0.6973 -0.6260  0.7088
  361MOL0     C48607   7.484   9.167   6.897 -0.2564  0.1580  0.1214
  361MOL0     O48608   7.480   9.279   6.815 -0.1620 -0.8940  0.2973
  361MOL0     C48609   7.569   9.390   6.825  0.2209  0.9007  1.0396
  361MOL0     C48610   7.532   9.511   6.729  0.8824  0.1707 -0.3786
  361MOL0     C48611   7.629   9.631   6.744 -0.4049  0.0134  0.6038
  361MOL0     C48612   7.780   9.605   6.705 -0.8802  0.5464 -0.3122
  361MOL0     C48613   7.866   9.718   6.759 -0.3802  0.3400 -0.0418
  361MOL0     C48614   7.828   9.847   6.686 -0.1218  1.0899  0.8487
  361MOL0     C48615   7.946   9.932   6.715  0.0319 -0.0059 -0.0901
  361MOL0     C48616   7.920  10.077   6.662  0.2099 -0.5865 -0.5724
  361MOL0     N48617   8.038  10.159   6.686 -0.4552  0.1506  0.1855
  361MOL0     C48618   8.146  10.148   6.616 -0.6930 -0.0180  0.3032
  361MOL0     C48619   8.236  10.231   6.672 -1.2264  0.3275 -0.6975
  361MOL0     C48620   8.378  10.249   6.642 -0.0276  0.7115  0.4001
  361MOL0     C48621   8.424  10.384   6.575 -1.0729 -0.1173  0.9733
  361MOL0     C48622   8.338  10.420   6.449 -0.0857 -0.7571  0.2479
  361MOL0     C48623   8.397  10.552   6.389  0.5203 -0.6578  0.5662
  361MOL0     O48624   8.532  10.542   6.339 -0.3431  0.7985 -1.0012
  361MOL0     C48625   8.548  10.560   6.208  0.9531  0.2467 -0.2343
  361MOL0     C48626   8.640  10.648   6.162 -0.5720 -0.6452  0.4236
  361MOL0     C48627   8.668  10.676   6.022  0.5565  0.7115 -0.3591
  361MOL0     C48628   8.587  10.606   5.925 -0.6012 -0.7507 -0.3493
  361MOL0     C48629   8.607  10.636   5.780  0.4913 -0.5635 -0.3355
  361MOL0     O48630   8.507  10.617   5.687  0.7362  0.8019 -0.0472
  361MOL0     C48631   8.556  10.637   5.560  0.4362 -0.2407 -0.1152
  361MOL0     C48632   8.562  10.764   5.507  0.2119 -0.5149  0.0413
  361MOL0     C48633   8.606  10.783   5.373 -0.0637 -0.3537 -0.4522
  361MOL0     C48634   8.646  10.679   5.291 -1.1619 -0.6720  0.0585
  361MOL0     O48635   8.687  10.700   5.163 -0.1663 -0.3485 -0.4193
  361MOL0     C48636   8.818  10.652   5.117  0.5546 -0.6383 -0.1751
  361MOL0     C48637   8.914  10.757   5.060 -0.0350  0.4249 -1.1133
  361MOL0     C48638   8.972  10.837   5.186 -0.7914  0.3688  0.4231
  361MOL0     C48639   9.097  10.922   5.151 -0.3879 -0.0831 -0.6396
  361MOL0     C48640   9.198  10.925   5.267 -0.3776 -0.4938  0.3246
  361MOL0     C48641   9.150  11.008   5.383  0.0375 -0.1465  0.2855
  361MOL0     C48642   9.244  11.000   5.504  0.1050 -0.5977  0.6737
  361MOL0     C48643   9.383  11.072   5.490  0.6235 -0.2797 -0.6454
  361MOL0    Cl48644   9.520  10.970   5.438  0.0876 -0.0834 -0.1273
  361MOL0     C48645   8.645  10.548   5.341  0.1144 -0.3672 -0.7581
  361MOL0     C48646   8.593  10.532   5.472  0.8691  0.0873  0.1990
  361MOL0     O48647   8.717  10.678   5.760  0.0315 -0.0988  0.3115
  361MOL0     C48648   8.490  10.507   5.972  0.5916 -0.4916 -0.1111
  361MOL0     C48649   8.470  10.482   6.115  0.0079 -0.6928  0.2040
  361MOL0     N48650   8.171  10.297   6.770  0.3657 -0.2879  0.3622
  361MOL0     N48651   8.050  10.260   6.766  0.2135 -0.6551 -0.6918
  361MOL0     C48652   7.397   9.068   6.845  0.2552 -0.7523 -0.5237
  361MOL0     C48653   7.395   8.941   6.910  0.6532 -0.5572 -0.7646
  361MOL0     C48654   7.535   8.587   7.132  0.3791  0.3490  0.2119
  361MOL0     C48655   7.488   8.579   7.259  0.1724  0.2931 -0.2474
  361MOL0     C48656   7.509   8.470   7.344  0.2417 -0.0416  0.2336
  361MOL0     C48657   7.579   8.366   7.290 -0.0714  0.8420 -0.5507
  361MOL0     O48658   7.604   8.251   7.361 -0.2024  0.4393  0.0987
  361MOL0     C48659   7.535   8.204   7.484  0.1347  0.5697  0.1916
  361MOL0     C48660   7.600   8.255   7.611 -0.4932 -0.4181  0.4260
  361MOL0     C48661   7.518   8.227   7.741  0.0603 -0.5549 -0.6080
  361MOL0     C48662   7.603   8.248   7.869  0.4183 -0.4651 -0.7174
  361MOL0     C48663   7.512   8.262   7.984 -0.4158  0.4199 -0.5845
  361MOL0     C48664   7.430   8.269   8.075 -0.3798  0.5176 -0.1396
  361MOL0     C48665   7.637   8.371   7.164  0.1656 -0.1918 -0.0019
  361MOL0     C48666   7.621   8.482   7.080 -0.0851 -0.0551 -0.4742
  361MOL0     C48667   7.686   8.480   6.941  1.5687  0.4775  0.2155
  361MOL0     H48668   7.610   8.996   7.174  0.3883 -1.4442 -0.5538
  361MOL0     H48669   7.619   9.230   7.047  1.7119 -1.7592 -0.4694
  361MOL0     H48670   7.557   9.422   6.929  1.0628 -3.6292  2.7838
  361MOL0     H48671   7.669   9.356   6.795 -0.6091  0.7891 -1.9129
  361MOL0     H48672   7.428   9.535   6.755  0.9465  1.1926 -0.9902
  361MOL0     H48673   7.526   9.475   6.626 -0.1159  0.3848 -0.4052
  361MOL0     H48674   7.615   9.665   6.847  1.3460 -1.1531  1.2722
  361MOL0     H48675   7.603   9.707   6.670  2.1692  0.3547 -0.0679
  361MOL0     H48676   7.811   9.521   6.767 -1.7929 -0.1250 -0.7301
  361MOL0     H48677   7.781   9.588   6.596  0.9880 -1.8066  0.0059
  361MOL0     H48678   7.851   9.732   6.866 -1.2920  0.3787 -0.1704
  361MOL0     H48679   7.970   9.685   6.752 -0.3146  0.7493 -1.0948
  361MOL0     H48680   7.807   9.837   6.579 -3.8355  0.7404  1.4582
  361MOL0     H48681   7.742   9.897   6.733 -2.1520 -2.0790  0.7801
  361MOL0     H48682   8.038   9.883   6.679  0.0943  0.3202 -0.3767
  361MOL0     H48683   7.950   9.947   6.823 -0.0251 -0.4942 -0.0150
  361MOL0     H48684   7.904  10.085   6.554  1.1606 -1.6037 -0.8072
  361MOL0     H48685   7.826  10.115   6.705 -0.2574 -2.8247  0.5536
  361MOL0     H48686   8.165  10.081   6.533  2.3621 -1.3040  1.8605
  361MOL0     H48687   8.422  10.245   6.742  0.4631  0.4486  0.1799
  361MOL0     H48688   8.410  10.166   6.577 -0.1137  0.0203  1.2170
  361MOL0     H48689   8.415  10.464   6.649 -1.5692 -0.7933  1.6593
  361MOL0     H48690   8.531  10.366   6.567 -0.5430  2.7806  0.1265
  361MOL0     H48691   8.235  10.435   6.482  0.5034 -0.0049  1.8798
  361MOL0     H48692   8.337  10.345   6.369 -1.2025 -0.5185  0.0205
  361MOL0     H48693   8.387  10.630   6.465 -1.8762 -0.2404 -0.0893
  361MOL0     H48694   8.329  10.573   6.305  0.7360  1.2344  0.8137
  361MOL0     H48695   8.712  10.683   6.236  0.7304 -5.6146  1.8596
  361MOL0     H48696   8.754  10.729   5.981 -0.0270  0.0106 -2.6200
  361MOL0     H48697   8.534  10.849   5.569 -0.4896 -0.5722 -0.1856
  361MOL0     H48698   8.603  10.885   5.335 -2.1115 -0.8268 -1.6742
  361MOL0     H48699   8.868  10.594   5.196  1.0690  2.7988  2.2465
  361MOL0     H48700   8.793  10.594   5.028  1.8214 -1.1240 -0.2290
  361MOL0     H48701   9.007  10.713   5.023  0.6430  0.1700  0.7891
  361MOL0     H48702   8.848  10.819   4.998 -0.4507  2.2774  1.0549
  361MOL0     H48703   8.896  10.902   5.230  1.4033  3.4812 -0.0585
  361MOL0     H48704   9.007  10.766   5.261  1.5810  0.5047 -0.4572
  361MOL0     H48705   9.062  11.025   5.143 -1.4016 -0.3919 -0.3036
  361MOL0     H48706   9.147  10.888   5.060  0.2771  2.0184 -1.1347
  361MOL0     H48707   9.294  10.972   5.243 -0.4281 -0.3136  0.4792
  361MOL0     H48708   9.211  10.823   5.304 -3.2491 -1.4012 -0.8702
  361MOL0     H48709   9.142  11.112   5.350  1.6580  0.3752  1.3974
  361MOL0     H48710   9.046  10.987   5.407  0.9836 -0.4629  5.0067
  361MOL0     H48711   9.262  10.893   5.520  1.3661 -0.2595  1.7134
  361MOL0     H48712   9.207  11.037   5.600  0.6528 -1.2933  1.1669
  361MOL0     H48713   9.378  11.165   5.431  0.7806  1.0221  1.3031
  361MOL0     H48714   9.424  11.121   5.579  1.3295 -0.9903 -0.5692
  361MOL0     H48715   8.677  10.462   5.283 -1.4506 -1.5875  0.0944
  361MOL0     H48716   8.586  10.428   5.502  1.5871  0.2320  0.8996
  361MOL0     H48717   8.432  10.448   5.901 -0.8578  0.1251  0.5148
  361MOL0     H48718   8.395  10.411   6.147  0.4034 -2.4448 -2.4739
  361MOL0     H48719   7.326   9.093   6.767 -0.6353  0.0063  0.5157
  361MOL0     H48720   7.331   8.857   6.889  1.6204 -1.1141 -1.5846
  361MOL0     H48721   7.412   8.646   7.297 -1.1383  0.3307 -2.7530
  361MOL0     H48722   7.475   8.465   7.447  0.6729 -0.1914  0.3709
  361MOL0     H48723   7.533   8.095   7.492  3.0295  0.5229  2.6155
  361MOL0     H48724   7.431   8.237   7.476 -1.7909 -4.6158  0.5222
  361MOL0     H48725   7.614   8.363   7.604  0.1376 -0.5702 -1.0329
  361MOL0     H48726   7.695   8.200   7.614  0.7993  1.6834 -0.1835
  361MOL0     H48727   7.468   8.129   7.736 -1.0143 -0.1150  0.8749
  361MOL0     H48728   7.443   8.306   7.734  3.4419  2.7913 -2.4042
  361MOL0     H48729   7.670   8.163   7.879 -0.3879 -0.8952  1.4126
  361MOL0     H48730   7.669   8.336   7.868  0.4416 -0.4584  0.6338
  361MOL0     H48731   7.370   8.276   8.163 -2.9822  0.6312 -1.8082
  361MOL0     H48732   7.708   8.296   7.131  4.0419  3.2102 -0.1323
  361MOL0     H48733   7.624   8.425   6.869  0.9054 -0.1538  1.2524
  361MOL0     H48734   7.712   8.583   6.915  0.0074  0.2753 -2.4525
  361MOL0     H48735   7.781   8.425   6.948  0.8303 -1.1956 -1.6676
  362MOL0     O48736   4.910   5.654  10.196  0.2738 -0.6990 -0.2007
  362MOL0     C48737   4.941   5.617  10.309  0.4714  0.3335 -0.4837
  362MOL0     O48738   4.856   5.543  10.391  0.8267  0.5920 -0.0619
  362MOL0     C48739   4.769   5.464  10.324 -0.0223 -0.4946 -0.2335
  362MOL0     C48740   4.816   5.365  10.237  0.5900 -0.5663  0.4758
  362MOL0     C48741   4.734   5.279  10.165  0.3503 -0.6467 -0.3301
  362MOL0     C48742   4.596   5.297  10.169  0.1754  1.0340 -0.4256
  362MOL0     O48743   4.508   5.209  10.117  0.6328  0.0491  0.4759
  362MOL0     C48744   4.532   5.068  10.133  0.2815 -0.2315  1.3876
  362MOL0     C48745   4.392   5.010  10.099  0.1797 -0.1093 -0.3618
  362MOL0     C48746   4.394   4.861  10.108  0.3867  0.3183 -0.1095
  362MOL0     C48747   4.261   4.787  10.073  0.4658 -0.3468  0.5335
  362MOL0     C48748   4.288   4.639  10.057  0.1236  0.0971 -0.7843
  362MOL0     C48749   4.166   4.554  10.038  0.4936  0.3935 -0.0226
  362MOL0     C48750   4.095   4.589   9.914 -0.5774 -0.5850 -0.7205
  362MOL0     C48751   3.988   4.485   9.877 -0.2871  0.4066 -0.4132
  362MOL0     N48752   3.868   4.497   9.957  0.4299 -0.5014 -0.5188
  362MOL0     C48753   3.751   4.554   9.918  0.1254 -0.5180 -0.3322
  362MOL0     C48754   3.667   4.575  10.026 -0.5928  0.8933  0.3193
  362MOL0     C48755   3.528   4.613  10.021  0.7922 -0.7844 -0.0413
  362MOL0     C48756   3.410   4.516  10.007  0.2122 -0.8264 -0.5347
  362MOL0     C48757   3.419   4.447   9.875  0.4056 -0.8460 -1.1453
  362MOL0     C48758   3.308   4.340   9.856  0.0624  0.2641 -0.7286
  362MOL0     O48759   3.290   4.288   9.718 -0.3649 -0.4926  1.2653
  362MOL0     C48760   3.351   4.169   9.679 -0.6742  0.3529  0.5051
  362MOL0     C48761   3.465   4.121   9.736 -1.2160 -0.3495 -0.5051
  362MOL0     C48762   3.515   3.993   9.706 -0.2887 -0.2677 -0.5666
  362MOL0     C48763   3.441   3.902   9.632 -0.0624  0.0902 -0.7961
  362MOL0     C48764   3.478   3.758   9.638  0.3161 -0.2784  0.4186
  362MOL0     O48765   3.406   3.669   9.546 -0.0641  0.0605  0.2525
  362MOL0     C48766   3.422   3.529   9.548 -0.0468  0.0422 -0.5654
  362MOL0     C48767   3.308   3.456   9.586 -0.1915  0.3039  0.1686
  362MOL0     C48768   3.315   3.313   9.595 -0.3657 -0.1065  0.7835
  362MOL0     C48769   3.432   3.253   9.556 -0.8989  0.5285 -0.9765
  362MOL0     O48770   3.470   3.122   9.591  0.4278  0.4324  0.5814
  362MOL0     C48771   3.359   3.034   9.580  0.1107 -0.0893 -0.2779
  362MOL0     C48772   3.414   2.887   9.581  0.9080 -0.4068  0.1879
  362MOL0     C48773   3.514   2.860   9.466  0.2703 -0.7085 -0.1663
  362MOL0     C48774   3.454   2.872   9.323  0.2087  0.1417 -0.9046
  362MOL0     C48775   3.506   3.004   9.251  0.4672  0.2150  0.2854
  362MOL0     C48776   3.657   2.981   9.210  0.5904  0.9986 -0.5677
  362MOL0     C48777   3.645   2.904   9.085 -0.8285 -0.6212  0.3555
  362MOL0     C48778   3.784   2.855   9.048  0.2121  0.3474 -0.0454
  362MOL0    Cl48779   3.763   2.797   8.884  0.4908 -0.3869  0.3152
  362MOL0     C48780   3.541   3.332   9.512  0.4650 -0.1657  0.6349
  362MOL0     C48781   3.537   3.468   9.506 -0.5142  0.1034  0.8979
  362MOL0     O48782   3.557   3.727   9.723 -0.1139 -0.3399  0.4276
  362MOL0     C48783   3.326   3.946   9.566 -0.4180  0.5527  0.2580
  362MOL0     C48784   3.278   4.077   9.594  0.2355  0.8990 -0.3507
  362MOL0     N48785   3.744   4.525  10.135  0.1264  0.1333 -0.1661
  362MOL0     N48786   3.851   4.469  10.092  0.6590  0.1973  0.0185
  362MOL0     C48787   4.546   5.399  10.250  0.0223  0.5738 -0.2349
  362MOL0     C48788   4.629   5.480  10.332 -0.0169  0.3591  0.0922
  362MOL0     C48789   5.071   5.660  10.375  0.3493 -0.0088 -0.4127
  362MOL0     C48790   5.089   5.622  10.510 -0.5009 -0.4120 -0.1723
  362MOL0     C48791   5.207   5.665  10.570  0.2470 -0.8657  1.1491
  362MOL0     C48792   5.311   5.732  10.503  0.0948 -0.9573 -0.4617
  362MOL0     O48793   5.430   5.767  10.572  0.9510 -0.3330 -0.0005
  362MOL0     C48794   5.507   5.650  10.606 -0.5947 -0.6889  0.5206
  362MOL0     C48795   5.584   5.581  10.482 -0.6718  0.0233  0.0427
  362MOL0     C48796   5.604   5.428  10.513 -0.4300 -0.4710  0.1453
  362MOL0     C48797   5.694   5.387  10.389  0.4636  0.8637 -0.4606
  362MOL0     C48798   5.841   5.395  10.418 -0.8538 -0.6291 -0.3299
  362MOL0     C48799   5.961   5.389  10.417 -0.6836 -0.9540  0.2512
  362MOL0     C48800   5.280   5.774  10.371 -0.9092 -1.2577 -1.1973
  362MOL0     C48801   5.168   5.744  10.303  0.5080  0.8841 -0.2700
  362MOL0     C48802   5.152   5.789  10.156 -0.0501 -0.2003 -0.5203
  362MOL0     H48803   4.923   5.345  10.246  0.9481  1.4585  1.2024
  362MOL0     H48804   4.776   5.186  10.130  0.7496 -0.1156 -1.3081
  362MOL0     H48805   4.610   5.022  10.071 -1.4320 -1.1451 -0.1706
  362MOL0     H48806   4.562   5.034  10.233  0.0967  0.7407  1.7852
  362MOL0     H48807   4.357   5.035   9.998 -4.4738 -2.9627  0.2455
  362MOL0     H48808   4.314   5.039  10.171  1.6054  0.6712  0.9223
  362MOL0     H48809   4.429   4.828  10.206  0.6004  0.7400 -0.0434
  362MOL0     H48810   4.468   4.819  10.040  0.2144  0.0746 -0.1487
  362MOL0     H48811   4.194   4.814  10.155  2.3907 -0.7311  2.2908
  362MOL0     H48812   4.222   4.825   9.978 -2.6547  2.8841  2.8078
  362MOL0     H48813   4.350   4.631   9.967  2.1660 -2.5071  0.6953
  362MOL0     H48814   4.328   4.612  10.156 -0.8165  1.6479  0.0672
  362MOL0     H48815   4.191   4.449  10.025 -0.5199  0.0937  0.3656
  362MOL0     H48816   4.107   4.557  10.130 -1.3576 -1.8398 -1.0425
  362MOL0     H48817   4.170   4.592   9.835 -0.3811  0.9230 -0.5103
  362MOL0     H48818   4.049   4.688   9.920 -0.0898 -0.4089  0.4101
  362MOL0     H48819   3.959   4.480   9.772 -0.7213  0.4992 -0.2998
  362MOL0     H48820   4.031   4.385   9.888 -2.6143 -0.4006  2.4390
  362MOL0     H48821   3.722   4.564   9.814  1.4747  1.3108 -0.5898
  362MOL0     H48822   3.523   4.662  10.118 -0.7800  0.4970 -0.7164
  362MOL0     H48823   3.509   4.684   9.940 -0.0209 -0.3483  0.5233
  362MOL0     H48824   3.392   4.434  10.077 -2.6091 -2.4855 -3.0028
  362MOL0     H48825   3.322   4.581  10.014 -0.1392 -1.3266 -0.1830
  362MOL0     H48826   3.520   4.406   9.859  3.1099  3.0488  3.3513
  362MOL0     H48827   3.398   4.525   9.802  0.8717  2.0198  1.5702
  362MOL0     H48828   3.209   4.381   9.874 -0.5461  0.2208 -3.4954
  362MOL0     H48829   3.335   4.255   9.920  2.2557  2.7780  2.0294
  362MOL0     H48830   3.534   4.181   9.795  0.2197 -1.3318 -1.1434
  362MOL0     H48831   3.606   3.965   9.757  0.3742  3.9629  0.9639
  362MOL0     H48832   3.215   3.507   9.610  1.2371  3.6918 -0.8933
  362MOL0     H48833   3.236   3.257   9.643 -1.1446  1.1640  1.0488
  362MOL0     H48834   3.289   3.039   9.664 -1.3490 -1.3843 -1.3665
  362MOL0     H48835   3.301   3.054   9.489  1.8354  0.2418 -1.3594
  362MOL0     H48836   3.476   2.869   9.669  2.1478  3.0540  0.1987
  362MOL0     H48837   3.328   2.824   9.562  1.0722 -0.3982 -0.6123
  362MOL0     H48838   3.596   2.933   9.468 -0.7190  0.4285  0.4257
  362MOL0     H48839   3.551   2.760   9.491 -0.7782 -0.7581  1.3156
  362MOL0     H48840   3.345   2.869   9.327  0.1905  0.4913  2.8678
  362MOL0     H48841   3.467   2.780   9.266 -1.1000 -2.2397  2.3118
  362MOL0     H48842   3.493   3.094   9.310 -2.7836 -1.1013  1.8077
  362MOL0     H48843   3.436   3.025   9.170  0.0826 -0.9774  0.2783
  362MOL0     H48844   3.710   3.074   9.187  1.8064  0.1064 -1.5256
  362MOL0     H48845   3.710   2.926   9.289 -0.0414 -2.2746 -2.2582
  362MOL0     H48846   3.594   2.977   9.021 -0.4422  2.1521  2.9809
  362MOL0     H48847   3.584   2.813   9.090 -0.8443 -0.7570 -1.4752
  362MOL0     H48848   3.855   2.938   9.057  0.3977  0.0874  1.0517
  362MOL0     H48849   3.826   2.782   9.118 -0.8361 -1.2766 -1.0344
  362MOL0     H48850   3.629   3.285   9.470 -0.5604  1.9610 -4.6159
  362MOL0     H48851   3.609   3.532   9.455 -3.6561  1.0329 -2.8763
  362MOL0     H48852   3.282   3.888   9.486  2.6091 -0.2260 -0.9788
  362MOL0     H48853   3.182   4.104   9.550  0.1690  1.5062  0.1517
  362MOL0     H48854   4.438   5.405  10.262 -0.1845  0.9641 -1.9263
  362MOL0     H48855   4.586   5.559  10.393  1.5432  0.6256  0.8883
  362MOL0     H48856   5.020   5.571  10.577  2.1661 -1.9923  1.5107
  362MOL0     H48857   5.224   5.650  10.676 -1.2504  2.1705  1.9160
  362MOL0     H48858   5.450   5.568  10.651  0.7298 -0.3099  3.0773
  362MOL0     H48859   5.571   5.682  10.689 -0.0171  1.5300 -0.7052
  362MOL0     H48860   5.678   5.637  10.485 -0.4285 -0.2968 -1.2808
  362MOL0     H48861   5.540   5.597  10.383  1.2466 -0.3022 -0.8886
  362MOL0     H48862   5.504   5.383  10.510 -0.5430 -0.1759 -1.0511
  362MOL0     H48863   5.663   5.412  10.604 -0.1281  1.0239  0.2415
  362MOL0     H48864   5.671   5.286  10.356 -1.2121  1.1328 -0.1979
  362MOL0     H48865   5.685   5.445  10.297  0.6795 -0.8099 -1.5762
  362MOL0     H48866   6.068   5.379  10.418 -0.6220 -0.3466  0.1407
  362MOL0     H48867   5.352   5.844  10.328 -0.4713  2.3196  4.3833
  362MOL0     H48868   5.244   5.844  10.134  1.0898 -1.6232  0.4574
  362MOL0     H48869   5.134   5.705  10.089  1.6886  1.1621 -2.8382
  362MOL0     H48870   5.081   5.870  10.139  1.5785  1.6437  0.9033
  363MOL0     O48871   8.590   3.880   0.889  0.5953 -0.3953  0.8172
  363MOL0     C48872   8.674   3.886   0.972  0.7711 -0.0612 -0.1514
  363MOL0     O48873   8.712   3.784   1.049  0.1542  0.2479  0.5740
  363MOL0     C48874   8.651   3.662   1.039  0.3760  0.5445  1.2275
  363MOL0     C48875   8.621   3.600   1.156  0.2443 -0.2260 -0.0153
  363MOL0     C48876   8.554   3.480   1.163 -0.2936  0.8576 -0.6063
  363MOL0     C48877   8.515   3.414   1.050 -0.2369  0.6122  1.0448
  363MOL0     O48878   8.452   3.291   1.063  0.1316 -0.0834 -0.2809
  363MOL0     C48879   8.366   3.256   0.953 -0.3987  0.3843  0.2007
  363MOL0     C48880   8.275   3.138   0.988 -0.1407 -0.3116  0.0367
  363MOL0     C48881   8.184   3.181   1.108 -0.3158  0.1119  1.0076
  363MOL0     C48882   8.044   3.238   1.048  0.3742  0.3418  0.4401
  363MOL0     C48883   7.950   3.295   1.150 -0.3709  0.4234 -0.3690
  363MOL0     C48884   7.832   3.367   1.088  0.5076  0.2131 -0.8894
  363MOL0     C48885   7.766   3.464   1.196 -0.2907 -0.0695  0.6263
  363MOL0     C48886   7.705   3.386   1.304 -0.4687 -0.4098 -0.5317
  363MOL0     N48887   7.602   3.283   1.247 -0.2191  0.1564  0.9227
  363MOL0     C48888   7.486   3.326   1.188 -0.1581 -0.3594  0.0590
  363MOL0     C48889   7.412   3.214   1.171  0.7246 -0.2657 -0.5575
  363MOL0     C48890   7.278   3.218   1.108 -0.2861  0.0407 -0.4855
  363MOL0     C48891   7.289   3.242   0.956  0.4675  0.7528  0.3003
  363MOL0     C48892   7.302   3.114   0.876  0.3554  0.2019 -0.0294
  363MOL0     C48893   7.446   3.087   0.844 -0.0947  0.0989 -0.2427
  363MOL0     O48894   7.504   3.182   0.752  1.1923 -0.2296  0.5248
  363MOL0     C48895   7.633   3.211   0.754  0.6987  1.2240  0.4453
  363MOL0     C48896   7.665   3.341   0.715  0.2312  0.1863 -0.0566
  363MOL0     C48897   7.802   3.373   0.701 -0.8961 -1.4451 -0.0564
  363MOL0     C48898   7.905   3.281   0.718  0.7453 -0.2497  0.2275
  363MOL0     C48899   8.046   3.306   0.688  0.0306 -0.2316 -0.0249
  363MOL0     O48900   8.072   3.440   0.667 -0.0125 -0.0134  0.2814
  363MOL0     C48901   8.194   3.468   0.610  0.1194  0.2435  1.0548
  363MOL0     C48902   8.269   3.570   0.660  0.5135  0.1021 -0.5996
  363MOL0     C48903   8.392   3.610   0.609 -0.5459 -0.4656  1.1583
  363MOL0     C48904   8.444   3.554   0.494  0.1916 -0.0307 -0.8257
  363MOL0     O48905   8.562   3.604   0.454  0.0226  0.0017  0.3146
  363MOL0     C48906   8.644   3.516   0.389 -0.4593  1.2559  0.5921
  363MOL0     C48907   8.791   3.570   0.406 -0.8186 -0.2340  0.4338
  363MOL0     C48908   8.904   3.461   0.385 -0.5738 -0.0072 -0.1986
  363MOL0     C48909   9.046   3.532   0.380  0.1008  0.0629  0.5040
  363MOL0     C48910   9.165   3.421   0.370 -0.0459  0.0381  1.4363
  363MOL0     C48911   9.311   3.479   0.421  1.0576 -0.1375 -0.0954
  363MOL0     C48912   9.341   3.622   0.363  0.1235 -0.1707 -0.9653
  363MOL0     C48913   9.373   3.734   0.456 -0.7896  0.0768 -1.1401
  363MOL0    Cl48914   9.355   3.888   0.370 -0.1031 -0.0079 -0.3396
  363MOL0     C48915   8.371   3.453   0.440  0.5109 -0.0845  0.2294
  363MOL0     C48916   8.254   3.414   0.495  0.7459 -0.7479 -1.0112
  363MOL0     O48917   8.130   3.215   0.678  0.5661  0.3085  0.8460
  363MOL0     C48918   7.871   3.148   0.750  1.0297 -0.4953 -0.5619
  363MOL0     C48919   7.739   3.122   0.772  0.4087  0.3982 -0.2211
  363MOL0     N48920   7.485   3.105   1.206  1.0571  0.4498  1.0952
  363MOL0     N48921   7.596   3.141   1.251 -0.3781 -0.5275  0.0617
  363MOL0     C48922   8.556   3.471   0.927  0.6554  0.2915 -0.0485
  363MOL0     C48923   8.621   3.591   0.918 -0.1470  0.0461  0.4934
  363MOL0     C48924   8.743   4.012   0.990  0.9259 -1.0667  0.0605
  363MOL0     C48925   8.845   4.020   1.095  0.4981  0.5195 -0.1607
  363MOL0     C48926   8.912   4.141   1.113  0.4697  0.1819 -0.7004
  363MOL0     C48927   8.877   4.259   1.043 -0.4036  0.4740  0.2669
  363MOL0     O48928   8.950   4.376   1.055 -0.2686 -0.4761  0.3981
  363MOL0     C48929   8.881   4.493   1.102  0.0294  0.2637  0.0226
  363MOL0     C48930   8.942   4.558   1.228 -0.1965  0.6727  0.2034
  363MOL0     C48931   8.892   4.497   1.356 -0.8231 -0.1542 -0.1982
  363MOL0     C48932   8.976   4.531   1.485 -0.0395  0.7530 -0.0987
  363MOL0     C48933   9.108   4.463   1.490 -0.2851  0.0812 -0.5578
  363MOL0     C48934   9.213   4.407   1.493 -0.5376  0.4991 -0.8703
  363MOL0     C48935   8.786   4.248   0.950 -0.6621 -0.1293  0.8444
  363MOL0     C48936   8.720   4.129   0.909  0.5102  1.0107  1.9853
  363MOL0     C48937   8.624   4.133   0.795 -0.2759 -0.7461 -1.4022
  363MOL0     H48938   8.660   3.638   1.250  1.0970 -1.5537  0.1922
  363MOL0     H48939   8.525   3.443   1.261  0.4304  2.1384  0.1081
  363MOL0     H48940   8.318   3.344   0.910 -0.8977  0.4154  0.7999
  363MOL0     H48941   8.435   3.213   0.880 -1.5867  0.2442 -0.8713
  363MOL0     H48942   8.325   3.044   1.015 -0.8541 -0.9836 -0.8990
  363MOL0     H48943   8.221   3.125   0.894  3.2568 -0.7643 -2.0116
  363MOL0     H48944   8.225   3.257   1.176  1.0937  0.5123 -0.2382
  363MOL0     H48945   8.169   3.087   1.162  1.0504  0.7193  2.5335
  363MOL0     H48946   8.072   3.321   0.982  2.5718 -1.2817 -0.7857
  363MOL0     H48947   8.001   3.157   0.989  1.2911  0.7751 -0.8722
  363MOL0     H48948   7.916   3.215   1.216  1.1519  1.1645  1.4450
  363MOL0     H48949   8.017   3.364   1.203 -1.4485  1.9231 -0.8656
  363MOL0     H48950   7.871   3.429   1.007  0.0474  0.6523 -0.7782
  363MOL0     H48951   7.763   3.294   1.047 -1.0107  0.2943  1.3289
  363MOL0     H48952   7.681   3.514   1.149 -0.0848 -0.4592 -0.1843
  363MOL0     H48953   7.844   3.536   1.222 -1.6735  2.0772 -0.8590
  363MOL0     H48954   7.777   3.332   1.365 -2.2305 -1.8427  0.3818
  363MOL0     H48955   7.660   3.457   1.374 -1.8810 -3.4137  1.8556
  363MOL0     H48956   7.468   3.430   1.164  2.0417  0.2344  0.7646
  363MOL0     H48957   7.233   3.123   1.140  1.0462 -0.1098  1.0826
  363MOL0     H48958   7.210   3.289   1.156 -0.1356 -0.3854  0.3818
  363MOL0     H48959   7.197   3.289   0.917 -1.4990  0.1753  3.8488
  363MOL0     H48960   7.369   3.311   0.928  1.4805 -0.5358 -0.0454
  363MOL0     H48961   7.239   3.119   0.786  1.0294  1.9169 -0.4311
  363MOL0     H48962   7.268   3.034   0.944  0.0944  1.4046  1.3006
  363MOL0     H48963   7.474   2.987   0.811 -2.6841 -1.9638  3.1606
  363MOL0     H48964   7.496   3.089   0.941  1.2435 -1.4232 -0.8669
  363MOL0     H48965   7.591   3.419   0.702  1.2156  0.7287 -3.3322
  363MOL0     H48966   7.828   3.478   0.696 -1.7810 -1.2571 -1.8612
  363MOL0     H48967   8.233   3.619   0.751 -0.3947  0.9056 -1.3690
  363MOL0     H48968   8.446   3.693   0.654 -1.9463 -0.0605  2.1459
  363MOL0     H48969   8.644   3.415   0.432  1.6263  1.5536  1.4636
  363MOL0     H48970   8.615   3.503   0.285  0.1054  1.0569  0.4544
  363MOL0     H48971   8.804   3.654   0.336  0.4697 -0.4116  0.4429
  363MOL0     H48972   8.792   3.610   0.508  1.0778  0.8843  0.0284
  363MOL0     H48973   8.908   3.398   0.474 -0.5991 -0.3618 -0.4431
  363MOL0     H48974   8.888   3.404   0.292  1.0509 -1.8250  0.5613
  363MOL0     H48975   9.054   3.575   0.480 -1.0040 -0.2206  0.7358
  363MOL0     H48976   9.058   3.608   0.302 -0.6899 -0.3085  0.0017
  363MOL0     H48977   9.177   3.380   0.269 -1.8092 -1.6866  1.8770
  363MOL0     H48978   9.139   3.332   0.427  0.8860 -0.8686  0.5148
  363MOL0     H48979   9.307   3.486   0.531  0.4213  3.4254 -0.2402
  363MOL0     H48980   9.388   3.409   0.387  0.5231 -0.4735 -0.6340
  363MOL0     H48981   9.254   3.636   0.298 -0.5713  0.0406 -0.0138
  363MOL0     H48982   9.426   3.616   0.295 -0.8160  2.1562 -2.4676
  363MOL0     H48983   9.302   3.731   0.539  1.1299  1.7061  0.6853
  363MOL0     H48984   9.474   3.732   0.497 -0.8863  3.3395 -0.4697
  363MOL0     H48985   8.409   3.411   0.347  0.7395 -0.4938  0.5070
  363MOL0     H48986   8.197   3.338   0.441  3.8916 -4.1850  0.0907
  363MOL0     H48987   7.953   3.077   0.740  0.4394 -1.3473  0.3939
  363MOL0     H48988   7.707   3.019   0.785 -3.3626  1.4711  0.0643
  363MOL0     H48989   8.535   3.401   0.846  1.5476  0.2172 -0.2265
  363MOL0     H48990   8.661   3.627   0.823 -0.5401 -0.9017 -0.0413
  363MOL0     H48991   8.852   3.936   1.163 -1.0364  0.5470  0.0657
  363MOL0     H48992   8.972   4.147   1.204  0.1429 -1.0343 -0.3875
  363MOL0     H48993   8.780   4.459   1.128 -1.2628  3.6348 -0.1300
  363MOL0     H48994   8.885   4.557   1.013 -0.5712 -0.7919 -0.7895
  363MOL0     H48995   8.908   4.662   1.224 -1.7473  0.2202  0.6852
  363MOL0     H48996   9.051   4.561   1.238 -0.1719  2.4347 -0.2374
  363MOL0     H48997   8.900   4.388   1.347  0.3278 -0.3229  2.0349
  363MOL0     H48998   8.786   4.516   1.370 -0.8440  0.6883 -1.2881
  363MOL0     H48999   8.990   4.639   1.482 -1.5038  0.9463 -1.1635
  363MOL0     H49000   8.922   4.502   1.576 -0.1486 -1.0892 -0.7020
  363MOL0     H49001   9.302   4.347   1.493  1.3252  3.0708 -0.3264
  363MOL0     H49002   8.754   4.336   0.896 -2.1894  0.4554  2.6027
  363MOL0     H49003   8.525   4.141   0.840  1.5723  2.0146  2.8083
  363MOL0     H49004   8.633   4.223   0.733 -0.8374 -0.1684 -0.6709
  363MOL0     H49005   8.627   4.040   0.738 -0.9605 -1.2688 -0.6111
  364MOL0     O49006   9.587   3.167   1.159  0.6533  0.3757 -0.1003
  364MOL0     C49007   9.668   3.087   1.212  0.3685 -0.6338  0.2494
  364MOL0     O49008   9.732   3.100   1.342  0.9879  0.5608  0.0757
  364MOL0     C49009   9.679   3.183   1.438 -0.3877  0.1536 -0.2538
  364MOL0     C49010   9.748   3.174   1.558  0.8380 -1.0582 -0.7440
  364MOL0     C49011   9.687   3.227   1.677  0.3331  0.9087 -0.0106
  364MOL0     C49012   9.559   3.292   1.676 -0.0630  0.7032  0.9913
  364MOL0     O49013   9.506   3.355   1.789 -0.2449 -0.0232  0.3133
  364MOL0     C49014   9.378   3.420   1.789  0.4399  0.6606  0.0626
  364MOL0     C49015   9.327   3.448   1.934  0.3478 -1.0693  0.3126
  364MOL0     C49016   9.176   3.487   1.944  0.3617  0.2348 -0.0630
  364MOL0     C49017   9.147   3.580   2.055 -0.5168  0.2632 -1.5290
  364MOL0     C49018   9.185   3.514   2.198 -0.1130 -0.3398 -0.0091
  364MOL0     C49019   9.161   3.612   2.309  0.2784  0.5210  0.7858
  364MOL0     C49020   9.120   3.548   2.438 -0.4798 -0.5142  0.1161
  364MOL0     C49021   9.064   3.664   2.520  0.1950  1.2920 -0.1676
  364MOL0     N49022   9.158   3.768   2.563 -0.8435  0.0449  0.2513
  364MOL0     C49023   9.250   3.766   2.671 -0.3257 -0.2016  0.5943
  364MOL0     C49024   9.308   3.887   2.661  0.7912 -0.9294 -0.0992
  364MOL0     C49025   9.428   3.927   2.731 -0.1045  0.6214 -0.6755
  364MOL0     C49026   9.545   3.972   2.651 -0.3865 -0.2587 -0.6515
  364MOL0     C49027   9.682   3.989   2.729  0.3161  0.8493 -0.3809
  364MOL0     C49028   9.735   3.856   2.770 -0.2940  0.2144  0.1554
  364MOL0     O49029   9.770   3.773   2.663  0.1544 -0.6301  0.1375
  364MOL0     C49030   9.899   3.739   2.679 -1.2595  0.1824  0.5453
  364MOL0     C49031   9.932   3.606   2.702  0.7191 -0.5313  0.1295
  364MOL0     C49032  10.064   3.565   2.699 -0.7857  0.2275 -0.4390
  364MOL0     C49033  10.164   3.655   2.686  0.0151  0.5466  0.7613
  364MOL0     C49034  10.303   3.615   2.706 -0.5030 -0.5813 -0.1029
  364MOL0     O49035  10.329   3.478   2.722 -0.3227  0.5341  0.0433
  364MOL0     C49036  10.459   3.445   2.740 -0.0960 -0.0872 -0.4633
  364MOL0     C49037  10.501   3.385   2.860  0.0759  0.6609 -0.4440
  364MOL0     C49038  10.639   3.362   2.876 -0.2327 -0.7908 -0.3648
  364MOL0     C49039  10.734   3.403   2.778  0.1498 -0.1855 -0.5788
  364MOL0     O49040  10.869   3.411   2.805  0.6972 -0.1448 -0.2399
  364MOL0     C49041  10.969   3.389   2.709 -1.1303 -0.0565  0.7877
  364MOL0     C49042  11.021   3.518   2.631 -0.1456 -0.2957 -0.5889
  364MOL0     C49043  11.123   3.479   2.526  0.6188 -0.7092 -0.4013
  364MOL0     C49044  11.253   3.435   2.599  0.1129 -1.0272  0.3716
  364MOL0     C49045  11.376   3.435   2.508 -0.3065 -0.5301  0.5659
  364MOL0     C49046  11.431   3.577   2.476  0.3667  0.3295 -0.4214
  364MOL0     C49047  11.546   3.572   2.387 -1.0475 -0.1654 -0.3930
  364MOL0     C49048  11.625   3.696   2.377  0.7256 -0.2492  0.3302
  364MOL0    Cl49049  11.798   3.661   2.345 -0.1703  0.1047  0.3588
  364MOL0     C49050  10.682   3.453   2.657 -0.1977  1.0965  0.8324
  364MOL0     C49051  10.549   3.474   2.638  0.3542 -0.1665  0.7189
  364MOL0     O49052  10.391   3.706   2.718  1.0640 -0.0639  0.1974
  364MOL0     C49053  10.132   3.791   2.696 -0.0076 -0.3789  0.4387
  364MOL0     C49054   9.999   3.831   2.687 -0.1456 -0.4982 -0.1476
  364MOL0     N49055   9.236   3.963   2.572  1.3847 -0.4371  0.4930
  364MOL0     N49056   9.154   3.894   2.502  0.8235 -0.3499  0.2111
  364MOL0     C49057   9.491   3.299   1.556 -0.9850  0.2828  0.0331
  364MOL0     C49058   9.549   3.240   1.443  0.3606 -0.7011 -0.3800
  364MOL0     C49059   9.722   2.982   1.125 -0.6108 -0.1906 -0.7037
  364MOL0     C49060   9.822   2.902   1.183 -0.0049 -0.1179  0.4536
  364MOL0     C49061   9.877   2.802   1.114  0.4027  0.2388  0.1357
  364MOL0     C49062   9.830   2.751   0.991  0.5852 -1.1562 -0.6668
  364MOL0     O49063   9.887   2.636   0.948 -0.1987  0.4344 -0.6077
  364MOL0     C49064   9.831   2.572   0.828 -0.9045  0.0205  0.4361
  364MOL0     C49065   9.938   2.472   0.775 -0.5179 -0.4090 -0.4737
  364MOL0     C49066   9.894   2.396   0.647 -0.4244  0.2089  0.4651
  364MOL0     C49067   9.980   2.261   0.640  0.1894 -0.1390  0.2743
  364MOL0     C49068   9.962   2.216   0.499 -0.7394 -0.7005 -0.2714
  364MOL0     C49069   9.946   2.176   0.389  0.3198 -0.6996 -0.4262
  364MOL0     C49070   9.738   2.827   0.924  0.8961 -0.4692 -0.6034
  364MOL0     C49071   9.679   2.943   0.994  0.0736  0.9305  0.5572
  364MOL0     C49072   9.568   3.012   0.919  0.2368 -0.4732  0.7718
  364MOL0     H49073   9.844   3.123   1.562  2.1625  1.1183 -2.2037
  364MOL0     H49074   9.744   3.225   1.769  0.7991  0.2084 -0.3059
  364MOL0     H49075   9.383   3.516   1.736 -0.5142 -0.0138 -1.3080
  364MOL0     H49076   9.301   3.362   1.737  0.9402 -2.0370  2.1182
  364MOL0     H49077   9.400   3.516   1.979  0.4200 -1.5308  0.9126
  364MOL0     H49078   9.347   3.357   1.992  2.4894  0.0884  1.5180
  364MOL0     H49079   9.122   3.394   1.959 -1.7802  1.4509  0.1403
  364MOL0     H49080   9.134   3.542   1.859  2.4032  0.9420 -0.6947
  364MOL0     H49081   9.210   3.669   2.049 -0.9528  0.5439 -1.9506
  364MOL0     H49082   9.045   3.618   2.068 -1.2643 -0.6071 -4.1927
  364MOL0     H49083   9.116   3.431   2.215 -1.4075  0.6627 -0.2497
  364MOL0     H49084   9.288   3.477   2.206  0.2037  0.8709  3.2500
  364MOL0     H49085   9.255   3.667   2.325  1.2140 -1.3192  1.9515
  364MOL0     H49086   9.073   3.669   2.277  0.4111  0.2390 -0.1140
  364MOL0     H49087   9.203   3.503   2.494  1.7874 -0.4200 -2.9017
  364MOL0     H49088   9.039   3.475   2.433  1.2273 -2.6332  1.7439
  364MOL0     H49089   8.976   3.700   2.466  0.8132 -0.1512 -2.2870
  364MOL0     H49090   9.024   3.630   2.616 -2.4689 -0.8015 -1.8519
  364MOL0     H49091   9.291   3.680   2.723 -0.3742 -1.0516 -0.7156
  364MOL0     H49092   9.407   4.022   2.782 -1.8613  0.1364 -0.4525
  364MOL0     H49093   9.450   3.846   2.801  3.1887 -0.2743 -2.5462
  364MOL0     H49094   9.557   3.896   2.573  0.3832 -1.9851  1.0545
  364MOL0     H49095   9.512   4.061   2.597 -0.8226  0.7438  1.2113
  364MOL0     H49096   9.670   4.061   2.811 -1.8962  1.5909 -1.2692
  364MOL0     H49097   9.748   4.055   2.671 -0.2518  0.8808 -1.0046
  364MOL0     H49098   9.663   3.796   2.827  0.6394  0.5708  1.7776
  364MOL0     H49099   9.817   3.861   2.842  0.6936  0.5546 -0.9757
  364MOL0     H49100   9.848   3.537   2.708 -2.5370  3.1591  1.1343
  364MOL0     H49101  10.079   3.459   2.721 -1.4018  0.3421  0.6112
  364MOL0     H49102  10.433   3.376   2.944  0.6950 -1.1257 -0.1050
  364MOL0     H49103  10.687   3.317   2.963  0.8049 -1.8264 -1.4323
  364MOL0     H49104  11.053   3.332   2.748 -0.9713 -1.6359 -1.6014
  364MOL0     H49105  10.929   3.326   2.629  0.1526  0.9052 -0.6726
  364MOL0     H49106  10.947   3.562   2.564  0.8295  1.1388 -0.7758
  364MOL0     H49107  11.052   3.595   2.703 -1.9952 -0.5906  0.5699
  364MOL0     H49108  11.091   3.397   2.461 -0.7821  0.1118 -0.7876
  364MOL0     H49109  11.125   3.574   2.472 -1.4138  0.0553  0.7784
  364MOL0     H49110  11.243   3.337   2.646  1.8873 -2.1874 -1.5132
  364MOL0     H49111  11.275   3.497   2.686  1.7673 -0.7722 -0.1980
  364MOL0     H49112  11.357   3.374   2.419  1.6087 -1.0481  0.4722
  364MOL0     H49113  11.457   3.381   2.558  1.0627 -0.1367 -1.1397
  364MOL0     H49114  11.350   3.636   2.432  1.0058  2.3721  1.0088
  364MOL0     H49115  11.456   3.629   2.568 -0.7865 -0.6981  0.5087
  364MOL0     H49116  11.517   3.553   2.284  1.7183  0.2597 -1.3257
  364MOL0     H49117  11.616   3.496   2.425 -1.3606 -0.9645 -1.3665
  364MOL0     H49118  11.580   3.756   2.298 -0.9772  0.4760  1.7817
  364MOL0     H49119  11.621   3.752   2.471  2.4527 -0.5805  0.6358
  364MOL0     H49120  10.753   3.486   2.581  0.3827  1.6124  1.5842
  364MOL0     H49121  10.513   3.528   2.552 -1.8787 -3.3375 -0.5375
  364MOL0     H49122  10.209   3.867   2.712  0.3056 -0.5439 -0.2404
  364MOL0     H49123   9.974   3.936   2.691 -0.0184 -0.3228 -2.4768
  364MOL0     H49124   9.391   3.341   1.551 -0.3499  1.8571  0.1034
  364MOL0     H49125   9.488   3.256   1.354 -0.8944 -0.9249  0.4079
  364MOL0     H49126   9.860   2.907   1.285 -1.9653 -2.6842  1.4113
  364MOL0     H49127   9.956   2.744   1.160  0.0136 -0.1221  0.3627
  364MOL0     H49128   9.805   2.644   0.750 -3.0503 -0.0329  1.0180
  364MOL0     H49129   9.745   2.506   0.844 -0.4635 -0.6097  0.2624
  364MOL0     H49130   9.975   2.411   0.858  2.6332  2.9555  0.8742
  364MOL0     H49131  10.032   2.528   0.765  0.5096 -2.2470 -1.7856
  364MOL0     H49132   9.893   2.462   0.559 -0.8676 -1.8736 -1.1775
  364MOL0     H49133   9.790   2.363   0.653 -1.3376  2.6568 -0.5026
  364MOL0     H49134  10.085   2.279   0.666  0.2839  0.7942 -0.6741
  364MOL0     H49135   9.947   2.179   0.704  0.8195  1.5398  2.9017
  364MOL0     H49136   9.933   2.136   0.290 -0.7056 -0.9838 -0.1883
  364MOL0     H49137   9.704   2.791   0.828  1.8762 -0.6924 -0.8817
  364MOL0     H49138   9.536   2.955   0.832  3.6879 -1.1228 -0.2472
  364MOL0     H49139   9.494   3.039   0.995  2.7399  0.9225  2.9255
  364MOL0     H49140   9.610   3.107   0.884 -2.5352  1.6348  2.7608
  365MOL0     O49141   2.414   8.350   8.939  0.3725 -1.3154  0.3667
  365MOL0     C49142   2.398   8.365   8.821 -0.7096 -0.0874 -0.5442
  365MOL0     O49143   2.326   8.461   8.762 -0.5907  0.2402  0.7878
  365MOL0     C49144   2.233   8.536   8.830  0.5639 -0.5317 -0.3763
  365MOL0     C49145   2.104   8.495   8.847  0.7965 -0.5524  0.1319
  365MOL0     C49146   2.011   8.568   8.922  0.7085  0.2415 -0.1536
  365MOL0     C49147   2.049   8.690   8.986 -0.2966 -0.5705 -0.3006
  365MOL0     O49148   1.965   8.759   9.073 -0.1333 -0.5894  0.4073
  365MOL0     C49149   1.836   8.798   9.016 -0.5796 -1.0963 -1.2404
  365MOL0     C49150   1.791   8.945   9.058  0.1606  0.5267  0.5124
  365MOL0     C49151   1.745   8.946   9.198 -0.1737  0.0387  1.3277
  365MOL0     C49152   1.668   9.070   9.219 -0.6815  0.4280 -0.1736
  365MOL0     C49153   1.639   9.065   9.365  0.4599 -0.1933  0.0920
  365MOL0     C49154   1.570   9.183   9.423 -0.1217  0.0849 -0.3025
  365MOL0     C49155   1.577   9.182   9.579 -0.1258  0.4696  0.5748
  365MOL0     C49156   1.497   9.293   9.647 -0.5282 -0.1185  0.3302
  365MOL0     N49157   1.519   9.418   9.588  0.5808 -1.0059  1.1021
  365MOL0     C49158   1.627   9.499   9.616  0.2552 -0.1450 -0.3258
  365MOL0     C49159   1.616   9.588   9.513  0.1090 -0.4292 -1.2395
  365MOL0     C49160   1.722   9.696   9.485  0.2952  0.1423  0.2153
  365MOL0     C49161   1.798   9.673   9.349 -0.9350  0.7719 -0.1363
  365MOL0     C49162   1.849   9.529   9.348 -0.2396 -0.2608  1.2029
  365MOL0     C49163   1.956   9.498   9.243 -0.9267 -0.5045  0.3767
  365MOL0     O49164   1.985   9.354   9.236 -0.3202  0.4091 -1.7484
  365MOL0     C49165   2.070   9.309   9.142 -0.7736  0.6209  0.0286
  365MOL0     C49166   2.174   9.379   9.065 -0.2721 -0.4198 -1.5693
  365MOL0     C49167   2.250   9.311   8.966  0.5737 -0.2356 -0.7640
  365MOL0     C49168   2.243   9.175   8.959 -0.1620  0.6455  1.1358
  365MOL0     C49169   2.349   9.108   8.869  0.7825 -0.3992 -0.1576
  365MOL0     O49170   2.389   9.169   8.761  0.0922  0.2713  0.5339
  365MOL0     C49171   2.505   9.133   8.696 -0.4728 -0.3038 -0.2137
  365MOL0     C49172   2.488   9.084   8.568  0.1119  0.9442  1.0097
  365MOL0     C49173   2.598   9.031   8.496  0.0737  0.8023 -0.6460
  365MOL0     C49174   2.730   9.039   8.536 -0.7482 -0.7348 -0.2253
  365MOL0     O49175   2.843   8.998   8.470 -0.3345 -0.2436  0.4440
  365MOL0     C49176   2.820   8.961   8.335 -0.0738  0.9152 -0.1330
  365MOL0     C49177   2.959   8.910   8.286  0.5247 -0.7805 -0.1988
  365MOL0     C49178   2.941   8.849   8.149  0.2990 -0.0884  0.1811
  365MOL0     C49179   3.018   8.719   8.125 -0.7472  0.6716 -0.4488
  365MOL0     C49180   3.169   8.748   8.109  0.2301  0.0699 -0.7676
  365MOL0     C49181   3.259   8.642   8.187  0.2771  0.3600 -0.6220
  365MOL0     C49182   3.242   8.665   8.346  0.1735 -0.5937  0.2408
  365MOL0     C49183   3.345   8.596   8.426 -0.5592  0.2252 -0.2318
  365MOL0    Cl49184   3.494   8.700   8.416  0.0678 -0.2178  0.3066
  365MOL0     C49185   2.758   9.113   8.655 -0.4724  0.9972  0.6889
  365MOL0     C49186   2.643   9.152   8.731 -0.2499  0.3960  0.7377
  365MOL0     O49187   2.387   9.001   8.916 -0.3557 -0.0258 -0.4630
  365MOL0     C49188   2.143   9.107   9.022  0.2250 -0.7407 -0.8043
  365MOL0     C49189   2.066   9.172   9.119  0.1232 -0.6072  1.0765
  365MOL0     N49190   1.496   9.582   9.445  0.3050 -0.2954  0.0315
  365MOL0     N49191   1.442   9.467   9.488  0.7114  0.4463  0.3135
  365MOL0     C49192   2.189   8.731   8.978 -0.3822 -0.1528 -0.8550
  365MOL0     C49193   2.276   8.658   8.896  0.1393 -0.9591  0.7324
  365MOL0     C49194   2.467   8.264   8.737 -0.0410  0.5484  0.6121
  365MOL0     C49195   2.543   8.163   8.809 -1.3920  0.1455  0.7533
  365MOL0     C49196   2.586   8.043   8.741  0.4975 -0.1966 -0.1912
  365MOL0     C49197   2.570   8.025   8.606  0.6807 -0.6919 -0.1256
  365MOL0     O49198   2.647   7.930   8.539  0.8745 -0.4982  0.6539
  365MOL0     C49199   2.590   7.859   8.430 -0.4554  0.6292 -0.8555
  365MOL0     C49200   2.669   7.719   8.418 -0.2169  0.5715 -0.0200
  365MOL0     C49201   2.630   7.629   8.296 -0.0327  0.6815 -0.7987
  365MOL0     C49202   2.614   7.703   8.154  0.8356 -0.5631  0.2724
  365MOL0     C49203   2.713   7.800   8.128 -0.0856  0.4270 -0.6163
  365MOL0     C49204   2.816   7.855   8.090 -1.2622 -0.2642 -0.6048
  365MOL0     C49205   2.489   8.116   8.539  0.0639  0.5802 -1.1901
  365MOL0     C49206   2.438   8.238   8.599  0.6998 -1.3503 -0.1328
  365MOL0     C49207   2.326   8.312   8.526  0.1724 -0.4134  0.3218
  365MOL0     H49208   2.071   8.407   8.793  0.0148 -1.4259  1.9376
  365MOL0     H49209   1.915   8.525   8.948  1.7576 -0.0169  3.9768
  365MOL0     H49210   1.837   8.797   8.907 -0.1702 -1.7245 -1.2391
  365MOL0     H49211   1.761   8.723   9.046 -2.1850  0.5001 -1.0782
  365MOL0     H49212   1.705   8.961   8.993 -1.5279  1.2076  2.7691
  365MOL0     H49213   1.867   9.019   9.033 -0.3682  0.0976 -2.7579
  365MOL0     H49214   1.837   8.935   9.256  1.1939 -0.0475 -0.7506
  365MOL0     H49215   1.679   8.858   9.202  1.4604 -1.4420 -1.2566
  365MOL0     H49216   1.734   9.154   9.201  0.7232 -0.6709 -0.3449
  365MOL0     H49217   1.574   9.073   9.162 -1.1228  6.5073  0.3077
  365MOL0     H49218   1.561   8.989   9.371 -0.3924  0.6068 -0.5248
  365MOL0     H49219   1.733   9.060   9.420  2.0574  1.7083 -2.2597
  365MOL0     H49220   1.618   9.274   9.387 -1.9346  1.3242  0.2382
  365MOL0     H49221   1.465   9.195   9.393  0.6892  0.2298 -3.3679
  365MOL0     H49222   1.678   9.190   9.622 -0.2630  1.8442  0.6816
  365MOL0     H49223   1.524   9.092   9.612  0.0176 -0.5738 -1.8327
  365MOL0     H49224   1.390   9.274   9.651 -0.0841 -3.0626  1.0310
  365MOL0     H49225   1.512   9.289   9.755 -5.1449  1.4495  1.2135
  365MOL0     H49226   1.705   9.475   9.688 -2.5439 -1.8944  2.3701
  365MOL0     H49227   1.673   9.793   9.468  0.3745  0.2799  0.7611
  365MOL0     H49228   1.791   9.693   9.569  0.1644  0.6104  0.3458
  365MOL0     H49229   1.718   9.691   9.277 -1.6362  4.1518  1.2922
  365MOL0     H49230   1.875   9.750   9.345  0.9448 -1.0497 -0.7061
  365MOL0     H49231   1.767   9.464   9.315 -0.4581 -0.7423  2.5997
  365MOL0     H49232   1.894   9.510   9.446  3.5702  1.8967  0.1006
  365MOL0     H49233   2.049   9.554   9.255  1.4193 -3.7374 -1.0026
  365MOL0     H49234   1.905   9.526   9.151 -2.2578  1.0444  1.5355
  365MOL0     H49235   2.202   9.484   9.077 -2.2208 -0.1784  2.5924
  365MOL0     H49236   2.325   9.378   8.925 -0.0149  0.4497 -0.7507
  365MOL0     H49237   2.388   9.071   8.528  0.6743 -1.7566  0.2463
  365MOL0     H49238   2.564   8.986   8.403  0.0844 -1.6891  0.4661
  365MOL0     H49239   2.747   8.879   8.342 -3.4020  3.8023  3.3992
  365MOL0     H49240   2.792   9.039   8.264  3.6939 -1.2887 -4.5800
  365MOL0     H49241   3.026   8.995   8.277 -0.7941  0.5069  1.3831
  365MOL0     H49242   2.998   8.836   8.357  0.8800  0.6530  1.1705
  365MOL0     H49243   2.838   8.820   8.127 -0.4820  1.9130  0.9517
  365MOL0     H49244   2.968   8.929   8.079 -1.0528 -0.3541 -0.6787
  365MOL0     H49245   2.977   8.670   8.037 -2.1376  2.4643 -0.8734
  365MOL0     H49246   3.000   8.648   8.205  1.5828 -1.4059 -1.6296
  365MOL0     H49247   3.190   8.854   8.124 -3.9319  1.2031 -1.6447
  365MOL0     H49248   3.199   8.732   8.005  2.0194 -0.4993 -0.2003
  365MOL0     H49249   3.231   8.541   8.158 -2.1162  0.3794  1.3718
  365MOL0     H49250   3.364   8.653   8.157  0.4891 -1.1592 -0.4940
  365MOL0     H49251   3.150   8.621   8.386 -0.9393  1.1231 -0.3215
  365MOL0     H49252   3.234   8.771   8.371 -2.7069 -0.6883  0.0746
  365MOL0     H49253   3.316   8.578   8.530  1.0100 -0.7321  0.0740
  365MOL0     H49254   3.372   8.504   8.375  1.3870 -1.5261  3.5210
  365MOL0     H49255   2.859   9.112   8.695 -0.7917  1.6965  1.5573
  365MOL0     H49256   2.670   9.183   8.832  0.3226 -0.4388  0.8495
  365MOL0     H49257   2.117   9.003   9.003 -3.7284 -0.1980  0.6679
  365MOL0     H49258   1.995   9.126   9.187  0.3513 -1.2813  0.8772
  365MOL0     H49259   2.221   8.826   9.020  0.1681 -1.0119  0.7712
  365MOL0     H49260   2.380   8.688   8.900  0.2163 -1.3513  3.3340
  365MOL0     H49261   2.567   8.162   8.914 -0.1279 -1.6742  0.4968
  365MOL0     H49262   2.647   7.968   8.791  0.5057 -0.2606 -0.2975
  365MOL0     H49263   2.585   7.922   8.340  0.2407 -0.9613 -2.0635
  365MOL0     H49264   2.490   7.831   8.464 -0.2419 -1.8532 -2.0197
  365MOL0     H49265   2.644   7.673   8.514  2.7422 -0.8513  0.1645
  365MOL0     H49266   2.774   7.748   8.419 -1.3067  5.3218 -0.3014
  365MOL0     H49267   2.529   7.592   8.315  1.3961 -3.3974 -0.1949
  365MOL0     H49268   2.704   7.549   8.299 -0.6443  0.0616 -1.8476
  365MOL0     H49269   2.622   7.623   8.080 -0.5957 -0.5799  0.1232
  365MOL0     H49270   2.516   7.746   8.137  1.6001  1.5477  0.9523
  365MOL0     H49271   2.912   7.887   8.055 -1.3230 -1.4801 -1.9467
  365MOL0     H49272   2.469   8.097   8.434 -2.3597 -2.4687 -0.3196
  365MOL0     H49273   2.238   8.303   8.590  0.0253 -0.7401  0.0746
  365MOL0     H49274   2.361   8.413   8.501  0.6294 -0.8757 -0.9741
  365MOL0     H49275   2.299   8.265   8.431 -3.5730  1.1139  0.4583
  366MOL0     O49276   8.010   3.606   3.430  0.1422 -0.5962 -0.3969
  366MOL0     C49277   8.017   3.726   3.429 -0.0505 -0.3663 -0.5206
  366MOL0     O49278   8.014   3.796   3.539 -0.2284  0.7060 -0.2715
  366MOL0     C49279   8.020   3.719   3.655 -0.4210 -0.9791 -0.4466
  366MOL0     C49280   8.131   3.738   3.742  0.9441  0.4612 -0.3913
  366MOL0     C49281   8.131   3.661   3.853 -0.2510 -0.0150 -0.6896
  366MOL0     C49282   8.035   3.583   3.909  0.7592 -0.0712  0.5549
  366MOL0     O49283   8.054   3.514   4.028  0.5529 -0.4515 -0.5794
  366MOL0     C49284   7.957   3.418   4.062 -0.6433  0.3654 -0.2509
  366MOL0     C49285   7.972   3.342   4.193 -0.2852  0.4982 -0.2134
  366MOL0     C49286   7.873   3.231   4.218 -0.8188  0.2873 -0.0174
  366MOL0     C49287   7.873   3.188   4.370  1.1825 -0.4783  0.5131
  366MOL0     C49288   7.825   3.040   4.366  0.2240  1.1262  0.7141
  366MOL0     C49289   7.816   2.985   4.499 -0.4723  0.2251 -0.4886
  366MOL0     C49290   7.793   2.829   4.496  0.1085  0.5884  0.0661
  366MOL0     C49291   7.786   2.778   4.632 -0.3088 -0.4505 -0.4408
  366MOL0     N49292   7.666   2.823   4.704 -0.1755 -0.2617  0.2444
  366MOL0     C49293   7.535   2.806   4.656 -0.5679  0.0749 -0.1567
  366MOL0     C49294   7.465   2.893   4.735 -0.5199  0.4882  0.6372
  366MOL0     C49295   7.314   2.904   4.715 -0.1066  0.0143 -0.4047
  366MOL0     C49296   7.263   2.852   4.847  0.9885  0.5494 -0.5286
  366MOL0     C49297   7.113   2.841   4.837 -1.3356  0.5170  0.5899
  366MOL0     C49298   7.059   2.788   4.968 -0.2089 -0.1306 -0.1680
  366MOL0     O49299   7.074   2.645   4.983  0.6234 -0.1045 -0.4275
  366MOL0     C49300   7.018   2.588   5.095 -0.5975 -0.0419  0.2915
  366MOL0     C49301   6.970   2.656   5.204 -0.6022  0.7617  0.5071
  366MOL0     C49302   6.909   2.594   5.313 -0.4481  0.4375 -0.7453
  366MOL0     C49303   6.889   2.461   5.318 -0.7990 -0.9574  0.9860
  366MOL0     C49304   6.823   2.401   5.437 -0.2472 -0.3191 -1.3728
  366MOL0     O49305   6.787   2.494   5.529 -0.5503  0.0027 -0.3706
  366MOL0     C49306   6.694   2.458   5.624  0.2380 -0.5324  0.0306
  366MOL0     C49307   6.584   2.548   5.641 -0.7927  0.6083  0.5783
  366MOL0     C49308   6.493   2.525   5.743  0.0442 -0.1215  0.2133
  366MOL0     C49309   6.496   2.414   5.821  0.6461  0.4680 -0.0237
  366MOL0     O49310   6.413   2.394   5.925 -0.8419 -0.2304  0.3746
  366MOL0     C49311   6.358   2.499   5.997  0.5517 -0.7216 -0.4180
  366MOL0     C49312   6.282   2.449   6.124 -0.4336 -1.3902  0.3015
  366MOL0     C49313   6.206   2.319   6.105 -0.1599 -0.6812  0.1639
  366MOL0     C49314   6.102   2.294   6.215 -0.6123 -0.3146  0.4858
  366MOL0     C49315   6.034   2.156   6.213  0.7221 -0.1333 -0.1068
  366MOL0     C49316   5.958   2.132   6.341  0.4399 -0.2739 -0.4896
  366MOL0     C49317   5.884   2.000   6.336 -0.8016 -0.4968  0.0473
  366MOL0     C49318   5.823   1.957   6.477 -0.8919  0.2549 -0.4292
  366MOL0    Cl49319   5.654   2.010   6.484  0.4984  0.3558  0.5741
  366MOL0     C49320   6.597   2.322   5.794 -0.0860 -0.2075  0.7567
  366MOL0     C49321   6.697   2.340   5.701 -0.9261 -0.4486  1.1256
  366MOL0     O49322   6.813   2.279   5.452  0.2093  0.6383  0.0810
  366MOL0     C49323   6.933   2.390   5.203 -1.1508  0.5093 -0.7011
  366MOL0     C49324   7.010   2.449   5.097  0.7071 -0.6158  0.1443
  366MOL0     N49325   7.542   2.948   4.821  0.2121 -0.3344 -0.2003
  366MOL0     N49326   7.665   2.915   4.809  0.4665 -0.3935  0.5221
  366MOL0     C49327   7.922   3.573   3.822 -0.5245  0.7143 -0.1676
  366MOL0     C49328   7.914   3.646   3.704  0.2473  0.0525  0.7366
  366MOL0     C49329   8.015   3.802   3.299 -1.2602  0.3420  0.1549
  366MOL0     C49330   7.976   3.730   3.189  0.2175 -0.7575  0.0858
  366MOL0     C49331   7.951   3.796   3.073  0.0955 -0.1791  0.2977
  366MOL0     C49332   7.979   3.934   3.054  1.0996 -0.5577  0.5821
  366MOL0     O49333   7.944   3.989   2.929  0.5305  0.8041 -0.4215
  366MOL0     C49334   7.968   4.129   2.907 -0.2875 -0.1631 -1.5599
  366MOL0     C49335   7.947   4.181   2.765  0.5164  0.1113 -0.1644
  366MOL0     C49336   8.032   4.314   2.740 -0.2201 -0.2120 -0.5468
  366MOL0     C49337   8.009   4.368   2.605 -0.2338  0.1092 -0.2880
  366MOL0     C49338   7.872   4.411   2.591 -0.6369 -0.6051  0.6242
  366MOL0     C49339   7.754   4.442   2.568 -1.1281 -0.2115 -0.1860
  366MOL0     C49340   8.021   4.009   3.170  0.9723 -0.2144  0.4675
  366MOL0     C49341   8.050   3.939   3.290 -0.6989 -0.6854  0.2534
  366MOL0     C49342   8.100   4.012   3.406 -0.3158 -0.7779 -0.8747
  366MOL0     H49343   8.206   3.814   3.726  2.6826 -0.8978  0.8813
  366MOL0     H49344   8.211   3.667   3.926  0.4156  0.7316 -1.4610
  366MOL0     H49345   7.868   3.478   4.083 -0.8581 -0.3722  1.0861
  366MOL0     H49346   7.960   3.348   3.978  1.4231  1.1881 -0.9342
  366MOL0     H49347   7.951   3.412   4.274 -0.3905  0.3963 -0.1529
  366MOL0     H49348   8.069   3.292   4.192 -1.7358 -2.5563 -0.3234
  366MOL0     H49349   7.902   3.142   4.162  2.8741 -0.2311  2.3827
  366MOL0     H49350   7.776   3.276   4.192  0.5060  3.5828  0.2665
  366MOL0     H49351   7.967   3.200   4.424  2.5824 -0.3173 -1.8447
  366MOL0     H49352   7.793   3.248   4.416  0.9802  0.4678 -1.0211
  366MOL0     H49353   7.732   3.046   4.308  1.3218  3.2533 -0.9795
  366MOL0     H49354   7.898   2.975   4.317 -0.9912 -3.1384  4.0150
  366MOL0     H49355   7.907   3.008   4.556  0.8339 -2.3343 -1.3802
  366MOL0     H49356   7.736   3.040   4.549  0.8012  3.3739 -1.6591
  366MOL0     H49357   7.873   2.779   4.440 -0.4231  1.6773 -1.7137
  366MOL0     H49358   7.696   2.808   4.450 -0.7580 -2.6420  2.9074
  366MOL0     H49359   7.787   2.669   4.636 -0.6288 -0.4265  0.5912
  366MOL0     H49360   7.873   2.815   4.686 -0.5205  1.0716 -1.0842
  366MOL0     H49361   7.501   2.744   4.574 -0.4751  0.4924 -0.5139
  366MOL0     H49362   7.275   3.004   4.695 -1.5880 -0.4681 -0.0387
  366MOL0     H49363   7.288   2.835   4.634  3.7036  0.2356 -2.0462
  366MOL0     H49364   7.301   2.751   4.865 -1.1559  0.0747  1.9511
  366MOL0     H49365   7.292   2.916   4.931 -1.7474  0.3665  0.6680
  366MOL0     H49366   7.080   2.770   4.760  0.3386 -2.0961  2.1118
  366MOL0     H49367   7.080   2.944   4.821  2.3696  1.3921 -3.0978
  366MOL0     H49368   6.954   2.820   4.964 -0.3621 -0.6156 -0.1154
  366MOL0     H49369   7.103   2.834   5.057  3.9196  0.3015 -2.2231
  366MOL0     H49370   6.963   2.765   5.206 -2.8573  0.6517  1.7866
  366MOL0     H49371   6.849   2.657   5.378 -3.5346 -1.9494 -1.0104
  366MOL0     H49372   6.569   2.626   5.567  1.2412 -1.0067 -1.6906
  366MOL0     H49373   6.404   2.586   5.754 -0.7078 -1.0656 -0.4720
  366MOL0     H49374   6.433   2.569   6.034 -2.0546  1.5839  0.8433
  366MOL0     H49375   6.284   2.551   5.935 -0.3110 -4.8531 -3.2481
  366MOL0     H49376   6.367   2.427   6.189  3.8825 -0.3058 -4.3720
  366MOL0     H49377   6.214   2.519   6.173 -1.3117 -1.9158 -0.1533
  366MOL0     H49378   6.166   2.305   6.004  0.2152  3.0782 -0.6547
  366MOL0     H49379   6.278   2.237   6.113  0.3865 -0.0278  3.6031
  366MOL0     H49380   6.024   2.369   6.196 -0.1561 -0.1113 -0.6857
  366MOL0     H49381   6.153   2.322   6.308  0.2463  3.6357 -0.9499
  366MOL0     H49382   6.099   2.069   6.201  2.2558  1.3409 -4.2759
  366MOL0     H49383   5.966   2.155   6.127  0.7087  1.7434 -0.1564
  366MOL0     H49384   6.018   2.124   6.432 -3.0649  0.1822  2.1016
  366MOL0     H49385   5.902   2.224   6.363  2.5281  0.7817  0.8006
  366MOL0     H49386   5.940   1.919   6.288  3.0579  3.6420 -3.2800
  366MOL0     H49387   5.795   2.011   6.272 -0.7604 -1.4760 -0.1910
  366MOL0     H49388   5.843   1.853   6.501 -2.0406  0.7059  3.0999
  366MOL0     H49389   5.870   2.005   6.564 -1.6059  0.0253  0.0940
  366MOL0     H49390   6.606   2.234   5.857 -1.9595 -1.4638 -0.6112
  366MOL0     H49391   6.783   2.275   5.687  2.1344  3.6625 -1.2414
  366MOL0     H49392   6.919   2.283   5.211  3.7766 -0.3815 -1.1871
  366MOL0     H49393   7.054   2.379   5.027  1.2633 -3.0915  2.7672
  366MOL0     H49394   7.832   3.521   3.852 -0.4885  1.0172  0.4941
  366MOL0     H49395   7.828   3.631   3.640 -0.4126  1.1095  1.3537
  366MOL0     H49396   7.946   3.626   3.190 -5.4816  0.5381  1.6311
  366MOL0     H49397   7.911   3.756   2.980  1.0741 -0.1044 -0.1700
  366MOL0     H49398   8.076   4.139   2.921  0.0706 -4.9306  1.2933
  366MOL0     H49399   7.920   4.185   2.987  0.6520  1.3057 -2.0023
  366MOL0     H49400   7.839   4.202   2.770  0.5723  0.2827  0.3960
  366MOL0     H49401   7.971   4.108   2.688 -1.0366 -0.4968 -0.1112
  366MOL0     H49402   8.138   4.289   2.746  0.0885  0.5655 -2.0880
  366MOL0     H49403   8.007   4.401   2.802  1.6534 -1.0344  1.4473
  366MOL0     H49404   8.066   4.458   2.577 -0.4512  0.6092  0.8230
  366MOL0     H49405   8.036   4.293   2.530  0.2478  1.5580 -1.6145
  366MOL0     H49406   7.661   4.475   2.527 -1.3627  1.0737  1.2905
  366MOL0     H49407   8.029   4.117   3.175  3.4324 -0.3369  0.4904
  366MOL0     H49408   8.178   3.945   3.441 -0.4972  1.2283  4.2640
  366MOL0     H49409   8.156   4.104   3.384  0.7244 -0.9949  0.7155
  366MOL0     H49410   8.026   4.030   3.485 -0.0838 -0.5667 -0.7055
  367MOL0     O49411   6.543   7.152   3.338  0.5226  0.4116  0.6224
  367MOL0     C49412   6.638   7.172   3.259 -0.7636  0.4079  0.2980
  367MOL0     O49413   6.769   7.166   3.295 -0.0057  0.7271  0.4150
  367MOL0     C49414   6.798   7.180   3.421 -0.2409  1.2207 -0.3393
  367MOL0     C49415   6.808   7.301   3.485  1.2708 -0.1573  0.6317
  367MOL0     C49416   6.830   7.313   3.621 -0.1916  0.0833  1.4777
  367MOL0     C49417   6.837   7.210   3.712  0.2445 -0.1429  0.2470
  367MOL0     O49418   6.896   7.210   3.837 -0.3825 -0.2034 -0.1866
  367MOL0     C49419   6.898   7.327   3.921 -0.3060 -0.5611 -0.1330
  367MOL0     C49420   6.971   7.311   4.059  0.9382  0.3766  0.0360
  367MOL0     C49421   7.027   7.452   4.109 -0.6385  0.8483 -0.6588
  367MOL0     C49422   6.916   7.551   4.155 -0.0812  0.2676  0.4527
  367MOL0     C49423   6.815   7.497   4.257 -0.2156  0.0846  0.3419
  367MOL0     C49424   6.743   7.620   4.328  0.1332 -0.1695  0.3990
  367MOL0     C49425   6.825   7.716   4.419 -0.1486  0.8919  1.0195
  367MOL0     C49426   6.737   7.827   4.476 -0.2112  0.1096  0.7719
  367MOL0     N49427   6.657   7.794   4.593  0.7180  0.9646  0.4769
  367MOL0     C49428   6.569   7.871   4.653 -0.3670 -0.1462 -0.2300
  367MOL0     C49429   6.531   7.821   4.770 -0.2234 -0.1915  0.5506
  367MOL0     C49430   6.445   7.880   4.877 -0.9157 -0.2853  0.0264
  367MOL0     C49431   6.502   7.890   5.021 -0.1191 -0.1807 -0.0401
  367MOL0     C49432   6.599   7.997   5.068 -0.2738  0.0298  0.2515
  367MOL0     C49433   6.531   8.123   5.116 -0.1016 -0.4303 -0.4045
  367MOL0     O49434   6.633   8.188   5.186 -0.2852 -0.0383 -0.0408
  367MOL0     C49435   6.720   8.277   5.111 -0.2537  0.2751 -0.1309
  367MOL0     C49436   6.718   8.286   4.973  0.0923 -0.0441 -0.0844
  367MOL0     C49437   6.830   8.342   4.903 -0.1637 -0.4692  0.3504
  367MOL0     C49438   6.942   8.390   4.979 -0.3845  0.5243  0.0652
  367MOL0     C49439   7.063   8.433   4.900  0.9554 -0.0140 -0.0131
  367MOL0     O49440   7.186   8.434   4.959 -0.3232 -0.8362  0.5945
  367MOL0     C49441   7.291   8.444   4.871 -0.2595  0.6802 -0.1943
  367MOL0     C49442   7.328   8.336   4.790  0.0651  0.5163  0.1935
  367MOL0     C49443   7.442   8.344   4.702  0.7325 -0.2063  0.1631
  367MOL0     C49444   7.505   8.466   4.689  0.1366  0.0013 -0.8372
  367MOL0     O49445   7.625   8.503   4.637 -0.3064  0.7116 -0.1234
  367MOL0     C49446   7.645   8.437   4.511 -0.9745  0.0210 -0.2264
  367MOL0     C49447   7.788   8.478   4.475  0.2588 -0.3795  0.2959
  367MOL0     C49448   7.813   8.505   4.331  1.4123  0.3272  0.0831
  367MOL0     C49449   7.963   8.487   4.297 -0.0659  0.1832 -0.0322
  367MOL0     C49450   7.989   8.540   4.154 -0.5096 -1.2088  0.7437
  367MOL0     C49451   8.142   8.513   4.114  0.1304  0.2919 -0.6419
  367MOL0     C49452   8.231   8.590   4.205  0.2596  0.0430  0.9515
  367MOL0     C49453   8.374   8.546   4.202 -0.2838 -0.0065  1.7467
  367MOL0    Cl49454   8.450   8.563   4.035  0.8364  0.2132 -0.1429
  367MOL0     C49455   7.451   8.576   4.755 -0.5197  0.5324 -0.0334
  367MOL0     C49456   7.355   8.565   4.855 -0.8077 -0.3584  0.2752
  367MOL0     O49457   7.041   8.456   4.779  0.8631  0.5695  0.3683
  367MOL0     C49458   6.937   8.393   5.115 -0.0892  0.3471 -0.0208
  367MOL0     C49459   6.831   8.324   5.179  0.2161 -0.0856 -0.2648
  367MOL0     N49460   6.612   7.704   4.777  0.1505  0.9522 -1.3797
  367MOL0     N49461   6.699   7.695   4.686  0.1559  0.5581  0.9923
  367MOL0     C49462   6.838   7.077   3.653  0.3390 -0.8996 -0.7880
  367MOL0     C49463   6.815   7.062   3.509 -0.9679 -0.6175  0.1710
  367MOL0     C49464   6.604   7.212   3.119  0.6464  0.1489 -0.0416
  367MOL0     C49465   6.472   7.186   3.073 -0.8156  0.1487 -0.0035
  367MOL0     C49466   6.434   7.218   2.937  0.3835 -0.0623  0.2242
  367MOL0     C49467   6.533   7.268   2.844  0.7511  0.7752  0.9561
  367MOL0     O49468   6.494   7.289   2.706 -0.2688  0.0357  0.1220
  367MOL0     C49469   6.520   7.419   2.653 -0.7990 -0.3295 -0.4384
  367MOL0     C49470   6.451   7.437   2.527 -0.0165 -0.2698 -0.1236
  367MOL0     C49471   6.304   7.399   2.536 -0.8763 -1.0164  0.0600
  367MOL0     C49472   6.246   7.399   2.385 -0.5929  0.0994 -0.3679
  367MOL0     C49473   6.204   7.534   2.344  0.3185  0.1926 -0.6353
  367MOL0     C49474   6.156   7.636   2.314  0.0841  1.0992  0.5163
  367MOL0     C49475   6.657   7.302   2.891 -1.3732  0.1693  0.0858
  367MOL0     C49476   6.697   7.275   3.029  0.9699  0.4459  0.7381
  367MOL0     C49477   6.841   7.322   3.063  0.3296  0.4101  0.0036
  367MOL0     H49478   6.800   7.378   3.410  0.3523 -2.3855 -1.6983
  367MOL0     H49479   6.851   7.418   3.639  1.1309  0.2864 -0.9194
  367MOL0     H49480   6.954   7.405   3.869 -2.1277 -0.6637 -2.4552
  367MOL0     H49481   6.803   7.378   3.936 -0.4594 -0.6287 -0.7979
  367MOL0     H49482   7.045   7.231   4.050  0.1302 -0.2492 -1.5893
  367MOL0     H49483   6.899   7.270   4.130 -0.2479 -3.3799 -2.9976
  367MOL0     H49484   7.094   7.502   4.038  2.2803  2.0096  2.6156
  367MOL0     H49485   7.089   7.436   4.198 -0.2574 -0.2757 -1.1204
  367MOL0     H49486   6.962   7.639   4.201  0.1587  0.2555  0.2384
  367MOL0     H49487   6.859   7.579   4.065 -0.3877 -0.2207  0.4893
  367MOL0     H49488   6.740   7.438   4.204 -0.5826  0.6489  0.2309
  367MOL0     H49489   6.872   7.433   4.325 -0.0310 -0.5081 -0.3527
  367MOL0     H49490   6.698   7.688   4.255  1.6220 -1.8605 -2.2761
  367MOL0     H49491   6.665   7.569   4.387 -0.7721 -1.7529 -1.9977
  367MOL0     H49492   6.901   7.754   4.350 -0.1374  1.1672  1.1792
  367MOL0     H49493   6.864   7.653   4.500 -1.5725 -1.7503 -0.2281
  367MOL0     H49494   6.812   7.903   4.499 -0.8573  1.4635 -1.3661
  367MOL0     H49495   6.673   7.874   4.401 -0.4377 -0.5941  0.5213
  367MOL0     H49496   6.542   7.973   4.627  1.3684 -0.0883 -2.0722
  367MOL0     H49497   6.404   7.977   4.848 -1.4203 -1.2150 -2.6796
  367MOL0     H49498   6.358   7.814   4.885 -0.6690 -0.4616  1.5179
  367MOL0     H49499   6.415   7.893   5.087 -0.5559  0.4652 -0.6373
  367MOL0     H49500   6.556   7.798   5.047  1.5393  0.8874  0.5028
  367MOL0     H49501   6.665   8.009   4.981 -0.3825 -0.4426  0.0981
  367MOL0     H49502   6.668   7.961   5.145  0.2857 -1.1174 -0.7352
  367MOL0     H49503   6.448   8.102   5.183  1.2642  0.2534  1.5938
  367MOL0     H49504   6.482   8.188   5.042 -2.0739 -1.4814 -0.0933
  367MOL0     H49505   6.651   8.229   4.910 -0.1215  3.8944 -3.9536
  367MOL0     H49506   6.828   8.324   4.796  2.2194 -0.4662  0.2694
  367MOL0     H49507   7.267   8.247   4.793 -5.5004  3.6090 -2.8945
  367MOL0     H49508   7.483   8.259   4.648  3.5945  0.1384  1.6334
  367MOL0     H49509   7.636   8.329   4.525 -2.9300  0.1226 -0.3635
  367MOL0     H49510   7.573   8.476   4.437 -0.1837  0.3966 -0.8134
  367MOL0     H49511   7.807   8.573   4.526  1.1758 -1.0923  1.3096
  367MOL0     H49512   7.856   8.405   4.520  2.8997  1.5501 -0.3163
  367MOL0     H49513   7.741   8.444   4.275  1.0245 -0.6943  1.6242
  367MOL0     H49514   7.780   8.609   4.326 -0.9037 -0.3106  0.7513
  367MOL0     H49515   7.998   8.384   4.310  2.2628  1.1277  1.8721
  367MOL0     H49516   8.013   8.558   4.363 -1.7390  1.3652  0.0186
  367MOL0     H49517   7.959   8.645   4.144 -0.1697 -1.0617  1.1849
  367MOL0     H49518   7.927   8.495   4.076  3.4645 -4.3885 -0.9727
  367MOL0     H49519   8.153   8.404   4.118  0.7752  0.3997  1.0722
  367MOL0     H49520   8.161   8.541   4.009 -0.8650  2.3957 -0.3199
  367MOL0     H49521   8.207   8.572   4.311  2.7001  0.7511  1.6863
  367MOL0     H49522   8.215   8.695   4.179  0.4872 -1.0097 -4.6546
  367MOL0     H49523   8.421   8.613   4.276 -2.3271  1.8751  1.4404
  367MOL0     H49524   8.383   8.445   4.243  2.1216 -0.5276  0.1711
  367MOL0     H49525   7.500   8.673   4.760  0.5088 -0.0125  1.2105
  367MOL0     H49526   7.331   8.653   4.914 -1.3977 -2.7011  3.8242
  367MOL0     H49527   7.019   8.427   5.178 -1.6310  2.1923  1.1152
  367MOL0     H49528   6.853   8.306   5.283 -0.1880 -0.2767 -0.2066
  367MOL0     H49529   6.855   6.994   3.720  1.9955 -1.2534 -1.5791
  367MOL0     H49530   6.812   6.962   3.467  0.1955  0.1706 -1.8777
  367MOL0     H49531   6.396   7.138   3.133  1.3944  0.0367  2.9088
  367MOL0     H49532   6.333   7.201   2.904 -0.3940  0.2062  2.3047
  367MOL0     H49533   6.628   7.420   2.632 -0.8866  1.7718 -1.0230
  367MOL0     H49534   6.500   7.502   2.721 -0.7540  0.5831 -1.5016
  367MOL0     H49535   6.497   7.375   2.449  0.6247  0.4604 -0.3419
  367MOL0     H49536   6.462   7.537   2.485  0.7878 -1.0587 -1.8973
  367MOL0     H49537   6.239   7.467   2.592  0.3158  2.1537 -2.0993
  367MOL0     H49538   6.288   7.299   2.578  1.0798 -0.7220  1.6566
  367MOL0     H49539   6.320   7.360   2.315  0.1385  1.3121 -0.2910
  367MOL0     H49540   6.161   7.331   2.394  0.0241 -0.4492  2.1889
  367MOL0     H49541   6.102   7.725   2.286 -2.2322  0.1885  1.8157
  367MOL0     H49542   6.737   7.334   2.826 -0.0437  0.0447  1.5962
  367MOL0     H49543   6.846   7.334   3.172  1.0577  1.0700 -0.0913
  367MOL0     H49544   6.922   7.259   3.026  2.8960  3.9506 -0.9745
  367MOL0     H49545   6.858   7.426   3.035 -1.4079  1.4037  2.2709
  368MOL0     O49546   9.205   2.869   6.203  0.8621  0.2080 -0.6602
  368MOL0     C49547   9.147   2.892   6.097  1.2146  0.4688 -1.1103
  368MOL0     O49548   9.124   2.788   6.017 -0.3017 -0.2395 -0.2435
  368MOL0     C49549   9.144   2.661   6.061  1.5027 -0.1514 -0.0713
  368MOL0     C49550   9.040   2.613   6.141 -0.0312 -0.7985  0.0097
  368MOL0     C49551   9.045   2.480   6.186 -0.4857 -0.6925 -0.2200
  368MOL0     C49552   9.150   2.396   6.144 -0.3341 -0.1586 -0.2063
  368MOL0     O49553   9.137   2.264   6.172 -0.3740 -0.3868 -0.5691
  368MOL0     C49554   9.058   2.226   6.287 -0.2073 -1.0456 -1.2071
  368MOL0     C49555   9.065   2.078   6.330 -0.2340 -1.4836 -0.1112
  368MOL0     C49556   9.197   2.010   6.308  0.2470 -0.9957 -0.0425
  368MOL0     C49557   9.170   1.862   6.280 -0.4334  0.9594 -0.3455
  368MOL0     C49558   9.297   1.773   6.264 -0.0936 -0.2721  0.3014
  368MOL0     C49559   9.335   1.692   6.388 -0.7175  1.0023  0.2866
  368MOL0     C49560   9.439   1.578   6.341  0.1900 -1.6526 -1.5032
  368MOL0     C49561   9.556   1.644   6.275 -0.2181 -0.9704  1.9090
  368MOL0     N49562   9.669   1.549   6.264 -0.4948  0.4700 -0.3250
  368MOL0     C49563   9.782   1.555   6.341  0.8297  0.0898 -0.4800
  368MOL0     C49564   9.841   1.436   6.333  0.7373 -0.2765  0.2181
  368MOL0     C49565   9.972   1.398   6.381 -0.7262  0.2907 -0.4314
  368MOL0     C49566  10.012   1.257   6.350  0.1666 -0.6330 -0.2433
  368MOL0     C49567  10.134   1.220   6.436 -0.7447 -0.1768 -0.0514
  368MOL0     C49568  10.180   1.067   6.413  1.2121 -0.9130 -0.3221
  368MOL0     O49569  10.267   1.066   6.300  0.1478  0.4160 -0.2739
  368MOL0     C49570  10.260   0.944   6.251  0.6160  0.1601 -0.1011
  368MOL0     C49571  10.175   0.895   6.154  0.4411  0.4707  0.8151
  368MOL0     C49572  10.168   0.760   6.126  1.0612 -0.3503 -0.8934
  368MOL0     C49573  10.252   0.666   6.200  0.0588 -0.8098  0.0615
  368MOL0     C49574  10.230   0.521   6.172  0.6803 -0.0601  0.2038
  368MOL0     O49575  10.115   0.498   6.098 -0.1343  0.4852 -0.2272
  368MOL0     C49576  10.087   0.364   6.061 -0.9328 -1.0305 -0.3677
  368MOL0     C49577  10.152   0.314   5.953  0.2665  0.5984  0.6058
  368MOL0     C49578  10.108   0.181   5.900 -0.6127 -0.2726  0.4006
  368MOL0     C49579  10.013   0.103   5.963 -0.6913  0.1082  0.0658
  368MOL0     O49580   9.986  -0.018   5.908 -0.4892  0.5078  0.3618
  368MOL0     C49581   9.901  -0.112   5.964  0.2792 -0.1214  0.3504
  368MOL0     C49582   9.884  -0.208   5.843  0.1970 -0.4262  0.7078
  368MOL0     C49583   9.817  -0.155   5.714 -0.2639  0.1699  0.3837
  368MOL0     C49584   9.754  -0.271   5.630 -0.0680  0.6183  0.9869
  368MOL0     C49585   9.878  -0.347   5.566  0.0934  0.6202 -0.1699
  368MOL0     C49586   9.851  -0.418   5.435  0.2291 -0.4231 -0.0015
  368MOL0     C49587   9.933  -0.547   5.429  0.6750  0.4636  0.4049
  368MOL0     C49588   9.900  -0.635   5.305 -0.3283 -0.1297  0.0863
  368MOL0    Cl49589  10.006  -0.775   5.321  0.1857  0.9782 -0.4480
  368MOL0     C49590   9.965   0.155   6.078 -0.2326 -0.8113  0.1992
  368MOL0     C49591   9.994   0.283   6.124 -0.0838  0.1288 -0.0933
  368MOL0     O49592  10.299   0.440   6.237  0.0760  0.5441 -0.7453
  368MOL0     C49593  10.334   0.713   6.296 -1.1938 -0.7418 -0.5865
  368MOL0     C49594  10.345   0.852   6.321  0.8006  0.1690  0.3237
  368MOL0     N49595   9.769   1.367   6.246  0.1924 -0.1109  0.0658
  368MOL0     N49596   9.667   1.429   6.208 -1.8508  0.1267 -0.0146
  368MOL0     C49597   9.251   2.445   6.079 -0.1559 -0.5584  0.4332
  368MOL0     C49598   9.248   2.583   6.040  0.1205 -0.1088  0.4689
  368MOL0     C49599   9.101   3.033   6.066  0.5302 -1.0233 -0.3144
  368MOL0     C49600   9.124   3.134   6.164 -0.7603  0.1850  0.2256
  368MOL0     C49601   9.089   3.269   6.145  0.1109  0.1134  0.0612
  368MOL0     C49602   9.021   3.314   6.034 -0.0957  0.1561 -0.5776
  368MOL0     O49603   8.986   3.446   6.022  0.3028  0.3575  0.2293
  368MOL0     C49604   8.905   3.483   5.919  0.5085  0.4003  0.4764
  368MOL0     C49605   8.870   3.629   5.935  0.0167 -0.5410 -0.7075
  368MOL0     C49606   9.001   3.717   5.960  0.5460 -0.3443  0.5351
  368MOL0     C49607   8.989   3.869   5.986 -0.2621  0.4006 -1.0247
  368MOL0     C49608   8.969   3.947   5.864 -0.5029  0.2369  0.1161
  368MOL0     C49609   8.960   4.020   5.765  0.5480 -0.1622 -1.0324
  368MOL0     C49610   9.001   3.210   5.936  1.0175  0.8647 -0.1665
  368MOL0     C49611   9.032   3.070   5.948 -0.7605 -0.3361  0.6217
  368MOL0     C49612   8.980   2.979   5.833 -0.8885 -0.3368  1.0392
  368MOL0     H49613   8.959   2.681   6.164 -0.0719  0.1610 -2.5995
  368MOL0     H49614   8.960   2.455   6.249 -0.8373  1.6708  0.3453
  368MOL0     H49615   9.087   2.288   6.373 -3.5698  1.1503 -1.4429
  368MOL0     H49616   8.952   2.248   6.271  0.1595  2.5262  0.2485
  368MOL0     H49617   8.987   2.030   6.271 -0.4873 -1.5404  0.2623
  368MOL0     H49618   9.036   2.066   6.435 -0.9230  1.1894  0.0779
  368MOL0     H49619   9.264   2.023   6.394  0.7871  0.1164 -0.6026
  368MOL0     H49620   9.245   2.056   6.221 -0.9325 -1.5798 -1.0329
  368MOL0     H49621   9.108   1.814   6.356  0.9227  1.9967  1.5008
  368MOL0     H49622   9.116   1.853   6.186  0.2861  1.0034 -0.7671
  368MOL0     H49623   9.276   1.690   6.197 -2.3096  1.6249 -1.5065
  368MOL0     H49624   9.378   1.837   6.225 -0.2435 -1.4676 -2.1571
  368MOL0     H49625   9.371   1.745   6.476 -0.3503  0.2203  0.6152
  368MOL0     H49626   9.244   1.647   6.428 -2.4428  4.2639  0.3468
  368MOL0     H49627   9.390   1.502   6.279 -4.7283 -3.2253  3.4740
  368MOL0     H49628   9.486   1.524   6.423  0.1654  1.9783  1.1666
  368MOL0     H49629   9.520   1.674   6.176  1.9859 -3.0696  0.3598
  368MOL0     H49630   9.579   1.736   6.330  2.0440  1.1620 -2.1480
  368MOL0     H49631   9.807   1.639   6.405  2.2975 -0.8724  0.2772
  368MOL0     H49632  10.041   1.467   6.332  0.7777 -2.0734 -1.8537
  368MOL0     H49633   9.977   1.415   6.489  0.0367 -0.9003 -0.2608
  368MOL0     H49634   9.922   1.195   6.360  1.0115 -1.7212  0.8146
  368MOL0     H49635  10.049   1.248   6.247  4.9465  3.9974  0.5913
  368MOL0     H49636  10.102   1.244   6.538  0.8113  0.2176  0.3582
  368MOL0     H49637  10.221   1.282   6.415 -1.8054  1.3069 -0.2518
  368MOL0     H49638  10.087   1.008   6.412 -1.1110  2.4732 -0.1546
  368MOL0     H49639  10.241   1.047   6.502  1.4363  0.9828 -0.0125
  368MOL0     H49640  10.092   0.955   6.115  1.9154  1.7414 -0.5312
  368MOL0     H49641  10.100   0.733   6.046 -1.5246  3.1326 -0.1049
  368MOL0     H49642  10.234   0.358   5.896 -0.8573  1.2149 -0.6166
  368MOL0     H49643  10.158   0.132   5.817  2.4332  0.6303  1.5800
  368MOL0     H49644   9.954  -0.168   6.042  0.1710 -2.4985 -1.2077
  368MOL0     H49645   9.807  -0.068   6.001 -1.0001  0.0151 -2.8056
  368MOL0     H49646   9.983  -0.252   5.826 -0.3261 -0.6704 -2.3156
  368MOL0     H49647   9.810  -0.280   5.880 -1.3901  1.1990  0.8197
  368MOL0     H49648   9.729  -0.094   5.736 -0.5194 -0.2147  0.4582
  368MOL0     H49649   9.892  -0.095   5.664 -0.7158  1.4895  1.2419
  368MOL0     H49650   9.685  -0.232   5.555  1.1743 -1.1182 -1.1701
  368MOL0     H49651   9.699  -0.341   5.693  1.6495 -1.1725  0.5898
  368MOL0     H49652   9.923  -0.418   5.636  0.5327  0.4448 -0.6219
  368MOL0     H49653   9.948  -0.267   5.543 -1.2836  1.7616 -0.4860
  368MOL0     H49654   9.743  -0.434   5.429  0.2307 -0.3131 -0.3787
  368MOL0     H49655   9.878  -0.352   5.351 -1.1259  2.3350  1.5672
  368MOL0     H49656   9.908  -0.602   5.520 -2.7982 -0.5502 -0.9751
  368MOL0     H49657  10.039  -0.523   5.431  0.8799 -0.4206  0.6969
  368MOL0     H49658   9.793  -0.658   5.298 -1.2016  2.2824  3.0699
  368MOL0     H49659   9.937  -0.595   5.211  2.5084 -1.5748  0.4870
  368MOL0     H49660   9.892   0.100   6.137  0.5273  0.3939  2.3696
  368MOL0     H49661   9.941   0.331   6.206 -1.7656  1.1369 -1.6923
  368MOL0     H49662  10.408   0.652   6.348 -0.0788 -0.1970 -1.4898
  368MOL0     H49663  10.415   0.879   6.400  0.0538 -1.3634  1.5591
  368MOL0     H49664   9.323   2.368   6.054  2.8631  2.4632 -1.0758
  368MOL0     H49665   9.337   2.614   5.986  1.6298 -3.2043  0.9475
  368MOL0     H49666   9.167   3.103   6.259  0.6853 -0.1966 -0.5302
  368MOL0     H49667   9.115   3.337   6.225  2.5421 -3.8894  3.0748
  368MOL0     H49668   8.810   3.428   5.915  0.7273  0.0915 -2.8759
  368MOL0     H49669   8.958   3.478   5.824  1.7410  3.7977  0.8543
  368MOL0     H49670   8.793   3.646   6.010 -0.8430 -0.8684 -1.4896
  368MOL0     H49671   8.830   3.661   5.838 -1.0030  2.6920  0.6253
  368MOL0     H49672   9.074   3.680   5.888 -0.6561 -2.9316  0.5228
  368MOL0     H49673   9.058   3.692   6.049  2.2733  0.3237 -0.3466
  368MOL0     H49674   8.911   3.905   6.054  0.1396  0.6152 -0.6701
  368MOL0     H49675   9.076   3.899   6.046  1.4798  0.9980 -3.6565
  368MOL0     H49676   8.936   4.089   5.686 -0.9412  2.0495  1.1873
  368MOL0     H49677   8.951   3.240   5.845 -3.0149  0.1701  1.6178
  368MOL0     H49678   9.062   2.919   5.792 -0.6395  1.8672 -2.0034
  368MOL0     H49679   8.901   2.911   5.868 -0.5434 -1.6281 -0.5539
  368MOL0     H49680   8.945   3.037   5.748 -0.5033  0.5292  1.4649
  369MOL0     O49681  10.087   7.273   9.037  0.2340  0.7482  0.3428
  369MOL0     C49682  10.070   7.179   8.961 -0.0423 -0.5598 -0.3137
  369MOL0     O49683  10.168   7.094   8.914 -0.4763  0.4174 -0.6619
  369MOL0     C49684  10.295   7.083   8.975 -0.2920 -0.2258 -0.5305
  369MOL0     C49685  10.356   6.956   8.981  0.0502 -0.4351 -1.0534
  369MOL0     C49686  10.488   6.938   9.030  0.1552  0.5410  0.8397
  369MOL0     C49687  10.562   7.045   9.081  0.7135  0.7626  0.5532
  369MOL0     O49688  10.683   7.036   9.146  0.0989 -0.6571 -0.0905
  369MOL0     C49689  10.796   6.977   9.086  0.0765 -0.0836  0.6631
  369MOL0     C49690  10.922   7.036   9.158 -0.3354 -0.0614 -0.6663
  369MOL0     C49691  11.047   6.975   9.101 -0.1614 -0.5087 -0.9802
  369MOL0     C49692  11.166   6.985   9.199 -0.1456  0.1438  0.0918
  369MOL0     C49693  11.290   6.921   9.145  0.5875 -0.1223  0.2619
  369MOL0     C49694  11.408   6.969   9.234  0.9970  0.2564  0.3204
  369MOL0     C49695  11.534   6.897   9.183 -0.7028 -0.4304  0.0870
  369MOL0     C49696  11.622   6.854   9.298  0.0573  0.4116 -0.4246
  369MOL0     N49697  11.599   6.706   9.310 -0.8477 -0.2207  0.0077
  369MOL0     C49698  11.479   6.656   9.351  0.2021  0.4752 -0.8682
  369MOL0     C49699  11.473   6.532   9.297 -0.3099  0.7952  0.5868
  369MOL0     C49700  11.366   6.432   9.315  1.1918 -0.0193 -0.2613
  369MOL0     C49701  11.287   6.403   9.185 -0.0155  0.2544  0.6274
  369MOL0     C49702  11.213   6.516   9.115 -0.3930 -0.6436 -0.2296
  369MOL0     C49703  11.072   6.548   9.156 -0.1776  0.0151  0.2069
  369MOL0     O49704  11.056   6.625   9.275  0.1831 -0.4176  0.3352
  369MOL0     C49705  10.932   6.653   9.326 -0.5481 -0.8599  0.4915
  369MOL0     C49706  10.821   6.674   9.245 -1.0257  0.8246  0.5853
  369MOL0     C49707  10.685   6.666   9.285 -0.1117  0.0432  0.1567
  369MOL0     C49708  10.663   6.653   9.419  1.1421 -0.7718 -0.1177
  369MOL0     C49709  10.519   6.672   9.464 -0.3801 -0.5913 -0.5954
  369MOL0     O49710  10.420   6.693   9.369  0.0046 -0.3006 -0.9047
  369MOL0     C49711  10.302   6.759   9.411  0.8529 -0.2799  0.4203
  369MOL0     C49712  10.282   6.880   9.345  0.3084 -0.4352  0.2432
  369MOL0     C49713  10.162   6.951   9.367  0.7731 -0.5906  0.3963
  369MOL0     C49714  10.062   6.900   9.449  0.3532  0.1428  0.1364
  369MOL0     O49715   9.940   6.960   9.455  0.0386 -0.4896 -0.8090
  369MOL0     C49716   9.841   6.944   9.558 -0.5047 -0.1203  0.4360
  369MOL0     C49717   9.765   7.075   9.576  1.0449 -0.7527  0.0224
  369MOL0     C49718   9.647   7.069   9.669  0.9171 -0.1770 -0.7327
  369MOL0     C49719   9.679   7.011   9.805 -0.1109 -0.4159  0.5835
  369MOL0     C49720   9.557   7.032   9.898 -0.6952 -0.0843  1.0604
  369MOL0     C49721   9.547   6.936  10.019 -0.2962  0.3419  0.6105
  369MOL0     C49722   9.655   6.995  10.121  0.2347 -0.5072  0.1174
  369MOL0     C49723   9.604   6.952  10.261 -0.1249 -0.2683 -1.2085
  369MOL0    Cl49724   9.615   6.781  10.268  0.4179 -0.1466  0.1814
  369MOL0     C49725  10.085   6.786   9.525 -0.2164  0.4939 -0.0569
  369MOL0     C49726  10.210   6.714   9.501  0.5443 -0.1445  0.7238
  369MOL0     O49727  10.496   6.665   9.585  0.3827 -0.9824  0.2489
  369MOL0     C49728  10.771   6.636   9.512  0.4993 -0.8485  0.3491
  369MOL0     C49729  10.899   6.647   9.464  0.0325  1.1003  0.0175
  369MOL0     N49730  11.586   6.508   9.224  0.2810  0.0967 -0.6031
  369MOL0     N49731  11.657   6.622   9.221  0.9605  0.1674 -0.4352
  369MOL0     C49732  10.492   7.163   9.080 -1.3903  1.0821 -0.6811
  369MOL0     C49733  10.376   7.187   9.019 -0.1782  0.4271 -0.3797
  369MOL0     C49734   9.938   7.180   8.885 -0.2561 -0.4792  0.3984
  369MOL0     C49735   9.851   7.293   8.895 -0.6887 -0.3113 -0.2290
  369MOL0     C49736   9.732   7.295   8.835  0.5580 -0.5236  0.8736
  369MOL0     C49737   9.693   7.198   8.739 -0.3219 -0.8171 -0.9021
  369MOL0     O49738   9.579   7.214   8.664  0.3810 -0.5668  0.5303
  369MOL0     C49739   9.479   7.317   8.691 -0.3070 -0.1391  0.9260
  369MOL0     C49740   9.357   7.309   8.608  0.2624  0.1645  0.7813
  369MOL0     C49741   9.381   7.369   8.465 -0.5983 -0.1274 -0.4857
  369MOL0     C49742   9.246   7.366   8.395 -0.6984  0.3265  0.2315
  369MOL0     C49743   9.192   7.230   8.381 -0.4105  0.4496 -0.2942
  369MOL0     C49744   9.143   7.127   8.367 -0.4193  0.7687  0.9385
  369MOL0     C49745   9.776   7.094   8.723 -0.6755  0.5883 -0.5881
  369MOL0     C49746   9.901   7.074   8.794 -0.3751 -0.6355 -0.9347
  369MOL0     C49747   9.965   6.939   8.766 -0.3266 -0.7197 -0.9241
  369MOL0     H49748  10.311   6.860   8.958 -0.5114 -0.8545  1.5021
  369MOL0     H49749  10.536   6.844   9.055  1.8256  0.3642 -2.4040
  369MOL0     H49750  10.795   6.868   9.080 -0.6201  0.0106 -1.6473
  369MOL0     H49751  10.807   7.009   8.982  1.4019 -0.5470  0.6412
  369MOL0     H49752  10.913   7.021   9.266 -1.9525 -0.2510 -0.7969
  369MOL0     H49753  10.926   7.144   9.140 -0.2512 -0.5301 -4.0927
  369MOL0     H49754  11.065   7.022   9.004 -1.8035  3.9154  0.5783
  369MOL0     H49755  11.032   6.868   9.083  2.8616 -0.8254 -2.1518
  369MOL0     H49756  11.183   7.091   9.217 -0.4540 -0.1526  2.5663
  369MOL0     H49757  11.143   6.943   9.298 -1.4897  2.4537  0.8457
  369MOL0     H49758  11.269   6.814   9.155  1.9804 -0.6076 -1.3662
  369MOL0     H49759  11.299   6.936   9.037 -0.4425  0.1842  0.2195
  369MOL0     H49760  11.417   7.077   9.223 -0.1016  0.1765 -1.7160
  369MOL0     H49761  11.393   6.957   9.342  2.0977  3.0969  0.8872
  369MOL0     H49762  11.586   6.972   9.123  1.1717 -0.8726  1.0771
  369MOL0     H49763  11.514   6.814   9.115 -0.4032 -0.8756  0.5333
  369MOL0     H49764  11.723   6.866   9.259  0.3875  4.5446  1.1792
  369MOL0     H49765  11.608   6.917   9.387  2.7970  0.0777  0.3453
  369MOL0     H49766  11.400   6.703   9.408  0.6423  0.3036 -0.0942
  369MOL0     H49767  11.407   6.335   9.346 -1.8116 -0.7141  1.9481
  369MOL0     H49768  11.290   6.461   9.388  1.1386  0.5890 -0.5538
  369MOL0     H49769  11.364   6.365   9.117 -0.4769  1.3962 -0.5736
  369MOL0     H49770  11.215   6.324   9.206 -0.9612  0.6917 -0.9034
  369MOL0     H49771  11.214   6.501   9.007 -1.3842  1.4966 -0.5991
  369MOL0     H49772  11.267   6.609   9.134 -3.3569  0.5091  4.0198
  369MOL0     H49773  11.020   6.452   9.152 -3.2920  1.4497  2.4401
  369MOL0     H49774  11.040   6.617   9.077  2.3129  1.3615  0.2567
  369MOL0     H49775  10.826   6.669   9.137 -1.4049 -0.8763  0.6030
  369MOL0     H49776  10.603   6.693   9.219 -1.9044 -1.8205  1.4721
  369MOL0     H49777  10.357   6.917   9.275 -2.4657  2.2072 -1.6050
  369MOL0     H49778  10.156   7.052   9.328  0.7992 -0.6422  0.2600
  369MOL0     H49779   9.783   6.855   9.533  1.0802 -0.7530 -1.2299
  369MOL0     H49780   9.882   6.928   9.658  1.4646  1.5985 -0.0361
  369MOL0     H49781   9.829   7.153   9.619 -0.0840 -0.2760  0.9051
  369MOL0     H49782   9.720   7.109   9.482 -2.1272 -0.4149  1.5494
  369MOL0     H49783   9.625   7.175   9.682  1.8904  0.4484 -3.4780
  369MOL0     H49784   9.556   7.023   9.630  1.5733 -1.6984 -0.5412
  369MOL0     H49785   9.765   7.069   9.840  0.1196  0.3081 -1.0721
  369MOL0     H49786   9.722   6.911   9.800  1.4465  0.2728 -1.5260
  369MOL0     H49787   9.466   7.017   9.838 -0.0326 -0.0134  0.0085
  369MOL0     H49788   9.552   7.137   9.926  2.4717  0.4394  0.0214
  369MOL0     H49789   9.448   6.931  10.065 -0.4504  0.4078  0.2879
  369MOL0     H49790   9.558   6.829   9.997 -1.3093  0.4557 -0.5582
  369MOL0     H49791   9.650   7.104  10.120 -0.7098 -0.5444  0.0806
  369MOL0     H49792   9.756   6.959  10.097 -0.8081 -1.6053 -3.1900
  369MOL0     H49793   9.675   6.988  10.336 -0.0130  0.1825 -1.5273
  369MOL0     H49794   9.500   6.978  10.287  1.1416  4.0744  0.4348
  369MOL0     H49795  10.004   6.740   9.581 -0.3054  1.7667  0.9016
  369MOL0     H49796  10.222   6.615   9.545 -0.2146  0.4290  2.2812
  369MOL0     H49797  10.753   6.630   9.618  1.6531  0.0096  0.6146
  369MOL0     H49798  10.979   6.623   9.534 -2.2571 -0.0907  2.3782
  369MOL0     H49799  10.547   7.252   9.109 -1.7759  1.4511 -1.0664
  369MOL0     H49800  10.346   7.290   9.032  1.9947  1.0053  0.5640
  369MOL0     H49801   9.882   7.370   8.965  0.4677 -0.8353 -0.1353
  369MOL0     H49802   9.677   7.387   8.852  3.0066  1.8696 -2.7460
  369MOL0     H49803   9.521   7.417   8.678 -1.1366  0.1987  0.7741
  369MOL0     H49804   9.442   7.296   8.791 -0.4665 -0.7911  0.7363
  369MOL0     H49805   9.271   7.350   8.663 -1.0219 -0.1235 -0.9293
  369MOL0     H49806   9.343   7.203   8.583 -1.0153  0.8351 -1.6163
  369MOL0     H49807   9.434   7.304   8.395 -1.3242 -0.2612 -0.9248
  369MOL0     H49808   9.441   7.461   8.467  1.5697 -1.4817  0.0655
  369MOL0     H49809   9.169   7.435   8.431  0.6151  0.8712  2.1628
  369MOL0     H49810   9.267   7.397   8.293  1.4638  2.5229  1.2535
  369MOL0     H49811   9.084   7.037   8.359 -0.2656  0.7709 -0.5227
  369MOL0     H49812   9.740   7.012   8.661 -0.5082  0.9858 -1.2225
  369MOL0     H49813   9.974   6.875   8.854 -2.7381 -3.2116 -2.3299
  369MOL0     H49814   9.910   6.879   8.693 -1.6057  1.5940 -1.9871
  369MOL0     H49815  10.054   6.957   8.705  0.8392  1.0559  1.1582
  370MOL0     O49816   6.783   4.170   5.961 -0.6333  0.1103  0.7533
  370MOL0     C49817   6.850   4.132   6.055 -0.9152 -0.1382  0.1299
  370MOL0     O49818   6.961   4.199   6.100 -0.6332 -0.2196  0.3619
  370MOL0     C49819   6.979   4.330   6.067 -0.2238 -0.6170  0.5925
  370MOL0     C49820   6.969   4.430   6.166  0.7004  1.0524 -0.1685
  370MOL0     C49821   6.993   4.558   6.144  0.7761  0.5309  0.3701
  370MOL0     C49822   7.055   4.595   6.025  0.4392 -0.1741 -0.1879
  370MOL0     O49823   7.095   4.724   6.019 -0.3516  0.9780 -0.6286
  370MOL0     C49824   7.112   4.771   5.888  0.4087  0.1984  0.8088
  370MOL0     C49825   7.147   4.922   5.901 -0.5814 -0.5819  0.0662
  370MOL0     C49826   7.185   4.982   5.766 -0.6608 -1.2486 -0.9521
  370MOL0     C49827   7.260   5.117   5.779 -0.3201  0.7244  1.2629
  370MOL0     C49828   7.231   5.215   5.656 -0.5110  0.3203 -0.7897
  370MOL0     C49829   7.319   5.340   5.672  0.3973 -0.1302  0.0184
  370MOL0     C49830   7.322   5.419   5.541  0.1643 -0.5441  0.8777
  370MOL0     C49831   7.441   5.511   5.550 -0.9040  0.0908  0.6914
  370MOL0     N49832   7.451   5.606   5.430  0.6603 -0.8133 -0.1383
  370MOL0     C49833   7.353   5.679   5.364  0.5371  0.1742  1.0829
  370MOL0     C49834   7.423   5.761   5.273  0.6706  0.1585 -0.0007
  370MOL0     C49835   7.378   5.871   5.183 -0.4364  0.6093 -0.6861
  370MOL0     C49836   7.357   6.006   5.255  1.1759  0.9960  0.5029
  370MOL0     C49837   7.266   6.098   5.175 -0.3636 -0.0591  1.0753
  370MOL0     C49838   7.241   6.219   5.254  0.6574  0.7900 -0.6205
  370MOL0     O49839   7.163   6.305   5.168 -0.0698 -0.0334 -0.5084
  370MOL0     C49840   7.115   6.422   5.224  0.9019 -0.2787 -0.0813
  370MOL0     C49841   7.136   6.452   5.364  0.5816  0.8382 -0.2666
  370MOL0     C49842   7.093   6.575   5.422  0.0309  0.2919 -0.2196
  370MOL0     C49843   7.019   6.668   5.344  0.0645  0.1125  0.3369
  370MOL0     C49844   6.944   6.774   5.416 -0.0073 -0.3098 -0.0737
  370MOL0     O49845   6.975   6.792   5.549  0.2482  0.1050  0.1016
  370MOL0     C49846   6.878   6.841   5.634  0.7460  0.0954  0.5535
  370MOL0     C49847   6.924   6.905   5.752  0.5405  0.2750 -1.0497
  370MOL0     C49848   6.829   6.974   5.841 -0.5843 -0.1912  0.3979
  370MOL0     C49849   6.697   6.975   5.808 -0.5878  0.6383  0.2609
  370MOL0     O49850   6.606   7.055   5.869 -0.3242  0.7006  0.2914
  370MOL0     C49851   6.642   7.189   5.885 -0.1677 -0.4911 -0.5513
  370MOL0     C49852   6.713   7.226   6.016  1.1659 -0.6972 -1.1957
  370MOL0     C49853   6.657   7.175   6.146 -0.0017  0.0732 -0.3393
  370MOL0     C49854   6.742   7.221   6.265  0.0233 -0.3262  1.0103
  370MOL0     C49855   6.689   7.134   6.388  0.4178 -0.8732 -0.2551
  370MOL0     C49856   6.752   7.160   6.523 -0.3600 -0.3868 -0.0639
  370MOL0     C49857   6.709   7.080   6.642  0.2535 -0.2759 -0.1987
  370MOL0     C49858   6.751   7.135   6.776  0.7418  0.2569 -0.4156
  370MOL0    Cl49859   6.687   7.040   6.911 -0.5704  0.3702 -0.1347
  370MOL0     C49860   6.652   6.903   5.700 -0.4819 -0.1397 -0.4651
  370MOL0     C49861   6.733   6.838   5.615 -0.3335 -0.2483 -0.5353
  370MOL0     O49862   6.856   6.832   5.361  0.5220 -0.1760  1.2967
  370MOL0     C49863   6.989   6.636   5.212 -0.1394 -0.1081 -0.3841
  370MOL0     C49864   7.032   6.518   5.154 -0.9168 -0.0875  0.0130
  370MOL0     N49865   7.554   5.749   5.314  0.2360 -0.2597 -0.6333
  370MOL0     N49866   7.566   5.663   5.405  0.3036  0.7420 -0.1510
  370MOL0     C49867   7.074   4.503   5.917 -0.2284 -0.1208  0.4600
  370MOL0     C49868   7.041   4.369   5.947  0.6496  0.6562 -0.7584
  370MOL0     C49869   6.825   3.997   6.110  0.5857  0.3461 -0.0213
  370MOL0     C49870   6.903   3.962   6.222  0.0749 -0.3212 -0.0573
  370MOL0     C49871   6.870   3.853   6.310 -0.6953 -0.3987 -0.1632
  370MOL0     C49872   6.769   3.763   6.271 -0.2124 -0.0551 -0.6169
  370MOL0     O49873   6.751   3.640   6.338 -1.2432  0.8184  0.5032
  370MOL0     C49874   6.802   3.628   6.473  0.3934  0.2279 -0.4839
  370MOL0     C49875   6.746   3.494   6.541  0.2635  0.4283 -0.0310
  370MOL0     C49876   6.817   3.365   6.497  0.1591 -0.7219  0.7250
  370MOL0     C49877   6.775   3.330   6.347  0.0068  0.3358 -0.9996
  370MOL0     C49878   6.786   3.187   6.332  0.0434 -0.1092  0.5915
  370MOL0     C49879   6.797   3.070   6.300 -0.3632  0.2281 -1.0379
  370MOL0     C49880   6.697   3.798   6.159 -0.0327  0.8013 -0.3982
  370MOL0     C49881   6.714   3.911   6.083 -0.7728 -0.6796 -0.6395
  370MOL0     C49882   6.610   3.935   5.984 -0.0515 -0.2994  0.0464
  370MOL0     H49883   6.932   4.414   6.266 -0.3896 -1.0830 -0.8669
  370MOL0     H49884   6.989   4.630   6.225 -1.2535  0.2158  0.5873
  370MOL0     H49885   7.191   4.726   5.827 -0.3764  1.6358 -1.4167
  370MOL0     H49886   7.014   4.767   5.839  0.8399  1.0728 -0.1652
  370MOL0     H49887   7.236   4.931   5.964  0.3596  0.6584 -1.3558
  370MOL0     H49888   7.071   4.979   5.954  0.1968 -1.2790  2.0083
  370MOL0     H49889   7.089   5.017   5.727  0.0370  1.8304 -0.1313
  370MOL0     H49890   7.229   4.927   5.682  2.4219 -0.8156  0.2532
  370MOL0     H49891   7.221   5.169   5.867 -0.3853 -0.4700  1.9553
  370MOL0     H49892   7.366   5.089   5.786 -0.3900  0.5665  1.6901
  370MOL0     H49893   7.259   5.165   5.563  0.8769 -0.4570  0.0128
  370MOL0     H49894   7.125   5.236   5.673 -0.0372 -0.3572  4.9025
  370MOL0     H49895   7.275   5.404   5.749 -2.7441 -0.6053 -1.2252
  370MOL0     H49896   7.418   5.308   5.706  0.7239  2.4455  1.8113
  370MOL0     H49897   7.228   5.470   5.518  1.1445 -0.0177 -2.6882
  370MOL0     H49898   7.325   5.345   5.459 -1.4371  0.4215 -0.1141
  370MOL0     H49899   7.415   5.572   5.637  1.3473  1.5588  0.4041
  370MOL0     H49900   7.524   5.441   5.565 -1.0878  0.4766  4.6210
  370MOL0     H49901   7.246   5.667   5.375  0.5147 -1.4927 -0.5309
  370MOL0     H49902   7.462   5.883   5.114 -2.0545  0.7432 -2.7371
  370MOL0     H49903   7.282   5.843   5.138  0.2562 -2.2986 -0.4944
  370MOL0     H49904   7.309   5.994   5.353  1.6745 -1.4116  0.5242
  370MOL0     H49905   7.455   6.053   5.270  1.4017 -0.4581  5.6427
  370MOL0     H49906   7.175   6.039   5.156 -0.5417  0.0941  1.4541
  370MOL0     H49907   7.318   6.131   5.084 -2.2668  2.2100  0.7129
  370MOL0     H49908   7.337   6.260   5.288 -1.1819  3.5425  1.7212
  370MOL0     H49909   7.187   6.195   5.345  1.0519 -0.0815 -0.6128
  370MOL0     H49910   7.186   6.379   5.428  0.5200 -1.5031 -2.7030
  370MOL0     H49911   7.107   6.588   5.529  0.5738 -1.6120 -0.0200
  370MOL0     H49912   7.025   6.909   5.790 -0.2257 -1.1775  1.4208
  370MOL0     H49913   6.877   7.020   5.927  1.4996  0.6838 -1.1512
  370MOL0     H49914   6.715   7.217   5.808 -1.9648  1.0054 -1.8174
  370MOL0     H49915   6.548   7.244   5.875  0.7656  1.0546 -1.0787
  370MOL0     H49916   6.820   7.200   6.020  1.2652 -0.2711 -1.0537
  370MOL0     H49917   6.722   7.335   6.023 -0.3228 -0.6620  1.2661
  370MOL0     H49918   6.557   7.216   6.163 -0.2924 -1.1634  1.1519
  370MOL0     H49919   6.645   7.066   6.151  1.3202 -0.0085  1.9346
  370MOL0     H49920   6.739   7.330   6.268  1.8992 -0.1868 -0.5459
  370MOL0     H49921   6.843   7.184   6.245 -0.4801 -2.5854  2.2370
  370MOL0     H49922   6.704   7.027   6.370  0.3381 -0.8939 -0.1963
  370MOL0     H49923   6.581   7.150   6.396  0.2007 -2.0499 -0.6116
  370MOL0     H49924   6.859   7.156   6.503  0.5837  4.1948  2.5762
  370MOL0     H49925   6.730   7.258   6.568  0.2658 -1.2894  2.3647
  370MOL0     H49926   6.754   6.981   6.628 -0.0617 -0.6954  1.5177
  370MOL0     H49927   6.601   7.068   6.632 -0.0653  2.0688 -0.0186
  370MOL0     H49928   6.859   7.132   6.758  0.4128  0.3489 -2.7927
  370MOL0     H49929   6.724   7.241   6.784  0.2621 -0.0042  3.0544
  370MOL0     H49930   6.549   6.906   5.665 -1.4087 -1.2644  1.9163
  370MOL0     H49931   6.701   6.794   5.522  1.6671 -5.7302  0.9645
  370MOL0     H49932   6.942   6.710   5.148  1.1844  2.6126  1.5783
  370MOL0     H49933   7.025   6.485   5.051  0.4367  1.2232 -0.5350
  370MOL0     H49934   7.122   4.532   5.824 -2.2057  2.3780  0.1037
  370MOL0     H49935   7.053   4.303   5.862  0.0948  2.1062 -2.0039
  370MOL0     H49936   6.985   4.022   6.260  0.5062 -0.4838 -0.7177
  370MOL0     H49937   6.919   3.833   6.405 -2.5201  1.5401  1.2947
  370MOL0     H49938   6.762   3.714   6.528  2.0325 -0.2961  1.7162
  370MOL0     H49939   6.912   3.634   6.478  0.7026 -2.5309 -1.9936
  370MOL0     H49940   6.637   3.495   6.536  0.2365  1.5055  0.5676
  370MOL0     H49941   6.777   3.514   6.644 -0.9483 -0.9426  0.6388
  370MOL0     H49942   6.776   3.285   6.559 -1.3758  0.1521  0.9121
  370MOL0     H49943   6.925   3.382   6.501  0.1276 -0.4258  0.4201
  370MOL0     H49944   6.671   3.362   6.332 -0.2882 -1.6732 -4.0700
  370MOL0     H49945   6.835   3.376   6.268  0.2274  1.2023 -0.3481
  370MOL0     H49946   6.806   2.968   6.267 -4.4825 -0.1929 -1.3183
  370MOL0     H49947   6.604   3.744   6.142 -0.1912  0.4827  1.2957
  370MOL0     H49948   6.523   3.984   6.029  1.2210  0.9006  1.3241
  370MOL0     H49949   6.653   4.004   5.911 -0.2947 -0.8877 -0.6684
  370MOL0     H49950   6.584   3.851   5.919 -1.3003  0.4348 -0.4379
  371MOL0     O49951   5.727   9.445   4.456  0.3416  0.1800 -0.3227
  371MOL0     C49952   5.674   9.492   4.355  0.3714 -0.1083 -0.5082
  371MOL0     O49953   5.541   9.502   4.334 -0.0851  0.0554  0.6905
  371MOL0     C49954   5.457   9.453   4.425  0.7025 -1.1437 -0.3591
  371MOL0     C49955   5.426   9.323   4.452  0.2162 -0.7456 -0.2488
  371MOL0     C49956   5.312   9.287   4.534 -0.2702  0.2261  0.2199
  371MOL0     C49957   5.236   9.394   4.591 -0.7852  0.8156  0.0745
  371MOL0     O49958   5.131   9.369   4.675  0.3482  0.4372 -0.8143
  371MOL0     C49959   5.011   9.455   4.682  0.1311 -1.1095  0.9453
  371MOL0     C49960   4.905   9.386   4.762 -0.3438  0.4120 -0.2644
  371MOL0     C49961   4.757   9.426   4.725 -0.7386  0.3580  0.7329
  371MOL0     C49962   4.642   9.381   4.810  0.0013 -0.6786  0.1952
  371MOL0     C49963   4.512   9.417   4.751 -0.0232 -0.3542  0.4996
  371MOL0     C49964   4.398   9.396   4.842 -0.1557  0.0725 -0.1856
  371MOL0     C49965   4.265   9.420   4.781 -0.1624 -0.1167 -0.3567
  371MOL0     C49966   4.156   9.386   4.874  0.9872  0.0973 -0.4916
  371MOL0     N49967   4.159   9.479   4.986  0.4224 -0.0696  0.2207
  371MOL0     C49968   4.136   9.614   4.994 -0.4352 -0.0172  0.6629
  371MOL0     C49969   4.140   9.650   5.120  0.4657  1.5965 -1.0265
  371MOL0     C49970   4.124   9.786   5.174  0.0176  0.9129 -0.5181
  371MOL0     C49971   3.999   9.776   5.269 -0.0060 -0.1245 -0.0333
  371MOL0     C49972   3.944   9.911   5.308 -0.6790  0.2225  0.4509
  371MOL0     C49973   4.039   9.983   5.409 -0.6264 -0.6984  0.1444
  371MOL0     O49974   3.986  10.105   5.470  0.0184  0.5715 -0.0938
  371MOL0     C49975   4.065  10.181   5.556 -0.3194 -0.5922  0.7623
  371MOL0     C49976   4.202  10.166   5.589 -0.6843  0.1419 -0.2477
  371MOL0     C49977   4.264  10.243   5.689  0.7951  0.0479  0.8212
  371MOL0     C49978   4.189  10.342   5.752  0.3507 -0.5813  0.5403
  371MOL0     C49979   4.248  10.421   5.863  0.0624 -0.5625  0.4131
  371MOL0     O49980   4.371  10.391   5.901 -0.8884 -0.7930  0.0023
  371MOL0     C49981   4.453  10.467   5.976 -0.8753  0.1161  0.4948
  371MOL0     C49982   4.592  10.435   5.957 -0.5375 -0.8081  0.2371
  371MOL0     C49983   4.683  10.501   6.035 -0.7042 -0.5420  0.7910
  371MOL0     C49984   4.651  10.600   6.123  0.7883  0.2114 -0.2884
  371MOL0     O49985   4.737  10.673   6.191 -0.4607  0.0892  0.4128
  371MOL0     C49986   4.876  10.659   6.172  0.1813  1.0903 -0.0336
  371MOL0     C49987   4.965  10.768   6.238  0.1247  0.3828  0.0011
  371MOL0     C49988   4.964  10.901   6.178 -0.4336 -0.5971  0.0198
  371MOL0     C49989   5.056  11.006   6.243  0.2678  0.1012 -0.3011
  371MOL0     C49990   5.072  11.146   6.187 -0.2560  0.2451 -0.8623
  371MOL0     C49991   5.156  11.156   6.058 -0.1718 -0.4804 -0.8810
  371MOL0     C49992   5.194  11.295   6.028  0.6070  0.4349  0.4799
  371MOL0     C49993   5.304  11.350   6.121 -0.6069  0.2583  0.0508
  371MOL0    Cl49994   5.460  11.242   6.112 -0.2962 -0.2357  0.1934
  371MOL0     C49995   4.513  10.643   6.139 -0.2590  0.1125 -0.1253
  371MOL0     C49996   4.412  10.560   6.071 -0.9672 -1.0323 -0.1257
  371MOL0     O49997   4.180  10.521   5.892  0.5158  0.3396  0.3495
  371MOL0     C49998   4.060  10.366   5.709 -0.4851 -0.3024  0.4374
  371MOL0     C49999   4.000  10.283   5.623 -0.8769  0.8599  0.0016
  371MOL0     N50000   4.169   9.529   5.196 -0.8283  0.0557 -0.3094
  371MOL0     N50001   4.180   9.434   5.110 -0.6150 -0.2161 -0.2328
  371MOL0     C50002   5.279   9.526   4.569  0.3932  0.3663 -0.4413
  371MOL0     C50003   5.381   9.557   4.482 -0.5257  0.8908  0.6633
  371MOL0     C50004   5.760   9.560   4.263  0.0684  0.3150  0.7275
  371MOL0     C50005   5.887   9.600   4.305  0.1684 -1.9471 -0.5976
  371MOL0     C50006   5.990   9.656   4.227  0.1391 -0.4284  0.4841
  371MOL0     C50007   5.962   9.684   4.097  0.1082  0.1947  0.6258
  371MOL0     O50008   6.044   9.733   4.005  0.0853  0.4348  0.3626
  371MOL0     C50009   6.181   9.743   4.035  1.1606 -0.0491 -0.1396
  371MOL0     C50010   6.270   9.711   3.901  0.4173 -1.9950 -0.5602
  371MOL0     C50011   6.418   9.731   3.941 -0.5568  0.7088 -0.2970
  371MOL0     C50012   6.450   9.883   3.944  0.4292  0.1859  0.3351
  371MOL0     C50013   6.589   9.907   3.975  0.7828 -0.1348 -0.5193
  371MOL0     C50014   6.705   9.929   4.008 -1.1724 -0.0692  0.0440
  371MOL0     C50015   5.825   9.654   4.063 -0.1710 -1.1564  0.8288
  371MOL0     C50016   5.727   9.587   4.137 -0.1646 -0.9328 -0.1798
  371MOL0     C50017   5.596   9.568   4.070  0.3904 -0.4434 -0.2361
  371MOL0     H50018   5.494   9.251   4.408 -0.6004 -2.7420  1.5542
  371MOL0     H50019   5.282   9.187   4.564  1.6872 -0.1882  0.9573
  371MOL0     H50020   5.029   9.546   4.739 -1.4825  0.2138 -0.5461
  371MOL0     H50021   4.974   9.485   4.583  2.4130  0.6957  0.5734
  371MOL0     H50022   4.925   9.411   4.867 -0.4992 -1.5372  0.2658
  371MOL0     H50023   4.909   9.277   4.763 -1.7618  0.3390  0.6156
  371MOL0     H50024   4.731   9.387   4.626 -2.0794  0.4438  1.0332
  371MOL0     H50025   4.767   9.535   4.720  1.7271  0.1657  0.2606
  371MOL0     H50026   4.646   9.273   4.820  1.2198 -0.4940  2.1050
  371MOL0     H50027   4.653   9.428   4.908  0.5322  2.2726 -1.1549
  371MOL0     H50028   4.523   9.523   4.730  1.4972 -0.8971 -1.9133
  371MOL0     H50029   4.504   9.370   4.652  4.1104  2.7596 -1.6299
  371MOL0     H50030   4.411   9.297   4.888  0.0285  0.0263 -0.3370
  371MOL0     H50031   4.413   9.474   4.917 -0.1523  1.7814 -1.9008
  371MOL0     H50032   4.253   9.354   4.695 -2.9505  0.0858 -0.2223
  371MOL0     H50033   4.249   9.517   4.734 -2.6524 -1.7814 -3.3202
  371MOL0     H50034   4.060   9.393   4.822  1.3232 -2.8564 -1.7536
  371MOL0     H50035   4.167   9.281   4.903  0.5911  0.2373  0.1822
  371MOL0     H50036   4.117   9.675   4.907  1.1159  0.1625  0.4219
  371MOL0     H50037   4.205   9.811   5.242 -1.2263 -1.5422  2.0932
  371MOL0     H50038   4.121   9.860   5.094 -0.0527 -0.3109 -1.6882
  371MOL0     H50039   3.920   9.716   5.221 -1.7224  0.9842  1.2994
  371MOL0     H50040   4.022   9.706   5.349  1.1962  2.8050  2.3891
  371MOL0     H50041   3.851   9.881   5.358 -2.0446  1.6633 -1.0766
  371MOL0     H50042   3.939   9.970   5.216 -2.6133 -0.0801  0.3159
  371MOL0     H50043   4.136  10.004   5.362 -1.3062 -0.3286 -1.1346
  371MOL0     H50044   4.051   9.908   5.488 -1.2040 -0.1518  0.7670
  371MOL0     H50045   4.255  10.082   5.545 -0.9723 -0.7077  0.9693
  371MOL0     H50046   4.354  10.219   5.743  0.1284  0.7073  2.2829
  371MOL0     H50047   4.623  10.367   5.878 -1.4632  0.5904 -1.3803
  371MOL0     H50048   4.784  10.482   6.002 -1.0730 -0.5821 -0.3770
  371MOL0     H50049   4.906  10.571   6.230  1.6616  0.8386 -1.1239
  371MOL0     H50050   4.896  10.653   6.065 -0.7130 -0.4498 -0.1472
  371MOL0     H50051   4.931  10.776   6.341 -0.3218  0.7381 -0.1730
  371MOL0     H50052   5.071  10.737   6.238  0.0369  0.0571 -0.6080
  371MOL0     H50053   4.976  10.891   6.070 -2.1378  1.0946 -0.3854
  371MOL0     H50054   4.865  10.944   6.195 -1.4667 -0.9955 -4.0150
  371MOL0     H50055   5.153  10.955   6.255 -0.9657 -2.1106  1.0683
  371MOL0     H50056   5.011  11.011   6.343  1.4427  0.3544  0.2342
  371MOL0     H50057   5.128  11.199   6.264  1.4507 -2.1059 -0.3873
  371MOL0     H50058   4.969  11.178   6.167 -1.3388 -2.7774 -0.6642
  371MOL0     H50059   5.245  11.095   6.076  0.2680 -1.0651 -4.3509
  371MOL0     H50060   5.092  11.115   5.980 -2.7196 -0.4000  1.0189
  371MOL0     H50061   5.104  11.357   6.024 -0.2934 -0.8797 -0.6856
  371MOL0     H50062   5.241  11.299   5.929  0.4491  3.3852  0.4137
  371MOL0     H50063   5.326  11.455   6.101 -1.1855  0.6249  1.1923
  371MOL0     H50064   5.270  11.339   6.225  2.7866 -3.2685  1.0136
  371MOL0     H50065   4.476  10.714   6.212 -3.1850 -1.7529  0.3598
  371MOL0     H50066   4.312  10.577   6.108  0.0395  1.7276  1.5868
  371MOL0     H50067   3.997  10.449   5.741  1.0098  0.7863  0.6951
  371MOL0     H50068   3.900  10.294   5.582 -0.4991 -2.9559 -2.4426
  371MOL0     H50069   5.219   9.608   4.606 -1.6005 -0.7209 -1.1123
  371MOL0     H50070   5.408   9.659   4.458  0.5142  0.3728 -0.5184
  371MOL0     H50071   5.912   9.577   4.408  0.9504  1.5090  0.0942
  371MOL0     H50072   6.081   9.693   4.273  0.2378 -0.4213  0.2845
  371MOL0     H50073   6.204   9.665   4.108  0.3876 -2.2032 -2.0605
  371MOL0     H50074   6.192   9.842   4.080 -2.4965  0.0329  0.8929
  371MOL0     H50075   6.233   9.781   3.825 -2.6511 -2.4509  0.3793
  371MOL0     H50076   6.256   9.611   3.860  1.1117 -1.7042 -1.5404
  371MOL0     H50077   6.481   9.677   3.870 -1.6801 -1.3882  0.2436
  371MOL0     H50078   6.419   9.691   4.043 -1.6579 -0.8327 -0.8631
  371MOL0     H50079   6.433   9.920   3.842 -1.3090 -0.7582  0.2432
  371MOL0     H50080   6.393   9.937   4.020  1.4177 -1.6810  2.5276
  371MOL0     H50081   6.806   9.956   4.029 -2.0448  1.5655  2.5076
  371MOL0     H50082   5.795   9.675   3.960 -1.9567 -0.0545  1.5255
  371MOL0     H50083   5.541   9.659   4.095 -2.0293 -1.9445  0.2830
  371MOL0     H50084   5.605   9.556   3.961 -1.1900  0.8460 -0.5533
  371MOL0     H50085   5.535   9.480   4.094  0.5713 -0.5231 -0.0704
  372MOL0     O50086  10.328   3.655   8.464  0.2570 -0.0650 -0.4011
  372MOL0     C50087  10.451   3.660   8.493  0.1096  0.0061 -0.3154
  372MOL0     O50088  10.517   3.596   8.587 -0.0258  0.2757  0.7656
  372MOL0     C50089  10.450   3.483   8.633  0.3274  0.0698  0.3857
  372MOL0     C50090  10.451   3.470   8.774 -0.5124 -0.5794 -0.1490
  372MOL0     C50091  10.413   3.350   8.833  0.3822  0.2513 -0.0326
  372MOL0     C50092  10.364   3.247   8.757 -0.1775  0.3266 -0.3612
  372MOL0     O50093  10.304   3.145   8.830 -0.4043 -0.3315  0.2347
  372MOL0     C50094  10.165   3.129   8.800  0.1868 -0.2838  0.5424
  372MOL0     C50095  10.066   3.059   8.909 -0.7514 -0.8316  0.2108
  372MOL0     C50096  10.054   3.154   9.030  0.0949  0.4969  0.6234
  372MOL0     C50097   9.978   3.073   9.141  0.1657 -0.0853 -0.0902
  372MOL0     C50098   9.942   3.148   9.267  0.6362  0.0583  0.0471
  372MOL0     C50099   9.906   3.069   9.396  0.8880  0.3254 -0.1918
  372MOL0     C50100   9.878   3.149   9.526  0.2222  0.8791  0.5377
  372MOL0     C50101  10.001   3.205   9.583 -0.3990  0.0779 -0.6751
  372MOL0     N50102   9.966   3.302   9.697 -0.1932  0.3231  0.0427
  372MOL0     C50103   9.907   3.423   9.682  0.0332 -0.2142  0.0790
  372MOL0     C50104   9.901   3.485   9.806  0.6846 -0.0011  0.3330
  372MOL0     C50105   9.850   3.614   9.862  0.4559 -0.3407 -0.4024
  372MOL0     C50106   9.756   3.688   9.761 -0.2484 -0.4135  0.4475
  372MOL0     C50107   9.616   3.620   9.759 -0.1199  0.4114  0.6658
  372MOL0     C50108   9.542   3.636   9.619  0.6352  0.1328 -0.8581
  372MOL0     O50109   9.539   3.779   9.593  0.3184  0.4204 -1.1986
  372MOL0     C50110   9.464   3.861   9.672 -0.1838 -0.1010 -0.5204
  372MOL0     C50111   9.358   3.822   9.748 -0.2065 -0.2077  0.8363
  372MOL0     C50112   9.282   3.914   9.818 -0.6800 -0.2159 -0.5469
  372MOL0     C50113   9.300   4.052   9.805 -1.0749  0.6835  0.2832
  372MOL0     C50114   9.223   4.154   9.877  0.7617  0.6221  0.8266
  372MOL0     O50115   9.098   4.126   9.912  0.1988 -0.3115  0.1630
  372MOL0     C50116   9.049   4.221  10.003 -0.2439  0.6894  0.7127
  372MOL0     C50117   9.063   4.203  10.139  1.1021 -0.5469 -0.4188
  372MOL0     C50118   9.011   4.310  10.219 -1.1392  0.3136 -0.9044
  372MOL0     C50119   8.943   4.421  10.178  0.3728 -0.3842  0.4921
  372MOL0     O50120   8.909   4.513  10.270  0.5865 -0.1732 -0.5102
  372MOL0     C50121   8.798   4.599  10.247 -0.5367  0.2891 -0.0776
  372MOL0     C50122   8.730   4.648  10.375  0.4450  0.1007  0.5454
  372MOL0     C50123   8.600   4.731  10.359 -0.5823  0.1721 -0.4013
  372MOL0     C50124   8.550   4.788  10.493 -0.9205 -0.5345 -0.2337
  372MOL0     C50125   8.419   4.875  10.478 -0.8778  0.2674  0.4375
  372MOL0     C50126   8.294   4.797  10.508  0.7237  0.0260  0.2803
  372MOL0     C50127   8.267   4.719  10.632 -0.7270 -0.1914  1.5275
  372MOL0     C50128   8.131   4.681  10.663 -0.8647 -0.1134  0.1426
  372MOL0    Cl50129   8.064   4.553  10.555 -0.4716 -0.1435  0.8295
  372MOL0     C50130   8.930   4.443  10.031  0.7843 -0.5003 -0.6050
  372MOL0     C50131   8.991   4.337   9.954  0.0276  0.3481  0.3610
  372MOL0     O50132   9.284   4.255   9.897 -0.0061  0.1696  0.0753
  372MOL0     C50133   9.405   4.090   9.715 -0.9570 -0.0723 -0.1440
  372MOL0     C50134   9.490   3.993   9.655  0.4703  1.0372 -0.1188
  372MOL0     N50135   9.951   3.393   9.887 -1.1504  0.8622  0.2263
  372MOL0     N50136   9.971   3.280   9.828 -0.0713  0.6591 -0.4297
  372MOL0     C50137  10.352   3.262   8.618  0.2826  1.3613  0.0048
  372MOL0     C50138  10.403   3.377   8.555 -0.3136 -1.0071 -0.2723
  372MOL0     C50139  10.536   3.742   8.398 -0.1732  1.0066  1.2762
  372MOL0     C50140  10.672   3.705   8.395 -0.3028 -0.7007 -0.1530
  372MOL0     C50141  10.763   3.784   8.318 -0.3716 -0.0182  0.4016
  372MOL0     C50142  10.716   3.895   8.250 -0.1434 -0.6200  0.0986
  372MOL0     O50143  10.802   3.976   8.181 -0.1397  0.8385 -0.0841
  372MOL0     C50144  10.785   4.008   8.041 -0.1838 -0.0573 -0.4007
  372MOL0     C50145  10.923   4.058   7.991 -0.1848 -0.5438 -0.5558
  372MOL0     C50146  10.962   4.033   7.840  0.6527  0.1018  0.2985
  372MOL0     C50147  11.104   4.074   7.801  0.3923 -0.7221 -0.9516
  372MOL0     C50148  11.132   3.989   7.682 -0.0221  1.1041  0.2597
  372MOL0     C50149  11.179   3.923   7.591  0.3391  0.3298  0.2672
  372MOL0     C50150  10.580   3.922   8.240  0.7081  0.3884 -0.8413
  372MOL0     C50151  10.487   3.846   8.316  0.7623  0.3437 -0.6276
  372MOL0     C50152  10.341   3.905   8.316  0.3729 -0.6304 -0.2327
  372MOL0     H50153  10.510   3.543   8.829  2.3836 -0.6860 -2.8381
  372MOL0     H50154  10.410   3.339   8.941 -4.9307 -3.7407 -0.1748
  372MOL0     H50155  10.129   3.232   8.789  0.1430 -0.4441 -1.0206
  372MOL0     H50156  10.163   3.085   8.700  0.2290  0.3428  0.2653
  372MOL0     H50157  10.108   2.964   8.943 -2.0475 -1.6725 -0.4375
  372MOL0     H50158   9.966   3.043   8.867 -1.0983 -2.1190  1.4396
  372MOL0     H50159  10.001   3.242   8.992  0.5273  0.8316  0.7789
  372MOL0     H50160  10.152   3.185   9.068  0.8320  0.8281 -1.4183
  372MOL0     H50161   9.893   3.021   9.095  0.2533  1.1006 -1.6933
  372MOL0     H50162  10.054   2.998   9.164 -0.7780 -1.2416 -0.6196
  372MOL0     H50163  10.021   3.216   9.298  2.4715 -1.9733  0.0296
  372MOL0     H50164   9.851   3.206   9.249 -0.3966 -1.6954 -0.6514
  372MOL0     H50165   9.813   3.014   9.377  0.2913  1.5696 -1.0090
  372MOL0     H50166   9.982   2.994   9.419  1.0183  0.3386 -0.5598
  372MOL0     H50167   9.844   3.072   9.595  2.1763 -0.4502  0.1004
  372MOL0     H50168   9.806   3.225   9.496  3.0108  3.3406 -0.4190
  372MOL0     H50169  10.055   3.120   9.626  1.5955  1.0231 -1.1858
  372MOL0     H50170  10.060   3.253   9.505  2.7296 -1.9282  0.2289
  372MOL0     H50171   9.869   3.480   9.597 -0.2663  2.7297  2.0692
  372MOL0     H50172   9.793   3.594   9.953 -1.1899 -1.1940 -1.5778
  372MOL0     H50173   9.939   3.674   9.887  2.1129 -1.7800 -2.5135
  372MOL0     H50174   9.741   3.792   9.790  0.2105  0.0333 -0.8373
  372MOL0     H50175   9.810   3.701   9.666  4.2942 -0.1819  2.7813
  372MOL0     H50176   9.554   3.665   9.837 -1.9428  1.5583 -1.3030
  372MOL0     H50177   9.626   3.514   9.785  3.2816  0.3327 -0.4794
  372MOL0     H50178   9.445   3.587   9.616  1.2093 -1.0449 -0.6418
  372MOL0     H50179   9.605   3.587   9.545 -0.8032  0.9421 -2.6879
  372MOL0     H50180   9.329   3.718   9.750  2.1647 -1.1350 -2.7016
  372MOL0     H50181   9.207   3.859   9.873  0.6116 -2.4817 -0.9425
  372MOL0     H50182   9.108   4.112  10.176 -0.2776 -1.6707 -1.4085
  372MOL0     H50183   9.042   4.309  10.323  2.3853  0.0185 -1.8388
  372MOL0     H50184   8.843   4.671  10.178  2.1831 -0.3911  0.8688
  372MOL0     H50185   8.723   4.549  10.184  1.6522  2.4783 -4.9438
  372MOL0     H50186   8.721   4.558  10.436 -0.8489 -0.2932 -0.1753
  372MOL0     H50187   8.799   4.715  10.426  0.5449 -1.3981  2.4846
  372MOL0     H50188   8.627   4.815  10.295 -2.1914  0.4416 -0.7804
  372MOL0     H50189   8.524   4.664  10.319  0.9069 -3.0772  1.8390
  372MOL0     H50190   8.627   4.854  10.535 -1.9578  1.1446 -0.8273
  372MOL0     H50191   8.535   4.699  10.553  0.7115 -0.1791  0.7709
  372MOL0     H50192   8.419   4.921  10.379 -1.3486 -1.5714 -0.4617
  372MOL0     H50193   8.437   4.951  10.555 -1.7185 -1.4523  2.4415
  372MOL0     H50194   8.226   4.881  10.493  1.1558 -0.0794 -2.9584
  372MOL0     H50195   8.280   4.719  10.433  0.9104 -4.2517  4.2242
  372MOL0     H50196   8.312   4.776  10.713  1.7924 -0.7003  0.5916
  372MOL0     H50197   8.325   4.626  10.627 -0.0557  0.2844 -0.7807
  372MOL0     H50198   8.135   4.649  10.767 -3.6017  1.0469  0.7065
  372MOL0     H50199   8.071   4.773  10.669 -1.6009 -0.6376  5.1504
  372MOL0     H50200   8.887   4.535   9.995 -2.1171 -0.3221  2.7463
  372MOL0     H50201   8.995   4.359   9.848  2.0907 -4.3362 -0.7717
  372MOL0     H50202   9.435   4.193   9.695  3.6825 -1.2201 -0.2269
  372MOL0     H50203   9.570   4.028   9.590  2.8194  0.8712  2.5394
  372MOL0     H50204  10.312   3.186   8.551  0.7904 -0.5216  1.7465
  372MOL0     H50205  10.374   3.398   8.453 -0.4316 -1.6033 -0.3682
  372MOL0     H50206  10.706   3.623   8.456 -2.9924 -3.1695 -1.7036
  372MOL0     H50207  10.867   3.756   8.308 -0.8057 -2.4394  1.7606
  372MOL0     H50208  10.706   4.081   8.022  0.0391  0.0561 -0.8920
  372MOL0     H50209  10.769   3.908   7.998  0.3738 -0.3675  0.0972
  372MOL0     H50210  11.002   4.013   8.052  0.0031  1.7524  1.0413
  372MOL0     H50211  10.931   4.164   8.019 -0.1388 -0.7720  0.3253
  372MOL0     H50212  10.901   4.077   7.761  0.9033  0.7469  0.4580
  372MOL0     H50213  10.958   3.924   7.825  3.0009 -0.5300  3.2329
  372MOL0     H50214  11.106   4.181   7.775  2.9530 -0.5131 -0.2032
  372MOL0     H50215  11.185   4.058   7.872  0.5060  1.0661 -0.6179
  372MOL0     H50216  11.203   3.854   7.513 -0.6384  0.1212  0.1298
  372MOL0     H50217  10.546   4.013   8.191 -3.5289 -1.8433 -2.5788
  372MOL0     H50218  10.361   4.009   8.290  1.8576  0.0354  3.0383
  372MOL0     H50219  10.276   3.845   8.252 -1.7942  0.2547  1.0663
  372MOL0     H50220  10.295   3.891   8.414  1.4171 -3.5434 -0.0488
  373MOL0     O50221   4.269   0.632   9.223 -0.1738 -0.6296 -0.5337
  373MOL0     C50222   4.207   0.642   9.328 -0.9795 -0.7323  0.8336
  373MOL0     O50223   4.162   0.761   9.372  0.0319 -0.1007 -0.1279
  373MOL0     C50224   4.200   0.879   9.304  0.1079 -0.6716  0.1567
  373MOL0     C50225   4.267   0.980   9.378  0.0577  0.2263 -0.5237
  373MOL0     C50226   4.308   1.088   9.302 -0.1356  0.4559 -0.6471
  373MOL0     C50227   4.276   1.103   9.172 -0.0367  0.2714  0.5662
  373MOL0     O50228   4.308   1.219   9.102 -0.4618 -0.2879  0.4027
  373MOL0     C50229   4.338   1.341   9.179 -1.3325  0.5225  0.3697
  373MOL0     C50230   4.342   1.458   9.086 -0.1389 -0.6336  0.1355
  373MOL0     C50231   4.346   1.582   9.177  0.5316 -0.2478  1.2731
  373MOL0     C50232   4.382   1.707   9.102 -0.8138 -0.3057 -0.4416
  373MOL0     C50233   4.416   1.819   9.206 -0.4163 -0.4048 -0.5581
  373MOL0     C50234   4.443   1.953   9.143  0.6278 -0.3964  0.9798
  373MOL0     C50235   4.464   2.048   9.264 -0.6811 -0.0515  0.4410
  373MOL0     C50236   4.503   2.199   9.224 -0.3185  0.3397  0.3652
  373MOL0     N50237   4.472   2.298   9.318 -0.3076 -0.9625 -0.8485
  373MOL0     C50238   4.400   2.416   9.315 -0.1362  0.0359 -0.4708
  373MOL0     C50239   4.409   2.463   9.440  0.3220 -0.8850  0.5436
  373MOL0     C50240   4.362   2.597   9.489 -0.1118 -0.2101 -0.3925
  373MOL0     C50241   4.466   2.700   9.471 -1.0508  0.1229  0.5978
  373MOL0     C50242   4.470   2.742   9.321 -0.1270  0.0351 -1.0108
  373MOL0     C50243   4.555   2.871   9.301 -0.0979  0.1040  0.5417
  373MOL0     O50244   4.558   2.907   9.158  0.3672  0.1928 -0.0501
  373MOL0     C50245   4.670   2.985   9.121  0.5595  0.1069  0.9599
  373MOL0     C50246   4.680   3.007   8.980 -0.7814  0.1038  0.3239
  373MOL0     C50247   4.781   3.082   8.926 -0.2198  0.2559  0.2777
  373MOL0     C50248   4.876   3.142   9.012 -0.0689  0.5903 -0.2364
  373MOL0     C50249   4.986   3.227   8.962  1.4000 -0.9251  0.8131
  373MOL0     O50250   4.986   3.254   8.828  0.1343  0.8557  0.7243
  373MOL0     C50251   5.097   3.304   8.773 -0.0361 -1.0189  0.4495
  373MOL0     C50252   5.232   3.243   8.780  0.1275 -0.4390 -1.0282
  373MOL0     C50253   5.333   3.305   8.717 -0.5676 -0.0427 -0.3102
  373MOL0     C50254   5.305   3.420   8.637  0.5838  0.5069 -0.1665
  373MOL0     O50255   5.407   3.461   8.557 -0.2503  0.3025  0.6659
  373MOL0     C50256   5.398   3.574   8.483 -0.3568 -0.4135 -0.3785
  373MOL0     C50257   5.536   3.608   8.424 -0.5862 -0.0286  0.1209
  373MOL0     C50258   5.534   3.734   8.321 -0.0969  0.5028 -0.0688
  373MOL0     C50259   5.456   3.850   8.371 -0.3276 -1.3399 -0.2799
  373MOL0     C50260   5.533   3.930   8.484  0.2297  0.4657  0.0781
  373MOL0     C50261   5.663   3.982   8.443 -0.0556  0.4269  0.6235
  373MOL0     C50262   5.725   4.060   8.557 -0.9723 -0.5438  1.1658
  373MOL0     C50263   5.864   4.122   8.506  0.7306  0.7219  0.7770
  373MOL0    Cl50264   5.872   4.292   8.576 -0.2707  0.0730 -0.5327
  373MOL0     C50265   5.179   3.474   8.635 -0.4135  0.0416 -0.6056
  373MOL0     C50266   5.076   3.423   8.701  0.5279  0.2236 -0.8426
  373MOL0     O50267   5.070   3.257   9.040 -0.0014  0.4615 -0.4990
  373MOL0     C50268   4.863   3.116   9.152  0.0036  0.5641  0.4304
  373MOL0     C50269   4.767   3.036   9.207 -0.8421  0.9528  0.5387
  373MOL0     N50270   4.464   2.374   9.518 -0.6787 -0.2135 -0.3857
  373MOL0     N50271   4.505   2.275   9.455  0.2688 -0.1917  0.0422
  373MOL0     C50272   4.216   1.008   9.101 -0.9346 -0.1407  0.4367
  373MOL0     C50273   4.155   0.899   9.171 -0.7331  0.2071 -0.1081
  373MOL0     C50274   4.188   0.523   9.413 -0.0393 -0.9303 -0.2069
  373MOL0     C50275   4.087   0.531   9.503 -0.5882  0.1775 -0.1061
  373MOL0     C50276   4.055   0.421   9.585  0.0037 -1.0732  0.6201
  373MOL0     C50277   4.125   0.302   9.580 -0.1736  0.0874  0.0170
  373MOL0     O50278   4.097   0.194   9.652  0.0669  0.2573 -0.2073
  373MOL0     C50279   3.989   0.188   9.745  0.0205 -0.4913 -0.5853
  373MOL0     C50280   3.953   0.045   9.779  0.0603 -0.3782  0.0408
  373MOL0     C50281   3.914  -0.046   9.666 -0.3696  0.4534  0.7457
  373MOL0     C50282   3.893  -0.188   9.726 -0.2709 -0.4905  0.4916
  373MOL0     C50283   3.765  -0.193   9.792 -0.1876 -0.0373 -0.2346
  373MOL0     C50284   3.652  -0.185   9.842 -0.3643  0.2835 -0.0295
  373MOL0     C50285   4.230   0.306   9.488  0.2950  0.1371 -0.4705
  373MOL0     C50286   4.267   0.412   9.408 -1.1617 -0.0206  0.1077
  373MOL0     C50287   4.398   0.403   9.321 -0.2099  0.2065  0.1704
  373MOL0     H50288   4.283   0.968   9.485 -2.4953  1.2602  0.0287
  373MOL0     H50289   4.351   1.170   9.358 -0.5398 -0.3974  0.9668
  373MOL0     H50290   4.251   1.344   9.244 -2.7952 -2.3973 -1.2401
  373MOL0     H50291   4.431   1.323   9.235 -0.7976  1.4022 -0.2150
  373MOL0     H50292   4.260   1.458   9.014 -0.5646 -0.5700  0.6164
  373MOL0     H50293   4.431   1.435   9.027 -1.2402 -0.4411 -1.6632
  373MOL0     H50294   4.423   1.576   9.254  1.9218 -0.2323 -0.0671
  373MOL0     H50295   4.253   1.582   9.235  0.3089 -1.1530  0.9323
  373MOL0     H50296   4.473   1.684   9.046 -0.8007  1.4994 -1.2269
  373MOL0     H50297   4.310   1.741   9.027 -1.2019  2.6462  1.1126
  373MOL0     H50298   4.336   1.819   9.281  1.1884  0.4868  1.2251
  373MOL0     H50299   4.511   1.791   9.252 -1.5706 -2.3354  0.8467
  373MOL0     H50300   4.534   1.953   9.083 -0.6731  1.3664 -1.1464
  373MOL0     H50301   4.362   1.978   9.073  0.5685 -4.3121 -0.6236
  373MOL0     H50302   4.524   2.003   9.343 -0.2901 -2.9846 -1.3665
  373MOL0     H50303   4.367   2.063   9.311 -0.8343  5.4368 -0.8732
  373MOL0     H50304   4.612   2.190   9.215 -0.4407 -3.3942  0.9918
  373MOL0     H50305   4.450   2.222   9.131 -0.3124 -0.9601  0.0115
  373MOL0     H50306   4.356   2.460   9.226  0.9593 -1.0420 -1.5877
  373MOL0     H50307   4.270   2.634   9.443 -0.1765 -1.8255 -1.6231
  373MOL0     H50308   4.338   2.591   9.596 -2.0386 -3.0279 -0.8784
  373MOL0     H50309   4.435   2.788   9.528 -3.9388  0.0252 -0.6646
  373MOL0     H50310   4.563   2.664   9.505 -0.2499  1.0161 -0.6618
  373MOL0     H50311   4.369   2.761   9.283 -1.6582 -1.3139  2.0001
  373MOL0     H50312   4.518   2.663   9.263  1.4798 -0.3348  0.7128
  373MOL0     H50313   4.659   2.847   9.323 -0.1813 -0.1193  0.7074
  373MOL0     H50314   4.514   2.954   9.359  0.2563  0.0238  0.9120
  373MOL0     H50315   4.605   2.968   8.911 -0.5716 -0.1184  0.2211
  373MOL0     H50316   4.779   3.106   8.820  1.2843  0.3647  0.2587
  373MOL0     H50317   5.250   3.153   8.838  0.7231  0.8225  0.8389
  373MOL0     H50318   5.424   3.247   8.717 -1.8853 -2.4592  3.2627
  373MOL0     H50319   5.345   3.552   8.389  2.0723  0.6965 -2.1249
  373MOL0     H50320   5.361   3.665   8.530  0.7247  0.4558 -1.1622
  373MOL0     H50321   5.612   3.634   8.499 -0.5387 -3.6074  1.5343
  373MOL0     H50322   5.581   3.531   8.360 -2.1048 -0.8068 -0.0515
  373MOL0     H50323   5.633   3.763   8.286 -1.7570  2.7935 -3.5002
  373MOL0     H50324   5.491   3.695   8.228 -1.8053 -1.2013  1.3532
  373MOL0     H50325   5.358   3.824   8.413 -0.4315 -1.2891 -0.4892
  373MOL0     H50326   5.428   3.910   8.285 -1.4882 -2.0804 -0.4428
  373MOL0     H50327   5.544   3.876   8.578 -0.9483  1.3921  0.7668
  373MOL0     H50328   5.460   4.009   8.503  0.1372 -0.4285  4.5273
  373MOL0     H50329   5.740   3.906   8.428  0.4927  1.1696 -0.4220
  373MOL0     H50330   5.660   4.034   8.346  0.1581 -1.4492 -0.4367
  373MOL0     H50331   5.728   4.004   8.650 -1.0942 -1.0754  0.8503
  373MOL0     H50332   5.649   4.138   8.572  0.3631  1.2866 -0.9607
  373MOL0     H50333   5.945   4.057   8.539 -2.6645 -3.1313  2.3343
  373MOL0     H50334   5.860   4.136   8.397 -4.5324  1.0484  0.7578
  373MOL0     H50335   5.153   3.562   8.576  0.2174  0.1922 -0.6756
  373MOL0     H50336   4.975   3.462   8.709  0.5734  1.2309 -3.7572
  373MOL0     H50337   4.932   3.158   9.225  1.0846 -0.7114  0.1812
  373MOL0     H50338   4.766   3.012   9.313  0.3248 -0.5336  0.2402
  373MOL0     H50339   4.202   1.022   8.994  1.5494  0.5950  0.1474
  373MOL0     H50340   4.103   0.822   9.115  0.3413  1.5774 -3.1888
  373MOL0     H50341   4.031   0.621   9.528  2.2029  2.0840 -0.2872
  373MOL0     H50342   3.984   0.444   9.664  0.9303 -0.0386  1.1782
  373MOL0     H50343   3.903   0.236   9.697 -0.8377 -0.9451  0.4535
  373MOL0     H50344   4.017   0.248   9.832 -0.5844 -1.0704  0.0211
  373MOL0     H50345   3.865   0.038   9.844  1.8773  0.7791  2.8558
  373MOL0     H50346   4.043   0.005   9.827 -1.0422  0.5633  3.1143
  373MOL0     H50347   3.985  -0.042   9.584 -1.3878  3.5132 -0.1297
  373MOL0     H50348   3.819  -0.010   9.624 -1.5894 -2.2448  0.9786
  373MOL0     H50349   3.893  -0.252   9.638  3.8524  1.1754 -0.9188
  373MOL0     H50350   3.983  -0.216   9.782 -0.6267 -1.8311  0.4273
  373MOL0     H50351   3.556  -0.181   9.890  0.3839 -0.2214  1.5654
  373MOL0     H50352   4.293   0.221   9.467  2.3651  1.9906 -2.1992
  373MOL0     H50353   4.444   0.304   9.317  0.1274  0.3486  0.4780
  373MOL0     H50354   4.378   0.434   9.218 -0.2829 -0.0185  0.1174
  373MOL0     H50355   4.460   0.481   9.365 -0.1725  0.5797 -0.5279
  374MOL0     O50356   0.497   5.474   8.754 -0.3428 -0.3780 -0.5466
  374MOL0     C50357   0.470   5.370   8.702  0.0143 -0.5302  0.8633
  374MOL0     O50358   0.353   5.307   8.725 -0.4336  0.1546  0.1395
  374MOL0     C50359   0.258   5.359   8.817 -0.2892  0.3167 -0.5398
  374MOL0     C50360   0.213   5.293   8.935  0.2956  0.5801 -0.0462
  374MOL0     C50361   0.113   5.356   9.011 -1.0963  0.3613 -1.1738
  374MOL0     C50362   0.042   5.468   8.967  1.1821 -0.6155 -0.8690
  374MOL0     O50363  -0.072   5.523   9.025 -0.9691 -0.3645  0.5014
  374MOL0     C50364  -0.124   5.467   9.139 -0.5264 -1.1685 -0.3677
  374MOL0     C50365  -0.204   5.340   9.098  0.6629  0.1389 -0.5515
  374MOL0     C50366  -0.285   5.278   9.217 -0.2673  0.5325  0.6698
  374MOL0     C50367  -0.201   5.268   9.343 -0.8557  0.4261 -0.3166
  374MOL0     C50368  -0.244   5.142   9.422 -0.3663  0.7958 -0.0827
  374MOL0     C50369  -0.216   4.999   9.368 -0.1281  0.6429  0.6898
  374MOL0     C50370  -0.251   4.894   9.468  0.8526 -0.6800  0.5647
  374MOL0     C50371  -0.161   4.896   9.592  0.0821  1.0998  0.0600
  374MOL0     N50372  -0.167   4.781   9.678 -0.7540  0.7933  0.3912
  374MOL0     C50373  -0.248   4.670   9.673 -1.9692  0.1626  0.2632
  374MOL0     C50374  -0.232   4.604   9.788 -0.8668  0.0480 -0.5381
  374MOL0     C50375  -0.310   4.477   9.826  0.2023  0.3568 -0.2287
  374MOL0     C50376  -0.446   4.528   9.876 -0.0679 -1.0771  0.6968
  374MOL0     C50377  -0.543   4.424   9.920 -0.0894  0.1252 -0.6794
  374MOL0     C50378  -0.510   4.351  10.057  0.2464 -0.1056  1.0036
  374MOL0     O50379  -0.581   4.223  10.053 -0.0003  0.3667  0.5155
  374MOL0     C50380  -0.539   4.130  10.147  0.2691 -1.4838 -0.3932
  374MOL0     C50381  -0.438   4.148  10.254 -0.1141 -0.1425 -0.1326
  374MOL0     C50382  -0.403   4.043  10.348 -0.5271  0.6402 -0.4746
  374MOL0     C50383  -0.481   3.924  10.346  0.3133 -0.1808  0.5703
  374MOL0     C50384  -0.462   3.814  10.443  0.1027  0.4858 -0.6585
  374MOL0     O50385  -0.355   3.829  10.521  0.4406 -1.0047 -0.5216
  374MOL0     C50386  -0.335   3.762  10.632  0.2340  0.3297 -0.6952
  374MOL0     C50387  -0.329   3.618  10.628 -0.0616 -0.1515  1.1013
  374MOL0     C50388  -0.319   3.534  10.740 -0.3251 -1.1908  0.1688
  374MOL0     C50389  -0.338   3.594  10.866 -1.1994 -0.0473  0.0392
  374MOL0     O50390  -0.328   3.520  10.972 -0.0438  0.0627 -0.0881
  374MOL0     C50391  -0.205   3.462  10.992 -0.0841 -0.1489 -0.5300
  374MOL0     C50392  -0.210   3.356  11.105 -0.3306  0.9132  0.4727
  374MOL0     C50393  -0.077   3.307  11.150  0.4267 -0.2627  0.5212
  374MOL0     C50394  -0.004   3.419  11.227  0.6324 -0.0917  1.3430
  374MOL0     C50395   0.128   3.359  11.280  0.0480 -0.5721  0.3404
  374MOL0     C50396   0.210   3.453  11.372 -0.5244 -0.6156 -0.6613
  374MOL0     C50397   0.137   3.488  11.508  0.5270  0.4461 -0.4649
  374MOL0     C50398   0.074   3.365  11.575  0.1492  0.0201 -0.6266
  374MOL0    Cl50399   0.208   3.229  11.568  0.4465 -0.6011  0.7045
  374MOL0     C50400  -0.343   3.735  10.874 -0.6242 -0.4209  0.9427
  374MOL0     C50401  -0.338   3.814  10.759 -0.5875  0.4994  0.4266
  374MOL0     O50402  -0.545   3.725  10.443 -0.6321  0.2361 -0.1814
  374MOL0     C50403  -0.569   3.911  10.233  0.3845 -0.1202  0.3824
  374MOL0     C50404  -0.596   4.009  10.138 -0.3971 -0.2971  0.0252
  374MOL0     N50405  -0.137   4.666   9.864  0.5609  0.0713  1.0832
  374MOL0     N50406  -0.110   4.782   9.800 -1.1544  0.4515 -0.1425
  374MOL0     C50407   0.075   5.521   8.845  0.3975 -0.5188  1.1905
  374MOL0     C50408   0.183   5.472   8.771 -0.0696  0.1079  0.3221
  374MOL0     C50409   0.574   5.325   8.595  0.2722  0.0176 -0.5308
  374MOL0     C50410   0.709   5.383   8.588 -0.3228 -0.0887  0.2608
  374MOL0     C50411   0.772   5.371   8.468 -0.6966  0.3266 -0.0015
  374MOL0     C50412   0.733   5.293   8.360 -0.1542 -0.1797  0.4188
  374MOL0     O50413   0.824   5.268   8.259  0.3182 -0.2300  0.4349
  374MOL0     C50414   0.794   5.172   8.159 -0.3414  0.2240 -0.4559
  374MOL0     C50415   0.918   5.113   8.094 -0.8805 -0.3703  0.0088
  374MOL0     C50416   0.874   5.009   7.992 -1.0354 -0.6397 -0.2497
  374MOL0     C50417   0.950   4.879   7.994  0.8412 -0.6446 -0.4022
  374MOL0     C50418   0.925   4.813   8.121 -0.3107 -0.2541 -0.1443
  374MOL0     C50419   0.888   4.753   8.220  1.0986  0.1954 -0.4558
  374MOL0     C50420   0.612   5.225   8.371 -0.0242  0.5307  0.4560
  374MOL0     C50421   0.533   5.234   8.485 -0.9432 -0.3268  0.1126
  374MOL0     C50422   0.401   5.183   8.472  0.2544  0.2471  1.0248
  374MOL0     H50423   0.247   5.194   8.965 -5.9001 -0.6175  5.1751
  374MOL0     H50424   0.094   5.301   9.103  1.4935  1.7269  0.2850
  374MOL0     H50425  -0.045   5.457   9.214 -0.3807  0.0597 -0.3252
  374MOL0     H50426  -0.205   5.531   9.177 -1.9422 -2.9716 -0.2111
  374MOL0     H50427  -0.141   5.265   9.049 -0.8679 -2.7088  1.5096
  374MOL0     H50428  -0.276   5.380   9.026 -1.2903  0.5894  1.5587
  374MOL0     H50429  -0.308   5.175   9.188  3.0464  0.2200 -1.3767
  374MOL0     H50430  -0.371   5.341   9.243  1.1711  1.6912  2.9243
  374MOL0     H50431  -0.096   5.255   9.318 -0.4264 -0.9101  1.8703
  374MOL0     H50432  -0.193   5.353   9.411  2.4775  0.8605 -1.0777
  374MOL0     H50433  -0.199   5.149   9.521 -0.6647  0.7796  0.0568
  374MOL0     H50434  -0.352   5.160   9.425 -0.0493  2.7394  2.2097
  374MOL0     H50435  -0.283   4.980   9.283  0.1823 -0.1937  0.6303
  374MOL0     H50436  -0.109   4.986   9.352  0.0372  2.9633 -0.5208
  374MOL0     H50437  -0.224   4.803   9.413  1.7587  1.8606 -3.6495
  374MOL0     H50438  -0.357   4.888   9.494  1.2111  1.6065  2.9751
  374MOL0     H50439  -0.055   4.916   9.569  0.2893 -0.0983 -0.0871
  374MOL0     H50440  -0.190   4.986   9.646  3.2536  2.9620 -1.0627
  374MOL0     H50441  -0.304   4.630   9.589  0.6605 -0.4647 -1.3132
  374MOL0     H50442  -0.328   4.425   9.732  1.0329  0.4513 -0.4419
  374MOL0     H50443  -0.274   4.421   9.913 -3.1806 -0.1654  1.0081
  374MOL0     H50444  -0.432   4.607   9.951 -0.4299  1.0673 -1.3657
  374MOL0     H50445  -0.487   4.585   9.792  4.8324  2.9618  0.5770
  374MOL0     H50446  -0.560   4.352   9.840  1.2286 -2.2298  1.0382
  374MOL0     H50447  -0.638   4.476   9.935  0.0763  1.0003 -2.3659
  374MOL0     H50448  -0.547   4.408  10.143 -1.1569 -1.9483  1.6904
  374MOL0     H50449  -0.401   4.343  10.062  0.4607 -0.7821 -2.3199
  374MOL0     H50450  -0.376   4.237  10.262  2.3344 -1.8445  1.0387
  374MOL0     H50451  -0.339   4.053  10.435 -0.8585 -2.0487  0.1525
  374MOL0     H50452  -0.312   3.576  10.529 -1.6825  0.4156  0.5516
  374MOL0     H50453  -0.299   3.428  10.729  2.1269 -0.9531  1.7088
  374MOL0     H50454  -0.158   3.422  10.902  0.4916 -0.1530 -0.2347
  374MOL0     H50455  -0.140   3.540  11.033  2.2711 -4.2049  4.7171
  374MOL0     H50456  -0.272   3.382  11.191  0.1823 -2.0038  1.8343
  374MOL0     H50457  -0.262   3.283  11.043 -0.9473  0.1297  1.8782
  374MOL0     H50458  -0.088   3.223  11.220  3.3991 -1.6187 -0.4649
  374MOL0     H50459  -0.019   3.270  11.065  1.1248  1.7431  0.0851
  374MOL0     H50460  -0.059   3.459  11.313 -0.2930 -1.7771  1.5677
  374MOL0     H50461   0.024   3.496  11.155 -0.5057  1.6899  2.7178
  374MOL0     H50462   0.197   3.327  11.201  0.0543 -1.9320  0.8764
  374MOL0     H50463   0.094   3.267  11.328  1.1971 -2.8671 -2.9160
  374MOL0     H50464   0.306   3.405  11.393 -1.0915 -1.3375  0.3995
  374MOL0     H50465   0.222   3.546  11.316 -1.3610 -0.3568 -0.4183
  374MOL0     H50466   0.051   3.552  11.486  1.2135  2.4279  2.0563
  374MOL0     H50467   0.208   3.539  11.574 -2.0859  2.7669  0.7510
  374MOL0     H50468   0.048   3.392  11.677 -1.6808  0.2480 -1.1219
  374MOL0     H50469  -0.021   3.336  11.529 -0.5623  0.1123  0.7464
  374MOL0     H50470  -0.334   3.778  10.973  0.5352  0.2918  0.5497
  374MOL0     H50471  -0.330   3.921  10.772  0.2757  0.7818 -1.9246
  374MOL0     H50472  -0.624   3.818  10.223  1.2085 -0.6694  0.8410
  374MOL0     H50473  -0.654   3.975  10.053 -1.6301 -2.7391  1.7133
  374MOL0     H50474   0.012   5.603   8.811  1.7558  0.4634  0.9924
  374MOL0     H50475   0.210   5.516   8.676  1.2065 -2.9547 -0.8675
  374MOL0     H50476   0.751   5.445   8.667  0.2914 -0.0822 -0.0687
  374MOL0     H50477   0.869   5.418   8.464 -1.7992  2.7502  0.4002
  374MOL0     H50478   0.729   5.212   8.081  0.6820  2.6232 -0.1887
  374MOL0     H50479   0.750   5.091   8.217 -2.4503 -1.4504 -4.1006
  374MOL0     H50480   0.988   5.080   8.171  1.0012 -0.8312 -1.7916
  374MOL0     H50481   0.974   5.185   8.033 -0.2660 -2.1967 -1.6927
  374MOL0     H50482   0.899   5.059   7.898 -0.5207  1.1477  0.7924
  374MOL0     H50483   0.765   4.997   7.993 -1.3632  1.7104 -1.0313
  374MOL0     H50484   0.904   4.808   7.926 -1.5347 -1.2762  1.6832
  374MOL0     H50485   1.058   4.892   7.980  1.2622  0.1675  2.7229
  374MOL0     H50486   0.852   4.697   8.304  4.3776 -0.5570  0.6244
  374MOL0     H50487   0.572   5.165   8.290 -1.8206  1.6844  0.4375
  374MOL0     H50488   0.388   5.112   8.390 -0.0319  0.7876  0.5932
  374MOL0     H50489   0.375   5.136   8.567  0.7137  1.6772  1.8787
  374MOL0     H50490   0.337   5.262   8.431 -0.1040 -0.3838  0.3395
  375MOL0     O50491  10.365   3.576  11.404 -0.2944 -0.4778 -0.2559
  375MOL0     C50492  10.434   3.635  11.489 -0.0319 -0.3856 -0.3509
  375MOL0     O50493  10.392   3.738  11.569 -0.0081 -0.5009  0.0966
  375MOL0     C50494  10.259   3.741  11.604 -0.6998 -0.3719 -0.2206
  375MOL0     C50495  10.209   3.876  11.619  0.5942 -0.0874  0.0683
  375MOL0     C50496  10.067   3.897  11.637 -0.1273  0.7274 -0.7163
  375MOL0     C50497   9.979   3.792  11.653  0.3917 -0.0460  0.9682
  375MOL0     O50498   9.847   3.819  11.675 -1.0958 -0.0405  0.0698
  375MOL0     C50499   9.751   3.705  11.713 -0.3678 -0.5944  0.5065
  375MOL0     C50500   9.732   3.693  11.865 -0.6972  1.0922  0.6736
  375MOL0     C50501   9.841   3.597  11.920  0.1952 -0.1207 -0.0105
  375MOL0     C50502   9.835   3.579  12.075 -0.2115 -0.0732  0.5727
  375MOL0     C50503   9.963   3.509  12.127 -0.1876  0.0596  0.0109
  375MOL0     C50504   9.960   3.490  12.273 -0.1076  0.2982  0.4506
  375MOL0     C50505  10.079   3.410  12.337 -0.9617  0.6317  0.3752
  375MOL0     C50506  10.197   3.495  12.374 -0.3565 -0.3000  0.0067
  375MOL0     N50507  10.317   3.417  12.405 -0.4669 -0.7998 -0.5581
  375MOL0     C50508  10.342   3.385  12.535 -0.6033  1.0443  0.5059
  375MOL0     C50509  10.446   3.294  12.534 -0.1811  0.0948  0.0101
  375MOL0     C50510  10.498   3.224  12.655 -0.6764 -0.4261 -0.4410
  375MOL0     C50511  10.550   3.315  12.771 -0.2127 -0.0763  0.4763
  375MOL0     C50512  10.694   3.351  12.755  0.6928  0.3325 -0.0587
  375MOL0     C50513  10.722   3.441  12.630  0.2845 -0.3468 -0.2489
  375MOL0     O50514  10.653   3.569  12.647 -0.2563  0.1689  0.1411
  375MOL0     C50515  10.678   3.670  12.556  0.6028  0.4927  0.0036
  375MOL0     C50516  10.777   3.664  12.456  0.5851 -0.4733  0.0062
  375MOL0     C50517  10.782   3.768  12.364 -0.3046  0.6333  0.0547
  375MOL0     C50518  10.709   3.889  12.376 -0.3268 -0.4824 -0.6783
  375MOL0     C50519  10.727   4.000  12.280  0.9679  0.0627  0.3077
  375MOL0     O50520  10.640   4.109  12.301 -0.0810  0.3750  0.2788
  375MOL0     C50521  10.640   4.217  12.210  0.1590 -0.7222 -0.4631
  375MOL0     C50522  10.608   4.181  12.083  0.1907 -0.3558 -0.4478
  375MOL0     C50523  10.618   4.283  11.981 -0.5845  0.8589  0.0149
  375MOL0     C50524  10.643   4.420  12.016 -0.1528 -0.7995  0.4335
  375MOL0     O50525  10.634   4.518  11.923 -0.4363 -0.6266  0.2728
  375MOL0     C50526  10.633   4.656  11.977  0.0180 -0.3019  0.4023
  375MOL0     C50527  10.614   4.743  11.856  0.1507 -0.0404  0.1224
  375MOL0     C50528  10.585   4.888  11.887 -0.0646 -1.0851  0.9959
  375MOL0     C50529  10.532   4.966  11.763 -0.6868  0.6940 -0.6042
  375MOL0     C50530  10.530   5.113  11.782 -0.9316 -0.1671 -0.6116
  375MOL0     C50531  10.458   5.183  11.663  0.0888 -0.8597  0.1158
  375MOL0     C50532  10.299   5.165  11.674  0.2005  0.3888 -0.1455
  375MOL0     C50533  10.232   5.217  11.808 -0.5331  0.3604 -0.2963
  375MOL0    Cl50534  10.240   5.077  11.937 -0.3769 -0.4364 -0.4084
  375MOL0     C50535  10.672   4.444  12.157 -0.2267 -0.3515  0.8512
  375MOL0     C50536  10.661   4.351  12.252 -0.3560  0.0364  0.6703
  375MOL0     O50537  10.813   3.992  12.198 -0.6520 -0.1692 -0.0488
  375MOL0     C50538  10.625   3.900  12.486 -0.5037 -0.2967  0.4193
  375MOL0     C50539  10.614   3.789  12.573  0.1312 -0.6059 -0.2049
  375MOL0     N50540  10.483   3.283  12.402 -0.1593  0.8521 -0.1788
  375MOL0     N50541  10.411   3.355  12.327 -0.1162  0.1087 -0.0064
  375MOL0     C50542  10.038   3.656  11.640  1.0480  0.0283 -0.3968
  375MOL0     C50543  10.172   3.632  11.609 -0.1005 -0.1499  0.2981
  375MOL0     C50544  10.584   3.611  11.497  0.6165  0.3306  0.5591
  375MOL0     C50545  10.667   3.714  11.533 -0.1109  0.0937 -0.2787
  375MOL0     C50546  10.798   3.701  11.532 -0.9952 -0.5651  0.4899
  375MOL0     C50547  10.861   3.576  11.513 -0.2408  0.0314  1.5255
  375MOL0     O50548  10.997   3.578  11.537 -0.1917 -0.3798  0.5110
  375MOL0     C50549  11.069   3.456  11.555  0.1370  0.6664 -0.2435
  375MOL0     C50550  11.197   3.486  11.621 -0.4913  0.5248 -0.5067
  375MOL0     C50551  11.184   3.570  11.747 -0.0931 -0.3390 -0.7629
  375MOL0     C50552  11.308   3.572  11.845  0.5288  0.0379 -0.1531
  375MOL0     C50553  11.413   3.642  11.767 -0.6161 -0.4422  0.3944
  375MOL0     C50554  11.499   3.706  11.707  0.9535 -1.0601 -1.3555
  375MOL0     C50555  10.788   3.462  11.475  0.2734 -0.4184  0.7427
  375MOL0     C50556  10.646   3.481  11.462 -0.4615  0.2143 -0.0098
  375MOL0     C50557  10.559   3.356  11.431 -1.0991 -0.4953  0.1956
  375MOL0     H50558  10.279   3.958  11.607 -0.1265  0.3842 -1.0928
  375MOL0     H50559  10.018   3.994  11.646 -1.6608 -0.0561 -0.3715
  375MOL0     H50560   9.662   3.761  11.683  0.4817 -0.2116 -1.3872
  375MOL0     H50561   9.766   3.611  11.659  0.2255  0.3988 -1.1344
  375MOL0     H50562   9.640   3.634  11.875 -0.7247  1.0208  0.0920
  375MOL0     H50563   9.723   3.792  11.910 -0.1667  2.4984 -2.0302
  375MOL0     H50564   9.939   3.634  11.889  2.4713 -4.8274  0.7063
  375MOL0     H50565   9.824   3.505  11.864 -2.7403  0.5596 -0.4515
  375MOL0     H50566   9.793   3.668  12.122 -1.7756  0.2805 -1.3435
  375MOL0     H50567   9.759   3.506  12.103  1.5095 -0.7228  3.9792
  375MOL0     H50568   9.992   3.416  12.076 -3.3239 -1.4247  0.7060
  375MOL0     H50569  10.052   3.571  12.114 -0.1127  0.0925  0.6588
  375MOL0     H50570   9.959   3.592  12.314 -2.2975 -0.1059  1.5271
  375MOL0     H50571   9.868   3.435  12.293  0.3853 -1.3037 -1.3696
  375MOL0     H50572  10.120   3.340  12.264 -0.4829 -0.3417  1.5452
  375MOL0     H50573  10.043   3.357  12.426  1.9066  2.1465  2.6140
  375MOL0     H50574  10.207   3.572  12.297 -4.1958  0.7460  0.2957
  375MOL0     H50575  10.178   3.558  12.461 -1.1200  1.7459 -1.5510
  375MOL0     H50576  10.292   3.415  12.627  0.1666 -1.8314  1.9922
  375MOL0     H50577  10.424   3.154  12.695  0.4931  0.0184  2.8321
  375MOL0     H50578  10.578   3.157  12.622 -0.3847  0.5116 -1.7048
  375MOL0     H50579  10.490   3.406  12.785 -1.2116 -0.5258 -0.6637
  375MOL0     H50580  10.547   3.262  12.867  0.0800  0.3164  0.7049
  375MOL0     H50581  10.766   3.271  12.736  1.1681 -0.1207  3.0514
  375MOL0     H50582  10.734   3.401  12.844  0.3323 -0.1881  0.4031
  375MOL0     H50583  10.677   3.393  12.542 -3.6623 -0.6968  1.7593
  375MOL0     H50584  10.824   3.465  12.598 -1.5179  1.8461 -5.6152
  375MOL0     H50585  10.852   3.587  12.445 -0.9580 -1.6657 -4.2580
  375MOL0     H50586  10.854   3.768  12.283 -0.5418  1.9126 -0.1777
  375MOL0     H50587  10.569   4.084  12.052 -2.3433  1.1497 -2.3309
  375MOL0     H50588  10.582   4.268  11.879  1.0796 -0.6032 -0.4161
  375MOL0     H50589  10.545   4.669  12.040 -2.4767  0.6011 -2.9593
  375MOL0     H50590  10.716   4.695  12.036 -1.3195 -0.6213  2.5777
  375MOL0     H50591  10.710   4.739  11.804  1.3497  0.0414  2.2348
  375MOL0     H50592  10.541   4.701  11.786  0.7474  2.8822 -2.5137
  375MOL0     H50593  10.509   4.899  11.965 -0.5988 -1.4887  0.5355
  375MOL0     H50594  10.678   4.925  11.931  0.5971 -4.5522  2.8629
  375MOL0     H50595  10.435   4.923  11.736  0.7229 -1.1902 -3.0512
  375MOL0     H50596  10.604   4.957  11.681  2.2828  1.6588  1.6983
  375MOL0     H50597  10.629   5.156  11.798  0.0632 -2.4981 -0.1550
  375MOL0     H50598  10.484   5.139  11.878 -2.4132 -1.5563 -0.9081
  375MOL0     H50599  10.487   5.287  11.679 -1.5428 -0.4836  0.7539
  375MOL0     H50600  10.497   5.162  11.563 -2.4563  1.6227 -1.5420
  375MOL0     H50601  10.261   5.063  11.663 -0.6718  0.5534  1.1178
  375MOL0     H50602  10.263   5.226  11.590  1.9127  2.2857  0.4130
  375MOL0     H50603  10.286   5.307  11.840 -1.2503  0.1769  1.5758
  375MOL0     H50604  10.127   5.240  11.787 -0.0090  3.3476 -0.1664
  375MOL0     H50605  10.701   4.544  12.187 -3.6553  0.6374  1.2997
  375MOL0     H50606  10.683   4.366  12.358  1.8869 -0.7172  0.3659
  375MOL0     H50607  10.569   3.990  12.506  0.1327  0.3105 -0.4921
  375MOL0     H50608  10.555   3.798  12.664  3.2271 -1.0909  1.9858
  375MOL0     H50609   9.978   3.566  11.635  1.0939 -0.0979  1.0214
  375MOL0     H50610  10.198   3.530  11.583 -0.2107  0.7892 -4.3416
  375MOL0     H50611  10.633   3.813  11.563  1.6910 -0.0649  2.6672
  375MOL0     H50612  10.859   3.789  11.544  1.5226 -2.1506  0.0521
  375MOL0     H50613  11.081   3.405  11.458 -1.1389  0.3725 -0.2643
  375MOL0     H50614  11.016   3.387  11.621  0.6708  2.4222  2.1262
  375MOL0     H50615  11.264   3.526  11.544 -3.4813  1.6715 -2.6613
  375MOL0     H50616  11.237   3.389  11.652 -4.7780 -1.2879 -0.0368
  375MOL0     H50617  11.098   3.542  11.808 -0.0004 -0.4584 -0.6855
  375MOL0     H50618  11.154   3.672  11.721 -1.8840 -0.3934  0.8955
  375MOL0     H50619  11.293   3.627  11.938 -0.4273  1.5219 -1.1361
  375MOL0     H50620  11.338   3.467  11.859 -1.8003 -1.0518 -2.4639
  375MOL0     H50621  11.587   3.754  11.667  1.1347 -2.5896 -2.8882
  375MOL0     H50622  10.826   3.361  11.462  0.3107 -0.5771  1.9126
  375MOL0     H50623  10.496   3.385  11.347 -0.7872  0.0308  0.1409
  375MOL0     H50624  10.619   3.269  11.400 -3.2136 -1.3571 -1.7861
  375MOL0     H50625  10.499   3.315  11.513 -2.7289  1.4658  0.0361
  376MOL0     O50626   9.140  11.401   7.492 -0.9299  0.5315 -0.0744
  376MOL0     C50627   9.138  11.521   7.466  0.0963  0.3809 -0.4978
  376MOL0     O50628   9.182  11.576   7.349 -0.5440  0.9586 -0.5913
  376MOL0     C50629   9.246  11.505   7.259  0.9002  0.8048  0.2869
  376MOL0     C50630   9.368  11.560   7.219 -1.0428 -0.0855  0.1838
  376MOL0     C50631   9.425  11.512   7.098 -0.1997 -0.1068  0.2103
  376MOL0     C50632   9.360  11.404   7.026  0.1419  0.5819  0.4585
  376MOL0     O50633   9.417  11.359   6.904 -0.8587 -1.1676 -0.0197
  376MOL0     C50634   9.393  11.220   6.868 -0.6429 -0.1417 -0.4632
  376MOL0     C50635   9.478  11.208   6.741  0.0644 -0.1406 -0.2693
  376MOL0     C50636   9.475  11.066   6.694  0.1668 -0.9629 -0.0068
  376MOL0     C50637   9.548  10.964   6.787 -0.3790 -0.8193 -0.0026
  376MOL0     C50638   9.515  10.816   6.755  0.1968 -0.3658 -0.6905
  376MOL0     C50639   9.570  10.707   6.855 -0.5219 -0.3559  1.2280
  376MOL0     C50640   9.497  10.702   6.993 -0.2671 -1.3304  0.5706
  376MOL0     C50641   9.528  10.581   7.094  0.0048  0.0384  0.1913
  376MOL0     N50642   9.668  10.555   7.100  0.0253  0.4782 -0.7168
  376MOL0     C50643   9.736  10.456   7.021  1.1707  0.0214 -0.5113
  376MOL0     C50644   9.847  10.452   7.081 -0.2947  0.3566 -0.9207
  376MOL0     C50645   9.972  10.371   7.043  0.3428 -0.3668  0.6148
  376MOL0     C50646  10.093  10.464   7.012  0.6715 -0.3521 -0.5434
  376MOL0     C50647  10.217  10.383   6.990  0.9877  1.3708 -0.1201
  376MOL0     C50648  10.337  10.484   7.001 -0.1523  0.3278  0.6046
  376MOL0     O50649  10.355  10.583   6.895  0.5959  0.6444 -0.1158
  376MOL0     C50650  10.470  10.662   6.907  0.3550  0.1137 -0.0231
  376MOL0     C50651  10.482  10.749   6.800 -0.1528  0.3306  0.4116
  376MOL0     C50652  10.592  10.836   6.781  0.7175 -0.3556  0.0049
  376MOL0     C50653  10.699  10.838   6.877  0.1928  0.2907  0.0717
  376MOL0     C50654  10.806  10.944   6.871  0.1718  1.4229 -0.5204
  376MOL0     O50655  10.801  11.018   6.763 -0.3939 -0.7742  0.3145
  376MOL0     C50656  10.910  11.098   6.729 -0.8175 -0.0551  0.5954
  376MOL0     C50657  10.886  11.231   6.695  0.4979  0.5095 -0.8270
  376MOL0     C50658  10.987  11.326   6.667 -0.0981  0.5346  0.6518
  376MOL0     C50659  11.123  11.287   6.678 -0.2786  0.2522  1.2226
  376MOL0     O50660  11.216  11.394   6.657 -0.0796 -0.5107 -0.1246
  376MOL0     C50661  11.351  11.376   6.679 -0.5327  0.2411  0.4882
  376MOL0     C50662  11.395  11.391   6.825 -0.1059  0.9879  0.3015
  376MOL0     C50663  11.382  11.543   6.868  0.3183  0.4586 -0.0361
  376MOL0     C50664  11.408  11.546   7.024 -0.2613  0.6946  1.3651
  376MOL0     C50665  11.360  11.670   7.097 -0.0930 -0.3077  0.6475
  376MOL0     C50666  11.450  11.786   7.059  0.5861 -0.8804 -0.0913
  376MOL0     C50667  11.422  11.900   7.159 -0.1323  0.1099  0.8201
  376MOL0     C50668  11.502  12.020   7.112  0.2457 -0.0661 -0.7693
  376MOL0    Cl50669  11.655  11.973   7.030 -0.0533  0.2566 -0.2085
  376MOL0     C50670  11.149  11.148   6.704  0.1128 -0.2913 -0.2254
  376MOL0     C50671  11.043  11.053   6.725 -0.2949  0.4721 -0.7733
  376MOL0     O50672  10.880  10.957   6.969  0.4035 -0.1668 -0.1934
  376MOL0     C50673  10.693  10.755   6.985  0.7215  0.3530 -0.8165
  376MOL0     C50674  10.585  10.666   6.997  0.6682  0.4598 -0.9615
  376MOL0     N50675   9.853  10.536   7.193 -0.2145 -0.4066 -0.1140
  376MOL0     N50676   9.738  10.600   7.208  0.2359  0.8129 -0.1471
  376MOL0     C50677   9.249  11.337   7.090 -0.6356  0.6797  0.1437
  376MOL0     C50678   9.185  11.384   7.205 -0.1639  0.3343  1.0521
  376MOL0     C50679   9.051  11.591   7.562  0.6938 -0.7195  0.5591
  376MOL0     C50680   8.955  11.524   7.637  0.8191  0.3459  0.6677
  376MOL0     C50681   8.864  11.596   7.722 -0.4953  0.3090 -0.6205
  376MOL0     C50682   8.892  11.729   7.747 -0.5522 -0.0183 -0.4365
  376MOL0     O50683   8.808  11.774   7.845 -0.1641 -1.2244  0.3494
  376MOL0     C50684   8.767  11.916   7.839 -0.7670 -0.4657  0.1045
  376MOL0     C50685   8.624  11.926   7.883  1.3251  0.0072  0.5976
  376MOL0     C50686   8.544  11.897   7.753  0.5549  0.3618 -0.1457
  376MOL0     C50687   8.394  11.871   7.767  0.4466 -0.3985 -0.1088
  376MOL0     C50688   8.365  11.776   7.879 -0.5704 -0.8555  0.7386
  376MOL0     C50689   8.325  11.702   7.967 -0.6510  0.3049 -0.3642
  376MOL0     C50690   8.993  11.798   7.682  0.6464  0.4096 -0.2214
  376MOL0     C50691   9.081  11.722   7.597 -0.4333 -0.9141 -0.0348
  376MOL0     C50692   9.213  11.788   7.547 -0.9378 -0.1829  0.3777
  376MOL0     H50693   9.409  11.640   7.279  1.6896 -0.6647 -0.7502
  376MOL0     H50694   9.513  11.566   7.064  0.1451  0.3475  1.7636
  376MOL0     H50695   9.437  11.162   6.949  2.0492  0.8658 -1.0985
  376MOL0     H50696   9.290  11.192   6.842 -0.0431  0.6581 -4.3836
  376MOL0     H50697   9.579  11.243   6.763 -0.1687  0.3710  0.0074
  376MOL0     H50698   9.437  11.275   6.665  1.3724  0.6508 -0.3029
  376MOL0     H50699   9.518  11.073   6.594  0.4557 -2.2435  0.0134
  376MOL0     H50700   9.371  11.033   6.684  0.5592 -2.0422 -0.5978
  376MOL0     H50701   9.651  10.995   6.769 -1.1553  0.7839 -2.2097
  376MOL0     H50702   9.526  10.967   6.894  0.1551  1.0851  0.0908
  376MOL0     H50703   9.406  10.820   6.759  0.2328 -0.2388  3.0143
  376MOL0     H50704   9.545  10.793   6.652  2.5441 -0.3439 -0.0533
  376MOL0     H50705   9.558  10.610   6.807  2.2293 -0.0600 -0.2166
  376MOL0     H50706   9.678  10.719   6.849 -0.6432  0.2190 -0.0750
  376MOL0     H50707   9.391  10.698   6.969 -0.3929  1.1326  0.3993
  376MOL0     H50708   9.516  10.798   7.043  2.6887  0.3075 -3.1245
  376MOL0     H50709   9.494  10.611   7.194  3.4958  3.4516  0.5789
  376MOL0     H50710   9.478  10.490   7.058  2.4240 -0.4368 -2.2072
  376MOL0     H50711   9.708  10.399   6.933  1.0676  0.6837 -0.9201
  376MOL0     H50712  10.003  10.310   7.129  1.7960  3.3895  3.0021
  376MOL0     H50713   9.943  10.326   6.948  1.2423 -2.9115  1.4588
  376MOL0     H50714  10.063  10.529   6.930 -1.8302 -3.1823 -2.0736
  376MOL0     H50715  10.102  10.535   7.095  1.7757 -0.3224 -0.6803
  376MOL0     H50716  10.206  10.347   6.887 -1.2922  1.1968  0.1491
  376MOL0     H50717  10.236  10.294   7.051  0.5287  1.0864 -0.3817
  376MOL0     H50718  10.431  10.436   7.030  1.8874  2.1260 -2.4606
  376MOL0     H50719  10.329  10.538   7.096  1.1780  2.8030 -0.5960
  376MOL0     H50720  10.420  10.747   6.711 -0.9301  3.4698  0.7681
  376MOL0     H50721  10.606  10.881   6.684  1.9663 -0.3970  0.1482
  376MOL0     H50722  10.784  11.263   6.710 -0.1936 -2.4596  1.7404
  376MOL0     H50723  10.951  11.422   6.630 -2.2335 -0.1560  0.7966
  376MOL0     H50724  11.372  11.276   6.639  2.0167  0.1872  1.7518
  376MOL0     H50725  11.422  11.445   6.633  2.3527 -0.6860  3.1947
  376MOL0     H50726  11.313  11.345   6.881 -0.8458  1.0952 -0.6506
  376MOL0     H50727  11.485  11.334   6.848 -0.3800 -0.0360 -1.0102
  376MOL0     H50728  11.454  11.605   6.814  2.9943  0.6811  3.4658
  376MOL0     H50729  11.279  11.573   6.847 -0.3410 -2.4902 -1.5965
  376MOL0     H50730  11.514  11.541   7.049 -0.7146  1.0942  3.5192
  376MOL0     H50731  11.353  11.459   7.061 -0.9865 -0.3037 -1.7089
  376MOL0     H50732  11.366  11.651   7.204 -2.1672 -0.7424  0.7277
  376MOL0     H50733  11.258  11.693   7.065  0.0263 -0.1878  0.3481
  376MOL0     H50734  11.550  11.746   7.079  1.2734  1.4891  1.7361
  376MOL0     H50735  11.433  11.814   6.955 -0.3369 -0.3947  0.1774
  376MOL0     H50736  11.457  11.870   7.258  0.3756  2.2027  1.3239
  376MOL0     H50737  11.317  11.924   7.181  0.5297  1.9864  2.2044
  376MOL0     H50738  11.438  12.079   7.046 -1.0158  0.6349  1.0168
  376MOL0     H50739  11.512  12.087   7.198 -0.7301 -0.7860 -0.0681
  376MOL0     H50740  11.250  11.114   6.722  0.1381  0.2541  0.7104
  376MOL0     H50741  11.069  10.951   6.754 -2.1177  0.6057  1.6239
  376MOL0     H50742  10.764  10.755   7.067 -1.1038  0.1369  0.8353
  376MOL0     H50743  10.569  10.603   7.083 -2.1035  0.3052 -1.5155
  376MOL0     H50744   9.212  11.239   7.061  2.4789 -0.1209 -1.6447
  376MOL0     H50745   9.105  11.341   7.264  2.0594 -1.4536  2.9652
  376MOL0     H50746   8.935  11.418   7.623  1.2161  0.2448  0.8459
  376MOL0     H50747   8.787  11.535   7.768 -1.5820  1.7863 -0.4108
  376MOL0     H50748   8.789  11.966   7.745  1.5094  1.3333  1.4924
  376MOL0     H50749   8.835  11.957   7.914  1.9566 -3.6338 -0.3981
  376MOL0     H50750   8.598  12.025   7.923  0.2966  0.6765 -1.6153
  376MOL0     H50751   8.605  11.856   7.965  0.2500 -1.3504 -0.7591
  376MOL0     H50752   8.590  11.807   7.712 -1.8465 -0.8506 -0.3474
  376MOL0     H50753   8.552  11.979   7.681  0.4938 -0.3270 -0.9528
  376MOL0     H50754   8.349  11.969   7.788 -3.4990 -2.3188  1.4710
  376MOL0     H50755   8.358  11.841   7.668 -2.2371 -4.2377  1.7625
  376MOL0     H50756   8.299  11.643   8.053 -5.3675  0.0553 -1.6709
  376MOL0     H50757   9.006  11.904   7.702 -3.3755  1.3546 -1.7136
  376MOL0     H50758   9.246  11.867   7.615 -5.0232 -0.0316  2.5219
  376MOL0     H50759   9.293  11.714   7.551 -1.0907 -0.7081 -3.2748
  376MOL0     H50760   9.202  11.823   7.444 -0.9811 -2.5557 -0.4987
  377MOL0     O50761   5.078   9.615   5.720 -0.1903 -0.1010 -0.1326
  377MOL0     C50762   4.958   9.573   5.705  0.2560 -0.9537  0.0075
  377MOL0     O50763   4.862   9.648   5.640 -0.6133  0.6609  0.1131
  377MOL0     C50764   4.895   9.768   5.571 -1.0643  1.1070 -0.3508
  377MOL0     C50765   4.988   9.869   5.614 -0.3008  0.0946  0.0153
  377MOL0     C50766   5.014   9.977   5.530  0.3436 -1.3908  0.6125
  377MOL0     C50767   4.950   9.983   5.406  0.9410  0.8287  0.2838
  377MOL0     O50768   4.996  10.080   5.326 -0.1878 -0.3581  0.1934
  377MOL0     C50769   4.988  10.050   5.187 -0.3800 -0.4805 -0.5327
  377MOL0     C50770   5.060  10.157   5.102 -0.8183 -0.0498 -0.1315
  377MOL0     C50771   5.189  10.211   5.166 -0.0198 -0.1634 -0.4109
  377MOL0     C50772   5.251  10.296   5.059  0.1480 -0.0313 -0.0341
  377MOL0     C50773   5.382  10.364   5.100  0.2750 -0.0354 -0.2901
  377MOL0     C50774   5.492  10.268   5.155 -0.5047  0.5474 -0.4777
  377MOL0     C50775   5.622  10.347   5.194  0.5126 -1.0073 -0.2072
  377MOL0     C50776   5.596  10.461   5.287  0.2688  0.0124 -0.3154
  377MOL0     N50777   5.535  10.423   5.415  0.1344  0.2839 -0.4942
  377MOL0     C50778   5.425  10.489   5.466  0.0837  0.8546 -0.2138
  377MOL0     C50779   5.394  10.431   5.587  0.8264  0.9209  1.0216
  377MOL0     C50780   5.290  10.449   5.690  0.3196  0.3375 -0.8685
  377MOL0     C50781   5.146  10.419   5.644  0.0211 -0.3879 -0.4369
  377MOL0     C50782   5.044  10.427   5.754 -0.2635  0.9369  0.4802
  377MOL0     C50783   5.023  10.285   5.824  0.1068  0.2734  0.3431
  377MOL0     O50784   4.883  10.264   5.836 -0.1030  0.0010 -0.4260
  377MOL0     C50785   4.852  10.141   5.884  0.3057 -0.0434 -0.2708
  377MOL0     C50786   4.725  10.102   5.847 -0.1663  0.6674 -0.1325
  377MOL0     C50787   4.679   9.965   5.879  0.0437 -0.1238  0.2206
  377MOL0     C50788   4.751   9.886   5.948  0.0091  1.1477 -0.6336
  377MOL0     C50789   4.698   9.745   5.968  0.3450 -0.1010  0.7698
  377MOL0     O50790   4.559   9.715   5.934 -0.1910  0.4584  0.0403
  377MOL0     C50791   4.497   9.600   5.967  1.0731  0.0582  0.2079
  377MOL0     C50792   4.357   9.607   5.980  0.8729  0.5613  0.6657
  377MOL0     C50793   4.278   9.487   5.990 -0.6563  0.4890 -0.4516
  377MOL0     C50794   4.345   9.361   5.974 -0.0849 -0.3704 -0.4617
  377MOL0     O50795   4.272   9.249   5.981  0.4618  0.3726  0.1374
  377MOL0     C50796   4.213   9.205   5.858  0.5378 -0.5136  0.2193
  377MOL0     C50797   4.126   9.075   5.885 -0.7761 -1.1415 -0.2654
  377MOL0     C50798   4.229   8.961   5.924  0.2408  0.0913 -0.3548
  377MOL0     C50799   4.177   8.815   5.948  0.6646 -0.3732  0.0196
  377MOL0     C50800   4.282   8.706   5.993  0.5188  0.0467  0.2077
  377MOL0     C50801   4.340   8.631   5.881 -0.5826  0.5624  0.3646
  377MOL0     C50802   4.394   8.498   5.935  0.3981 -0.2260  0.7869
  377MOL0     C50803   4.418   8.393   5.822  0.1330 -0.5207  1.2425
  377MOL0    Cl50804   4.535   8.458   5.703  0.6099  0.0774  0.4460
  377MOL0     C50805   4.483   9.360   5.962 -0.0060  0.9320 -0.4250
  377MOL0     C50806   4.559   9.480   5.961 -0.9881  0.6859  0.1452
  377MOL0     O50807   4.773   9.667   6.016 -0.1393 -0.3584  0.0427
  377MOL0     C50808   4.879   9.916   5.980  0.4048 -0.4273 -0.2446
  377MOL0     C50809   4.926  10.044   5.955 -0.1316 -0.3596  0.1082
  377MOL0     N50810   5.487  10.321   5.596  0.6407  0.1190  0.0480
  377MOL0     N50811   5.569  10.323   5.495 -0.1627  0.4132  0.3238
  377MOL0     C50812   4.847   9.889   5.369 -0.2196  0.7419  0.5377
  377MOL0     C50813   4.825   9.776   5.454  0.3188 -0.1825 -0.0181
  377MOL0     C50814   4.911   9.437   5.749  0.0794  0.8787  0.6638
  377MOL0     C50815   4.787   9.387   5.691  0.0025  0.2832 -0.5143
  377MOL0     C50816   4.729   9.274   5.741  0.6958 -0.1464  0.6355
  377MOL0     C50817   4.798   9.187   5.821 -0.3694  0.2274 -0.5720
  377MOL0     O50818   4.727   9.071   5.861 -0.7592 -0.4584  0.1943
  377MOL0     C50819   4.796   8.974   5.942 -0.6848  0.3491  0.1211
  377MOL0     C50820   4.698   8.878   6.011  0.6264 -0.3155  0.1377
  377MOL0     C50821   4.783   8.781   6.089 -0.1504  1.0111  0.5186
  377MOL0     C50822   4.836   8.657   6.009 -0.7160 -0.7739  0.5349
  377MOL0     C50823   4.782   8.532   6.073  0.0846 -0.5930  0.7702
  377MOL0     C50824   4.736   8.423   6.111  0.7076  0.7148  0.3538
  377MOL0     C50825   4.925   9.228   5.864  1.0842  0.3314 -0.7023
  377MOL0     C50826   4.988   9.348   5.832  0.0701  0.5678 -0.4179
  377MOL0     C50827   5.125   9.373   5.876 -0.0428 -0.5730  0.5870
  377MOL0     H50828   5.029   9.858   5.714 -1.6813  1.9728  0.8442
  377MOL0     H50829   5.079  10.062   5.545 -0.5805 -0.6331  0.3986
  377MOL0     H50830   5.032   9.954   5.159 -0.3510 -0.1886 -1.5280
  377MOL0     H50831   4.884  10.045   5.152 -0.0099 -0.7650 -1.6417
  377MOL0     H50832   4.988  10.239   5.099 -0.4820  0.2360 -0.4667
  377MOL0     H50833   5.076  10.103   5.008  2.2603 -0.8992  0.7601
  377MOL0     H50834   5.250  10.133   5.213  0.4482  0.7831  0.5631
  377MOL0     H50835   5.157  10.282   5.242  1.9184 -0.5916  0.8717
  377MOL0     H50836   5.267  10.240   4.967 -0.5204  2.1687 -1.5925
  377MOL0     H50837   5.171  10.368   5.039 -1.9849 -2.0088  0.9672
  377MOL0     H50838   5.415  10.419   5.012 -1.9775  0.1310 -1.0971
  377MOL0     H50839   5.359  10.434   5.180  1.0987 -1.3428  1.1594
  377MOL0     H50840   5.465  10.205   5.240 -1.2365  0.8536 -0.4693
  377MOL0     H50841   5.510  10.192   5.079 -3.6313 -2.3393  1.3851
  377MOL0     H50842   5.673  10.378   5.102  1.3291 -0.5913  0.3740
  377MOL0     H50843   5.694  10.281   5.242 -1.9473 -2.6695  1.3882
  377MOL0     H50844   5.682  10.525   5.311 -1.0492  2.6504 -2.0867
  377MOL0     H50845   5.533  10.531   5.231  1.9423  1.4474 -0.5186
  377MOL0     H50846   5.361  10.560   5.415  0.5373  0.8587 -0.7882
  377MOL0     H50847   5.307  10.387   5.778  1.1975 -0.3681 -1.5198
  377MOL0     H50848   5.314  10.545   5.737 -0.7267  0.8428 -1.3319
  377MOL0     H50849   5.123  10.498   5.571 -0.1011 -0.4572 -0.4742
  377MOL0     H50850   5.139  10.320   5.598 -0.7371  0.1881 -1.6379
  377MOL0     H50851   4.956  10.451   5.693 -1.0286 -0.1681  1.1292
  377MOL0     H50852   5.064  10.500   5.833  1.0943  1.0829  0.0329
  377MOL0     H50853   5.067  10.292   5.924  0.3617  0.9974  0.1889
  377MOL0     H50854   5.065  10.205   5.763 -0.9497 -0.8959  1.1154
  377MOL0     H50855   4.668  10.172   5.787 -1.3700  0.2230  0.4641
  377MOL0     H50856   4.581   9.934   5.846  0.9778 -1.0486 -1.8996
  377MOL0     H50857   4.312   9.705   5.998  2.7994  1.6782 -0.2283
  377MOL0     H50858   4.171   9.497   6.004 -1.2237 -2.1532 -2.2345
  377MOL0     H50859   4.145   9.288   5.836 -0.6383 -1.6463 -0.5557
  377MOL0     H50860   4.276   9.188   5.771 -0.4639 -0.2114 -0.5846
  377MOL0     H50861   4.055   9.088   5.967  0.1760 -2.4010  0.8185
  377MOL0     H50862   4.072   9.054   5.792  1.7674 -4.3983 -1.2030
  377MOL0     H50863   4.307   8.970   5.848 -0.9265 -2.4110 -2.0074
  377MOL0     H50864   4.284   8.985   6.016 -2.3768  0.5863  1.1718
  377MOL0     H50865   4.140   8.795   5.847  3.1421  0.6550 -1.1994
  377MOL0     H50866   4.086   8.822   6.007 -1.0817 -0.3513 -2.5102
  377MOL0     H50867   4.222   8.644   6.061  0.4491  0.9294  0.9800
  377MOL0     H50868   4.365   8.754   6.045  0.6361 -1.3912  1.4292
  377MOL0     H50869   4.260   8.617   5.807  0.0262 -0.0909 -0.1810
  377MOL0     H50870   4.412   8.686   5.820  0.6159 -0.4935  0.7712
  377MOL0     H50871   4.317   8.466   6.006  0.1518  1.1605  1.1872
  377MOL0     H50872   4.483   8.501   6.000  1.4878 -0.2828 -0.6592
  377MOL0     H50873   4.443   8.295   5.862  2.7644  0.0351  1.1648
  377MOL0     H50874   4.320   8.367   5.780  0.0691 -0.1045  1.1227
  377MOL0     H50875   4.531   9.263   5.947 -0.6917  0.8432 -2.2850
  377MOL0     H50876   4.666   9.463   5.946 -0.7697 -2.7553  3.8358
  377MOL0     H50877   4.941   9.837   6.021  1.6582  1.0235  0.7427
  377MOL0     H50878   5.031  10.060   5.978 -0.2395  1.5246 -0.5331
  377MOL0     H50879   4.798   9.914   5.275 -0.3295  1.3937  0.7678
  377MOL0     H50880   4.755   9.700   5.420  0.1396 -0.2369  0.4709
  377MOL0     H50881   4.743   9.456   5.620  2.0605  1.8557 -0.3347
  377MOL0     H50882   4.637   9.238   5.696  0.4741  1.2185 -0.0624
  377MOL0     H50883   4.854   9.015   6.025 -0.0031 -4.8409  2.5490
  377MOL0     H50884   4.872   8.931   5.876  2.4764  0.7634  3.1890
  377MOL0     H50885   4.615   8.840   5.950  0.9909 -0.4962 -0.2490
  377MOL0     H50886   4.662   8.946   6.089  1.6527  0.8564 -0.3708
  377MOL0     H50887   4.732   8.751   6.180 -0.9810  1.2432  0.1375
  377MOL0     H50888   4.870   8.825   6.139 -1.0270 -0.1611  3.2483
  377MOL0     H50889   4.792   8.645   5.910  1.2602 -1.6240 -0.2791
  377MOL0     H50890   4.944   8.657   5.996 -0.9572 -2.0505 -2.0606
  377MOL0     H50891   4.691   8.334   6.149  0.2671 -0.1142 -1.9404
  377MOL0     H50892   4.985   9.156   5.918  0.3697 -1.3185 -1.9942
  377MOL0     H50893   5.171   9.286   5.924 -0.0385 -1.6037 -1.2078
  377MOL0     H50894   5.177   9.395   5.783 -2.0346  3.6733  0.2563
  377MOL0     H50895   5.122   9.461   5.941 -0.5053  0.5061 -0.8565
  378MOL0     O50896   0.095   5.951   5.712 -0.3625  0.1784 -0.0532
  378MOL0     C50897   0.032   6.055   5.746 -0.2396  0.2016  1.0053
  378MOL0     O50898  -0.102   6.073   5.730 -0.3375 -0.2173  0.2242
  378MOL0     C50899  -0.198   5.973   5.693  0.0106  0.1333 -0.0033
  378MOL0     C50900  -0.323   6.027   5.657  0.1316  1.3331 -0.3574
  378MOL0     C50901  -0.424   5.937   5.617  0.0658  0.1026  0.4493
  378MOL0     C50902  -0.415   5.797   5.627 -0.9854  0.6209 -0.9343
  378MOL0     O50903  -0.529   5.732   5.611  0.1407  0.3013  0.1634
  378MOL0     C50904  -0.563   5.610   5.683 -0.4030  0.6131  0.4705
  378MOL0     C50905  -0.691   5.555   5.627 -0.0230 -0.0643 -0.5554
  378MOL0     C50906  -0.715   5.406   5.661  1.3011  0.5544 -0.0095
  378MOL0     C50907  -0.841   5.358   5.590  0.7225  0.0512  1.3386
  378MOL0     C50908  -0.890   5.226   5.636  0.5844  0.4591 -0.0756
  378MOL0     C50909  -1.023   5.187   5.565 -0.4920 -0.8358  0.0676
  378MOL0     C50910  -1.045   5.037   5.578  0.4176 -0.5186  0.4780
  378MOL0     C50911  -1.196   5.015   5.576 -0.3781 -0.5798  0.7495
  378MOL0     N50912  -1.204   4.873   5.591  0.2530 -0.1008 -0.3907
  378MOL0     C50913  -1.169   4.795   5.693 -0.3062 -1.0668  0.7231
  378MOL0     C50914  -1.152   4.669   5.645  0.3856 -0.7020 -0.2429
  378MOL0     C50915  -1.105   4.549   5.723  0.7009 -0.3957 -0.3329
  378MOL0     C50916  -1.187   4.509   5.843  0.1822 -0.1186 -0.7481
  378MOL0     C50917  -1.319   4.457   5.797  0.8996  0.4000  0.7778
  378MOL0     C50918  -1.367   4.347   5.880 -0.2177  0.0071  0.5769
  378MOL0     O50919  -1.493   4.289   5.843  0.0390  0.1280 -0.2060
  378MOL0     C50920  -1.509   4.160   5.897  0.2568 -0.0272  0.4465
  378MOL0     C50921  -1.493   4.049   5.815 -0.5306  0.2196  0.7885
  378MOL0     C50922  -1.527   3.920   5.856  0.1089 -0.4607 -0.0478
  378MOL0     C50923  -1.573   3.897   5.991  0.6680 -0.3078  0.6028
  378MOL0     C50924  -1.596   3.760   6.038 -0.3156  0.2065  1.1524
  378MOL0     O50925  -1.606   3.658   5.951  0.4713 -0.1920  0.4753
  378MOL0     C50926  -1.621   3.528   5.984 -0.0652  0.1057 -0.2366
  378MOL0     C50927  -1.507   3.461   6.040  0.8214  0.8877  0.2888
  378MOL0     C50928  -1.514   3.330   6.060  1.0071  0.8485 -0.1683
  378MOL0     C50929  -1.632   3.255   6.032 -0.7510  0.4349 -0.6069
  378MOL0     O50930  -1.635   3.121   6.076  0.0503  0.0675 -0.0624
  378MOL0     C50931  -1.663   3.020   5.979  0.1704 -0.0405 -0.2290
  378MOL0     C50932  -1.532   2.935   5.949 -0.5014  0.5716  0.2467
  378MOL0     C50933  -1.508   2.814   6.039 -0.1730  0.3116  0.8623
  378MOL0     C50934  -1.358   2.802   6.054 -0.2073 -0.1584 -0.0219
  378MOL0     C50935  -1.309   2.692   6.150 -0.5208  0.3759  0.7057
  378MOL0     C50936  -1.157   2.711   6.189  0.7296 -0.2071 -0.0767
  378MOL0     C50937  -1.114   2.608   6.298  1.2376  0.2292  0.1562
  378MOL0     C50938  -0.969   2.640   6.335 -0.8238  0.1355 -0.2217
  378MOL0    Cl50939  -0.904   2.527   6.460  0.3426  0.1025  0.1608
  378MOL0     C50940  -1.748   3.319   5.984  0.0428  0.0289  0.3428
  378MOL0     C50941  -1.736   3.457   5.956  0.4151  0.6869 -0.1643
  378MOL0     O50942  -1.606   3.742   6.159 -0.8493 -0.3726  0.1416
  378MOL0     C50943  -1.577   4.017   6.075 -0.0784 -0.2209  0.2776
  378MOL0     C50944  -1.556   4.144   6.028 -0.4001 -0.3545 -0.1452
  378MOL0     N50945  -1.191   4.670   5.517 -0.7017  0.4146  1.3970
  378MOL0     N50946  -1.210   4.792   5.479 -0.0982 -0.7088 -0.8487
  378MOL0     C50947  -0.285   5.750   5.670 -0.3818  0.0191 -0.2456
  378MOL0     C50948  -0.178   5.829   5.700  0.3377 -0.5285  0.8732
  378MOL0     C50949   0.112   6.184   5.780  0.5353  1.2332 -0.5851
  378MOL0     C50950   0.044   6.309   5.791 -0.3209 -0.5656 -0.8171
  378MOL0     C50951   0.106   6.434   5.817  0.4479  0.4876 -0.0203
  378MOL0     C50952   0.248   6.440   5.831  0.2960  1.3584  0.0846
  378MOL0     O50953   0.327   6.551   5.849 -0.3666  0.6103  0.5798
  378MOL0     C50954   0.261   6.674   5.878 -0.4410 -0.6035  0.2258
  378MOL0     C50955   0.376   6.776   5.843  0.9466  0.0101 -0.4882
  378MOL0     C50956   0.358   6.908   5.910  0.1453  0.3847  0.2068
  378MOL0     C50957   0.239   6.994   5.862  0.4570  0.1719  0.0162
  378MOL0     C50958   0.123   6.959   5.944 -0.7754  0.2249  0.3328
  378MOL0     C50959   0.022   6.926   6.006 -0.0555  0.3243  0.4124
  378MOL0     C50960   0.317   6.323   5.818 -1.0287  0.4782  0.5645
  378MOL0     C50961   0.251   6.193   5.805 -0.5644  0.6172 -0.8231
  378MOL0     C50962   0.333   6.080   5.820  0.4227  0.4172 -0.1937
  378MOL0     H50963  -0.336   6.135   5.650  0.2405  1.3115 -0.9133
  378MOL0     H50964  -0.522   5.983   5.612 -0.6394 -1.2826  1.1446
  378MOL0     H50965  -0.487   5.533   5.666 -0.5344  0.0535  2.2104
  378MOL0     H50966  -0.581   5.632   5.788  3.3020  2.3110  0.8928
  378MOL0     H50967  -0.685   5.556   5.518  2.7719 -2.1018 -0.5570
  378MOL0     H50968  -0.781   5.609   5.655  0.8363  0.6163  1.0198
  378MOL0     H50969  -0.742   5.393   5.767  1.7037 -3.0520 -0.2176
  378MOL0     H50970  -0.632   5.338   5.641  0.0803 -0.2004 -3.1763
  378MOL0     H50971  -0.924   5.430   5.591  1.3223  0.8426 -0.8030
  378MOL0     H50972  -0.812   5.362   5.485  1.3695  1.2046  1.5473
  378MOL0     H50973  -0.819   5.145   5.619 -1.2663 -1.2376 -0.1127
  378MOL0     H50974  -0.905   5.233   5.744 -2.9700  0.4420 -0.4287
  378MOL0     H50975  -1.103   5.244   5.612  0.4993  2.7335 -2.1984
  378MOL0     H50976  -1.031   5.209   5.458 -1.0319  1.1454  0.4824
  378MOL0     H50977  -1.006   5.002   5.675  0.4084 -2.4117 -0.1568
  378MOL0     H50978  -0.993   4.979   5.501 -0.0004 -1.7044  1.0586
  378MOL0     H50979  -1.243   5.071   5.658  0.3362 -0.4611  1.0802
  378MOL0     H50980  -1.242   5.046   5.482  0.8545 -2.7190 -0.6496
  378MOL0     H50981  -1.158   4.820   5.798 -0.8555  3.4198 -0.1083
  378MOL0     H50982  -1.086   4.477   5.642  2.5572 -1.7302  1.2036
  378MOL0     H50983  -1.006   4.574   5.760  0.7225 -1.4100  0.3202
  378MOL0     H50984  -1.136   4.425   5.893  0.5621  0.4413 -0.1813
  378MOL0     H50985  -1.198   4.582   5.924  4.3959  1.3359 -1.2895
  378MOL0     H50986  -1.310   4.427   5.692 -0.7557  3.0451 -0.2204
  378MOL0     H50987  -1.393   4.538   5.799 -0.0084 -0.4165  1.1659
  378MOL0     H50988  -1.374   4.374   5.986  0.1601 -1.0707  0.8870
  378MOL0     H50989  -1.288   4.273   5.871  1.3971  1.6555  0.6902
  378MOL0     H50990  -1.451   4.063   5.716 -0.2196 -0.5773  0.7956
  378MOL0     H50991  -1.517   3.845   5.778  3.5659  1.7146 -1.9771
  378MOL0     H50992  -1.423   3.520   6.075  0.8020  0.2011  1.5396
  378MOL0     H50993  -1.439   3.286   6.125 -2.6087 -4.0217  1.3510
  378MOL0     H50994  -1.737   2.949   6.017 -1.2424  0.0943 -2.5209
  378MOL0     H50995  -1.716   3.055   5.890 -1.7576 -2.6100 -0.2321
  378MOL0     H50996  -1.526   2.907   5.844  0.9544  0.7569  0.2575
  378MOL0     H50997  -1.453   3.008   5.973 -1.4064  0.8989  2.4863
  378MOL0     H50998  -1.550   2.818   6.139 -1.9559 -1.9829  0.2778
  378MOL0     H50999  -1.544   2.719   5.999 -1.0121 -0.2394  2.8423
  378MOL0     H51000  -1.317   2.888   6.108 -2.4317 -2.1745  5.6424
  378MOL0     H51001  -1.308   2.796   5.957  0.9051  1.9541  0.3595
  378MOL0     H51002  -1.329   2.601   6.092  2.4123  0.1601 -0.1123
  378MOL0     H51003  -1.369   2.683   6.241  0.2961  3.5770  1.7057
  378MOL0     H51004  -1.095   2.721   6.100 -0.4172  0.3359 -0.8431
  378MOL0     H51005  -1.154   2.809   6.237 -1.2829  0.9583 -2.0798
  378MOL0     H51006  -1.116   2.501   6.275  3.1416  0.2980 -0.4844
  378MOL0     H51007  -1.185   2.617   6.381 -2.2960 -0.1800 -2.5782
  378MOL0     H51008  -0.905   2.636   6.246  1.0749 -1.0320  1.1001
  378MOL0     H51009  -0.954   2.742   6.370  2.7134 -0.1734 -0.4473
  378MOL0     H51010  -1.839   3.262   5.970  0.2038  0.0774 -1.0082
  378MOL0     H51011  -1.816   3.508   5.904 -0.0809 -0.9235 -1.0496
  378MOL0     H51012  -1.633   4.003   6.167 -3.2006  0.3430 -1.3710
  378MOL0     H51013  -1.564   4.233   6.089 -1.1398 -0.3451 -0.2452
  378MOL0     H51014  -0.271   5.642   5.671 -2.3150 -0.4173  4.1994
  378MOL0     H51015  -0.084   5.787   5.733  1.3136  2.3145  2.0163
  378MOL0     H51016  -0.061   6.331   5.778  0.0740  0.2381 -3.3127
  378MOL0     H51017   0.041   6.518   5.839 -0.7660 -0.0849 -1.2852
  378MOL0     H51018   0.251   6.677   5.987  4.0609  1.3517  0.8369
  378MOL0     H51019   0.168   6.698   5.826 -0.3202 -0.9470 -0.1467
  378MOL0     H51020   0.354   6.785   5.736 -5.0620 -0.4545  0.3499
  378MOL0     H51021   0.478   6.753   5.875  0.6987  0.2890  0.5154
  378MOL0     H51022   0.446   6.967   5.882 -0.0799  0.3447 -0.6037
  378MOL0     H51023   0.339   6.893   6.017  0.6729 -5.0486 -0.2210
  378MOL0     H51024   0.268   7.097   5.883  0.7072  0.2315 -0.5934
  378MOL0     H51025   0.216   6.982   5.755  0.3216 -2.8989  0.2912
  378MOL0     H51026  -0.053   6.903   6.078 -0.8784  0.2166 -0.4586
  378MOL0     H51027   0.425   6.330   5.815 -1.0389  0.8508  1.0454
  378MOL0     H51028   0.439   6.098   5.837  0.2652  0.2793  1.0303
  378MOL0     H51029   0.296   6.022   5.905 -0.5073  4.8453  2.7443
  378MOL0     H51030   0.309   6.026   5.728  0.5399  3.7577 -2.3692
  379MOL0     O51031   4.727   2.443   9.072 -0.2214  0.7601  0.2919
  379MOL0     C51032   4.794   2.388   8.993  0.0685 -0.7895 -0.0366
  379MOL0     O51033   4.932   2.422   8.960 -0.2620  0.4211 -0.2035
  379MOL0     C51034   4.995   2.528   9.006 -0.7168 -0.2246 -0.4821
  379MOL0     C51035   5.134   2.515   8.990  0.1520 -0.7565  0.2014
  379MOL0     C51036   5.205   2.637   8.986 -0.0514  0.5879 -0.8766
  379MOL0     C51037   5.144   2.762   8.993 -1.0468  0.4534  0.4407
  379MOL0     O51038   5.223   2.872   8.973 -0.7453  0.4591 -0.0035
  379MOL0     C51039   5.245   2.953   9.085 -0.1596  0.7250 -0.4659
  379MOL0     C51040   5.379   3.024   9.098  0.9449 -0.7173  1.2655
  379MOL0     C51041   5.501   2.937   9.144  0.8016  0.3544 -0.0586
  379MOL0     C51042   5.593   3.005   9.240 -0.6030 -0.0836  0.5586
  379MOL0     C51043   5.736   2.941   9.250  0.6311 -0.1707  0.8785
  379MOL0     C51044   5.809   3.001   9.365 -0.5128  0.8111  0.0698
  379MOL0     C51045   5.848   3.148   9.320 -0.5249 -1.0276 -0.0083
  379MOL0     C51046   5.989   3.182   9.387  0.2386  0.3246  0.2097
  379MOL0     N51047   6.046   3.294   9.322  0.0810 -0.4299  0.5456
  379MOL0     C51048   6.035   3.420   9.372 -0.7398 -0.3623  0.0304
  379MOL0     C51049   6.058   3.498   9.270 -0.3065  0.1128  1.8940
  379MOL0     C51050   6.067   3.658   9.275  0.1494  0.3395 -0.6295
  379MOL0     C51051   6.204   3.696   9.324 -1.4703 -0.1491 -0.4416
  379MOL0     C51052   6.230   3.633   9.459 -0.3120 -0.0508 -0.4139
  379MOL0     C51053   6.330   3.714   9.540  0.5023  0.3310  0.9628
  379MOL0     O51054   6.455   3.740   9.462  0.5901 -0.0286  0.2734
  379MOL0     C51055   6.551   3.810   9.527  0.1263  0.5510 -0.8539
  379MOL0     C51056   6.545   3.874   9.652  0.3530  0.3435 -0.4525
  379MOL0     C51057   6.644   3.954   9.687  0.4023 -0.4788 -0.0591
  379MOL0     C51058   6.762   3.961   9.612 -0.2349 -0.0302 -0.4919
  379MOL0     C51059   6.864   4.050   9.647 -0.7673  0.7450 -0.0335
  379MOL0     O51060   6.985   4.069   9.563  0.3458  1.1151 -0.9954
  379MOL0     C51061   7.063   4.176   9.590  0.8486 -0.3406  0.9058
  379MOL0     C51062   7.118   4.203   9.715 -0.2463  0.1569 -0.3196
  379MOL0     C51063   7.220   4.295   9.728 -0.2859  0.5318 -0.4649
  379MOL0     C51064   7.278   4.367   9.627  0.2500 -0.2961  0.6615
  379MOL0     O51065   7.385   4.458   9.646  0.8675 -0.0528 -0.3404
  379MOL0     C51066   7.426   4.561   9.548  0.1113 -0.1073 -0.2791
  379MOL0     C51067   7.367   4.698   9.577  0.1156  0.2628 -0.8470
  379MOL0     C51068   7.360   4.804   9.478 -0.8438 -0.4342 -0.0702
  379MOL0     C51069   7.499   4.838   9.415 -0.9751 -0.0341 -0.2526
  379MOL0     C51070   7.511   4.786   9.270 -0.0763  0.4182 -0.1825
  379MOL0     C51071   7.636   4.838   9.212 -1.1537 -0.3258 -0.0791
  379MOL0     C51072   7.631   4.989   9.170 -0.1532  0.4863 -0.3481
  379MOL0     C51073   7.777   5.042   9.137  0.6551 -0.0400 -0.2070
  379MOL0    Cl51074   7.870   5.081   9.294  0.1113  0.3302  0.3021
  379MOL0     C51075   7.235   4.323   9.500 -0.0016 -0.4870 -0.3301
  379MOL0     C51076   7.126   4.236   9.488 -0.6155 -1.6609  0.1511
  379MOL0     O51077   6.830   4.130   9.735 -0.4529 -0.2194  0.6292
  379MOL0     C51078   6.773   3.895   9.495  0.6287  0.0429  0.2180
  379MOL0     C51079   6.668   3.814   9.452 -0.7255  0.4104  0.5731
  379MOL0     N51080   6.089   3.428   9.154 -0.2476  0.3478 -0.6987
  379MOL0     N51081   6.088   3.305   9.191  0.0525 -0.0476  0.0703
  379MOL0     C51082   5.009   2.771   9.016  0.6912  0.0975 -0.8888
  379MOL0     C51083   4.934   2.659   9.015  0.4307 -0.6636  1.0387
  379MOL0     C51084   4.735   2.276   8.926 -0.2596  1.0101  0.1365
  379MOL0     C51085   4.612   2.288   8.868 -0.1896  0.0045  0.7243
  379MOL0     C51086   4.550   2.183   8.800 -0.2666 -0.4190 -0.1025
  379MOL0     C51087   4.619   2.060   8.789 -0.4480 -0.7791 -1.0825
  379MOL0     O51088   4.558   1.963   8.716 -0.1391 -0.6975  0.5712
  379MOL0     C51089   4.478   1.870   8.768  0.5767  0.3699 -0.9855
  379MOL0     C51090   4.420   1.786   8.664  1.0166 -0.7121  0.8255
  379MOL0     C51091   4.331   1.683   8.738  0.2170  0.6595  0.4674
  379MOL0     C51092   4.260   1.578   8.656 -0.7495  0.5319 -0.2114
  379MOL0     C51093   4.178   1.478   8.737  0.1115 -1.1376  0.3727
  379MOL0     C51094   4.124   1.390   8.800  0.0466 -0.1750  0.3845
  379MOL0     C51095   4.744   2.050   8.852  0.4456  0.0633 -0.5589
  379MOL0     C51096   4.803   2.155   8.918 -0.5668  0.0674  0.5412
  379MOL0     C51097   4.936   2.120   8.983 -0.2349 -0.7326  0.0126
  379MOL0     H51098   5.162   2.410   8.993  2.7225 -0.1928 -1.3565
  379MOL0     H51099   5.310   2.616   8.968 -0.3047  0.5968 -2.5482
  379MOL0     H51100   5.164   3.026   9.077 -1.3103 -0.2147  1.7852
  379MOL0     H51101   5.245   2.896   9.178  0.3014  2.5531  0.7087
  379MOL0     H51102   5.363   3.110   9.164  2.8619  2.1491 -1.7423
  379MOL0     H51103   5.408   3.066   9.001 -0.0810 -3.0579 -0.1439
  379MOL0     H51104   5.558   2.898   9.059  5.0307  0.9646  2.2157
  379MOL0     H51105   5.465   2.849   9.198 -2.4807  1.1992 -0.6757
  379MOL0     H51106   5.595   3.111   9.215  3.2813 -0.5977 -2.2736
  379MOL0     H51107   5.545   2.985   9.336  0.6071 -2.9584  0.6856
  379MOL0     H51108   5.738   2.834   9.273  1.2707 -0.3140  0.1929
  379MOL0     H51109   5.801   2.949   9.162  0.4295 -0.7668  0.6655
  379MOL0     H51110   5.755   3.003   9.460 -0.2270  0.0659  0.2513
  379MOL0     H51111   5.896   2.938   9.383 -0.6761  1.3881  3.5633
  379MOL0     H51112   5.773   3.222   9.350  0.3859 -0.7881  1.8197
  379MOL0     H51113   5.860   3.145   9.211 -2.4530 -1.3088 -0.2385
  379MOL0     H51114   5.981   3.190   9.496 -1.4510  0.5634  0.0951
  379MOL0     H51115   6.045   3.090   9.373  0.7347  0.2292  2.4625
  379MOL0     H51116   6.012   3.455   9.473  0.1227 -1.6080  0.6766
  379MOL0     H51117   6.070   3.687   9.169 -0.9787 -0.3014 -0.8522
  379MOL0     H51118   5.985   3.707   9.328 -1.3158 -0.5759 -1.9580
  379MOL0     H51119   6.276   3.659   9.250  2.3050  1.5175  2.0419
  379MOL0     H51120   6.194   3.804   9.339 -0.1056  0.0185 -0.6187
  379MOL0     H51121   6.271   3.533   9.440  1.7670  0.4310  1.1785
  379MOL0     H51122   6.140   3.615   9.518 -0.5155  0.1615 -0.6554
  379MOL0     H51123   6.346   3.656   9.631 -2.1281  1.4932  2.2746
  379MOL0     H51124   6.290   3.811   9.569 -2.7476 -0.7455  0.4163
  379MOL0     H51125   6.459   3.870   9.718  0.4640 -3.9437 -0.2805
  379MOL0     H51126   6.632   3.999   9.785 -3.7956 -1.5069  0.0752
  379MOL0     H51127   7.094   4.155   9.810 -2.0583 -1.0285 -1.3075
  379MOL0     H51128   7.257   4.322   9.827 -0.2861  1.7682 -0.7836
  379MOL0     H51129   7.535   4.563   9.556  0.1883  0.7759 -1.3964
  379MOL0     H51130   7.372   4.538   9.456 -3.1014  0.6395  1.2597
  379MOL0     H51131   7.263   4.674   9.598  0.5527 -2.6264 -1.5778
  379MOL0     H51132   7.416   4.741   9.665  1.7629 -2.3187 -0.3997
  379MOL0     H51133   7.288   4.776   9.401 -0.7644 -1.8959  0.3541
  379MOL0     H51134   7.311   4.891   9.522  0.5017  0.2996  0.0178
  379MOL0     H51135   7.571   4.798   9.487 -0.4871 -0.0315 -0.7323
  379MOL0     H51136   7.526   4.943   9.401  1.0804 -0.5633 -0.5383
  379MOL0     H51137   7.425   4.791   9.202 -0.3584 -0.1682  0.1241
  379MOL0     H51138   7.524   4.679   9.287 -2.9241  0.2886  1.8281
  379MOL0     H51139   7.724   4.810   9.270 -0.6604  0.7766 -0.2596
  379MOL0     H51140   7.656   4.778   9.123  0.0639  1.6391 -1.2063
  379MOL0     H51141   7.581   5.062   9.234 -2.4599 -0.7246 -0.6492
  379MOL0     H51142   7.571   4.990   9.078  0.8089  0.7981 -0.9833
  379MOL0     H51143   7.830   4.966   9.079  1.1152  0.6508 -0.7016
  379MOL0     H51144   7.759   5.137   9.087 -3.3124 -0.6895 -0.2872
  379MOL0     H51145   7.279   4.361   9.408 -1.4061 -2.2847 -1.8197
  379MOL0     H51146   7.095   4.217   9.386 -0.0363 -3.6676  0.3064
  379MOL0     H51147   6.847   3.905   9.416  0.7924  1.0734  0.4940
  379MOL0     H51148   6.656   3.765   9.356 -1.3294  1.6463 -0.0089
  379MOL0     H51149   4.968   2.872   9.008  1.0067  0.1900 -1.3558
  379MOL0     H51150   4.827   2.672   9.024  0.3568  1.6536 -1.8195
  379MOL0     H51151   4.560   2.384   8.864 -2.1212 -1.0252 -1.3906
  379MOL0     H51152   4.457   2.200   8.747 -0.3559  1.0437  0.4700
  379MOL0     H51153   4.400   1.918   8.827 -1.2749  1.7798 -4.2883
  379MOL0     H51154   4.538   1.815   8.841 -0.7879  1.0565  0.7107
  379MOL0     H51155   4.509   1.742   8.617  1.7377  2.4639 -1.0315
  379MOL0     H51156   4.349   1.827   8.592  0.3388 -5.2892 -1.4830
  379MOL0     H51157   4.245   1.730   8.786 -0.6048  2.4263 -2.4942
  379MOL0     H51158   4.406   1.630   8.798  0.1318  0.3065  0.2688
  379MOL0     H51159   4.192   1.628   8.586 -0.9328  1.2004  0.4389
  379MOL0     H51160   4.314   1.512   8.587 -0.8055  0.2802 -0.0139
  379MOL0     H51161   4.080   1.304   8.847  2.1700 -1.5216  0.0725
  379MOL0     H51162   4.800   1.957   8.845  1.0849  0.2278  1.5583
  379MOL0     H51163   5.023   2.180   8.953 -1.9797  0.9892 -1.9488
  379MOL0     H51164   4.932   2.120   9.092 -1.9715  0.0866 -0.0183
  379MOL0     H51165   4.959   2.017   8.954  1.2037 -0.3503 -0.3199
  380MOL0     O51166   2.540   4.873   8.831 -0.0933  0.5927 -0.5520
  380MOL0     C51167   2.515   4.761   8.778  0.4018 -0.0729  0.5827
  380MOL0     O51168   2.454   4.744   8.662 -0.1540  0.4368 -0.1726
  380MOL0     C51169   2.407   4.847   8.583 -0.2819  0.2124  0.7724
  380MOL0     C51170   2.485   4.943   8.525  0.2503 -0.9809 -0.3715
  380MOL0     C51171   2.432   5.056   8.460  0.1604  0.1235  0.2692
  380MOL0     C51172   2.301   5.074   8.455  0.3883 -1.0431 -0.9615
  380MOL0     O51173   2.260   5.194   8.399  0.1951  0.0333 -0.0073
  380MOL0     C51174   2.225   5.188   8.253  0.8968 -0.0611 -0.9867
  380MOL0     C51175   2.084   5.143   8.225  0.1471 -1.1101 -1.6930
  380MOL0     C51176   1.962   5.215   8.304 -0.2656  1.1791  0.2820
  380MOL0     C51177   1.828   5.185   8.237  0.6131  0.3814 -0.7376
  380MOL0     C51178   1.705   5.270   8.274 -0.1224 -0.3133 -0.6716
  380MOL0     C51179   1.690   5.266   8.433  0.1679  0.3479  0.6110
  380MOL0     C51180   1.582   5.361   8.481 -0.1113  0.1160 -0.8287
  380MOL0     C51181   1.459   5.291   8.540 -0.5710  0.7106 -0.0641
  380MOL0     N51182   1.465   5.263   8.680  0.2109 -0.2616  0.4524
  380MOL0     C51183   1.548   5.161   8.737  0.4346 -0.1416  0.3458
  380MOL0     C51184   1.550   5.196   8.869  1.0075  0.5413  1.3450
  380MOL0     C51185   1.608   5.126   8.982 -0.2769 -0.2346 -0.4565
  380MOL0     C51186   1.540   5.005   9.034 -0.0354  0.3765  0.3017
  380MOL0     C51187   1.584   4.993   9.175  0.7478  0.1195 -0.7341
  380MOL0     C51188   1.514   4.883   9.248 -0.8573  0.3830 -0.1928
  380MOL0     O51189   1.486   4.762   9.174  1.5325  0.1384 -0.5609
  380MOL0     C51190   1.569   4.659   9.150 -0.1323  0.2401 -0.1215
  380MOL0     C51191   1.713   4.672   9.171 -0.5789  0.3883 -0.4138
  380MOL0     C51192   1.800   4.568   9.149 -0.7151 -0.2226  0.8155
  380MOL0     C51193   1.752   4.439   9.110 -0.6735 -0.8528  0.1822
  380MOL0     C51194   1.844   4.322   9.080  0.2090 -0.6568  0.8969
  380MOL0     O51195   1.983   4.345   9.061 -0.6347  0.9848 -0.1103
  380MOL0     C51196   2.076   4.247   9.051  0.5405  1.0584  0.4583
  380MOL0     C51197   2.050   4.112   9.095  0.3645 -0.8104 -0.3964
  380MOL0     C51198   2.138   4.010   9.058 -0.5550 -0.4089 -0.0892
  380MOL0     C51199   2.251   4.034   8.980 -0.0036 -0.3555  0.1538
  380MOL0     O51200   2.342   3.944   8.941 -0.3726  0.9253 -0.6815
  380MOL0     C51201   2.322   3.801   8.978  1.0052 -1.0236  0.0873
  380MOL0     C51202   2.461   3.724   8.970  0.7339  0.1078  0.6724
  380MOL0     C51203   2.445   3.564   8.965  1.0029 -0.0709 -0.2785
  380MOL0     C51204   2.566   3.484   8.995  0.1156  0.3968  0.2856
  380MOL0     C51205   2.557   3.326   8.966  0.3315  0.7253  0.0125
  380MOL0     C51206   2.691   3.258   8.950  1.4170  0.9242  0.8693
  380MOL0     C51207   2.659   3.104   8.943  1.0155  0.5588  0.3130
  380MOL0     C51208   2.759   3.014   9.005 -0.8129 -0.1539 -0.3287
  380MOL0    Cl51209   2.757   3.050   9.175  0.0342 -0.3103 -0.1104
  380MOL0     C51210   2.283   4.162   8.941  0.2502 -0.4748 -0.9588
  380MOL0     C51211   2.191   4.269   8.983 -1.6760 -0.2326  0.8073
  380MOL0     O51212   1.784   4.225   9.042 -0.1100  0.5894 -0.2365
  380MOL0     C51213   1.616   4.434   9.081  0.4360  0.8623  1.1790
  380MOL0     C51214   1.523   4.536   9.111 -0.3686 -0.7971 -0.1982
  380MOL0     N51215   1.477   5.316   8.893 -0.2117  0.3280  0.8874
  380MOL0     N51216   1.427   5.348   8.775 -0.2867 -0.0825  0.1786
  380MOL0     C51217   2.213   4.974   8.506  0.1185 -0.2849 -0.8309
  380MOL0     C51218   2.269   4.860   8.572  0.3019 -1.1980 -0.1543
  380MOL0     C51219   2.564   4.646   8.843 -0.3994  0.0164  0.2134
  380MOL0     C51220   2.665   4.649   8.937 -0.1335 -1.0197  0.5807
  380MOL0     C51221   2.723   4.549   9.005  0.2718 -0.3987 -0.8888
  380MOL0     C51222   2.685   4.423   8.965  0.2809  1.0287  0.3131
  380MOL0     O51223   2.761   4.331   9.027 -0.0518 -1.0773  1.2258
  380MOL0     C51224   2.766   4.202   8.974  0.3496  0.6301  0.7664
  380MOL0     C51225   2.879   4.111   9.038  0.3080  0.1456  0.9991
  380MOL0     C51226   2.890   3.974   8.969  0.0036 -0.0398 -0.0407
  380MOL0     C51227   2.796   3.860   9.026  0.2520  0.1256  0.1874
  380MOL0     C51228   2.858   3.737   8.993  1.3924  0.3097  0.2777
  380MOL0     C51229   2.894   3.627   8.967  0.3437  0.0186  0.2299
  380MOL0     C51230   2.578   4.405   8.874 -0.9982 -0.4741  0.1018
  380MOL0     C51231   2.516   4.514   8.812 -0.6326  0.0964  1.0827
  380MOL0     C51232   2.402   4.477   8.710  0.3058 -0.2821 -0.6497
  380MOL0     H51233   2.593   4.954   8.533  0.2810  1.6252 -2.8550
  380MOL0     H51234   2.500   5.128   8.416 -0.4920 -0.7253 -2.3282
  380MOL0     H51235   2.236   5.290   8.215 -1.5188  0.0926 -1.4271
  380MOL0     H51236   2.298   5.133   8.193 -1.9419 -1.0443 -3.8393
  380MOL0     H51237   2.096   5.038   8.256  1.4115  0.5217  4.9112
  380MOL0     H51238   2.069   5.152   8.118  0.3109 -3.4769 -1.9816
  380MOL0     H51239   1.975   5.324   8.304 -3.4435  1.6485 -0.5116
  380MOL0     H51240   1.967   5.176   8.406  0.6617 -3.4441 -1.3244
  380MOL0     H51241   1.834   5.193   8.128 -1.6098  1.0416 -0.8538
  380MOL0     H51242   1.807   5.079   8.257  0.6981  0.0947 -2.0727
  380MOL0     H51243   1.722   5.371   8.236  3.0480 -0.9822 -1.3578
  380MOL0     H51244   1.611   5.237   8.228 -0.2724  0.5369 -0.9865
  380MOL0     H51245   1.659   5.166   8.463 -2.3691 -0.1125 -2.9761
  380MOL0     H51246   1.783   5.302   8.478  0.4509 -0.7807  0.9748
  380MOL0     H51247   1.579   5.430   8.396  1.8244  0.5221 -0.6029
  380MOL0     H51248   1.620   5.420   8.564 -3.9890  0.2299  1.0875
  380MOL0     H51249   1.371   5.352   8.517 -0.6784  0.6938  0.3044
  380MOL0     H51250   1.435   5.195   8.492 -0.6499  0.5780  0.2375
  380MOL0     H51251   1.582   5.064   8.702  0.3953 -0.1060  0.2067
  380MOL0     H51252   1.712   5.111   8.952  0.9137  3.2992  1.3015
  380MOL0     H51253   1.607   5.200   9.063 -0.0465 -1.0259  0.2878
  380MOL0     H51254   1.431   5.010   9.025 -0.5335 -3.3108  2.1684
  380MOL0     H51255   1.563   4.912   8.980 -0.9960 -0.9061  2.0165
  380MOL0     H51256   1.555   5.088   9.222  4.5704 -0.0773  2.5368
  380MOL0     H51257   1.691   4.973   9.188  0.1694 -2.4669  0.6722
  380MOL0     H51258   1.416   4.928   9.269 -2.6001 -3.0164 -0.3395
  380MOL0     H51259   1.563   4.844   9.337 -0.2597 -0.5211 -0.9006
  380MOL0     H51260   1.748   4.761   9.224 -4.6019  0.8587  1.8615
  380MOL0     H51261   1.905   4.580   9.176 -0.3608 -2.0739  0.3999
  380MOL0     H51262   1.959   4.082   9.146  0.9922 -0.5907  0.8904
  380MOL0     H51263   2.109   3.909   9.086 -0.1543 -1.2467 -2.4961
  380MOL0     H51264   2.284   3.785   9.079  0.2898  1.4198  0.2519
  380MOL0     H51265   2.267   3.751   8.897  2.9161 -1.5699 -0.9473
  380MOL0     H51266   2.508   3.758   8.877 -3.4304  2.3711 -0.8486
  380MOL0     H51267   2.525   3.748   9.056  0.8227 -1.2586  1.0099
  380MOL0     H51268   2.358   3.540   9.028  1.3205  0.1048  0.2314
  380MOL0     H51269   2.415   3.531   8.865  4.3262 -0.6097 -1.2099
  380MOL0     H51270   2.583   3.486   9.103 -2.0102 -2.0109  0.7721
  380MOL0     H51271   2.652   3.526   8.941 -1.7091  3.3144 -0.5100
  380MOL0     H51272   2.500   3.311   8.874 -0.0290  1.7718  0.0434
  380MOL0     H51273   2.511   3.279   9.053  1.1751 -0.6273 -0.2569
  380MOL0     H51274   2.738   3.281   8.854  0.8620  0.2839  0.4393
  380MOL0     H51275   2.761   3.285   9.030  1.2665  3.6342  0.2121
  380MOL0     H51276   2.640   3.079   8.838  3.4792 -2.0201  0.3532
  380MOL0     H51277   2.566   3.080   8.994  1.2473 -0.9890  0.0515
  380MOL0     H51278   2.738   2.909   8.982 -0.7325 -0.2274 -0.0756
  380MOL0     H51279   2.857   3.051   8.974 -1.3722  1.4230 -0.2811
  380MOL0     H51280   2.369   4.189   8.879 -0.4692 -0.4092 -1.9510
  380MOL0     H51281   2.212   4.368   8.942  2.6514  0.2865  3.6697
  380MOL0     H51282   1.579   4.338   9.045 -1.3087  1.7957  0.3384
  380MOL0     H51283   1.419   4.515   9.092 -1.0850  1.8261  0.4568
  380MOL0     H51284   2.106   4.987   8.491  0.2093  0.2902 -1.0059
  380MOL0     H51285   2.203   4.778   8.601  0.5518 -1.9105 -1.5251
  380MOL0     H51286   2.700   4.747   8.966  2.6880 -1.7050 -0.1994
  380MOL0     H51287   2.793   4.561   9.088 -0.8993  1.8462 -0.1352
  380MOL0     H51288   2.801   4.215   8.870 -0.4662 -0.6501  0.3140
  380MOL0     H51289   2.670   4.151   8.985  1.6253 -1.9857  0.4637
  380MOL0     H51290   2.866   4.105   9.146  1.5089 -1.2522  1.0913
  380MOL0     H51291   2.976   4.159   9.020 -0.0922  0.2698 -1.1904
  380MOL0     H51292   2.993   3.938   8.968 -0.2636 -0.7966 -0.3633
  380MOL0     H51293   2.860   3.992   8.866  0.0298  2.8799  0.3762
  380MOL0     H51294   2.777   3.864   9.134 -0.4403 -0.7620  0.1053
  380MOL0     H51295   2.698   3.878   8.982 -0.8168 -2.2155  1.4246
  380MOL0     H51296   2.914   3.527   8.935 -0.7809 -0.0179 -0.4237
  380MOL0     H51297   2.541   4.309   8.838 -0.1097 -0.4952 -0.7877
  380MOL0     H51298   2.322   4.550   8.724 -0.1537 -1.1134  1.3025
  380MOL0     H51299   2.446   4.467   8.610 -1.7062 -2.3556 -1.4113
  380MOL0     H51300   2.354   4.380   8.725  0.8177 -0.4914 -0.3525
  381MOL0     O51301   0.152   1.011   3.341 -0.5903  0.5079 -0.5763
  381MOL0     C51302   0.068   1.074   3.276 -0.9899 -0.2022  0.4609
  381MOL0     O51303  -0.034   1.140   3.325  0.1703  0.2591  0.2723
  381MOL0     C51304  -0.065   1.103   3.448 -0.0110  0.1211 -0.1036
  381MOL0     C51305   0.005   1.147   3.564 -1.3105 -0.4183  0.6007
  381MOL0     C51306  -0.034   1.110   3.697  0.0047 -0.2142  0.0555
  381MOL0     C51307  -0.135   1.020   3.720  1.0878  0.5648 -0.5266
  381MOL0     O51308  -0.179   0.962   3.847  0.1785  0.1092  1.1686
  381MOL0     C51309  -0.212   1.056   3.947  0.1128 -0.1872 -0.5826
  381MOL0     C51310  -0.343   1.127   3.904 -0.3319  0.4524  0.1590
  381MOL0     C51311  -0.434   1.201   4.006 -0.2059 -0.1789  0.0132
  381MOL0     C51312  -0.584   1.217   3.957 -1.1578 -0.9714  0.0904
  381MOL0     C51313  -0.590   1.296   3.820  0.4988  0.4243 -0.0508
  381MOL0     C51314  -0.733   1.337   3.795  0.8337  0.0702 -0.1599
  381MOL0     C51315  -0.772   1.452   3.892  0.0049  0.6199 -0.5664
  381MOL0     C51316  -0.919   1.434   3.929  0.3891  0.4938  0.2993
  381MOL0     N51317  -1.017   1.445   3.827 -0.3512 -0.3459 -0.3748
  381MOL0     C51318  -1.083   1.344   3.763  0.3099 -0.5863  0.8889
  381MOL0     C51319  -1.160   1.406   3.670  0.9023  0.3127  0.6787
  381MOL0     C51320  -1.256   1.337   3.586 -0.4901 -0.2393  0.5160
  381MOL0     C51321  -1.181   1.241   3.492 -0.4307  0.1628  0.3010
  381MOL0     C51322  -1.103   1.309   3.382  0.4955  0.4799  0.1260
  381MOL0     C51323  -0.981   1.235   3.336 -0.4030 -0.4113 -0.5495
  381MOL0     O51324  -0.925   1.312   3.224  0.6245  0.1575  0.7319
  381MOL0     C51325  -0.869   1.434   3.236  0.2915 -0.1266  0.0186
  381MOL0     C51326  -0.799   1.474   3.350  0.3337  0.6707  0.1583
  381MOL0     C51327  -0.724   1.592   3.361 -0.1892  0.0777  0.2060
  381MOL0     C51328  -0.721   1.677   3.253  0.2495 -0.2121  0.0100
  381MOL0     C51329  -0.652   1.809   3.261  0.0535  0.3187 -0.4539
  381MOL0     O51330  -0.614   1.864   3.143 -0.2961 -0.5789 -0.1392
  381MOL0     C51331  -0.551   1.985   3.130  0.5249  0.0983  0.2257
  381MOL0     C51332  -0.442   2.028   3.212  1.1912 -0.5175  0.3158
  381MOL0     C51333  -0.364   2.130   3.163  0.2247  0.9585  0.3283
  381MOL0     C51334  -0.381   2.201   3.040  0.4416 -0.4816 -0.6692
  381MOL0     O51335  -0.284   2.291   3.001 -0.1641 -0.0402 -0.7655
  381MOL0     C51336  -0.293   2.346   2.866  0.1759  0.2225 -0.2884
  381MOL0     C51337  -0.165   2.419   2.811  0.2320 -0.5432  0.0373
  381MOL0     C51338  -0.041   2.325   2.824  0.0873 -0.7110 -0.3925
  381MOL0     C51339   0.079   2.374   2.748  0.4420  0.3936 -0.6494
  381MOL0     C51340   0.202   2.304   2.794 -0.1116 -0.4507 -0.0035
  381MOL0     C51341   0.206   2.154   2.793 -0.4845  0.5705 -0.0781
  381MOL0     C51342   0.340   2.109   2.832  0.3955 -0.8369  0.5521
  381MOL0     C51343   0.351   1.957   2.822 -0.5340  0.7851  0.6300
  381MOL0    Cl51344   0.521   1.913   2.841 -0.2948 -0.2559  0.1288
  381MOL0     C51345  -0.490   2.155   2.970  0.2056 -0.1506 -0.5099
  381MOL0     C51346  -0.567   2.052   3.003  0.4649 -0.0033 -0.5182
  381MOL0     O51347  -0.624   1.854   3.372 -0.1903 -0.7108  0.1142
  381MOL0     C51348  -0.806   1.653   3.139 -0.2227 -0.6283 -0.5971
  381MOL0     C51349  -0.877   1.522   3.134 -0.1283 -0.6369 -0.1766
  381MOL0     N51350  -1.134   1.538   3.664  0.2069 -0.1459  0.5794
  381MOL0     N51351  -1.039   1.560   3.748 -0.3273 -0.3741 -0.6727
  381MOL0     C51352  -0.209   0.973   3.605  0.2335 -0.2003 -0.1084
  381MOL0     C51353  -0.178   1.021   3.475  0.6918  0.6538 -0.0843
  381MOL0     C51354   0.091   1.078   3.120 -0.4990  0.0544 -0.5578
  381MOL0     C51355   0.053   1.201   3.060 -0.3515 -0.1597  0.7669
  381MOL0     C51356   0.060   1.218   2.919  1.1915 -0.2701 -0.2273
  381MOL0     C51357   0.104   1.113   2.839 -0.5033  0.2438 -0.0856
  381MOL0     O51358   0.123   1.136   2.706 -0.6985  0.6430 -0.0384
  381MOL0     C51359   0.075   1.034   2.615 -0.2888 -0.4169 -0.0943
  381MOL0     C51360   0.186   0.950   2.568 -0.5713 -0.0932 -0.4015
  381MOL0     C51361   0.139   0.856   2.452 -0.0897  0.3769  0.8311
  381MOL0     C51362   0.113   0.939   2.315  0.2000  0.6659  0.3531
  381MOL0     C51363   0.079   0.851   2.198 -0.6021  0.2619 -0.5071
  381MOL0     C51364   0.032   0.799   2.103  0.3607  0.2184 -0.9112
  381MOL0     C51365   0.144   0.996   2.900  0.9947  0.7695 -1.0223
  381MOL0     C51366   0.137   0.974   3.046  0.5830  0.3271  0.3707
  381MOL0     C51367   0.192   0.851   3.106 -0.4033  1.2766 -0.4343
  381MOL0     H51368   0.090   1.213   3.552  0.5642 -2.9126 -0.7023
  381MOL0     H51369   0.012   1.158   3.783 -1.9184 -0.0430  1.0542
  381MOL0     H51370  -0.245   1.001   4.035 -2.2599 -0.7831 -1.7703
  381MOL0     H51371  -0.133   1.130   3.967  2.0515 -2.0338 -1.0856
  381MOL0     H51372  -0.410   1.054   3.858  1.6755  0.3876 -2.8889
  381MOL0     H51373  -0.306   1.195   3.827 -0.8513  0.8584  0.2588
  381MOL0     H51374  -0.386   1.297   4.022  0.4808 -0.8987  2.8923
  381MOL0     H51375  -0.434   1.158   4.107  2.9307 -1.0357 -0.2318
  381MOL0     H51376  -0.633   1.121   3.941 -0.8635 -1.0193 -0.5503
  381MOL0     H51377  -0.638   1.274   4.033 -1.9426 -1.1381 -0.3318
  381MOL0     H51378  -0.523   1.383   3.813  0.5818  0.6191  2.4458
  381MOL0     H51379  -0.563   1.234   3.734 -4.5260 -1.3878 -0.6554
  381MOL0     H51380  -0.742   1.373   3.691  2.4158  0.0669 -0.3189
  381MOL0     H51381  -0.805   1.258   3.818 -1.2572  2.1133  0.7153
  381MOL0     H51382  -0.753   1.547   3.842  4.7229  0.1858  0.0158
  381MOL0     H51383  -0.713   1.464   3.984 -2.3039  3.3298  0.7215
  381MOL0     H51384  -0.927   1.335   3.974  0.3653 -0.2862 -1.3623
  381MOL0     H51385  -0.943   1.498   4.015 -2.3577 -1.0818  0.8307
  381MOL0     H51386  -1.068   1.240   3.790 -0.5799 -1.1179 -0.5690
  381MOL0     H51387  -1.325   1.277   3.646  1.0836 -1.9395  0.7337
  381MOL0     H51388  -1.300   1.410   3.518  0.8392 -2.0890 -2.5401
  381MOL0     H51389  -1.109   1.190   3.557 -1.7321  1.6179  3.0768
  381MOL0     H51390  -1.261   1.176   3.455  0.0848 -0.6258  0.5531
  381MOL0     H51391  -1.068   1.410   3.406  1.0859  0.6774 -1.4333
  381MOL0     H51392  -1.169   1.322   3.296  2.4056  1.2364 -1.3027
  381MOL0     H51393  -1.010   1.134   3.306  2.5208 -0.9250 -1.9999
  381MOL0     H51394  -0.899   1.229   3.409  1.8776  1.4938 -2.7477
  381MOL0     H51395  -0.812   1.409   3.436  0.1170  0.0108 -0.3680
  381MOL0     H51396  -0.682   1.628   3.454  1.0197 -0.7006 -0.0180
  381MOL0     H51397  -0.421   1.987   3.310 -0.2701 -0.4955  0.6502
  381MOL0     H51398  -0.273   2.150   3.220 -0.9604  0.2717  2.6010
  381MOL0     H51399  -0.309   2.260   2.802  0.6883  2.5955 -3.8863
  381MOL0     H51400  -0.375   2.415   2.847 -0.9124 -1.2437 -1.1199
  381MOL0     H51401  -0.189   2.440   2.707 -0.3214  1.9527  0.6032
  381MOL0     H51402  -0.149   2.517   2.857 -1.0717  0.1528 -0.9256
  381MOL0     H51403  -0.019   2.336   2.931  0.3088 -1.3231 -0.3747
  381MOL0     H51404  -0.076   2.225   2.798  2.4749 -1.9933  0.9575
  381MOL0     H51405   0.088   2.482   2.761 -0.4800  0.1882  2.7813
  381MOL0     H51406   0.062   2.351   2.643 -0.0144 -3.5577  0.1348
  381MOL0     H51407   0.227   2.342   2.894 -0.0074 -2.5377  0.8349
  381MOL0     H51408   0.283   2.335   2.728 -0.6168 -0.1521 -0.4798
  381MOL0     H51409   0.130   2.103   2.853 -1.2427  3.5945  1.7240
  381MOL0     H51410   0.210   2.126   2.687  3.9641 -0.4228  0.1116
  381MOL0     H51411   0.363   2.142   2.933  1.6091 -2.6876  0.9237
  381MOL0     H51412   0.413   2.155   2.765  1.2331  2.2593  3.3506
  381MOL0     H51413   0.289   1.909   2.899 -0.4041 -1.2523 -0.4623
  381MOL0     H51414   0.313   1.913   2.729 -1.0207  0.2801  1.0567
  381MOL0     H51415  -0.513   2.202   2.875 -0.7509 -0.7228 -0.5687
  381MOL0     H51416  -0.649   2.013   2.942  1.8480 -1.1652 -1.7186
  381MOL0     H51417  -0.796   1.721   3.055 -3.9524  0.8307 -0.0801
  381MOL0     H51418  -0.924   1.500   3.039  1.4331 -4.2409 -0.2542
  381MOL0     H51419  -0.304   0.922   3.617 -0.0593  0.0071 -1.3877
  381MOL0     H51420  -0.236   0.989   3.390 -0.1644  0.8986  0.3914
  381MOL0     H51421   0.023   1.279   3.129  0.1390  0.5554  0.1757
  381MOL0     H51422   0.028   1.318   2.893 -2.4583 -1.6566 -1.6590
  381MOL0     H51423   0.027   1.091   2.536 -1.5210  1.0332  1.6129
  381MOL0     H51424  -0.001   0.968   2.658  0.6825 -2.6673 -1.6365
  381MOL0     H51425   0.223   0.882   2.646  1.3120  0.2994 -0.8848
  381MOL0     H51426   0.278   0.999   2.532  1.2917 -0.8076  2.9680
  381MOL0     H51427   0.049   0.802   2.481 -0.1939 -0.3472 -0.7094
  381MOL0     H51428   0.214   0.779   2.434 -1.1549 -0.3053 -1.0871
  381MOL0     H51429   0.032   1.013   2.318  0.0526  0.5265 -0.1231
  381MOL0     H51430   0.204   0.996   2.294  1.4076 -1.0104  0.8581
  381MOL0     H51431  -0.010   0.745   2.021 -1.2396 -0.1061  0.0737
  381MOL0     H51432   0.177   0.907   2.847 -1.3916  0.2471 -1.7793
  381MOL0     H51433   0.228   0.779   3.032  1.1967  0.7333  0.8220
  381MOL0     H51434   0.275   0.878   3.172 -0.8952  2.9629 -0.4750
  381MOL0     H51435   0.114   0.796   3.160  2.1209 -0.7919  1.3233
  382MOL0     O51436   5.359   7.792   3.276  0.6315 -0.3992 -0.0225
  382MOL0     C51437   5.283   7.700   3.260 -0.1523  1.0377  0.8535
  382MOL0     O51438   5.233   7.619   3.357 -0.0517 -0.7145  0.3318
  382MOL0     C51439   5.285   7.627   3.478 -0.2077 -1.1077 -0.8891
  382MOL0     C51440   5.227   7.704   3.587  0.0967  0.6451  0.2986
  382MOL0     C51441   5.291   7.713   3.715  0.0451  0.1505  0.1260
  382MOL0     C51442   5.413   7.653   3.740  0.6442  1.1203  0.5882
  382MOL0     O51443   5.479   7.654   3.858 -0.2400  0.1338  0.3099
  382MOL0     C51444   5.450   7.766   3.945  0.3951 -0.8154 -0.4246
  382MOL0     C51445   5.579   7.805   4.025  0.1485 -0.4203  0.8464
  382MOL0     C51446   5.611   7.703   4.148 -0.0988 -0.2158 -0.3888
  382MOL0     C51447   5.750   7.728   4.209 -0.7423 -0.8587  0.7056
  382MOL0     C51448   5.753   7.619   4.321  0.1424 -0.5132  1.0148
  382MOL0     C51449   5.885   7.630   4.396  0.4198 -0.3049 -0.6669
  382MOL0     C51450   5.884   7.532   4.519  0.3180  0.3198 -0.0119
  382MOL0     C51451   6.013   7.538   4.605  0.3261  0.2875  0.0661
  382MOL0     N51452   6.032   7.661   4.676 -1.0895  0.3293  0.1474
  382MOL0     C51453   6.073   7.779   4.616 -0.1540  0.6936 -0.0343
  382MOL0     C51454   6.081   7.851   4.732  0.3701  0.6470  0.4811
  382MOL0     C51455   6.115   8.000   4.719 -0.4790 -0.7723 -0.4742
  382MOL0     C51456   5.992   8.085   4.710 -0.4575 -0.3241  0.0609
  382MOL0     C51457   6.016   8.236   4.708 -0.6819 -0.2920  0.0461
  382MOL0     C51458   5.888   8.311   4.686 -1.2029  0.7434  0.2251
  382MOL0     O51459   5.877   8.435   4.742  0.5093 -0.3869  0.0631
  382MOL0     C51460   5.980   8.529   4.723 -0.3112 -0.3320 -0.3743
  382MOL0     C51461   5.990   8.629   4.814  0.6762 -0.7472  0.6621
  382MOL0     C51462   6.087   8.730   4.792  0.0580  0.4909  0.7211
  382MOL0     C51463   6.164   8.742   4.671 -0.0564 -0.3617 -0.6795
  382MOL0     C51464   6.253   8.862   4.653  1.2011  0.3499 -0.0161
  382MOL0     O51465   6.291   8.938   4.766  0.0125 -0.5111  0.1594
  382MOL0     C51466   6.369   9.048   4.755 -0.8431  0.6546 -0.8090
  382MOL0     C51467   6.333   9.154   4.836 -1.0106 -1.0465 -0.2697
  382MOL0     C51468   6.389   9.284   4.822  0.1159  0.1372 -0.4875
  382MOL0     C51469   6.479   9.303   4.719 -0.5968 -1.1351  1.0924
  382MOL0     O51470   6.551   9.427   4.681 -0.2154 -0.0825  0.1370
  382MOL0     C51471   6.539   9.540   4.769  0.1976  0.1649 -1.1749
  382MOL0     C51472   6.651   9.642   4.735  0.8579  0.0142 -0.7647
  382MOL0     C51473   6.661   9.692   4.591  0.8064 -0.5883 -0.4624
  382MOL0     C51474   6.529   9.777   4.547  0.9240  0.1827  0.3247
  382MOL0     C51475   6.532   9.815   4.393  0.2808 -0.1918 -0.7853
  382MOL0     C51476   6.399   9.868   4.338 -0.2497 -0.5501  0.0929
  382MOL0     C51477   6.351  10.004   4.404 -0.1927  0.4229  1.1867
  382MOL0     C51478   6.239  10.073   4.319 -1.1091  0.4343  0.1563
  382MOL0    Cl51479   6.311  10.158   4.184 -0.1797 -0.2660  0.3724
  382MOL0     C51480   6.528   9.196   4.641 -0.2567 -0.9085 -0.0962
  382MOL0     C51481   6.471   9.070   4.661 -0.9699  0.8101  0.7142
  382MOL0     O51482   6.269   8.895   4.531  0.9909 -0.1680  0.1224
  382MOL0     C51483   6.143   8.643   4.582  0.7982 -0.6025  0.5478
  382MOL0     C51484   6.057   8.535   4.607 -0.5413 -0.1050 -0.7475
  382MOL0     N51485   6.056   7.773   4.839 -0.1688 -0.1290 -0.2975
  382MOL0     N51486   6.035   7.653   4.809 -0.5027  0.8821 -0.4286
  382MOL0     C51487   5.458   7.563   3.640 -0.2489  0.7157 -0.0452
  382MOL0     C51488   5.403   7.557   3.518  0.7802  0.1111 -0.0940
  382MOL0     C51489   5.256   7.665   3.125 -0.4093  0.2689  0.0617
  382MOL0     C51490   5.344   7.726   3.025 -0.1161 -0.2767  0.4838
  382MOL0     C51491   5.317   7.705   2.885  0.2568 -0.1833 -0.6406
  382MOL0     C51492   5.203   7.643   2.841 -0.1862  0.0106  0.7175
  382MOL0     O51493   5.171   7.613   2.710 -0.1693 -0.4363  1.1210
  382MOL0     C51494   5.277   7.528   2.653  0.2711  0.2396  0.3091
  382MOL0     C51495   5.209   7.441   2.546  0.3686  0.1916  0.5206
  382MOL0     C51496   5.173   7.513   2.402  0.0785 -0.7513 -0.4227
  382MOL0     C51497   5.106   7.416   2.304  0.0225 -0.2216  0.2439
  382MOL0     C51498   5.187   7.301   2.269 -0.5996 -0.1289 -0.5286
  382MOL0     C51499   5.251   7.196   2.260  0.7502 -0.3724  0.0705
  382MOL0     C51500   5.105   7.607   2.938 -0.4261  0.9033 -0.4426
  382MOL0     C51501   5.133   7.618   3.074  0.3544  0.4326 -0.4005
  382MOL0     C51502   5.010   7.611   3.165 -0.4270 -1.0660  0.0151
  382MOL0     H51503   5.133   7.756   3.569 -0.7169  0.4517  3.4000
  382MOL0     H51504   5.240   7.773   3.790  0.2683  0.2558  0.1953
  382MOL0     H51505   5.431   7.852   3.880 -1.3901 -0.0275  1.0446
  382MOL0     H51506   5.376   7.763   4.025  2.0998  1.9668  1.4294
  382MOL0     H51507   5.560   7.911   4.042 -3.4829  0.6539 -6.2210
  382MOL0     H51508   5.664   7.797   3.958 -0.4919  1.0972 -0.2001
  382MOL0     H51509   5.606   7.598   4.118 -1.6438 -0.2916  0.0543
  382MOL0     H51510   5.530   7.717   4.221 -0.1730  1.5763 -0.7853
  382MOL0     H51511   5.821   7.715   4.126 -0.6466 -3.3043  1.1260
  382MOL0     H51512   5.756   7.827   4.256  1.3822 -0.1469 -0.8650
  382MOL0     H51513   5.668   7.640   4.386  1.0786 -0.7385  2.3485
  382MOL0     H51514   5.743   7.523   4.269 -0.5788  0.1133 -0.0602
  382MOL0     H51515   5.970   7.610   4.331  1.0081  0.4359 -0.1515
  382MOL0     H51516   5.898   7.733   4.432 -0.5554 -0.9942  1.9332
  382MOL0     H51517   5.880   7.432   4.474 -2.7017  0.4562 -0.2697
  382MOL0     H51518   5.794   7.538   4.580  0.8086 -1.3094  0.9573
  382MOL0     H51519   6.015   7.456   4.677  2.8061 -1.2947 -1.6488
  382MOL0     H51520   6.101   7.528   4.541 -1.6025  0.2491 -2.7892
  382MOL0     H51521   6.076   7.811   4.513  0.7747  0.9986  0.0800
  382MOL0     H51522   6.163   8.028   4.814 -1.2937 -0.1320 -0.2430
  382MOL0     H51523   6.187   8.021   4.639  0.2566 -0.4346  0.2568
  382MOL0     H51524   5.943   8.044   4.621 -2.3501 -3.5499  2.3790
  382MOL0     H51525   5.916   8.061   4.784 -1.3145 -1.3170 -1.0912
  382MOL0     H51526   6.096   8.264   4.639  1.9278  0.9967  3.2956
  382MOL0     H51527   6.050   8.274   4.805  1.8242  0.2122 -0.9521
  382MOL0     H51528   5.809   8.251   4.733 -0.5662  2.5126  3.8717
  382MOL0     H51529   5.870   8.306   4.578 -0.4002 -1.0995  0.1393
  382MOL0     H51530   5.942   8.632   4.911 -0.8695  0.6408 -0.0994
  382MOL0     H51531   6.103   8.808   4.867  0.2692  0.3351  0.8396
  382MOL0     H51532   6.256   9.141   4.912 -1.4205 -1.3473 -0.7327
  382MOL0     H51533   6.337   9.361   4.879 -1.7026 -1.6415  0.3796
  382MOL0     H51534   6.439   9.584   4.763  0.7175  1.6337  0.0958
  382MOL0     H51535   6.546   9.504   4.872  0.2776  0.6865 -0.9955
  382MOL0     H51536   6.638   9.717   4.813  1.4198 -1.2203  0.5611
  382MOL0     H51537   6.743   9.591   4.766 -0.5444 -1.4006  1.2518
  382MOL0     H51538   6.753   9.751   4.584 -0.6110  1.7589 -0.4188
  382MOL0     H51539   6.662   9.599   4.534 -1.2649 -0.4695 -0.7973
  382MOL0     H51540   6.517   9.872   4.599 -1.0445  0.0578  0.1768
  382MOL0     H51541   6.437   9.724   4.570  0.6079  0.7822  0.4617
  382MOL0     H51542   6.556   9.729   4.329 -2.6409 -1.6186 -0.1411
  382MOL0     H51543   6.607   9.892   4.371  0.0125  0.4371  0.4187
  382MOL0     H51544   6.431   9.900   4.238 -0.4854 -4.5312 -1.4509
  382MOL0     H51545   6.310   9.805   4.351  0.0477 -0.4950  2.9324
  382MOL0     H51546   6.438  10.070   4.404  0.7458 -0.7663  1.0346
  382MOL0     H51547   6.324   9.995   4.509  2.2567  0.2360  1.8726
  382MOL0     H51548   6.170  10.003   4.272  1.7332 -0.3982 -3.1644
  382MOL0     H51549   6.185  10.149   4.377 -2.4055 -1.3863  1.4448
  382MOL0     H51550   6.609   9.200   4.569  0.4192 -2.7485  0.4868
  382MOL0     H51551   6.502   8.991   4.593  1.4620  2.6041 -0.4021
  382MOL0     H51552   6.194   8.648   4.487 -1.4485 -1.0561 -0.7654
  382MOL0     H51553   6.058   8.459   4.529  1.9604 -0.6510 -0.2945
  382MOL0     H51554   5.552   7.509   3.643 -0.6757 -0.1699 -1.4398
  382MOL0     H51555   5.452   7.497   3.442  0.9763 -0.0027  0.1185
  382MOL0     H51556   5.437   7.778   3.047  0.0698  0.0937 -1.0711
  382MOL0     H51557   5.383   7.753   2.814 -0.5480 -0.6513 -1.7440
  382MOL0     H51558   5.314   7.467   2.735 -0.2897 -0.3605  0.1282
  382MOL0     H51559   5.362   7.583   2.611 -2.2904  2.8400 -1.8937
  382MOL0     H51560   5.123   7.387   2.584 -1.8586  3.3069  0.3029
  382MOL0     H51561   5.281   7.365   2.514  1.8095  1.1688  1.3035
  382MOL0     H51562   5.260   7.566   2.363  0.5057 -0.2430  1.1280
  382MOL0     H51563   5.104   7.596   2.420 -3.1403 -2.8965 -1.8794
  382MOL0     H51564   5.017   7.379   2.355 -1.0114  2.3548  0.4604
  382MOL0     H51565   5.078   7.478   2.218  2.1064 -1.4097 -1.3991
  382MOL0     H51566   5.317   7.113   2.277  0.3422 -0.6488  0.3051
  382MOL0     H51567   5.007   7.569   2.909 -1.9711  2.7337  2.0417
  382MOL0     H51568   4.924   7.582   3.105  0.1092 -0.3151 -1.1512
  382MOL0     H51569   5.033   7.533   3.238  0.1062 -2.6570 -1.7729
  382MOL0     H51570   4.982   7.708   3.207 -2.1860  0.4960 -4.2408
  383MOL0     O51571   7.814   2.691   1.919 -0.0335 -0.0379  0.2434
  383MOL0     C51572   7.863   2.708   2.030  0.4399  0.9217  0.6510
  383MOL0     O51573   7.820   2.647   2.141  0.8777  0.0578  0.0503
  383MOL0     C51574   7.689   2.605   2.147  0.3456 -0.3748  0.0916
  383MOL0     C51575   7.578   2.667   2.084  0.4888 -0.6518  0.2200
  383MOL0     C51576   7.447   2.625   2.099  0.7600  0.0346 -0.7547
  383MOL0     C51577   7.424   2.511   2.179 -0.4650 -0.2461 -0.8713
  383MOL0     O51578   7.296   2.493   2.204  0.0655 -0.6939 -0.0891
  383MOL0     C51579   7.253   2.472   2.338 -1.0531 -0.9988 -0.4351
  383MOL0     C51580   7.281   2.606   2.426  0.5193  1.1557  0.0959
  383MOL0     C51581   7.217   2.731   2.358  0.5002 -0.0892 -0.0838
  383MOL0     C51582   7.153   2.834   2.464 -0.6805 -0.2736  0.3308
  383MOL0     C51583   7.130   2.976   2.402  0.2427 -0.1553  0.4524
  383MOL0     C51584   7.091   3.081   2.504 -0.1297  0.2907  0.3492
  383MOL0     C51585   7.087   3.219   2.445  0.9818  0.8393 -0.4553
  383MOL0     C51586   7.093   3.325   2.555  0.0305  0.2554 -0.0693
  383MOL0     N51587   6.966   3.345   2.618  0.2291  0.9130  0.3694
  383MOL0     C51588   6.907   3.268   2.719  0.0249  0.2851  0.5387
  383MOL0     C51589   6.773   3.303   2.720 -0.2500 -0.4731 -0.7311
  383MOL0     C51590   6.674   3.254   2.824 -0.4017  0.3312  0.0204
  383MOL0     C51591   6.580   3.155   2.757  0.7678  0.6278 -0.5004
  383MOL0     C51592   6.518   3.068   2.867  0.0756  0.1324 -0.2598
  383MOL0     C51593   6.396   2.988   2.825  0.9374  0.2151 -0.5495
  383MOL0     O51594   6.355   2.909   2.941 -0.6075 -0.2223 -0.1080
  383MOL0     C51595   6.253   2.816   2.937  0.1863 -0.4115  0.1573
  383MOL0     C51596   6.214   2.780   3.071  0.0255 -0.4463  0.6543
  383MOL0     C51597   6.113   2.697   3.083 -0.8198  0.3103  0.6880
  383MOL0     C51598   6.025   2.653   2.979 -1.1278 -0.1097 -0.3167
  383MOL0     C51599   5.923   2.548   3.017  0.3481 -0.5272  0.0540
  383MOL0     O51600   5.867   2.484   2.915  0.1047 -0.6696 -0.9242
  383MOL0     C51601   5.766   2.391   2.914 -0.6328 -0.8233  0.0265
  383MOL0     C51602   5.745   2.344   2.784  0.5225  0.1144  0.8936
  383MOL0     C51603   5.636   2.265   2.755  0.5038 -0.9756  0.6241
  383MOL0     C51604   5.548   2.234   2.856 -0.7086  0.8211 -0.3474
  383MOL0     O51605   5.445   2.154   2.821 -0.5159  0.4503 -0.2487
  383MOL0     C51606   5.348   2.114   2.931 -0.2857  0.1112 -0.3567
  383MOL0     C51607   5.252   2.002   2.882  0.5301  0.0507 -0.4350
  383MOL0     C51608   5.304   1.861   2.907 -0.0231  0.6030 -1.1015
  383MOL0     C51609   5.191   1.755   2.902 -0.2127  0.6566 -0.0919
  383MOL0     C51610   5.254   1.622   2.873 -0.2658 -0.8828  0.4395
  383MOL0     C51611   5.153   1.509   2.873  0.1398  0.1675  0.4071
  383MOL0     C51612   5.089   1.493   3.009  0.1688  0.3654  0.1074
  383MOL0     C51613   5.020   1.358   3.021 -0.1570 -0.1086  0.1362
  383MOL0    Cl51614   5.015   1.309   3.202 -0.2416 -0.2816  0.0176
  383MOL0     C51615   5.571   2.279   2.992 -0.4815 -0.8309  0.0121
  383MOL0     C51616   5.676   2.357   3.017 -0.6108 -0.5207  0.1987
  383MOL0     O51617   5.905   2.517   3.135  0.0753 -0.0277 -0.3061
  383MOL0     C51618   6.052   2.707   2.847  0.2112  0.3343 -0.2852
  383MOL0     C51619   6.169   2.784   2.823  0.1931  0.3709 -0.7842
  383MOL0     N51620   6.754   3.402   2.620  0.2585  0.0667 -0.3652
  383MOL0     N51621   6.864   3.421   2.564  0.6148 -0.4736 -0.1695
  383MOL0     C51622   7.529   2.438   2.240 -0.1456  0.8311 -0.0436
  383MOL0     C51623   7.662   2.490   2.230 -0.1448  0.7566  0.5717
  383MOL0     C51624   7.995   2.771   2.026  0.7327 -0.5392  0.1669
  383MOL0     C51625   8.097   2.722   2.108  0.7774  0.0956 -0.1389
  383MOL0     C51626   8.228   2.766   2.106 -0.7093 -0.6073  0.0545
  383MOL0     C51627   8.266   2.877   2.025 -0.4943  0.7834  0.3786
  383MOL0     O51628   8.402   2.927   2.032 -0.0502  0.0091 -0.3714
  383MOL0     C51629   8.418   3.066   2.026  0.4833  0.3779  1.1821
  383MOL0     C51630   8.325   3.129   2.127 -0.6057 -0.8144 -0.3265
  383MOL0     C51631   8.392   3.231   2.200 -0.5678  0.0784 -0.3302
  383MOL0     C51632   8.311   3.294   2.313  0.7107 -0.5086  0.3315
  383MOL0     C51633   8.178   3.356   2.269 -0.4085 -0.3682 -0.0991
  383MOL0     C51634   8.080   3.426   2.238  0.1828 -0.1428  0.3192
  383MOL0     C51635   8.169   2.923   1.935 -0.7831 -0.3055  0.0655
  383MOL0     C51636   8.033   2.869   1.937 -0.0875  0.0570 -0.0242
  383MOL0     C51637   7.941   2.925   1.835 -0.7725  1.0096  0.0967
  383MOL0     H51638   7.578   2.758   2.025 -0.8447 -0.3539  0.6314
  383MOL0     H51639   7.371   2.691   2.057 -0.1730 -0.9598 -0.6847
  383MOL0     H51640   7.146   2.454   2.329 -1.7185  1.0181  2.2368
  383MOL0     H51641   7.315   2.392   2.380  2.5266  0.4230 -2.5694
  383MOL0     H51642   7.389   2.617   2.444  0.4210  0.7587  1.0046
  383MOL0     H51643   7.234   2.577   2.520  3.0863  0.4399  1.2620
  383MOL0     H51644   7.147   2.703   2.278  2.6009 -2.0981 -1.3259
  383MOL0     H51645   7.295   2.781   2.300 -0.1719 -0.5572 -1.4385
  383MOL0     H51646   7.060   2.790   2.503  0.0905 -0.6360  1.8210
  383MOL0     H51647   7.226   2.845   2.544  1.4134  2.7355 -1.8038
  383MOL0     H51648   7.233   2.996   2.369 -0.5919  0.5487 -1.9431
  383MOL0     H51649   7.069   2.962   2.313  0.3317 -2.0080  0.6296
  383MOL0     H51650   6.987   3.059   2.528  0.3328 -2.8839 -0.1291
  383MOL0     H51651   7.154   3.069   2.592 -0.9742 -1.0362  0.7935
  383MOL0     H51652   6.995   3.223   2.385  0.4096 -0.5139  0.2840
  383MOL0     H51653   7.176   3.221   2.381  2.9879 -2.7739  1.9188
  383MOL0     H51654   7.174   3.291   2.621 -0.4122  2.0435  1.4895
  383MOL0     H51655   7.118   3.426   2.521 -0.9902 -0.1638 -2.2465
  383MOL0     H51656   6.958   3.208   2.794 -0.4474 -0.4852  0.2549
  383MOL0     H51657   6.723   3.217   2.915 -2.3547  3.2938  2.5159
  383MOL0     H51658   6.607   3.334   2.859 -3.3598 -2.0083  0.1686
  383MOL0     H51659   6.513   3.216   2.696  0.1647  0.2447 -0.2281
  383MOL0     H51660   6.639   3.086   2.696 -0.9467 -0.8767 -0.5505
  383MOL0     H51661   6.490   3.130   2.953 -0.4916 -0.7363  0.1912
  383MOL0     H51662   6.589   2.990   2.893 -2.5660 -1.8148  1.5650
  383MOL0     H51663   6.406   2.927   2.735  0.2065  0.0565 -0.5327
  383MOL0     H51664   6.318   3.055   2.788 -0.9138 -3.4931 -4.1708
  383MOL0     H51665   6.268   2.798   3.163 -1.1683  2.0843  0.9559
  383MOL0     H51666   6.115   2.653   3.183 -1.2335  1.3789  1.1707
  383MOL0     H51667   5.823   2.369   2.712  0.8562 -0.8728  0.8911
  383MOL0     H51668   5.627   2.240   2.650  0.7462 -1.6021  0.7494
  383MOL0     H51669   5.399   2.082   3.022  0.6120 -0.5745 -1.0737
  383MOL0     H51670   5.287   2.202   2.953  0.0762  0.2836 -0.0376
  383MOL0     H51671   5.151   2.006   2.924  0.4372 -1.2872 -0.4919
  383MOL0     H51672   5.253   2.011   2.773  0.8973 -1.9739 -0.6249
  383MOL0     H51673   5.381   1.843   2.831  0.4239  2.1850 -1.0607
  383MOL0     H51674   5.352   1.854   3.005 -1.4659  2.6690 -0.1692
  383MOL0     H51675   5.123   1.794   2.825  1.6398  2.5996 -0.8602
  383MOL0     H51676   5.138   1.756   2.998  0.2531 -1.4225  0.2280
  383MOL0     H51677   5.316   1.602   2.960 -0.8619 -1.3743  0.7626
  383MOL0     H51678   5.316   1.613   2.783  1.2549 -0.0669  1.3722
  383MOL0     H51679   5.083   1.516   2.790  0.7937  0.7087 -0.1115
  383MOL0     H51680   5.213   1.425   2.835 -1.2258  0.6546 -3.2519
  383MOL0     H51681   5.002   1.560   3.005 -0.6904 -0.7325 -0.1989
  383MOL0     H51682   5.157   1.506   3.093  0.5367 -1.3741  0.1118
  383MOL0     H51683   4.923   1.365   2.971  0.4860  1.3701 -1.0028
  383MOL0     H51684   5.079   1.278   2.976  0.4808 -1.6319  3.3595
  383MOL0     H51685   5.502   2.270   3.074  0.0663  0.8197  0.6863
  383MOL0     H51686   5.693   2.408   3.112  1.3812 -0.9216  0.1064
  383MOL0     H51687   5.975   2.688   2.773 -2.6576 -1.8378  2.9292
  383MOL0     H51688   6.196   2.812   2.722  5.1203 -2.1068 -0.4372
  383MOL0     H51689   7.506   2.355   2.306  2.1776 -0.3944 -0.6671
  383MOL0     H51690   7.736   2.430   2.281 -0.1783 -1.3331 -1.6592
  383MOL0     H51691   8.072   2.644   2.179  0.9602 -0.5498 -0.7642
  383MOL0     H51692   8.308   2.725   2.168 -0.1212  1.0198  0.4212
  383MOL0     H51693   8.394   3.101   1.925  0.2286 -0.5239  0.9173
  383MOL0     H51694   8.522   3.088   2.050 -0.2894  2.5339  2.9338
  383MOL0     H51695   8.308   3.057   2.208  1.2359  0.8771  1.6920
  383MOL0     H51696   8.232   3.170   2.088 -0.7896  0.2178  1.1484
  383MOL0     H51697   8.418   3.321   2.143 -2.0675  0.9032  0.2314
  383MOL0     H51698   8.482   3.187   2.244 -0.4215  0.4501 -0.2469
  383MOL0     H51699   8.276   3.213   2.378 -0.8656 -1.5264 -1.6782
  383MOL0     H51700   8.366   3.369   2.370  0.0201 -0.6280  1.1882
  383MOL0     H51701   7.991   3.482   2.218  1.2519  0.9832 -1.4869
  383MOL0     H51702   8.192   3.002   1.864 -0.1862 -1.8408 -1.5420
  383MOL0     H51703   7.940   2.853   1.753 -0.3200  0.1578  0.8168
  383MOL0     H51704   7.843   2.940   1.883 -0.5086  1.3754  0.5363
  383MOL0     H51705   7.966   3.027   1.805 -0.6255  0.3763 -2.0612
  384MOL0     O51706   0.921   4.883   4.689 -0.5033 -0.0375 -0.0346
  384MOL0     C51707   0.988   4.827   4.781 -0.3103  0.0424  0.2873
  384MOL0     O51708   0.935   4.752   4.879 -0.5411 -0.4981 -1.1190
  384MOL0     C51709   0.802   4.768   4.891  0.6272 -0.2697  0.5425
  384MOL0     C51710   0.740   4.828   5.009 -0.0662 -0.1762  0.6958
  384MOL0     C51711   0.599   4.827   5.019  0.1720 -0.1159 -0.2630
  384MOL0     C51712   0.517   4.767   4.930 -0.4973  0.5014  0.2624
  384MOL0     O51713   0.385   4.776   4.934  0.2832 -0.6260 -0.7758
  384MOL0     C51714   0.311   4.897   4.962 -0.2995  0.5188 -0.7053
  384MOL0     C51715   0.238   4.979   4.856  0.1440  0.4003 -0.4233
  384MOL0     C51716   0.323   5.028   4.746  0.0063  0.4940 -0.3881
  384MOL0     C51717   0.317   4.952   4.610  0.4813  0.1621  0.3713
  384MOL0     C51718   0.417   5.002   4.503 -0.5587 -0.2070  0.5000
  384MOL0     C51719   0.563   4.983   4.548  0.3489 -0.2316  1.1451
  384MOL0     C51720   0.648   4.979   4.415 -0.2519 -0.3114  0.4782
  384MOL0     C51721   0.803   4.985   4.436 -0.0234  0.4098 -0.6654
  384MOL0     N51722   0.852   5.048   4.313 -0.2561  0.3141  0.6139
  384MOL0     C51723   0.843   5.179   4.286 -0.0147 -0.1604 -0.2807
  384MOL0     C51724   0.912   5.194   4.168 -0.3044 -0.3123 -0.2521
  384MOL0     C51725   0.925   5.317   4.082  0.5045 -0.3537  0.3919
  384MOL0     C51726   1.062   5.347   4.014 -0.7814 -1.4315 -0.3958
  384MOL0     C51727   1.102   5.253   3.899 -0.6331 -0.4735  0.4219
  384MOL0     C51728   1.213   5.307   3.810  1.4932 -0.2621 -0.7327
  384MOL0     O51729   1.329   5.332   3.889 -0.2490  0.3082 -0.0648
  384MOL0     C51730   1.420   5.426   3.826  0.2039  0.3930 -0.7425
  384MOL0     C51731   1.493   5.388   3.719 -0.2995  0.4078  1.0935
  384MOL0     C51732   1.581   5.475   3.662 -0.7662  0.0240 -0.5898
  384MOL0     C51733   1.612   5.604   3.720  0.5941 -0.7930 -0.5477
  384MOL0     C51734   1.692   5.701   3.649  0.1260  0.0786 -0.1763
  384MOL0     O51735   1.699   5.811   3.721 -0.0079 -0.1508 -0.4450
  384MOL0     C51736   1.766   5.923   3.670 -0.0792 -0.6763 -0.1047
  384MOL0     C51737   1.883   5.927   3.598  0.1047  0.8126  0.2304
  384MOL0     C51738   1.932   6.045   3.533 -0.4192  0.2032 -0.9750
  384MOL0     C51739   1.865   6.171   3.547  0.4012 -0.1552  0.8132
  384MOL0     O51740   1.922   6.287   3.493 -0.6825 -0.3677 -0.7146
  384MOL0     C51741   1.834   6.399   3.474  0.5967  0.3101  0.0974
  384MOL0     C51742   1.895   6.514   3.396  0.2213 -0.4826  0.3769
  384MOL0     C51743   1.913   6.490   3.240  0.5841 -0.4973  0.3088
  384MOL0     C51744   2.008   6.594   3.173 -0.0333  0.8376  0.4284
  384MOL0     C51745   1.938   6.647   3.043 -1.1725  0.3827  0.2715
  384MOL0     C51746   2.001   6.780   3.006  0.9990 -0.0141 -0.5008
  384MOL0     C51747   1.920   6.818   2.877 -0.0453 -1.0015 -0.2105
  384MOL0     C51748   1.939   6.969   2.848 -0.3800  0.3985  0.1098
  384MOL0    Cl51749   2.096   6.993   2.759 -0.0626  0.4002  0.1267
  384MOL0     C51750   1.747   6.172   3.630  0.2854  0.5962  0.3037
  384MOL0     C51751   1.700   6.048   3.679  0.7214 -0.4849 -0.3367
  384MOL0     O51752   1.719   5.687   3.528 -0.1136 -0.9655 -0.3176
  384MOL0     C51753   1.527   5.635   3.832  0.0614 -0.8534 -0.8036
  384MOL0     C51754   1.430   5.546   3.881 -0.1629 -1.0376  0.3237
  384MOL0     N51755   0.961   5.069   4.136 -0.1443  0.0388 -0.0897
  384MOL0     N51756   0.915   4.980   4.212  1.1040 -0.4457 -0.1100
  384MOL0     C51757   0.584   4.707   4.822  0.3588 -0.5397  1.0828
  384MOL0     C51758   0.720   4.709   4.797 -0.3520  0.2139 -0.4869
  384MOL0     C51759   1.129   4.852   4.782 -0.1235 -0.3349  0.1893
  384MOL0     C51760   1.196   4.801   4.895 -0.7964 -0.2690 -0.1647
  384MOL0     C51761   1.336   4.819   4.916  0.1738 -0.3724  1.2600
  384MOL0     C51762   1.409   4.884   4.811  1.0803 -0.7466  0.2017
  384MOL0     O51763   1.540   4.902   4.826  0.3339 -0.4634 -0.6784
  384MOL0     C51764   1.634   4.856   4.727  0.1981  1.3030 -0.0355
  384MOL0     C51765   1.776   4.869   4.788 -0.6799  0.2590  0.8535
  384MOL0     C51766   1.836   5.010   4.784 -0.0096 -0.1955  0.2606
  384MOL0     C51767   1.964   5.011   4.687  0.2418 -0.2784 -0.4287
  384MOL0     C51768   2.023   5.143   4.672  0.5178 -0.5111  0.0884
  384MOL0     C51769   2.052   5.258   4.652  0.1573 -0.6058 -0.2027
  384MOL0     C51770   1.345   4.934   4.691  0.0724  0.2437 -0.0107
  384MOL0     C51771   1.202   4.925   4.678 -0.4792  0.8828 -0.1508
  384MOL0     C51772   1.135   5.002   4.563  0.1070  0.8548  0.4084
  384MOL0     H51773   0.806   4.879   5.079  0.9733 -0.7356  0.1455
  384MOL0     H51774   0.552   4.858   5.111  2.5588  1.6561  0.4649
  384MOL0     H51775   0.232   4.861   5.029  0.6432  1.3246  0.9094
  384MOL0     H51776   0.377   4.955   5.027 -2.0910 -2.3174  4.2453
  384MOL0     H51777   0.203   5.069   4.907 -1.8087 -0.8058  0.4648
  384MOL0     H51778   0.149   4.928   4.818  0.3351  1.1116 -1.9187
  384MOL0     H51779   0.427   5.023   4.782  1.6129 -0.9563 -4.5921
  384MOL0     H51780   0.287   5.129   4.725 -1.3607  0.3637  1.1585
  384MOL0     H51781   0.330   4.844   4.621  4.0939  0.5774  1.3696
  384MOL0     H51782   0.220   4.970   4.563  1.6665  2.6613 -1.4133
  384MOL0     H51783   0.399   4.952   4.407 -3.1649 -0.5075  1.0928
  384MOL0     H51784   0.408   5.110   4.487  3.3454  0.9612  4.2684
  384MOL0     H51785   0.601   5.060   4.616  0.9257 -0.1170  0.7021
  384MOL0     H51786   0.564   4.885   4.595 -2.5444  0.2633  2.4709
  384MOL0     H51787   0.620   5.079   4.378  1.5962  0.0611  0.0126
  384MOL0     H51788   0.623   4.901   4.343 -2.2988  2.0812 -1.6318
  384MOL0     H51789   0.822   5.050   4.522 -1.4175 -4.3119  3.6482
  384MOL0     H51790   0.853   4.891   4.462 -1.1706 -0.0492 -0.0698
  384MOL0     H51791   0.800   5.258   4.347  1.8378  0.0812  0.7870
  384MOL0     H51792   0.851   5.301   4.003  1.3660 -0.3829 -0.4330
  384MOL0     H51793   0.899   5.398   4.151  0.4670 -0.6265  0.6991
  384MOL0     H51794   1.095   5.447   3.984  1.7155 -1.6408  1.3482
  384MOL0     H51795   1.141   5.323   4.086 -0.6402 -0.9183 -0.3786
  384MOL0     H51796   1.011   5.236   3.842 -1.0713 -1.2179  1.3140
  384MOL0     H51797   1.136   5.156   3.935 -0.4589 -0.8530 -0.7184
  384MOL0     H51798   1.177   5.402   3.768  0.7938  0.0932  0.6145
  384MOL0     H51799   1.249   5.248   3.725  1.1440 -1.0364 -0.3463
  384MOL0     H51800   1.477   5.299   3.661  0.0572  1.0802 -0.0727
  384MOL0     H51801   1.614   5.468   3.559  0.7154  1.3476 -0.2503
  384MOL0     H51802   1.943   5.838   3.582  0.6308  0.7951  2.0015
  384MOL0     H51803   2.016   6.052   3.464 -1.9306 -1.5470 -3.1234
  384MOL0     H51804   1.752   6.361   3.412  1.6399  0.1140 -1.2061
  384MOL0     H51805   1.788   6.440   3.564  0.5524  1.0134 -0.2398
  384MOL0     H51806   1.824   6.597   3.398 -1.4298 -1.6787 -2.6203
  384MOL0     H51807   1.994   6.549   3.427  1.1371  1.2400 -3.8000
  384MOL0     H51808   1.963   6.395   3.219  0.5237 -0.5560  0.4291
  384MOL0     H51809   1.812   6.489   3.197 -0.2323  0.5804  2.0747
  384MOL0     H51810   2.103   6.546   3.147  0.0036  1.7421 -1.2577
  384MOL0     H51811   2.021   6.683   3.236  1.6149 -0.2112  1.6471
  384MOL0     H51812   1.835   6.671   3.069 -0.3935  4.1368  0.5073
  384MOL0     H51813   1.954   6.567   2.970  0.6900  0.1275  0.8914
  384MOL0     H51814   1.971   6.845   3.088 -0.7900  0.4948 -1.5033
  384MOL0     H51815   2.108   6.777   2.984  1.1263 -1.3506  0.1823
  384MOL0     H51816   1.812   6.802   2.883 -0.2177  0.6001  3.7970
  384MOL0     H51817   1.969   6.754   2.803 -2.7968 -1.9736 -1.2906
  384MOL0     H51818   1.860   7.013   2.786  0.1921  2.2965  0.6622
  384MOL0     H51819   1.937   7.027   2.940  4.3133  1.7011 -0.3706
  384MOL0     H51820   1.695   6.265   3.653  2.1553  1.1725  2.6589
  384MOL0     H51821   1.613   6.065   3.741  0.4033  0.6167 -1.0648
  384MOL0     H51822   1.520   5.736   3.870 -0.3522 -1.7801  1.8466
  384MOL0     H51823   1.377   5.559   3.975 -0.7111 -0.7607 -0.0153
  384MOL0     H51824   0.527   4.657   4.745  0.8371  0.1785  0.2544
  384MOL0     H51825   0.762   4.666   4.706  4.5370  1.6123  0.8204
  384MOL0     H51826   1.148   4.732   4.964  2.7917 -1.6733  1.2202
  384MOL0     H51827   1.386   4.769   4.998 -1.1893  1.7641  3.5104
  384MOL0     H51828   1.635   4.906   4.629 -3.0788  0.1930 -0.7761
  384MOL0     H51829   1.624   4.748   4.712  0.7116  0.7105  3.2476
  384MOL0     H51830   1.842   4.807   4.727 -1.5047  0.9384 -0.7822
  384MOL0     H51831   1.779   4.832   4.891 -0.0335  1.1401  1.1624
  384MOL0     H51832   1.866   5.044   4.884  4.1138  1.5870 -1.3637
  384MOL0     H51833   1.762   5.082   4.748 -1.2877 -2.2915 -1.6157
  384MOL0     H51834   2.033   4.939   4.731  0.3757 -1.5107 -2.5105
  384MOL0     H51835   1.944   4.976   4.586 -0.2808 -0.5826 -0.2245
  384MOL0     H51836   2.072   5.363   4.655  4.0181 -1.2455  1.6244
  384MOL0     H51837   1.394   4.984   4.609 -1.5964 -1.4863 -2.1830
  384MOL0     H51838   1.080   4.926   4.508 -1.6497  1.8271  0.7189
  384MOL0     H51839   1.057   5.060   4.614 -3.2561 -2.5720 -0.4261
  384MOL0     H51840   1.207   5.058   4.503  1.9791 -1.0063  0.8141
  385MOL0     O51841   5.594   2.129  10.281  0.1327 -0.0186  0.2580
  385MOL0     C51842   5.623   2.219  10.194 -0.2002  0.3062 -0.1087
  385MOL0     O51843   5.544   2.261  10.085 -0.2457 -0.5463 -0.5824
  385MOL0     C51844   5.419   2.213  10.061  1.2532  0.7318  0.7688
  385MOL0     C51845   5.359   2.282   9.951 -0.3979  0.6867 -0.5815
  385MOL0     C51846   5.238   2.242   9.894  0.7405 -0.4209 -0.6591
  385MOL0     C51847   5.167   2.141   9.949  0.2060  0.5995 -0.3597
  385MOL0     O51848   5.050   2.110   9.881  0.4389 -0.5302 -0.4430
  385MOL0     C51849   4.959   2.017   9.940  0.1833  0.3611 -0.6496
  385MOL0     C51850   4.872   1.935   9.836 -0.6591  0.0247  0.6160
  385MOL0     C51851   4.751   1.868   9.880  0.1414 -0.0691  0.0355
  385MOL0     C51852   4.673   1.810   9.753 -0.4568  0.5455  0.5574
  385MOL0     C51853   4.605   1.679   9.795 -0.2738 -0.0937  0.3529
  385MOL0     C51854   4.532   1.608   9.674  0.2639 -0.4262 -0.1855
  385MOL0     C51855   4.640   1.546   9.585  0.1652  0.3227  1.1925
  385MOL0     C51856   4.580   1.439   9.481 -0.4192 -0.2859  0.2026
  385MOL0     N51857   4.566   1.308   9.549 -0.3490 -0.2100 -0.0235
  385MOL0     C51858   4.641   1.199   9.518  0.1426  0.0641  0.6751
  385MOL0     C51859   4.584   1.096   9.582 -0.3248 -0.5097 -0.2225
  385MOL0     C51860   4.620   0.946   9.595 -1.4819 -0.0637 -0.2411
  385MOL0     C51861   4.781   0.932   9.603  1.3842  0.2625  0.5969
  385MOL0     C51862   4.806   0.788   9.670 -0.7951 -0.1893  0.4043
  385MOL0     C51863   4.811   0.673   9.576  0.3737  0.3465  0.9973
  385MOL0     O51864   4.891   0.575   9.646  0.1281 -0.1985 -0.6490
  385MOL0     C51865   4.926   0.458   9.595  0.4100  0.2636 -0.6696
  385MOL0     C51866   4.915   0.417   9.464 -0.9857 -0.1219  0.3984
  385MOL0     C51867   4.942   0.289   9.419  0.7065  0.0336  0.1200
  385MOL0     C51868   4.986   0.197   9.512  0.1172 -1.3956  0.9281
  385MOL0     C51869   5.007   0.052   9.481 -1.1753 -0.6335 -0.0178
  385MOL0     O51870   4.959   0.002   9.363 -0.1129  0.2944 -0.1119
  385MOL0     C51871   4.934  -0.133   9.340  0.0638  0.1693  0.0643
  385MOL0     C51872   4.881  -0.150   9.214 -1.4476 -0.1384  0.0545
  385MOL0     C51873   4.830  -0.274   9.175  1.0327  0.1364 -0.1275
  385MOL0     C51874   4.845  -0.385   9.259 -0.1075  0.2489  1.1635
  385MOL0     O51875   4.800  -0.500   9.213  0.7519 -0.2986 -0.0156
  385MOL0     C51876   4.673  -0.543   9.264  0.2579 -0.2957  0.8471
  385MOL0     C51877   4.615  -0.669   9.193  0.6431 -0.9068 -0.4338
  385MOL0     C51878   4.699  -0.801   9.214 -1.0610 -0.2617 -0.4010
  385MOL0     C51879   4.664  -0.905   9.107  0.4714  0.5852 -0.2344
  385MOL0     C51880   4.718  -1.047   9.138 -0.8158 -0.6805 -0.6500
  385MOL0     C51881   4.635  -1.106   9.260 -0.8497 -0.0893  0.1593
  385MOL0     C51882   4.657  -1.248   9.288  0.3763 -0.5187 -0.4033
  385MOL0     C51883   4.602  -1.290   9.423 -0.1889  0.0797 -0.2804
  385MOL0    Cl51884   4.731  -1.288   9.550 -0.1812 -0.1206  0.1489
  385MOL0     C51885   4.895  -0.368   9.385  0.7179  0.7242 -0.9897
  385MOL0     C51886   4.952  -0.248   9.419  0.0524  0.0944 -0.0785
  385MOL0     O51887   5.052  -0.020   9.573  0.9896 -0.6911 -0.2586
  385MOL0     C51888   5.008   0.243   9.652  0.4125  0.8004 -0.0860
  385MOL0     C51889   4.968   0.370   9.690  0.0512 -0.4875  0.3561
  385MOL0     N51890   4.473   1.138   9.649  0.6841 -0.3476  0.2141
  385MOL0     N51891   4.463   1.272   9.627  0.1780 -0.4346 -0.9990
  385MOL0     C51892   5.222   2.079  10.066 -0.0758  0.2316  1.3645
  385MOL0     C51893   5.342   2.113  10.126  0.4462  0.5278  0.0511
  385MOL0     C51894   5.737   2.306  10.206  0.1673 -0.3098 -0.3314
  385MOL0     C51895   5.827   2.304  10.095  0.2512 -0.0573  0.8875
  385MOL0     C51896   5.944   2.387  10.104 -0.1567 -0.0638 -0.5819
  385MOL0     C51897   5.966   2.471  10.207 -1.0400 -1.0564  0.3216
  385MOL0     O51898   6.073   2.559  10.208 -0.6447 -0.2608 -0.1152
  385MOL0     C51899   6.072   2.669  10.294 -0.0177 -0.7025 -0.2605
  385MOL0     C51900   6.191   2.774  10.265  0.0857 -0.6943  1.1700
  385MOL0     C51901   6.172   2.821  10.111 -0.1475 -0.2449 -0.3188
  385MOL0     C51902   6.292   2.874  10.048 -0.3648 -0.6114  0.3023
  385MOL0     C51903   6.302   3.012  10.090  0.4726  0.9479 -0.8264
  385MOL0     C51904   6.289   3.128  10.123  0.2432  0.4726 -0.9093
  385MOL0     C51905   5.874   2.470  10.312 -0.1104  0.6805  0.5958
  385MOL0     C51906   5.762   2.382  10.318  0.3312 -0.6434  0.2616
  385MOL0     C51907   5.668   2.379  10.439  0.7388  0.0450 -0.4091
  385MOL0     H51908   5.418   2.365   9.914 -1.2346  0.1789 -3.3030
  385MOL0     H51909   5.193   2.305   9.818  0.4758 -2.1612 -2.0315
  385MOL0     H51910   4.991   1.943  10.013 -2.9846 -1.2443 -0.7131
  385MOL0     H51911   4.889   2.092   9.980 -1.3987 -0.9058 -0.9503
  385MOL0     H51912   4.937   1.860   9.789  2.0553  0.4077  3.4430
  385MOL0     H51913   4.853   2.012   9.761 -0.7031 -0.7669 -0.1976
  385MOL0     H51914   4.681   1.941   9.922  0.5250 -0.2301  0.9572
  385MOL0     H51915   4.774   1.797   9.960 -1.5374  3.3991  3.9714
  385MOL0     H51916   4.600   1.880   9.711 -1.9771 -2.2749 -1.9242
  385MOL0     H51917   4.745   1.780   9.676  0.8025 -0.6512  2.1521
  385MOL0     H51918   4.681   1.617   9.844  1.2475  1.4891  0.0628
  385MOL0     H51919   4.526   1.711   9.864 -0.8161  0.6859 -0.5999
  385MOL0     H51920   4.464   1.527   9.704 -0.7151  0.2838 -0.4474
  385MOL0     H51921   4.476   1.675   9.609  1.7842 -0.8298 -2.0095
  385MOL0     H51922   4.720   1.513   9.651  2.5584  2.4091 -0.4684
  385MOL0     H51923   4.677   1.636   9.536 -1.7528  1.6203  1.9830
  385MOL0     H51924   4.487   1.485   9.444 -1.8800 -2.1667  1.3421
  385MOL0     H51925   4.640   1.423   9.391 -2.4421  1.1815 -1.5442
  385MOL0     H51926   4.727   1.189   9.451 -0.7721  0.6282 -0.6217
  385MOL0     H51927   4.583   0.914   9.692  0.1059  0.6318  0.6369
  385MOL0     H51928   4.578   0.879   9.520  1.3854 -1.0042 -1.1555
  385MOL0     H51929   4.837   0.931   9.509  1.7121  0.9136  0.7748
  385MOL0     H51930   4.830   1.014   9.657  1.9430  1.5092 -1.6678
  385MOL0     H51931   4.738   0.778   9.755  3.7208 -0.3814  4.4256
  385MOL0     H51932   4.910   0.792   9.705  0.3933 -1.9557 -2.5222
  385MOL0     H51933   4.855   0.691   9.478  2.6547 -1.9282  1.4934
  385MOL0     H51934   4.716   0.628   9.545  1.8414 -1.3421 -1.4061
  385MOL0     H51935   4.894   0.487   9.384  0.9230 -2.4723 -2.3752
  385MOL0     H51936   4.917   0.258   9.318 -1.6911 -0.7141  0.8731
  385MOL0     H51937   4.877  -0.063   9.149  4.8235 -1.5973 -3.1209
  385MOL0     H51938   4.778  -0.284   9.080  0.6803 -0.7966  0.1570
  385MOL0     H51939   4.684  -0.571   9.369  1.0940  1.8097  1.3670
  385MOL0     H51940   4.603  -0.460   9.252  2.5476  1.6779  0.6685
  385MOL0     H51941   4.511  -0.689   9.223  0.1199 -2.9662 -3.2478
  385MOL0     H51942   4.618  -0.642   9.087  0.3796  1.9234  0.1994
  385MOL0     H51943   4.805  -0.774   9.208 -1.7359  2.2447 -2.9774
  385MOL0     H51944   4.691  -0.831   9.319 -3.4445  1.0887 -0.1457
  385MOL0     H51945   4.724  -0.867   9.024  1.2631  3.2377  1.4142
  385MOL0     H51946   4.557  -0.896   9.084  0.3725  3.5693  0.9517
  385MOL0     H51947   4.821  -1.029   9.171 -1.0995 -0.5776  0.2066
  385MOL0     H51948   4.718  -1.111   9.050  3.0248  1.7005 -2.6069
  385MOL0     H51949   4.678  -1.050   9.344  1.3887 -0.3896 -0.7187
  385MOL0     H51950   4.530  -1.087   9.239 -0.0290  3.0470 -1.7692
  385MOL0     H51951   4.764  -1.269   9.290  0.2946 -0.9011  0.6855
  385MOL0     H51952   4.615  -1.312   9.209 -2.2684  1.5309 -0.8233
  385MOL0     H51953   4.526  -1.219   9.455 -0.5217  1.0485 -2.9624
  385MOL0     H51954   4.556  -1.389   9.414  0.1483  0.1186 -3.2137
  385MOL0     H51955   4.899  -0.462   9.439 -1.6966 -0.6627 -3.0564
  385MOL0     H51956   5.002  -0.244   9.516 -2.1622 -0.2635  1.1480
  385MOL0     H51957   5.042   0.161   9.714  1.1851  0.4593 -0.9404
  385MOL0     H51958   4.993   0.409   9.788  2.3532  0.4982 -0.5366
  385MOL0     H51959   5.150   2.018  10.119 -0.1153 -1.7628 -0.7870
  385MOL0     H51960   5.380   2.061  10.213  2.5529  0.3707 -0.8931
  385MOL0     H51961   5.800   2.257  10.002  2.2211 -2.4722  1.4307
  385MOL0     H51962   6.013   2.397  10.020 -1.6261 -0.2748 -1.8707
  385MOL0     H51963   6.091   2.645  10.399 -2.1847 -0.1812  0.2975
  385MOL0     H51964   5.984   2.732  10.278  2.6508  3.6318  0.3400
  385MOL0     H51965   6.291   2.739  10.293  0.5595 -1.8595 -1.6025
  385MOL0     H51966   6.166   2.862  10.325 -3.8287 -1.7171  1.2993
  385MOL0     H51967   6.081   2.879  10.098 -0.5154 -0.0462  2.4974
  385MOL0     H51968   6.146   2.731  10.055 -0.8987 -0.8182  0.9120
  385MOL0     H51969   6.383   2.826  10.085  0.5728  2.5410  2.4481
  385MOL0     H51970   6.300   2.866   9.939 -1.4676 -2.4180  0.3075
  385MOL0     H51971   6.257   3.225  10.155 -0.8909 -0.9025  2.6030
  385MOL0     H51972   5.883   2.542  10.393  2.7708  2.4428 -1.1334
  385MOL0     H51973   5.626   2.281  10.465  0.8601  0.9317  3.7503
  385MOL0     H51974   5.722   2.422  10.524  0.3897 -0.5225  0.1003
  385MOL0     H51975   5.589   2.451  10.417  0.6417 -0.9053 -3.7970
  386MOL0     O51976   3.500  10.637   4.471 -0.0485  0.2128 -0.1232
  386MOL0     C51977   3.455  10.720   4.548  0.3673 -0.3955 -0.2250
  386MOL0     O51978   3.515  10.746   4.670 -0.4684 -1.1402  0.3551
  386MOL0     C51979   3.640  10.705   4.690 -0.4343  0.0080  0.0519
  386MOL0     C51980   3.672  10.613   4.798  0.7613 -0.0665  1.1281
  386MOL0     C51981   3.796  10.568   4.814 -0.6308 -0.4149  0.3909
  386MOL0     C51982   3.903  10.627   4.739  0.0350  0.3611 -0.5305
  386MOL0     O51983   4.036  10.597   4.756 -0.2925 -0.5239 -0.0130
  386MOL0     C51984   4.084  10.543   4.881 -0.0510 -0.6596  0.9950
  386MOL0     C51985   4.138  10.653   4.967  0.1097 -0.2389 -0.8497
  386MOL0     C51986   4.264  10.702   4.918 -0.5629 -0.5399  0.5668
  386MOL0     C51987   4.392  10.620   4.945 -0.9591  0.1583 -0.2011
  386MOL0     C51988   4.521  10.679   4.890  0.3299 -1.1176  0.2707
  386MOL0     C51989   4.641  10.613   4.952  0.4977 -0.1007 -0.3352
  386MOL0     C51990   4.778  10.649   4.890  0.0012 -0.0687 -1.1364
  386MOL0     C51991   4.885  10.546   4.924 -1.0734 -0.1079 -0.1317
  386MOL0     N51992   5.008  10.581   4.866  0.3631  0.0964 -0.0855
  386MOL0     C51993   5.057  10.567   4.733 -0.0931  0.1736  1.2214
  386MOL0     C51994   5.183  10.611   4.731  0.2231 -0.6940  0.9148
  386MOL0     C51995   5.251  10.612   4.601 -0.2356 -0.1663  0.4272
  386MOL0     C51996   5.398  10.650   4.620 -0.4584 -0.7559 -0.3697
  386MOL0     C51997   5.425  10.801   4.606  0.1849  0.0474  1.0595
  386MOL0     C51998   5.370  10.880   4.719 -0.3847 -0.7665 -1.1053
  386MOL0     O51999   5.435  11.007   4.710 -0.0011 -0.0410  0.3986
  386MOL0     C52000   5.396  11.094   4.810 -1.5320  0.3684  0.5659
  386MOL0     C52001   5.297  11.077   4.900  0.7079 -0.4431  0.5049
  386MOL0     C52002   5.283  11.183   4.996 -0.1916  0.8298 -0.1269
  386MOL0     C52003   5.368  11.299   4.995 -1.0691  0.1021  0.3404
  386MOL0     C52004   5.357  11.407   5.093 -0.0166 -1.1223  0.4701
  386MOL0     O52005   5.271  11.389   5.198 -0.3347  0.2978 -0.3266
  386MOL0     C52006   5.255  11.488   5.284 -0.8979  0.1477 -0.6236
  386MOL0     C52007   5.355  11.522   5.379 -0.9330 -0.4084 -0.4463
  386MOL0     C52008   5.325  11.634   5.463 -0.1247  0.7206  0.3598
  386MOL0     C52009   5.209  11.707   5.453 -0.1868 -1.3952  0.9836
  386MOL0     O52010   5.200  11.827   5.522 -0.3314  0.2897  0.5800
  386MOL0     C52011   5.066  11.887   5.539 -0.9861  0.6635 -0.7130
  386MOL0     C52012   5.081  11.942   5.674 -0.2072 -0.1402  0.2553
  386MOL0     C52013   4.965  12.046   5.713  0.4644  0.3950  0.8355
  386MOL0     C52014   4.946  12.057   5.869  0.0154 -0.0169 -0.4140
  386MOL0     C52015   4.822  12.126   5.906 -0.2290 -0.2603 -0.1870
  386MOL0     C52016   4.815  12.113   6.059 -0.4209  0.5083 -0.2328
  386MOL0     C52017   4.710  12.216   6.105 -0.0509  0.4759  0.0798
  386MOL0     C52018   4.716  12.228   6.261  0.0228  0.1795  0.8254
  386MOL0    Cl52019   4.628  12.104   6.339  0.1524  0.4460 -0.5268
  386MOL0     C52020   5.119  11.678   5.355  0.4816 -0.5471 -1.0408
  386MOL0     C52021   5.138  11.573   5.265 -0.1987  0.0231 -0.2609
  386MOL0     O52022   5.433  11.508   5.083 -0.8079 -0.1179 -0.2672
  386MOL0     C52023   5.453  11.320   4.882  0.7464  0.4178  0.0809
  386MOL0     C52024   5.455  11.217   4.786 -0.7434 -0.7695 -0.3459
  386MOL0     N52025   5.207  10.679   4.849  0.9620  0.9672 -0.0938
  386MOL0     N52026   5.113  10.656   4.933  1.9450  0.4376 -0.4550
  386MOL0     C52027   3.887  10.713   4.630  1.1023  0.9516 -0.1622
  386MOL0     C52028   3.752  10.753   4.609  0.3921  0.0868  0.1454
  386MOL0     C52029   3.310  10.753   4.536 -0.2165  0.4422 -0.2809
  386MOL0     C52030   3.236  10.768   4.655  0.7959  0.4920  0.1041
  386MOL0     C52031   3.099  10.796   4.651 -1.0461  0.2171  0.0316
  386MOL0     C52032   3.033  10.804   4.529  0.1427  0.4014  0.4869
  386MOL0     O52033   2.901  10.818   4.536  0.7917 -0.3645 -1.1501
  386MOL0     C52034   2.822  10.830   4.418  1.0746  0.1763  0.0122
  386MOL0     C52035   2.679  10.869   4.455  0.0852 -0.3961 -0.0426
  386MOL0     C52036   2.649  10.979   4.548 -0.6857 -0.3716 -0.3651
  386MOL0     C52037   2.671  10.978   4.697 -0.1962 -0.1933 -0.3520
  386MOL0     C52038   2.559  10.911   4.763 -1.1651  0.1712  0.2364
  386MOL0     C52039   2.480  10.846   4.827 -0.1440  0.1877 -0.0123
  386MOL0     C52040   3.102  10.784   4.414  0.4036 -1.0228 -0.5202
  386MOL0     C52041   3.240  10.755   4.415 -0.4654 -0.9565 -0.0650
  386MOL0     C52042   3.309  10.725   4.277 -0.3202  0.8153 -0.2332
  386MOL0     H52043   3.584  10.565   4.839 -2.8790  0.3434 -4.9029
  386MOL0     H52044   3.821  10.493   4.888  1.2244 -0.6378 -0.3939
  386MOL0     H52045   4.013  10.490   4.944 -0.0735 -0.5424  1.0675
  386MOL0     H52046   4.162  10.473   4.848 -0.1611  0.7665 -2.8286
  386MOL0     H52047   4.151  10.619   5.070 -2.6383 -0.1862 -0.4113
  386MOL0     H52048   4.071  10.739   4.957  0.5222  0.2432  0.2956
  386MOL0     H52049   4.281  10.804   4.954  1.0998 -0.2160 -1.0492
  386MOL0     H52050   4.257  10.733   4.814 -1.2506 -4.0406 -0.5723
  386MOL0     H52051   4.409  10.626   5.053  2.4873  4.3999 -0.6828
  386MOL0     H52052   4.384  10.516   4.914 -1.2405 -0.3697  1.5415
  386MOL0     H52053   4.533  10.656   4.783  2.4655 -2.1916  0.6780
  386MOL0     H52054   4.520  10.787   4.905 -0.9266 -0.7582 -1.9790
  386MOL0     H52055   4.651  10.626   5.060  5.5961  0.0702 -0.5755
  386MOL0     H52056   4.616  10.509   4.927 -1.8053  0.4670 -0.5973
  386MOL0     H52057   4.808  10.746   4.931 -0.7273 -0.0028 -0.7424
  386MOL0     H52058   4.775  10.668   4.782  1.8634 -1.1088 -1.4178
  386MOL0     H52059   4.897  10.539   5.033 -1.2402 -2.7145 -0.2275
  386MOL0     H52060   4.854  10.447   4.891 -2.8945 -0.0114  1.1227
  386MOL0     H52061   5.009  10.517   4.650  0.5589  1.2461  0.1762
  386MOL0     H52062   5.235  10.516   4.550 -1.5313  0.3043 -0.1060
  386MOL0     H52063   5.198  10.683   4.536 -1.6771 -0.8759  0.7892
  386MOL0     H52064   5.427  10.616   4.720 -2.0165  1.9620  1.1180
  386MOL0     H52065   5.457  10.600   4.543 -0.9506 -3.7449  1.0389
  386MOL0     H52066   5.395  10.832   4.506 -0.2136 -0.9243  0.8597
  386MOL0     H52067   5.532  10.822   4.611 -0.5691  4.6787  2.3708
  386MOL0     H52068   5.406  10.833   4.811  1.9102 -0.7003 -1.8932
  386MOL0     H52069   5.262  10.889   4.707 -0.3696 -0.3976 -0.9969
  386MOL0     H52070   5.225  10.997   4.886  1.1826 -0.9361  0.8122
  386MOL0     H52071   5.214  11.189   5.079  0.7627 -0.3803  0.7878
  386MOL0     H52072   5.449  11.471   5.399  0.0485  1.5181  0.0291
  386MOL0     H52073   5.402  11.672   5.529  1.1845 -2.5625  0.9083
  386MOL0     H52074   5.050  11.976   5.478 -0.4656  1.8892  0.8699
  386MOL0     H52075   4.983  11.815   5.534 -1.0432  0.8404 -2.9043
  386MOL0     H52076   5.069  11.855   5.739  0.0697  1.4010  2.4372
  386MOL0     H52077   5.176  11.990   5.698  0.6589 -2.5854  2.0696
  386MOL0     H52078   4.977  12.145   5.671  0.8393 -0.8205 -2.1460
  386MOL0     H52079   4.871  11.998   5.682 -0.3090  2.3740  0.0101
  386MOL0     H52080   5.024  12.117   5.916  0.5739 -0.9530 -0.1222
  386MOL0     H52081   4.955  11.954   5.906  2.1383  0.1550 -0.3852
  386MOL0     H52082   4.734  12.085   5.855 -0.0266  0.8125 -1.4486
  386MOL0     H52083   4.831  12.231   5.880  1.1420 -0.8288 -2.2400
  386MOL0     H52084   4.779  12.012   6.079  0.2537  0.3729  0.2962
  386MOL0     H52085   4.912  12.135   6.105 -0.6030  2.4342 -0.6566
  386MOL0     H52086   4.611  12.193   6.064  0.1449 -1.5745  0.6236
  386MOL0     H52087   4.740  12.311   6.062  0.8412  0.4598  0.6435
  386MOL0     H52088   4.817  12.217   6.300 -0.7685 -0.3511  2.8915
  386MOL0     H52089   4.678  12.328   6.283  1.4221  0.5277  1.7930
  386MOL0     H52090   5.031  11.733   5.326 -0.1045 -1.2959 -0.7282
  386MOL0     H52091   5.061  11.550   5.193  0.1234 -2.2437  0.0294
  386MOL0     H52092   5.509  11.414   4.876 -1.2328  2.0258  3.6372
  386MOL0     H52093   5.519  11.239   4.702 -3.2244 -0.2129 -2.2277
  386MOL0     H52094   3.978  10.732   4.575  1.5399  1.5141  0.7408
  386MOL0     H52095   3.726  10.827   4.533 -0.8911  0.7305  1.1595
  386MOL0     H52096   3.282  10.760   4.753 -0.2606 -1.7945  0.4759
  386MOL0     H52097   3.038  10.809   4.740 -0.7827  0.7419  0.1414
  386MOL0     H52098   2.823  10.730   4.372  0.4133 -0.1940  0.7685
  386MOL0     H52099   2.865  10.901   4.347 -1.4073 -0.4986 -2.3564
  386MOL0     H52100   2.625  10.779   4.485 -1.0060 -0.6772 -2.6162
  386MOL0     H52101   2.633  10.908   4.364  1.4388  0.7466 -0.2733
  386MOL0     H52102   2.545  11.010   4.536  0.1820  2.0280 -2.9914
  386MOL0     H52103   2.697  11.067   4.503  0.4288 -0.7248  0.0880
  386MOL0     H52104   2.766  10.936   4.730 -0.9034 -0.5648  1.3019
  386MOL0     H52105   2.655  11.082   4.727  1.2507 -0.0675  0.0325
  386MOL0     H52106   2.431  10.769   4.883  0.3900 -1.2624 -1.4662
  386MOL0     H52107   3.049  10.795   4.320 -0.5001  1.3207  0.1958
  386MOL0     H52108   3.346  10.622   4.278 -1.2448  0.4633 -0.9402
  386MOL0     H52109   3.241  10.731   4.192 -1.3626  2.6374  0.6716
  386MOL0     H52110   3.383  10.806   4.273  2.1543 -1.0192  2.8752
  387MOL0     O52111  10.049   1.371   3.190 -0.5199 -0.0908 -0.2714
  387MOL0     C52112   9.985   1.417   3.096  0.2499  0.3638 -0.5721
  387MOL0     O52113   9.968   1.550   3.074 -0.2226  0.6863  0.9582
  387MOL0     C52114  10.033   1.635   3.156  0.7730 -0.2124  0.0798
  387MOL0     C52115   9.966   1.705   3.252  1.0878 -0.1838  0.2727
  387MOL0     C52116  10.038   1.780   3.344  0.7520  0.0350  0.5981
  387MOL0     C52117  10.180   1.793   3.345  0.2566  0.2120 -0.0861
  387MOL0     O52118  10.239   1.888   3.437 -0.3984 -0.3447  0.6988
  387MOL0     C52119  10.382   1.893   3.454 -0.3024 -0.5842  0.1853
  387MOL0     C52120  10.428   2.032   3.514 -1.0331  0.6750  0.2987
  387MOL0     C52121  10.378   2.152   3.438 -0.7581  0.6466 -0.6154
  387MOL0     C52122  10.470   2.190   3.321  0.0749 -0.3238  1.1716
  387MOL0     C52123  10.420   2.315   3.266  0.6480 -0.5491  0.4900
  387MOL0     C52124  10.303   2.318   3.168 -0.0110  0.5508  1.0604
  387MOL0     C52125  10.330   2.234   3.039 -1.2816  0.3079  0.0781
  387MOL0     C52126  10.290   2.085   3.050  0.0043  0.0225  0.1533
  387MOL0     N52127  10.364   1.986   2.966  0.1690  0.0885 -0.4065
  387MOL0     C52128  10.312   1.885   2.884 -1.0615 -0.7580  0.1567
  387MOL0     C52129  10.427   1.832   2.841 -0.1538  0.3106  0.5383
  387MOL0     C52130  10.432   1.721   2.739  0.1697 -0.1167  0.0642
  387MOL0     C52131  10.416   1.781   2.603 -1.0723  0.5188 -0.2204
  387MOL0     C52132  10.415   1.669   2.499  0.6082 -0.5128  0.0867
  387MOL0     C52133  10.346   1.715   2.370 -0.7705 -0.6322 -0.4603
  387MOL0     O52134  10.205   1.714   2.393  1.0834  0.0638  0.1984
  387MOL0     C52135  10.131   1.599   2.364 -0.0139 -0.2303  0.7464
  387MOL0     C52136  10.112   1.505   2.467  0.8174  0.6482  0.5600
  387MOL0     C52137  10.034   1.392   2.451  0.2278  0.3957 -0.0081
  387MOL0     C52138   9.973   1.370   2.321 -0.3372 -0.2109 -0.4840
  387MOL0     C52139   9.884   1.247   2.314 -0.1732 -0.3631  0.2090
  387MOL0     O52140   9.798   1.252   2.214  0.0690 -0.4986 -0.2135
  387MOL0     C52141   9.709   1.146   2.215 -0.0843 -0.0209  0.4135
  387MOL0     C52142   9.577   1.169   2.249  0.1744  0.2256  0.3814
  387MOL0     C52143   9.485   1.062   2.250  0.2960  0.8139  0.5864
  387MOL0     C52144   9.521   0.932   2.193  0.4807 -0.7034  0.5027
  387MOL0     O52145   9.424   0.830   2.190  0.5538 -1.0233 -0.5657
  387MOL0     C52146   9.470   0.700   2.228 -0.6290 -0.5336  0.5858
  387MOL0     C52147   9.361   0.595   2.259 -0.0052 -1.0500 -0.9098
  387MOL0     C52148   9.374   0.538   2.402 -1.5005 -0.5760  0.1914
  387MOL0     C52149   9.259   0.432   2.426 -0.3344 -0.2986  0.8848
  387MOL0     C52150   9.271   0.357   2.556 -0.0702 -0.2567 -0.3364
  387MOL0     C52151   9.137   0.316   2.609  0.6733  0.4348  0.5981
  387MOL0     C52152   9.166   0.231   2.733 -0.6412  0.2375  0.2098
  387MOL0     C52153   9.044   0.212   2.806 -1.2255  0.3526 -0.7638
  387MOL0    Cl52154   8.914   0.139   2.703 -0.8474 -0.1751  0.3684
  387MOL0     C52155   9.649   0.923   2.141 -0.1120  0.0750 -0.1383
  387MOL0     C52156   9.748   1.022   2.157 -0.3328  0.1455  0.0806
  387MOL0     O52157   9.889   1.160   2.398  1.1772 -0.2377  0.3292
  387MOL0     C52158   9.998   1.467   2.221  0.3375  0.4522  0.0479
  387MOL0     C52159  10.069   1.584   2.241 -0.9660  1.4221  0.0834
  387MOL0     N52160  10.533   1.888   2.900 -0.2684  0.0662 -0.2402
  387MOL0     N52161  10.503   1.992   2.971  0.1477  0.0106  0.2791
  387MOL0     C52162  10.244   1.718   3.246 -0.3717 -0.2809  0.7899
  387MOL0     C52163  10.174   1.650   3.140 -0.3410 -0.2187 -0.8652
  387MOL0     C52164   9.912   1.316   3.010 -0.1602 -0.7313 -0.1050
  387MOL0     C52165   9.943   1.178   3.039  0.4352  0.2450 -0.7712
  387MOL0     C52166   9.879   1.070   2.980  0.5349 -0.0470  0.8879
  387MOL0     C52167   9.777   1.105   2.884  0.3110 -0.5379  0.7013
  387MOL0     O52168   9.716   0.998   2.818  0.0979  0.1299 -0.3249
  387MOL0     C52169   9.744   0.986   2.676  0.2071 -1.1634 -0.2157
  387MOL0     C52170   9.653   0.883   2.601  0.2607 -0.0198 -0.2825
  387MOL0     C52171   9.505   0.884   2.617  0.7622 -0.5294 -0.1397
  387MOL0     C52172   9.450   0.834   2.750  0.6583  0.1796 -0.2507
  387MOL0     C52173   9.464   0.692   2.753 -0.1750 -1.0404 -0.3129
  387MOL0     C52174   9.484   0.573   2.772 -0.4761 -0.2868  0.3217
  387MOL0     C52175   9.738   1.234   2.847 -0.9168 -0.7682 -0.3095
  387MOL0     C52176   9.805   1.338   2.913  0.4399  1.1609 -0.4254
  387MOL0     C52177   9.764   1.476   2.883  0.5211  0.3029 -0.2158
  387MOL0     H52178   9.858   1.694   3.256  0.8540  1.9123  2.2342
  387MOL0     H52179   9.975   1.841   3.408 -1.9024 -0.6974 -1.1485
  387MOL0     H52180  10.411   1.809   3.518  1.0911  0.4255  0.9289
  387MOL0     H52181  10.425   1.889   3.354  0.3191  1.7457  0.2933
  387MOL0     H52182  10.537   2.024   3.526 -1.3661 -2.9758  2.0904
  387MOL0     H52183  10.391   2.036   3.616 -1.6687  0.8816  0.0638
  387MOL0     H52184  10.380   2.236   3.509  0.4991 -0.3326  0.5440
  387MOL0     H52185  10.281   2.132   3.391 -0.2442 -1.8916 -0.7189
  387MOL0     H52186  10.574   2.203   3.353  0.7692  3.0828 -1.8355
  387MOL0     H52187  10.477   2.111   3.246  2.0851 -0.5960  1.5864
  387MOL0     H52188  10.382   2.382   3.344  2.4346  0.9592  0.1295
  387MOL0     H52189  10.506   2.370   3.228  0.9813  1.9984  4.4167
  387MOL0     H52190  10.210   2.279   3.210 -0.5059 -0.9068 -1.1958
  387MOL0     H52191  10.295   2.423   3.139 -4.5319  0.4097  1.0870
  387MOL0     H52192  10.438   2.236   3.022 -1.1863  0.7632  0.7416
  387MOL0     H52193  10.280   2.268   2.948  0.2151 -1.3593 -1.4574
  387MOL0     H52194  10.296   2.045   3.152 -1.1961 -2.3430 -0.6230
  387MOL0     H52195  10.183   2.078   3.028 -0.5930  0.2302  2.6691
  387MOL0     H52196  10.218   1.845   2.849  0.0478 -1.2286 -2.4928
  387MOL0     H52197  10.527   1.668   2.747 -0.5328 -1.1546  3.3930
  387MOL0     H52198  10.344   1.658   2.757 -0.0068 -0.5704 -2.1829
  387MOL0     H52199  10.320   1.831   2.593 -2.0730 -0.9618  1.3189
  387MOL0     H52200  10.504   1.840   2.578  0.2369 -2.2841 -2.8902
  387MOL0     H52201  10.367   1.576   2.532  0.5130 -1.1439 -1.7025
  387MOL0     H52202  10.519   1.640   2.483  0.3565 -1.1093 -0.5305
  387MOL0     H52203  10.373   1.656   2.282 -0.5838 -0.4526 -0.5242
  387MOL0     H52204  10.373   1.818   2.346 -1.4817 -0.8233 -2.1528
  387MOL0     H52205  10.142   1.526   2.569  1.6231 -1.9334  0.9317
  387MOL0     H52206  10.013   1.329   2.537  2.8466  0.4119  0.7138
  387MOL0     H52207   9.554   1.268   2.287  0.7799  0.9150 -0.9936
  387MOL0     H52208   9.395   1.067   2.311 -2.8753  0.0740 -3.5401
  387MOL0     H52209   9.543   0.664   2.155 -0.5597 -1.8283  1.2656
  387MOL0     H52210   9.527   0.722   2.319  0.2654 -4.1133  1.0485
  387MOL0     H52211   9.264   0.645   2.260  2.1407  3.7055 -0.5032
  387MOL0     H52212   9.370   0.514   2.186  2.4672  0.1799 -2.1188
  387MOL0     H52213   9.469   0.490   2.430 -2.2405 -0.2902  3.6103
  387MOL0     H52214   9.350   0.622   2.468 -0.3874  1.8572 -2.3071
  387MOL0     H52215   9.273   0.363   2.342 -0.0137  1.7750 -0.8478
  387MOL0     H52216   9.164   0.486   2.426 -1.3811 -1.9496 -1.8803
  387MOL0     H52217   9.318   0.427   2.626  0.9024 -2.2287  1.0678
  387MOL0     H52218   9.325   0.265   2.533 -1.8204 -1.3981 -0.1261
  387MOL0     H52219   9.071   0.397   2.640  0.3793 -0.5508  2.7150
  387MOL0     H52220   9.079   0.261   2.534 -0.7041  1.9956  0.4844
  387MOL0     H52221   9.241   0.278   2.798 -0.0927 -0.7677  0.3284
  387MOL0     H52222   9.215   0.135   2.715 -1.0379 -0.6306  3.2734
  387MOL0     H52223   9.059   0.137   2.884 -2.0790  0.4584 -0.4902
  387MOL0     H52224   9.012   0.304   2.855  1.3796 -0.6608  3.2700
  387MOL0     H52225   9.686   0.833   2.093  0.4759  1.0498 -1.5834
  387MOL0     H52226   9.853   1.010   2.134  0.0683 -1.4642  2.4330
  387MOL0     H52227   9.961   1.440   2.122  1.5768  2.8855 -1.1744
  387MOL0     H52228  10.097   1.657   2.166 -0.9441  0.0034 -1.3463
  387MOL0     H52229  10.352   1.726   3.248 -0.4799  1.7214  1.2512
  387MOL0     H52230  10.231   1.585   3.074 -0.1395 -2.7829  1.6659
  387MOL0     H52231  10.019   1.168   3.115 -0.3158 -0.2647 -0.0803
  387MOL0     H52232   9.915   0.969   2.993  0.2551 -0.1245  1.0681
  387MOL0     H52233   9.849   0.958   2.667  0.9309 -2.7853  6.9564
  387MOL0     H52234   9.733   1.085   2.631 -1.7865 -1.3885 -0.3100
  387MOL0     H52235   9.681   0.779   2.618 -1.1771 -0.4306 -0.3184
  387MOL0     H52236   9.665   0.915   2.497  2.7255  1.2111  0.3014
  387MOL0     H52237   9.465   0.828   2.532 -3.6973  1.0464  0.6633
  387MOL0     H52238   9.466   0.985   2.599  4.2505  0.9178 -0.5024
  387MOL0     H52239   9.484   0.871   2.847  1.1902 -1.4461  0.2152
  387MOL0     H52240   9.345   0.864   2.744 -0.2221 -2.8321 -4.1467
  387MOL0     H52241   9.505   0.470   2.792  3.5848  0.1153 -0.9159
  387MOL0     H52242   9.668   1.247   2.765  1.5149  0.9897 -2.2561
  387MOL0     H52243   9.710   1.517   2.968  1.8683  4.6502 -1.1996
  387MOL0     H52244   9.851   1.538   2.858  0.4135  0.3853 -0.3855
  387MOL0     H52245   9.698   1.476   2.796 -2.0649 -1.2393  1.6049
  388MOL0     O52246   4.044   3.798   9.416  0.3861 -0.0424  0.4217
  388MOL0     C52247   3.920   3.802   9.424 -0.2432 -0.4637  0.7215
  388MOL0     O52248   3.840   3.689   9.448  0.7256 -0.4038  0.3748
  388MOL0     C52249   3.904   3.571   9.467  0.8172 -0.8291  0.4886
  388MOL0     C52250   3.876   3.502   9.583  0.7500 -0.0618 -0.7217
  388MOL0     C52251   3.943   3.383   9.615  0.4334 -0.4905  0.3009
  388MOL0     C52252   4.034   3.314   9.522 -0.0407  0.0290  0.2118
  388MOL0     O52253   4.087   3.183   9.551  0.3463  0.1876 -0.3778
  388MOL0     C52254   4.227   3.161   9.544  0.0296  0.2615 -0.2811
  388MOL0     C52255   4.290   3.199   9.678 -0.4510 -0.2074  0.8555
  388MOL0     C52256   4.446   3.185   9.697 -0.2861 -0.2654  0.4320
  388MOL0     C52257   4.536   3.148   9.584  0.3480 -0.2728 -0.1352
  388MOL0     C52258   4.682   3.130   9.615  0.0035 -0.2255  0.5905
  388MOL0     C52259   4.715   3.001   9.695  0.3379  0.5349  0.3711
  388MOL0     C52260   4.862   2.976   9.725 -0.2935 -1.1916 -0.3435
  388MOL0     C52261   4.951   2.973   9.600 -0.1025  0.6036  0.9607
  388MOL0     N52262   4.943   2.837   9.524  0.1299 -0.3303 -0.0227
  388MOL0     C52263   4.898   2.721   9.583  1.1188 -0.6550 -0.6501
  388MOL0     C52264   4.893   2.634   9.482 -0.1953  0.1965 -0.1676
  388MOL0     C52265   4.831   2.497   9.491  0.8310  0.3571  0.0967
  388MOL0     C52266   4.938   2.406   9.555 -0.6233  0.3028  0.0897
  388MOL0     C52267   4.915   2.249   9.568 -1.2465  0.4264 -0.8560
  388MOL0     C52268   4.891   2.183   9.430  0.3879 -0.1758 -0.1910
  388MOL0     O52269   4.905   2.046   9.479  0.4507 -0.7932 -0.1059
  388MOL0     C52270   4.875   1.937   9.397 -0.0992 -0.5173  0.0163
  388MOL0     C52271   4.932   1.820   9.439 -0.3534  0.2740 -1.0318
  388MOL0     C52272   4.905   1.700   9.371 -0.0647 -1.2120  0.7354
  388MOL0     C52273   4.831   1.701   9.245 -0.7065  0.0688  0.0501
  388MOL0     C52274   4.810   1.571   9.169 -0.3276 -0.4579  0.2151
  388MOL0     O52275   4.877   1.461   9.226  0.7924  0.5905  0.5458
  388MOL0     C52276   4.856   1.334   9.194  0.9709 -0.0295  0.6299
  388MOL0     C52277   4.938   1.235   9.240 -0.8151  0.1339 -0.0575
  388MOL0     C52278   4.910   1.099   9.232  0.5351 -0.2903  0.2971
  388MOL0     C52279   4.797   1.059   9.159 -1.5074  0.1651  0.0058
  388MOL0     O52280   4.774   0.922   9.159 -0.2708 -0.6611  1.8406
  388MOL0     C52281   4.653   0.873   9.110  0.0283 -0.6442 -0.9361
  388MOL0     C52282   4.618   0.747   9.180 -0.1788  0.2437  0.2487
  388MOL0     C52283   4.718   0.637   9.135  0.3877  0.4107 -1.2390
  388MOL0     C52284   4.665   0.494   9.169  0.6962  0.1865  0.0560
  388MOL0     C52285   4.737   0.391   9.081  0.4857  1.2822  0.1111
  388MOL0     C52286   4.664   0.256   9.114 -0.5132 -0.1825  0.2525
  388MOL0     C52287   4.720   0.154   9.007 -0.6716 -0.0484  0.0547
  388MOL0     C52288   4.641   0.022   9.007 -1.0913 -0.2196  0.1092
  388MOL0    Cl52289   4.467   0.076   8.984 -0.1187 -0.0114  0.3653
  388MOL0     C52290   4.715   1.153   9.102 -0.5130  0.3956 -0.7026
  388MOL0     C52291   4.746   1.282   9.127  0.2698  0.0332  0.0877
  388MOL0     O52292   4.729   1.573   9.078  0.1748 -0.1908  0.2357
  388MOL0     C52293   4.810   1.827   9.183  0.4278  0.5140 -0.0991
  388MOL0     C52294   4.816   1.943   9.270  0.0340  0.1654  0.1628
  388MOL0     N52295   4.942   2.698   9.365 -0.1436  0.1506 -0.6250
  388MOL0     N52296   4.968   2.818   9.390 -0.0142  0.2051  1.5194
  388MOL0     C52297   4.059   3.387   9.410 -0.7157  0.5479  0.3778
  388MOL0     C52298   3.991   3.508   9.377 -0.0949  0.2668  0.0881
  388MOL0     C52299   3.843   3.926   9.435 -0.3161 -0.2537 -0.0178
  388MOL0     C52300   3.887   4.039   9.509  0.4133  0.4821 -1.0412
  388MOL0     C52301   3.822   4.167   9.505 -0.1061  0.5958  0.3196
  388MOL0     C52302   3.692   4.171   9.441  0.2267 -0.5705  0.6495
  388MOL0     O52303   3.607   4.279   9.447 -0.5207  1.0024 -0.3803
  388MOL0     C52304   3.658   4.395   9.510  0.0703 -0.0129 -0.1025
  388MOL0     C52305   3.540   4.484   9.551  0.8393 -0.3129 -1.1070
  388MOL0     C52306   3.506   4.582   9.444  1.2118 -0.1737  1.1864
  388MOL0     C52307   3.622   4.694   9.439  0.3184  1.3425  0.7373
  388MOL0     C52308   3.619   4.785   9.556  0.9585 -0.5669  0.4734
  388MOL0     C52309   3.597   4.853   9.654  0.8360  0.3153 -0.5701
  388MOL0     C52310   3.649   4.060   9.372  0.3432  0.0674  0.8671
  388MOL0     C52311   3.726   3.945   9.356  0.1830 -0.1537 -0.4811
  388MOL0     C52312   3.671   3.845   9.253  0.8311  0.0234  0.7570
  388MOL0     H52313   3.813   3.541   9.663 -1.4714 -4.0048 -0.2376
  388MOL0     H52314   3.918   3.334   9.709 -1.9618  0.1261  0.0433
  388MOL0     H52315   4.235   3.056   9.513 -1.9157  0.4780 -1.7406
  388MOL0     H52316   4.276   3.215   9.462  0.6286 -3.2181 -2.4409
  388MOL0     H52317   4.238   3.142   9.756 -0.9320  0.0200  0.7072
  388MOL0     H52318   4.278   3.306   9.698 -0.6967  0.6315 -3.0257
  388MOL0     H52319   4.456   3.104   9.771  1.7762  1.2633  1.9384
  388MOL0     H52320   4.479   3.271   9.755 -0.4267  0.1712 -0.1271
  388MOL0     H52321   4.501   3.052   9.545 -0.1157 -1.0893  2.0831
  388MOL0     H52322   4.516   3.220   9.505 -2.6654 -1.5254 -0.6447
  388MOL0     H52323   4.738   3.114   9.522  0.3654 -3.5687  1.2370
  388MOL0     H52324   4.715   3.223   9.662 -0.5803 -0.2801  1.1274
  388MOL0     H52325   4.664   3.004   9.792 -0.5434  1.9602 -0.1074
  388MOL0     H52326   4.677   2.908   9.651 -0.8060  0.8585  0.6318
  388MOL0     H52327   4.884   2.894   9.794  4.0175  0.3605  0.4472
  388MOL0     H52328   4.892   3.062   9.786 -2.7278  0.5422 -1.4439
  388MOL0     H52329   4.947   3.059   9.532 -1.4754 -0.0758  0.1275
  388MOL0     H52330   5.053   2.981   9.639  1.4816 -0.9558 -2.4622
  388MOL0     H52331   4.863   2.709   9.685  0.2088  3.5434 -0.3204
  388MOL0     H52332   4.738   2.490   9.548  1.2200  1.8954  0.9567
  388MOL0     H52333   4.803   2.451   9.396 -0.7873  1.4449  0.0095
  388MOL0     H52334   5.027   2.430   9.496  0.1581 -0.6743  0.8462
  388MOL0     H52335   4.949   2.445   9.657  1.3848  0.2518 -0.0824
  388MOL0     H52336   4.831   2.216   9.630 -0.9897 -4.2808 -2.5756
  388MOL0     H52337   4.998   2.207   9.624 -1.4807  2.8903  1.5234
  388MOL0     H52338   4.957   2.207   9.345  0.8910  2.4641  0.8281
  388MOL0     H52339   4.786   2.191   9.402 -0.7775 -1.6097  3.2696
  388MOL0     H52340   4.996   1.817   9.527 -0.0198 -0.9081 -1.2987
  388MOL0     H52341   4.946   1.606   9.406 -0.3051 -1.7368 -0.3432
  388MOL0     H52342   5.038   1.255   9.276 -1.3409  0.2654  1.3625
  388MOL0     H52343   4.979   1.031   9.281 -0.5450 -1.3757  0.3562
  388MOL0     H52344   4.575   0.946   9.133  0.9018 -0.2849  1.1282
  388MOL0     H52345   4.667   0.856   9.003  3.9387 -0.6915 -0.5389
  388MOL0     H52346   4.625   0.766   9.288  0.2418 -0.4144  0.3419
  388MOL0     H52347   4.512   0.729   9.158 -0.7219  1.8482  1.3237
  388MOL0     H52348   4.723   0.640   9.026 -0.4433  5.2243 -1.3497
  388MOL0     H52349   4.819   0.638   9.176  0.5086 -1.7980 -1.3348
  388MOL0     H52350   4.558   0.505   9.149  0.5754 -1.4355 -0.2890
  388MOL0     H52351   4.690   0.487   9.275  0.2244 -0.0977  0.1506
  388MOL0     H52352   4.841   0.380   9.113  0.6245 -0.0382 -0.7108
  388MOL0     H52353   4.720   0.423   8.978  0.5916 -1.9603 -1.0056
  388MOL0     H52354   4.691   0.222   9.214 -1.2749 -0.1560  0.4733
  388MOL0     H52355   4.555   0.265   9.104 -0.1890  3.7432 -1.5746
  388MOL0     H52356   4.828   0.137   9.017 -0.8134 -0.3322  1.1718
  388MOL0     H52357   4.728   0.194   8.905  0.0567  1.5438  0.6918
  388MOL0     H52358   4.674  -0.042   8.925 -1.6734  1.5661 -1.5715
  388MOL0     H52359   4.659  -0.034   9.100  1.2944 -1.8356 -1.2181
  388MOL0     H52360   4.633   1.122   9.037 -0.4108 -1.4160 -0.0243
  388MOL0     H52361   4.667   1.347   9.091  1.2233 -0.1108 -2.5007
  388MOL0     H52362   4.780   1.839   9.080  3.5556  0.9920 -1.0636
  388MOL0     H52363   4.777   2.035   9.226 -0.0410  0.0002 -0.1249
  388MOL0     H52364   4.137   3.349   9.344 -0.9297 -2.0478  1.4715
  388MOL0     H52365   4.023   3.563   9.290  0.9204  1.2130  1.0387
  388MOL0     H52366   3.979   4.025   9.565  0.7979 -0.0339 -1.7789
  388MOL0     H52367   3.865   4.248   9.562 -1.2467  0.9818  0.6715
  388MOL0     H52368   3.741   4.444   9.459  1.7446  0.5087  2.9077
  388MOL0     H52369   3.702   4.371   9.607  0.6846  4.5598  0.9734
  388MOL0     H52370   3.564   4.536   9.644  1.0476 -1.5406 -0.4480
  388MOL0     H52371   3.451   4.422   9.567  0.2826  1.2665  3.3596
  388MOL0     H52372   3.402   4.614   9.450  0.5377 -0.6909 -3.5848
  388MOL0     H52373   3.494   4.535   9.346 -5.2799 -1.8860  2.3281
  388MOL0     H52374   3.721   4.653   9.422 -0.0781  1.4287 -2.1960
  388MOL0     H52375   3.593   4.755   9.354 -2.1252 -0.1162  0.4177
  388MOL0     H52376   3.576   4.922   9.733 -4.5888  0.3355 -1.6480
  388MOL0     H52377   3.553   4.070   9.322 -0.2391 -1.5885  1.5704
  388MOL0     H52378   3.635   3.758   9.308 -0.3442 -1.5145 -2.2081
  388MOL0     H52379   3.578   3.884   9.211  2.0407 -1.0342 -3.3639
  388MOL0     H52380   3.748   3.813   9.182  1.8533  2.0757  0.8468
  389MOL0     O52381   2.450   1.466   7.165  0.3381  0.3348 -0.5640
  389MOL0     C52382   2.441   1.591   7.158  0.9526 -0.0959 -1.2272
  389MOL0     O52383   2.387   1.661   7.048  0.4777 -0.2408  0.2230
  389MOL0     C52384   2.331   1.589   6.946  1.1650  0.5183 -0.0841
  389MOL0     C52385   2.304   1.668   6.832  0.0521  0.5623  0.4875
  389MOL0     C52386   2.248   1.620   6.715 -0.4172 -0.3961  0.1772
  389MOL0     C52387   2.209   1.488   6.722  0.1354 -0.3593  0.2272
  389MOL0     O52388   2.146   1.421   6.616 -0.0096 -1.1112  0.0119
  389MOL0     C52389   2.143   1.471   6.487  0.3708 -1.2975  0.0824
  389MOL0     C52390   2.072   1.382   6.387  1.1204  0.7355  1.3053
  389MOL0     C52391   2.162   1.259   6.349 -1.2040 -0.3024  0.7555
  389MOL0     C52392   2.179   1.150   6.449 -0.3798 -0.1080 -0.4695
  389MOL0     C52393   2.059   1.112   6.529  0.3311 -0.4834  0.5205
  389MOL0     C52394   2.106   1.007   6.640 -0.3732  0.0328 -0.2510
  389MOL0     C52395   1.981   0.953   6.712 -0.7882  0.8763  0.0562
  389MOL0     C52396   1.910   1.056   6.798 -0.0566  0.6831 -0.2899
  389MOL0     N52397   1.997   1.120   6.895  0.0757  0.2991 -0.3504
  389MOL0     C52398   1.972   1.232   6.972  0.1200 -1.5269  0.4117
  389MOL0     C52399   2.051   1.218   7.082 -1.2196 -1.2004 -0.8202
  389MOL0     C52400   2.030   1.305   7.200 -0.6990  1.0735 -0.3829
  389MOL0     C52401   2.077   1.443   7.183  0.2220  0.6425  0.5847
  389MOL0     C52402   1.998   1.534   7.274  0.6895 -0.0628  0.0037
  389MOL0     C52403   2.072   1.577   7.398 -0.1492 -0.0470 -0.4582
  389MOL0     O52404   2.099   1.460   7.473 -0.0278 -0.1177  0.6881
  389MOL0     C52405   2.152   1.466   7.600  0.2029 -0.1459  0.3578
  389MOL0     C52406   2.183   1.585   7.669  0.0556 -0.1329  0.0814
  389MOL0     C52407   2.261   1.580   7.786 -0.4806 -0.4947  0.1666
  389MOL0     C52408   2.296   1.465   7.854  0.3864  0.8905  0.1391
  389MOL0     C52409   2.367   1.472   7.984  0.0514 -0.3456 -0.5488
  389MOL0     O52410   2.374   1.594   8.040  0.7638 -0.3252  0.5029
  389MOL0     C52411   2.446   1.605   8.151  0.6943 -0.0589 -0.3839
  389MOL0     C52412   2.540   1.702   8.149 -0.1953 -0.5182 -0.0674
  389MOL0     C52413   2.635   1.719   8.252 -0.1906 -0.4871 -0.1384
  389MOL0     C52414   2.618   1.638   8.369  0.2247 -0.7694 -0.3047
  389MOL0     O52415   2.714   1.639   8.468  0.2722  0.3701 -0.3851
  389MOL0     C52416   2.759   1.775   8.503 -0.5808  0.0244  0.2232
  389MOL0     C52417   2.840   1.776   8.636  0.0996  0.0030  0.5043
  389MOL0     C52418   2.847   1.915   8.699  0.4344  0.0501  0.8360
  389MOL0     C52419   2.716   1.955   8.773  0.3907  0.2676  0.5007
  389MOL0     C52420   2.710   2.104   8.819 -0.0935  0.3164 -0.3234
  389MOL0     C52421   2.730   2.202   8.709 -0.0623 -1.2895  0.1178
  389MOL0     C52422   2.707   2.341   8.759  0.2822 -0.1876  0.0463
  389MOL0     C52423   2.803   2.399   8.866  0.4837  0.3362  0.7856
  389MOL0    Cl52424   2.781   2.577   8.866 -0.1185  0.2731 -0.0228
  389MOL0     C52425   2.504   1.555   8.379 -1.9642  1.1211  0.6644
  389MOL0     C52426   2.427   1.533   8.265  0.3053  0.9628  0.0471
  389MOL0     O52427   2.405   1.366   8.032 -0.7248  0.2433 -0.0491
  389MOL0     C52428   2.271   1.346   7.785 -0.5199  0.4161 -0.1350
  389MOL0     C52429   2.203   1.340   7.660  0.1053 -0.4366 -0.2729
  389MOL0     N52430   2.124   1.100   7.071  0.4777 -0.1771 -0.5050
  389MOL0     N52431   2.092   1.047   6.962  0.5387  0.5688 -0.6463
  389MOL0     C52432   2.237   1.398   6.830  0.4018 -0.6160  0.6245
  389MOL0     C52433   2.298   1.456   6.936  0.1254 -0.4021 -0.3400
  389MOL0     C52434   2.461   1.670   7.281 -0.2329 -0.3169  0.5423
  389MOL0     C52435   2.458   1.810   7.275  0.1186  0.0486 -0.4403
  389MOL0     C52436   2.497   1.888   7.381 -0.0225 -0.3375  1.2216
  389MOL0     C52437   2.529   1.832   7.502 -1.2022 -0.1431 -0.0399
  389MOL0     O52438   2.541   1.930   7.599 -0.5406 -0.3922  0.6689
  389MOL0     C52439   2.597   1.879   7.714  0.4828  0.0974  0.3205
  389MOL0     C52440   2.652   1.978   7.819  0.2035 -0.7839 -0.0276
  389MOL0     C52441   2.535   2.075   7.865 -0.8881  1.3130  0.6664
  389MOL0     C52442   2.587   2.170   7.973 -0.1721 -0.0446  0.3442
  389MOL0     C52443   2.637   2.109   8.095 -0.2033  0.5338 -0.0527
  389MOL0     C52444   2.668   2.077   8.202  0.8361  1.5075  0.0779
  389MOL0     C52445   2.524   1.697   7.519 -0.6041 -1.0752  0.7039
  389MOL0     C52446   2.485   1.613   7.412  0.4914 -0.2537  0.6737
  389MOL0     C52447   2.463   1.477   7.449 -0.0205 -0.6267  1.2710
  389MOL0     H52448   2.346   1.766   6.810  1.6685 -0.3364 -0.5820
  389MOL0     H52449   2.238   1.686   6.629  1.2835 -1.3728 -0.8303
  389MOL0     H52450   2.084   1.561   6.508  6.0504  2.3872  2.9099
  389MOL0     H52451   2.242   1.504   6.454  0.0745 -0.7658 -0.2877
  389MOL0     H52452   2.060   1.436   6.293 -1.1819  0.1625  1.2095
  389MOL0     H52453   1.973   1.349   6.420  0.4979  0.2886 -0.8525
  389MOL0     H52454   2.252   1.299   6.301 -2.1148  0.8647 -0.0348
  389MOL0     H52455   2.106   1.209   6.269  1.6881 -1.8612 -0.4563
  389MOL0     H52456   2.228   1.066   6.398  2.8519  2.3181 -1.8004
  389MOL0     H52457   2.254   1.191   6.517  0.8259  3.1623 -3.4325
  389MOL0     H52458   2.016   1.196   6.585 -0.9585 -0.5569 -0.3113
  389MOL0     H52459   1.978   1.080   6.463  1.2973  2.3871 -2.3398
  389MOL0     H52460   2.142   0.913   6.596 -0.5324 -2.0325  3.6420
  389MOL0     H52461   2.180   1.044   6.711  1.6095  1.2641 -2.7662
  389MOL0     H52462   2.012   0.870   6.776  1.1347  1.3330 -0.2447
  389MOL0     H52463   1.909   0.924   6.635 -2.7893 -0.9816  2.4263
  389MOL0     H52464   1.863   1.128   6.731  2.0671  1.5404 -0.9318
  389MOL0     H52465   1.822   1.006   6.840  1.0244 -0.1904  1.0341
  389MOL0     H52466   1.895   1.308   6.963  0.0951 -1.1990  2.8016
  389MOL0     H52467   1.927   1.306   7.236  0.2686  2.3394  2.7723
  389MOL0     H52468   2.080   1.258   7.285 -0.8205 -0.7061 -1.2467
  389MOL0     H52469   2.185   1.459   7.184  0.1873  1.5946 -2.3030
  389MOL0     H52470   2.049   1.469   7.081  4.1324 -0.7966 -1.0661
  389MOL0     H52471   1.905   1.489   7.309  1.6794 -0.6145  2.0645
  389MOL0     H52472   1.985   1.631   7.224 -1.6708  0.5014  1.5385
  389MOL0     H52473   2.003   1.639   7.456 -0.2675 -0.1407 -0.4984
  389MOL0     H52474   2.167   1.628   7.378  1.4103 -3.3108 -2.1705
  389MOL0     H52475   2.172   1.685   7.629 -0.1360  0.0360  0.5510
  389MOL0     H52476   2.297   1.670   7.836  1.7833 -1.4263  0.3211
  389MOL0     H52477   2.542   1.764   8.060 -1.5264 -0.6206 -0.1963
  389MOL0     H52478   2.727   1.778   8.243  0.0891 -0.0215  3.8160
  389MOL0     H52479   2.829   1.807   8.426 -1.0267  1.1761  0.2760
  389MOL0     H52480   2.681   1.852   8.504 -0.2713  0.5007 -2.7254
  389MOL0     H52481   2.788   1.711   8.707  0.7293 -0.2733  0.7170
  389MOL0     H52482   2.939   1.735   8.616  0.4349  0.6877  0.7491
  389MOL0     H52483   2.929   1.931   8.771  1.3602  1.8507 -0.5460
  389MOL0     H52484   2.880   1.972   8.612  0.7485 -0.1431  0.8243
  389MOL0     H52485   2.686   1.889   8.855 -2.6304  0.0553 -0.6367
  389MOL0     H52486   2.630   1.944   8.706 -1.6989 -1.4355  3.2348
  389MOL0     H52487   2.784   2.116   8.899 -1.2374 -1.3853  1.0751
  389MOL0     H52488   2.610   2.115   8.861 -0.8213 -2.3006 -1.1724
  389MOL0     H52489   2.834   2.204   8.676 -0.5435 -3.2013 -1.7571
  389MOL0     H52490   2.672   2.191   8.617 -2.8480 -3.0778  1.9141
  389MOL0     H52491   2.605   2.342   8.797  0.8609  2.8941  1.8392
  389MOL0     H52492   2.710   2.409   8.674  1.2449  1.9271  1.6788
  389MOL0     H52493   2.768   2.367   8.965 -2.5851 -2.3539 -0.9346
  389MOL0     H52494   2.900   2.358   8.838  0.2396  0.1515  0.1878
  389MOL0     H52495   2.489   1.505   8.474 -1.1787  0.7283  0.5915
  389MOL0     H52496   2.353   1.454   8.260  1.3984 -0.2919  2.2524
  389MOL0     H52497   2.310   1.256   7.831 -0.1715 -0.1570 -1.5241
  389MOL0     H52498   2.180   1.244   7.615 -0.0054  0.0479 -1.2691
  389MOL0     H52499   2.210   1.293   6.826 -2.2966  0.0380  0.3402
  389MOL0     H52500   2.329   1.370   6.993  1.8286 -0.6513 -1.5400
  389MOL0     H52501   2.442   1.855   7.177 -1.7666  0.1842 -0.0971
  389MOL0     H52502   2.490   1.994   7.362 -1.6449 -0.9451 -2.6260
  389MOL0     H52503   2.673   1.809   7.679 -1.7827 -2.1232 -0.5170
  389MOL0     H52504   2.524   1.816   7.766  0.2067 -1.0640 -1.4009
  389MOL0     H52505   2.733   2.038   7.778  3.4273 -2.1425  3.6508
  389MOL0     H52506   2.700   1.924   7.902  1.4973  1.1551  0.5321
  389MOL0     H52507   2.450   2.016   7.902 -1.8481  2.0379 -0.3107
  389MOL0     H52508   2.488   2.138   7.790  1.7525 -1.6217 -3.8898
  389MOL0     H52509   2.666   2.234   7.933  1.5513 -1.9302  0.5531
  389MOL0     H52510   2.501   2.226   8.009 -0.4592 -0.1156 -0.2167
  389MOL0     H52511   2.711   2.044   8.294  0.8400 -2.2784 -1.1199
  389MOL0     H52512   2.543   1.638   7.608  1.4896 -0.6304  0.5856
  389MOL0     H52513   2.450   1.459   7.556 -2.3284 -1.6354  0.9008
  389MOL0     H52514   2.369   1.457   7.396 -0.4622  0.4411  1.6238
  389MOL0     H52515   2.546   1.413   7.420 -1.6058 -1.9654 -0.6229
  390MOL0     O52516   9.972   6.307   1.850  0.3180  0.1161 -1.3945
  390MOL0     C52517   9.974   6.395   1.937  0.3538 -0.9376  0.6869
  390MOL0     O52518   9.904   6.508   1.928  0.2668 -0.0309  0.5047
  390MOL0     C52519   9.776   6.515   1.874 -0.1885 -0.4993 -0.2435
  390MOL0     C52520   9.681   6.597   1.944 -1.1057  0.1799  0.1086
  390MOL0     C52521   9.557   6.628   1.884 -0.3759 -0.3977 -0.6549
  390MOL0     C52522   9.532   6.590   1.748  0.3919  0.3847 -0.2671
  390MOL0     O52523   9.416   6.639   1.688  0.3119 -0.1096 -0.0487
  390MOL0     C52524   9.291   6.635   1.762  0.4061 -0.1431  0.2512
  390MOL0     C52525   9.180   6.574   1.674  0.3831  0.5100  0.7364
  390MOL0     C52526   9.220   6.437   1.626  0.6407  0.4199  0.0328
  390MOL0     C52527   9.099   6.357   1.584  0.0389 -0.8652 -0.2202
  390MOL0     C52528   9.145   6.222   1.538  0.3224 -0.3994 -0.0283
  390MOL0     C52529   9.044   6.117   1.496  0.7395 -0.7290 -0.5933
  390MOL0     C52530   8.994   6.132   1.352  0.5500  0.2717 -0.2728
  390MOL0     C52531   8.911   6.007   1.295  0.6741 -0.8693 -0.4966
  390MOL0     N52532   9.009   5.894   1.292  0.7058 -0.7629 -0.5833
  390MOL0     C52533   9.151   5.904   1.287 -1.4857  0.0588 -0.5189
  390MOL0     C52534   9.192   5.780   1.271  0.3656  0.1481 -0.6473
  390MOL0     C52535   9.334   5.730   1.276  0.5573  0.6718  0.1959
  390MOL0     C52536   9.402   5.716   1.415 -0.1506  0.5070 -1.0431
  390MOL0     C52537   9.302   5.657   1.512 -0.3779 -0.2410 -0.3304
  390MOL0     C52538   9.365   5.603   1.640 -0.2011 -0.2051  0.1771
  390MOL0     O52539   9.467   5.694   1.711 -0.6510 -0.2817  0.0254
  390MOL0     C52540   9.557   5.635   1.793  0.2082 -0.5209  0.0676
  390MOL0     C52541   9.528   5.592   1.921  0.2253  0.0771  0.9223
  390MOL0     C52542   9.611   5.510   1.999  0.8851 -0.0550 -0.0858
  390MOL0     C52543   9.735   5.494   1.948 -0.2454 -0.0580 -0.1823
  390MOL0     C52544   9.836   5.428   2.024 -1.0018 -0.8185 -0.3762
  390MOL0     O52545   9.788   5.336   2.116 -0.4634  0.1423 -0.4733
  390MOL0     C52546   9.888   5.265   2.176 -0.4036  0.4031  0.2518
  390MOL0     C52547   9.900   5.264   2.315 -0.1375  0.1842 -0.4544
  390MOL0     C52548  10.000   5.195   2.377  0.4175  0.6642 -0.1857
  390MOL0     C52549  10.099   5.127   2.303  0.0674 -0.5108  0.8622
  390MOL0     O52550  10.191   5.076   2.381  0.3459 -0.1797  0.5819
  390MOL0     C52551  10.266   4.967   2.325 -0.0691  1.6542 -0.3167
  390MOL0     C52552  10.383   4.928   2.417 -0.3140  0.8370  0.5318
  390MOL0     C52553  10.486   5.049   2.441  0.4105 -0.5700 -0.4563
  390MOL0     C52554  10.606   5.016   2.533  0.1716 -0.2551  0.5537
  390MOL0     C52555  10.743   4.990   2.460  0.5405  0.7885 -0.9646
  390MOL0     C52556  10.802   5.101   2.365 -0.0516 -0.3388  0.2598
  390MOL0     C52557  10.825   5.244   2.440  0.7342  0.1343 -0.3122
  390MOL0     C52558  10.935   5.324   2.383 -0.7661  0.7193 -0.0148
  390MOL0    Cl52559  11.084   5.288   2.481  0.4233  0.0453  0.0610
  390MOL0     C52560  10.091   5.126   2.165  0.2484  0.8661 -0.6393
  390MOL0     C52561   9.992   5.194   2.101 -0.6772  0.6359 -0.0247
  390MOL0     O52562   9.960   5.456   2.001  0.4724  0.3970  0.4046
  390MOL0     C52563   9.775   5.537   1.815 -1.1549 -0.5109  0.0495
  390MOL0     C52564   9.686   5.605   1.737 -0.3038  1.0033 -0.3899
  390MOL0     N52565   9.082   5.706   1.245 -0.6599  0.1059 -0.8258
  390MOL0     N52566   8.980   5.776   1.263  0.8500  0.4113  0.2977
  390MOL0     C52567   9.626   6.508   1.686  0.1916  0.3783  0.0396
  390MOL0     C52568   9.736   6.464   1.743 -0.2176 -0.1887  0.3012
  390MOL0     C52569  10.098   6.402   2.021 -0.7118  0.5022  0.9802
  390MOL0     C52570  10.222   6.378   1.951 -0.2191 -0.1659 -0.2936
  390MOL0     C52571  10.346   6.396   2.012 -0.5070 -0.6250  0.7733
  390MOL0     C52572  10.351   6.430   2.144  0.7686  0.5936 -0.8492
  390MOL0     O52573  10.467   6.459   2.207 -0.2755  0.4335  0.2209
  390MOL0     C52574  10.594   6.394   2.152 -0.2249  0.4910  0.6002
  390MOL0     C52575  10.697   6.377   2.265 -0.3068  0.3379 -0.0585
  390MOL0     C52576  10.806   6.494   2.262 -0.7608  0.7399 -0.2853
  390MOL0     C52577  10.896   6.465   2.387  0.8732 -0.1286 -0.0749
  390MOL0     C52578  10.994   6.572   2.378  0.7442  0.0894 -0.0141
  390MOL0     C52579  11.077   6.665   2.374 -0.1052 -0.3515 -0.4267
  390MOL0     C52580  10.231   6.467   2.209 -0.4885  0.0537 -0.0254
  390MOL0     C52581  10.108   6.459   2.147  0.6542  0.6246  1.0581
  390MOL0     C52582   9.987   6.506   2.229 -0.3355  1.2061  0.7961
  390MOL0     H52583   9.727   6.626   2.038  3.0077  0.3993 -1.7588
  390MOL0     H52584   9.488   6.684   1.946  0.3688  0.2923 -0.4314
  390MOL0     H52585   9.308   6.593   1.862  1.7112  1.3129  0.6772
  390MOL0     H52586   9.260   6.738   1.778  0.4759 -0.1623  0.5126
  390MOL0     H52587   9.154   6.643   1.593 -0.5038 -1.6256 -0.9117
  390MOL0     H52588   9.086   6.570   1.730 -0.5243 -0.9579 -0.8114
  390MOL0     H52589   9.276   6.389   1.706  3.2948 -0.2691 -2.0772
  390MOL0     H52590   9.274   6.457   1.533 -1.7839  0.3746 -1.4742
  390MOL0     H52591   9.045   6.337   1.677  1.1661  0.5651  0.7850
  390MOL0     H52592   9.042   6.418   1.513  0.2927  1.5459  1.5255
  390MOL0     H52593   9.224   6.227   1.462  1.4769  1.3677  1.1807
  390MOL0     H52594   9.206   6.191   1.624  1.0045  2.1406  0.4786
  390MOL0     H52595   9.076   6.013   1.503  3.1442 -0.0882 -1.2235
  390MOL0     H52596   8.961   6.134   1.565  0.7253  0.9235 -0.9770
  390MOL0     H52597   9.081   6.142   1.286  1.7370 -2.5383  0.6903
  390MOL0     H52598   8.942   6.228   1.348 -0.2793 -0.2191 -1.9396
  390MOL0     H52599   8.825   5.978   1.357 -0.7179 -1.4543 -2.5866
  390MOL0     H52600   8.892   6.043   1.194  1.0335  3.5203  0.7807
  390MOL0     H52601   9.215   5.979   1.333 -0.1974 -0.3243 -1.6006
  390MOL0     H52602   9.324   5.630   1.231  0.0036  0.7868  0.0585
  390MOL0     H52603   9.390   5.797   1.210  1.1074 -0.1156 -0.1697
  390MOL0     H52604   9.490   5.652   1.403 -0.2468  0.7378 -3.3986
  390MOL0     H52605   9.439   5.813   1.449 -1.8082  1.5729 -2.0904
  390MOL0     H52606   9.252   5.575   1.459 -1.5191  0.3173 -0.1480
  390MOL0     H52607   9.231   5.734   1.541 -1.1564 -1.7077  1.9561
  390MOL0     H52608   9.416   5.513   1.605  1.7934  2.4750 -4.8389
  390MOL0     H52609   9.288   5.564   1.708  1.3955 -2.3882  0.8568
  390MOL0     H52610   9.428   5.619   1.955  0.3089  1.8563 -0.1333
  390MOL0     H52611   9.582   5.491   2.102 -0.6647 -3.2259 -0.9832
  390MOL0     H52612   9.823   5.317   2.371 -1.6725  0.0170 -2.2900
  390MOL0     H52613  10.011   5.194   2.485  1.4322 -2.6466 -0.1917
  390MOL0     H52614  10.203   4.878   2.316 -2.4431  2.9606  2.0711
  390MOL0     H52615  10.315   4.995   2.231  1.4516  0.7321  0.1627
  390MOL0     H52616  10.341   4.881   2.506 -4.1425  3.1407  0.1762
  390MOL0     H52617  10.437   4.855   2.356 -0.1734  1.7623 -0.4932
  390MOL0     H52618  10.529   5.087   2.347  1.9972 -2.4075 -0.5466
  390MOL0     H52619  10.428   5.130   2.484 -0.3265 -0.3415 -1.8149
  390MOL0     H52620  10.577   4.927   2.589 -2.3704  0.0260 -0.1953
  390MOL0     H52621  10.626   5.099   2.601  0.7781  0.2988 -0.2707
  390MOL0     H52622  10.730   4.896   2.406  0.1413 -1.0460  2.1131
  390MOL0     H52623  10.816   4.973   2.539 -1.2159 -1.6989  0.2666
  390MOL0     H52624  10.901   5.070   2.333  0.6939  0.9764  1.1615
  390MOL0     H52625  10.737   5.097   2.277 -2.1468 -0.7218  1.7194
  390MOL0     H52626  10.851   5.229   2.546 -1.9319  2.5352  0.8231
  390MOL0     H52627  10.726   5.292   2.434  0.8069  0.1124 -2.1287
  390MOL0     H52628  10.950   5.311   2.275  0.3183  3.5177 -0.2831
  390MOL0     H52629  10.907   5.429   2.391 -1.9121  0.3263  1.3905
  390MOL0     H52630  10.164   5.073   2.106 -0.4215 -2.1704  0.9926
  390MOL0     H52631   9.988   5.175   1.994 -0.0518 -0.8434  0.1882
  390MOL0     H52632   9.870   5.503   1.776 -2.0506 -0.9354 -1.8924
  390MOL0     H52633   9.717   5.657   1.647 -1.0244  0.3636 -1.0198
  390MOL0     H52634   9.596   6.468   1.590  0.4466  1.9176 -0.7148
  390MOL0     H52635   9.801   6.414   1.672  1.8738  3.2924 -0.4489
  390MOL0     H52636  10.211   6.332   1.854 -0.9317  0.9235 -0.7546
  390MOL0     H52637  10.438   6.371   1.959  2.5540 -0.9188  5.5724
  390MOL0     H52638  10.624   6.442   2.059 -2.5571 -1.6838 -1.3993
  390MOL0     H52639  10.570   6.294   2.116  1.1901  0.4442 -0.2739
  390MOL0     H52640  10.758   6.291   2.234  1.2557  1.5568 -0.4837
  390MOL0     H52641  10.643   6.354   2.357 -1.9865  0.5199 -0.9652
  390MOL0     H52642  10.749   6.586   2.251  1.2001  2.0584  0.0791
  390MOL0     H52643  10.866   6.463   2.176  1.0217 -2.6833  1.9182
  390MOL0     H52644  10.842   6.479   2.481  0.0246  1.9605 -0.8146
  390MOL0     H52645  10.944   6.366   2.395  2.6642  0.8528  3.1556
  390MOL0     H52646  11.149   6.744   2.375 -1.5739  1.0728 -1.8317
  390MOL0     H52647  10.231   6.506   2.310  0.9776  4.7437 -1.5809
  390MOL0     H52648   9.893   6.525   2.177 -1.0104  0.2316  1.6153
  390MOL0     H52649   9.970   6.422   2.297 -1.3488  0.1420 -0.7040
  390MOL0     H52650  10.011   6.598   2.284 -0.0116  0.1225  2.5605
  391MOL0     O52651   6.246   6.905   2.362  0.2947 -1.0292  0.7999
  391MOL0     C52652   6.335   6.962   2.425 -0.4710 -1.9301  0.1096
  391MOL0     O52653   6.362   6.943   2.557  0.4715  0.3028 -0.7523
  391MOL0     C52654   6.259   6.914   2.645  0.1518  0.0982  0.0191
  391MOL0     C52655   6.287   6.828   2.747 -1.1107  0.4166  1.2866
  391MOL0     C52656   6.193   6.810   2.856 -0.4097 -0.3206  0.9646
  391MOL0     C52657   6.084   6.896   2.870 -0.4909 -0.5136  0.5117
  391MOL0     O52658   5.996   6.874   2.974  0.1647  0.3894 -0.2943
  391MOL0     C52659   5.866   6.921   2.970 -0.5027 -0.6259  0.2137
  391MOL0     C52660   5.778   6.893   3.095  0.2843  0.1713 -0.7038
  391MOL0     C52661   5.808   6.980   3.219  0.2685  0.1331 -0.4028
  391MOL0     C52662   5.698   6.962   3.330  0.3259  0.0273  0.4297
  391MOL0     C52663   5.729   7.049   3.459 -0.3150  0.4258  0.9050
  391MOL0     C52664   5.688   6.984   3.594 -0.2781 -1.0981 -0.3216
  391MOL0     C52665   5.793   7.009   3.706  0.0081  0.1229  1.1410
  391MOL0     C52666   5.927   6.922   3.699 -0.3972  0.7433  0.5502
  391MOL0     N52667   5.905   6.778   3.725 -0.2646 -0.4621 -0.8919
  391MOL0     C52668   5.943   6.701   3.831 -0.2641 -0.1588 -0.2794
  391MOL0     C52669   5.926   6.574   3.794 -0.5940 -0.1740  0.2912
  391MOL0     C52670   5.969   6.464   3.898  0.3077 -0.8030  0.5848
  391MOL0     C52671   6.078   6.370   3.837  0.4467  0.2193 -0.3717
  391MOL0     C52672   6.054   6.229   3.871 -0.6333  0.0804 -0.4973
  391MOL0     C52673   5.971   6.155   3.773  0.1499  0.1177  0.7792
  391MOL0     O52674   5.831   6.189   3.786  0.6369  0.5551  0.3085
  391MOL0     C52675   5.754   6.132   3.690 -0.6498 -0.9735  0.3292
  391MOL0     C52676   5.745   6.200   3.576  0.1708  0.1637  1.1579
  391MOL0     C52677   5.663   6.151   3.480 -0.4021 -0.2128  0.3758
  391MOL0     C52678   5.601   6.021   3.497 -0.0266  0.2405  0.3722
  391MOL0     C52679   5.532   5.966   3.385  0.2546  0.3815  0.0350
  391MOL0     O52680   5.495   5.834   3.395  0.6879  0.6268  0.4761
  391MOL0     C52681   5.430   5.761   3.297  0.2033  0.1738  0.0939
  391MOL0     C52682   5.316   5.816   3.226 -0.3614 -0.1628  0.0201
  391MOL0     C52683   5.258   5.738   3.117  0.1452  0.1069  0.3263
  391MOL0     C52684   5.316   5.619   3.080  0.2707 -0.8735 -0.5176
  391MOL0     O52685   5.273   5.566   2.971  0.5091  1.3590 -0.8508
  391MOL0     C52686   5.159   5.478   3.001 -0.3871  0.4410  0.3745
  391MOL0     C52687   5.127   5.413   2.872 -0.1163  0.2175  0.7642
  391MOL0     C52688   5.188   5.289   2.822  0.1231 -0.1981 -0.0656
  391MOL0     C52689   5.321   5.253   2.888  0.2043  0.7084 -0.3637
  391MOL0     C52690   5.390   5.131   2.838 -0.6312  0.9203 -0.1986
  391MOL0     C52691   5.506   5.103   2.940  0.1234  0.0070 -0.8236
  391MOL0     C52692   5.578   4.971   2.912 -0.2303 -0.5692  0.3635
  391MOL0     C52693   5.706   4.951   2.981 -0.3609  0.1108  0.3491
  391MOL0    Cl52694   5.686   4.879   3.137  0.0083  0.0144 -0.4696
  391MOL0     C52695   5.422   5.565   3.155  0.4395  0.6700  0.0018
  391MOL0     C52696   5.473   5.630   3.269  1.4161  0.7445  0.2130
  391MOL0     O52697   5.533   6.030   3.276  0.6912 -0.0514 -0.5399
  391MOL0     C52698   5.620   5.954   3.619 -0.0486 -0.2340 -0.0444
  391MOL0     C52699   5.700   6.009   3.717 -0.5004 -1.2373 -0.1333
  391MOL0     N52700   5.864   6.574   3.669  0.5285 -0.5013  0.2773
  391MOL0     N52701   5.859   6.697   3.628 -0.6661 -0.4100  0.6596
  391MOL0     C52702   6.050   6.980   2.764 -0.6337  0.1224 -0.7898
  391MOL0     C52703   6.136   6.980   2.655 -1.0632  0.2566  0.1530
  391MOL0     C52704   6.442   7.050   2.357  0.1488 -0.5778  0.0233
  391MOL0     C52705   6.562   7.087   2.430  0.0485  0.6101 -0.8222
  391MOL0     C52706   6.668   7.140   2.369  0.7577 -0.0293 -0.0743
  391MOL0     C52707   6.666   7.180   2.238 -0.6586  0.3472 -0.2267
  391MOL0     O52708   6.784   7.222   2.175 -0.2287  0.1045  0.4387
  391MOL0     C52709   6.903   7.239   2.252  0.6915  0.2421 -0.2138
  391MOL0     C52710   7.017   7.288   2.164 -0.2972  0.5513 -0.5249
  391MOL0     C52711   6.995   7.427   2.098 -0.8044  0.1620  0.0257
  391MOL0     C52712   7.075   7.436   1.958 -0.0573  0.1750 -0.8958
  391MOL0     C52713   7.217   7.470   1.968  0.0206 -0.0643 -0.1188
  391MOL0     C52714   7.336   7.504   1.981  1.1137 -0.2266 -0.5298
  391MOL0     C52715   6.537   7.173   2.177  0.2649 -0.1305  0.1792
  391MOL0     C52716   6.422   7.110   2.232  0.2445  0.1604 -0.5226
  391MOL0     C52717   6.293   7.110   2.159 -0.2668  0.7355  0.8922
  391MOL0     H52718   6.382   6.778   2.762 -0.0668  2.3189  1.3369
  391MOL0     H52719   6.195   6.728   2.927 -2.1914 -0.3074  1.0728
  391MOL0     H52720   5.860   7.029   2.952  0.2463 -0.9453 -2.2811
  391MOL0     H52721   5.819   6.869   2.885  0.7914 -0.9139 -0.3477
  391MOL0     H52722   5.789   6.788   3.121  1.5826  0.7655  1.4620
  391MOL0     H52723   5.673   6.913   3.070  0.3507 -0.8984 -1.9041
  391MOL0     H52724   5.811   7.087   3.197  0.1778  1.5201  4.8869
  391MOL0     H52725   5.905   6.948   3.260 -0.1484 -3.5739 -1.9946
  391MOL0     H52726   5.599   6.993   3.295  1.2506  0.8842 -1.5973
  391MOL0     H52727   5.693   6.859   3.368 -2.2669  0.0186  0.2713
  391MOL0     H52728   5.836   7.072   3.452  0.5242 -3.3132 -3.0180
  391MOL0     H52729   5.678   7.143   3.437 -0.7263 -0.4720 -2.6680
  391MOL0     H52730   5.593   7.027   3.626 -0.1993  0.2098 -1.7546
  391MOL0     H52731   5.672   6.876   3.583 -0.3977 -1.2770  1.3013
  391MOL0     H52732   5.744   7.006   3.804  0.1258  2.4093  1.3175
  391MOL0     H52733   5.834   7.110   3.694 -0.2810 -0.0124 -1.6042
  391MOL0     H52734   5.983   6.940   3.607  0.8885 -0.0235  1.1558
  391MOL0     H52735   5.997   6.948   3.778 -1.9470  1.9437  1.5910
  391MOL0     H52736   5.991   6.732   3.923 -0.7062 -1.7184  0.5116
  391MOL0     H52737   6.007   6.519   3.985 -0.5120 -0.4299  0.7213
  391MOL0     H52738   5.883   6.402   3.924  1.1045 -3.0702 -1.7256
  391MOL0     H52739   6.088   6.381   3.729  0.1187 -0.0797 -0.4360
  391MOL0     H52740   6.171   6.400   3.886  0.2807  2.0763 -1.1229
  391MOL0     H52741   6.014   6.219   3.972  1.0183 -1.4955  0.0531
  391MOL0     H52742   6.158   6.196   3.871  0.5743  3.5220 -0.4623
  391MOL0     H52743   5.993   6.049   3.792  0.5942  0.0490 -0.0831
  391MOL0     H52744   6.007   6.185   3.675  2.7742  1.8553  2.1752
  391MOL0     H52745   5.780   6.301   3.561  0.7455 -0.5020 -3.1863
  391MOL0     H52746   5.647   6.222   3.399  0.1550  0.5738  0.9450
  391MOL0     H52747   5.276   5.913   3.256  0.2191  0.2302 -0.4391
  391MOL0     H52748   5.166   5.766   3.067 -0.2539 -1.4566  0.1283
  391MOL0     H52749   5.183   5.398   3.071  1.4911 -0.5903 -1.3440
  391MOL0     H52750   5.069   5.526   3.041 -0.6173 -0.3132  0.7781
  391MOL0     H52751   5.025   5.381   2.896 -0.2069  2.8503  4.9402
  391MOL0     H52752   5.125   5.492   2.796  0.0017  0.2467  0.7920
  391MOL0     H52753   5.133   5.196   2.833  2.5783 -1.8095 -0.6472
  391MOL0     H52754   5.201   5.294   2.713 -0.0639  0.5927 -0.0593
  391MOL0     H52755   5.313   5.244   2.997  1.6115  1.2358 -0.1943
  391MOL0     H52756   5.398   5.327   2.864 -1.3653  1.0323 -5.6254
  391MOL0     H52757   5.423   5.147   2.734  0.4631 -2.9237 -0.6017
  391MOL0     H52758   5.331   5.040   2.828  0.7728  0.0124 -0.5894
  391MOL0     H52759   5.583   5.181   2.932  0.9555 -0.9784 -3.7360
  391MOL0     H52760   5.478   5.089   3.045 -0.7768  3.4399 -0.4602
  391MOL0     H52761   5.595   4.974   2.804 -3.4245  1.4257 -0.2227
  391MOL0     H52762   5.504   4.893   2.930 -0.2756 -1.7004 -3.7457
  391MOL0     H52763   5.768   4.892   2.912 -0.1541 -1.5535  1.8984
  391MOL0     H52764   5.768   5.041   2.983  0.6509 -0.5572  3.0167
  391MOL0     H52765   5.467   5.469   3.131 -0.6775  0.5219 -1.6417
  391MOL0     H52766   5.550   5.583   3.328  1.6558  2.7456  1.5971
  391MOL0     H52767   5.596   5.851   3.641  0.0065  0.1777  2.0806
  391MOL0     H52768   5.732   5.956   3.807  2.1044  1.3816  0.6842
  391MOL0     H52769   5.958   7.037   2.766 -0.7762  0.0125  3.0044
  391MOL0     H52770   6.113   7.050   2.576  3.3053 -2.3026 -3.8981
  391MOL0     H52771   6.557   7.064   2.536  1.5564  0.4208 -0.7642
  391MOL0     H52772   6.752   7.149   2.437  0.8984  1.6667 -0.4287
  391MOL0     H52773   6.911   7.143   2.305 -0.9230  0.8744  1.2812
  391MOL0     H52774   6.878   7.311   2.330 -2.4350 -1.1850  0.2667
  391MOL0     H52775   7.023   7.216   2.083 -0.0405  0.9634 -0.8799
  391MOL0     H52776   7.104   7.294   2.230 -1.0245 -1.1935  0.6503
  391MOL0     H52777   7.002   7.512   2.166 -1.8994  1.0347 -0.9253
  391MOL0     H52778   6.889   7.427   2.071 -0.5535  3.2576 -1.3793
  391MOL0     H52779   7.065   7.362   1.879 -1.6320 -1.5574  0.8062
  391MOL0     H52780   7.029   7.513   1.895 -0.2857  2.5831  1.9578
  391MOL0     H52781   7.435   7.545   1.984  1.4722 -0.6409 -3.2995
  391MOL0     H52782   6.532   7.227   2.083  0.8643  2.7584  1.7027
  391MOL0     H52783   6.257   7.009   2.138  0.3391  0.2279  2.1958
  391MOL0     H52784   6.208   7.154   2.210 -3.1935 -0.2602 -2.7111
  391MOL0     H52785   6.294   7.166   2.065  1.2348 -1.0774 -0.2436
  392MOL0     O52786  10.362   0.701   0.523 -0.3494  0.7551  0.4939
  392MOL0     C52787  10.482   0.739   0.529  0.7439  0.5409 -0.2220
  392MOL0     O52788  10.579   0.696   0.457 -0.2180  0.3086 -0.5776
  392MOL0     C52789  10.550   0.617   0.348 -0.0611 -0.5661 -1.0096
  392MOL0     C52790  10.589   0.662   0.233 -0.6564  0.2507 -0.5311
  392MOL0     C52791  10.564   0.597   0.105  1.1312  0.1585 -0.9896
  392MOL0     C52792  10.499   0.477   0.106 -0.2891 -0.3059  1.0745
  392MOL0     O52793  10.463   0.428  -0.019  0.0831 -0.0286 -0.1156
  392MOL0     C52794  10.339   0.353  -0.036 -0.9808 -0.3219 -0.7254
  392MOL0     C52795  10.292   0.384  -0.179 -0.1850 -0.0773  1.5892
  392MOL0     C52796  10.157   0.302  -0.215  0.1595 -1.2321  0.0543
  392MOL0     C52797  10.051   0.333  -0.105  0.9963  0.9648 -0.1687
  392MOL0     C52798   9.902   0.274  -0.127  0.2982  0.4744  0.9593
  392MOL0     C52799   9.892   0.110  -0.125 -0.1650 -0.1219  0.4453
  392MOL0     C52800   9.753   0.056  -0.133 -0.0203 -0.9777  0.4776
  392MOL0     C52801   9.747  -0.104  -0.157  0.2945  0.2648 -0.8650
  392MOL0     N52802   9.778  -0.143  -0.301 -0.2798 -0.0951  0.4747
  392MOL0     C52803   9.780  -0.275  -0.348  0.8345 -0.9868  0.4900
  392MOL0     C52804   9.805  -0.252  -0.476  0.0347  0.2881 -0.3503
  392MOL0     C52805   9.853  -0.367  -0.563 -0.0682 -0.0425  0.3669
  392MOL0     C52806   9.779  -0.375  -0.695 -0.0680 -0.4634  0.1789
  392MOL0     C52807   9.822  -0.282  -0.808  0.0796  0.0291 -0.3371
  392MOL0     C52808   9.948  -0.323  -0.890 -0.2613  0.1479  0.6666
  392MOL0     O52809   9.968  -0.229  -0.995  0.2326  0.1002  0.1310
  392MOL0     C52810   9.924  -0.246  -1.126  0.7160  0.7020 -0.6287
  392MOL0     C52811  10.006  -0.197  -1.228 -0.4375  0.1935  0.1406
  392MOL0     C52812   9.965  -0.213  -1.356 -0.5076 -0.3195  0.3379
  392MOL0     C52813   9.849  -0.286  -1.385 -1.0510  1.0709 -0.1357
  392MOL0     C52814   9.828  -0.314  -1.530 -0.1613 -0.3662  0.6019
  392MOL0     O52815   9.935  -0.317  -1.617  0.3923  0.7171 -0.3608
  392MOL0     C52816   9.947  -0.426  -1.702 -0.6777 -0.2682 -0.1240
  392MOL0     C52817  10.043  -0.424  -1.797  0.5502 -0.7515  1.3378
  392MOL0     C52818  10.074  -0.532  -1.888 -0.7594 -0.6694 -0.7689
  392MOL0     C52819   9.998  -0.647  -1.879  0.0761  1.3811 -0.5953
  392MOL0     O52820  10.031  -0.747  -1.965 -0.0688  0.0558 -0.1441
  392MOL0     C52821  10.055  -0.875  -1.904  0.3795 -0.1476  0.4594
  392MOL0     C52822  10.132  -0.958  -2.012  0.3828 -1.0828 -0.5607
  392MOL0     C52823  10.254  -0.888  -2.057 -0.4251 -0.3564 -0.1809
  392MOL0     C52824  10.349  -0.850  -1.949 -0.1055  0.3865  0.8400
  392MOL0     C52825  10.471  -0.788  -2.013 -0.2553  0.1568 -0.8790
  392MOL0     C52826  10.597  -0.806  -1.922 -0.2909  0.8658  0.1997
  392MOL0     C52827  10.720  -0.713  -1.957 -0.6785 -0.1633 -1.0965
  392MOL0     C52828  10.852  -0.759  -1.905 -0.1484 -0.8726  0.2465
  392MOL0    Cl52829  10.982  -0.642  -1.964  0.3544  0.4211 -0.1473
  392MOL0     C52830   9.893  -0.652  -1.786 -0.2451  0.5150  0.7049
  392MOL0     C52831   9.872  -0.545  -1.697 -0.5750 -0.5172  0.0107
  392MOL0     O52832   9.713  -0.346  -1.555 -0.3909 -0.1537  0.1814
  392MOL0     C52833   9.781  -0.340  -1.284  0.8311  0.5018  0.4040
  392MOL0     C52834   9.812  -0.319  -1.156  0.0614  1.1611  1.1907
  392MOL0     N52835   9.805  -0.118  -0.509 -0.1642 -0.1743  0.4205
  392MOL0     N52836   9.780  -0.049  -0.406  0.5852  0.1603  0.0020
  392MOL0     C52837  10.470   0.422   0.236  0.4103 -0.0453 -0.2681
  392MOL0     C52838  10.481   0.494   0.354  0.1152 -0.2133  0.3993
  392MOL0     C52839  10.519   0.806   0.649 -0.2547  0.2612 -0.5672
  392MOL0     C52840  10.651   0.865   0.646 -0.7062 -0.6720  0.2039
  392MOL0     C52841  10.697   0.915   0.762  0.3128  0.8988 -0.3188
  392MOL0     C52842  10.625   0.925   0.881 -0.8832  0.6510  0.4216
  392MOL0     O52843  10.677   0.969   1.003 -0.9556 -0.0382  0.0133
  392MOL0     C52844  10.807   1.030   1.001  0.5133  0.4726 -0.7376
  392MOL0     C52845  10.824   1.110   1.135  0.4603  0.9932 -0.6505
  392MOL0     C52846  10.853   1.258   1.125  0.5869 -0.6878  0.2003
  392MOL0     C52847  10.845   1.326   1.262  0.9504 -0.3879 -0.3681
  392MOL0     C52848  10.981   1.304   1.313 -0.0373  0.3224 -0.2183
  392MOL0     C52849  11.085   1.310   1.378 -0.4807  0.2628 -0.3955
  392MOL0     C52850  10.497   0.876   0.882  0.0311 -0.9046 -0.6408
  392MOL0     C52851  10.442   0.814   0.770 -0.3090  0.9171  0.5048
  392MOL0     C52852  10.299   0.776   0.779  1.0358 -0.2376  0.1356
  392MOL0     H52853  10.644   0.755   0.223  1.6698 -1.2205 -2.6140
  392MOL0     H52854  10.605   0.634   0.012  1.3053 -2.4771 -2.0189
  392MOL0     H52855  10.341   0.246  -0.011 -3.5141 -1.1611 -3.5202
  392MOL0     H52856  10.270   0.406   0.030 -1.6019 -1.2054 -0.6499
  392MOL0     H52857  10.375   0.376  -0.250  0.0852  4.4705  1.0917
  392MOL0     H52858  10.273   0.491  -0.171  3.1760  0.6472  1.3392
  392MOL0     H52859  10.171   0.194  -0.224  1.8372 -1.1425  1.0736
  392MOL0     H52860  10.114   0.336  -0.310  0.9537  0.1343  0.1530
  392MOL0     H52861  10.072   0.297  -0.004  0.1820  3.1181  0.8160
  392MOL0     H52862  10.035   0.441  -0.109 -0.7785  0.9221  2.7438
  392MOL0     H52863   9.839   0.314  -0.047 -0.5713 -0.4849  0.7825
  392MOL0     H52864   9.864   0.307  -0.224  0.9477  2.5996  1.3687
  392MOL0     H52865   9.958   0.068  -0.201 -0.4170 -0.3348  0.3397
  392MOL0     H52866   9.932   0.066  -0.033  0.0807  0.9512  0.8691
  392MOL0     H52867   9.715   0.110  -0.220  1.2600  3.0814  2.2171
  392MOL0     H52868   9.704   0.088  -0.040 -0.3139 -2.4021  0.8366
  392MOL0     H52869   9.820  -0.155  -0.094  0.5774 -0.6124 -1.8728
  392MOL0     H52870   9.645  -0.137  -0.133  1.1307 -2.2993 -0.5669
  392MOL0     H52871   9.773  -0.366  -0.290  1.1174 -0.6200  1.1042
  392MOL0     H52872   9.953  -0.343  -0.600 -1.3731 -2.1156 -5.7170
  392MOL0     H52873   9.839  -0.456  -0.501  2.1067 -1.1932 -0.6966
  392MOL0     H52874   9.779  -0.477  -0.735 -4.2572 -2.5607  4.4430
  392MOL0     H52875   9.672  -0.357  -0.679 -0.0657 -0.6339  0.4032
  392MOL0     H52876   9.830  -0.181  -0.767 -0.0015 -1.6068  4.2811
  392MOL0     H52877   9.735  -0.285  -0.874  0.7842 -1.7948 -1.2504
  392MOL0     H52878   9.943  -0.425  -0.929 -1.3611  0.0315  1.0671
  392MOL0     H52879  10.036  -0.316  -0.826 -0.4497 -0.7331  1.0249
  392MOL0     H52880  10.097  -0.155  -1.188 -2.1637  1.4006  3.1686
  392MOL0     H52881  10.021  -0.183  -1.443 -2.7084  1.6665 -0.5090
  392MOL0     H52882  10.120  -0.349  -1.817  0.2878 -0.9384 -0.5595
  392MOL0     H52883  10.150  -0.537  -1.965 -0.3771 -2.0496 -0.3251
  392MOL0     H52884  10.105  -0.873  -1.807 -2.1899 -0.1039  1.8967
  392MOL0     H52885   9.966  -0.932  -1.875  0.2383 -0.0761  0.1799
  392MOL0     H52886  10.166  -1.053  -1.968  1.6710 -0.4037 -0.0332
  392MOL0     H52887  10.063  -0.981  -2.093 -1.6266 -3.0078  1.5565
  392MOL0     H52888  10.299  -0.962  -2.123  3.5404 -1.9786  3.8772
  392MOL0     H52889  10.231  -0.800  -2.119  1.0101 -0.8899 -1.5248
  392MOL0     H52890  10.393  -0.941  -1.909  0.8055  0.2875 -0.3261
  392MOL0     H52891  10.311  -0.782  -1.871  3.0101  2.4431  0.7560
  392MOL0     H52892  10.441  -0.683  -2.025 -2.1521 -0.1893  0.4321
  392MOL0     H52893  10.494  -0.834  -2.110 -0.2831  0.6341 -1.1174
  392MOL0     H52894  10.561  -0.804  -1.819 -3.7710 -2.1788 -0.7485
  392MOL0     H52895  10.635  -0.908  -1.936  0.4585  1.0737  0.6609
  392MOL0     H52896  10.686  -0.617  -1.918 -1.9270  0.6509 -3.9079
  392MOL0     H52897  10.737  -0.711  -2.065  0.3747  3.2648 -0.9650
  392MOL0     H52898  10.856  -0.772  -1.797  1.8747  1.1869  0.5127
  392MOL0     H52899  10.877  -0.857  -1.945  1.3097 -0.1343 -0.7689
  392MOL0     H52900   9.826  -0.736  -1.796 -0.5102  0.6172  1.5131
  392MOL0     H52901   9.803  -0.558  -1.614  1.1398 -2.7932  1.1612
  392MOL0     H52902   9.702  -0.410  -1.310  1.5704 -0.4988  0.7523
  392MOL0     H52903   9.752  -0.365  -1.078  0.6169 -0.7214  0.5765
  392MOL0     H52904  10.424   0.325   0.216  0.8484 -0.0019 -1.5224
  392MOL0     H52905  10.451   0.445   0.445  2.6117  1.0912  2.0645
  392MOL0     H52906  10.719   0.855   0.562 -0.3144 -1.2575  0.5822
  392MOL0     H52907  10.802   0.943   0.759  1.3190 -2.4236 -0.3890
  392MOL0     H52908  10.822   1.100   0.918 -2.9319  1.6211 -0.5233
  392MOL0     H52909  10.876   0.945   0.993 -0.5619 -0.3455 -1.7592
  392MOL0     H52910  10.903   1.062   1.194 -0.1797  2.1728  1.2829
  392MOL0     H52911  10.726   1.108   1.183  0.0649  4.1666 -1.0956
  392MOL0     H52912  10.771   1.296   1.063 -0.3074  0.6704  2.1331
  392MOL0     H52913  10.940   1.286   1.065 -1.9262  0.0960 -3.4290
  392MOL0     H52914  10.837   1.434   1.256 -1.9557 -0.4926  0.2971
  392MOL0     H52915  10.764   1.290   1.326 -0.2788 -0.3656 -1.8389
  392MOL0     H52916  11.181   1.313   1.425 -1.0333  1.1503  0.7233
  392MOL0     H52917  10.436   0.900   0.969 -0.6321  0.5763 -1.4874
  392MOL0     H52918  10.266   0.779   0.883 -2.1187  0.7396 -0.7873
  392MOL0     H52919  10.236   0.837   0.714 -0.7623  0.0294  2.0236
  392MOL0     H52920  10.278   0.675   0.746 -5.2515 -0.1424  2.5554
  393MOL0     O52921   6.930  10.843   3.104  0.5712 -0.3434  0.2999
  393MOL0     C52922   6.892  10.735   3.144 -0.2955 -0.1231 -0.0469
  393MOL0     O52923   6.881  10.702   3.276  0.1526 -0.0679 -0.3810
  393MOL0     C52924   6.841  10.787   3.382  0.0804  0.6370 -0.1943
  393MOL0     C52925   6.780  10.917   3.371 -0.4538 -0.3698  0.8363
  393MOL0     C52926   6.725  10.991   3.477 -0.0374  0.0397 -0.5153
  393MOL0     C52927   6.734  10.932   3.605  0.5213 -0.5524  0.2014
  393MOL0     O52928   6.690  10.989   3.715  0.0967 -0.3666  0.2193
  393MOL0     C52929   6.587  11.094   3.715  0.2492 -0.3449 -0.7239
  393MOL0     C52930   6.515  11.111   3.857  0.7739 -0.7572  0.1393
  393MOL0     C52931   6.437  10.980   3.886 -0.3174  0.6911  0.4998
  393MOL0     C52932   6.342  11.016   3.999  0.5636  0.3988 -0.2969
  393MOL0     C52933   6.269  10.902   4.066  0.6656  0.5021  0.4855
  393MOL0     C52934   6.184  10.819   3.968 -0.1224 -1.0043 -0.5635
  393MOL0     C52935   6.060  10.898   3.931 -0.1088  0.5209 -0.0589
  393MOL0     C52936   5.947  10.805   3.893  0.2869 -0.1861  1.7741
  393MOL0     N52937   5.973  10.745   3.764 -0.2253  0.2395  0.0426
  393MOL0     C52938   6.035  10.810   3.652 -0.5921 -1.4729 -0.1600
  393MOL0     C52939   6.018  10.718   3.556 -0.2280 -0.0160 -0.1039
  393MOL0     C52940   6.050  10.738   3.412 -0.6199 -0.1820 -0.1112
  393MOL0     C52941   6.199  10.780   3.391  0.7709 -1.0133  0.6116
  393MOL0     C52942   6.292  10.674   3.438 -0.1582  1.0751 -0.2840
  393MOL0     C52943   6.423  10.655   3.352 -1.0631  0.3537 -1.0892
  393MOL0     O52944   6.387  10.608   3.227  0.6411 -0.2764  0.4814
  393MOL0     C52945   6.439  10.649   3.110 -0.2756  0.4999 -0.6048
  393MOL0     C52946   6.390  10.584   2.990 -0.6860 -0.6729 -0.1518
  393MOL0     C52947   6.440  10.620   2.867 -0.1039 -0.6860  0.3022
  393MOL0     C52948   6.518  10.727   2.852 -0.6056  0.0388  0.1447
  393MOL0     C52949   6.559  10.763   2.714 -0.4267 -0.6129 -0.2078
  393MOL0     O52950   6.498  10.709   2.603  0.4338  0.2847 -0.6878
  393MOL0     C52951   6.546  10.742   2.481 -0.1787 -0.9458 -0.8708
  393MOL0     C52952   6.484  10.853   2.403  0.1022  0.4728  0.0766
  393MOL0     C52953   6.533  10.896   2.282  0.8940 -0.2591 -0.4440
  393MOL0     C52954   6.630  10.832   2.229 -0.5900 -0.3706  0.8258
  393MOL0     O52955   6.684  10.864   2.117 -0.5665 -0.7618  0.1117
  393MOL0     C52956   6.600  10.864   2.002 -0.7878  0.9970 -0.3526
  393MOL0     C52957   6.563  10.724   1.949 -0.1680 -0.1842 -0.3599
  393MOL0     C52958   6.447  10.713   1.862  0.3824 -0.3524  1.1643
  393MOL0     C52959   6.307  10.731   1.932  0.0997 -0.4067  0.4339
  393MOL0     C52960   6.189  10.716   1.822 -0.9221 -0.7904 -0.1107
  393MOL0     C52961   6.170  10.576   1.762 -1.3771 -0.0702  0.0841
  393MOL0     C52962   6.045  10.577   1.662  0.2398  0.3188  0.3597
  393MOL0     C52963   6.000  10.447   1.612  0.0862  0.3803 -0.2393
  393MOL0    Cl52964   6.129  10.369   1.520 -0.1345  0.4321  0.3836
  393MOL0     C52965   6.695  10.725   2.296 -0.4169  0.3383  0.4090
  393MOL0     C52966   6.647  10.670   2.417 -0.1953  0.1719 -0.1504
  393MOL0     O52967   6.660  10.831   2.704  0.2526  0.0111 -0.8118
  393MOL0     C52968   6.563  10.788   2.964  0.1140 -0.2281 -0.1759
  393MOL0     C52969   6.534  10.756   3.098 -0.0381  0.6612  0.0740
  393MOL0     N52970   5.942  10.615   3.598  0.3420 -0.4995 -0.7669
  393MOL0     N52971   5.920  10.629   3.729 -0.4544  0.4934 -0.3067
  393MOL0     C52972   6.794  10.806   3.616  0.7356 -0.6610  0.3134
  393MOL0     C52973   6.854  10.739   3.511  0.0072  0.5681  0.5818
  393MOL0     C52974   6.862  10.628   3.045  0.0578  0.4764 -0.7729
  393MOL0     C52975   6.853  10.649   2.912  0.2706  0.6773  0.0343
  393MOL0     C52976   6.828  10.559   2.811  0.1252  0.2012  0.0163
  393MOL0     C52977   6.789  10.433   2.844 -0.2318 -1.1158  0.3114
  393MOL0     O52978   6.761  10.328   2.761  0.0110 -0.2499  0.8704
  393MOL0     C52979   6.885  10.296   2.699 -1.0602 -0.4535  0.3512
  393MOL0     C52980   6.966  10.206   2.795  0.1239 -0.2606 -0.3580
  393MOL0     C52981   6.862  10.088   2.816 -0.1196 -1.1120  0.1038
  393MOL0     C52982   6.924   9.965   2.868 -0.5227  0.1915  0.0853
  393MOL0     C52983   7.028   9.913   2.782  0.8358 -0.0700  0.0515
  393MOL0     C52984   7.113   9.866   2.700 -0.9430 -1.0274 -1.0742
  393MOL0     C52985   6.782  10.396   2.974  0.2163 -0.3050 -0.4854
  393MOL0     C52986   6.826  10.494   3.076  0.6489  0.9311  0.9314
  393MOL0     C52987   6.803  10.439   3.217 -1.1830  0.2746 -0.3644
  393MOL0     H52988   6.792  10.961   3.272  1.1501 -1.6705  0.4125
  393MOL0     H52989   6.680  11.090   3.476 -0.9494 -0.3564 -2.0486
  393MOL0     H52990   6.631  11.192   3.694  0.1203  1.1814  4.5991
  393MOL0     H52991   6.512  11.064   3.641 -0.9107  2.9240 -1.0303
  393MOL0     H52992   6.460  11.205   3.849  0.7058 -0.8922 -1.0430
  393MOL0     H52993   6.596  11.120   3.930  1.2827  0.1824 -0.5259
  393MOL0     H52994   6.501  10.895   3.911 -1.7286 -0.2650  0.9574
  393MOL0     H52995   6.374  10.967   3.798  0.1670  1.0509  0.0987
  393MOL0     H52996   6.397  11.062   4.081 -0.2544  0.3425  0.2922
  393MOL0     H52997   6.267  11.087   3.962  1.2305  0.5027 -1.4988
  393MOL0     H52998   6.345  10.833   4.103 -1.5744 -1.5194  1.6297
  393MOL0     H52999   6.201  10.946   4.139 -1.5114  2.7202 -2.5909
  393MOL0     H53000   6.241  10.788   3.880 -0.5183 -1.5976 -0.6163
  393MOL0     H53001   6.137  10.737   4.023 -1.6404  1.7838  2.7023
  393MOL0     H53002   6.091  10.969   3.853  0.1662  1.5198  0.9415
  393MOL0     H53003   6.033  10.965   4.013  3.0370 -1.9254  3.3019
  393MOL0     H53004   5.943  10.732   3.975  3.0588 -1.4658  0.9186
  393MOL0     H53005   5.851  10.858   3.889  0.8882  0.8364 -0.3945
  393MOL0     H53006   6.066  10.914   3.650 -2.3080 -0.8384  1.9976
  393MOL0     H53007   6.015  10.652   3.355 -3.3298  2.3268 -2.6207
  393MOL0     H53008   5.980  10.818   3.386  0.4741  0.7371 -0.3206
  393MOL0     H53009   6.198  10.799   3.284 -2.2632 -0.3445  0.6849
  393MOL0     H53010   6.223  10.880   3.428 -1.2272  2.6586 -6.3576
  393MOL0     H53011   6.253  10.571   3.435  3.3975 -0.3974 -1.6681
  393MOL0     H53012   6.316  10.695   3.543 -0.7339 -0.1620  0.1181
  393MOL0     H53013   6.484  10.581   3.403 -2.1829 -0.9365 -1.5329
  393MOL0     H53014   6.477  10.750   3.348  2.4769 -1.4848 -0.1765
  393MOL0     H53015   6.307  10.514   3.004 -2.9880  2.3187  2.9722
  393MOL0     H53016   6.403  10.572   2.777 -6.2586  2.3028  0.7042
  393MOL0     H53017   6.417  10.915   2.462 -0.8649  0.5248 -1.0406
  393MOL0     H53018   6.488  10.976   2.225 -1.9176 -0.7475  0.8758
  393MOL0     H53019   6.505  10.916   2.015 -0.7320  1.5881 -2.0854
  393MOL0     H53020   6.647  10.923   1.922  1.2244  1.0309  0.7800
  393MOL0     H53021   6.645  10.664   1.906  3.3140  0.5099  4.4490
  393MOL0     H53022   6.535  10.674   2.042  2.6718  0.0237  0.6961
  393MOL0     H53023   6.446  10.786   1.780 -2.1792 -3.6562 -2.1349
  393MOL0     H53024   6.459  10.615   1.815  2.2594  0.1122  0.5963
  393MOL0     H53025   6.303  10.825   1.988 -1.9396 -1.4393  2.1683
  393MOL0     H53026   6.286  10.655   2.008 -1.1034  0.6747  1.2180
  393MOL0     H53027   6.208  10.783   1.737 -0.8980  2.8648  2.5639
  393MOL0     H53028   6.092  10.753   1.855 -2.1692 -4.6964  1.1271
  393MOL0     H53029   6.263  10.544   1.715 -1.2340  1.4478 -0.7351
  393MOL0     H53030   6.145  10.504   1.840 -0.2769  1.7160  2.1940
  393MOL0     H53031   6.080  10.632   1.575  2.2350  0.8976  1.4543
  393MOL0     H53032   5.955  10.625   1.703 -0.0435 -0.9416  1.2813
  393MOL0     H53033   5.979  10.393   1.705 -1.3119  0.7449 -0.3098
  393MOL0     H53034   5.907  10.466   1.556  1.4781  0.3147 -2.7199
  393MOL0     H53035   6.779  10.682   2.243  2.2473  4.0543  1.1586
  393MOL0     H53036   6.694  10.578   2.451 -6.6806 -4.9644 -2.9315
  393MOL0     H53037   6.624  10.876   2.948  1.1041 -1.0587 -1.1184
  393MOL0     H53038   6.586  10.805   3.180 -2.0145 -1.3404  2.7095
  393MOL0     H53039   6.796  10.762   3.716  1.3769  0.9253  1.0339
  393MOL0     H53040   6.896  10.640   3.525 -1.2305  0.2580  2.5404
  393MOL0     H53041   6.865  10.745   2.864 -0.0296  0.3846 -0.6484
  393MOL0     H53042   6.826  10.599   2.710  1.0784  0.6800  0.1748
  393MOL0     H53043   6.943  10.386   2.675 -3.6502  0.8755 -1.5657
  393MOL0     H53044   6.868  10.252   2.600  0.5396  2.4302 -1.3454
  393MOL0     H53045   6.988  10.260   2.887 -1.0923  0.9464 -0.7344
  393MOL0     H53046   7.061  10.172   2.752  0.0313 -1.6997  0.5345
  393MOL0     H53047   6.818  10.065   2.719  2.7115  1.6129 -2.0290
  393MOL0     H53048   6.791  10.112   2.895  0.5318 -2.5850  1.1761
  393MOL0     H53049   6.961   9.973   2.971 -0.3206  0.2955  0.0044
  393MOL0     H53050   6.840   9.895   2.877 -1.7460  0.9534 -3.6598
  393MOL0     H53051   7.175   9.824   2.623  2.6922  2.1072 -0.1432
  393MOL0     H53052   6.759  10.292   2.997 -2.5082  0.2948 -0.2076
  393MOL0     H53053   6.727  10.497   3.270  1.0071  3.0147  0.0244
  393MOL0     H53054   6.784  10.332   3.217 -2.1622  0.4354  0.3078
  393MOL0     H53055   6.893  10.453   3.277 -1.8884  1.4280  0.4802
  394MOL0     O53056   6.727   0.822  11.107  0.4829  0.8157  0.7324
  394MOL0     C53057   6.791   0.782  11.012 -1.2993  0.5372  0.2135
  394MOL0     O53058   6.837   0.660  10.990  0.1553 -0.0656 -0.5757
  394MOL0     C53059   6.767   0.557  11.048 -0.2320  0.1943 -0.3246
  394MOL0     C53060   6.843   0.450  11.095  1.2490 -0.5439 -0.9327
  394MOL0     C53061   6.787   0.338  11.161 -0.8041  0.6684  0.6557
  394MOL0     C53062   6.651   0.317  11.150 -0.4174 -0.3117 -0.2447
  394MOL0     O53063   6.580   0.209  11.193  0.3438 -0.5416 -0.4471
  394MOL0     C53064   6.647   0.086  11.232 -0.7398 -0.6930  0.1133
  394MOL0     C53065   6.554  -0.033  11.217 -0.0489  0.1721  0.4330
  394MOL0     C53066   6.525  -0.052  11.066 -0.3199  0.8932  0.1616
  394MOL0     C53067   6.459  -0.193  11.047 -0.3539  0.1393  1.0100
  394MOL0     C53068   6.312  -0.197  11.105 -0.5492 -0.2694  0.1617
  394MOL0     C53069   6.257  -0.332  11.081  0.0945 -0.0193  0.1268
  394MOL0     C53070   6.206  -0.357  10.936 -0.3786  0.1476 -1.2657
  394MOL0     C53071   6.069  -0.312  10.908  0.2191  0.2327  0.0204
  394MOL0     N53072   5.967  -0.377  10.993 -0.2136  0.4188 -0.1243
  394MOL0     C53073   5.873  -0.304  11.064  0.2088 -0.2690  0.0154
  394MOL0     C53074   5.808  -0.408  11.132  0.1792 -0.4990  0.0176
  394MOL0     C53075   5.682  -0.381  11.207 -0.5837 -0.0563 -0.1444
  394MOL0     C53076   5.569  -0.405  11.104 -0.5646  0.3502  0.7319
  394MOL0     C53077   5.564  -0.307  10.978 -0.9416  0.0494 -0.1360
  394MOL0     C53078   5.562  -0.156  11.016  0.1148  0.4853  0.0811
  394MOL0     O53079   5.547  -0.074  10.906 -0.3440 -0.7333  0.3174
  394MOL0     C53080   5.422  -0.020  10.865 -0.0630  0.6303 -1.1089
  394MOL0     C53081   5.401   0.013  10.736  0.5440 -0.7064  0.1130
  394MOL0     C53082   5.287   0.077  10.689  0.4951  0.9392 -0.1242
  394MOL0     C53083   5.186   0.115  10.787  0.4430 -0.3899 -0.3094
  394MOL0     C53084   5.063   0.187  10.741 -0.1091 -0.9681  0.4540
  394MOL0     O53085   4.991   0.240  10.844  0.3979  0.7532 -0.5635
  394MOL0     C53086   4.891   0.319  10.816  0.4055  0.0494  0.3567
  394MOL0     C53087   4.913   0.458  10.826  0.6835 -0.7443  1.5341
  394MOL0     C53088   4.800   0.538  10.802  0.3254 -0.8927 -0.3308
  394MOL0     C53089   4.670   0.482  10.787  0.1275  0.2554  0.8828
  394MOL0     O53090   4.563   0.576  10.773  0.1034  0.2459  0.0394
  394MOL0     C53091   4.430   0.516  10.788  0.4336 -0.0085  0.0378
  394MOL0     C53092   4.330   0.627  10.816  0.5217  0.0345  1.2918
  394MOL0     C53093   4.305   0.642  10.972 -0.3003  0.8383 -0.1617
  394MOL0     C53094   4.212   0.535  11.026 -0.3567 -0.9707 -0.1039
  394MOL0     C53095   4.199   0.558  11.178  0.8563  0.4416  0.4735
  394MOL0     C53096   4.077   0.485  11.242  0.0696  0.7047 -0.1003
  394MOL0     C53097   4.039   0.348  11.181 -0.9112  1.1150  0.1302
  394MOL0     C53098   3.895   0.310  11.228  0.1811  0.0035 -0.2940
  394MOL0    Cl53099   3.834   0.164  11.143  0.3233  0.0664  0.0906
  394MOL0     C53100   4.652   0.339  10.779  0.5316  1.4123 -0.6639
  394MOL0     C53101   4.762   0.270  10.785  0.5030  0.4705 -0.8266
  394MOL0     O53102   5.050   0.212  10.620 -0.3436  1.3784  0.5005
  394MOL0     C53103   5.209   0.083  10.921  0.2545  1.0410 -0.5289
  394MOL0     C53104   5.325   0.015  10.971 -0.1535  0.0629 -0.0156
  394MOL0     N53105   5.871  -0.535  11.112 -1.3366  0.4408 -0.3262
  394MOL0     N53106   5.969  -0.517  11.023 -0.0232 -0.5246  1.2086
  394MOL0     C53107   6.578   0.427  11.106  0.1546  0.4049  0.1256
  394MOL0     C53108   6.629   0.549  11.066  0.2343  0.1570  0.0626
  394MOL0     C53109   6.865   0.889  10.933 -0.9684  0.2778  0.7284
  394MOL0     C53110   6.981   0.856  10.855 -0.4715 -0.2907  0.3874
  394MOL0     C53111   7.041   0.958  10.784  0.1451 -0.4011 -0.7858
  394MOL0     C53112   6.991   1.082  10.759 -0.6295 -0.9509 -0.2467
  394MOL0     O53113   7.037   1.178  10.675 -0.1130  0.2860  0.2257
  394MOL0     C53114   7.112   1.145  10.557  0.2974 -0.7306  0.7795
  394MOL0     C53115   7.113   1.264  10.457 -0.1564  0.9746  0.1495
  394MOL0     C53116   7.142   1.402  10.494 -0.1656 -0.6704 -0.4496
  394MOL0     C53117   7.276   1.410  10.572  0.0497 -0.4871  0.1044
  394MOL0     C53118   7.384   1.363  10.482  0.9114 -0.1149 -0.4931
  394MOL0     C53119   7.468   1.326  10.412 -0.0533 -0.1946  0.3391
  394MOL0     C53120   6.888   1.119  10.843  0.4337 -0.1100 -0.1683
  394MOL0     C53121   6.823   1.025  10.933 -0.5129  0.2386 -0.0209
  394MOL0     C53122   6.693   1.066  10.991  1.3738  0.3166  0.3574
  394MOL0     H53123   6.946   0.451  11.061  2.2641  1.4137  1.7619
  394MOL0     H53124   6.850   0.264  11.210 -0.4612  1.5311  1.5572
  394MOL0     H53125   6.742   0.063  11.182  0.6309 -1.8983  3.0203
  394MOL0     H53126   6.679   0.096  11.336 -0.2101 -1.6001  0.0521
  394MOL0     H53127   6.454  -0.019  11.261 -2.0410  2.0487 -4.0482
  394MOL0     H53128   6.599  -0.118  11.269 -1.1201 -0.4227  0.4245
  394MOL0     H53129   6.611  -0.034  11.001 -2.0194  3.1551 -1.6711
  394MOL0     H53130   6.449   0.020  11.032 -0.7165  0.6173  0.4654
  394MOL0     H53131   6.462  -0.221  10.942  2.2208  2.0795  0.4718
  394MOL0     H53132   6.515  -0.264  11.108  0.3710  0.5671  0.8540
  394MOL0     H53133   6.301  -0.177  11.212 -1.9558  0.1437 -0.0426
  394MOL0     H53134   6.246  -0.125  11.056 -0.2140 -1.6826 -2.5739
  394MOL0     H53135   6.341  -0.401  11.094  0.3492 -0.4300 -2.9125
  394MOL0     H53136   6.179  -0.353  11.155  1.8676  0.0711  2.1059
  394MOL0     H53137   6.211  -0.466  10.930  0.6340  0.2153 -1.8786
  394MOL0     H53138   6.290  -0.318  10.878  3.4833 -4.2052  0.7683
  394MOL0     H53139   6.078  -0.203  10.906  0.4309  0.2642 -3.6121
  394MOL0     H53140   6.044  -0.340  10.805 -0.3711 -1.9685  0.7032
  394MOL0     H53141   5.845  -0.200  11.067 -3.6959 -1.2044  1.6939
  394MOL0     H53142   5.681  -0.445  11.296  1.3116  2.2854  1.6896
  394MOL0     H53143   5.662  -0.279  11.242 -0.2100  1.2662 -3.4220
  394MOL0     H53144   5.586  -0.507  11.067  0.0089  1.1967 -1.4599
  394MOL0     H53145   5.469  -0.394  11.147 -0.1278  1.6494  1.4431
  394MOL0     H53146   5.470  -0.323  10.924  0.4137 -2.1826 -2.0864
  394MOL0     H53147   5.655  -0.325  10.919  1.1943  2.9325  1.9771
  394MOL0     H53148   5.652  -0.134  11.074 -1.8862  3.8309  2.2264
  394MOL0     H53149   5.485  -0.154  11.093  0.1848 -1.4046  0.2412
  394MOL0     H53150   5.471  -0.010  10.657  1.9059 -2.9906  1.8692
  394MOL0     H53151   5.282   0.100  10.583 -0.5885 -1.0464 -0.5615
  394MOL0     H53152   5.002   0.512  10.858  0.8355 -0.7866  1.1836
  394MOL0     H53153   4.805   0.647  10.800 -0.7301 -0.8300 -0.4835
  394MOL0     H53154   4.394   0.499  10.686 -1.5959  2.7277  0.2019
  394MOL0     H53155   4.422   0.434  10.860 -0.4504 -1.3251 -1.4876
  394MOL0     H53156   4.381   0.719  10.785 -0.4553 -0.4575 -2.2631
  394MOL0     H53157   4.235   0.610  10.765  0.5715 -0.4904  1.3686
  394MOL0     H53158   4.403   0.641  11.020  0.0404 -3.0330 -0.6069
  394MOL0     H53159   4.256   0.739  10.983  3.9665  3.1871  0.0954
  394MOL0     H53160   4.260   0.437  11.013 -1.1457 -1.2399 -1.0378
  394MOL0     H53161   4.119   0.537  10.969 -1.7497 -1.3676  2.0567
  394MOL0     H53162   4.174   0.662  11.203 -0.2144 -0.1104  1.8391
  394MOL0     H53163   4.299   0.533  11.213  1.7354  3.1046  0.1090
  394MOL0     H53164   4.098   0.490  11.349 -0.7530  0.5695  0.0738
  394MOL0     H53165   3.992   0.551  11.223 -1.5073 -1.8839 -3.0993
  394MOL0     H53166   4.108   0.276  11.225 -1.7151 -0.6529 -1.3860
  394MOL0     H53167   4.034   0.327  11.074 -5.1572 -1.4003  0.5872
  394MOL0     H53168   3.897   0.290  11.336  0.2726  1.9078  0.0928
  394MOL0     H53169   3.833   0.396  11.201  1.1295  1.8996  3.0068
  394MOL0     H53170   4.553   0.299  10.762 -0.5152  3.8947 -0.8357
  394MOL0     H53171   4.741   0.164  10.780  0.2454  0.4552  0.2930
  394MOL0     H53172   5.134   0.117  10.991 -0.7651  0.3851 -1.2737
  394MOL0     H53173   5.340  -0.007  11.076  0.1834 -1.7014 -0.4099
  394MOL0     H53174   6.470   0.420  11.096 -0.1863  0.9905  2.7412
  394MOL0     H53175   6.557   0.622  11.030 -2.7478 -2.6233 -0.0026
  394MOL0     H53176   7.010   0.751  10.852 -1.4997 -0.5546 -1.1612
  394MOL0     H53177   7.130   0.927  10.730  1.4354  2.4251 -0.4753
  394MOL0     H53178   7.077   1.053  10.509  0.9698 -1.1084  1.0048
  394MOL0     H53179   7.213   1.124  10.595  0.2532  0.5317  1.6642
  394MOL0     H53180   7.014   1.276  10.412  0.9290 -0.0491 -2.7776
  394MOL0     H53181   7.175   1.229  10.373 -2.6362  0.9107 -1.7558
  394MOL0     H53182   7.057   1.443  10.550  0.9384  0.2618  0.5992
  394MOL0     H53183   7.163   1.467  10.409 -1.4046  2.1415  1.2474
  394MOL0     H53184   7.299   1.510  10.611  0.3007 -0.7437  0.6167
  394MOL0     H53185   7.260   1.359  10.667 -1.3196  0.5496  0.4616
  394MOL0     H53186   7.541   1.288  10.344 -1.1017 -2.3815  0.3632
  394MOL0     H53187   6.834   1.212  10.828 -0.3917 -0.3628  1.0380
  394MOL0     H53188   6.687   1.176  10.986  1.0313  0.3455  1.1525
  394MOL0     H53189   6.604   1.026  10.941  1.4609 -2.0228  1.9606
  394MOL0     H53190   6.679   1.052  11.098 -2.3111  1.5712  0.2097
  395MOL0     O53191   0.503   8.940   0.686 -0.0472  0.4704 -0.1483
  395MOL0     C53192   0.532   9.056   0.669 -0.8822  0.3024 -1.0364
  395MOL0     O53193   0.453   9.170   0.696 -0.0293 -0.3262  0.0071
  395MOL0     C53194   0.317   9.151   0.691  0.3580 -0.4672  0.5966
  395MOL0     C53195   0.241   9.243   0.767  0.1257  0.1363 -0.6078
  395MOL0     C53196   0.104   9.243   0.764 -0.4637  0.9530  0.3074
  395MOL0     C53197   0.032   9.153   0.679 -0.0526 -0.5209 -0.3421
  395MOL0     O53198  -0.106   9.150   0.671  0.0497  0.6147  0.4593
  395MOL0     C53199  -0.160   9.267   0.613 -0.0357 -0.0312 -0.6477
  395MOL0     C53200  -0.290   9.319   0.693 -0.1417  0.3673 -0.2124
  395MOL0     C53201  -0.346   9.437   0.613  1.1980  0.5136 -0.2493
  395MOL0     C53202  -0.296   9.573   0.669  0.1259  0.1122  0.9634
  395MOL0     C53203  -0.372   9.683   0.603 -0.0068 -0.0193 -0.9834
  395MOL0     C53204  -0.362   9.831   0.652 -0.1847  0.4011  1.1032
  395MOL0     C53205  -0.489   9.909   0.612  0.1519 -0.6799 -0.0642
  395MOL0     C53206  -0.480  10.055   0.648  0.0142 -0.5720  0.3428
  395MOL0     N53207  -0.598  10.116   0.708  0.1972  0.7425 -0.6321
  395MOL0     C53208  -0.680  10.068   0.808 -0.3833  0.3632  0.3809
  395MOL0     C53209  -0.781  10.157   0.814 -0.1325 -0.6794 -0.1714
  395MOL0     C53210  -0.882  10.174   0.921  0.1560  0.5509  0.1357
  395MOL0     C53211  -0.823  10.233   1.048 -0.0762 -1.0995  0.1993
  395MOL0     C53212  -0.799  10.387   1.037 -0.0507  0.0376  1.9667
  395MOL0     C53213  -0.741  10.425   1.180 -0.2887 -0.9994  0.0222
  395MOL0     O53214  -0.845  10.405   1.283 -0.0709 -0.1506  0.8908
  395MOL0     C53215  -0.815  10.441   1.411  0.4563  0.5372 -0.7025
  395MOL0     C53216  -0.916  10.429   1.508  0.1280  0.0317  0.3585
  395MOL0     C53217  -0.887  10.456   1.644 -0.5816 -0.8524 -0.0248
  395MOL0     C53218  -0.762  10.507   1.685  0.4969  0.0842  0.1982
  395MOL0     C53219  -0.749  10.559   1.818 -1.1258  0.8359  0.2756
  395MOL0     O53220  -0.839  10.496   1.906  0.0617 -0.0776  0.4749
  395MOL0     C53221  -0.841  10.504   2.043  0.4399 -0.0620  0.0926
  395MOL0     C53222  -0.903  10.398   2.109 -1.1625 -1.0145  0.0283
  395MOL0     C53223  -0.919  10.404   2.253  0.5526  0.2489 -0.0205
  395MOL0     C53224  -0.866  10.514   2.326  1.3975 -0.0709  0.4812
  395MOL0     O53225  -0.847  10.504   2.461 -0.0194  0.1048 -0.0026
  395MOL0     C53226  -0.936  10.578   2.554  0.4669  0.0633  0.3524
  395MOL0     C53227  -1.055  10.503   2.607  0.0286  0.5567  0.8467
  395MOL0     C53228  -1.145  10.446   2.505  0.1240  0.2242  0.3425
  395MOL0     C53229  -1.278  10.420   2.576 -0.1872  0.4321 -0.2768
  395MOL0     C53230  -1.381  10.366   2.479 -0.5512 -0.5226  0.7537
  395MOL0     C53231  -1.423  10.457   2.363 -0.7848 -0.0839 -0.4109
  395MOL0     C53232  -1.540  10.395   2.278  0.3970 -0.3772 -0.5729
  395MOL0     C53233  -1.664  10.356   2.351 -2.0185 -0.4052  0.3623
  395MOL0    Cl53234  -1.804  10.357   2.236 -0.4954  0.1785 -0.3030
  395MOL0     C53235  -0.817  10.622   2.255 -0.4072 -0.1119 -0.3001
  395MOL0     C53236  -0.808  10.623   2.118 -0.1550 -0.1983 -0.4921
  395MOL0     O53237  -0.655  10.635   1.853 -0.0497  0.3454  0.1547
  395MOL0     C53238  -0.661  10.525   1.591  0.5208  0.2642  0.2597
  395MOL0     C53239  -0.692  10.490   1.460  0.0302 -0.1329  0.4077
  395MOL0     N53240  -0.762  10.253   0.709 -0.9147  1.0288 -0.5134
  395MOL0     N53241  -0.654  10.219   0.645 -0.0073 -0.9190  0.4275
  395MOL0     C53242   0.103   9.064   0.611 -0.7479  0.2921 -0.4398
  395MOL0     C53243   0.238   9.064   0.610 -0.5135  0.3053  0.6482
  395MOL0     C53244   0.664   9.087   0.601  0.4429  0.7494 -0.3316
  395MOL0     C53245   0.675   9.196   0.521  0.0068 -1.0115 -0.0348
  395MOL0     C53246   0.792   9.223   0.440  0.4509 -0.2516  0.3824
  395MOL0     C53247   0.895   9.143   0.445  0.5198 -0.3309 -0.6179
  395MOL0     O53248   0.998   9.172   0.363 -0.2087  0.2049  0.4264
  395MOL0     C53249   1.111   9.083   0.349  0.4197 -0.0946 -0.0808
  395MOL0     C53250   1.093   8.969   0.235  0.0018 -0.3567  0.1162
  395MOL0     C53251   1.210   8.864   0.224  0.1055  0.6128 -0.5152
  395MOL0     C53252   1.233   8.800   0.088  0.6423  0.3260  0.4247
  395MOL0     C53253   1.300   8.893  -0.003  0.7398  0.2448 -0.2680
  395MOL0     C53254   1.360   8.965  -0.083  0.0972  0.5031 -0.2645
  395MOL0     C53255   0.900   9.042   0.535 -0.4283  0.4208  0.2800
  395MOL0     C53256   0.788   9.007   0.610  0.8183  0.8154 -0.1602
  395MOL0     C53257   0.803   8.891   0.704  0.3324 -0.2495  0.4524
  395MOL0     H53258   0.293   9.306   0.838  0.5291 -0.2278 -0.5737
  395MOL0     H53259   0.052   9.321   0.820 -0.9135  1.1544 -0.3747
  395MOL0     H53260  -0.093   9.352   0.632 -1.1718  0.3122  2.3439
  395MOL0     H53261  -0.184   9.256   0.507 -0.1239  2.9057 -1.0194
  395MOL0     H53262  -0.256   9.347   0.794 -1.9573 -2.5314  1.3506
  395MOL0     H53263  -0.357   9.233   0.697 -0.8051  0.7430 -2.1629
  395MOL0     H53264  -0.454   9.423   0.615  1.2649 -0.0896 -0.5827
  395MOL0     H53265  -0.322   9.433   0.507  0.9601  3.0194 -0.4458
  395MOL0     H53266  -0.311   9.574   0.777 -2.4899  0.5737  0.6605
  395MOL0     H53267  -0.189   9.574   0.646 -0.3533  0.5543 -1.5562
  395MOL0     H53268  -0.348   9.691   0.496 -1.3294  2.9406 -1.1458
  395MOL0     H53269  -0.473   9.643   0.613  0.4185 -0.7968  0.4488
  395MOL0     H53270  -0.353   9.837   0.761  0.1960  0.9859  1.0426
  395MOL0     H53271  -0.268   9.872   0.617 -1.2001  0.7665 -1.3720
  395MOL0     H53272  -0.577   9.865   0.660 -1.6045  0.9931 -1.5565
  395MOL0     H53273  -0.513   9.898   0.505 -0.1549 -4.2389  0.2664
  395MOL0     H53274  -0.400  10.071   0.721 -1.0768  0.2015  1.4175
  395MOL0     H53275  -0.457  10.109   0.556 -3.3706  1.5533  0.5528
  395MOL0     H53276  -0.660   9.986   0.875  0.4758 -0.6076 -1.0013
  395MOL0     H53277  -0.961  10.236   0.877 -0.2226 -0.5447 -0.7575
  395MOL0     H53278  -0.945  10.089   0.948 -3.6874  4.1013  3.8596
  395MOL0     H53279  -0.869  10.199   1.142  0.0368 -3.5478 -0.5650
  395MOL0     H53280  -0.724  10.188   1.053  0.8189  0.6155 -0.9606
  395MOL0     H53281  -0.889  10.447   1.019  0.0926  0.3455  2.2773
  395MOL0     H53282  -0.714  10.396   0.969  0.4443 -0.3549  2.5247
  395MOL0     H53283  -0.722  10.532   1.180  5.8907 -1.7022  2.0894
  395MOL0     H53284  -0.655  10.370   1.218  0.6462  1.8517  2.3703
  395MOL0     H53285  -1.015  10.396   1.477  1.0483 -0.5702 -2.1951
  395MOL0     H53286  -0.973  10.455   1.711 -2.0076  1.5403 -1.6454
  395MOL0     H53287  -0.945  10.311   2.061 -0.5643 -0.8947 -0.7344
  395MOL0     H53288  -0.963  10.321   2.306  2.1170  0.4860  1.7682
  395MOL0     H53289  -0.887  10.589   2.651 -2.3915 -2.8107  2.3337
  395MOL0     H53290  -0.971  10.670   2.507 -1.9759 -0.9174  0.0976
  395MOL0     H53291  -1.012  10.417   2.659  0.9109  1.1090  1.0557
  395MOL0     H53292  -1.107  10.577   2.669 -1.4376  1.6157 -1.5321
  395MOL0     H53293  -1.152  10.517   2.422 -1.0891  3.4228  2.9697
  395MOL0     H53294  -1.105  10.352   2.464  2.7131  1.8973 -1.2981
  395MOL0     H53295  -1.314  10.509   2.628  0.3175  1.3675 -1.4658
  395MOL0     H53296  -1.261  10.347   2.655 -1.9383 -0.0019 -0.2708
  395MOL0     H53297  -1.473  10.342   2.532 -1.1896 -2.1937 -0.9980
  395MOL0     H53298  -1.342  10.269   2.446  0.7604  0.0203  0.6344
  395MOL0     H53299  -1.468  10.544   2.411  1.0525  0.0323  1.2114
  395MOL0     H53300  -1.343  10.478   2.292  0.2224 -0.1506  0.6735
  395MOL0     H53301  -1.509  10.312   2.213 -0.1444 -1.5049  0.5662
  395MOL0     H53302  -1.578  10.469   2.207 -0.8701  0.9648  1.4294
  395MOL0     H53303  -1.653  10.250   2.375  0.1662 -0.1495  0.7447
  395MOL0     H53304  -1.689  10.418   2.439  0.8182 -0.6402  1.4402
  395MOL0     H53305  -0.779  10.709   2.307 -1.0860  1.4736 -2.3347
  395MOL0     H53306  -0.769  10.708   2.064  0.5733 -0.1802  0.0518
  395MOL0     H53307  -0.558  10.548   1.618  0.8963  0.2138 -1.0238
  395MOL0     H53308  -0.598  10.499   1.406 -0.3368 -2.1642 -0.6769
  395MOL0     H53309   0.059   8.980   0.558  1.2883 -0.9443 -0.2954
  395MOL0     H53310   0.291   8.994   0.546  0.1410  2.6789 -1.5977
  395MOL0     H53311   0.587   9.259   0.517 -1.4218 -2.9692 -2.4515
  395MOL0     H53312   0.790   9.303   0.366  1.1252  0.0802  0.7169
  395MOL0     H53313   1.140   9.036   0.443  2.4234 -0.5364 -0.8595
  395MOL0     H53314   1.197   9.147   0.328  0.7275  0.2493  2.0297
  395MOL0     H53315   1.074   9.021   0.141  1.3169  0.5756  0.3367
  395MOL0     H53316   1.002   8.918   0.268 -0.1625  1.0008  1.9451
  395MOL0     H53317   1.202   8.787   0.301  3.8586 -0.2331 -0.7768
  395MOL0     H53318   1.282   8.937   0.263 -0.1715  0.3393  0.5376
  395MOL0     H53319   1.295   8.711   0.093  1.1312  0.6164 -0.3003
  395MOL0     H53320   1.132   8.775   0.055  0.0457 -0.3639  2.6522
  395MOL0     H53321   1.415   9.018  -0.159 -1.1251  1.1702 -0.7118
  395MOL0     H53322   0.984   8.974   0.542  1.1237  2.4610  2.9989
  395MOL0     H53323   0.746   8.907   0.797  1.5755 -1.9480  1.5624
  395MOL0     H53324   0.769   8.806   0.645  2.2311  0.0312 -1.1444
  395MOL0     H53325   0.908   8.891   0.736  0.4312  1.6381  0.2561
  396MOL0     O53326   6.039   8.720   7.827  1.5602 -0.4090 -0.6417
  396MOL0     C53327   5.965   8.788   7.890 -0.6788  0.5843  0.3957
  396MOL0     O53328   5.992   8.914   7.944 -0.1528  0.3631 -0.0134
  396MOL0     C53329   6.116   8.969   7.940  0.1959 -0.1504  0.7692
  396MOL0     C53330   6.218   8.943   7.852  0.9698  0.8881 -0.0395
  396MOL0     C53331   6.336   9.016   7.850 -0.4251  0.2092 -0.2485
  396MOL0     C53332   6.359   9.128   7.938  0.9480  0.1543 -0.2284
  396MOL0     O53333   6.468   9.221   7.946 -0.7292 -0.0928 -0.4758
  396MOL0     C53334   6.580   9.197   7.859  0.1804  1.0858  0.3615
  396MOL0     C53335   6.714   9.266   7.894  0.4285  0.3095 -0.4370
  396MOL0     C53336   6.765   9.246   8.035  0.7435  0.0863 -0.6247
  396MOL0     C53337   6.916   9.268   8.064 -0.5535  0.5367 -0.2171
  396MOL0     C53338   6.929   9.262   8.206 -0.0406  0.1181 -0.2297
  396MOL0     C53339   6.941   9.116   8.262 -0.1193 -0.3538 -0.3562
  396MOL0     C53340   7.088   9.064   8.246 -0.1090  0.1338  0.5176
  396MOL0     C53341   7.092   8.931   8.323 -0.6221 -0.3503 -1.1500
  396MOL0     N53342   7.228   8.916   8.390 -0.0992 -0.1712  0.2036
  396MOL0     C53343   7.265   8.890   8.522  0.0788 -0.0415 -0.7025
  396MOL0     C53344   7.397   8.867   8.512  0.5777  0.3089 -0.1659
  396MOL0     C53345   7.488   8.844   8.631  0.9701 -0.2970  0.0580
  396MOL0     C53346   7.601   8.753   8.577 -0.3159  0.2054 -0.0733
  396MOL0     C53347   7.679   8.706   8.702  0.4897 -1.9913  0.4407
  396MOL0     C53348   7.776   8.593   8.660 -0.1476 -0.7547  0.5986
  396MOL0     O53349   7.857   8.536   8.760  0.6812  0.3944  0.2570
  396MOL0     C53350   7.973   8.597   8.793 -0.2081 -0.5129  0.8802
  396MOL0     C53351   7.984   8.715   8.868 -0.1137  0.2482  0.4297
  396MOL0     C53352   8.105   8.774   8.902 -0.4519 -0.8131 -0.5119
  396MOL0     C53353   8.227   8.712   8.879  0.9391 -1.1231  0.5660
  396MOL0     C53354   8.349   8.771   8.941 -0.4437  0.2188 -0.9854
  396MOL0     O53355   8.463   8.685   8.943  0.1314 -0.5218  0.3227
  396MOL0     C53356   8.582   8.735   8.976 -0.5881  0.1007  0.3702
  396MOL0     C53357   8.645   8.840   8.905  0.1438  0.8684  1.4117
  396MOL0     C53358   8.782   8.870   8.923  0.3810 -0.1712  0.0939
  396MOL0     C53359   8.863   8.795   9.007  0.1081 -0.2687 -1.1724
  396MOL0     O53360   8.991   8.827   9.041 -0.9646  0.3522  0.0324
  396MOL0     C53361   9.055   8.946   9.004 -0.4350 -0.5402  0.5615
  396MOL0     C53362   9.201   8.968   9.054 -0.0968 -1.0779  0.6110
  396MOL0     C53363   9.288   8.847   9.006  0.1040  0.1364 -0.2472
  396MOL0     C53364   9.283   8.800   8.859  0.4313 -0.1768 -1.0370
  396MOL0     C53365   9.374   8.685   8.844  0.8673 -0.0734  0.3696
  396MOL0     C53366   9.399   8.660   8.699 -1.0973  0.2102 -0.0975
  396MOL0     C53367   9.499   8.538   8.689 -0.5480  0.0387 -1.0774
  396MOL0     C53368   9.566   8.512   8.548  0.3464 -0.5808 -0.4723
  396MOL0    Cl53369   9.645   8.663   8.499 -0.2570  0.1041  0.6593
  396MOL0     C53370   8.804   8.684   9.073  0.7777  1.1910  0.6504
  396MOL0     C53371   8.666   8.654   9.050 -0.4126 -0.1540 -0.0381
  396MOL0     O53372   8.342   8.885   8.989  0.1122 -0.1938  0.1480
  396MOL0     C53373   8.225   8.591   8.807  0.2536 -0.2060 -0.3602
  396MOL0     C53374   8.101   8.535   8.771  1.0037  0.0304 -0.2583
  396MOL0     N53375   7.444   8.883   8.386  0.2663  0.1517  0.7544
  396MOL0     N53376   7.346   8.914   8.320  0.7577 -0.0764 -0.3667
  396MOL0     C53377   6.257   9.150   8.029  0.3613 -0.6481  0.3207
  396MOL0     C53378   6.137   9.078   8.030  0.3707 -0.9122 -0.1708
  396MOL0     C53379   5.823   8.742   7.907  0.1953 -0.4461 -0.9960
  396MOL0     C53380   5.718   8.835   7.919 -0.0477 -0.1233 -0.3473
  396MOL0     C53381   5.581   8.811   7.952 -1.1060  1.2515  0.5937
  396MOL0     C53382   5.540   8.674   7.969  0.1318  0.6929  0.2187
  396MOL0     O53383   5.410   8.642   7.994 -0.1955  0.9625  0.3772
  396MOL0     C53384   5.376   8.539   8.092  0.2961  0.1209  1.2478
  396MOL0     C53385   5.235   8.557   8.132 -0.3518 -0.7286 -0.0077
  396MOL0     C53386   5.220   8.668   8.242  0.1682  0.2057 -0.4326
  396MOL0     C53387   5.071   8.665   8.293  0.5902  0.1953 -0.7710
  396MOL0     C53388   5.047   8.756   8.403  0.4139 -0.6842 -0.5119
  396MOL0     C53389   4.998   8.824   8.492  0.2396  0.1320  0.6662
  396MOL0     C53390   5.645   8.575   7.960 -1.0100 -0.2383 -0.3938
  396MOL0     C53391   5.789   8.609   7.937  0.8665  0.2286  0.9492
  396MOL0     C53392   5.891   8.501   7.962 -0.2536  0.1972 -0.2882
  396MOL0     H53393   6.207   8.861   7.782 -1.5984 -1.2505  2.5854
  396MOL0     H53394   6.399   8.991   7.765 -2.1448 -0.8898 -1.2574
  396MOL0     H53395   6.591   9.089   7.849 -3.4406  0.4817  1.3268
  396MOL0     H53396   6.548   9.212   7.756  0.3879 -0.4046  0.0563
  396MOL0     H53397   6.700   9.371   7.867 -0.8520 -0.5561 -3.5576
  396MOL0     H53398   6.800   9.234   7.834  1.5446  1.0836  0.6973
  396MOL0     H53399   6.749   9.147   8.078  0.5735  0.6275  0.5985
  396MOL0     H53400   6.712   9.322   8.094 -0.4177  0.4006 -2.0097
  396MOL0     H53401   6.982   9.199   8.011  2.3508  0.6927  2.8520
  396MOL0     H53402   6.962   9.362   8.033  4.3647 -1.1183  1.1895
  396MOL0     H53403   7.024   9.312   8.227 -0.0347  0.3964 -0.8968
  396MOL0     H53404   6.846   9.318   8.250 -1.6114 -0.4825 -2.2359
  396MOL0     H53405   6.902   9.120   8.364 -3.1176  0.3144 -1.4467
  396MOL0     H53406   6.870   9.056   8.205 -2.4396  2.1013 -0.2486
  396MOL0     H53407   7.144   9.137   8.306 -1.5933  0.5345  1.4730
  396MOL0     H53408   7.117   9.054   8.141 -1.8329 -1.6314  0.1435
  396MOL0     H53409   7.010   8.917   8.394  0.5150 -2.4468 -0.1401
  396MOL0     H53410   7.088   8.856   8.243  1.7082  0.4721 -2.1198
  396MOL0     H53411   7.199   8.871   8.606 -2.0451  2.2985 -1.7240
  396MOL0     H53412   7.527   8.940   8.665 -1.1406  0.2051  1.2411
  396MOL0     H53413   7.427   8.797   8.709  2.6291  2.0162  2.9038
  396MOL0     H53414   7.556   8.662   8.536  1.7824  0.2491 -2.7183
  396MOL0     H53415   7.669   8.797   8.504  0.0764  1.2755  0.9098
  396MOL0     H53416   7.608   8.674   8.779 -1.5099  0.8273 -0.0695
  396MOL0     H53417   7.727   8.790   8.754 -1.7002 -0.8581  0.7362
  396MOL0     H53418   7.838   8.629   8.577 -1.1866 -1.6058 -0.5842
  396MOL0     H53419   7.726   8.504   8.619 -2.8652 -0.2951  2.6746
  396MOL0     H53420   7.903   8.782   8.894  2.3594  5.0794 -2.6877
  396MOL0     H53421   8.104   8.861   8.966  0.8298 -0.5358 -0.8461
  396MOL0     H53422   8.590   8.910   8.843  1.0885  1.0108  0.7069
  396MOL0     H53423   8.835   8.950   8.872  2.2745  0.7526  3.2481
  396MOL0     H53424   9.043   8.973   8.899 -1.4304  0.3804  0.9041
  396MOL0     H53425   9.004   9.023   9.062  1.7960  1.3959  0.1243
  396MOL0     H53426   9.239   9.068   9.030 -2.2419 -0.7448 -1.7954
  396MOL0     H53427   9.201   8.974   9.163  0.9253 -1.4557  0.6381
  396MOL0     H53428   9.387   8.865   9.049 -0.7034  2.1639  0.8968
  396MOL0     H53429   9.233   8.768   9.058  1.3982 -1.1782 -0.8068
  396MOL0     H53430   9.314   8.886   8.799 -2.6635  1.3564 -0.6848
  396MOL0     H53431   9.180   8.769   8.837 -0.1953 -0.0007  1.3750
  396MOL0     H53432   9.325   8.599   8.891 -1.1804  1.2635  0.7891
  396MOL0     H53433   9.466   8.714   8.896 -0.1309  2.2628  0.9433
  396MOL0     H53434   9.302   8.643   8.652 -0.7488  1.6742 -1.4361
  396MOL0     H53435   9.448   8.745   8.649  0.6474  0.1316  1.3746
  396MOL0     H53436   9.452   8.450   8.733 -0.7328  0.8181  0.3373
  396MOL0     H53437   9.585   8.573   8.747 -1.1614 -1.1360  0.6244
  396MOL0     H53438   9.623   8.420   8.563  0.7070 -0.0066  2.1087
  396MOL0     H53439   9.497   8.497   8.464 -0.3376  0.4755 -0.1174
  396MOL0     H53440   8.862   8.620   9.138 -0.1989 -2.0396 -1.4334
  396MOL0     H53441   8.629   8.557   9.082  1.3272 -1.8676 -2.7571
  396MOL0     H53442   8.318   8.558   8.762  1.5755  1.9668  0.6366
  396MOL0     H53443   8.079   8.441   8.721 -1.3611  0.4556 -0.1478
  396MOL0     H53444   6.259   9.233   8.099 -0.6923  0.1421 -0.5561
  396MOL0     H53445   6.051   9.107   8.091 -0.0634  1.8657 -1.9206
  396MOL0     H53446   5.741   8.938   7.892 -0.7194 -0.3733 -1.9667
  396MOL0     H53447   5.503   8.887   7.961 -3.2346 -0.4852 -1.6540
  396MOL0     H53448   5.448   8.541   8.175  0.6738  1.7144  0.9087
  396MOL0     H53449   5.383   8.441   8.043  1.1971  2.0205 -2.8259
  396MOL0     H53450   5.203   8.466   8.184 -0.6169  0.3013  1.6800
  396MOL0     H53451   5.178   8.563   8.039 -0.5751 -2.1997  0.0128
  396MOL0     H53452   5.245   8.761   8.191 -1.5428  1.6402  1.1948
  396MOL0     H53453   5.276   8.639   8.332  2.3723 -1.4563 -2.2184
  396MOL0     H53454   4.996   8.702   8.222 -1.2793  1.2048  1.6040
  396MOL0     H53455   5.047   8.563   8.325  0.1500  1.0276  1.7334
  396MOL0     H53456   4.960   8.880   8.574  2.2933 -0.7339  2.2952
  396MOL0     H53457   5.621   8.471   7.979 -0.3487 -0.2860  0.2530
  396MOL0     H53458   5.852   8.406   7.925 -0.5987  1.1373 -2.4706
  396MOL0     H53459   5.994   8.519   7.932  1.4988 -3.7579  2.5157
  396MOL0     H53460   5.895   8.483   8.070 -1.2206  0.7856 -0.1362
  397MOL0     O53461   9.586  10.488  10.924  0.8806 -0.8208  0.4095
  397MOL0     C53462   9.546  10.381  10.972 -0.4702  0.2535  1.1776
  397MOL0     O53463   9.581  10.332  11.088  0.6952  0.7112 -0.1726
  397MOL0     C53464   9.677  10.405  11.159  0.8032  0.9229  0.2071
  397MOL0     C53465   9.641  10.490  11.262  0.7927  0.0792 -0.1351
  397MOL0     C53466   9.732  10.561  11.336 -0.4874  0.5613  0.9906
  397MOL0     C53467   9.869  10.539  11.303  0.1447 -0.3240 -1.1781
  397MOL0     O53468   9.967  10.610  11.383  0.8931 -0.1615  0.9619
  397MOL0     C53469  10.053  10.534  11.468 -0.1386 -0.1517  0.9281
  397MOL0     C53470  10.102  10.624  11.584  0.2293 -0.5028 -0.9131
  397MOL0     C53471  10.145  10.532  11.697  0.4831 -1.3349  0.0781
  397MOL0     C53472  10.245  10.603  11.801  0.1539  0.0544  0.3660
  397MOL0     C53473  10.308  10.494  11.897 -0.4597  0.2213  0.6997
  397MOL0     C53474  10.204  10.414  11.972 -0.5384  0.2744 -0.0593
  397MOL0     C53475  10.261  10.322  12.075  0.2217  1.0925 -0.6322
  397MOL0     C53476  10.160  10.222  12.139 -1.0472 -0.5233  0.2060
  397MOL0     N53477  10.199  10.171  12.272 -0.6582  0.0498 -0.4218
  397MOL0     C53478  10.193  10.260  12.378 -0.0939 -0.5351  0.3462
  397MOL0     C53479  10.239  10.187  12.481 -1.2887 -0.1230 -0.1867
  397MOL0     C53480  10.255  10.239  12.626 -0.1954  1.4779  1.2308
  397MOL0     C53481  10.216  10.124  12.728  0.0107 -0.7310  1.3291
  397MOL0     C53482  10.252  10.165  12.871  0.6085 -0.1948  0.3585
  397MOL0     C53483  10.265  10.054  12.974 -0.5015 -0.0668 -0.7509
  397MOL0     O53484  10.324  10.103  13.093  0.6843 -0.0498 -0.0720
  397MOL0     C53485  10.300  10.027  13.200 -0.5746 -0.2993 -0.2034
  397MOL0     C53486  10.252   9.894  13.196  0.8829 -0.3090 -0.5228
  397MOL0     C53487  10.231   9.821  13.321 -0.8088 -0.0145 -0.0365
  397MOL0     C53488  10.262   9.879  13.445 -0.0140  0.1158 -0.1539
  397MOL0     C53489  10.260   9.791  13.568  0.1677  0.9524  0.4016
  397MOL0     O53490  10.331   9.825  13.677  0.2107  0.2721 -0.2190
  397MOL0     C53491  10.341   9.750  13.787  0.8094  0.2512  0.0725
  397MOL0     C53492  10.245   9.664  13.835 -0.0690 -0.1687  0.8708
  397MOL0     C53493  10.278   9.580  13.942  0.4147  0.9041 -0.6922
  397MOL0     C53494  10.402   9.575  14.000  0.1747 -0.3441  0.9915
  397MOL0     O53495  10.412   9.495  14.113  0.5737 -0.0255 -0.2071
  397MOL0     C53496  10.535   9.487  14.184 -0.1247 -1.0723  0.1784
  397MOL0     C53497  10.509   9.423  14.327 -0.0939 -0.4527 -0.0995
  397MOL0     C53498  10.426   9.515  14.411  0.2764  0.5025  0.1706
  397MOL0     C53499  10.421   9.481  14.573 -0.7549  0.2339  0.5578
  397MOL0     C53500  10.312   9.567  14.645  0.5049  0.3275 -0.1168
  397MOL0     C53501  10.334   9.562  14.792  0.0468  0.4366  0.6612
  397MOL0     C53502  10.237   9.658  14.864  1.2166 -0.6744  0.2298
  397MOL0     C53503  10.089   9.633  14.858  0.0789  0.1424 -0.1766
  397MOL0    Cl53504  10.029   9.676  14.692  0.3216  0.2933 -0.5546
  397MOL0     C53505  10.507   9.653  13.943  0.7666 -0.0376  0.5749
  397MOL0     C53506  10.466   9.741  13.841  0.6213 -0.0116 -0.2156
  397MOL0     O53507  10.211   9.676  13.546  0.2482 -0.6259 -0.3241
  397MOL0     C53508  10.314  10.006  13.440 -1.0726  0.1606 -0.0420
  397MOL0     C53509  10.334  10.078  13.328  0.5718  0.7452  0.1901
  397MOL0     N53510  10.268  10.059  12.439  0.6324  0.6748  0.1852
  397MOL0     N53511  10.257  10.055  12.309  0.2706 -0.2950 -0.0309
  397MOL0     C53512   9.910  10.448  11.202  0.2392 -0.0445  0.3045
  397MOL0     C53513   9.810  10.381  11.129 -0.0228  0.1922  0.2025
  397MOL0     C53514   9.467  10.293  10.877 -0.1749 -0.0382 -0.8725
  397MOL0     C53515   9.499  10.158  10.875 -0.1728 -0.5658  1.2288
  397MOL0     C53516   9.428  10.073  10.790  0.8921  1.0664  0.2346
  397MOL0     C53517   9.325  10.118  10.715  1.0514 -0.4566 -0.1879
  397MOL0     O53518   9.250  10.025  10.646 -0.1703 -0.4126  0.4990
  397MOL0     C53519   9.122  10.072  10.596  0.8359  1.1694  0.3627
  397MOL0     C53520   9.051   9.948  10.523 -0.6483 -0.2427  0.5939
  397MOL0     C53521   8.910   9.983  10.479 -0.6856 -0.4227 -0.0291
  397MOL0     C53522   8.902  10.060  10.347 -0.3470 -0.2725  0.2746
  397MOL0     C53523   8.974  10.009  10.231 -0.6514 -0.4586  1.4750
  397MOL0     C53524   9.033   9.961  10.129  0.8347  0.1281 -0.1534
  397MOL0     C53525   9.300  10.260  10.708 -0.3748  0.1463 -1.1042
  397MOL0     C53526   9.368  10.343  10.793 -1.3292 -0.3537  1.2371
  397MOL0     C53527   9.318  10.489  10.797  1.0052  0.1804  0.1631
  397MOL0     H53528   9.535  10.506  11.279  0.1837 -3.1314 -0.2693
  397MOL0     H53529   9.718  10.627  11.421  1.1472  0.2074  1.5790
  397MOL0     H53530  10.005  10.445  11.510 -2.1313 -0.6950 -2.1759
  397MOL0     H53531  10.132  10.501  11.401 -0.7190  0.9498 -0.3539
  397MOL0     H53532  10.019  10.693  11.602  1.8986  1.3745 -0.0153
  397MOL0     H53533  10.186  10.690  11.558  1.2575 -0.4015  2.2128
  397MOL0     H53534  10.192  10.441  11.659  1.5900 -1.3495  1.3949
  397MOL0     H53535  10.054  10.492  11.743  0.6951 -1.9066  0.0023
  397MOL0     H53536  10.319  10.657  11.742  0.7904 -0.8004  0.3663
  397MOL0     H53537  10.175  10.672  11.850  0.1072  0.7104 -0.6120
  397MOL0     H53538  10.376  10.439  11.831 -0.6933  3.2472 -2.3138
  397MOL0     H53539  10.370  10.539  11.975  2.3303 -1.5112 -0.3863
  397MOL0     H53540  10.129  10.482  12.014  0.4077  0.8672  0.7007
  397MOL0     H53541  10.145  10.355  11.901 -2.3820  0.5927  1.1217
  397MOL0     H53542  10.299  10.381  12.159 -0.1304 -0.5004  0.6996
  397MOL0     H53543  10.338  10.269  12.017 -0.2589  1.3902 -1.5741
  397MOL0     H53544  10.058  10.260  12.151 -0.7242 -0.0425  1.5276
  397MOL0     H53545  10.168  10.150  12.057  1.9561  0.0915 -0.1660
  397MOL0     H53546  10.152  10.361  12.379  1.6678  0.2523  2.4818
  397MOL0     H53547  10.362  10.261  12.631  0.4172  1.0294 -4.1641
  397MOL0     H53548  10.191  10.325  12.646 -0.0697  1.1930  2.9763
  397MOL0     H53549  10.113  10.089  12.716  0.9894 -3.1363 -1.3565
  397MOL0     H53550  10.283  10.040  12.712  2.2524  1.2049 -0.2332
  397MOL0     H53551  10.177  10.240  12.901  1.3365  0.9917 -0.6564
  397MOL0     H53552  10.345  10.223  12.865  1.8525 -2.2239 -1.1529
  397MOL0     H53553  10.331   9.974  12.941 -1.8774 -0.9882 -1.3538
  397MOL0     H53554  10.159  10.036  12.994 -0.1106 -0.2412  1.3269
  397MOL0     H53555  10.232   9.839  13.104  0.2546 -0.0062 -0.5699
  397MOL0     H53556  10.192   9.720  13.313 -1.9387  0.5294 -2.2286
  397MOL0     H53557  10.144   9.646  13.800  0.7870  0.6846 -2.4199
  397MOL0     H53558  10.206   9.519  13.994  1.4645  0.9691  0.9078
  397MOL0     H53559  10.606   9.427  14.126  0.6583  1.4680 -1.7106
  397MOL0     H53560  10.579   9.586  14.200  0.4419 -1.0457 -1.3281
  397MOL0     H53561  10.467   9.322  14.330  2.9590 -1.9058 -1.4430
  397MOL0     H53562  10.604   9.385  14.367 -1.3678 -3.1283  0.6890
  397MOL0     H53563  10.472   9.614  14.406  2.8148 -0.6331 -0.1990
  397MOL0     H53564  10.331   9.513  14.357  2.0010  1.0670 -3.1613
  397MOL0     H53565  10.523   9.495  14.611 -0.4725  3.0528 -0.9593
  397MOL0     H53566  10.398   9.375  14.584 -0.2502 -0.3324 -2.9464
  397MOL0     H53567  10.218   9.532  14.601  1.2825 -0.9572 -0.8218
  397MOL0     H53568  10.326   9.671  14.615  0.5422  0.3619  0.0167
  397MOL0     H53569  10.327   9.459  14.826  2.1148 -0.0043 -0.0926
  397MOL0     H53570  10.431   9.599  14.829  0.4974  1.2234 -1.1804
  397MOL0     H53571  10.268   9.755  14.824  1.5572 -1.7032 -2.1686
  397MOL0     H53572  10.270   9.656  14.968  3.3259  2.4219 -0.2318
  397MOL0     H53573  10.067   9.529  14.884  0.2360 -1.0117 -4.0440
  397MOL0     H53574  10.039   9.700  14.929 -3.4322 -0.9376 -1.4179
  397MOL0     H53575  10.604   9.655  13.993  1.2073 -1.3659 -0.1910
  397MOL0     H53576  10.534   9.802  13.783  1.0440 -0.8267 -0.5910
  397MOL0     H53577  10.367  10.044  13.527 -1.4964  3.0061 -0.8944
  397MOL0     H53578  10.380  10.176  13.331 -1.0797  1.5366  2.4644
  397MOL0     H53579  10.014  10.428  11.176 -0.1222 -1.6988  0.0599
  397MOL0     H53580   9.846  10.318  11.048 -0.1222  0.9329 -0.4406
  397MOL0     H53581   9.570  10.118  10.947 -1.6760 -0.6209  2.7470
  397MOL0     H53582   9.460   9.969  10.792  0.1060  0.7846 -0.6632
  397MOL0     H53583   9.132  10.160  10.533 -2.4898  2.2970  1.2250
  397MOL0     H53584   9.061  10.098  10.683 -1.2147 -2.5098  0.2616
  397MOL0     H53585   9.048   9.861  10.589 -1.7715 -0.5047  0.2316
  397MOL0     H53586   9.124   9.928  10.444 -0.7513  0.2282  0.3706
  397MOL0     H53587   8.856  10.024  10.565  3.2547  0.6253  2.2082
  397MOL0     H53588   8.854   9.890  10.469 -0.3353 -0.8691  1.7366
  397MOL0     H53589   8.796  10.068  10.323 -0.2615  3.3295  0.6645
  397MOL0     H53590   8.922  10.165  10.369 -1.5017 -0.5465  3.0695
  397MOL0     H53591   9.076   9.899  10.052  1.1729  0.6186 -0.3611
  397MOL0     H53592   9.221  10.290  10.640 -0.3445 -3.3492 -2.9442
  397MOL0     H53593   9.381  10.568  10.757 -0.8707  1.7396  0.1254
  397MOL0     H53594   9.217  10.496  10.756 -0.7585 -3.2800  3.2274
  397MOL0     H53595   9.289  10.521  10.898 -0.8431  0.6361 -0.4837
  398MOL0     O53596   0.910   6.441   7.840 -0.1639 -0.7598 -0.4150
  398MOL0     C53597   0.807   6.506   7.846 -0.2724  0.0417 -0.3454
  398MOL0     O53598   0.758   6.569   7.953 -0.1399  0.2355  0.6087
  398MOL0     C53599   0.804   6.552   8.075  0.3097  0.5517  0.7117
  398MOL0     C53600   0.775   6.658   8.162 -0.5913  0.4821 -0.9862
  398MOL0     C53601   0.806   6.652   8.301 -0.0565  0.4713  0.0754
  398MOL0     C53602   0.871   6.533   8.353 -0.6206 -0.5397  0.2083
  398MOL0     O53603   0.893   6.509   8.486  0.3453  0.7179  0.5395
  398MOL0     C53604   0.892   6.622   8.570 -0.0192 -0.6259 -1.5321
  398MOL0     C53605   0.951   6.571   8.701 -0.2205 -0.1797 -0.2029
  398MOL0     C53606   1.092   6.512   8.698  0.6256  0.1102  0.8950
  398MOL0     C53607   1.160   6.469   8.834  0.6690  0.2418 -0.4873
  398MOL0     C53608   1.281   6.371   8.810  0.3333  0.4789 -0.1341
  398MOL0     C53609   1.339   6.378   8.665  0.2721  0.5982 -1.2899
  398MOL0     C53610   1.478   6.326   8.661 -0.3064  0.7199  0.4033
  398MOL0     C53611   1.513   6.194   8.727  0.0016  0.3139  0.0776
  398MOL0     N53612   1.653   6.163   8.704 -0.7508  0.0397 -0.3453
  398MOL0     C53613   1.707   6.148   8.586 -0.0613 -0.7460 -0.4089
  398MOL0     C53614   1.839   6.108   8.608  0.7797  0.2702  0.2993
  398MOL0     C53615   1.946   6.059   8.519  0.3962 -0.5673  0.0818
  398MOL0     C53616   2.040   6.163   8.475  0.0039 -0.2531 -0.6038
  398MOL0     C53617   1.996   6.246   8.354 -0.7915  0.5140  0.0101
  398MOL0     C53618   1.981   6.146   8.233 -0.1644 -0.1003 -0.3643
  398MOL0     O53619   2.084   6.057   8.200 -0.1347 -0.2426  0.1849
  398MOL0     C53620   2.091   6.014   8.069  0.2355 -1.2624 -0.8360
  398MOL0     C53621   2.204   6.050   7.988  1.2243 -0.4010  0.1818
  398MOL0     C53622   2.212   5.993   7.866  0.1486 -0.3238 -0.2878
  398MOL0     C53623   2.110   5.923   7.811  0.0444 -1.1755 -0.5857
  398MOL0     C53624   2.126   5.870   7.677  0.5127 -0.0878 -0.3858
  398MOL0     O53625   2.240   5.913   7.615 -0.7932  0.2821  0.5779
  398MOL0     C53626   2.288   5.860   7.502 -0.3128 -0.7343 -0.4086
  398MOL0     C53627   2.355   5.947   7.408 -1.4573 -0.3460 -0.2438
  398MOL0     C53628   2.406   5.901   7.294  0.1796  0.5549  0.7193
  398MOL0     C53629   2.403   5.761   7.263  0.7124  0.0472  0.0579
  398MOL0     O53630   2.460   5.722   7.143 -0.8973  0.4216 -0.8300
  398MOL0     C53631   2.412   5.602   7.084  0.0640 -0.6901  0.0414
  398MOL0     C53632   2.437   5.581   6.932  0.5771  0.5243 -0.4573
  398MOL0     C53633   2.588   5.550   6.903  0.6724  0.2978 -0.4928
  398MOL0     C53634   2.630   5.418   6.963  0.0678 -0.6495  0.5475
  398MOL0     C53635   2.766   5.355   6.916  0.8097  0.6762  0.2007
  398MOL0     C53636   2.888   5.446   6.924  0.5772  0.4022 -0.1887
  398MOL0     C53637   2.905   5.525   7.051  0.3779 -0.6860  0.0334
  398MOL0     C53638   2.997   5.646   7.014  0.4690 -0.1110 -0.6417
  398MOL0    Cl53639   3.152   5.600   6.962  0.1029 -0.0863 -0.1828
  398MOL0     C53640   2.341   5.682   7.359  0.9310  0.0708 -0.9300
  398MOL0     C53641   2.281   5.727   7.475  0.0301  0.7096  0.1920
  398MOL0     O53642   2.044   5.792   7.631  0.6420  0.2154 -0.0021
  398MOL0     C53643   1.992   5.895   7.892 -0.2343  0.0340 -0.0618
  398MOL0     C53644   1.978   5.947   8.016  0.5971  0.2355 -0.1549
  398MOL0     N53645   1.857   6.112   8.741 -0.2763  0.2020 -0.2923
  398MOL0     N53646   1.746   6.133   8.798  0.6242 -0.1974  0.5321
  398MOL0     C53647   0.898   6.424   8.263  0.0985  0.1332 -0.3027
  398MOL0     C53648   0.868   6.426   8.123 -0.2227  0.4795  0.9280
  398MOL0     C53649   0.726   6.515   7.722  0.4320 -0.9321 -0.2935
  398MOL0     C53650   0.594   6.547   7.736  0.5972  0.3973 -0.0027
  398MOL0     C53651   0.510   6.539   7.625  1.4744  0.3564  0.6051
  398MOL0     C53652   0.568   6.530   7.500 -0.6052  0.6368 -0.1593
  398MOL0     O53653   0.483   6.539   7.392 -0.1553 -0.3990 -0.3854
  398MOL0     C53654   0.477   6.675   7.342 -0.2211 -1.0570 -0.5782
  398MOL0     C53655   0.413   6.773   7.438 -0.6598  0.1304 -0.8918
  398MOL0     C53656   0.377   6.902   7.379  0.1763 -0.6490 -0.7430
  398MOL0     C53657   0.503   6.987   7.337 -0.4825  0.3435 -0.3070
  398MOL0     C53658   0.518   6.995   7.191  0.2846  0.6155  0.0394
  398MOL0     C53659   0.540   7.031   7.074  0.0785  0.0749 -0.7760
  398MOL0     C53660   0.700   6.495   7.485 -0.0313  0.6379  0.3000
  398MOL0     C53661   0.781   6.484   7.591  1.0332 -0.1225  0.0128
  398MOL0     C53662   0.921   6.433   7.560  1.0234 -0.6766 -0.0335
  398MOL0     H53663   0.721   6.748   8.135 -0.9503  1.1939  1.7907
  398MOL0     H53664   0.784   6.744   8.354 -0.9943 -0.5836  1.6086
  398MOL0     H53665   0.955   6.706   8.539  2.6461 -2.0616 -0.3494
  398MOL0     H53666   0.791   6.657   8.590 -0.9198 -3.8200  0.3183
  398MOL0     H53667   0.886   6.494   8.745 -1.3580  2.6450  3.6374
  398MOL0     H53668   0.960   6.655   8.770 -0.9323 -1.3741  1.4179
  398MOL0     H53669   1.146   6.597   8.655 -3.1367  1.3074 -1.9392
  398MOL0     H53670   1.105   6.430   8.627  2.6270  0.3698  0.8931
  398MOL0     H53671   1.182   6.553   8.900  1.0601 -0.5392  0.4049
  398MOL0     H53672   1.083   6.411   8.887  2.2862 -1.9838 -0.4088
  398MOL0     H53673   1.354   6.397   8.887  0.5393 -1.3052  0.3263
  398MOL0     H53674   1.248   6.266   8.818 -0.5137  0.7860  0.5454
  398MOL0     H53675   1.268   6.315   8.612 -3.1040  2.5528  0.5132
  398MOL0     H53676   1.332   6.480   8.626 -1.7352  0.7325 -0.7053
  398MOL0     H53677   1.546   6.405   8.695  0.3376 -0.3172  1.6211
  398MOL0     H53678   1.501   6.313   8.555 -0.8316  1.6948  0.1621
  398MOL0     H53679   1.500   6.198   8.835 -0.1155  1.0950  0.0380
  398MOL0     H53680   1.445   6.110   8.706  0.9748 -0.9284  1.6885
  398MOL0     H53681   1.654   6.153   8.492 -1.5764 -1.3351  0.3751
  398MOL0     H53682   1.999   5.991   8.586  0.4735  0.7286  1.3991
  398MOL0     H53683   1.895   6.001   8.442  1.3131 -1.0903 -0.1408
  398MOL0     H53684   2.054   6.233   8.558  0.6695 -0.1128 -0.8288
  398MOL0     H53685   2.136   6.113   8.457 -0.3487 -0.7912 -1.0122
  398MOL0     H53686   2.078   6.316   8.337 -0.8253  0.8793  1.2174
  398MOL0     H53687   1.906   6.299   8.387 -0.9042  0.9406 -0.9507
  398MOL0     H53688   1.970   6.214   8.147  0.8054  0.9320  0.2993
  398MOL0     H53689   1.889   6.089   8.249  1.5911 -2.4750  2.1746
  398MOL0     H53690   2.281   6.109   8.038  1.3248 -2.3507  2.4989
  398MOL0     H53691   2.304   6.006   7.810 -0.0895 -0.8672 -0.8150
  398MOL0     H53692   2.370   6.050   7.441 -1.5880  0.0855 -1.4936
  398MOL0     H53693   2.448   5.961   7.214 -2.1770 -2.7152 -3.3682
  398MOL0     H53694   2.436   5.507   7.134 -0.9879 -0.5301  0.8751
  398MOL0     H53695   2.304   5.612   7.070 -0.0033  1.9001  1.6962
  398MOL0     H53696   2.378   5.498   6.893  1.7245  0.6852 -2.6791
  398MOL0     H53697   2.407   5.673   6.882  1.4552  1.4796  0.7077
  398MOL0     H53698   2.603   5.545   6.794 -0.4964 -4.5657 -0.6901
  398MOL0     H53699   2.635   5.638   6.946 -2.3987  0.4804  2.9514
  398MOL0     H53700   2.551   5.344   6.943 -0.8682  0.0967  1.4259
  398MOL0     H53701   2.632   5.426   7.072  1.2603 -2.7996  0.7402
  398MOL0     H53702   2.760   5.306   6.818  1.3901 -3.0234  1.8334
  398MOL0     H53703   2.787   5.273   6.986  0.5347 -1.1024 -1.6938
  398MOL0     H53704   2.976   5.382   6.917  0.5753  0.3662  0.0984
  398MOL0     H53705   2.878   5.516   6.842 -1.4793 -0.7122 -0.9732
  398MOL0     H53706   2.955   5.451   7.115 -0.8971 -3.5070 -2.0116
  398MOL0     H53707   2.819   5.557   7.110  1.8269  1.5035  1.0815
  398MOL0     H53708   2.948   5.714   6.943 -0.6751  3.2336  2.9364
  398MOL0     H53709   3.005   5.704   7.107 -0.8866 -0.6741 -0.1462
  398MOL0     H53710   2.345   5.574   7.344 -0.7869 -0.3789  1.2225
  398MOL0     H53711   2.252   5.652   7.549  2.0820 -1.1091 -0.7247
  398MOL0     H53712   1.915   5.830   7.853 -0.0975  1.8018 -3.6926
  398MOL0     H53713   1.887   5.936   8.075 -0.8125  1.7681 -1.9307
  398MOL0     H53714   0.950   6.340   8.309 -1.2989  0.4228  1.9611
  398MOL0     H53715   0.880   6.339   8.059 -3.3214  0.8369 -0.3056
  398MOL0     H53716   0.543   6.563   7.831 -0.9545 -1.7008 -0.3915
  398MOL0     H53717   0.403   6.551   7.627  1.3450 -0.7515  1.3544
  398MOL0     H53718   0.428   6.670   7.245  2.0147  0.5124 -1.8832
  398MOL0     H53719   0.570   6.729   7.323 -1.5353  0.8037 -2.1560
  398MOL0     H53720   0.472   6.783   7.529  0.0009 -2.4507 -0.9645
  398MOL0     H53721   0.321   6.733   7.483  0.1353  1.9980  2.8034
  398MOL0     H53722   0.323   6.948   7.462  0.7762 -1.1511 -0.0569
  398MOL0     H53723   0.315   6.871   7.294  0.0802  1.2066 -1.3860
  398MOL0     H53724   0.492   7.089   7.376  3.1616  1.8963 -2.8144
  398MOL0     H53725   0.587   6.944   7.392  1.3753  4.4972  0.4550
  398MOL0     H53726   0.564   7.063   6.975  0.7339  2.0459 -0.0229
  398MOL0     H53727   0.744   6.491   7.386 -3.1483 -1.8049 -1.1740
  398MOL0     H53728   0.943   6.436   7.453 -1.0999 -0.3987 -0.5047
  398MOL0     H53729   0.989   6.505   7.607  1.3385  0.3654 -1.9858
  398MOL0     H53730   0.932   6.337   7.612  1.1559 -0.0560  1.0961
  399MOL0     O53731   3.211   9.355   7.976  0.0887  1.2321  0.1596
  399MOL0     C53732   3.262   9.464   7.966 -0.1029 -0.1796 -1.3425
  399MOL0     O53733   3.318   9.510   7.847  0.0627 -0.3973  0.9600
  399MOL0     C53734   3.364   9.418   7.765 -0.5343 -0.1587  0.1028
  399MOL0     C53735   3.288   9.343   7.673 -0.5139  0.1827  0.4491
  399MOL0     C53736   3.350   9.243   7.601  0.4731 -0.7520 -0.3289
  399MOL0     C53737   3.495   9.216   7.607  0.0442 -0.1812 -0.6137
  399MOL0     O53738   3.578   9.136   7.521  0.6902 -0.0613 -1.0752
  399MOL0     C53739   3.505   9.032   7.459 -0.4639 -1.0379  1.4050
  399MOL0     C53740   3.452   9.075   7.322  0.5290  0.0136  0.4854
  399MOL0     C53741   3.565   9.142   7.239 -0.0374  0.5670  0.2266
  399MOL0     C53742   3.525   9.150   7.085 -0.4305 -0.6790  0.6444
  399MOL0     C53743   3.597   9.257   6.995 -0.5610  0.2438  0.1103
  399MOL0     C53744   3.748   9.237   6.960 -0.9214  0.3029 -0.3748
  399MOL0     C53745   3.783   9.294   6.826 -0.0349  0.6461  0.2345
  399MOL0     C53746   3.938   9.311   6.812 -0.4285 -0.1849 -1.1494
  399MOL0     N53747   3.992   9.350   6.682  0.5625 -0.8625 -1.0440
  399MOL0     C53748   4.110   9.291   6.641 -0.0812  0.6021  0.2462
  399MOL0     C53749   4.108   9.312   6.512 -0.7026 -0.6406  0.2259
  399MOL0     C53750   4.203   9.257   6.415 -0.5617  0.2032  0.1143
  399MOL0     C53751   4.244   9.112   6.431 -0.0871  0.1085 -0.1225
  399MOL0     C53752   4.126   9.012   6.433 -0.0826  0.7108 -0.5262
  399MOL0     C53753   4.165   8.866   6.478  0.1058 -1.0755  0.6874
  399MOL0     O53754   4.285   8.820   6.419  0.0422 -0.5339  0.3319
  399MOL0     C53755   4.297   8.689   6.388 -0.2798 -0.8978  1.5409
  399MOL0     C53756   4.419   8.645   6.332 -0.1656 -0.8133  0.3254
  399MOL0     C53757   4.440   8.514   6.290  0.2994  0.3568 -0.5787
  399MOL0     C53758   4.327   8.422   6.291 -0.1321  0.4621 -0.1502
  399MOL0     C53759   4.337   8.287   6.240 -0.7707  0.2684 -1.1961
  399MOL0     O53760   4.446   8.259   6.169 -0.7289  0.3632 -0.2517
  399MOL0     C53761   4.458   8.147   6.102  0.1549 -0.2995 -0.2616
  399MOL0     C53762   4.581   8.079   6.106 -0.2060  0.9406  0.3897
  399MOL0     C53763   4.601   7.962   6.024 -0.4850  0.2910 -0.2527
  399MOL0     C53764   4.492   7.918   5.944 -1.0513  0.2609 -0.6563
  399MOL0     O53765   4.501   7.810   5.862  0.1837 -0.5833 -0.1086
  399MOL0     C53766   4.621   7.798   5.783 -0.9257  0.9297 -0.0735
  399MOL0     C53767   4.654   7.910   5.685 -0.1206  0.2766  1.4783
  399MOL0     C53768   4.555   7.920   5.568 -0.6674  0.5548 -0.6820
  399MOL0     C53769   4.562   8.032   5.464 -0.2394 -0.5116 -0.5348
  399MOL0     C53770   4.689   8.042   5.388 -1.2403 -0.9832  0.3736
  399MOL0     C53771   4.688   7.944   5.272 -0.0049  0.3540 -0.1179
  399MOL0     C53772   4.820   7.946   5.193 -0.6435  0.1509 -0.4960
  399MOL0     C53773   4.852   8.060   5.100 -0.3442  0.7762 -0.1178
  399MOL0    Cl53774   4.910   8.186   5.192 -0.0227  0.0636 -0.2566
  399MOL0     C53775   4.374   7.986   5.938  0.1693 -0.1298  0.1338
  399MOL0     C53776   4.355   8.102   6.017 -0.3306 -0.2913 -0.0616
  399MOL0     O53777   4.250   8.202   6.266  0.2767 -0.3300  0.1738
  399MOL0     C53778   4.207   8.469   6.362  0.2431 -0.1554  0.4826
  399MOL0     C53779   4.196   8.600   6.396  0.4323  0.1831  0.1902
  399MOL0     N53780   3.992   9.383   6.475  0.0594  0.9961 -0.0494
  399MOL0     N53781   3.929   9.412   6.574 -1.0550  0.3486  0.2638
  399MOL0     C53782   3.563   9.305   7.682 -0.5469 -0.0527 -0.8167
  399MOL0     C53783   3.504   9.403   7.769  0.1843  0.0210 -0.3112
  399MOL0     C53784   3.249   9.559   8.082  0.2572 -0.5021 -0.0757
  399MOL0     C53785   3.282   9.700   8.070  0.9292  0.3853 -0.5443
  399MOL0     C53786   3.257   9.786   8.176 -0.0855  0.9700 -0.1082
  399MOL0     C53787   3.215   9.748   8.295  0.3746 -0.4667 -0.0070
  399MOL0     O53788   3.210   9.850   8.389  0.6528 -0.2828  0.0626
  399MOL0     C53789   3.149   9.832   8.524 -0.4860  0.2252 -0.0915
  399MOL0     C53790   3.167   9.965   8.595  0.6706  0.6255 -0.3527
  399MOL0     C53791   3.312  10.007   8.621  0.1145  0.6074  1.2991
  399MOL0     C53792   3.378   9.927   8.733 -0.9668  0.2052  0.2961
  399MOL0     C53793   3.324   9.958   8.867  0.6961  0.4717  0.4001
  399MOL0     C53794   3.260   9.972   8.973  0.0366  0.8399 -0.0541
  399MOL0     C53795   3.154   9.618   8.312  0.5462  1.5813  0.2452
  399MOL0     C53796   3.181   9.525   8.207 -0.5483 -1.6537 -0.3227
  399MOL0     C53797   3.127   9.388   8.237 -0.1182 -0.2318  0.3198
  399MOL0     H53798   3.180   9.341   7.669 -0.5729 -3.0258  0.3622
  399MOL0     H53799   3.283   9.202   7.526  0.7707 -2.3510  0.2270
  399MOL0     H53800   3.577   8.952   7.440 -0.7418 -1.1112  0.6184
  399MOL0     H53801   3.422   8.988   7.515 -2.0645  0.2347  0.1222
  399MOL0     H53802   3.374   9.152   7.326  1.6965  1.3317 -0.8611
  399MOL0     H53803   3.406   8.989   7.272 -1.1850  0.4726  1.2232
  399MOL0     H53804   3.658   9.084   7.242 -0.7846 -1.0964 -3.1786
  399MOL0     H53805   3.573   9.241   7.284 -2.5304  1.0907 -0.3118
  399MOL0     H53806   3.545   9.048   7.050  1.4161  0.4602 -1.9419
  399MOL0     H53807   3.418   9.161   7.065  0.1601 -1.1321 -3.7591
  399MOL0     H53808   3.537   9.255   6.904  0.1206  1.6277 -0.3795
  399MOL0     H53809   3.585   9.357   7.036 -0.3875 -0.0927  1.0113
  399MOL0     H53810   3.814   9.273   7.039 -2.4678  1.7775  0.2990
  399MOL0     H53811   3.756   9.128   6.958  0.9004  0.3738  1.1103
  399MOL0     H53812   3.734   9.388   6.800 -1.2326  0.1826  0.7310
  399MOL0     H53813   3.754   9.223   6.748  4.8831  0.2152 -1.5275
  399MOL0     H53814   3.969   9.393   6.877  3.6590 -2.5086  0.2097
  399MOL0     H53815   3.996   9.226   6.847  1.6012  1.5955  0.0674
  399MOL0     H53816   4.167   9.230   6.711 -1.4856  0.3553  1.2196
  399MOL0     H53817   4.158   9.289   6.320 -5.5595  3.7179  3.1536
  399MOL0     H53818   4.290   9.323   6.424 -0.4416  0.4311 -2.1156
  399MOL0     H53819   4.291   9.099   6.333  0.0992 -1.5012  0.1662
  399MOL0     H53820   4.303   9.103   6.523 -1.3031  3.0151  1.0827
  399MOL0     H53821   4.085   8.990   6.333  2.2719 -1.9651 -1.0338
  399MOL0     H53822   4.057   9.048   6.509  2.9199 -0.9745  3.3564
  399MOL0     H53823   4.075   8.814   6.445 -0.5874  0.9970 -0.8628
  399MOL0     H53824   4.176   8.873   6.587  0.9834 -0.6253  0.5770
  399MOL0     H53825   4.499   8.717   6.318 -0.4568 -0.0911  2.0807
  399MOL0     H53826   4.543   8.490   6.266  0.6563  1.8764 -0.6680
  399MOL0     H53827   4.645   8.092   6.193  0.7785 -1.5564  0.1407
  399MOL0     H53828   4.686   7.898   6.045 -1.7405 -2.2056 -2.2802
  399MOL0     H53829   4.700   7.778   5.855 -1.9755 -0.5485  0.7194
  399MOL0     H53830   4.614   7.705   5.725  1.0939  0.1437  0.8455
  399MOL0     H53831   4.646   8.010   5.729 -1.2344  1.2012 -0.6611
  399MOL0     H53832   4.753   7.901   5.639 -1.9026  0.8086 -2.9277
  399MOL0     H53833   4.567   7.823   5.518 -2.7284 -0.5033  0.7276
  399MOL0     H53834   4.462   7.913   5.626  1.1046 -5.9648  2.4316
  399MOL0     H53835   4.545   8.128   5.513  0.1297  0.0696 -1.5029
  399MOL0     H53836   4.489   8.018   5.384  0.4920 -0.7067 -1.1840
  399MOL0     H53837   4.773   8.056   5.457 -1.5447  1.6979  0.2900
  399MOL0     H53838   4.694   8.133   5.327  3.6136 -1.1774  0.0862
  399MOL0     H53839   4.685   7.842   5.311  0.8774  0.1779 -0.4752
  399MOL0     H53840   4.607   7.953   5.200 -0.6057  1.3960  0.6611
  399MOL0     H53841   4.809   7.857   5.130  3.3206 -0.5331 -0.4380
  399MOL0     H53842   4.902   7.927   5.262  0.6681  3.4537 -0.9647
  399MOL0     H53843   4.931   8.045   5.025 -0.2817 -1.7629  0.3851
  399MOL0     H53844   4.762   8.095   5.048 -2.4613 -2.4106  1.0976
  399MOL0     H53845   4.291   7.950   5.878  0.8582 -2.9590  0.7409
  399MOL0     H53846   4.257   8.147   6.004 -0.5535 -1.0548 -1.1573
  399MOL0     H53847   4.126   8.398   6.373 -2.3198  2.3178 -1.0358
  399MOL0     H53848   4.094   8.616   6.432  0.7930 -1.5405  2.1389
  399MOL0     H53849   3.671   9.300   7.693 -0.1453  1.3853 -3.4282
  399MOL0     H53850   3.552   9.457   7.850  0.0594 -0.1106 -0.1491
  399MOL0     H53851   3.340   9.736   7.985 -1.3935  1.6463 -1.6834
  399MOL0     H53852   3.274   9.889   8.145 -1.1787  0.8017 -1.3513
  399MOL0     H53853   3.197   9.753   8.584 -0.5284 -2.3547 -3.1954
  399MOL0     H53854   3.047   9.795   8.531  0.0695 -1.5079 -0.6795
  399MOL0     H53855   3.108   9.947   8.686 -1.7975 -3.9890 -2.5098
  399MOL0     H53856   3.117  10.048   8.544 -0.1808 -0.4227 -1.2557
  399MOL0     H53857   3.337  10.114   8.626  0.2329  0.8624 -2.1864
  399MOL0     H53858   3.354   9.966   8.529 -0.2400 -0.7686  1.7264
  399MOL0     H53859   3.373   9.819   8.717 -0.1184  0.2499 -0.3592
  399MOL0     H53860   3.485   9.952   8.729 -0.9723  0.4333  1.3401
  399MOL0     H53861   3.194   9.974   9.057 -1.1816  1.2206 -0.9910
  399MOL0     H53862   3.099   9.591   8.401  0.0938  3.1109  0.4640
  399MOL0     H53863   3.062   9.363   8.153 -0.8813  2.7466 -0.1082
  399MOL0     H53864   3.203   9.312   8.257  2.1361  1.8882  0.3254
  399MOL0     H53865   3.061   9.380   8.324 -0.2925  1.1538  0.3494
  400MOL0     O53866   9.369   2.572   8.983 -0.5995  0.5591 -0.1078
  400MOL0     C53867   9.377   2.479   8.904 -0.3465 -0.7496 -0.2024
  400MOL0     O53868   9.349   2.351   8.947  0.5282  0.6597  0.3566
  400MOL0     C53869   9.315   2.331   9.079 -0.1579 -0.3374 -0.8749
  400MOL0     C53870   9.183   2.293   9.096 -0.9403  0.0572  0.4825
  400MOL0     C53871   9.133   2.307   9.228  0.0131 -1.1345  0.4178
  400MOL0     C53872   9.214   2.313   9.338  0.3172  0.8896  0.0717
  400MOL0     O53873   9.172   2.290   9.469  1.4575  0.6337 -0.3152
  400MOL0     C53874   9.133   2.416   9.527 -1.1137  0.4484  1.0778
  400MOL0     C53875   9.022   2.396   9.634  0.5812 -0.9881  0.4913
  400MOL0     C53876   9.030   2.503   9.750 -0.0044 -0.6082  0.1927
  400MOL0     C53877   8.984   2.434   9.881  0.1431  0.4265  0.3042
  400MOL0     C53878   8.970   2.533   9.991  0.9820  0.2475 -0.4596
  400MOL0     C53879   9.082   2.614  10.055  0.3643  1.2064 -0.2158
  400MOL0     C53880   9.200   2.542  10.126 -0.5496 -0.2294 -0.0083
  400MOL0     C53881   9.137   2.431  10.209 -0.1431  0.1412 -0.6807
  400MOL0     N53882   9.250   2.375  10.292  0.3873 -0.3854 -1.0217
  400MOL0     C53883   9.267   2.396  10.433 -0.0987  0.2813  0.0964
  400MOL0     C53884   9.377   2.323  10.464 -0.5559 -0.3299  1.1677
  400MOL0     C53885   9.449   2.329  10.599 -0.2391 -0.0816  0.0957
  400MOL0     C53886   9.397   2.203  10.668  0.5008 -0.6612 -0.2575
  400MOL0     C53887   9.427   2.219  10.816 -0.7929  0.0978  0.1389
  400MOL0     C53888   9.370   2.096  10.886 -0.2641 -0.5424  0.1848
  400MOL0     O53889   9.228   2.092  10.902 -0.4348 -0.2947 -0.1330
  400MOL0     C53890   9.179   1.978  10.968 -0.0534 -0.2343  0.4579
  400MOL0     C53891   9.256   1.874  11.014  0.6410  0.0293 -0.2872
  400MOL0     C53892   9.194   1.765  11.087 -0.1767  0.0059  0.2861
  400MOL0     C53893   9.055   1.777  11.116 -0.0539  0.1995  0.5252
  400MOL0     C53894   8.984   1.677  11.193 -1.0564  0.6886  0.0996
  400MOL0     O53895   8.851   1.702  11.231  0.3940 -1.0766  0.0019
  400MOL0     C53896   8.776   1.618  11.303 -0.1464 -0.9828  0.6176
  400MOL0     C53897   8.814   1.528  11.402  0.0051  0.2259 -0.4949
  400MOL0     C53898   8.723   1.454  11.480  0.3644 -0.3906 -0.2324
  400MOL0     C53899   8.583   1.457  11.451 -1.3374 -1.9470 -0.2810
  400MOL0     O53900   8.499   1.380  11.527 -0.6039  0.5698  0.8853
  400MOL0     C53901   8.371   1.428  11.556  0.8598 -0.6345 -0.0024
  400MOL0     C53902   8.317   1.343  11.675  0.1099 -1.4817  0.7006
  400MOL0     C53903   8.164   1.342  11.693  0.2230  0.5814  0.9479
  400MOL0     C53904   8.099   1.235  11.608  0.7274 -0.3990  0.0672
  400MOL0     C53905   7.945   1.233  11.633 -0.3367  0.5246  1.3947
  400MOL0     C53906   7.905   1.129  11.736 -0.5339 -0.4619 -0.0366
  400MOL0     C53907   7.753   1.120  11.740 -0.8982  0.7255  0.8646
  400MOL0     C53908   7.728   1.005  11.833  0.4730  0.4945  0.4245
  400MOL0    Cl53909   7.553   0.954  11.813  0.5903 -0.3242  0.0943
  400MOL0     C53910   8.539   1.557  11.364 -0.2028  0.6011 -0.3796
  400MOL0     C53911   8.636   1.633  11.289 -0.3179  0.8511 -0.1257
  400MOL0     O53912   9.054   1.577  11.224  0.0726  0.6288  0.3072
  400MOL0     C53913   8.978   1.891  11.083  0.1369  0.5573  0.4234
  400MOL0     C53914   9.049   1.992  11.008  0.4121  1.1392 -0.7614
  400MOL0     N53915   9.438   2.286  10.343  0.1154  0.0332  0.0630
  400MOL0     N53916   9.356   2.310  10.250 -0.3626 -0.5543 -0.4485
  400MOL0     C53917   9.348   2.318   9.317 -0.6340 -0.1366  0.8865
  400MOL0     C53918   9.402   2.343   9.187  0.5712 -0.4140  0.9972
  400MOL0     C53919   9.397   2.506   8.766 -0.2663  0.7601 -0.0725
  400MOL0     C53920   9.413   2.401   8.677 -0.5403  1.8884 -0.2857
  400MOL0     C53921   9.446   2.406   8.536  0.9618  0.4560 -0.3849
  400MOL0     C53922   9.468   2.530   8.485 -0.3299 -0.8649  0.3764
  400MOL0     O53923   9.524   2.534   8.361 -0.3660  0.1293 -0.2414
  400MOL0     C53924   9.660   2.593   8.349  0.4045  1.0572 -1.2065
  400MOL0     C53925   9.679   2.627   8.205 -0.0323  0.3657 -1.3131
  400MOL0     C53926   9.571   2.718   8.132  0.3304  0.2008  0.0531
  400MOL0     C53927   9.593   2.738   7.977 -0.0468  0.0465 -1.0914
  400MOL0     C53928   9.726   2.794   7.945 -0.1791 -0.1496 -0.8013
  400MOL0     C53929   9.840   2.821   7.910  0.1009  0.2517  0.7359
  400MOL0     C53930   9.464   2.644   8.576 -0.9083  0.6190 -0.4012
  400MOL0     C53931   9.424   2.634   8.714 -0.0738  0.1141  0.3854
  400MOL0     C53932   9.399   2.757   8.794 -0.1853  0.8451  0.3416
  400MOL0     H53933   9.123   2.286   9.006 -1.2563 -1.4355  0.7818
  400MOL0     H53934   9.025   2.312   9.239  0.0740 -1.6777  1.2977
  400MOL0     H53935   9.224   2.449   9.578 -1.4623 -0.6001  2.4511
  400MOL0     H53936   9.109   2.498   9.459 -0.3756 -1.8127 -2.1690
  400MOL0     H53937   9.028   2.295   9.675  2.6470 -1.2424 -0.3436
  400MOL0     H53938   8.929   2.420   9.583  2.2012  0.1902 -2.0924
  400MOL0     H53939   8.965   2.584   9.714 -0.0747 -1.8184 -2.7312
  400MOL0     H53940   9.132   2.540   9.748 -0.3227  0.2870 -1.3122
  400MOL0     H53941   8.890   2.380   9.868  0.5661 -2.0818  5.2294
  400MOL0     H53942   9.052   2.352   9.908 -0.0772  0.3456  0.6278
  400MOL0     H53943   8.892   2.601   9.956 -0.9816 -1.4023  0.5145
  400MOL0     H53944   8.923   2.471  10.068  1.9030 -1.8960 -1.5074
  400MOL0     H53945   9.127   2.682   9.982  0.8811 -0.6849 -1.7529
  400MOL0     H53946   9.041   2.678  10.133  1.8202  0.0975  1.5274
  400MOL0     H53947   9.267   2.611  10.178  0.4112  0.3298 -1.9069
  400MOL0     H53948   9.271   2.494  10.059 -0.1072 -2.5516  1.9725
  400MOL0     H53949   9.054   2.459  10.274  1.0815  1.7616  0.2687
  400MOL0     H53950   9.095   2.356  10.142  0.1059 -1.0531  0.4549
  400MOL0     H53951   9.194   2.445  10.497  0.0018  0.2884  0.2044
  400MOL0     H53952   9.558   2.325  10.591 -0.2139  1.3357 -0.5271
  400MOL0     H53953   9.416   2.421  10.647  3.1295  1.1103  0.3896
  400MOL0     H53954   9.289   2.192  10.659  0.0531  2.9393 -1.0466
  400MOL0     H53955   9.445   2.109  10.639 -2.3787 -2.8676  1.5479
  400MOL0     H53956   9.373   2.304  10.858  0.2499  1.2922 -0.8580
  400MOL0     H53957   9.534   2.226  10.836 -1.4156  1.4550  3.6774
  400MOL0     H53958   9.414   2.079  10.984 -0.4780 -0.8319  0.2323
  400MOL0     H53959   9.392   2.006  10.828  1.8525  0.4498 -0.6733
  400MOL0     H53960   9.364   1.868  11.005  0.6603  1.1561 -1.1260
  400MOL0     H53961   9.249   1.678  11.119  2.0135  1.8524  1.8961
  400MOL0     H53962   8.920   1.511  11.419  0.2998  0.6172 -1.8037
  400MOL0     H53963   8.748   1.375  11.551  0.0628 -1.9098 -1.7476
  400MOL0     H53964   8.365   1.535  11.576 -1.0105 -0.5166 -1.0658
  400MOL0     H53965   8.303   1.411  11.473  0.2237 -2.5699  0.8494
  400MOL0     H53966   8.344   1.239  11.654 -0.9281 -1.4924 -0.7354
  400MOL0     H53967   8.355   1.389  11.767  0.4944  2.3946 -1.1845
  400MOL0     H53968   8.132   1.321  11.795 -0.3998  0.1345  0.6713
  400MOL0     H53969   8.102   1.428  11.668  0.9151  0.5666 -1.0255
  400MOL0     H53970   8.153   1.141  11.624  2.6227  0.4037 -1.2160
  400MOL0     H53971   8.126   1.253  11.503  2.1330 -0.8676  0.3221
  400MOL0     H53972   7.902   1.201  11.537  1.7623 -0.1348  0.6186
  400MOL0     H53973   7.907   1.335  11.645  0.5070  1.0297  0.1075
  400MOL0     H53974   7.953   1.038  11.699 -0.7163  0.6217 -3.2026
  400MOL0     H53975   7.942   1.177  11.827  2.2178  2.0265 -2.2557
  400MOL0     H53976   7.721   1.092  11.639  0.8363 -0.9183  0.6948
  400MOL0     H53977   7.704   1.209  11.779 -0.2253  1.1769  0.6951
  400MOL0     H53978   7.789   0.922  11.796  0.2308  0.0647  0.9831
  400MOL0     H53979   7.748   1.028  11.938 -0.8973 -3.9143  1.8735
  400MOL0     H53980   8.431   1.570  11.359 -0.8590 -2.9329  1.4372
  400MOL0     H53981   8.592   1.708  11.223 -1.4465 -0.1708 -0.5587
  400MOL0     H53982   8.878   1.916  11.116 -0.0567  4.4391 -2.3720
  400MOL0     H53983   8.997   2.084  10.985  0.5600  2.3608  3.1246
  400MOL0     H53984   9.411   2.310   9.404 -1.6274 -2.4775  1.4511
  400MOL0     H53985   9.509   2.362   9.179  0.5937 -0.4254  1.2492
  400MOL0     H53986   9.400   2.299   8.711 -1.5255  1.3216 -2.1863
  400MOL0     H53987   9.466   2.314   8.483  0.1168 -1.6095  2.5697
  400MOL0     H53988   9.736   2.521   8.381 -0.7274  1.6623  3.6872
  400MOL0     H53989   9.681   2.688   8.400  0.9834  1.1529 -1.6164
  400MOL0     H53990   9.694   2.528   8.160  2.1257 -1.9728  3.6881
  400MOL0     H53991   9.764   2.695   8.214  0.8939 -0.8477 -0.6808
  400MOL0     H53992   9.572   2.816   8.181  2.6060  0.9346 -1.3284
  400MOL0     H53993   9.477   2.662   8.143 -0.3057  0.6337 -2.6197
  400MOL0     H53994   9.577   2.641   7.929  0.3884 -1.5495  1.7445
  400MOL0     H53995   9.517   2.812   7.951 -1.4099 -1.3884 -1.3250
  400MOL0     H53996   9.945   2.834   7.891  0.1439 -1.9340 -1.0378
  400MOL0     H53997   9.506   2.740   8.545  2.9349 -1.0652 -0.9529
  400MOL0     H53998   9.455   2.765   8.888  1.0756 -0.4099 -0.2543
  400MOL0     H53999   9.427   2.834   8.721  0.0080  1.0511  0.6316
  400MOL0     H54000   9.293   2.759   8.819 -0.3836 -1.4307 -0.0673
  401MOL0     O54001   2.748   7.418   4.044  0.7232  0.4495  0.5325
  401MOL0     C54002   2.691   7.310   4.041 -0.1039 -0.5351 -0.2278
  401MOL0     O54003   2.632   7.251   4.157 -0.5382 -0.0424 -1.1413
  401MOL0     C54004   2.609   7.333   4.274 -0.6232  0.2160 -0.1062
  401MOL0     C54005   2.582   7.471   4.273 -1.0167 -0.2640  0.1603
  401MOL0     C54006   2.562   7.541   4.390  0.0063  0.1973 -0.6802
  401MOL0     C54007   2.564   7.485   4.514 -0.4260 -0.3869 -0.4864
  401MOL0     O54008   2.532   7.560   4.624 -0.3649  0.0938 -0.0152
  401MOL0     C54009   2.614   7.528   4.739 -0.2816 -0.6526  0.4571
  401MOL0     C54010   2.572   7.629   4.845 -0.1788 -0.3166  0.4534
  401MOL0     C54011   2.606   7.778   4.800  0.7964  0.6901 -0.7418
  401MOL0     C54012   2.542   7.869   4.901  0.5970 -0.2976 -0.5884
  401MOL0     C54013   2.593   8.017   4.897 -0.9316  0.4919  0.3545
  401MOL0     C54014   2.546   8.086   4.759  0.2051  0.3080  0.6872
  401MOL0     C54015   2.542   8.233   4.788  0.2658  0.7535 -0.0482
  401MOL0     C54016   2.482   8.322   4.665 -0.5401  0.5633  0.2312
  401MOL0     N54017   2.558   8.450   4.659 -0.5115 -0.4622  0.7820
  401MOL0     C54018   2.593   8.529   4.769 -1.0760 -0.3260  1.0086
  401MOL0     C54019   2.653   8.639   4.721 -0.0344  0.1043 -0.3065
  401MOL0     C54020   2.704   8.765   4.790 -0.1279  0.4649  0.3728
  401MOL0     C54021   2.823   8.838   4.720  0.0574 -0.4660 -0.1869
  401MOL0     C54022   2.940   8.746   4.728 -0.2623  0.8443  0.0981
  401MOL0     C54023   3.060   8.804   4.661 -0.6177  0.1877  0.9130
  401MOL0     O54024   3.112   8.895   4.763  0.4593  0.2653  0.1229
  401MOL0     C54025   3.244   8.935   4.748 -0.3357  0.3997  0.7735
  401MOL0     C54026   3.316   8.912   4.629 -0.4668  0.9596 -0.3548
  401MOL0     C54027   3.449   8.951   4.613  0.2385 -0.3022  0.2718
  401MOL0     C54028   3.512   9.024   4.717  0.1650  0.9770  0.2053
  401MOL0     C54029   3.642   9.089   4.702 -0.4658  0.4715  1.1447
  401MOL0     O54030   3.682   9.102   4.565  0.3534  1.4145 -0.2594
  401MOL0     C54031   3.792   9.172   4.525 -0.0150  0.1793 -0.5115
  401MOL0     C54032   3.845   9.140   4.401 -0.0736  0.8693 -0.2403
  401MOL0     C54033   3.954   9.203   4.342 -0.2671  0.1088 -0.0896
  401MOL0     C54034   4.013   9.307   4.414  0.4237 -0.6112  0.4608
  401MOL0     O54035   4.112   9.393   4.361 -0.0320 -0.4670  0.2192
  401MOL0     C54036   4.159   9.375   4.233 -0.3113  1.2076  0.2004
  401MOL0     C54037   4.273   9.471   4.211  0.6632  0.7115 -0.7835
  401MOL0     C54038   4.236   9.599   4.137 -0.1413  0.8073  0.7287
  401MOL0     C54039   4.367   9.671   4.086 -0.0144 -0.2738  0.1139
  401MOL0     C54040   4.458   9.584   3.989 -0.0012  1.1637 -0.5620
  401MOL0     C54041   4.568   9.663   3.911 -0.6327  0.2090  0.7904
  401MOL0     C54042   4.700   9.669   3.993  0.0567 -0.7583 -0.1283
  401MOL0     C54043   4.803   9.559   3.968  0.9398  0.5787  0.2911
  401MOL0    Cl54044   4.839   9.560   3.790 -0.4237  0.2993 -0.2213
  401MOL0     C54045   3.964   9.340   4.537 -0.3517  0.8762  0.2182
  401MOL0     C54046   3.855   9.282   4.596 -0.7095  0.9995 -0.4321
  401MOL0     O54047   3.708   9.127   4.804  0.3425 -1.1894 -0.0085
  401MOL0     C54048   3.438   9.037   4.837  0.0578  0.2803  0.6680
  401MOL0     C54049   3.316   8.980   4.857  0.8949  0.3129 -0.2279
  401MOL0     N54050   2.676   8.621   4.591 -0.5257 -0.1714  0.1187
  401MOL0     N54051   2.623   8.508   4.555 -0.0204  0.2652  0.9398
  401MOL0     C54052   2.586   7.344   4.515 -0.2098  0.4862  0.4271
  401MOL0     C54053   2.612   7.272   4.395  0.5478 -0.2678 -0.9312
  401MOL0     C54054   2.677   7.244   3.907 -0.1997 -0.5068  0.0354
  401MOL0     C54055   2.783   7.243   3.817  0.4313 -0.3980  0.0277
  401MOL0     C54056   2.783   7.186   3.690 -0.3375 -0.0988  0.5627
  401MOL0     C54057   2.668   7.115   3.648  0.1004  0.9600 -0.3561
  401MOL0     O54058   2.666   7.041   3.524  0.2763  0.4969  0.9660
  401MOL0     C54059   2.797   7.035   3.457  1.4524  0.1906  0.5784
  401MOL0     C54060   2.780   6.938   3.341  0.0648 -0.0881 -0.0903
  401MOL0     C54061   2.873   6.961   3.224 -1.0872  0.8599 -0.0966
  401MOL0     C54062   3.015   6.980   3.252 -0.0432  0.0323  0.2041
  401MOL0     C54063   3.076   6.880   3.327 -1.0693 -0.2234 -0.1180
  401MOL0     C54064   3.131   6.800   3.400 -0.4303 -0.4307 -0.4647
  401MOL0     C54065   2.561   7.118   3.735  0.3617 -0.2657  0.6530
  401MOL0     C54066   2.562   7.184   3.861 -0.4455  0.3081 -1.2302
  401MOL0     C54067   2.431   7.174   3.940  0.0765  0.0848  0.3163
  401MOL0     H54068   2.583   7.533   4.183  1.4172  0.8403  0.8560
  401MOL0     H54069   2.547   7.647   4.372 -1.5530  0.4195  1.4748
  401MOL0     H54070   2.600   7.427   4.780 -1.3271  0.4471  3.0681
  401MOL0     H54071   2.722   7.544   4.726 -0.5573  2.3470  1.2940
  401MOL0     H54072   2.613   7.616   4.945  0.2328  0.5047  0.4048
  401MOL0     H54073   2.464   7.626   4.862 -0.5517  3.2135 -0.4350
  401MOL0     H54074   2.568   7.803   4.701  1.2764  2.3743 -0.5454
  401MOL0     H54075   2.715   7.790   4.801  0.6185  2.7614 -0.6005
  401MOL0     H54076   2.433   7.873   4.901  0.6330  1.1604 -1.0885
  401MOL0     H54077   2.571   7.832   5.000  1.8730 -0.4395 -0.9894
  401MOL0     H54078   2.545   8.067   4.982 -4.4430  0.2859 -1.3217
  401MOL0     H54079   2.702   8.016   4.899 -0.7057 -1.6974 -3.6617
  401MOL0     H54080   2.615   8.081   4.674 -0.7479  3.8303 -0.4544
  401MOL0     H54081   2.455   8.046   4.714  0.2600 -0.8477  1.5576
  401MOL0     H54082   2.639   8.267   4.824  1.0880 -1.9854  0.6149
  401MOL0     H54083   2.483   8.251   4.879  2.5072 -0.1785  1.6936
  401MOL0     H54084   2.514   8.281   4.569  4.1404  0.6092  1.5443
  401MOL0     H54085   2.376   8.346   4.680  0.5922  6.3850  1.6992
  401MOL0     H54086   2.564   8.534   4.874 -0.8982 -0.9287  1.0953
  401MOL0     H54087   2.623   8.833   4.817 -0.2197 -0.2343  1.9725
  401MOL0     H54088   2.735   8.731   4.889  2.5397 -2.5005 -1.2847
  401MOL0     H54089   2.794   8.850   4.615  1.8905  1.3322 -0.5537
  401MOL0     H54090   2.847   8.935   4.764 -0.2129  0.4111 -1.8714
  401MOL0     H54091   2.928   8.650   4.677  2.9351  1.5435 -2.2720
  401MOL0     H54092   2.970   8.721   4.830  2.4748  0.6987 -0.6504
  401MOL0     H54093   3.038   8.865   4.573 -1.0992  1.2024  1.7156
  401MOL0     H54094   3.119   8.717   4.633  0.5625  1.4714 -0.8087
  401MOL0     H54095   3.279   8.863   4.540  2.6699 -1.3150 -0.5689
  401MOL0     H54096   3.500   8.941   4.518  1.2973  1.0211  0.6724
  401MOL0     H54097   3.787   9.061   4.356  2.7455 -1.1639 -0.5561
  401MOL0     H54098   3.997   9.182   4.245  1.8382  1.8027  0.4059
  401MOL0     H54099   4.196   9.272   4.234 -3.5126 -0.3314 -4.3616
  401MOL0     H54100   4.088   9.385   4.150  0.3162 -2.5879 -0.9765
  401MOL0     H54101   4.310   9.496   4.311 -0.2169 -3.5054  0.7857
  401MOL0     H54102   4.358   9.428   4.158 -0.0053 -1.1276 -0.4518
  401MOL0     H54103   4.170   9.570   4.054 -0.4357 -0.5340  1.4212
  401MOL0     H54104   4.188   9.675   4.200 -2.1218  1.4832 -1.4399
  401MOL0     H54105   4.427   9.710   4.169 -1.7029  1.6204  0.5522
  401MOL0     H54106   4.334   9.758   4.028 -0.4883 -2.3479 -2.9536
  401MOL0     H54107   4.377   9.540   3.931 -2.1058  0.0138  2.9675
  401MOL0     H54108   4.519   9.506   4.035 -1.4869 -0.9696 -2.0208
  401MOL0     H54109   4.585   9.615   3.814  0.7188 -1.8020  1.9553
  401MOL0     H54110   4.532   9.765   3.894 -2.1375 -0.6111 -1.3456
  401MOL0     H54111   4.670   9.663   4.098 -1.2992 -0.3512 -0.4768
  401MOL0     H54112   4.743   9.770   3.986 -0.6592 -0.5776 -2.9344
  401MOL0     H54113   4.892   9.574   4.030  0.1741  1.8841  1.1201
  401MOL0     H54114   4.758   9.460   3.981 -0.6392  1.4547  1.8758
  401MOL0     H54115   4.003   9.433   4.576  0.2282  0.2878  1.0759
  401MOL0     H54116   3.811   9.310   4.691  0.5928 -1.2727  0.9317
  401MOL0     H54117   3.463   9.097   4.923 -0.8508  3.3774 -1.0599
  401MOL0     H54118   3.274   8.989   4.957  2.0653 -0.7499  0.4047
  401MOL0     H54119   2.606   7.295   4.610  0.6902  1.0928  0.5712
  401MOL0     H54120   2.628   7.165   4.400  4.3097  0.1751 -1.2202
  401MOL0     H54121   2.877   7.294   3.832 -0.6257  1.1535  1.9032
  401MOL0     H54122   2.876   7.181   3.634 -1.8979  0.3862 -2.2862
  401MOL0     H54123   2.881   6.995   3.514  1.7019  1.0604  0.8457
  401MOL0     H54124   2.826   7.133   3.416  1.2984 -0.5733 -1.4755
  401MOL0     H54125   2.683   6.954   3.291  0.3811  1.6336 -0.2019
  401MOL0     H54126   2.787   6.839   3.387  0.5330 -0.0035  0.0196
  401MOL0     H54127   2.836   7.048   3.168 -0.0022  1.0984 -0.4749
  401MOL0     H54128   2.864   6.870   3.164 -1.7159 -0.6926  2.2527
  401MOL0     H54129   3.082   6.970   3.166  0.1414  0.9798  0.2351
  401MOL0     H54130   3.042   7.076   3.296 -0.2544  1.5873 -2.8505
  401MOL0     H54131   3.178   6.715   3.446  0.2986  0.8344  1.2744
  401MOL0     H54132   2.472   7.066   3.700  3.0834 -3.3053 -2.5338
  401MOL0     H54133   2.348   7.175   3.868 -0.8059  1.1267  1.2971
  401MOL0     H54134   2.436   7.084   4.002  0.8470  0.2705  0.5305
  401MOL0     H54135   2.428   7.263   4.004  1.4925  0.3226  0.0859
  402MOL0     O54136   4.784   3.966   9.025  0.1171 -0.7611  0.1934
  402MOL0     C54137   4.761   4.001   9.136 -0.4024  0.3316 -0.5611
  402MOL0     O54138   4.678   4.102   9.175 -0.1186 -0.3176 -0.2708
  402MOL0     C54139   4.604   4.173   9.086  0.3294 -0.7410 -0.1027
  402MOL0     C54140   4.590   4.304   9.131  0.1031 -0.6250 -1.0238
  402MOL0     C54141   4.511   4.388   9.064 -0.5241 -1.1225  1.5573
  402MOL0     C54142   4.439   4.352   8.950 -0.4591  0.1192 -0.4687
  402MOL0     O54143   4.365   4.445   8.894 -0.1101 -0.4629 -0.1294
  402MOL0     C54144   4.270   4.431   8.789  0.7268 -0.9554 -0.2982
  402MOL0     C54145   4.154   4.534   8.809  0.3180 -0.6020 -0.7494
  402MOL0     C54146   4.091   4.531   8.946 -1.4193  0.1568  0.2569
  402MOL0     C54147   4.038   4.390   8.987 -0.4289 -0.4227  0.4492
  402MOL0     C54148   3.926   4.423   9.089  0.0207  0.3635 -0.8515
  402MOL0     C54149   3.890   4.292   9.177  0.6537 -0.6599 -0.0133
  402MOL0     C54150   3.861   4.164   9.087  1.1954 -1.0196 -0.2994
  402MOL0     C54151   3.749   4.192   8.989 -0.0767  0.0134  0.1165
  402MOL0     N54152   3.671   4.071   8.957  0.5440  0.0330 -0.0531
  402MOL0     C54153   3.539   4.071   8.928  0.3523  0.3620 -0.6857
  402MOL0     C54154   3.520   3.957   8.862  0.6436 -0.2720  0.5801
  402MOL0     C54155   3.381   3.922   8.810 -0.4892  0.7726 -0.1370
  402MOL0     C54156   3.354   3.953   8.663 -0.5700  1.3668 -0.5626
  402MOL0     C54157   3.203   3.949   8.651  0.3812  0.4490 -0.2423
  402MOL0     C54158   3.148   3.814   8.668  0.2860  0.1844 -0.1255
  402MOL0     O54159   3.019   3.814   8.603  0.3926 -0.4700 -0.1335
  402MOL0     C54160   2.950   3.700   8.589  0.0476  0.0223  0.2294
  402MOL0     C54161   3.002   3.601   8.492  0.7090  0.2909 -0.5544
  402MOL0     C54162   2.933   3.484   8.481 -0.7475 -0.2413  0.6312
  402MOL0     C54163   2.809   3.451   8.554 -0.1556 -0.1098 -0.1182
  402MOL0     C54164   2.738   3.319   8.530  0.2397 -0.3665  0.3503
  402MOL0     O54165   2.598   3.320   8.539  0.2244  1.2735 -0.5328
  402MOL0     C54166   2.519   3.211   8.504 -0.7955  0.2303 -0.5665
  402MOL0     C54167   2.515   3.157   8.373  0.3205  0.2291  0.5671
  402MOL0     C54168   2.426   3.059   8.329  0.4142 -0.5380  0.3300
  402MOL0     C54169   2.342   3.001   8.423 -0.4324 -0.2311  0.4366
  402MOL0     O54170   2.236   2.908   8.395 -0.3130 -0.3272 -0.4565
  402MOL0     C54171   2.254   2.818   8.288 -0.0087 -0.4475 -0.2543
  402MOL0     C54172   2.122   2.771   8.228  0.4330  0.2950 -0.3753
  402MOL0     C54173   2.148   2.679   8.108  0.5789 -0.5474 -0.4301
  402MOL0     C54174   2.008   2.657   8.034  0.4151 -0.0447  0.4260
  402MOL0     C54175   2.036   2.612   7.893  0.3669 -0.7252 -0.3070
  402MOL0     C54176   1.915   2.602   7.804  1.0594 -0.4753 -0.7127
  402MOL0     C54177   1.958   2.554   7.667 -0.0053  0.1478 -0.5213
  402MOL0     C54178   2.048   2.653   7.584  0.6055  0.4076 -0.4151
  402MOL0    Cl54179   2.221   2.617   7.624  0.2001 -0.0620  0.3529
  402MOL0     C54180   2.346   3.051   8.549  0.8017  0.5343 -0.4776
  402MOL0     C54181   2.434   3.156   8.598  0.3774  0.5115  0.9817
  402MOL0     O54182   2.804   3.230   8.485  0.6604 -1.0170  0.0663
  402MOL0     C54183   2.756   3.553   8.638  0.2576 -0.9589 -0.0095
  402MOL0     C54184   2.830   3.671   8.657 -0.6395 -0.4645  0.4297
  402MOL0     N54185   3.639   3.882   8.866 -0.4207 -0.5872  0.5821
  402MOL0     N54186   3.731   3.958   8.929 -0.8373  0.0631 -0.2072
  402MOL0     C54187   4.437   4.216   8.918 -0.0581 -0.0058 -0.6852
  402MOL0     C54188   4.530   4.129   8.977  0.2261 -0.6471  0.0972
  402MOL0     C54189   4.845   3.942   9.238 -0.8712 -1.1608  0.5564
  402MOL0     C54190   4.978   3.956   9.217  0.1530  0.3410 -0.3943
  402MOL0     C54191   5.067   3.892   9.304 -0.1848 -0.0070  0.2049
  402MOL0     C54192   5.026   3.837   9.417  0.2256  0.4057 -0.3811
  402MOL0     O54193   5.104   3.767   9.504  0.5970  0.7693  0.4508
  402MOL0     C54194   5.241   3.810   9.503  0.1230 -0.3350  0.2355
  402MOL0     C54195   5.313   3.755   9.619 -0.1802  0.8629 -0.3179
  402MOL0     C54196   5.249   3.797   9.749 -0.8290  0.5981  0.2824
  402MOL0     C54197   5.190   3.679   9.825  0.7087 -0.6156 -0.6075
  402MOL0     C54198   5.293   3.580   9.873 -0.5015 -1.4856 -0.2101
  402MOL0     C54199   5.345   3.492   9.931 -0.4536 -0.2461 -0.3372
  402MOL0     C54200   4.895   3.834   9.448  0.4670 -0.4281  0.1194
  402MOL0     C54201   4.793   3.883   9.354 -0.2328 -1.0320 -0.6297
  402MOL0     C54202   4.643   3.872   9.381 -1.7257  0.0509 -0.1452
  402MOL0     H54203   4.616   4.332   9.232  1.1545 -2.2645 -0.7926
  402MOL0     H54204   4.496   4.491   9.095 -0.1428  0.0265 -1.6440
  402MOL0     H54205   4.326   4.451   8.697  3.1846 -1.4111  1.0021
  402MOL0     H54206   4.219   4.335   8.789 -2.2497  0.5090 -0.8804
  402MOL0     H54207   4.071   4.527   8.737 -0.7219  1.3382  0.1811
  402MOL0     H54208   4.197   4.634   8.807 -0.2492 -0.3443 -0.2590
  402MOL0     H54209   4.017   4.612   8.943  0.4060  1.9516 -4.0037
  402MOL0     H54210   4.160   4.570   9.022 -1.9411  0.3068  0.6593
  402MOL0     H54211   3.991   4.333   8.906  0.6286  0.0799 -0.5485
  402MOL0     H54212   4.118   4.333   9.035  0.5854  1.4757  1.1065
  402MOL0     H54213   3.960   4.507   9.151  2.6960 -0.1361 -1.5008
  402MOL0     H54214   3.838   4.467   9.040  2.1795  0.6096 -4.9432
  402MOL0     H54215   3.976   4.269   9.240 -0.5094 -0.3984  1.7215
  402MOL0     H54216   3.799   4.324   9.227  1.1726  0.0759  0.4792
  402MOL0     H54217   3.821   4.077   9.138 -1.9394  0.3076 -0.2908
  402MOL0     H54218   3.956   4.133   9.042  0.1208 -1.4078 -2.4049
  402MOL0     H54219   3.678   4.257   9.042 -1.5933 -1.6815  0.2416
  402MOL0     H54220   3.790   4.252   8.907 -1.2949  2.9644  1.5056
  402MOL0     H54221   3.459   4.142   8.947  1.4141  1.1486  1.1389
  402MOL0     H54222   3.360   3.819   8.842  1.8249  0.6740  1.2555
  402MOL0     H54223   3.314   3.982   8.872 -0.9145  1.0615 -0.8680
  402MOL0     H54224   3.384   4.053   8.630 -1.2030  1.5198 -0.6875
  402MOL0     H54225   3.411   3.885   8.598  1.3594  3.1170 -0.8267
  402MOL0     H54226   3.175   3.983   8.551 -4.0396 -1.1679  0.2210
  402MOL0     H54227   3.143   4.009   8.720 -0.9753 -0.4366 -0.6351
  402MOL0     H54228   3.130   3.804   8.775 -0.7069 -0.6445 -0.3507
  402MOL0     H54229   3.212   3.736   8.624 -1.7792 -0.6564 -1.8369
  402MOL0     H54230   3.090   3.632   8.436 -0.9757  1.7208 -2.5863
  402MOL0     H54231   2.979   3.419   8.407 -1.1596 -0.0969  0.2426
  402MOL0     H54232   2.578   3.209   8.302 -1.1558  0.8550 -0.3463
  402MOL0     H54233   2.426   3.033   8.224  1.8681 -2.7785  0.8106
  402MOL0     H54234   2.323   2.860   8.214  0.4879  1.4384  1.1865
  402MOL0     H54235   2.303   2.727   8.323 -0.1343  0.5444  2.7990
  402MOL0     H54236   2.055   2.716   8.295  0.1055  0.0515 -0.8981
  402MOL0     H54237   2.058   2.853   8.193 -3.3980 -2.9089 -1.6421
  402MOL0     H54238   2.209   2.727   8.031 -0.8900  0.8353 -0.7915
  402MOL0     H54239   2.197   2.588   8.142  2.7109  1.1337  1.2888
  402MOL0     H54240   1.945   2.747   8.034 -2.2451 -1.7875 -1.6697
  402MOL0     H54241   1.950   2.578   8.082  0.4062  0.5275  1.3898
  402MOL0     H54242   2.095   2.520   7.883  0.3401 -0.6531 -1.1980
  402MOL0     H54243   2.091   2.700   7.858 -0.9969  0.6127  0.7654
  402MOL0     H54244   1.849   2.525   7.846  2.7143 -0.7311  1.6169
  402MOL0     H54245   1.850   2.690   7.796 -1.2687 -2.2511 -3.6937
  402MOL0     H54246   1.874   2.535   7.600 -1.6314  2.1449  0.8555
  402MOL0     H54247   2.017   2.461   7.674  3.1615  2.0311  0.0109
  402MOL0     H54248   2.031   2.638   7.477 -0.4823 -0.5034 -0.1266
  402MOL0     H54249   2.017   2.756   7.603 -1.1933  0.5552 -3.5415
  402MOL0     H54250   2.264   3.016   8.611  0.8918 -0.0717 -0.6883
  402MOL0     H54251   2.434   3.190   8.701 -1.7749  1.5911  0.6910
  402MOL0     H54252   2.682   3.534   8.715 -0.4514  1.5886  0.0159
  402MOL0     H54253   2.799   3.747   8.728  0.6172  1.6561 -1.1823
  402MOL0     H54254   4.369   4.167   8.850  0.7500 -2.5736  0.2640
  402MOL0     H54255   4.523   4.031   8.930  1.1059  0.1972 -1.9363
  402MOL0     H54256   5.010   4.005   9.126  0.8392 -1.1255 -0.9847
  402MOL0     H54257   5.169   3.894   9.265 -1.2201  0.6303 -2.6759
  402MOL0     H54258   5.245   3.919   9.499 -3.7414 -0.0773 -1.2103
  402MOL0     H54259   5.301   3.774   9.419  0.4768 -2.2868  1.2745
  402MOL0     H54260   5.419   3.781   9.629  0.3674 -1.1490 -0.4373
  402MOL0     H54261   5.315   3.646   9.611 -3.7429  0.8347 -4.0757
  402MOL0     H54262   5.160   3.859   9.733 -1.0201  0.3872  0.5352
  402MOL0     H54263   5.328   3.842   9.810  0.0445 -0.4101 -0.0930
  402MOL0     H54264   5.128   3.708   9.910 -1.3159 -0.7893 -1.9566
  402MOL0     H54265   5.126   3.619   9.760 -1.5153  1.7408 -0.7493
  402MOL0     H54266   5.385   3.407   9.983  1.0833  1.1031  0.7756
  402MOL0     H54267   4.867   3.795   9.545  0.7453 -1.8681 -0.3508
  402MOL0     H54268   4.596   3.959   9.428 -1.3067  0.5194 -0.5814
  402MOL0     H54269   4.596   3.833   9.291 -0.2939  2.3661 -2.0328
  402MOL0     H54270   4.641   3.794   9.458  1.3033  1.1733  1.2585
  403MOL0     O54271   3.182   4.763   1.836 -0.1718  0.2476  0.2961
  403MOL0     C54272   3.140   4.752   1.949  0.4079  0.5195  0.1410
  403MOL0     O54273   3.035   4.677   1.978  0.8189  0.4231 -0.0582
  403MOL0     C54274   2.987   4.579   1.894  0.1800  0.9903 -0.2583
  403MOL0     C54275   2.853   4.596   1.838 -0.4388  0.1540 -0.2426
  403MOL0     C54276   2.792   4.506   1.752 -0.3361  0.2204 -0.6299
  403MOL0     C54277   2.869   4.394   1.718  0.2484 -0.0103 -1.2287
  403MOL0     O54278   2.807   4.316   1.626  0.0384  0.6931  0.5968
  403MOL0     C54279   2.883   4.231   1.529  1.8086 -0.4048 -0.7711
  403MOL0     C54280   2.818   4.091   1.503 -0.0995  0.0985  1.0188
  403MOL0     C54281   2.825   4.008   1.625 -0.2208 -0.1768  0.6349
  403MOL0     C54282   2.784   3.856   1.602  0.6067 -0.0573 -0.3946
  403MOL0     C54283   2.854   3.757   1.706  0.5287  0.6532  0.5903
  403MOL0     C54284   2.832   3.808   1.848 -0.0491  0.8786 -0.0979
  403MOL0     C54285   2.923   3.732   1.942  1.1477  0.3321 -0.3612
  403MOL0     C54286   2.886   3.760   2.084  0.1481  0.0292 -0.0304
  403MOL0     N54287   2.909   3.646   2.180  0.9720 -0.0207  0.0860
  403MOL0     C54288   2.856   3.519   2.171  0.0707 -0.2106  0.4823
  403MOL0     C54289   2.883   3.463   2.291 -0.0901 -0.3414  0.1359
  403MOL0     C54290   2.863   3.319   2.340 -0.1598  0.1709  0.4458
  403MOL0     C54291   2.799   3.305   2.478  0.5505 -0.2638 -0.0835
  403MOL0     C54292   2.791   3.154   2.509  0.0542 -0.9833  0.1811
  403MOL0     C54293   2.904   3.117   2.601 -0.3998  0.5600 -0.2164
  403MOL0     O54294   2.898   2.975   2.611 -0.1563  0.3268  0.3211
  403MOL0     C54295   2.970   2.917   2.712 -0.2706  0.1858 -0.6514
  403MOL0     C54296   3.110   2.927   2.736 -0.3201 -1.3843 -0.4980
  403MOL0     C54297   3.161   2.861   2.848  0.0116  0.9390  0.2234
  403MOL0     C54298   3.082   2.774   2.929  0.0476  0.9799  1.0882
  403MOL0     C54299   3.139   2.705   3.040 -0.5496  0.2243 -0.2607
  403MOL0     O54300   3.069   2.592   3.079  0.0743 -0.2280 -0.5944
  403MOL0     C54301   3.131   2.513   3.173 -0.5786 -0.6522 -0.8490
  403MOL0     C54302   3.055   2.471   3.285 -0.5801 -0.0636 -0.5564
  403MOL0     C54303   3.113   2.393   3.385 -0.3669  0.3146  0.3946
  403MOL0     C54304   3.241   2.352   3.387  0.0359  0.3392 -0.3151
  403MOL0     O54305   3.282   2.271   3.482 -1.0068  0.7478  0.3891
  403MOL0     C54306   3.421   2.279   3.520 -0.1756  1.2188 -0.6343
  403MOL0     C54307   3.426   2.194   3.651 -0.8202 -0.8134  1.2064
  403MOL0     C54308   3.347   2.249   3.765  0.0854 -0.8195  0.3096
  403MOL0     C54309   3.396   2.227   3.901 -0.0677 -1.2815 -0.4075
  403MOL0     C54310   3.305   2.305   4.008 -0.2741  0.2873 -0.6032
  403MOL0     C54311   3.156   2.269   3.992 -1.0035  0.9565  0.0975
  403MOL0     C54312   3.078   2.330   4.113  0.8552  1.0317  0.7352
  403MOL0     C54313   2.932   2.287   4.118 -0.2235  0.0176 -1.5362
  403MOL0    Cl54314   2.936   2.108   4.127 -0.0481  0.0769 -0.1718
  403MOL0     C54315   3.319   2.391   3.270 -0.5649  0.2196 -0.5554
  403MOL0     C54316   3.271   2.474   3.171  1.1894 -0.6110  1.0857
  403MOL0     O54317   3.248   2.742   3.082 -0.6622 -0.0548 -0.7809
  403MOL0     C54318   2.948   2.755   2.894 -0.0534  0.6877  0.7754
  403MOL0     C54319   2.888   2.835   2.789 -1.1394  0.0811  0.0016
  403MOL0     N54320   2.932   3.553   2.375 -0.4571  0.0252 -0.0176
  403MOL0     N54321   2.956   3.662   2.307 -0.5620  0.3906  0.3729
  403MOL0     C54322   3.001   4.375   1.772  0.5694 -0.8845 -0.1603
  403MOL0     C54323   3.056   4.471   1.858 -0.6376  0.0751  0.0808
  403MOL0     C54324   3.188   4.857   2.050 -0.1819 -0.2666  0.7565
  403MOL0     C54325   3.221   4.817   2.179  0.1532  0.4746  0.2344
  403MOL0     C54326   3.250   4.906   2.278 -0.8924 -0.3775 -0.1651
  403MOL0     C54327   3.226   5.037   2.254 -0.2228  0.2425 -0.2534
  403MOL0     O54328   3.239   5.118   2.367  0.0574 -0.2278 -0.3018
  403MOL0     C54329   3.128   5.222   2.382 -0.6342  0.4953  1.3927
  403MOL0     C54330   3.080   5.211   2.524  0.4134  0.1440 -0.0358
  403MOL0     C54331   3.072   5.062   2.573 -0.2549 -0.6164  0.2030
  403MOL0     C54332   2.961   5.047   2.685  0.3922 -0.7661 -0.0944
  403MOL0     C54333   2.833   5.069   2.630  0.6059  0.2256  0.2036
  403MOL0     C54334   2.733   5.106   2.568  1.3675  0.7140 -0.6372
  403MOL0     C54335   3.193   5.090   2.127 -0.5650 -1.2235 -0.4171
  403MOL0     C54336   3.187   4.997   2.025 -0.3306  0.9864  0.3816
  403MOL0     C54337   3.168   5.062   1.890 -0.1448 -0.1778  0.1165
  403MOL0     H54338   2.792   4.682   1.863  2.2608  2.8946 -2.2548
  403MOL0     H54339   2.696   4.513   1.702 -1.4509 -0.2754  1.3497
  403MOL0     H54340   2.868   4.293   1.439  0.8130  3.6270  1.9117
  403MOL0     H54341   2.987   4.211   1.552  1.8428 -4.0603 -3.3071
  403MOL0     H54342   2.865   4.044   1.416 -4.2202 -1.6692 -0.4956
  403MOL0     H54343   2.719   4.119   1.466  0.5685  2.6638  1.0026
  403MOL0     H54344   2.758   4.046   1.703 -1.8868 -1.7275  0.0323
  403MOL0     H54345   2.929   4.013   1.657  0.1164  0.2372 -0.4657
  403MOL0     H54346   2.676   3.852   1.613  0.4341 -2.1703 -2.3096
  403MOL0     H54347   2.805   3.835   1.497 -1.8890 -0.3315 -0.8803
  403MOL0     H54348   2.807   3.659   1.695 -0.8614  1.3815 -0.3339
  403MOL0     H54349   2.959   3.753   1.675  0.1540  1.8254 -0.9808
  403MOL0     H54350   2.857   3.914   1.860 -3.1269  1.6760  0.2051
  403MOL0     H54351   2.728   3.791   1.879  0.4697 -1.8741  0.3660
  403MOL0     H54352   3.027   3.756   1.919  0.5487  2.3871 -1.1003
  403MOL0     H54353   2.902   3.626   1.922 -3.2028  1.0136 -0.2193
  403MOL0     H54354   2.932   3.852   2.119 -0.7900 -1.1692  5.1755
  403MOL0     H54355   2.779   3.782   2.087 -0.1177 -1.2919  1.5269
  403MOL0     H54356   2.812   3.467   2.087 -2.4782 -3.8705  3.6810
  403MOL0     H54357   2.811   3.270   2.257 -1.2048  3.6766 -1.1757
  403MOL0     H54358   2.953   3.258   2.350 -1.5992 -1.8591  1.9414
  403MOL0     H54359   2.855   3.350   2.560  1.8186 -1.7337 -0.1014
  403MOL0     H54360   2.697   3.344   2.492 -0.2623 -2.5104  0.6364
  403MOL0     H54361   2.800   3.083   2.426 -0.1523 -1.8711  0.9123
  403MOL0     H54362   2.700   3.139   2.568  0.3531 -1.0352  0.6315
  403MOL0     H54363   2.891   3.174   2.693  1.3069 -2.1922  1.8694
  403MOL0     H54364   3.001   3.147   2.561  0.7218 -0.2886  1.7541
  403MOL0     H54365   3.182   2.985   2.680 -1.1980 -1.5170 -1.8080
  403MOL0     H54366   3.269   2.863   2.863  0.2185  3.3476 -1.1413
  403MOL0     H54367   2.952   2.490   3.311 -1.0356 -0.6734 -1.8278
  403MOL0     H54368   3.058   2.363   3.474 -0.6636 -0.7942 -0.1412
  403MOL0     H54369   3.489   2.234   3.448  1.0414  2.0364 -0.0325
  403MOL0     H54370   3.457   2.381   3.539 -0.9335  0.8022  4.6136
  403MOL0     H54371   3.405   2.090   3.628  1.0647 -0.8611 -0.6100
  403MOL0     H54372   3.533   2.189   3.674 -0.4758  0.6803  0.1417
  403MOL0     H54373   3.343   2.355   3.739  1.3641 -0.6976  0.5305
  403MOL0     H54374   3.250   2.199   3.765 -1.4879  2.0364  0.3275
  403MOL0     H54375   3.495   2.271   3.918 -0.8340  0.2082  0.4681
  403MOL0     H54376   3.397   2.121   3.928  0.6439 -1.6792 -1.8850
  403MOL0     H54377   3.307   2.414   4.001  0.4512  0.3055 -0.2008
  403MOL0     H54378   3.341   2.277   4.108  0.0492 -2.0348 -1.2933
  403MOL0     H54379   3.114   2.310   3.899  0.0424  1.2568 -0.2537
  403MOL0     H54380   3.138   2.161   3.984  2.6489  0.3535 -2.0555
  403MOL0     H54381   3.077   2.439   4.105  1.9997  0.9656 -0.9724
  403MOL0     H54382   3.121   2.325   4.214 -0.4783 -0.6256  1.2705
  403MOL0     H54383   2.889   2.336   4.206  4.0271  2.4009 -0.4879
  403MOL0     H54384   2.892   2.318   4.022  0.2121  1.9657 -1.1235
  403MOL0     H54385   3.425   2.367   3.272 -0.6274 -0.2810  3.0086
  403MOL0     H54386   3.339   2.505   3.092 -2.0254 -2.1176 -2.6287
  403MOL0     H54387   2.878   2.702   2.958  2.2233 -3.7390  0.0082
  403MOL0     H54388   2.781   2.829   2.772 -0.8053  0.8961 -2.7475
  403MOL0     H54389   3.056   4.284   1.749 -0.1431 -1.1574 -0.8344
  403MOL0     H54390   3.156   4.458   1.899  0.0324  1.7458 -0.9113
  403MOL0     H54391   3.216   4.711   2.198  0.3472  0.2354 -0.9360
  403MOL0     H54392   3.277   4.860   2.373 -3.2693 -0.0482  0.7358
  403MOL0     H54393   3.046   5.208   2.311 -0.3908  3.3676  0.4034
  403MOL0     H54394   3.165   5.320   2.352  3.6232 -1.4055 -0.5110
  403MOL0     H54395   2.979   5.255   2.517  0.1067 -0.7085 -1.1894
  403MOL0     H54396   3.155   5.262   2.585  1.7051 -3.4809  1.7042
  403MOL0     H54397   3.169   5.032   2.615  0.5978  0.6488 -0.7608
  403MOL0     H54398   3.049   4.991   2.494  1.5547 -1.2941  0.2237
  403MOL0     H54399   2.966   4.944   2.722 -3.6841 -3.0457 -4.6833
  403MOL0     H54400   2.976   5.123   2.762 -4.5650 -1.3240  1.7985
  403MOL0     H54401   2.645   5.129   2.511 -1.2124 -3.5178  1.1046
  403MOL0     H54402   3.181   5.198   2.116  3.6475 -0.3818  1.0853
  403MOL0     H54403   3.158   5.171   1.890  2.5909  0.1506  0.6479
  403MOL0     H54404   3.250   5.043   1.820  1.8277  1.4995  1.8157
  403MOL0     H54405   3.072   5.025   1.853 -1.9297  1.8848  2.3658
  404MOL0     O54406   9.641   4.808   1.232 -0.3899  0.7639 -0.5982
  404MOL0     C54407   9.575   4.822   1.336  0.2843  0.8705 -1.0207
  404MOL0     O54408   9.622   4.836   1.466  1.0833 -0.4125  0.1229
  404MOL0     C54409   9.745   4.803   1.496 -0.1207 -0.0040 -0.8571
  404MOL0     C54410   9.763   4.676   1.551  0.3471 -0.0124 -0.6210
  404MOL0     C54411   9.901   4.644   1.587  0.3155  0.1903  0.6172
  404MOL0     C54412  10.006   4.726   1.555  0.5359 -0.0960 -0.2165
  404MOL0     O54413  10.133   4.703   1.602 -0.0536 -0.3624  0.2112
  404MOL0     C54414  10.207   4.591   1.553 -0.0002 -0.4060  0.9927
  404MOL0     C54415  10.309   4.643   1.453 -0.6891  0.3810 -0.0879
  404MOL0     C54416  10.398   4.540   1.387  0.5744 -0.1868 -0.0794
  404MOL0     C54417  10.532   4.603   1.343  0.1232 -0.2419  0.3229
  404MOL0     C54418  10.621   4.508   1.259 -0.5205  0.0145 -0.4143
  404MOL0     C54419  10.752   4.567   1.226  0.1532 -0.2009 -0.3328
  404MOL0     C54420  10.745   4.685   1.129  0.2414 -0.2595  0.2694
  404MOL0     C54421  10.716   4.628   0.992  0.6525  0.0043 -2.0906
  404MOL0     N54422  10.661   4.733   0.899  0.2350 -0.1161 -0.2848
  404MOL0     C54423  10.713   4.854   0.865  0.5975  0.1348 -0.1475
  404MOL0     C54424  10.617   4.912   0.790  0.0789  0.8748  0.1274
  404MOL0     C54425  10.622   5.037   0.712 -0.2838  0.5211  0.0180
  404MOL0     C54426  10.515   5.124   0.764  0.2352 -0.2199  0.5791
  404MOL0     C54427  10.530   5.171   0.905  0.6928  0.0236 -0.3651
  404MOL0     C54428  10.648   5.265   0.936 -0.6666  0.0875 -0.2676
  404MOL0     O54429  10.765   5.189   0.925  0.1103 -0.5415 -0.0157
  404MOL0     C54430  10.882   5.255   0.969  0.1790 -1.1237  0.8556
  404MOL0     C54431  10.990   5.179   0.976  0.7730 -0.3491 -1.0964
  404MOL0     C54432  11.105   5.221   1.039 -0.2370 -0.0117 -0.0885
  404MOL0     C54433  11.124   5.356   1.078 -0.3545  0.4370  0.0975
  404MOL0     C54434  11.246   5.411   1.144 -0.8746 -0.2175  0.5643
  404MOL0     O54435  11.341   5.317   1.179 -0.2677  0.6589 -0.5345
  404MOL0     C54436  11.462   5.361   1.227 -0.0352  0.1089  0.6849
  404MOL0     C54437  11.552   5.431   1.143 -0.0330 -0.6001 -0.2970
  404MOL0     C54438  11.668   5.487   1.194 -0.4029 -0.4266  0.3295
  404MOL0     C54439  11.716   5.454   1.315  0.4802 -0.0866  0.0752
  404MOL0     O54440  11.820   5.521   1.372  0.2412 -0.8723 -0.3536
  404MOL0     C54441  11.932   5.579   1.301  0.1140 -0.2771  0.4210
  404MOL0     C54442  12.063   5.545   1.373 -0.1590 -0.3493  0.5650
  404MOL0     C54443  12.082   5.628   1.496 -1.3403  1.0481 -0.4786
  404MOL0     C54444  12.212   5.592   1.575  0.5140  0.6061  0.4101
  404MOL0     C54445  12.275   5.696   1.654  0.6725  0.4246 -0.4538
  404MOL0     C54446  12.200   5.746   1.775 -0.3715  0.5530  0.1318
  404MOL0     C54447  12.290   5.848   1.855 -0.0969 -0.0334  0.1653
  404MOL0     C54448  12.213   5.895   1.987 -0.2938 -0.7732  0.6745
  404MOL0    Cl54449  12.062   5.988   1.947  0.0161 -0.3684 -0.6600
  404MOL0     C54450  11.625   5.391   1.400 -0.2185 -0.1970  0.2516
  404MOL0     C54451  11.498   5.340   1.356 -0.1954 -0.5102 -0.5374
  404MOL0     O54452  11.245   5.532   1.154 -0.8754 -0.2191 -0.3002
  404MOL0     C54453  11.014   5.438   1.063  0.0482  0.5888 -1.0735
  404MOL0     C54454  10.888   5.389   1.014 -0.8177 -0.3710  0.0201
  404MOL0     N54455  10.514   4.826   0.768  0.0719  0.6925 -0.3340
  404MOL0     N54456  10.536   4.720   0.840  0.4160  0.1761  0.1826
  404MOL0     C54457   9.983   4.854   1.509  0.4262  0.3294 -0.0777
  404MOL0     C54458   9.848   4.896   1.485 -0.4709  0.5402  1.4113
  404MOL0     C54459   9.422   4.839   1.334  0.6112 -1.6197 -0.8311
  404MOL0     C54460   9.366   4.911   1.446  0.0955  0.4186 -0.0759
  404MOL0     C54461   9.234   4.947   1.448  0.6569  0.1209 -0.0532
  404MOL0     C54462   9.150   4.902   1.339 -0.1268 -0.7655  0.6312
  404MOL0     O54463   9.016   4.931   1.330 -0.5384 -0.4124  0.0218
  404MOL0     C54464   8.972   5.016   1.440 -0.6723  0.7356 -0.1071
  404MOL0     C54465   8.827   5.003   1.438 -0.1638 -0.4682  0.2564
  404MOL0     C54466   8.779   4.857   1.428  0.3090  0.7044  0.1148
  404MOL0     C54467   8.649   4.848   1.506 -0.0045 -0.1905  0.1551
  404MOL0     C54468   8.573   4.726   1.481 -0.4542  0.5980  0.0463
  404MOL0     C54469   8.517   4.623   1.476  0.2095  0.2512 -0.0533
  404MOL0     C54470   9.210   4.835   1.239 -0.4030 -0.4950 -0.1538
  404MOL0     C54471   9.339   4.800   1.231 -1.0262 -0.0240  0.8026
  404MOL0     C54472   9.396   4.733   1.103 -0.7235  0.0347  0.6171
  404MOL0     H54473   9.681   4.608   1.571 -0.7076  1.6305  0.8922
  404MOL0     H54474   9.917   4.551   1.639 -3.6175  0.1187  2.0814
  404MOL0     H54475  10.263   4.541   1.632  0.9693 -0.1535  0.4866
  404MOL0     H54476  10.138   4.516   1.512  2.8112 -1.2162 -2.7701
  404MOL0     H54477  10.359   4.722   1.509  0.2531 -0.6220  0.5368
  404MOL0     H54478  10.244   4.683   1.375 -1.4017  0.2951  0.4507
  404MOL0     H54479  10.348   4.503   1.297 -0.7010  0.0246  0.5244
  404MOL0     H54480  10.420   4.461   1.459  0.7648  0.8950  1.0869
  404MOL0     H54481  10.513   4.699   1.295  1.0676  0.5804  1.5137
  404MOL0     H54482  10.589   4.633   1.432 -3.1806  0.7524  2.2939
  404MOL0     H54483  10.627   4.419   1.323 -0.3975 -0.0688 -0.5417
  404MOL0     H54484  10.567   4.476   1.170 -1.0791  1.6416 -0.6898
  404MOL0     H54485  10.806   4.597   1.316 -0.6483 -0.3670  0.2158
  404MOL0     H54486  10.816   4.488   1.186  1.6391  0.3971  0.8085
  404MOL0     H54487  10.840   4.738   1.127 -1.6758  3.4814  0.3978
  404MOL0     H54488  10.664   4.752   1.160 -0.5116 -0.7224 -0.6437
  404MOL0     H54489  10.806   4.583   0.949  1.0271 -1.1885 -0.2066
  404MOL0     H54490  10.637   4.552   0.999  0.1152  0.5583  4.9705
  404MOL0     H54491  10.794   4.906   0.915  0.3986  0.0925  0.2240
  404MOL0     H54492  10.720   5.086   0.710 -0.3748  0.6943 -0.5960
  404MOL0     H54493  10.604   5.003   0.609  0.6172 -3.2258  0.9515
  404MOL0     H54494  10.509   5.204   0.690 -0.3085 -1.3771 -0.6648
  404MOL0     H54495  10.421   5.069   0.763 -0.8219  1.4932 -0.2869
  404MOL0     H54496  10.515   5.086   0.973 -0.5315  1.6231  1.4514
  404MOL0     H54497  10.437   5.226   0.914  0.3039 -0.1528 -2.7580
  404MOL0     H54498  10.624   5.298   1.037 -0.7006 -1.6249  0.3157
  404MOL0     H54499  10.653   5.348   0.865  0.2060  0.0052 -0.3074
  404MOL0     H54500  10.992   5.075   0.946 -2.5712 -0.4743 -1.2236
  404MOL0     H54501  11.179   5.141   1.042 -0.4460 -0.3534 -2.4662
  404MOL0     H54502  11.510   5.450   1.044 -3.6171 -0.8093  1.0435
  404MOL0     H54503  11.721   5.554   1.126 -0.9634 -1.1538 -0.8427
  404MOL0     H54504  11.935   5.549   1.196  0.6934  0.7831  0.1174
  404MOL0     H54505  11.905   5.685   1.291 -0.2636 -0.3522  0.6284
  404MOL0     H54506  12.048   5.438   1.390  0.8833 -0.4846  0.6700
  404MOL0     H54507  12.151   5.559   1.309  0.3123  3.4146  1.7664
  404MOL0     H54508  12.090   5.727   1.451 -2.5423  0.2232 -2.6976
  404MOL0     H54509  11.993   5.619   1.560  1.0073 -0.4556  2.8228
  404MOL0     H54510  12.292   5.573   1.503 -0.9071  3.1043 -2.0445
  404MOL0     H54511  12.194   5.507   1.642  2.5921  1.1906  1.8105
  404MOL0     H54512  12.285   5.792   1.602 -0.7709  2.5476  2.8065
  404MOL0     H54513  12.375   5.660   1.680  0.2307 -0.4523  0.0459
  404MOL0     H54514  12.106   5.798   1.754  0.8179  3.0558  0.6148
  404MOL0     H54515  12.185   5.658   1.837  0.5875  1.4947  1.7564
  404MOL0     H54516  12.312   5.929   1.784  0.2605 -2.2297 -2.4036
  404MOL0     H54517  12.389   5.812   1.883  1.2054  1.0432 -2.6326
  404MOL0     H54518  12.177   5.806   2.038  0.1536 -0.4696  1.5244
  404MOL0     H54519  12.280   5.959   2.045 -0.2556  0.6794 -0.8693
  404MOL0     H54520  11.641   5.369   1.506 -1.4293  1.6360  0.8651
  404MOL0     H54521  11.432   5.301   1.433  1.8229 -0.4109  1.3554
  404MOL0     H54522  11.006   5.537   1.106 -0.8901 -1.4457  4.2174
  404MOL0     H54523  10.799   5.451   1.008 -1.4819 -1.4187 -1.8955
  404MOL0     H54524  10.067   4.916   1.481  1.5453 -1.1282 -0.0977
  404MOL0     H54525   9.830   5.000   1.462  2.3415  0.7040 -0.4781
  404MOL0     H54526   9.434   4.944   1.524 -0.5817 -1.6238  1.4603
  404MOL0     H54527   9.200   4.991   1.541  0.3706 -1.4372  0.6215
  404MOL0     H54528   9.008   5.118   1.422  2.9709 -0.5673 -1.1483
  404MOL0     H54529   8.994   4.980   1.541  1.4736 -3.8823 -1.9085
  404MOL0     H54530   8.798   5.049   1.343 -1.0145 -1.3958  0.0488
  404MOL0     H54531   8.797   5.070   1.519  0.0927  0.8693 -0.7104
  404MOL0     H54532   8.850   4.782   1.464 -1.6101 -2.0256 -1.3756
  404MOL0     H54533   8.746   4.821   1.330 -3.0855 -1.8730  1.9879
  404MOL0     H54534   8.664   4.862   1.614  0.3925 -1.1596  0.2391
  404MOL0     H54535   8.587   4.934   1.481 -1.4891 -0.7338  1.7252
  404MOL0     H54536   8.485   4.521   1.483 -1.8296  0.9841  3.8386
  404MOL0     H54537   9.137   4.799   1.166  0.5116  0.6789 -1.7190
  404MOL0     H54538   9.474   4.790   1.053 -0.4046  0.6799  1.8135
  404MOL0     H54539   9.444   4.635   1.116 -0.6903 -0.1629 -0.8673
  404MOL0     H54540   9.309   4.739   1.036 -0.3899  2.7909  0.3047
  405MOL0     O54541   7.284   7.830   6.763 -0.8089 -0.4470  1.3519
  405MOL0     C54542   7.393   7.803   6.728 -0.3535  0.6278 -0.2587
  405MOL0     O54543   7.475   7.717   6.797  0.0997 -0.5299 -0.3242
  405MOL0     C54544   7.421   7.655   6.915 -0.2315 -0.1811 -0.7452
  405MOL0     C54545   7.314   7.568   6.907 -0.1082  0.1249 -0.3867
  405MOL0     C54546   7.285   7.489   7.017 -0.1138 -0.6417 -0.2594
  405MOL0     C54547   7.359   7.491   7.136  0.0521  0.1514  1.0761
  405MOL0     O54548   7.304   7.413   7.236 -0.1040 -0.3037 -0.5625
  405MOL0     C54549   7.321   7.466   7.373 -0.0846 -0.3537 -0.6829
  405MOL0     C54550   7.306   7.345   7.467  0.5097 -0.0895 -0.9665
  405MOL0     C54551   7.411   7.233   7.430  0.5833 -0.4163 -0.1208
  405MOL0     C54552   7.415   7.118   7.532  0.3391  0.3872 -0.0006
  405MOL0     C54553   7.490   6.993   7.509 -0.4658 -0.4225  0.6031
  405MOL0     C54554   7.459   6.934   7.354 -0.5464  0.2992  0.5702
  405MOL0     C54555   7.490   6.786   7.344 -0.7078  0.5350  0.7087
  405MOL0     C54556   7.471   6.729   7.200 -0.4551 -0.2742 -0.0692
  405MOL0     N54557   7.484   6.580   7.209  0.6027 -0.4073  0.0841
  405MOL0     C54558   7.603   6.505   7.225  0.7711 -0.9960 -0.9982
  405MOL0     C54559   7.575   6.375   7.226  0.3420  0.4228 -0.1193
  405MOL0     C54560   7.672   6.259   7.260  0.1698  0.0480  0.0617
  405MOL0     C54561   7.789   6.246   7.162  0.3080  0.6656 -0.1198
  405MOL0     C54562   7.757   6.188   7.014 -0.2209  0.6093 -0.3052
  405MOL0     C54563   7.879   6.173   6.910 -0.3480  0.2054  0.7115
  405MOL0     O54564   7.835   6.162   6.772  0.0636  0.5369 -0.6836
  405MOL0     C54565   7.920   6.184   6.663 -1.2789 -0.0874 -0.8154
  405MOL0     C54566   8.051   6.226   6.694 -1.2988  0.3802  1.0369
  405MOL0     C54567   8.136   6.260   6.589  0.0440  0.5064  0.1618
  405MOL0     C54568   8.088   6.273   6.458 -0.0667 -0.6838 -0.8474
  405MOL0     C54569   8.160   6.337   6.349 -0.5422 -1.7979 -0.4578
  405MOL0     O54570   8.147   6.274   6.233 -0.2979  0.1563  0.1702
  405MOL0     C54571   8.229   6.299   6.130  0.6814  0.4822  0.5434
  405MOL0     C54572   8.338   6.221   6.122 -0.2232 -0.1031 -0.3937
  405MOL0     C54573   8.426   6.248   6.018 -0.6302 -0.3069 -0.2425
  405MOL0     C54574   8.398   6.333   5.914 -0.6210 -0.0980  0.4270
  405MOL0     O54575   8.491   6.357   5.813  0.3370  0.4313  0.1493
  405MOL0     C54576   8.447   6.437   5.700 -0.1230  0.9693  0.0805
  405MOL0     C54577   8.559   6.455   5.605  0.3814 -0.0682 -0.3596
  405MOL0     C54578   8.521   6.557   5.498 -1.0042  0.6036 -0.2473
  405MOL0     C54579   8.628   6.561   5.387  0.0275 -0.4058 -0.5582
  405MOL0     C54580   8.578   6.638   5.271  0.5313  0.2362 -0.1705
  405MOL0     C54581   8.677   6.638   5.155  0.4224  0.3439 -0.1897
  405MOL0     C54582   8.662   6.729   5.040 -0.2095 -0.1176 -0.2162
  405MOL0     C54583   8.737   6.689   4.917  0.9013  0.1707 -0.0683
  405MOL0    Cl54584   8.912   6.678   4.953 -0.1579 -0.2376 -0.1043
  405MOL0     C54585   8.291   6.415   5.927  1.0594 -0.3165  0.9134
  405MOL0     C54586   8.200   6.401   6.033  0.3559  0.1744 -1.2237
  405MOL0     O54587   8.240   6.432   6.365  0.6374  0.3012 -0.9934
  405MOL0     C54588   7.960   6.242   6.434 -0.3367 -0.1710  0.3097
  405MOL0     C54589   7.879   6.202   6.534  0.5263  0.4324 -0.0032
  405MOL0     N54590   7.434   6.362   7.204 -0.5301  0.0720 -0.3862
  405MOL0     N54591   7.392   6.483   7.191 -0.5171 -0.0106 -0.1353
  405MOL0     C54592   7.475   7.562   7.141  0.3986 -0.5349 -0.1462
  405MOL0     C54593   7.507   7.641   7.028  0.3960 -0.2616 -0.4783
  405MOL0     C54594   7.437   7.839   6.592  0.4723 -0.3838  0.4398
  405MOL0     C54595   7.529   7.755   6.532 -0.0532 -0.5857 -1.3634
  405MOL0     C54596   7.575   7.763   6.405  0.4047  0.9243  0.8620
  405MOL0     C54597   7.538   7.867   6.321  0.6522  0.0434 -0.0312
  405MOL0     O54598   7.573   7.882   6.193 -0.0497 -0.3855  0.0064
  405MOL0     C54599   7.672   7.797   6.128  0.2788  1.0540 -0.0479
  405MOL0     C54600   7.627   7.657   6.085  0.2387 -1.1885 -0.9823
  405MOL0     C54601   7.738   7.588   6.022 -0.3787 -0.0261  0.0006
  405MOL0     C54602   7.689   7.445   5.988  0.3273 -0.6807 -0.6997
  405MOL0     C54603   7.808   7.369   5.934 -0.1243 -0.3317 -0.7629
  405MOL0     C54604   7.898   7.297   5.907  0.2051  0.1572 -0.0795
  405MOL0     C54605   7.444   7.964   6.380 -0.5924 -0.0975  0.7564
  405MOL0     C54606   7.392   7.951   6.513  0.0309  0.6185  0.0336
  405MOL0     C54607   7.310   8.057   6.558 -0.0025 -0.3794 -0.3379
  405MOL0     H54608   7.260   7.568   6.813 -1.4840  2.4089  0.3328
  405MOL0     H54609   7.206   7.415   7.015 -0.2560 -0.5193  0.6858
  405MOL0     H54610   7.419   7.515   7.383 -1.8445  3.2966  0.2783
  405MOL0     H54611   7.243   7.539   7.395  2.8967  2.9674 -0.1528
  405MOL0     H54612   7.207   7.300   7.458 -0.5969  1.6386  1.4955
  405MOL0     H54613   7.327   7.367   7.572  2.7708  0.6911 -1.5278
  405MOL0     H54614   7.514   7.267   7.413 -0.1659  1.3334 -1.5226
  405MOL0     H54615   7.382   7.191   7.334 -2.0201  4.2584 -1.6586
  405MOL0     H54616   7.433   7.174   7.624 -0.5253 -2.1873  1.8541
  405MOL0     H54617   7.311   7.088   7.548  0.6932 -1.4177 -0.8101
  405MOL0     H54618   7.593   7.022   7.532 -0.0572 -1.7172  0.4923
  405MOL0     H54619   7.470   6.914   7.582 -1.2386 -0.2841  0.5409
  405MOL0     H54620   7.354   6.952   7.329 -0.8430  1.8465  2.6563
  405MOL0     H54621   7.521   6.990   7.283 -0.4186 -0.1166  0.3503
  405MOL0     H54622   7.427   6.730   7.413  0.8647  1.4562  3.0151
  405MOL0     H54623   7.595   6.764   7.364 -1.0785  1.7569  4.9422
  405MOL0     H54624   7.373   6.757   7.162  0.7866  2.1426 -1.7799
  405MOL0     H54625   7.544   6.786   7.142 -0.2125 -1.7234 -1.2376
  405MOL0     H54626   7.693   6.556   7.258 -0.1309  0.8879 -1.2764
  405MOL0     H54627   7.721   6.283   7.355  0.5206 -1.2192  0.2227
  405MOL0     H54628   7.612   6.172   7.287  0.2313 -0.1103 -0.3070
  405MOL0     H54629   7.834   6.345   7.152  0.2657  0.7918  0.8218
  405MOL0     H54630   7.858   6.176   7.209  1.7575 -0.4140 -3.5104
  405MOL0     H54631   7.679   6.247   6.966 -0.2252 -0.5191 -1.7545
  405MOL0     H54632   7.714   6.091   7.038  0.9590  0.3294  0.7953
  405MOL0     H54633   7.938   6.082   6.924  0.1413 -0.0898 -2.4701
  405MOL0     H54634   7.946   6.259   6.921  0.8742 -0.1400 -2.7148
  405MOL0     H54635   8.093   6.223   6.794  2.6007  1.3069 -0.4046
  405MOL0     H54636   8.241   6.275   6.611  1.2163 -2.0820 -2.7882
  405MOL0     H54637   8.378   6.148   6.192  1.8433 -0.1980 -1.5941
  405MOL0     H54638   8.520   6.194   6.010 -0.5973 -0.2705 -0.1194
  405MOL0     H54639   8.364   6.380   5.658 -1.8975  1.9348  2.0732
  405MOL0     H54640   8.409   6.536   5.724  0.1317  1.8560 -2.8002
  405MOL0     H54641   8.648   6.489   5.659  0.0858 -2.2130  1.6990
  405MOL0     H54642   8.582   6.359   5.557  0.8597 -0.0275 -0.2206
  405MOL0     H54643   8.433   6.514   5.449  0.2598 -1.3438 -0.9565
  405MOL0     H54644   8.510   6.657   5.540  1.6267  1.2111 -0.8502
  405MOL0     H54645   8.663   6.462   5.355  1.9640  0.7757 -2.3940
  405MOL0     H54646   8.717   6.612   5.425 -1.6759  1.5323  1.0411
  405MOL0     H54647   8.556   6.739   5.305 -0.8671  0.1645 -0.7900
  405MOL0     H54648   8.474   6.607   5.252  0.5411  1.5388 -2.7707
  405MOL0     H54649   8.766   6.677   5.205 -0.1032 -0.5884  1.5515
  405MOL0     H54650   8.684   6.535   5.120 -0.6246  0.5979 -1.2193
  405MOL0     H54651   8.686   6.831   5.072  0.1792 -0.2202 -0.1813
  405MOL0     H54652   8.555   6.713   5.021 -0.1792  0.0468 -0.5283
  405MOL0     H54653   8.689   6.594   4.890 -0.3745  1.1953 -1.6607
  405MOL0     H54654   8.722   6.752   4.829  1.9973  0.3809 -0.1192
  405MOL0     H54655   8.268   6.505   5.870  0.1949 -1.1638 -0.1088
  405MOL0     H54656   8.110   6.461   6.037  0.2828  0.3475 -3.9603
  405MOL0     H54657   7.911   6.266   6.341 -2.4472 -1.0406  1.1283
  405MOL0     H54658   7.775   6.209   6.503  0.9026  1.5823 -1.0857
  405MOL0     H54659   7.546   7.551   7.222 -1.0121  0.4078  1.2751
  405MOL0     H54660   7.606   7.682   7.011 -0.7153  1.4558 -3.4806
  405MOL0     H54661   7.567   7.666   6.580 -0.4966 -1.5072 -2.6776
  405MOL0     H54662   7.648   7.692   6.369  0.3102  0.9957  0.5286
  405MOL0     H54663   7.765   7.785   6.184 -0.3625 -2.6725  0.4630
  405MOL0     H54664   7.700   7.856   6.040 -1.6356  4.5888  1.4967
  405MOL0     H54665   7.543   7.670   6.016  0.6732 -1.6271 -1.6013
  405MOL0     H54666   7.598   7.600   6.174 -0.3593 -0.1358 -0.4886
  405MOL0     H54667   7.827   7.586   6.085 -1.1343  1.5331  1.1962
  405MOL0     H54668   7.767   7.644   5.932 -2.2492 -0.3056 -0.8198
  405MOL0     H54669   7.649   7.395   6.076 -2.3354 -1.7380 -2.3894
  405MOL0     H54670   7.612   7.456   5.911  0.7082 -0.7089 -1.0911
  405MOL0     H54671   7.984   7.250   5.866  0.7717 -0.1499  1.3967
  405MOL0     H54672   7.409   8.053   6.330 -0.9142 -0.1552  0.8775
  405MOL0     H54673   7.219   8.059   6.497 -0.3978  0.4076  0.2533
  405MOL0     H54674   7.282   8.041   6.663 -1.2397 -0.0104 -0.5968
  405MOL0     H54675   7.353   8.157   6.553 -0.8896  0.0038 -0.5190
  406MOL0     O54676   5.369   1.468   8.071  0.3063  0.7261 -0.1061
  406MOL0     C54677   5.405   1.565   8.143  0.6261 -0.9026  0.3119
  406MOL0     O54678   5.455   1.681   8.088  0.2734  0.0481 -0.0065
  406MOL0     C54679   5.392   1.734   7.983 -0.0059  0.0117 -0.0598
  406MOL0     C54680   5.255   1.714   7.956  0.3663  0.5246 -0.8383
  406MOL0     C54681   5.191   1.787   7.860  0.3508  0.6076 -0.0997
  406MOL0     C54682   5.256   1.892   7.786 -1.2088 -0.2885 -0.1928
  406MOL0     O54683   5.197   1.976   7.690 -0.4773  0.3026  0.8936
  406MOL0     C54684   5.078   2.048   7.721 -0.2585  0.6399 -0.5886
  406MOL0     C54685   5.076   2.166   7.618  0.5130 -0.0176  0.7703
  406MOL0     C54686   5.039   2.284   7.710 -0.0114  0.8683 -0.1023
  406MOL0     C54687   5.029   2.417   7.638 -0.1327 -1.1492  0.3776
  406MOL0     C54688   4.906   2.429   7.544  0.2124 -1.2993 -0.4874
  406MOL0     C54689   4.955   2.409   7.400  0.7295  1.3428 -0.6164
  406MOL0     C54690   4.822   2.422   7.317 -0.3642 -0.0222  0.0977
  406MOL0     C54691   4.843   2.367   7.174 -0.3775 -0.8224 -0.2278
  406MOL0     N54692   4.958   2.412   7.088 -0.3323  0.2907  0.5550
  406MOL0     C54693   4.991   2.346   6.974  0.3714  0.8106 -0.0562
  406MOL0     C54694   5.049   2.440   6.900 -1.5633 -0.9531 -0.0137
  406MOL0     C54695   5.098   2.429   6.761 -0.4600 -0.2651 -0.2722
  406MOL0     C54696   5.089   2.565   6.689  1.3359  0.6325  0.3252
  406MOL0     C54697   5.233   2.613   6.647 -0.5740  1.0651  0.0236
  406MOL0     C54698   5.246   2.745   6.565 -0.2248  0.3145 -0.0936
  406MOL0     O54699   5.376   2.797   6.582 -0.0971  0.6644 -0.4054
  406MOL0     C54700   5.417   2.911   6.523  0.6728  0.1355 -0.2681
  406MOL0     C54701   5.525   2.985   6.578  0.0175 -0.2958  0.6823
  406MOL0     C54702   5.576   3.099   6.518 -0.1336  0.3641 -0.2958
  406MOL0     C54703   5.510   3.150   6.408 -0.2113 -0.5477  0.4384
  406MOL0     C54704   5.569   3.273   6.343  0.0912 -0.1359 -1.0100
  406MOL0     O54705   5.686   3.325   6.390  0.4599  0.1074 -0.1911
  406MOL0     C54706   5.755   3.419   6.316  0.4818  0.3742  0.1883
  406MOL0     C54707   5.842   3.493   6.398  0.2678  0.1636  0.4419
  406MOL0     C54708   5.925   3.591   6.341 -0.0637 -0.0538 -0.3081
  406MOL0     C54709   5.939   3.617   6.209  0.2769 -0.6594  0.1931
  406MOL0     O54710   6.022   3.721   6.184 -0.4192 -0.4225 -0.5460
  406MOL0     C54711   6.033   3.776   6.044 -1.1400 -0.0172  0.3304
  406MOL0     C54712   6.157   3.870   6.033 -0.1052  0.6821  0.5566
  406MOL0     C54713   6.137   3.946   5.898  1.1538 -0.9610  0.0946
  406MOL0     C54714   6.207   4.088   5.906 -0.3565  0.8458 -0.2778
  406MOL0     C54715   6.200   4.152   5.763 -0.4476 -0.2663  0.0378
  406MOL0     C54716   6.267   4.082   5.643  0.6235  0.8432  0.7596
  406MOL0     C54717   6.408   4.052   5.668  0.3619  0.2474 -0.3222
  406MOL0     C54718   6.503   4.176   5.663  0.5170 -0.1915  0.1791
  406MOL0    Cl54719   6.527   4.229   5.488  0.1390  0.0020 -0.3068
  406MOL0     C54720   5.862   3.527   6.122 -0.2159  0.8413  0.2977
  406MOL0     C54721   5.767   3.433   6.174  0.0616  0.1830  0.0204
  406MOL0     O54722   5.510   3.307   6.239  0.0414  0.1507  0.9165
  406MOL0     C54723   5.403   3.080   6.351  0.2099 -0.5838 -0.0677
  406MOL0     C54724   5.358   2.959   6.404  0.2778  0.1588 -0.4142
  406MOL0     N54725   5.080   2.553   6.981 -0.1887 -0.2410  1.0308
  406MOL0     N54726   5.030   2.528   7.091 -0.8970 -0.7533  0.1089
  406MOL0     C54727   5.400   1.913   7.808 -0.2343  0.3754  0.0718
  406MOL0     C54728   5.466   1.823   7.898  0.2335  1.1718  0.5705
  406MOL0     C54729   5.440   1.537   8.288 -0.1889  0.0834 -0.0594
  406MOL0     C54730   5.433   1.651   8.379  0.2036  0.2174 -0.7385
  406MOL0     C54731   5.438   1.628   8.515 -0.2865  0.5953 -0.2889
  406MOL0     C54732   5.476   1.500   8.580  0.6583 -0.7519  0.7139
  406MOL0     O54733   5.489   1.472   8.713  0.4433 -0.7523 -0.2238
  406MOL0     C54734   5.532   1.590   8.779 -0.0636 -0.2179  0.2096
  406MOL0     C54735   5.596   1.549   8.912  1.0809 -1.4377 -0.5372
  406MOL0     C54736   5.700   1.447   8.893  0.5070  0.5511  0.4090
  406MOL0     C54737   5.774   1.412   9.026  0.3662  0.4778  0.0869
  406MOL0     C54738   5.854   1.532   9.062 -0.0030  0.6932  0.9291
  406MOL0     C54739   5.909   1.630   9.102  0.7430  0.0002 -0.8366
  406MOL0     C54740   5.493   1.398   8.483  0.0523  0.0862  0.2816
  406MOL0     C54741   5.480   1.407   8.342 -0.3190  0.6408 -0.7151
  406MOL0     C54742   5.505   1.291   8.255  0.3414 -0.6634  0.4220
  406MOL0     H54743   5.200   1.642   8.015  1.0050  1.5090  1.0201
  406MOL0     H54744   5.089   1.757   7.844 -0.5714  1.9019  2.6220
  406MOL0     H54745   4.987   1.987   7.709 -1.1890  1.3616  2.0523
  406MOL0     H54746   5.082   2.084   7.824 -1.6371  1.4302 -0.7867
  406MOL0     H54747   4.985   2.157   7.557 -0.3138  0.6179  1.8852
  406MOL0     H54748   5.166   2.168   7.555 -0.2152 -1.0705 -0.3773
  406MOL0     H54749   5.113   2.287   7.791 -0.2509 -0.3518  0.1791
  406MOL0     H54750   4.947   2.256   7.762 -0.9542 -0.1693 -2.2115
  406MOL0     H54751   5.029   2.500   7.709  2.8965 -1.1123  0.4686
  406MOL0     H54752   5.124   2.437   7.587  0.2472 -0.6422  1.2544
  406MOL0     H54753   4.819   2.373   7.577 -0.5064 -0.5211 -1.0200
  406MOL0     H54754   4.868   2.531   7.545  2.2298 -0.5040  0.2371
  406MOL0     H54755   5.041   2.471   7.375  1.6005  0.3370 -0.1695
  406MOL0     H54756   4.990   2.305   7.399  0.6522  1.3184 -1.2902
  406MOL0     H54757   4.792   2.528   7.317  3.5414  1.2290  0.0440
  406MOL0     H54758   4.751   2.349   7.358  0.4247 -0.9034 -0.0750
  406MOL0     H54759   4.849   2.258   7.175 -1.2248 -0.8782 -0.2246
  406MOL0     H54760   4.754   2.391   7.114  0.2935  0.9291 -0.5803
  406MOL0     H54761   4.958   2.243   6.962  2.7945 -0.4472  2.7356
  406MOL0     H54762   5.199   2.387   6.768 -0.4968 -0.0817  2.8301
  406MOL0     H54763   5.025   2.357   6.724 -1.4775  0.1180  0.9303
  406MOL0     H54764   5.025   2.539   6.604 -0.1502  0.8021  1.3452
  406MOL0     H54765   5.035   2.640   6.747  0.7974  1.0094 -0.6396
  406MOL0     H54766   5.287   2.530   6.598  0.6188 -0.6617  3.8820
  406MOL0     H54767   5.278   2.630   6.745 -1.3398 -0.3626  0.6597
  406MOL0     H54768   5.177   2.826   6.589  1.8913  2.4956 -0.9914
  406MOL0     H54769   5.222   2.719   6.461 -0.4458 -3.1350  0.6906
  406MOL0     H54770   5.575   2.952   6.669  2.2260  0.3529 -0.2272
  406MOL0     H54771   5.649   3.162   6.568 -2.3060  0.3742  3.1661
  406MOL0     H54772   5.851   3.471   6.504  0.0352 -3.9950 -0.2365
  406MOL0     H54773   5.963   3.662   6.415 -3.1135  2.2770 -0.7317
  406MOL0     H54774   6.050   3.695   5.972  1.3011  0.2836  0.4828
  406MOL0     H54775   5.937   3.821   6.019 -0.9274 -0.3188 -1.0884
  406MOL0     H54776   6.144   3.942   6.114 -2.1016  0.7994  0.1813
  406MOL0     H54777   6.257   3.827   6.036 -0.1463  0.4410 -0.9874
  406MOL0     H54778   6.148   3.889   5.806 -3.1091 -1.1004 -0.5431
  406MOL0     H54779   6.030   3.967   5.907  1.5410  1.2752  0.2233
  406MOL0     H54780   6.311   4.077   5.940 -0.4087 -0.5616 -0.5370
  406MOL0     H54781   6.156   4.151   5.979 -4.2856 -0.1948 -1.8843
  406MOL0     H54782   6.250   4.249   5.766  4.1364 -2.2389 -2.3648
  406MOL0     H54783   6.096   4.175   5.738  0.0788  1.4386 -0.7121
  406MOL0     H54784   6.224   3.982   5.628 -1.7660  1.6349  1.9294
  406MOL0     H54785   6.250   4.138   5.550 -0.3934  0.0920  0.4758
  406MOL0     H54786   6.447   3.986   5.590 -0.7933  0.5531 -1.1875
  406MOL0     H54787   6.403   4.002   5.765  1.6775 -2.5829 -1.6054
  406MOL0     H54788   6.465   4.263   5.716 -0.7489  0.4657 -1.6952
  406MOL0     H54789   6.600   4.144   5.702 -0.5413 -3.3647  0.4625
  406MOL0     H54790   5.871   3.557   6.018  0.7098  2.6703  0.8601
  406MOL0     H54791   5.711   3.368   6.107  1.6695 -0.6385 -0.5995
  406MOL0     H54792   5.354   3.126   6.266  1.2998 -3.7131 -2.6017
  406MOL0     H54793   5.277   2.908   6.353  0.6062  0.4918 -1.2986
  406MOL0     H54794   5.450   1.975   7.735 -1.2312 -1.2645 -2.1320
  406MOL0     H54795   5.570   1.843   7.879  0.1658  0.8983 -0.0981
  406MOL0     H54796   5.414   1.751   8.342 -0.3311  1.1629  1.8352
  406MOL0     H54797   5.422   1.716   8.577 -2.5066  0.1027 -0.0772
  406MOL0     H54798   5.456   1.668   8.790  0.8359  0.4159  3.0496
  406MOL0     H54799   5.600   1.638   8.708 -1.8708  0.5605 -1.0451
  406MOL0     H54800   5.511   1.513   8.971 -0.7124  0.3017 -1.9205
  406MOL0     H54801   5.644   1.637   8.956 -0.5824 -0.1875 -1.0963
  406MOL0     H54802   5.775   1.486   8.823 -1.0321  0.8111 -1.1731
  406MOL0     H54803   5.653   1.356   8.854  1.0947 -0.0984  1.1898
  406MOL0     H54804   5.702   1.384   9.103  3.1594  1.1191  3.1726
  406MOL0     H54805   5.844   1.329   9.014  0.5527  0.6359  0.0794
  406MOL0     H54806   5.962   1.709   9.152  1.2279 -0.3133 -0.8423
  406MOL0     H54807   5.511   1.297   8.518 -1.9170 -1.5097 -2.8053
  406MOL0     H54808   5.424   1.265   8.185 -0.3893 -0.4866  1.1848
  406MOL0     H54809   5.590   1.310   8.189  0.1080  2.4339  0.8782
  406MOL0     H54810   5.526   1.196   8.306  1.7424 -1.3637 -1.3234
  407MOL0     O54811   1.598   1.865   7.920  0.3648 -0.2706  0.2187
  407MOL0     C54812   1.590   1.900   8.043 -1.4968  0.2356 -0.7430
  407MOL0     O54813   1.571   1.815   8.151 -0.0527 -0.3503  0.2554
  407MOL0     C54814   1.588   1.679   8.129  0.6222 -0.3473 -0.0742
  407MOL0     C54815   1.677   1.618   8.220 -0.2802 -0.1715 -0.3207
  407MOL0     C54816   1.709   1.485   8.197  0.1532 -0.0218 -0.2643
  407MOL0     C54817   1.649   1.406   8.098  0.3544  0.2446  0.5565
  407MOL0     O54818   1.700   1.281   8.078  0.8934  0.5495  0.0527
  407MOL0     C54819   1.596   1.181   8.090  0.2721  0.2541  0.4051
  407MOL0     C54820   1.642   1.044   8.049 -1.0784  0.7439 -0.2098
  407MOL0     C54821   1.696   1.032   7.903  0.8020 -0.0487 -0.3501
  407MOL0     C54822   1.584   0.995   7.805 -0.1686 -0.5597  0.0073
  407MOL0     C54823   1.645   0.946   7.665  0.2031 -0.7956 -0.0657
  407MOL0     C54824   1.543   0.937   7.552 -0.7152 -0.3695 -0.0146
  407MOL0     C54825   1.601   0.883   7.415 -0.4916  0.1242  0.0566
  407MOL0     C54826   1.692   0.962   7.340  0.2886 -0.2909  0.3699
  407MOL0     N54827   1.624   1.088   7.301  0.3991 -0.4285 -0.2481
  407MOL0     C54828   1.644   1.203   7.378  0.1123 -0.7674  0.0401
  407MOL0     C54829   1.610   1.312   7.292  0.1614 -0.3172  0.0700
  407MOL0     C54830   1.605   1.454   7.324  0.2410 -0.1579  0.3506
  407MOL0     C54831   1.529   1.479   7.460 -0.2151  0.4522 -0.4919
  407MOL0     C54832   1.608   1.462   7.590 -0.2891 -0.3902  0.0092
  407MOL0     C54833   1.716   1.569   7.605  0.7325 -0.1409  0.1226
  407MOL0     O54834   1.788   1.523   7.719 -0.0019 -0.7455 -0.1696
  407MOL0     C54835   1.832   1.608   7.812 -0.0156 -0.4446 -0.1904
  407MOL0     C54836   1.900   1.560   7.919  0.1661  0.7445 -0.5268
  407MOL0     C54837   1.972   1.645   8.004  0.8924 -0.5209 -0.3623
  407MOL0     C54838   1.970   1.783   7.988  0.8347  0.1990  0.6094
  407MOL0     C54839   2.026   1.884   8.091 -0.4220 -0.7977  0.1140
  407MOL0     O54840   2.016   2.019   8.065 -0.0192 -0.6204  0.2094
  407MOL0     C54841   2.101   2.111   8.130  0.8373 -1.0203  0.5207
  407MOL0     C54842   2.053   2.236   8.150 -1.3170  0.2429 -0.2306
  407MOL0     C54843   2.116   2.324   8.242  0.4045  0.1763  0.6207
  407MOL0     C54844   2.241   2.290   8.288  0.2115  0.2645 -0.6358
  407MOL0     O54845   2.317   2.373   8.371  0.4699  0.2990  0.9453
  407MOL0     C54846   2.455   2.381   8.344  0.2495 -0.0094 -0.2339
  407MOL0     C54847   2.508   2.516   8.396  0.0574 -0.0337 -1.8076
  407MOL0     C54848   2.449   2.553   8.534 -0.6244  0.1694  0.8432
  407MOL0     C54849   2.507   2.683   8.606  0.1362  0.1357 -0.1423
  407MOL0     C54850   2.415   2.746   8.722 -0.9944  0.0888  0.5133
  407MOL0     C54851   2.412   2.637   8.842 -0.0205 -0.9640 -0.6107
  407MOL0     C54852   2.281   2.648   8.924  0.1140  0.4795  0.6256
  407MOL0     C54853   2.234   2.779   8.960  1.5257 -0.1077 -0.1482
  407MOL0    Cl54854   2.171   2.768   9.130  0.2008 -0.2826  0.4072
  407MOL0     C54855   2.294   2.162   8.262  0.2786 -0.2510 -0.3003
  407MOL0     C54856   2.226   2.074   8.180  0.7533 -0.0532 -0.1395
  407MOL0     O54857   2.076   1.838   8.197  0.8558 -0.6819 -0.6864
  407MOL0     C54858   1.907   1.831   7.871 -0.8460 -0.4423 -0.5487
  407MOL0     C54859   1.836   1.747   7.791  0.0498 -0.2399  0.0836
  407MOL0     N54860   1.578   1.265   7.171  0.0074  0.6064 -0.4282
  407MOL0     N54861   1.584   1.127   7.177  0.1103 -0.3422 -0.4974
  407MOL0     C54862   1.553   1.467   8.008 -0.0968  0.3470  0.3236
  407MOL0     C54863   1.522   1.599   8.031  0.6341 -0.6273  0.4796
  407MOL0     C54864   1.614   2.048   8.080 -0.5060  0.1223 -1.2800
  407MOL0     C54865   1.590   2.150   7.983  0.2184  1.1284 -0.6010
  407MOL0     C54866   1.603   2.283   8.020  0.0897  0.7177 -1.2717
  407MOL0     C54867   1.654   2.328   8.144  0.0616 -0.2019 -1.2472
  407MOL0     O54868   1.661   2.459   8.190 -0.4933  0.3262 -0.1880
  407MOL0     C54869   1.595   2.563   8.109 -0.2539 -0.1840  0.5925
  407MOL0     C54870   1.633   2.703   8.128  0.1518 -0.0920  0.6326
  407MOL0     C54871   1.593   2.749   8.268  0.5614 -0.0874  0.2073
  407MOL0     C54872   1.607   2.902   8.283  0.9219  0.1685 -0.0564
  407MOL0     C54873   1.741   2.943   8.276  0.2828  0.6300  0.0372
  407MOL0     C54874   1.850   2.996   8.277 -0.7820 -0.7481  0.0266
  407MOL0     C54875   1.697   2.229   8.230 -0.1427 -0.3198  0.9062
  407MOL0     C54876   1.671   2.093   8.202  0.3593 -1.0244  0.3708
  407MOL0     C54877   1.710   1.998   8.316  0.7393  0.2133  0.1294
  407MOL0     H54878   1.719   1.679   8.298 -2.5518 -1.2095  1.8528
  407MOL0     H54879   1.770   1.445   8.277  3.4512  4.5682 -0.0853
  407MOL0     H54880   1.546   1.185   8.187 -0.6541  0.3524 -0.0705
  407MOL0     H54881   1.522   1.209   8.015  1.4468  3.7863  0.4012
  407MOL0     H54882   1.553   0.980   8.047 -0.3742 -0.2759 -0.3052
  407MOL0     H54883   1.718   0.995   8.111  2.0561  0.5862 -3.8149
  407MOL0     H54884   1.778   0.960   7.913 -0.4928 -1.3101  2.0138
  407MOL0     H54885   1.743   1.124   7.865 -0.5399  0.5839 -0.5160
  407MOL0     H54886   1.515   0.915   7.833 -2.6741  0.5323 -2.5281
  407MOL0     H54887   1.512   1.078   7.801  1.5417  0.9415 -2.2221
  407MOL0     H54888   1.733   1.003   7.634 -0.0945  0.3037  1.0313
  407MOL0     H54889   1.679   0.842   7.678  1.1235 -0.3554  1.3154
  407MOL0     H54890   1.455   0.883   7.587 -2.0557  0.8227 -1.3849
  407MOL0     H54891   1.509   1.041   7.540  1.1996  0.5605  1.9030
  407MOL0     H54892   1.517   0.864   7.348  0.8449  2.5138 -2.5341
  407MOL0     H54893   1.643   0.784   7.431 -2.8560 -0.9398  0.0266
  407MOL0     H54894   1.789   0.980   7.389 -0.8045  2.0805  1.8643
  407MOL0     H54895   1.722   0.912   7.248 -0.3833 -3.0074  1.5348
  407MOL0     H54896   1.678   1.192   7.480 -0.5613  0.8869  0.4727
  407MOL0     H54897   1.695   1.516   7.327 -1.8918  3.2337  3.8300
  407MOL0     H54898   1.539   1.503   7.252 -0.6097 -0.4546  0.8976
  407MOL0     H54899   1.483   1.578   7.463 -0.9127  0.1080  1.0053
  407MOL0     H54900   1.443   1.411   7.455 -1.1572  1.6773 -2.7611
  407MOL0     H54901   1.644   1.359   7.594 -2.2631 -1.1751 -0.8327
  407MOL0     H54902   1.541   1.474   7.677  0.3525 -0.7214  0.5585
  407MOL0     H54903   1.656   1.659   7.621  0.6355 -0.2477  0.3663
  407MOL0     H54904   1.777   1.581   7.515  0.3570 -2.2179 -0.4645
  407MOL0     H54905   1.908   1.455   7.945  1.6302  0.9636  0.0249
  407MOL0     H54906   2.035   1.606   8.083  1.9450  2.6329  0.4708
  407MOL0     H54907   1.958   2.253   8.099 -1.1657  0.1000 -0.5601
  407MOL0     H54908   2.098   2.430   8.252  2.1435  0.6622 -0.7967
  407MOL0     H54909   2.517   2.302   8.385  0.8083 -0.7510 -2.3662
  407MOL0     H54910   2.466   2.374   8.235 -0.5226 -0.2722 -0.2983
  407MOL0     H54911   2.617   2.511   8.409  0.2405  3.1478 -1.5181
  407MOL0     H54912   2.484   2.594   8.323 -2.1109  1.5639  0.4595
  407MOL0     H54913   2.340   2.560   8.524 -0.5323  1.0421  0.3592
  407MOL0     H54914   2.472   2.473   8.604  1.1002  0.0417  0.1836
  407MOL0     H54915   2.513   2.762   8.531 -0.5166 -0.5347 -0.9152
  407MOL0     H54916   2.605   2.666   8.652 -0.0056 -0.9328 -0.2188
  407MOL0     H54917   2.314   2.742   8.680  0.3845 -2.4195 -3.0457
  407MOL0     H54918   2.437   2.849   8.754 -1.8227  0.9053 -1.3935
  407MOL0     H54919   2.403   2.532   8.812 -1.2222 -1.1338  0.2656
  407MOL0     H54920   2.499   2.640   8.909 -0.4915  0.3536 -0.0273
  407MOL0     H54921   2.305   2.598   9.019  0.6619  0.9091  0.7152
  407MOL0     H54922   2.204   2.588   8.875 -0.0046  1.2504 -0.1468
  407MOL0     H54923   2.321   2.845   8.967  0.3494  1.7069 -1.6720
  407MOL0     H54924   2.174   2.820   8.878  2.5087  2.4845  0.3118
  407MOL0     H54925   2.379   2.122   8.317 -0.4473 -2.0446 -0.4032
  407MOL0     H54926   2.267   1.974   8.179 -0.0805 -0.4090  0.4779
  407MOL0     H54927   1.896   1.935   7.842 -0.2255  0.5660  2.4887
  407MOL0     H54928   1.794   1.790   7.701 -0.2974  1.0956  0.8499
  407MOL0     H54929   1.501   1.432   7.919 -2.9298  5.0545 -0.2226
  407MOL0     H54930   1.445   1.639   7.966 -2.1755 -4.4109  1.1032
  407MOL0     H54931   1.553   2.115   7.888  2.6908 -3.8248 -0.0721
  407MOL0     H54932   1.577   2.348   7.937 -2.7126  1.9896  0.4518
  407MOL0     H54933   1.487   2.544   8.115 -0.2910 -1.1802 -1.9162
  407MOL0     H54934   1.604   2.541   8.002 -2.4064 -1.3990  0.6021
  407MOL0     H54935   1.583   2.763   8.052  0.6166  1.0438  1.2044
  407MOL0     H54936   1.742   2.705   8.121  0.1626 -2.9038 -2.8894
  407MOL0     H54937   1.661   2.700   8.338  0.8418  1.7231  1.2629
  407MOL0     H54938   1.486   2.733   8.288  0.3887  1.8849  1.0952
  407MOL0     H54939   1.554   2.956   8.205 -0.5901 -0.3153  0.5912
  407MOL0     H54940   1.569   2.927   8.383 -1.3967 -3.8551  0.2614
  407MOL0     H54941   1.949   3.036   8.285 -2.2135  3.1602  0.4254
  407MOL0     H54942   1.742   2.261   8.324 -0.9605 -1.5922  1.7633
  407MOL0     H54943   1.760   1.907   8.281  2.1902  1.5245 -1.3633
  407MOL0     H54944   1.778   2.049   8.384 -0.3562 -0.9548  2.2193
  407MOL0     H54945   1.621   1.974   8.374  0.2184 -2.7930 -1.6771
  408MOL0     O54946   7.087   0.193  11.113 -0.5729  0.1252  0.2749
  408MOL0     C54947   7.076   0.076  11.156  0.9272  0.5861 -0.2331
  408MOL0     O54948   7.125   0.040  11.282  0.0846  0.3772  0.9151
  408MOL0     C54949   7.217   0.126  11.339  0.9444  0.0035 -0.3135
  408MOL0     C54950   7.181   0.205  11.454 -0.2535 -0.1659  0.4720
  408MOL0     C54951   7.264   0.315  11.493  0.4367  0.0435  0.5672
  408MOL0     C54952   7.393   0.328  11.441  0.6857  0.4559 -0.3025
  408MOL0     O54953   7.480   0.413  11.509  0.8474 -0.5181 -0.6428
  408MOL0     C54954   7.623   0.397  11.480 -0.2765 -0.2244 -0.3779
  408MOL0     C54955   7.693   0.476  11.588  0.3647 -1.0049 -0.0108
  408MOL0     C54956   7.711   0.639  11.564  0.1443  0.1876  0.0570
  408MOL0     C54957   7.759   0.670  11.423  0.0407 -0.6266 -0.2854
  408MOL0     C54958   7.794   0.826  11.423 -0.8838 -1.0811 -1.0695
  408MOL0     C54959   7.834   0.863  11.282 -0.2609  0.0385 -0.3872
  408MOL0     C54960   7.715   0.895  11.176 -0.7571  0.6364 -0.8541
  408MOL0     C54961   7.666   1.040  11.194  0.1748  0.1832  0.3624
  408MOL0     N54962   7.779   1.136  11.164  0.2865 -0.5436 -0.2297
  408MOL0     C54963   7.806   1.172  11.030 -0.1337  0.3792 -0.9992
  408MOL0     C54964   7.908   1.257  11.048  0.3460 -0.4176 -0.3684
  408MOL0     C54965   7.984   1.332  10.942 -1.1205  0.2560  1.1463
  408MOL0     C54966   8.128   1.278  10.935  0.4756 -0.3728 -0.2434
  408MOL0     C54967   8.212   1.347  10.816  0.6592 -0.9221 -0.2560
  408MOL0     C54968   8.352   1.291  10.781  0.0271 -0.3932 -0.9485
  408MOL0     O54969   8.363   1.285  10.635 -0.1608 -0.4892 -1.3729
  408MOL0     C54970   8.482   1.302  10.587 -0.9191  0.3737  0.0017
  408MOL0     C54971   8.488   1.315  10.448 -0.2585  0.7339  0.3291
  408MOL0     C54972   8.600   1.331  10.377 -0.1067 -0.0953  0.1011
  408MOL0     C54973   8.727   1.347  10.440 -0.0364  0.8909 -0.7307
  408MOL0     C54974   8.853   1.379  10.371  0.9701  1.2207 -0.0409
  408MOL0     O54975   8.839   1.393  10.232 -1.5438  0.0835 -0.4283
  408MOL0     C54976   8.945   1.432  10.150 -0.6989  0.4612 -0.2236
  408MOL0     C54977   9.075   1.475  10.191  0.1963  0.0878  0.5155
  408MOL0     C54978   9.166   1.519  10.106 -0.1846 -1.2525  0.0664
  408MOL0     C54979   9.134   1.536   9.968  0.5994  1.2063 -0.4122
  408MOL0     O54980   9.202   1.624   9.887  0.2257 -0.1409  0.3889
  408MOL0     C54981   9.308   1.556   9.817  0.2285  0.9246  0.4543
  408MOL0     C54982   9.361   1.651   9.704 -0.0993  0.3276  0.0261
  408MOL0     C54983   9.255   1.737   9.627 -0.1282  0.0451  0.0944
  408MOL0     C54984   9.220   1.867   9.687 -1.1185 -0.2211 -0.8281
  408MOL0     C54985   9.160   1.968   9.584 -0.6932  1.3350 -0.5508
  408MOL0     C54986   9.013   1.967   9.568  0.1916  0.0086 -0.4056
  408MOL0     C54987   8.950   1.990   9.705  0.3597 -0.9801  0.2556
  408MOL0     C54988   8.856   1.868   9.749  0.0700 -0.1540 -0.0109
  408MOL0    Cl54989   8.728   1.824   9.631  0.1951  0.0180 -0.2343
  408MOL0     C54990   9.002   1.505   9.929 -0.4465  0.5884 -0.2764
  408MOL0     C54991   8.916   1.443  10.012  0.8157  0.4785 -0.8234
  408MOL0     O54992   8.959   1.373  10.434  0.2619 -0.1228  0.0089
  408MOL0     C54993   8.721   1.355  10.584 -0.4611  0.1701  0.5691
  408MOL0     C54994   8.606   1.332  10.649  0.9597 -0.0156 -0.3116
  408MOL0     N54995   7.943   1.262  11.181  0.1013  1.2266  0.1971
  408MOL0     N54996   7.857   1.192  11.256 -0.1170  0.1549  0.6498
  408MOL0     C54997   7.433   0.243  11.330  0.0844  0.2105  0.6168
  408MOL0     C54998   7.346   0.144  11.283 -0.7708 -0.8604 -0.3586
  408MOL0     C54999   6.995  -0.033  11.080  0.6038  0.3483 -0.4429
  408MOL0     C55000   7.010  -0.161  11.140  0.6209  0.6204 -0.1923
  408MOL0     C55001   6.954  -0.279  11.089 -0.8914  0.3347 -0.0751
  408MOL0     C55002   6.886  -0.269  10.964 -0.0523 -0.5480 -1.2940
  408MOL0     O55003   6.842  -0.381  10.895 -0.4343 -0.4287 -1.1134
  408MOL0     C55004   6.716  -0.429  10.953 -0.4562 -0.2167 -0.5411
  408MOL0     C55005   6.680  -0.562  10.879 -0.7599 -0.5148  0.6081
  408MOL0     C55006   6.528  -0.553  10.862 -0.0532  0.4903  0.3957
  408MOL0     C55007   6.474  -0.654  10.758 -1.4139  0.2090 -0.2306
  408MOL0     C55008   6.328  -0.667  10.750  0.1616  0.0691 -0.1287
  408MOL0     C55009   6.206  -0.682  10.750  0.4194  0.2873  0.8135
  408MOL0     C55010   6.864  -0.135  10.903 -0.7595  1.0537  0.2457
  408MOL0     C55011   6.911  -0.017  10.961  0.0857  0.5347 -0.0596
  408MOL0     C55012   6.883   0.119  10.897  0.1178  0.3173  0.3714
  408MOL0     H55013   7.079   0.199  11.491 -0.2866  2.0634  0.8808
  408MOL0     H55014   7.245   0.380  11.577  1.1690 -0.2805  0.9862
  408MOL0     H55015   7.656   0.295  11.504 -0.4588  0.7692  5.6326
  408MOL0     H55016   7.647   0.423  11.376  1.4539 -0.7036 -0.1309
  408MOL0     H55017   7.790   0.426  11.600  0.2820 -1.1505  0.0372
  408MOL0     H55018   7.636   0.465  11.680 -0.1395  0.1761 -0.1547
  408MOL0     H55019   7.778   0.685  11.637 -1.0002  0.6931  0.8104
  408MOL0     H55020   7.616   0.690  11.580 -0.4349 -0.0482 -2.2289
  408MOL0     H55021   7.853   0.622  11.397  1.2655  1.7938 -0.6127
  408MOL0     H55022   7.673   0.644  11.360 -0.5362 -0.7906  0.5437
  408MOL0     H55023   7.709   0.889  11.452 -0.3021 -0.8509  0.1674
  408MOL0     H55024   7.877   0.852  11.489 -2.5693  0.5378  0.5343
  408MOL0     H55025   7.912   0.939  11.288  0.8402 -1.1336  0.8545
  408MOL0     H55026   7.886   0.777  11.238 -0.5360  1.9468 -5.0733
  408MOL0     H55027   7.642   0.815  11.193  2.3728 -2.4643 -0.8077
  408MOL0     H55028   7.755   0.891  11.074  2.0569  2.2107  0.0567
  408MOL0     H55029   7.577   1.047  11.130  0.8153 -3.2745 -1.0950
  408MOL0     H55030   7.631   1.055  11.296 -1.6551  4.4001 -0.6424
  408MOL0     H55031   7.758   1.137  10.939 -0.1927 -2.0352 -0.1259
  408MOL0     H55032   7.936   1.325  10.844  0.0209  0.8119  0.5192
  408MOL0     H55033   7.981   1.440  10.959  1.1655  0.3523  1.3453
  408MOL0     H55034   8.175   1.277  11.034  2.3594 -2.3024 -1.0878
  408MOL0     H55035   8.125   1.172  10.907 -2.8743  0.0765 -2.0894
  408MOL0     H55036   8.202   1.451  10.850  1.4598  0.3058 -3.4135
  408MOL0     H55037   8.162   1.341  10.719 -0.3947 -2.6950  0.3417
  408MOL0     H55038   8.364   1.192  10.825  0.5463  0.5624  1.1735
  408MOL0     H55039   8.412   1.368  10.829 -0.7174 -0.2842 -0.1743
  408MOL0     H55040   8.390   1.313  10.401  0.2441 -1.6595 -0.8106
  408MOL0     H55041   8.594   1.338  10.269  2.1337 -0.3522 -0.0957
  408MOL0     H55042   9.102   1.482  10.296 -2.4907 -1.1235  1.3810
  408MOL0     H55043   9.256   1.557  10.156  0.4809 -2.7882  0.0944
  408MOL0     H55044   9.387   1.538   9.890 -0.8436 -0.4624  1.3426
  408MOL0     H55045   9.264   1.467   9.771  0.3805  0.4580  1.2050
  408MOL0     H55046   9.420   1.731   9.750  1.8157  0.9306 -3.2002
  408MOL0     H55047   9.425   1.607   9.627  2.2746  4.0190 -0.3279
  408MOL0     H55048   9.277   1.736   9.520  2.0434  1.4926  0.4655
  408MOL0     H55049   9.164   1.676   9.636  0.5421 -0.8966  0.6858
  408MOL0     H55050   9.319   1.904   9.718 -0.3080 -1.9778 -1.1826
  408MOL0     H55051   9.161   1.851   9.777 -1.9553 -4.0641 -1.8911
  408MOL0     H55052   9.216   1.963   9.491 -0.3253  1.0631 -0.3165
  408MOL0     H55053   9.187   2.070   9.610  2.9501  1.3043 -3.5165
  408MOL0     H55054   8.987   2.038   9.489 -0.2113 -1.8914 -2.0887
  408MOL0     H55055   8.983   1.866   9.536 -1.2790  0.2249  0.2143
  408MOL0     H55056   8.878   2.072   9.701  1.2947 -0.1395  0.3319
  408MOL0     H55057   9.024   2.020   9.780  1.1472  1.6901 -1.4539
  408MOL0     H55058   8.908   1.772   9.756  1.6081  0.6774  0.3004
  408MOL0     H55059   8.802   1.904   9.837  2.9987  1.4947  1.2460
  408MOL0     H55060   8.988   1.510   9.821  1.2591  2.6643 -0.4694
  408MOL0     H55061   8.818   1.408   9.981  0.2144  0.0934  1.3640
  408MOL0     H55062   8.817   1.377  10.630  1.3982 -3.4946 -1.1367
  408MOL0     H55063   8.613   1.334  10.757  1.1418  1.2347 -0.3310
  408MOL0     H55064   7.532   0.239  11.284  0.0497 -0.0229  0.5575
  408MOL0     H55065   7.378   0.093  11.193  3.2037  0.8220 -0.1053
  408MOL0     H55066   7.067  -0.173  11.232  0.3798 -2.4897 -0.3161
  408MOL0     H55067   6.953  -0.374  11.141  3.0470  0.8293  1.2908
  408MOL0     H55068   6.640  -0.354  10.935 -1.3830 -0.9972  0.0406
  408MOL0     H55069   6.723  -0.437  11.062  0.1188  2.5035 -0.3148
  408MOL0     H55070   6.717  -0.640  10.946  3.7746  1.0981  0.3773
  408MOL0     H55071   6.736  -0.573  10.785  3.3774  1.9567  2.4753
  408MOL0     H55072   6.497  -0.454  10.830  1.0799  0.4424 -0.9408
  408MOL0     H55073   6.478  -0.578  10.957 -0.7114 -4.0630 -0.8991
  408MOL0     H55074   6.514  -0.618  10.664 -0.5875 -0.9588 -0.3415
  408MOL0     H55075   6.519  -0.754  10.765 -1.9444  0.0233  0.8913
  408MOL0     H55076   6.100  -0.693  10.746  0.0148  1.3506  4.3847
  408MOL0     H55077   6.798  -0.118  10.819 -2.2899  0.4720  1.2915
  408MOL0     H55078   6.982   0.156  10.869  0.7107 -2.3741 -1.5054
  408MOL0     H55079   6.828   0.108  10.804 -1.2190  0.5434  1.1040
  408MOL0     H55080   6.825   0.182  10.965  0.1750 -1.1092  1.8272
  409MOL0     O55081   8.272   4.319   0.534 -0.1612 -0.5488 -0.1738
  409MOL0     C55082   8.337   4.327   0.641  0.6900  0.6566  0.9553
  409MOL0     O55083   8.310   4.258   0.748 -0.1489 -0.1342 -0.3560
  409MOL0     C55084   8.211   4.166   0.748  0.1595 -0.2869  0.7591
  409MOL0     C55085   8.081   4.197   0.740  0.3871 -0.2438  0.4325
  409MOL0     C55086   7.975   4.105   0.733 -0.1972 -0.2173 -0.9266
  409MOL0     C55087   8.007   3.975   0.751 -1.4420 -0.0884  0.4540
  409MOL0     O55088   7.914   3.873   0.760  0.4661  0.3118 -0.9275
  409MOL0     C55089   7.798   3.906   0.841  0.5659  0.0852  0.1412
  409MOL0     C55090   7.740   3.783   0.908  0.6972 -0.2213  0.2794
  409MOL0     C55091   7.588   3.808   0.937 -0.7551  0.1412 -0.0558
  409MOL0     C55092   7.501   3.678   0.945  0.4960 -0.5930  0.9280
  409MOL0     C55093   7.380   3.715   1.027  0.0860 -0.3767  0.8150
  409MOL0     C55094   7.260   3.623   0.997  0.1824  0.6091 -0.0379
  409MOL0     C55095   7.129   3.652   1.079 -0.2569  0.7191  0.8453
  409MOL0     C55096   7.137   3.629   1.232  0.6602  0.2507 -0.4953
  409MOL0     N55097   7.000   3.644   1.281  0.8963 -0.7089 -0.3859
  409MOL0     C55098   6.889   3.559   1.267  0.2519 -0.4145 -0.5147
  409MOL0     C55099   6.780   3.619   1.328 -0.4841  0.3811  0.1780
  409MOL0     C55100   6.644   3.552   1.340 -0.6637  0.7722 -0.3666
  409MOL0     C55101   6.533   3.642   1.289 -0.0543 -0.4501 -0.6541
  409MOL0     C55102   6.391   3.581   1.289 -0.0078  0.8369 -0.0791
  409MOL0     C55103   6.372   3.505   1.149 -0.2744  0.0888  0.3313
  409MOL0     O55104   6.477   3.418   1.115  0.6462  0.6172 -1.1003
  409MOL0     C55105   6.470   3.284   1.152  0.8358 -0.0351 -0.0506
  409MOL0     C55106   6.584   3.201   1.134 -0.2658 -0.0924 -0.5111
  409MOL0     C55107   6.582   3.063   1.177  0.3065 -0.4345 -0.1330
  409MOL0     C55108   6.483   3.017   1.256  0.5828 -0.0929 -0.2055
  409MOL0     C55109   6.488   2.873   1.314  0.4563  0.4443  1.2692
  409MOL0     O55110   6.377   2.835   1.385  0.2969 -0.6392  0.2085
  409MOL0     C55111   6.352   2.698   1.389 -0.0974 -0.1245  0.2676
  409MOL0     C55112   6.371   2.614   1.277 -0.0873 -0.9666  0.4790
  409MOL0     C55113   6.328   2.482   1.277  0.1579 -1.0274  0.1584
  409MOL0     C55114   6.266   2.429   1.391 -0.1007  0.5794 -0.3466
  409MOL0     O55115   6.196   2.321   1.405 -0.0197  0.0598 -0.2295
  409MOL0     C55116   6.210   2.213   1.308 -0.6030  0.1901 -0.0926
  409MOL0     C55117   6.201   2.072   1.365  0.2482 -0.5798 -0.7421
  409MOL0     C55118   6.341   2.014   1.372  0.3328 -0.2395 -0.6044
  409MOL0     C55119   6.315   1.875   1.436 -0.4712 -0.0634  1.0267
  409MOL0     C55120   6.451   1.793   1.429  0.6259  0.1684  0.1471
  409MOL0     C55121   6.586   1.855   1.487  0.0574 -0.0856 -0.4643
  409MOL0     C55122   6.576   1.890   1.636  0.1745 -0.0263 -0.6369
  409MOL0     C55123   6.553   1.767   1.725  0.5765 -0.9129 -0.0825
  409MOL0    Cl55124   6.701   1.670   1.722  0.1780 -0.2312  0.6569
  409MOL0     C55125   6.250   2.505   1.504  0.1561 -1.0907  0.4644
  409MOL0     C55126   6.283   2.645   1.499  0.0697 -0.5587 -0.1159
  409MOL0     O55127   6.597   2.814   1.311 -0.2500 -0.4652  0.0451
  409MOL0     C55128   6.365   3.102   1.270 -0.1952  0.3888  0.9961
  409MOL0     C55129   6.365   3.226   1.229  0.9800  0.5697 -0.2034
  409MOL0     N55130   6.845   3.729   1.394  0.2494  1.0504 -0.1884
  409MOL0     N55131   6.967   3.747   1.356  0.1459 -0.1311  0.8245
  409MOL0     C55132   8.144   3.935   0.752  0.2718 -0.0210 -0.1465
  409MOL0     C55133   8.249   4.030   0.752  0.5411 -0.3285 -0.5686
  409MOL0     C55134   8.438   4.432   0.661 -0.9168 -1.1429  0.6099
  409MOL0     C55135   8.494   4.450   0.782 -0.6639 -0.1029  0.7455
  409MOL0     C55136   8.573   4.554   0.813 -0.3072 -0.2191 -0.2216
  409MOL0     C55137   8.625   4.647   0.712 -0.0458 -0.2064 -0.2001
  409MOL0     O55138   8.727   4.734   0.734 -0.2756  0.0315 -0.0049
  409MOL0     C55139   8.684   4.868   0.775  0.1350  0.3359 -0.4572
  409MOL0     C55140   8.790   4.933   0.857 -0.1511 -0.0337 -0.5902
  409MOL0     C55141   8.739   5.064   0.928  0.2438 -0.1629  0.2853
  409MOL0     C55142   8.694   5.186   0.853 -0.0170 -0.1630  0.5230
  409MOL0     C55143   8.564   5.177   0.780 -0.9722 -0.3112  0.2347
  409MOL0     C55144   8.459   5.156   0.730  0.4131  0.1927 -0.2358
  409MOL0     C55145   8.579   4.616   0.588 -0.3855 -0.3082  0.0161
  409MOL0     C55146   8.490   4.513   0.557  0.6218 -0.0058  0.1527
  409MOL0     C55147   8.454   4.489   0.416  0.3431 -0.1732  0.3850
  409MOL0     H55148   8.067   4.305   0.748  3.2148  0.4281 -1.9429
  409MOL0     H55149   7.871   4.137   0.737 -0.6216 -1.4963 -1.2221
  409MOL0     H55150   7.825   3.967   0.927 -2.3573  2.8648 -0.7265
  409MOL0     H55151   7.725   3.969   0.789 -3.0127 -0.1742  4.3270
  409MOL0     H55152   7.807   3.758   0.990  2.5188 -0.2259 -1.1367
  409MOL0     H55153   7.740   3.695   0.842  2.6214 -2.1609  2.6649
  409MOL0     H55154   7.550   3.883   0.867  2.2249  1.0063 -0.8902
  409MOL0     H55155   7.579   3.866   1.029  4.4256  1.9362 -0.3645
  409MOL0     H55156   7.468   3.648   0.845  1.0863 -1.0173  0.8571
  409MOL0     H55157   7.547   3.592   0.996 -0.4761 -0.7685  1.5331
  409MOL0     H55158   7.410   3.705   1.132  0.9864  0.3902  0.6436
  409MOL0     H55159   7.347   3.817   1.003  0.2839 -0.6397 -0.6332
  409MOL0     H55160   7.227   3.647   0.896  2.2581  4.3143 -0.0061
  409MOL0     H55161   7.299   3.521   1.004  1.8830  1.2541  0.5314
  409MOL0     H55162   7.049   3.585   1.048 -0.5910  1.3241  0.3886
  409MOL0     H55163   7.101   3.754   1.053 -0.6606  0.6108  0.8557
  409MOL0     H55164   7.176   3.528   1.251  0.9434 -0.0486 -2.4566
  409MOL0     H55165   7.211   3.698   1.273  2.1894  0.6010 -3.5417
  409MOL0     H55166   6.886   3.466   1.211  0.1301  0.9063 -2.8174
  409MOL0     H55167   6.664   3.461   1.283  0.7814  1.1169 -0.4602
  409MOL0     H55168   6.625   3.516   1.442  0.1258  0.1631 -0.4222
  409MOL0     H55169   6.528   3.732   1.350  0.4279  0.1115 -1.4228
  409MOL0     H55170   6.567   3.679   1.192  0.5451 -1.4215 -0.8273
  409MOL0     H55171   6.309   3.652   1.303 -0.7992 -0.5318  3.2987
  409MOL0     H55172   6.385   3.500   1.362 -1.6889  1.0276  0.0441
  409MOL0     H55173   6.376   3.574   1.064  0.0061 -1.2796 -0.7914
  409MOL0     H55174   6.273   3.458   1.156  0.0480 -0.7087 -0.3016
  409MOL0     H55175   6.670   3.236   1.079  0.8319  2.1338  2.3532
  409MOL0     H55176   6.674   3.004   1.179 -0.2361 -1.3751 -1.4400
  409MOL0     H55177   6.409   2.657   1.185  0.8062 -2.1822  0.2623
  409MOL0     H55178   6.341   2.423   1.186  0.3101  0.2795 -0.7015
  409MOL0     H55179   6.133   2.209   1.231  0.7497  1.3145 -1.5517
  409MOL0     H55180   6.300   2.232   1.250 -0.8225 -3.9994 -2.2264
  409MOL0     H55181   6.162   2.072   1.467  0.4173 -5.6800 -0.3895
  409MOL0     H55182   6.141   2.016   1.293 -0.6524  0.1358 -0.5588
  409MOL0     H55183   6.376   2.002   1.269 -1.0818 -2.0803 -0.9152
  409MOL0     H55184   6.407   2.076   1.434  1.3033  0.6097 -2.3935
  409MOL0     H55185   6.239   1.822   1.377  0.7160  2.4844 -3.2089
  409MOL0     H55186   6.288   1.877   1.542 -0.0382 -0.1234  1.1427
  409MOL0     H55187   6.473   1.793   1.322 -0.0621  4.5036 -0.1758
  409MOL0     H55188   6.440   1.694   1.475  0.9551 -0.7898 -1.7151
  409MOL0     H55189   6.677   1.796   1.468 -1.6062 -2.7503 -0.7251
  409MOL0     H55190   6.604   1.950   1.435 -3.2637  2.5721  2.7534
  409MOL0     H55191   6.498   1.965   1.651 -0.0818  0.1973 -2.6823
  409MOL0     H55192   6.670   1.938   1.664  0.3997 -0.5682 -0.4572
  409MOL0     H55193   6.530   1.798   1.827 -0.1683  1.5298 -0.9270
  409MOL0     H55194   6.467   1.705   1.697  0.4152 -1.9534  2.4548
  409MOL0     H55195   6.200   2.483   1.598 -0.2648  3.1321  1.4675
  409MOL0     H55196   6.258   2.712   1.581  0.0242 -1.3513  0.5339
  409MOL0     H55197   6.281   3.057   1.322  0.5644 -1.8488  0.4125
  409MOL0     H55198   6.278   3.287   1.253  1.8331  1.6661  0.1636
  409MOL0     H55199   8.187   3.835   0.750  2.7533  0.8954  2.1786
  409MOL0     H55200   8.355   4.015   0.767  0.7648  1.9507  0.7161
  409MOL0     H55201   8.463   4.390   0.867 -1.2171  0.0070  0.6268
  409MOL0     H55202   8.596   4.568   0.918  0.0622 -1.8182 -0.0690
  409MOL0     H55203   8.587   4.850   0.822 -0.7972  1.1443 -1.9861
  409MOL0     H55204   8.668   4.942   0.696 -0.1257  1.4006  0.5677
  409MOL0     H55205   8.880   4.961   0.801 -1.1894  0.2928 -2.1651
  409MOL0     H55206   8.840   4.871   0.931  0.4602  0.3162 -0.7007
  409MOL0     H55207   8.815   5.080   1.005  1.1220 -4.6283  0.6583
  409MOL0     H55208   8.654   5.027   0.986 -0.8030  0.2249 -0.9485
  409MOL0     H55209   8.691   5.261   0.933  1.0390 -0.6186  1.0072
  409MOL0     H55210   8.781   5.206   0.790  0.1607  0.8872  1.0707
  409MOL0     H55211   8.365   5.143   0.682 -0.4150  4.5654 -0.2219
  409MOL0     H55212   8.629   4.685   0.521  2.0972  1.0069  2.9801
  409MOL0     H55213   8.523   4.550   0.356  0.1945 -0.9918 -0.6250
  409MOL0     H55214   8.461   4.383   0.390  3.3223 -0.4021  1.7058
  409MOL0     H55215   8.351   4.517   0.395  0.2561 -0.8151 -0.0574
  410MOL0     O55216   0.535   5.087   7.062  0.1485  0.2527 -0.9412
  410MOL0     C55217   0.420   5.114   7.069  0.7809  0.3719 -0.1962
  410MOL0     O55218   0.344   5.110   7.180 -0.5124 -0.0786 -0.0442
  410MOL0     C55219   0.402   5.044   7.285 -0.0695 -0.4908 -0.1843
  410MOL0     C55220   0.458   5.114   7.400 -0.7456  0.3441  0.1983
  410MOL0     C55221   0.533   5.044   7.493  0.4931 -0.3228 -0.1375
  410MOL0     C55222   0.566   4.915   7.476  0.8137  0.0288 -0.8155
  410MOL0     O55223   0.634   4.862   7.590 -0.1642  0.4658 -0.3369
  410MOL0     C55224   0.657   4.723   7.601 -0.3480 -0.2045  0.9789
  410MOL0     C55225   0.748   4.679   7.714 -0.2597  0.5819  0.6940
  410MOL0     C55226   0.767   4.524   7.706 -0.4071 -0.4646  0.8934
  410MOL0     C55227   0.656   4.454   7.790 -0.9062  0.2913  0.2653
  410MOL0     C55228   0.677   4.318   7.848 -0.3396  0.4479 -1.0121
  410MOL0     C55229   0.797   4.312   7.948 -0.5059 -0.6734 -0.1377
  410MOL0     C55230   0.836   4.169   7.987  0.2766 -0.6421 -0.1561
  410MOL0     C55231   0.931   4.103   7.880  0.2210 -0.0234  0.6179
  410MOL0     N55232   0.932   3.955   7.887 -0.5940 -0.4228  0.2321
  410MOL0     C55233   1.035   3.883   7.826  0.1490 -0.3270 -0.1762
  410MOL0     C55234   0.994   3.757   7.824  0.5625  0.9678 -0.3627
  410MOL0     C55235   1.063   3.632   7.767  0.9449 -0.5183 -0.3385
  410MOL0     C55236   0.973   3.512   7.766  0.0426 -0.2599  0.7064
  410MOL0     C55237   1.039   3.400   7.678  0.1236 -0.0511  0.3912
  410MOL0     C55238   0.945   3.279   7.685  0.1303  0.8043 -0.6810
  410MOL0     O55239   1.002   3.147   7.709 -0.2345 -0.9288  0.6413
  410MOL0     C55240   1.042   3.083   7.594 -0.2932  0.8331  0.2189
  410MOL0     C55241   1.068   3.134   7.467 -0.4406 -0.1870  0.8679
  410MOL0     C55242   1.115   3.045   7.361 -0.0363  0.5375 -0.2905
  410MOL0     C55243   1.121   2.900   7.378  0.5246  0.8129 -0.2507
  410MOL0     C55244   1.143   2.803   7.264 -1.0709 -0.9128 -0.7483
  410MOL0     O55245   1.144   2.669   7.299  0.4207 -0.0022  1.4507
  410MOL0     C55246   1.176   2.568   7.219 -0.2206  0.7010  0.3780
  410MOL0     C55247   1.206   2.444   7.285  0.6650  0.4120 -0.2068
  410MOL0     C55248   1.261   2.336   7.215 -0.1889  0.4295 -0.6444
  410MOL0     C55249   1.271   2.327   7.078  0.5987  0.0744 -0.3452
  410MOL0     O55250   1.314   2.207   7.019 -0.2107  0.1734  0.2634
  410MOL0     C55251   1.445   2.234   6.952  0.7051 -0.5393  0.0347
  410MOL0     C55252   1.560   2.151   7.013  0.5870  0.3459 -0.2108
  410MOL0     C55253   1.520   2.004   7.036  0.3746 -0.4358 -0.6150
  410MOL0     C55254   1.625   1.896   7.072 -0.1895  0.0006 -0.6010
  410MOL0     C55255   1.711   1.867   6.945 -0.3852 -0.0174  0.4530
  410MOL0     C55256   1.783   1.723   6.956 -0.9435  0.9041 -0.1174
  410MOL0     C55257   1.690   1.610   6.909  1.1290 -0.6294  0.0112
  410MOL0     C55258   1.726   1.566   6.768 -0.1602 -0.3121  0.1910
  410MOL0    Cl55259   1.606   1.455   6.697 -0.2070 -0.5505 -0.2502
  410MOL0     C55260   1.232   2.447   7.007  0.2273  0.6598  0.0836
  410MOL0     C55261   1.184   2.559   7.079 -0.1558  0.9591  0.5943
  410MOL0     O55262   1.149   2.858   7.153  0.0160 -0.0226  0.2535
  410MOL0     C55263   1.099   2.856   7.512 -1.4668 -0.1805  0.2995
  410MOL0     C55264   1.043   2.939   7.613 -0.0206 -0.1127  0.1948
  410MOL0     N55265   0.869   3.755   7.884 -0.2725 -0.7142 -0.1257
  410MOL0     N55266   0.825   3.874   7.912  0.2381  0.7611  0.9853
  410MOL0     C55267   0.521   4.842   7.361 -0.0241  0.2470  0.1853
  410MOL0     C55268   0.429   4.901   7.269  0.0270 -0.1699  0.0108
  410MOL0     C55269   0.339   5.161   6.950  0.5451  0.5257 -0.1927
  410MOL0     C55270   0.215   5.239   6.973 -1.2877  0.5715 -0.2638
  410MOL0     C55271   0.142   5.287   6.860  0.0907  0.5016 -0.5765
  410MOL0     C55272   0.177   5.255   6.733  0.4330 -1.2230  1.0664
  410MOL0     O55273   0.104   5.297   6.618 -0.4862  0.4400  0.0356
  410MOL0     C55274   0.012   5.200   6.573  0.4817  0.0662 -0.3316
  410MOL0     C55275  -0.121   5.243   6.519  0.5637 -0.0154  0.2078
  410MOL0     C55276  -0.206   5.139   6.449 -0.4039  0.2782  0.6795
  410MOL0     C55277  -0.153   5.069   6.325 -0.0233 -0.8325 -0.4127
  410MOL0     C55278  -0.054   4.968   6.348  0.4166  0.3355 -0.3917
  410MOL0     C55279   0.032   4.888   6.365 -0.3394 -0.6868  0.2948
  410MOL0     C55280   0.294   5.184   6.710  0.0021  0.7753 -0.4143
  410MOL0     C55281   0.372   5.134   6.821 -0.5615 -0.5711  0.7703
  410MOL0     C55282   0.502   5.071   6.775  0.9206  1.5824  0.5743
  410MOL0     H55283   0.450   5.221   7.415 -2.3217  0.0584  1.7766
  410MOL0     H55284   0.566   5.097   7.581  0.4874  1.9476 -1.4137
  410MOL0     H55285   0.562   4.670   7.615  0.3775 -1.5950  0.7841
  410MOL0     H55286   0.704   4.689   7.508 -0.7584 -0.0776  0.7233
  410MOL0     H55287   0.710   4.712   7.811 -2.6269 -0.6111  0.2487
  410MOL0     H55288   0.846   4.726   7.698 -1.2989  2.1174 -1.6901
  410MOL0     H55289   0.865   4.516   7.752 -0.0716 -0.0259  0.2624
  410MOL0     H55290   0.768   4.488   7.603 -2.4441  0.9729  0.3116
  410MOL0     H55291   0.641   4.503   7.886  1.8121 -2.1098  2.0825
  410MOL0     H55292   0.565   4.451   7.728 -1.5065  1.0974  1.0798
  410MOL0     H55293   0.582   4.284   7.890  0.7262  0.8848  2.0298
  410MOL0     H55294   0.692   4.252   7.762 -1.4721 -2.4691  0.9062
  410MOL0     H55295   0.879   4.374   7.911 -0.0698  0.9277  3.1466
  410MOL0     H55296   0.779   4.367   8.040  1.1009  2.2334 -1.4426
  410MOL0     H55297   0.735   4.128   7.994 -0.4637  0.8134 -1.5950
  410MOL0     H55298   0.873   4.166   8.090 -1.4447  0.4697  0.5410
  410MOL0     H55299   0.898   4.141   7.783 -1.8548 -1.4964  0.6934
  410MOL0     H55300   1.032   4.137   7.905  0.9039  0.9600 -2.8966
  410MOL0     H55301   1.121   3.926   7.776 -0.7196  2.3536  0.4695
  410MOL0     H55302   1.102   3.661   7.668 -0.6357 -1.4225 -1.2757
  410MOL0     H55303   1.150   3.603   7.826 -0.4490 -2.4762  0.8493
  410MOL0     H55304   0.974   3.471   7.868  0.9978  1.5189  1.4403
  410MOL0     H55305   0.872   3.547   7.741  1.3102  2.8845 -0.5197
  410MOL0     H55306   1.137   3.370   7.717  0.1511 -0.4550  0.0205
  410MOL0     H55307   1.049   3.436   7.575 -1.1632 -0.5375  0.0742
  410MOL0     H55308   0.882   3.286   7.596  0.0751 -2.3343 -0.9894
  410MOL0     H55309   0.870   3.295   7.763 -0.9156  0.6755 -1.6368
  410MOL0     H55310   1.070   3.240   7.442  1.0063 -0.6590 -1.2758
  410MOL0     H55311   1.131   3.069   7.256 -2.1547 -0.8390 -1.0199
  410MOL0     H55312   1.204   2.439   7.394 -2.4663 -0.2917 -0.1973
  410MOL0     H55313   1.288   2.262   7.290  1.6436 -0.0606 -1.7203
  410MOL0     H55314   1.438   2.198   6.849 -1.4892  1.9366 -0.7911
  410MOL0     H55315   1.479   2.338   6.948 -1.0398  0.0072 -1.6539
  410MOL0     H55316   1.638   2.150   6.936 -0.7612 -1.9477 -1.6716
  410MOL0     H55317   1.599   2.197   7.104  1.2854 -3.9314  1.9052
  410MOL0     H55318   1.453   2.009   7.123  0.7590  3.0096 -0.3877
  410MOL0     H55319   1.453   1.966   6.959  0.4060 -0.2563 -0.7305
  410MOL0     H55320   1.570   1.807   7.105 -0.0853  0.7829  1.8722
  410MOL0     H55321   1.677   1.934   7.160  0.6721 -0.7786 -0.7578
  410MOL0     H55322   1.790   1.939   6.926  0.8831 -1.8021 -1.4983
  410MOL0     H55323   1.643   1.870   6.860  2.4366  1.6096 -1.9259
  410MOL0     H55324   1.884   1.733   6.914 -0.3052  1.4362  1.4412
  410MOL0     H55325   1.800   1.716   7.064  3.4416 -1.4890 -0.7358
  410MOL0     H55326   1.587   1.646   6.899  0.8159 -0.7404  2.3751
  410MOL0     H55327   1.689   1.522   6.974  2.7125 -0.8794 -0.2587
  410MOL0     H55328   1.720   1.651   6.699  1.1949 -0.2002  0.1858
  410MOL0     H55329   1.820   1.511   6.764 -0.9733 -1.8529  1.2356
  410MOL0     H55330   1.237   2.452   6.898 -2.6218  1.2800 -0.1064
  410MOL0     H55331   1.140   2.643   7.025 -0.2435  2.8515  3.4332
  410MOL0     H55332   1.113   2.749   7.529 -0.0822 -0.2376 -0.9346
  410MOL0     H55333   1.013   2.905   7.711 -1.9230 -0.0632 -0.3287
  410MOL0     H55334   0.539   4.735   7.362  0.3764  0.3149  0.6520
  410MOL0     H55335   0.399   4.834   7.189  0.6729  1.8642 -2.0489
  410MOL0     H55336   0.180   5.273   7.071 -1.5404 -0.0412 -0.1341
  410MOL0     H55337   0.062   5.359   6.875 -0.6271 -0.2474 -0.7620
  410MOL0     H55338  -0.017   5.132   6.654 -6.3006  0.8934 -1.4224
  410MOL0     H55339   0.056   5.134   6.499 -2.1833 -0.3849 -1.6492
  410MOL0     H55340  -0.111   5.325   6.447  1.8859 -0.6618 -0.3897
  410MOL0     H55341  -0.178   5.277   6.605 -2.0964  0.3996 -1.5783
  410MOL0     H55342  -0.298   5.191   6.418  2.0444  3.9139 -1.2113
  410MOL0     H55343  -0.222   5.055   6.516  5.0653 -0.0625  1.9859
  410MOL0     H55344  -0.240   5.024   6.276 -0.7193  0.6690 -0.6217
  410MOL0     H55345  -0.116   5.146   6.256  0.5221 -0.2655  0.4946
  410MOL0     H55346   0.108   4.820   6.397  0.1233 -0.9110 -1.2137
  410MOL0     H55347   0.341   5.179   6.612  0.3699  0.8093 -0.2434
  410MOL0     H55348   0.522   5.080   6.668  0.2186 -0.1160  0.2707
  410MOL0     H55349   0.594   5.106   6.822  2.1077 -0.9225  0.3141
  410MOL0     H55350   0.503   4.963   6.797  2.1599  0.9663 -2.1372
  411MOL0     O55351   1.065   6.580   6.274  0.2950  0.0829  0.1836
  411MOL0     C55352   1.021   6.489   6.342  0.0300  0.6122 -0.0207
  411MOL0     O55353   0.952   6.382   6.292  0.0305 -0.8467  0.4792
  411MOL0     C55354   0.941   6.354   6.162 -0.3792  1.3929 -0.5829
  411MOL0     C55355   1.046   6.356   6.066 -0.4146  0.5689 -0.5114
  411MOL0     C55356   1.025   6.322   5.937  0.7468  0.4616  0.2423
  411MOL0     C55357   0.905   6.266   5.904 -0.3193 -0.0078 -0.8428
  411MOL0     O55358   0.884   6.241   5.773 -0.9327  0.9679 -0.0087
  411MOL0     C55359   0.755   6.254   5.721  0.5275 -0.4408  0.1708
  411MOL0     C55360   0.745   6.235   5.564  1.3195  0.3314 -0.5058
  411MOL0     C55361   0.851   6.312   5.494  0.0334 -1.3492  1.2265
  411MOL0     C55362   0.830   6.335   5.341  1.2082 -0.7608 -0.3650
  411MOL0     C55363   0.831   6.205   5.269  0.8806 -0.2650  0.7981
  411MOL0     C55364   0.800   6.241   5.126  0.1517  0.6456 -0.4612
  411MOL0     C55365   0.758   6.118   5.051  0.0484  0.4693 -1.1610
  411MOL0     C55366   0.702   6.164   4.918 -0.4723 -0.4217  0.0884
  411MOL0     N55367   0.683   6.047   4.831  0.5346 -0.0850  0.2061
  411MOL0     C55368   0.751   5.998   4.719 -0.6269  0.0394  0.6924
  411MOL0     C55369   0.682   5.886   4.677  0.8935  0.3958 -0.2251
  411MOL0     C55370   0.725   5.795   4.564 -0.3569 -0.5849  0.7179
  411MOL0     C55371   0.853   5.723   4.604 -0.1787  0.6823  0.4731
  411MOL0     C55372   0.900   5.606   4.512  0.1868  0.2026  0.1670
  411MOL0     C55373   0.918   5.654   4.359  0.3895 -0.8105 -0.4176
  411MOL0     O55374   1.039   5.735   4.353  0.2248  0.2974  0.5454
  411MOL0     C55375   1.074   5.792   4.237 -0.2169 -0.2773  0.3043
  411MOL0     C55376   1.009   5.781   4.115 -0.5381 -0.2467 -1.0843
  411MOL0     C55377   1.055   5.841   3.994 -0.2285  0.4782 -0.2609
  411MOL0     C55378   1.171   5.918   3.998 -0.0802  0.6602  0.3867
  411MOL0     C55379   1.231   5.979   3.876 -0.6092  0.9030  0.2416
  411MOL0     O55380   1.166   5.965   3.751  0.0011 -0.0183 -0.1920
  411MOL0     C55381   1.244   5.979   3.636  0.1013 -0.1564  0.0696
  411MOL0     C55382   1.202   6.062   3.534 -0.0304  0.7893 -0.3571
  411MOL0     C55383   1.271   6.082   3.406 -1.5434  0.8002 -0.6932
  411MOL0     C55384   1.389   6.003   3.388  0.0405  0.5211 -0.5822
  411MOL0     O55385   1.465   5.996   3.273  0.0363  0.3127  0.5260
  411MOL0     C55386   1.602   6.049   3.299 -0.7783  0.8936  0.4856
  411MOL0     C55387   1.661   6.101   3.168  1.4807  0.0621  0.3748
  411MOL0     C55388   1.599   6.238   3.118  0.3882 -0.4309 -0.7620
  411MOL0     C55389   1.671   6.285   2.984 -0.3766 -0.0870  0.1761
  411MOL0     C55390   1.597   6.411   2.941 -0.0047  0.0738 -0.3307
  411MOL0     C55391   1.643   6.472   2.802 -0.4686  0.2470  0.3346
  411MOL0     C55392   1.567   6.596   2.773 -0.2723  0.2727  0.4122
  411MOL0     C55393   1.423   6.564   2.722  1.1473  0.0934  0.4281
  411MOL0    Cl55394   1.333   6.708   2.661 -0.4590 -0.0186  0.3972
  411MOL0     C55395   1.423   5.914   3.490 -0.1068 -0.1744  0.3851
  411MOL0     C55396   1.353   5.901   3.608 -0.5162 -0.9566 -0.1524
  411MOL0     O55397   1.346   6.019   3.886  0.2266 -0.6509 -0.3559
  411MOL0     C55398   1.232   5.928   4.124  0.6061 -0.6733 -0.4018
  411MOL0     C55399   1.185   5.865   4.236  0.0674  0.0751  0.7333
  411MOL0     N55400   0.570   5.875   4.761  0.1225  0.1488  0.2848
  411MOL0     N55401   0.569   5.971   4.844 -0.8833  0.1038 -0.8377
  411MOL0     C55402   0.804   6.244   5.998  1.0664  0.1599 -0.3288
  411MOL0     C55403   0.823   6.283   6.132 -0.5122  0.1469  0.1433
  411MOL0     C55404   1.044   6.495   6.491 -0.5597 -1.2981  0.3620
  411MOL0     C55405   1.094   6.614   6.545  1.4568 -0.5638 -1.3099
  411MOL0     C55406   1.102   6.639   6.693  0.7770  0.0937  0.7091
  411MOL0     C55407   1.052   6.538   6.774  0.5527  0.7191  0.1980
  411MOL0     O55408   1.060   6.574   6.907 -0.3969 -0.1033 -0.7092
  411MOL0     C55409   1.044   6.482   7.008  0.7737  0.3026 -0.2744
  411MOL0     C55410   0.925   6.532   7.097  0.0981 -1.5384 -0.2741
  411MOL0     C55411   0.972   6.649   7.190  0.3194 -0.5207  0.7462
  411MOL0     C55412   0.850   6.739   7.229 -0.8683 -0.3484  0.2436
  411MOL0     C55413   0.897   6.863   7.294 -0.7902 -0.1852  0.4769
  411MOL0     C55414   0.940   6.963   7.354  0.5708  0.3387 -0.4025
  411MOL0     C55415   0.987   6.428   6.720 -0.0258 -0.3981  0.0297
  411MOL0     C55416   0.981   6.405   6.580 -0.6172 -0.4707 -0.7954
  411MOL0     C55417   0.891   6.289   6.538 -0.1809  0.4830  0.1874
  411MOL0     H55418   1.143   6.393   6.096  1.0945 -2.2922 -1.4499
  411MOL0     H55419   1.093   6.329   5.853  0.5488  2.4553  0.2073
  411MOL0     H55420   0.687   6.178   5.759  1.3248 -0.8900  0.7475
  411MOL0     H55421   0.720   6.357   5.731  5.0533  1.5518 -1.4266
  411MOL0     H55422   0.639   6.247   5.538  1.3146 -2.4009 -2.1208
  411MOL0     H55423   0.765   6.130   5.543  0.4672 -0.2178  1.2033
  411MOL0     H55424   0.950   6.269   5.514  2.4079  1.8096 -2.2431
  411MOL0     H55425   0.841   6.412   5.538 -1.4687 -1.2440  0.6931
  411MOL0     H55426   0.742   6.399   5.326  1.7938  1.1195  3.0677
  411MOL0     H55427   0.910   6.399   5.303  2.3780 -1.6988  0.4569
  411MOL0     H55428   0.932   6.170   5.288  0.1718 -2.5979  0.5468
  411MOL0     H55429   0.755   6.141   5.314 -2.9132  2.1578 -1.4669
  411MOL0     H55430   0.728   6.323   5.118 -0.2135  0.1995 -2.3986
  411MOL0     H55431   0.893   6.264   5.074 -0.0833 -0.0700 -1.2218
  411MOL0     H55432   0.680   6.070   5.110  0.0279  1.8265 -0.0259
  411MOL0     H55433   0.843   6.057   5.018 -1.5241 -0.9709 -2.7532
  411MOL0     H55434   0.605   6.212   4.930 -0.3559  0.5201 -2.2831
  411MOL0     H55435   0.774   6.230   4.870 -2.1424  0.0086 -1.9589
  411MOL0     H55436   0.845   6.038   4.682 -0.9932 -1.2371 -1.8421
  411MOL0     H55437   0.645   5.722   4.546  1.3294 -2.1613 -0.7004
  411MOL0     H55438   0.748   5.853   4.475  1.6372 -0.2022  1.4388
  411MOL0     H55439   0.931   5.799   4.617 -1.2476  1.9358 -0.2346
  411MOL0     H55440   0.843   5.672   4.700 -2.4208 -1.6297 -0.8692
  411MOL0     H55441   0.832   5.521   4.514  0.9451 -0.4191  1.3427
  411MOL0     H55442   0.998   5.570   4.546  0.2097 -1.3473 -1.4181
  411MOL0     H55443   0.833   5.711   4.319  2.0963  0.4037 -2.5530
  411MOL0     H55444   0.930   5.566   4.294  0.9937 -2.1772  1.4628
  411MOL0     H55445   0.927   5.711   4.100  0.5639 -1.5462 -1.2080
  411MOL0     H55446   1.004   5.819   3.901  0.1145 -2.7037  0.2102
  411MOL0     H55447   1.112   6.120   3.550 -1.1414 -0.8418 -0.4483
  411MOL0     H55448   1.223   6.135   3.325 -3.3977  0.6283  0.2379
  411MOL0     H55449   1.600   6.117   3.385  0.0817 -1.7309  2.7402
  411MOL0     H55450   1.667   5.965   3.326  0.9255  2.8370  2.8928
  411MOL0     H55451   1.769   6.114   3.181  1.1897  1.9777  1.2833
  411MOL0     H55452   1.624   6.027   3.097  0.0208  1.1017  0.0073
  411MOL0     H55453   1.493   6.228   3.091  0.3678  5.2052 -4.4386
  411MOL0     H55454   1.600   6.310   3.200  0.5709  0.1861 -1.3001
  411MOL0     H55455   1.663   6.210   2.905 -0.5915  1.0322 -0.8988
  411MOL0     H55456   1.774   6.309   3.013 -0.3233 -0.0779 -0.0224
  411MOL0     H55457   1.608   6.482   3.023  0.0892 -0.9990  0.6113
  411MOL0     H55458   1.488   6.405   2.945  0.0934 -1.9370  0.2978
  411MOL0     H55459   1.747   6.508   2.800 -1.2003  2.5103 -1.0286
  411MOL0     H55460   1.624   6.405   2.717 -3.1767  1.6437 -0.2693
  411MOL0     H55461   1.626   6.646   2.695 -0.9889 -1.3551 -1.2547
  411MOL0     H55462   1.554   6.668   2.854  2.0026  1.3937 -0.1378
  411MOL0     H55463   1.431   6.489   2.642 -0.0679 -0.2776  0.6390
  411MOL0     H55464   1.380   6.520   2.812  6.0580  2.2536  4.3131
  411MOL0     H55465   1.511   5.854   3.472 -0.4684 -0.9156  1.0454
  411MOL0     H55466   1.389   5.837   3.688  0.9484  0.6788  0.5797
  411MOL0     H55467   1.325   5.980   4.141 -0.0279  0.7210 -1.0047
  411MOL0     H55468   1.260   5.866   4.314 -0.3049 -0.0728  1.0932
  411MOL0     H55469   0.706   6.207   5.968  1.1739  0.7891 -1.5017
  411MOL0     H55470   0.754   6.272   6.215 -1.1867 -2.4984 -0.6765
  411MOL0     H55471   1.121   6.702   6.488 -0.6562  3.3267  2.9759
  411MOL0     H55472   1.141   6.722   6.750 -3.2854  3.2160 -0.5326
  411MOL0     H55473   1.135   6.477   7.069  1.8200  0.5228 -1.7730
  411MOL0     H55474   1.029   6.384   6.964  2.2059  0.3094 -0.8477
  411MOL0     H55475   0.895   6.454   7.167  1.8037 -1.7476  0.2730
  411MOL0     H55476   0.829   6.561   7.054 -1.4074  1.1006  4.1946
  411MOL0     H55477   1.043   6.710   7.134 -2.0033 -0.7754 -2.7816
  411MOL0     H55478   1.027   6.613   7.278  0.7899  0.0416  0.6895
  411MOL0     H55479   0.795   6.755   7.136  2.3515 -2.8029 -2.3272
  411MOL0     H55480   0.790   6.690   7.306 -2.3524 -1.1558 -1.3667
  411MOL0     H55481   0.960   7.044   7.420 -2.8549  0.9754  0.0053
  411MOL0     H55482   0.921   6.363   6.776  1.2551 -5.2739 -3.4768
  411MOL0     H55483   0.795   6.328   6.502 -0.6299  1.7210  2.5094
  411MOL0     H55484   0.942   6.223   6.468 -1.1752  1.8448 -1.9316
  411MOL0     H55485   0.870   6.223   6.623 -0.1568 -0.7848 -0.7651
  412MOL0     O55486   5.758   6.391   2.205  0.2189 -0.0396 -0.0212
  412MOL0     C55487   5.640   6.379   2.180 -0.3599  0.3158  0.3021
  412MOL0     O55488   5.596   6.331   2.062  0.6180 -0.3849  0.8153
  412MOL0     C55489   5.679   6.327   1.950 -0.7728  0.7651  0.1175
  412MOL0     C55490   5.763   6.435   1.909 -0.3271  0.2491  0.6458
  412MOL0     C55491   5.848   6.411   1.798  0.7515 -1.3115  0.0349
  412MOL0     C55492   5.845   6.294   1.726 -0.8079  0.2112 -0.5047
  412MOL0     O55493   5.913   6.285   1.616  0.3265  0.4899  0.2877
  412MOL0     C55494   5.979   6.161   1.593 -0.3669  0.6961 -0.3791
  412MOL0     C55495   6.058   6.174   1.454 -0.3364 -0.5226 -0.9725
  412MOL0     C55496   6.170   6.064   1.413 -0.3740 -0.5730  0.1724
  412MOL0     C55497   6.272   6.044   1.525  0.7894 -0.7048  0.3069
  412MOL0     C55498   6.393   5.955   1.484 -0.3398 -0.3246  0.2777
  412MOL0     C55499   6.493   6.029   1.400  0.4133 -0.6272  0.7457
  412MOL0     C55500   6.584   6.122   1.477  0.3807 -0.6738  1.3086
  412MOL0     C55501   6.679   6.185   1.375 -0.4618 -0.3258  0.4477
  412MOL0     N55502   6.610   6.251   1.260  1.1996 -0.9269  0.1990
  412MOL0     C55503   6.533   6.362   1.285  0.8066 -0.8815 -0.6500
  412MOL0     C55504   6.459   6.380   1.166  0.2531 -0.4254 -0.2749
  412MOL0     C55505   6.349   6.481   1.154  0.2543  0.5412 -0.7188
  412MOL0     C55506   6.218   6.431   1.224  0.5511  0.1294 -0.3125
  412MOL0     C55507   6.103   6.511   1.171 -0.1693  0.7801 -0.8401
  412MOL0     C55508   5.971   6.462   1.239 -0.0361 -0.4611 -0.0281
  412MOL0     O55509   5.861   6.558   1.240 -0.4899  0.4984  0.0099
  412MOL0     C55510   5.825   6.598   1.363  0.3269  0.4179 -1.0824
  412MOL0     C55511   5.865   6.725   1.415  0.4245  0.2493 -0.0923
  412MOL0     C55512   5.828   6.770   1.547  0.9447  0.0995 -0.3863
  412MOL0     C55513   5.738   6.695   1.623 -0.4067  1.5907 -0.0543
  412MOL0     C55514   5.690   6.741   1.749 -0.6462 -0.4072 -0.0732
  412MOL0     O55515   5.574   6.686   1.798 -0.0634  0.3578  0.5104
  412MOL0     C55516   5.517   6.725   1.912  0.1049  0.4332 -0.2587
  412MOL0     C55517   5.514   6.852   1.968 -0.9723 -0.3230  0.3690
  412MOL0     C55518   5.460   6.881   2.094  1.1896 -0.0930 -0.6114
  412MOL0     C55519   5.397   6.782   2.164 -0.3019  0.1983 -0.2977
  412MOL0     O55520   5.339   6.827   2.281  0.1976 -0.1776 -0.0717
  412MOL0     C55521   5.306   6.725   2.386 -0.7693 -0.1685  1.4384
  412MOL0     C55522   5.296   6.782   2.530  0.4946  0.3583  0.1230
  412MOL0     C55523   5.396   6.884   2.587  0.3760  0.0660  0.8339
  412MOL0     C55524   5.540   6.858   2.576 -0.0352  0.1053  0.3540
  412MOL0     C55525   5.637   6.977   2.566 -0.0194  0.2455  0.9445
  412MOL0     C55526   5.630   7.050   2.430  0.2235  0.0842  1.0267
  412MOL0     C55527   5.766   7.114   2.407  0.6322 -0.4102 -0.3834
  412MOL0     C55528   5.774   7.157   2.268 -0.5066  0.1502  0.5766
  412MOL0    Cl55529   5.952   7.195   2.242  0.0939 -0.4043 -0.3007
  412MOL0     C55530   5.392   6.657   2.109 -0.3937  1.2178  0.4726
  412MOL0     C55531   5.451   6.626   1.985  0.8077 -0.6687  0.8255
  412MOL0     O55532   5.757   6.833   1.803  0.0346 -0.6385  0.0031
  412MOL0     C55533   5.705   6.567   1.575  0.4083 -0.4644  0.1149
  412MOL0     C55534   5.745   6.522   1.455  0.3662 -0.4628  0.1391
  412MOL0     N55535   6.486   6.279   1.081  0.1247  0.5978  0.6384
  412MOL0     N55536   6.577   6.202   1.133  0.3975  0.5994 -0.4611
  412MOL0     C55537   5.755   6.195   1.755  1.3771  0.5176 -0.3027
  412MOL0     C55538   5.680   6.203   1.877 -0.5432 -0.0080  0.1546
  412MOL0     C55539   5.547   6.411   2.294 -0.4102 -0.9678  0.1760
  412MOL0     C55540   5.609   6.470   2.405 -0.4843 -0.4063 -0.4017
  412MOL0     C55541   5.539   6.474   2.528 -0.1094  0.4427  0.5339
  412MOL0     C55542   5.410   6.430   2.543  0.3555 -0.3822 -0.5811
  412MOL0     O55543   5.349   6.441   2.668 -0.2274 -0.0028 -0.1046
  412MOL0     C55544   5.207   6.423   2.678  0.0676 -0.2125  0.4660
  412MOL0     C55545   5.169   6.429   2.818  0.9646  0.1768 -0.1373
  412MOL0     C55546   5.162   6.577   2.857 -0.1036 -0.2341 -0.5753
  412MOL0     C55547   5.143   6.626   3.000  0.1669 -0.2666 -0.0030
  412MOL0     C55548   5.034   6.564   3.082  0.4283  0.1983  0.1462
  412MOL0     C55549   4.932   6.548   3.147  0.1799  0.4936  0.0713
  412MOL0     C55550   5.353   6.367   2.429 -0.1959 -0.1068  0.6337
  412MOL0     C55551   5.426   6.353   2.308  1.3767  0.5164 -1.0390
  412MOL0     C55552   5.360   6.281   2.196 -0.2505 -1.0037  0.0147
  412MOL0     H55553   5.751   6.533   1.955  0.1139  1.3610 -1.4665
  412MOL0     H55554   5.911   6.493   1.767  0.3423 -0.1651  2.0556
  412MOL0     H55555   6.046   6.138   1.677  1.0051  0.2125 -1.5705
  412MOL0     H55556   5.923   6.068   1.579 -0.3711  0.9202 -1.9159
  412MOL0     H55557   6.114   6.266   1.475  2.0050 -2.4807  2.4064
  412MOL0     H55558   5.992   6.178   1.367  1.7060 -1.1508 -2.6501
  412MOL0     H55559   6.213   6.098   1.318 -4.0606  2.2554 -0.7431
  412MOL0     H55560   6.124   5.965   1.402 -0.9460 -0.6390  2.5083
  412MOL0     H55561   6.319   6.136   1.561 -0.1101 -0.6730  1.4710
  412MOL0     H55562   6.223   5.994   1.609 -1.0482  0.9156  0.2622
  412MOL0     H55563   6.445   5.912   1.570 -0.4028 -0.9781 -0.0058
  412MOL0     H55564   6.359   5.872   1.422 -1.8560  0.4130  0.0626
  412MOL0     H55565   6.567   5.968   1.346  1.7405  1.0093  0.6106
  412MOL0     H55566   6.430   6.072   1.322 -1.6463 -0.2524  2.5185
  412MOL0     H55567   6.635   6.066   1.556  0.3695 -0.8826  1.1719
  412MOL0     H55568   6.520   6.195   1.527 -1.7528 -2.1815  0.9437
  412MOL0     H55569   6.742   6.257   1.428 -0.1202 -0.0928 -0.2562
  412MOL0     H55570   6.736   6.102   1.330  0.0255 -0.1268  0.6873
  412MOL0     H55571   6.522   6.425   1.372  0.6833 -2.7180  0.7150
  412MOL0     H55572   6.375   6.570   1.211 -2.8541  2.2716 -1.7500
  412MOL0     H55573   6.341   6.492   1.045 -2.8099 -2.4960 -0.9694
  412MOL0     H55574   6.200   6.324   1.206 -1.3948 -0.0634  2.1613
  412MOL0     H55575   6.240   6.434   1.331 -0.0497 -3.9673  0.1059
  412MOL0     H55576   6.102   6.516   1.061 -1.0961  3.4366 -0.7670
  412MOL0     H55577   6.119   6.614   1.203  0.3990  0.6511 -0.7027
  412MOL0     H55578   5.995   6.431   1.341  0.8109 -1.3941 -0.4892
  412MOL0     H55579   5.935   6.376   1.182 -1.5512  0.5866 -0.7268
  412MOL0     H55580   5.908   6.793   1.343  1.4796 -0.9895 -0.6744
  412MOL0     H55581   5.860   6.864   1.592 -0.2265  0.0552  0.6070
  412MOL0     H55582   5.569   6.932   1.919 -2.1477  1.0693  1.2472
  412MOL0     H55583   5.456   6.978   2.143 -1.2888 -1.5233  2.3767
  412MOL0     H55584   5.213   6.686   2.342  0.7941 -1.3880 -1.0169
  412MOL0     H55585   5.363   6.632   2.375 -0.7973  0.1377 -3.9286
  412MOL0     H55586   5.198   6.829   2.536 -1.0572 -2.4929 -1.0590
  412MOL0     H55587   5.284   6.697   2.598  1.1592  0.3076  0.1843
  412MOL0     H55588   5.390   6.976   2.529  1.9951 -0.5433 -0.3880
  412MOL0     H55589   5.372   6.896   2.693  0.8505  1.9935  0.7636
  412MOL0     H55590   5.555   6.795   2.488 -0.8782 -0.9292  0.9178
  412MOL0     H55591   5.564   6.790   2.658 -1.6147  0.1470  0.8938
  412MOL0     H55592   5.739   6.939   2.578 -0.2982 -0.5441  0.9043
  412MOL0     H55593   5.621   7.057   2.639  3.9397  3.4330 -1.2850
  412MOL0     H55594   5.619   6.976   2.350  1.1116  0.3428  0.6515
  412MOL0     H55595   5.544   7.117   2.425 -0.4105 -0.7995 -0.4806
  412MOL0     H55596   5.845   7.040   2.418  1.8731  0.4468 -2.8815
  412MOL0     H55597   5.778   7.204   2.468  2.0477 -0.8846  0.0709
  412MOL0     H55598   5.737   7.083   2.197 -1.0539  0.2697  0.7363
  412MOL0     H55599   5.717   7.248   2.246  1.3239  1.5428  1.3136
  412MOL0     H55600   5.339   6.580   2.164  0.2092  1.1056  0.9035
  412MOL0     H55601   5.438   6.532   1.934 -0.5064  0.4786 -1.0824
  412MOL0     H55602   5.641   6.505   1.638  1.8808 -1.5718  0.5836
  412MOL0     H55603   5.700   6.429   1.422  2.9861 -1.3101 -1.3242
  412MOL0     H55604   5.754   6.103   1.696  1.2618  1.2702 -1.5019
  412MOL0     H55605   5.635   6.110   1.911 -0.4456  0.2023  0.8900
  412MOL0     H55606   5.705   6.519   2.395 -1.1100  0.3438 -3.6934
  412MOL0     H55607   5.583   6.522   2.615  0.4012 -3.2432  2.5006
  412MOL0     H55608   5.193   6.321   2.642  1.1512 -1.3366  2.9991
  412MOL0     H55609   5.146   6.486   2.613 -1.4994 -0.6691  1.4506
  412MOL0     H55610   5.233   6.364   2.879 -1.7668 -1.3881  1.2557
  412MOL0     H55611   5.069   6.384   2.827 -1.4864  4.1922 -3.4805
  412MOL0     H55612   5.077   6.618   2.802 -3.1383 -0.6789  3.3676
  412MOL0     H55613   5.260   6.613   2.825  0.1279 -0.4219 -0.0840
  412MOL0     H55614   5.235   6.598   3.053  0.5490  0.8083 -0.0784
  412MOL0     H55615   5.117   6.732   3.005 -0.5885 -0.3850 -1.1392
  412MOL0     H55616   4.856   6.536   3.221  1.3545  0.2612  1.2697
  412MOL0     H55617   5.259   6.313   2.416  0.7787 -1.3986 -1.6224
  412MOL0     H55618   5.261   6.239   2.215 -0.3022 -0.8875  0.0007
  412MOL0     H55619   5.374   6.344   2.107 -1.8893  2.1309  1.8082
  412MOL0     H55620   5.423   6.193   2.181  2.3923  0.7821 -0.0373
  413MOL0     O55621   0.493   1.959   0.284  0.7667  0.0765  0.3770
  413MOL0     C55622   0.527   1.843   0.279 -1.0548 -0.2787  0.6769
  413MOL0     O55623   0.534   1.764   0.165  0.1923  1.0432 -0.5643
  413MOL0     C55624   0.532   1.812   0.036 -0.7602  0.2216 -0.0201
  413MOL0     C55625   0.658   1.855  -0.020 -0.1153  0.2931 -0.5471
  413MOL0     C55626   0.660   1.885  -0.156 -0.0139 -0.6236  0.1479
  413MOL0     C55627   0.553   1.867  -0.244  0.5886 -0.5838  0.6538
  413MOL0     O55628   0.544   1.888  -0.384  0.1249  0.0675 -0.5563
  413MOL0     C55629   0.656   1.946  -0.446  0.8796 -0.1338 -0.2621
  413MOL0     C55630   0.614   2.011  -0.585 -0.6871  0.2533 -0.5015
  413MOL0     C55631   0.625   1.905  -0.700 -0.4353  0.1972 -0.4561
  413MOL0     C55632   0.486   1.864  -0.752 -0.1255  0.1585 -1.0619
  413MOL0     C55633   0.402   1.784  -0.654 -0.8033  0.4142 -0.3610
  413MOL0     C55634   0.280   1.722  -0.732  0.5866 -0.2714 -0.4087
  413MOL0     C55635   0.167   1.702  -0.630  0.3185 -0.4406 -0.4209
  413MOL0     C55636   0.061   1.624  -0.709 -0.2282 -0.5856 -0.3707
  413MOL0     N55637  -0.074   1.620  -0.648 -0.4473 -1.1150  0.6425
  413MOL0     C55638  -0.144   1.508  -0.616 -0.4560  0.0816 -0.3915
  413MOL0     C55639  -0.246   1.554  -0.550  0.4323  0.5062 -0.1065
  413MOL0     C55640  -0.347   1.463  -0.480 -0.0054  0.3823  0.2303
  413MOL0     C55641  -0.435   1.393  -0.582 -0.0214  0.1461 -0.0571
  413MOL0     C55642  -0.538   1.302  -0.512  0.4597  0.2622  0.1136
  413MOL0     C55643  -0.597   1.184  -0.600  0.0638 -0.9122 -0.1033
  413MOL0     O55644  -0.658   1.242  -0.717 -0.4723 -0.3316  0.6785
  413MOL0     C55645  -0.611   1.200  -0.844 -0.1064  0.6059  0.2489
  413MOL0     C55646  -0.659   1.077  -0.897  0.1328 -0.2972 -0.2174
  413MOL0     C55647  -0.632   1.040  -1.023 -0.1805  0.1218  0.6066
  413MOL0     C55648  -0.550   1.120  -1.108  0.0327  0.6516 -0.5276
  413MOL0     C55649  -0.533   1.076  -1.250  0.5249 -0.0079 -0.3006
  413MOL0     O55650  -0.423   1.130  -1.313  0.0032  0.5998 -0.3017
  413MOL0     C55651  -0.374   1.062  -1.423 -0.8394  0.5629  0.4796
  413MOL0     C55652  -0.348   0.919  -1.434  0.1842  0.7661  0.3234
  413MOL0     C55653  -0.310   0.852  -1.557  0.0377 -0.7274 -0.6172
  413MOL0     C55654  -0.306   0.935  -1.670 -0.1440 -0.5821  0.3559
  413MOL0     O55655  -0.253   0.895  -1.786  0.1284  0.0346  0.0863
  413MOL0     C55656  -0.248   0.752  -1.822  0.8740 -0.4291  0.3822
  413MOL0     C55657  -0.198   0.732  -1.965  0.5114 -0.2070 -0.2486
  413MOL0     C55658  -0.048   0.775  -1.971  0.3310  0.0747  0.0944
  413MOL0     C55659   0.054   0.670  -1.927  0.0881  0.1447  0.5238
  413MOL0     C55660   0.200   0.711  -1.955  0.3477 -0.4834 -0.0525
  413MOL0     C55661   0.239   0.700  -2.109 -0.1358 -0.2779 -0.8851
  413MOL0     C55662   0.393   0.698  -2.111  0.1327 -0.6513 -0.0745
  413MOL0     C55663   0.459   0.805  -2.027  0.2392 -0.3982 -0.3211
  413MOL0    Cl55664   0.631   0.816  -2.085  0.3852 -0.2243  0.0844
  413MOL0     C55665  -0.320   1.076  -1.662 -0.3485  0.5900 -0.0718
  413MOL0     C55666  -0.361   1.133  -1.541 -1.7535 -0.1290 -0.1151
  413MOL0     O55667  -0.590   0.975  -1.278  0.6616 -0.4976  0.5450
  413MOL0     C55668  -0.494   1.235  -1.047  0.1543  0.3133 -0.0420
  413MOL0     C55669  -0.527   1.276  -0.920  0.1263 -0.4241  0.4362
  413MOL0     N55670  -0.254   1.695  -0.559 -1.5166  0.7630 -0.3634
  413MOL0     N55671  -0.147   1.732  -0.609  0.4073 -0.1789  0.0839
  413MOL0     C55672   0.434   1.815  -0.183  0.1646 -0.1364  0.4443
  413MOL0     C55673   0.422   1.797  -0.043  0.4168  0.4548  1.2175
  413MOL0     C55674   0.546   1.783   0.418 -1.4974  0.8050  0.0908
  413MOL0     C55675   0.626   1.848   0.511  0.3250 -0.9786 -0.6642
  413MOL0     C55676   0.659   1.807   0.635 -0.5768 -0.3459  0.1482
  413MOL0     C55677   0.601   1.696   0.685  0.5282  0.4866 -0.1610
  413MOL0     O55678   0.615   1.667   0.819  1.3036  0.7221  0.3758
  413MOL0     C55679   0.731   1.716   0.887 -0.2287  0.0337 -0.0751
  413MOL0     C55680   0.756   1.661   1.032  0.3567  0.5389  0.0112
  413MOL0     C55681   0.724   1.506   1.046  0.2495  0.6636  0.1545
  413MOL0     C55682   0.763   1.462   1.191  0.7604  0.3985  0.2951
  413MOL0     C55683   0.675   1.360   1.236  0.3589 -0.4741 -0.2402
  413MOL0     C55684   0.596   1.270   1.282 -0.2904  0.4338 -0.1401
  413MOL0     C55685   0.517   1.621   0.596  0.2526 -0.3180 -1.0334
  413MOL0     C55686   0.487   1.663   0.468 -0.2454 -0.1349 -0.8061
  413MOL0     C55687   0.395   1.572   0.403  1.5907 -0.3029  0.2737
  413MOL0     H55688   0.744   1.861   0.046  0.1980 -2.0605 -0.6288
  413MOL0     H55689   0.751   1.926  -0.200 -0.2766  1.3694  1.3577
  413MOL0     H55690   0.705   2.022  -0.384  0.3093 -0.7127  0.9322
  413MOL0     H55691   0.743   1.881  -0.454  1.1891 -0.2964  3.0820
  413MOL0     H55692   0.687   2.090  -0.606 -2.0411  1.9287  0.8926
  413MOL0     H55693   0.521   2.067  -0.572  0.0621  1.4943 -0.4153
  413MOL0     H55694   0.684   1.819  -0.664  0.5350  0.2216 -1.9225
  413MOL0     H55695   0.677   1.940  -0.789  2.6843 -2.3705  0.1499
  413MOL0     H55696   0.431   1.952  -0.786  2.0030  1.7911 -0.4720
  413MOL0     H55697   0.489   1.799  -0.839 -1.5193 -1.8984  0.3204
  413MOL0     H55698   0.467   1.708  -0.610 -2.5084 -0.2907  1.0899
  413MOL0     H55699   0.378   1.843  -0.565  4.8079  0.0172  1.7981
  413MOL0     H55700   0.236   1.794  -0.802 -0.6303 -0.5801  0.0067
  413MOL0     H55701   0.308   1.631  -0.784  2.2141  0.3594 -0.7025
  413MOL0     H55702   0.130   1.798  -0.592  1.2203  0.0416 -0.7099
  413MOL0     H55703   0.212   1.646  -0.548 -0.5694 -1.6913 -0.7608
  413MOL0     H55704   0.046   1.666  -0.809 -2.3454 -0.8935 -0.2268
  413MOL0     H55705   0.084   1.518  -0.714  0.3649 -0.6466  2.1853
  413MOL0     H55706  -0.131   1.404  -0.642 -0.8824  0.4254 -2.0839
  413MOL0     H55707  -0.296   1.394  -0.414 -2.1758  0.4507  2.1137
  413MOL0     H55708  -0.423   1.522  -0.427 -2.7803 -2.2842 -0.5248
  413MOL0     H55709  -0.492   1.463  -0.644 -0.2915  0.3313  0.3958
  413MOL0     H55710  -0.376   1.326  -0.645  1.0735  1.5952 -0.6320
  413MOL0     H55711  -0.618   1.371  -0.483  2.3238  3.6591 -2.1417
  413MOL0     H55712  -0.496   1.256  -0.422  0.8534 -0.8742 -0.6220
  413MOL0     H55713  -0.680   1.137  -0.546 -1.6435  0.5192 -1.3721
  413MOL0     H55714  -0.523   1.105  -0.618 -1.5878 -3.1179  1.9606
  413MOL0     H55715  -0.719   1.016  -0.830 -1.3839  0.5663 -0.7479
  413MOL0     H55716  -0.671   0.947  -1.063  0.1969  0.5989 -0.9191
  413MOL0     H55717  -0.364   0.855  -1.348  2.6170 -1.7480 -0.9801
  413MOL0     H55718  -0.288   0.745  -1.562  1.3181 -0.4511 -1.4455
  413MOL0     H55719  -0.190   0.682  -1.761  3.9189 -0.1170 -1.9295
  413MOL0     H55720  -0.352   0.719  -1.817  0.2469  1.4848  1.1934
  413MOL0     H55721  -0.206   0.628  -1.997  0.4499  0.0853 -1.2216
  413MOL0     H55722  -0.263   0.785  -2.035  1.5242 -0.2476 -1.2464
  413MOL0     H55723  -0.038   0.810  -2.074 -0.2727  1.8115  0.6026
  413MOL0     H55724  -0.023   0.850  -1.896 -0.7845  0.8722 -0.3079
  413MOL0     H55725   0.029   0.570  -1.963  0.3492  0.2363  0.0803
  413MOL0     H55726   0.037   0.652  -1.821 -5.1770 -1.9472 -0.3504
  413MOL0     H55727   0.264   0.645  -1.895 -0.8721 -0.0075  1.8442
  413MOL0     H55728   0.215   0.816  -1.927 -1.0711 -0.2948  0.0873
  413MOL0     H55729   0.197   0.604  -2.140 -2.6476  0.5563 -0.3563
  413MOL0     H55730   0.188   0.778  -2.167 -0.0180 -0.0188 -0.6386
  413MOL0     H55731   0.429   0.720  -2.212 -0.4245 -0.7579 -0.3023
  413MOL0     H55732   0.429   0.599  -2.081  0.6629 -0.6060 -0.5429
  413MOL0     H55733   0.413   0.902  -2.049  0.7255  0.4853  2.2118
  413MOL0     H55734   0.451   0.775  -1.922 -0.5884 -0.7302 -0.4706
  413MOL0     H55735  -0.308   1.140  -1.749  3.1040  4.0183  2.5703
  413MOL0     H55736  -0.367   1.241  -1.539  2.1689  0.2222  1.3231
  413MOL0     H55737  -0.437   1.295  -1.117 -1.5988  4.3407  1.6707
  413MOL0     H55738  -0.474   1.363  -0.883  1.0647 -0.7152 -0.1925
  413MOL0     H55739   0.353   1.791  -0.251  2.0418  1.4908 -2.6274
  413MOL0     H55740   0.326   1.770  -0.002  0.8264 -1.2387  1.1555
  413MOL0     H55741   0.676   1.940   0.481  0.1628 -0.4327  0.6952
  413MOL0     H55742   0.734   1.868   0.683  0.2036 -0.3176 -1.0749
  413MOL0     H55743   0.728   1.824   0.898 -0.0964  0.0430 -0.1235
  413MOL0     H55744   0.809   1.694   0.813 -1.9938  0.1946 -2.0648
  413MOL0     H55745   0.696   1.713   1.108 -0.0754 -0.6690  0.5127
  413MOL0     H55746   0.862   1.679   1.049 -0.0172  1.1688  2.0832
  413MOL0     H55747   0.776   1.457   0.963  0.3510  3.5349 -1.6096
  413MOL0     H55748   0.616   1.492   1.038  0.3445 -0.6666  0.7742
  413MOL0     H55749   0.865   1.422   1.184  0.7386  0.2735  0.6698
  413MOL0     H55750   0.760   1.542   1.266 -1.5104 -0.2846  1.0019
  413MOL0     H55751   0.530   1.195   1.319  1.5015 -0.9033  0.4843
  413MOL0     H55752   0.459   1.536   0.630  0.5747 -0.1096  0.1040
  413MOL0     H55753   0.320   1.526   0.469  1.0822 -2.2247 -1.5592
  413MOL0     H55754   0.341   1.625   0.324 -1.5932  1.2001  3.1876
  413MOL0     H55755   0.443   1.492   0.347 -0.3705 -1.8728  0.6810
  414MOL0     O55756   2.008   2.103   0.118  0.2051 -0.4920  0.3599
  414MOL0     C55757   2.035   2.202   0.191  0.3658  0.1201  0.4598
  414MOL0     O55758   2.158   2.257   0.223  0.1539  0.4671  0.9607
  414MOL0     C55759   2.259   2.204   0.155  0.2214  0.5814 -0.3296
  414MOL0     C55760   2.372   2.145   0.220 -0.3768  0.4291  0.0768
  414MOL0     C55761   2.492   2.116   0.151  0.4399 -0.0629  0.4383
  414MOL0     C55762   2.504   2.162   0.022 -0.1240  0.1829  0.0521
  414MOL0     O55763   2.619   2.150  -0.045 -0.3745 -0.6164  1.2355
  414MOL0     C55764   2.634   2.032  -0.129 -0.5571  0.4799 -0.2883
  414MOL0     C55765   2.783   2.029  -0.156  0.0139  0.0358 -0.9098
  414MOL0     C55766   2.872   2.021  -0.025  0.3099  0.6680 -0.3509
  414MOL0     C55767   3.021   2.025  -0.058 -0.4052 -0.0263  0.1555
  414MOL0     C55768   3.093   2.159  -0.068 -0.4171 -0.2548  0.0020
  414MOL0     C55769   3.247   2.156  -0.073  0.0337  0.3247 -0.9410
  414MOL0     C55770   3.293   2.305  -0.049  0.6760 -0.4433 -0.0031
  414MOL0     C55771   3.450   2.312  -0.072  0.3599 -0.6254  0.0882
  414MOL0     N55772   3.522   2.230   0.031  0.1583 -0.6250  0.4648
  414MOL0     C55773   3.527   2.253   0.167 -0.0650 -0.1767 -1.3080
  414MOL0     C55774   3.578   2.135   0.212  0.0486  0.2883 -0.3531
  414MOL0     C55775   3.611   2.111   0.349  0.3264  0.2122  0.3137
  414MOL0     C55776   3.757   2.168   0.372 -0.7042 -0.4787 -1.1131
  414MOL0     C55777   3.849   2.100   0.463  0.2543  0.4977  0.7626
  414MOL0     C55778   3.977   2.176   0.502  0.6142 -0.0155  0.0446
  414MOL0     O55779   4.057   2.219   0.392  0.9126  0.2748 -0.0620
  414MOL0     C55780   4.141   2.125   0.340  0.3041  0.4009  0.1440
  414MOL0     C55781   4.139   2.105   0.203  0.7826 -0.3692 -0.7116
  414MOL0     C55782   4.230   2.009   0.148 -0.6038  0.5179  0.2065
  414MOL0     C55783   4.334   1.961   0.225 -0.8955 -0.0878 -0.2007
  414MOL0     C55784   4.445   1.891   0.168 -0.3843 -0.7835 -0.2225
  414MOL0     O55785   4.416   1.814   0.067  0.4646  0.2516  0.1989
  414MOL0     C55786   4.515   1.771  -0.018  0.7779  0.7680  1.0490
  414MOL0     C55787   4.523   1.632  -0.042  0.8598 -0.4366  0.8307
  414MOL0     C55788   4.613   1.581  -0.131 -0.6206  0.0658 -0.6481
  414MOL0     C55789   4.711   1.666  -0.194 -0.0802 -0.8679 -0.5489
  414MOL0     O55790   4.791   1.608  -0.288  0.2193  0.1160  0.1565
  414MOL0     C55791   4.910   1.681  -0.318  0.1661  1.0354 -0.3251
  414MOL0     C55792   5.030   1.583  -0.371 -0.7504 -0.3015 -0.3377
  414MOL0     C55793   5.048   1.480  -0.263 -0.7958  0.1720 -1.1564
  414MOL0     C55794   5.189   1.412  -0.263 -0.3156  0.1158  0.1632
  414MOL0     C55795   5.211   1.322  -0.146 -0.0031  0.2472  0.2005
  414MOL0     C55796   5.238   1.380  -0.010  0.0096 -0.3079 -1.0391
  414MOL0     C55797   5.299   1.267   0.085  0.9883 -0.5539  1.3024
  414MOL0     C55798   5.200   1.152   0.124  0.3707 -0.0740  0.3053
  414MOL0    Cl55799   5.049   1.221   0.204 -0.1736  0.0505  0.0145
  414MOL0     C55800   4.696   1.806  -0.170  0.0552  1.1434  0.1131
  414MOL0     C55801   4.597   1.857  -0.090 -0.0745 -0.5254  0.5017
  414MOL0     O55802   4.555   1.931   0.199  0.0947 -0.6422  0.4733
  414MOL0     C55803   4.331   1.975   0.357  0.3881 -0.1884 -0.3004
  414MOL0     C55804   4.233   2.053   0.416  0.9518  1.2458 -1.0290
  414MOL0     N55805   3.608   2.056   0.107  0.5765 -0.4246 -0.0548
  414MOL0     N55806   3.584   2.117   0.001  0.9513 -0.9853 -0.2564
  414MOL0     C55807   2.397   2.217  -0.044  0.0356 -1.3841 -0.2366
  414MOL0     C55808   2.279   2.243   0.023 -0.2405  0.4345  0.3779
  414MOL0     C55809   1.919   2.262   0.262 -0.2478  0.2588 -0.0328
  414MOL0     C55810   1.927   2.397   0.283 -1.6088  0.7111  0.7446
  414MOL0     C55811   1.840   2.470   0.364 -0.3942 -0.0332 -0.5113
  414MOL0     C55812   1.740   2.397   0.421  0.0968 -0.0499 -0.1254
  414MOL0     O55813   1.656   2.459   0.505  0.5273  0.0645  0.0565
  414MOL0     C55814   1.588   2.572   0.446  0.2328 -0.3428  0.4200
  414MOL0     C55815   1.441   2.554   0.488 -0.7616  0.4118 -0.2186
  414MOL0     C55816   1.365   2.692   0.477 -0.5410 -1.0896 -0.1377
  414MOL0     C55817   1.334   2.748   0.338  0.3887 -0.0231 -0.3176
  414MOL0     C55818   1.276   2.640   0.253 -0.0683  0.0006  0.4643
  414MOL0     C55819   1.239   2.547   0.179 -0.2153  0.9014  0.4662
  414MOL0     C55820   1.725   2.266   0.406  0.0076  0.8361  0.6607
  414MOL0     C55821   1.815   2.195   0.326 -0.8563  0.1423  0.2981
  414MOL0     C55822   1.810   2.041   0.337  0.4579 -0.3276  0.9180
  414MOL0     H55823   2.370   2.127   0.327 -0.0036  1.4823  0.2740
  414MOL0     H55824   2.590   2.103   0.197  1.5561  3.2496 -0.6781
  414MOL0     H55825   2.600   1.941  -0.080  1.5807 -0.3600 -0.2603
  414MOL0     H55826   2.580   2.039  -0.224  0.6801 -1.5040 -1.1953
  414MOL0     H55827   2.809   2.112  -0.221 -0.7197  0.6967 -0.3831
  414MOL0     H55828   2.811   1.945  -0.220 -0.3984 -1.9189  1.3284
  414MOL0     H55829   2.850   1.936   0.039  1.4029 -0.1391 -1.0214
  414MOL0     H55830   2.839   2.087   0.056 -2.9483 -3.3180  1.9258
  414MOL0     H55831   3.077   1.966   0.016 -0.4915 -0.2191  0.0659
  414MOL0     H55832   3.026   1.966  -0.150 -3.2131 -0.1647  0.0272
  414MOL0     H55833   3.050   2.219  -0.149 -1.0872 -0.1467  0.4287
  414MOL0     H55834   3.067   2.212   0.024 -0.9468 -1.6934  0.7058
  414MOL0     H55835   3.294   2.092   0.002  0.9537  3.3812  1.2614
  414MOL0     H55836   3.287   2.126  -0.171  2.3245  1.3230 -0.3797
  414MOL0     H55837   3.260   2.327   0.053 -2.9156  1.2147 -1.3619
  414MOL0     H55838   3.248   2.383  -0.111  1.2208  2.4317  2.9610
  414MOL0     H55839   3.482   2.275  -0.169  2.7339 -0.0556  0.6002
  414MOL0     H55840   3.473   2.418  -0.060 -2.4254  0.2124 -1.0547
  414MOL0     H55841   3.481   2.334   0.223  0.4605 -1.9297  1.9035
  414MOL0     H55842   3.540   2.159   0.416 -0.2264  0.7164 -0.6154
  414MOL0     H55843   3.600   2.007   0.381 -2.1291  0.1589 -0.5553
  414MOL0     H55844   3.808   2.182   0.276 -3.0807  4.4066 -1.9755
  414MOL0     H55845   3.732   2.265   0.416  1.5716  0.0489 -0.8503
  414MOL0     H55846   3.881   2.003   0.423  3.3349  1.8327 -0.4119
  414MOL0     H55847   3.803   2.074   0.558 -1.9035 -0.2622 -0.4307
  414MOL0     H55848   4.026   2.121   0.582  1.2192  2.0551  1.1730
  414MOL0     H55849   3.946   2.265   0.557  0.6487 -0.8494  1.4417
  414MOL0     H55850   4.072   2.159   0.136 -2.5023 -1.5811  1.3639
  414MOL0     H55851   4.223   1.976   0.045  0.3126 -0.8196  0.5498
  414MOL0     H55852   4.461   1.565   0.017 -0.5558  0.5241  0.4966
  414MOL0     H55853   4.608   1.477  -0.162 -0.0583  0.8429 -3.6297
  414MOL0     H55854   4.881   1.745  -0.401  2.0778  1.1095 -0.9878
  414MOL0     H55855   4.949   1.746  -0.239 -1.5400  0.6088  0.9205
  414MOL0     H55856   5.010   1.541  -0.470 -1.7919  2.8327 -1.5907
  414MOL0     H55857   5.125   1.635  -0.382 -1.1298  0.0903 -2.0854
  414MOL0     H55858   5.021   1.518  -0.164 -1.1411 -0.8098 -0.8577
  414MOL0     H55859   4.973   1.401  -0.273  1.4882 -2.4217  0.3811
  414MOL0     H55860   5.270   1.486  -0.262  0.4795 -0.7365 -0.1434
  414MOL0     H55861   5.199   1.357  -0.357 -0.4822 -0.5089  0.5053
  414MOL0     H55862   5.295   1.256  -0.171 -0.8855 -1.3873  1.3591
  414MOL0     H55863   5.131   1.248  -0.140  0.8548 -1.1389 -3.0897
  414MOL0     H55864   5.318   1.454  -0.018  0.5641 -0.7285  0.3203
  414MOL0     H55865   5.152   1.434   0.029  0.0419 -0.8225 -0.2253
  414MOL0     H55866   5.331   1.325   0.171 -0.4900  0.9228  0.8892
  414MOL0     H55867   5.386   1.221   0.037 -1.8211 -2.4726 -2.5594
  414MOL0     H55868   5.159   1.093   0.041 -3.1807 -1.5497  2.8549
  414MOL0     H55869   5.245   1.089   0.201  0.9015  1.7460  1.5481
  414MOL0     H55870   4.755   1.883  -0.219  1.2801  0.1701 -0.0104
  414MOL0     H55871   4.588   1.965  -0.079  1.2166 -0.1026 -1.8464
  414MOL0     H55872   4.408   1.947   0.429 -0.8106 -2.4163  0.1683
  414MOL0     H55873   4.225   2.069   0.523  0.4430 -0.1290 -0.8421
  414MOL0     H55874   2.419   2.243  -0.148  0.2274 -0.6839 -0.0251
  414MOL0     H55875   2.206   2.300  -0.033  1.1661  0.8049 -1.1606
  414MOL0     H55876   2.010   2.443   0.230 -1.5619 -1.8518 -1.6252
  414MOL0     H55877   1.853   2.577   0.380 -0.1906 -0.4250  2.5623
  414MOL0     H55878   1.601   2.566   0.338  3.4816  1.9897  0.5149
  414MOL0     H55879   1.634   2.666   0.480  1.8562 -0.3431 -1.5889
  414MOL0     H55880   1.442   2.516   0.591  1.5967  1.5863  0.2649
  414MOL0     H55881   1.391   2.481   0.425  1.1573  0.2032 -1.5733
  414MOL0     H55882   1.426   2.757   0.541  1.6111 -2.8681 -0.2433
  414MOL0     H55883   1.270   2.678   0.530 -0.7601 -1.7920 -0.7017
  414MOL0     H55884   1.261   2.826   0.361  1.4060 -0.2234  4.6850
  414MOL0     H55885   1.419   2.798   0.290 -0.2234  1.7609  0.3888
  414MOL0     H55886   1.223   2.466   0.110  1.7623  1.2834 -0.5022
  414MOL0     H55887   1.650   2.219   0.467 -0.9159  2.1444  0.5769
  414MOL0     H55888   1.892   2.010   0.402 -1.5470  1.1132  4.4194
  414MOL0     H55889   1.725   1.995   0.387 -0.9708  1.0549 -0.1323
  414MOL0     H55890   1.824   1.986   0.244  1.9386  2.5913 -0.7368
  415MOL0     O55891   6.025   3.853   1.418  0.2546  0.6079  0.5078
  415MOL0     C55892   6.011   3.890   1.305  0.2014  0.9231 -0.0591
  415MOL0     O55893   6.027   3.817   1.192 -0.2278 -0.5941  0.6863
  415MOL0     C55894   6.011   3.682   1.180  0.3376  1.0573 -0.1062
  415MOL0     C55895   6.002   3.580   1.285  0.1892 -0.0851  0.0914
  415MOL0     C55896   5.994   3.444   1.255  0.3698 -0.3181 -0.1788
  415MOL0     C55897   6.005   3.400   1.123 -0.5416  0.4358  0.4534
  415MOL0     O55898   5.975   3.267   1.085 -0.2196 -0.3211 -0.4027
  415MOL0     C55899   5.878   3.205   1.174 -0.7700  0.6483 -0.3223
  415MOL0     C55900   5.942   3.087   1.242  0.0690  1.0656 -0.2511
  415MOL0     C55901   5.945   2.964   1.145 -0.3372  0.7112  0.2368
  415MOL0     C55902   6.022   2.840   1.205  0.4272 -0.5123 -0.3203
  415MOL0     C55903   6.044   2.713   1.113 -0.0399  0.4562 -0.1947
  415MOL0     C55904   5.922   2.630   1.102 -0.0443  0.1858  0.2277
  415MOL0     C55905   5.887   2.555   1.227 -0.2092  0.4781  0.2211
  415MOL0     C55906   5.966   2.427   1.236 -0.0100 -0.2034  0.2856
  415MOL0     N55907   5.908   2.317   1.148  0.0411  1.1195  0.3660
  415MOL0     C55908   5.817   2.223   1.194  0.5450  0.3403  0.7269
  415MOL0     C55909   5.844   2.120   1.123  0.5545  0.4438  0.3547
  415MOL0     C55910   5.763   1.996   1.105 -0.2384  0.5655 -0.1473
  415MOL0     C55911   5.832   1.891   1.198  0.0338  0.5121  0.0790
  415MOL0     C55912   5.839   1.931   1.341  0.0614 -0.6682 -0.8876
  415MOL0     C55913   5.924   1.834   1.424 -0.3184 -0.5681 -0.0629
  415MOL0     O55914   5.850   1.707   1.455 -0.6567 -0.2919 -0.1321
  415MOL0     C55915   5.932   1.614   1.517  0.2843  0.4410 -0.5065
  415MOL0     C55916   6.032   1.645   1.609  0.4557 -0.0499  0.8513
  415MOL0     C55917   6.095   1.555   1.684 -1.2490  0.4721  0.1833
  415MOL0     C55918   6.060   1.425   1.683  1.3421  0.0318  0.8175
  415MOL0     C55919   6.137   1.316   1.757 -0.7429 -0.6781  1.2962
  415MOL0     O55920   6.125   1.189   1.707  0.2863  0.1661  0.3140
  415MOL0     C55921   6.194   1.083   1.777  0.3995 -0.8561  0.3510
  415MOL0     C55922   6.296   1.017   1.709  0.1599  0.6978  0.1079
  415MOL0     C55923   6.371   0.926   1.771  0.1534  0.4838 -0.3109
  415MOL0     C55924   6.343   0.878   1.898  0.4881  0.1374 -0.6522
  415MOL0     O55925   6.397   0.772   1.964  1.2255  0.5219  0.6696
  415MOL0     C55926   6.507   0.707   1.913  0.5146 -0.0984 -0.4809
  415MOL0     C55927   6.635   0.793   1.950 -0.3188  0.4964 -0.4443
  415MOL0     C55928   6.758   0.733   1.882  0.2977 -0.3256 -0.1393
  415MOL0     C55929   6.891   0.785   1.934 -0.1706 -0.9777  0.8317
  415MOL0     C55930   6.982   0.803   1.818 -1.1636 -0.4079  0.3144
  415MOL0     C55931   6.990   0.948   1.760  0.2071  0.4102 -0.1857
  415MOL0     C55932   7.074   0.934   1.631  0.1357 -0.8792 -0.3060
  415MOL0     C55933   7.100   1.077   1.588 -0.0236  1.2971  0.0343
  415MOL0    Cl55934   7.227   1.067   1.468 -0.0233  0.0623 -0.0870
  415MOL0     C55935   6.244   0.949   1.974 -0.6360 -0.4087  0.1898
  415MOL0     C55936   6.173   1.052   1.913  0.1430 -0.1440 -0.2256
  415MOL0     O55937   6.210   1.352   1.845  0.1933  0.3831 -0.3679
  415MOL0     C55938   5.956   1.384   1.591  0.1353  0.0206  0.5586
  415MOL0     C55939   5.899   1.477   1.502 -1.3421  0.7727 -0.1661
  415MOL0     N55940   5.928   2.153   1.025 -0.7886  0.4908 -0.0850
  415MOL0     N55941   5.972   2.265   1.040  0.2684 -0.4820  0.0760
  415MOL0     C55942   6.024   3.495   1.021 -0.5558  0.4251  0.6932
  415MOL0     C55943   6.025   3.631   1.046 -0.5132  0.2781 -0.3920
  415MOL0     C55944   6.006   4.034   1.282  0.4773 -0.0649  0.6100
  415MOL0     C55945   5.919   4.088   1.177  0.2001  0.0476  0.5365
  415MOL0     C55946   5.887   4.224   1.164  0.2908  1.1621  0.3021
  415MOL0     C55947   5.955   4.313   1.235 -0.6453  0.2573  0.6638
  415MOL0     O55948   5.920   4.437   1.198 -0.0645 -0.3516  0.7866
  415MOL0     C55949   5.973   4.555   1.260  0.2923 -0.8460 -0.1119
  415MOL0     C55950   5.898   4.598   1.393 -0.0309  0.8265  0.4560
  415MOL0     C55951   5.748   4.634   1.361  0.1178  0.2444  0.1332
  415MOL0     C55952   5.668   4.707   1.469  0.5089  0.0466  1.3746
  415MOL0     C55953   5.671   4.653   1.601  0.2104 -0.3348 -0.1564
  415MOL0     C55954   5.676   4.598   1.709 -0.7621 -0.2046  0.2619
  415MOL0     C55955   6.048   4.270   1.331 -0.2372 -0.8715  0.1686
  415MOL0     C55956   6.077   4.135   1.356  1.2618 -1.1983  0.0966
  415MOL0     C55957   6.167   4.092   1.470 -0.2016  0.6482  0.0497
  415MOL0     H55958   5.991   3.606   1.389  2.3672  0.4389  0.2418
  415MOL0     H55959   5.993   3.381   1.344  0.4903 -0.0363  0.0251
  415MOL0     H55960   5.815   3.253   1.249 -1.5205 -2.9029  1.5440
  415MOL0     H55961   5.797   3.175   1.107 -0.2578  0.2256 -0.7613
  415MOL0     H55962   5.882   3.057   1.328  2.2257 -1.9888  0.3521
  415MOL0     H55963   6.031   3.125   1.294 -1.8270  2.7877  1.9376
  415MOL0     H55964   5.992   2.991   1.050  1.6226 -0.5411  0.7911
  415MOL0     H55965   5.843   2.928   1.129 -0.3510 -0.0759  1.8806
  415MOL0     H55966   6.123   2.861   1.242  1.4694 -6.2282  0.9735
  415MOL0     H55967   5.945   2.806   1.276 -3.0390  0.4028 -3.3063
  415MOL0     H55968   6.078   2.746   1.014 -1.4883  0.6886 -0.6517
  415MOL0     H55969   6.135   2.666   1.151 -1.1309  1.4603  4.2103
  415MOL0     H55970   5.841   2.698   1.071  0.9087  1.8687  1.2665
  415MOL0     H55971   5.930   2.570   1.011 -2.0410 -0.5507  0.4856
  415MOL0     H55972   5.783   2.522   1.217 -0.0201  0.3407 -1.7049
  415MOL0     H55973   5.908   2.611   1.318  0.3432  0.6810 -0.0249
  415MOL0     H55974   6.064   2.443   1.190  1.6459  0.5997  3.7833
  415MOL0     H55975   5.976   2.406   1.342 -0.6459  0.3381  0.4590
  415MOL0     H55976   5.744   2.228   1.274 -1.5180  1.7174 -1.1216
  415MOL0     H55977   5.662   2.021   1.137 -0.2207  0.4431  0.0086
  415MOL0     H55978   5.764   1.946   1.008 -0.2029 -1.4468  0.8282
  415MOL0     H55979   5.772   1.799   1.189 -1.1268  1.3290 -0.7911
  415MOL0     H55980   5.932   1.860   1.168 -0.8047 -4.3579  1.3160
  415MOL0     H55981   5.740   1.934   1.389 -0.1350  1.9526 -1.3136
  415MOL0     H55982   5.891   2.028   1.342  1.1513 -1.2229 -1.8013
  415MOL0     H55983   5.963   1.891   1.508  0.6118 -2.9711  1.2143
  415MOL0     H55984   6.011   1.804   1.365 -0.6078 -1.3869 -0.0900
  415MOL0     H55985   6.072   1.744   1.630  2.0990  0.0682 -2.2765
  415MOL0     H55986   6.179   1.578   1.748 -1.6492 -0.0910  0.9290
  415MOL0     H55987   6.319   1.048   1.607  0.6454 -0.5045 -0.1650
  415MOL0     H55988   6.460   0.889   1.720 -0.5910 -3.1047  0.6963
  415MOL0     H55989   6.501   0.612   1.966  1.4670 -1.8440 -3.2724
  415MOL0     H55990   6.505   0.689   1.805  0.3632 -4.4512  0.0684
  415MOL0     H55991   6.614   0.899   1.931 -0.4635  0.4969 -0.2904
  415MOL0     H55992   6.655   0.798   2.058  1.3489  1.4623 -0.7539
  415MOL0     H55993   6.759   0.625   1.862  2.4547 -0.0459 -2.0057
  415MOL0     H55994   6.752   0.767   1.778  0.6699 -1.6655 -0.6234
  415MOL0     H55995   6.950   0.714   1.992  1.8874 -2.2026 -2.5170
  415MOL0     H55996   6.893   0.876   1.995 -1.5703 -0.5123  0.2389
  415MOL0     H55997   6.961   0.735   1.734  0.6814  1.7852 -2.0833
  415MOL0     H55998   7.087   0.779   1.840 -0.3020  1.3379 -1.5798
  415MOL0     H55999   6.888   0.981   1.738 -0.5044 -2.3036 -1.4291
  415MOL0     H56000   7.035   1.008   1.840 -2.6429  0.9848  1.1195
  415MOL0     H56001   7.013   0.883   1.555 -2.8651  2.8697 -0.7270
  415MOL0     H56002   7.173   0.889   1.637  0.6910  0.2357 -0.8599
  415MOL0     H56003   7.009   1.115   1.542 -0.2397 -0.2040 -0.8382
  415MOL0     H56004   7.135   1.137   1.673 -2.7604  0.6221  1.7882
  415MOL0     H56005   6.219   0.907   2.071  0.7106  1.8107  1.5825
  415MOL0     H56006   6.097   1.103   1.971 -1.6509 -2.4627 -0.4002
  415MOL0     H56007   5.927   1.279   1.585  0.6283 -0.0421 -2.2429
  415MOL0     H56008   5.833   1.449   1.421  4.2804 -1.7404 -4.6651
  415MOL0     H56009   6.017   3.453   0.922 -1.8329 -0.0821  0.9755
  415MOL0     H56010   6.025   3.706   0.967 -0.1061  1.0284  0.3027
  415MOL0     H56011   5.868   4.012   1.119 -1.5573 -0.8450  3.1036
  415MOL0     H56012   5.799   4.258   1.110  0.6817  2.9428  0.7198
  415MOL0     H56013   5.959   4.633   1.185 -0.2751 -0.2713  0.5848
  415MOL0     H56014   6.080   4.558   1.282  0.3044  0.6310 -0.2743
  415MOL0     H56015   5.947   4.683   1.441  0.5746 -0.1662  1.6796
  415MOL0     H56016   5.890   4.514   1.463 -0.5085 -0.2168 -0.8081
  415MOL0     H56017   5.706   4.534   1.344 -0.2810  0.1191  1.7615
  415MOL0     H56018   5.743   4.705   1.277  0.2140 -1.5442 -1.4560
  415MOL0     H56019   5.713   4.806   1.468  1.7030 -0.3855 -2.4131
  415MOL0     H56020   5.561   4.712   1.448  1.0827  1.1288 -1.7299
  415MOL0     H56021   5.670   4.536   1.796 -2.4838 -1.7711 -0.8741
  415MOL0     H56022   6.100   4.347   1.386  0.0800  0.9511 -2.5218
  415MOL0     H56023   6.210   4.180   1.520 -2.6970 -0.4462  4.6216
  415MOL0     H56024   6.101   4.037   1.537 -0.9134  1.3923 -0.0161
  415MOL0     H56025   6.237   4.017   1.432  0.3212  0.1634  1.8882
  416MOL0     O56026   6.652   8.922   0.776 -0.8881 -0.4456  0.2407
  416MOL0     C56027   6.637   8.930   0.650  0.5634 -0.6271  0.0230
  416MOL0     O56028   6.740   8.914   0.556  0.1011  0.1460  0.2088
  416MOL0     C56029   6.863   8.887   0.608 -0.1898  0.2456 -0.0866
  416MOL0     C56030   6.947   8.803   0.532 -0.6559 -0.5690  0.2443
  416MOL0     C56031   7.086   8.788   0.560  0.4345  0.2735 -0.1671
  416MOL0     C56032   7.142   8.862   0.676 -0.4209 -0.2217 -0.2634
  416MOL0     O56033   7.274   8.848   0.728  0.4368  0.5441 -0.3118
  416MOL0     C56034   7.341   8.725   0.691 -0.6414  0.2374 -0.5196
  416MOL0     C56035   7.484   8.769   0.672  0.5332  0.8879 -0.5833
  416MOL0     C56036   7.559   8.811   0.800  0.6334 -0.1648 -0.1124
  416MOL0     C56037   7.706   8.764   0.790 -0.3599 -0.1428 -1.0531
  416MOL0     C56038   7.795   8.821   0.902 -0.3805 -0.2797 -0.8359
  416MOL0     C56039   7.845   8.970   0.879 -0.3229  0.3456  0.2669
  416MOL0     C56040   7.935   9.015   1.004  0.1657 -1.3621 -0.1296
  416MOL0     C56041   8.021   9.146   0.976 -0.7736 -0.3529  0.1541
  416MOL0     N56042   8.041   9.221   1.104 -1.0425 -0.3636  0.5767
  416MOL0     C56043   7.960   9.330   1.132 -0.1809 -0.2961  0.1072
  416MOL0     C56044   7.999   9.356   1.259 -0.5775  0.0793  0.1442
  416MOL0     C56045   7.906   9.426   1.351 -0.0327 -0.3631 -0.7451
  416MOL0     C56046   7.973   9.506   1.463  0.0238 -0.2159 -0.2574
  416MOL0     C56047   7.871   9.586   1.553 -0.6168 -0.6163 -0.3171
  416MOL0     C56048   7.931   9.626   1.696 -0.6876  0.0229  0.7658
  416MOL0     O56049   7.821   9.677   1.768  0.0612 -0.8255  0.6911
  416MOL0     C56050   7.831   9.741   1.890 -0.0121 -0.5712 -0.1280
  416MOL0     C56051   7.718   9.787   1.958 -0.2768  0.3263  0.4774
  416MOL0     C56052   7.730   9.847   2.084 -0.6183  0.3751 -0.6177
  416MOL0     C56053   7.857   9.874   2.144 -0.6221 -0.6752 -0.7655
  416MOL0     C56054   7.865   9.933   2.277  0.5061 -0.6004 -0.6006
  416MOL0     O56055   7.984   9.998   2.310  0.3972 -0.4492 -0.4565
  416MOL0     C56056   7.990  10.041   2.441  0.2725  0.1953  0.0467
  416MOL0     C56057   8.064   9.958   2.524  0.6817 -0.7075 -1.2544
  416MOL0     C56058   8.099  10.018   2.656 -0.0562  0.2316 -0.4468
  416MOL0     C56059   8.054  10.144   2.694 -1.0544 -0.3176  0.0567
  416MOL0     O56060   8.093  10.198   2.813  0.0561  0.4996  0.0762
  416MOL0     C56061   8.006  10.159   2.921  0.5873 -0.2684 -0.1275
  416MOL0     C56062   7.887  10.248   2.932  0.2599 -0.4828 -0.4011
  416MOL0     C56063   7.917  10.393   2.937 -0.2826  0.2824 -0.0200
  416MOL0     C56064   7.778  10.462   2.946 -0.6750  0.3403  0.0310
  416MOL0     C56065   7.779  10.616   2.978  0.3717  0.6460  0.1670
  416MOL0     C56066   7.646  10.669   2.975 -0.0407 -0.4230  0.3240
  416MOL0     C56067   7.664  10.821   2.987  0.3242  0.6183  0.0161
  416MOL0     C56068   7.671  10.878   2.839  0.8480  0.3526  0.6297
  416MOL0    Cl56069   7.518  10.863   2.749 -0.4387  0.2010 -0.1076
  416MOL0     C56070   7.996  10.221   2.591  0.2484 -0.0284 -0.0848
  416MOL0     C56071   7.962  10.167   2.471  0.0159  0.9514  0.0317
  416MOL0     O56072   7.755   9.948   2.336 -0.6316 -0.6412  0.6538
  416MOL0     C56073   7.969   9.830   2.074 -0.6264 -0.1150  0.1991
  416MOL0     C56074   7.953   9.756   1.956 -0.3993 -0.5256 -0.1927
  416MOL0     N56075   8.103   9.276   1.298 -0.4441  0.2992  0.5319
  416MOL0     N56076   8.128   9.194   1.204 -0.0343 -0.1004  0.3409
  416MOL0     C56077   7.056   8.948   0.739  0.1570 -0.1591 -0.2768
  416MOL0     C56078   6.920   8.954   0.717  0.1274 -0.3406  0.1866
  416MOL0     C56079   6.511   8.986   0.605 -0.1399 -0.6781  0.8539
  416MOL0     C56080   6.497   8.975   0.467  0.3748 -0.9284  0.2078
  416MOL0     C56081   6.387   9.036   0.401 -0.0130 -0.1796 -0.7119
  416MOL0     C56082   6.289   9.101   0.475  0.6460  0.8013 -0.2449
  416MOL0     O56083   6.184   9.154   0.405  0.1702 -0.2040  0.5110
  416MOL0     C56084   6.082   9.233   0.468 -0.2899  0.2514 -0.2180
  416MOL0     C56085   5.982   9.253   0.361  0.2548  0.1331  0.5866
  416MOL0     C56086   5.849   9.313   0.412  0.9507  0.8815 -0.1165
  416MOL0     C56087   5.740   9.364   0.314 -0.3039  0.6661 -0.5202
  416MOL0     C56088   5.727   9.267   0.206  0.2170  0.3109 -0.1152
  416MOL0     C56089   5.692   9.190   0.124 -0.3651 -0.4552  0.0290
  416MOL0     C56090   6.311   9.120   0.608 -0.3082 -1.6212 -0.3988
  416MOL0     C56091   6.423   9.061   0.679  0.4535  0.0836  1.0174
  416MOL0     C56092   6.431   9.088   0.830  0.0341  0.1797 -0.1926
  416MOL0     H56093   6.905   8.752   0.447 -1.0172 -0.7488  0.5278
  416MOL0     H56094   7.151   8.730   0.496  3.0960  1.4819  1.2870
  416MOL0     H56095   7.328   8.644   0.763  0.5569 -1.2565 -1.9188
  416MOL0     H56096   7.301   8.690   0.596 -1.0315  0.6063 -0.4930
  416MOL0     H56097   7.485   8.851   0.600  0.9551  0.9834 -0.4679
  416MOL0     H56098   7.535   8.681   0.631 -1.8881 -0.3982 -1.0760
  416MOL0     H56099   7.509   8.770   0.888  2.2782 -3.1603 -0.4593
  416MOL0     H56100   7.580   8.918   0.815 -5.0784  1.1239  1.2205
  416MOL0     H56101   7.716   8.655   0.785  1.5459 -0.0098 -1.0925
  416MOL0     H56102   7.760   8.803   0.703  1.2776  2.2374  0.8810
  416MOL0     H56103   7.755   8.809   1.003 -1.0330 -0.0827 -1.0628
  416MOL0     H56104   7.887   8.763   0.896 -0.1323  0.0615 -0.3699
  416MOL0     H56105   7.896   8.975   0.783 -1.7516  0.8272 -0.4915
  416MOL0     H56106   7.763   9.040   0.864  0.1913  0.5702 -1.7165
  416MOL0     H56107   8.001   8.932   1.033  2.4180  1.0759  2.3415
  416MOL0     H56108   7.869   9.043   1.087  1.6868  2.0456  0.0889
  416MOL0     H56109   8.120   9.130   0.933 -0.1974 -0.0394  1.3089
  416MOL0     H56110   7.954   9.210   0.918  1.4742  1.4659 -0.6077
  416MOL0     H56111   7.877   9.378   1.081 -0.6278 -0.3882  0.7427
  416MOL0     H56112   7.856   9.502   1.290  0.9233  1.2981  0.4537
  416MOL0     H56113   7.831   9.357   1.392  1.1230 -0.0955  2.0547
  416MOL0     H56114   8.031   9.441   1.530  2.0300 -2.5278 -3.8699
  416MOL0     H56115   8.053   9.571   1.425 -0.8644  0.2800 -1.3485
  416MOL0     H56116   7.777   9.530   1.559 -0.3134 -1.0132  2.8790
  416MOL0     H56117   7.853   9.678   1.497  0.2783 -0.4428 -0.3432
  416MOL0     H56118   8.002   9.703   1.664 -2.4561  1.0727 -0.8270
  416MOL0     H56119   7.966   9.532   1.740 -1.3921  0.4011  2.1702
  416MOL0     H56120   7.616   9.775   1.921  0.3918  3.5109 -2.9922
  416MOL0     H56121   7.640   9.874   2.138  0.1221  1.1941  0.2402
  416MOL0     H56122   8.092   9.857   2.497 -1.7349 -1.8416  0.1619
  416MOL0     H56123   8.156   9.954   2.723  1.2031 -3.7465 -4.8031
  416MOL0     H56124   7.964  10.058   2.911 -0.0699  0.2438 -3.6365
  416MOL0     H56125   8.058  10.156   3.017 -0.4338  0.1925  0.4529
  416MOL0     H56126   7.833  10.242   2.836  0.1846  1.4187 -0.5261
  416MOL0     H56127   7.813  10.217   3.006 -1.8956 -0.3602 -2.3522
  416MOL0     H56128   7.985  10.418   3.019  2.1147 -0.5303 -1.6198
  416MOL0     H56129   7.954  10.404   2.834 -3.0805 -2.2753 -1.4450
  416MOL0     H56130   7.711  10.417   3.018 -1.4448 -0.9753 -1.4448
  416MOL0     H56131   7.729  10.447   2.849 -2.8480 -1.6381  1.3417
  416MOL0     H56132   7.841  10.656   2.896  0.5574  0.8417  0.4029
  416MOL0     H56133   7.820  10.636   3.077 -1.1821 -0.3982  1.0700
  416MOL0     H56134   7.589  10.643   2.885 -1.1535 -0.1995  0.9583
  416MOL0     H56135   7.589  10.627   3.058 -0.3503 -2.0512 -0.6737
  416MOL0     H56136   7.756  10.848   3.041  2.0919 -2.4046 -1.2392
  416MOL0     H56137   7.575  10.860   3.037 -1.8300 -0.8291 -2.4182
  416MOL0     H56138   7.707  10.981   2.837 -2.0929  1.4699 -0.3200
  416MOL0     H56139   7.750  10.828   2.782  2.7734  3.2406  0.5128
  416MOL0     H56140   7.964  10.320   2.621  0.5102 -0.3780  1.3860
  416MOL0     H56141   7.920  10.221   2.387  1.0311  3.7760  1.2263
  416MOL0     H56142   8.067   9.839   2.118 -1.2545  0.4424  1.5378
  416MOL0     H56143   8.046   9.717   1.916  1.2950  1.4453  1.5553
  416MOL0     H56144   7.096   9.007   0.821  2.4944  1.7560 -2.6602
  416MOL0     H56145   6.862   9.028   0.772 -1.8646 -3.0313  1.9271
  416MOL0     H56146   6.571   8.924   0.406  1.3556 -0.1599  0.7417
  416MOL0     H56147   6.380   9.023   0.294  0.3292  0.8085 -0.8638
  416MOL0     H56148   6.110   9.336   0.493 -2.8632  1.4548 -1.8105
  416MOL0     H56149   6.054   9.184   0.561 -0.7915  1.5820  0.3637
  416MOL0     H56150   5.974   9.163   0.300  1.1412 -1.3247  2.5083
  416MOL0     H56151   6.034   9.319   0.291  0.2574 -1.5972 -1.1208
  416MOL0     H56152   5.872   9.387   0.490 -1.4683  1.6284 -0.0326
  416MOL0     H56153   5.807   9.234   0.475  2.5570  0.9760  1.1397
  416MOL0     H56154   5.643   9.381   0.362  0.1737 -0.2588  0.8330
  416MOL0     H56155   5.785   9.458   0.279 -0.8120  0.9540 -0.4136
  416MOL0     H56156   5.679   9.114   0.049  0.9836  0.8001 -1.5598
  416MOL0     H56157   6.237   9.171   0.670  0.8589 -0.0066 -0.2877
  416MOL0     H56158   6.510   9.159   0.852  0.1844 -0.1126  0.2260
  416MOL0     H56159   6.337   9.131   0.866 -1.5230 -0.5892 -2.9610
  416MOL0     H56160   6.446   8.992   0.881  0.2988  0.2698 -0.1023
  417MOL0     O56161   8.469   0.983   5.277 -0.8958  0.7306 -0.0417
  417MOL0     C56162   8.545   1.070   5.310  0.0268 -0.1165 -0.2624
  417MOL0     O56163   8.556   1.188   5.247 -0.0424 -0.1071  0.1500
  417MOL0     C56164   8.497   1.206   5.119  0.1399  0.0698 -0.0323
  417MOL0     C56165   8.480   1.106   5.029  0.4372  0.5050 -0.1164
  417MOL0     C56166   8.421   1.124   4.910  0.3098 -0.7777  0.9120
  417MOL0     C56167   8.368   1.251   4.873  0.2714  0.6746 -0.1698
  417MOL0     O56168   8.310   1.256   4.749  0.0066 -0.1566 -0.3963
  417MOL0     C56169   8.231   1.375   4.714 -0.9877  0.0449  0.8586
  417MOL0     C56170   8.200   1.387   4.566  0.1524  0.8549 -0.0975
  417MOL0     C56171   8.102   1.278   4.523  0.0323  0.3965  0.0184
  417MOL0     C56172   7.979   1.328   4.451  0.1447  0.5614 -0.4685
  417MOL0     C56173   7.886   1.218   4.378 -0.4471 -0.9640 -0.5248
  417MOL0     C56174   7.890   1.087   4.466  1.5670  0.1707  0.0903
  417MOL0     C56175   7.835   0.965   4.387 -0.5221  0.5138 -0.0004
  417MOL0     C56176   7.709   0.986   4.301  0.1334  0.4055  1.0802
  417MOL0     N56177   7.584   0.959   4.378  0.3663 -0.1269 -0.6814
  417MOL0     C56178   7.530   0.833   4.408 -0.2684 -0.3737  0.0594
  417MOL0     C56179   7.431   0.861   4.498  0.7031  0.4547  0.2425
  417MOL0     C56180   7.356   0.749   4.558  0.5697  0.5104 -0.4404
  417MOL0     C56181   7.215   0.707   4.500 -0.4892 -0.1702  0.3563
  417MOL0     C56182   7.173   0.579   4.563 -0.0695  0.6502 -0.3514
  417MOL0     C56183   7.026   0.558   4.538 -0.8498 -0.6238 -0.4402
  417MOL0     O56184   6.989   0.422   4.573 -0.1039  0.3176  0.2233
  417MOL0     C56185   6.882   0.368   4.505  0.1485  0.4508 -0.4249
  417MOL0     C56186   6.793   0.286   4.578  0.2788  0.2755 -0.4183
  417MOL0     C56187   6.708   0.213   4.501  0.2702 -0.0263 -0.0284
  417MOL0     C56188   6.700   0.222   4.360 -0.5685 -0.2250 -0.4788
  417MOL0     C56189   6.629   0.121   4.275  0.1525  0.8798  0.3260
  417MOL0     O56190   6.628   0.137   4.136  0.7782  0.1686 -0.2157
  417MOL0     C56191   6.533   0.085   4.050  0.0643 -1.3871 -0.3864
  417MOL0     C56192   6.524   0.150   3.930 -0.1624  0.9149  0.0250
  417MOL0     C56193   6.439   0.104   3.833  0.4935  0.3799  0.8240
  417MOL0     C56194   6.343   0.009   3.862 -0.4718  0.0392  0.7112
  417MOL0     O56195   6.250  -0.039   3.768  0.2690  0.0133 -0.4585
  417MOL0     C56196   6.311  -0.090   3.646 -0.3091 -0.4021 -0.1640
  417MOL0     C56197   6.196  -0.137   3.555 -0.6234  0.1402 -0.1898
  417MOL0     C56198   6.246  -0.159   3.417  1.0118  0.3029  0.1483
  417MOL0     C56199   6.339  -0.277   3.394  0.7435 -0.4374  0.6931
  417MOL0     C56200   6.352  -0.303   3.243  0.1002 -0.3453 -0.5325
  417MOL0     C56201   6.448  -0.215   3.169 -0.5927 -0.2561 -0.4917
  417MOL0     C56202   6.585  -0.288   3.142 -0.4400  0.6688 -0.5091
  417MOL0     C56203   6.711  -0.208   3.164  0.2502 -0.5603  0.2041
  417MOL0    Cl56204   6.847  -0.254   3.053 -0.0600  0.1610  0.2021
  417MOL0     C56205   6.346  -0.047   3.987 -0.4520  1.0974 -0.6833
  417MOL0     C56206   6.449  -0.017   4.077  0.5062 -0.9887 -0.4073
  417MOL0     O56207   6.548   0.059   4.342  0.1540 -0.4613 -0.0473
  417MOL0     C56208   6.782   0.310   4.297 -0.1939  0.4157  0.6533
  417MOL0     C56209   6.882   0.383   4.365 -0.0495  0.3813  0.2096
  417MOL0     N56210   7.420   1.004   4.506 -0.3336  0.1856 -0.6779
  417MOL0     N56211   7.521   1.055   4.450  0.5994  0.1571  0.2283
  417MOL0     C56212   8.402   1.363   4.956 -0.2189  0.7057 -0.6553
  417MOL0     C56213   8.464   1.343   5.083  0.2007 -0.2452  1.0562
  417MOL0     C56214   8.624   1.075   5.442  0.3510 -0.3060 -0.0787
  417MOL0     C56215   8.689   1.197   5.477 -0.1087  0.3821 -0.1764
  417MOL0     C56216   8.746   1.209   5.595  0.0632 -0.0157 -1.3548
  417MOL0     C56217   8.748   1.114   5.697  0.1711  0.9138  0.1192
  417MOL0     O56218   8.822   1.142   5.810 -0.0551  0.7362  0.7387
  417MOL0     C56219   8.836   1.039   5.908  0.0525 -0.4757  0.4677
  417MOL0     C56220   8.904   1.111   6.015 -0.2487  0.8254 -0.2887
  417MOL0     C56221   8.890   1.030   6.149  0.7413 -0.4944  0.3305
  417MOL0     C56222   8.952   0.889   6.119  0.2544  0.0496 -0.6622
  417MOL0     C56223   9.098   0.891   6.087  1.2503 -0.8363  0.0887
  417MOL0     C56224   9.215   0.898   6.052  0.0598  0.0677 -0.4080
  417MOL0     C56225   8.693   0.987   5.657 -1.3360  0.1105 -0.4700
  417MOL0     C56226   8.629   0.966   5.537 -0.5489 -0.0458 -0.1374
  417MOL0     C56227   8.569   0.830   5.519  0.5149 -1.7360  0.3517
  417MOL0     H56228   8.498   1.004   5.058 -0.5087 -0.0923 -1.5283
  417MOL0     H56229   8.388   1.044   4.843 -3.0696  1.2594 -0.0903
  417MOL0     H56230   8.145   1.392   4.779  0.4316  2.1260  2.3286
  417MOL0     H56231   8.291   1.465   4.731  3.1187 -2.4746  1.1394
  417MOL0     H56232   8.297   1.377   4.515 -0.9022  1.4456 -2.3569
  417MOL0     H56233   8.166   1.489   4.547  1.5097  1.4651  0.6484
  417MOL0     H56234   8.071   1.216   4.608 -0.5743  2.4737  1.3950
  417MOL0     H56235   8.148   1.217   4.445  1.9775  1.9961 -0.1699
  417MOL0     H56236   7.922   1.373   4.532  1.2886  1.4447 -0.1233
  417MOL0     H56237   8.015   1.409   4.387  2.4184 -0.8839 -1.1682
  417MOL0     H56238   7.779   1.241   4.379 -0.9681 -2.8341  3.2960
  417MOL0     H56239   7.922   1.191   4.278 -0.5561  1.2113 -1.2036
  417MOL0     H56240   7.989   1.049   4.495  1.2642 -0.4922  0.2754
  417MOL0     H56241   7.825   1.115   4.549  0.1269  2.9366 -1.8281
  417MOL0     H56242   7.834   0.872   4.445  2.2805  1.0206  0.9903
  417MOL0     H56243   7.916   0.941   4.318  0.0625  0.4439  0.6980
  417MOL0     H56244   7.706   1.090   4.268  0.4436 -0.0519 -0.4949
  417MOL0     H56245   7.707   0.928   4.208  0.0545  0.4965  1.0251
  417MOL0     H56246   7.570   0.735   4.387  0.2356  0.4435 -3.4620
  417MOL0     H56247   7.428   0.666   4.553  1.4084  1.1761  0.2393
  417MOL0     H56248   7.346   0.778   4.663  1.3164  2.8954 -0.9635
  417MOL0     H56249   7.147   0.789   4.526  1.6035  1.3901  1.1053
  417MOL0     H56250   7.222   0.698   4.391 -0.1982 -1.0756  0.4457
  417MOL0     H56251   7.177   0.581   4.673 -0.2155  0.7167 -0.3467
  417MOL0     H56252   7.225   0.492   4.523 -2.0430 -0.9643  0.4374
  417MOL0     H56253   7.009   0.590   4.435  2.3747  0.4061 -0.7518
  417MOL0     H56254   6.969   0.625   4.603  0.7905 -0.1277  0.5478
  417MOL0     H56255   6.801   0.273   4.686 -3.0366  3.4725  0.3951
  417MOL0     H56256   6.653   0.141   4.560  3.5595 -3.0659 -0.3550
  417MOL0     H56257   6.596   0.231   3.919  2.9163 -1.9865 -4.5682
  417MOL0     H56258   6.457   0.159   3.741  4.5836 -0.0959  1.1769
  417MOL0     H56259   6.366  -0.006   3.604  0.7902 -0.8757  0.3018
  417MOL0     H56260   6.387  -0.168   3.656  1.2159  0.9697 -0.6309
  417MOL0     H56261   6.147  -0.227   3.595  0.3977  0.3702  1.6925
  417MOL0     H56262   6.117  -0.061   3.552  0.3427  1.1683 -0.1013
  417MOL0     H56263   6.159  -0.165   3.352  1.6879 -1.5126 -0.6309
  417MOL0     H56264   6.295  -0.063   3.395 -0.4603  2.2658  4.3618
  417MOL0     H56265   6.296  -0.362   3.447  3.0568 -1.9051  0.3778
  417MOL0     H56266   6.438  -0.263   3.440 -0.1864 -0.0500  2.6703
  417MOL0     H56267   6.255  -0.298   3.193  1.2869  2.7124 -2.8693
  417MOL0     H56268   6.374  -0.409   3.233  2.1300  0.0536 -0.7070
  417MOL0     H56269   6.388  -0.184   3.083 -0.7470  0.0106 -0.2910
  417MOL0     H56270   6.467  -0.124   3.227  0.8733  1.3523 -3.2682
  417MOL0     H56271   6.574  -0.319   3.038 -0.6915 -1.0778  0.0106
  417MOL0     H56272   6.587  -0.381   3.199  1.5529  2.4727  2.6800
  417MOL0     H56273   6.680  -0.108   3.135  1.6132  0.2463  1.3866
  417MOL0     H56274   6.746  -0.224   3.267  2.7086  0.4328 -0.3987
  417MOL0     H56275   6.271  -0.124   4.000  0.8606 -0.6853 -2.9693
  417MOL0     H56276   6.448  -0.062   4.176  0.0686  1.2439  0.6764
  417MOL0     H56277   6.792   0.328   4.191  2.9816 -0.0590  0.7709
  417MOL0     H56278   6.942   0.450   4.306 -0.7130 -0.3332 -1.3181
  417MOL0     H56279   8.369   1.463   4.929  0.9480  2.3127  3.1825
  417MOL0     H56280   8.486   1.429   5.145  2.8165 -1.4926  2.0324
  417MOL0     H56281   8.674   1.282   5.411  2.8619 -0.0104 -1.5207
  417MOL0     H56282   8.790   1.308   5.603 -0.3276  0.0579 -0.0111
  417MOL0     H56283   8.895   0.956   5.870  1.8003  0.3063  1.3746
  417MOL0     H56284   8.740   1.000   5.944 -0.1406  0.6357  1.1991
  417MOL0     H56285   8.860   1.210   6.029  0.5677  1.3246 -1.0940
  417MOL0     H56286   9.009   1.133   5.992  0.3173  0.2812  1.5879
  417MOL0     H56287   8.788   1.029   6.189  0.4432  0.8047 -0.3272
  417MOL0     H56288   8.961   1.072   6.220 -0.2087 -0.1730  1.1209
  417MOL0     H56289   8.946   0.842   6.218 -1.0558  0.8686 -0.3248
  417MOL0     H56290   8.900   0.817   6.054  2.6204  0.3392 -3.0163
  417MOL0     H56291   9.314   0.903   6.012 -1.0228  1.8290 -3.2256
  417MOL0     H56292   8.685   0.914   5.738  1.0292 -1.0379 -1.1801
  417MOL0     H56293   8.463   0.846   5.538 -0.1874 -1.3792 -3.1516
  417MOL0     H56294   8.571   0.815   5.411 -1.3655 -3.1165  0.4413
  417MOL0     H56295   8.613   0.746   5.574  0.7921 -1.5657  0.3948
  418MOL0     O56296   3.555   5.226  10.553 -0.0781  0.5154 -0.1543
  418MOL0     C56297   3.633   5.246  10.460  0.1207  0.4170 -0.0575
  418MOL0     O56298   3.596   5.302  10.345  1.0492 -0.5810 -0.0615
  418MOL0     C56299   3.484   5.382  10.331  0.6532  0.7257  0.2259
  418MOL0     C56300   3.415   5.453  10.427 -0.1742  0.0203 -0.1681
  418MOL0     C56301   3.314   5.538  10.387  0.3577  0.0288  0.7914
  418MOL0     C56302   3.286   5.555  10.247 -0.2524  0.6090 -0.0136
  418MOL0     O56303   3.200   5.647  10.204  0.5563 -1.1891  0.5401
  418MOL0     C56304   3.059   5.643  10.243 -0.8476  0.0737  0.6014
  418MOL0     C56305   3.023   5.773  10.331  0.2076  0.1507  0.6774
  418MOL0     C56306   2.973   5.711  10.466 -0.9828  0.0990 -0.0480
  418MOL0     C56307   2.890   5.816  10.530  0.4033  0.2301 -0.3479
  418MOL0     C56308   2.804   5.788  10.656  0.3776  1.5126  1.2149
  418MOL0     C56309   2.709   5.666  10.658 -0.0886  0.5305 -0.6225
  418MOL0     C56310   2.568   5.674  10.736 -0.6945 -0.5984  0.3509
  418MOL0     C56311   2.447   5.720  10.650 -0.2854 -0.3350  0.2488
  418MOL0     N56312   2.462   5.860  10.606 -0.0536  0.2124 -0.5961
  418MOL0     C56313   2.495   5.898  10.479 -0.3654 -0.7868 -0.3635
  418MOL0     C56314   2.468   6.035  10.476 -0.3276 -0.6417  0.7221
  418MOL0     C56315   2.492   6.118  10.356 -0.1573  0.1191 -0.0001
  418MOL0     C56316   2.643   6.084  10.292  0.3873 -0.2240  0.0046
  418MOL0     C56317   2.675   6.168  10.168 -0.1366 -0.9224 -0.7749
  418MOL0     C56318   2.830   6.185  10.142 -0.7373 -0.2783 -0.1041
  418MOL0     O56319   2.862   6.250  10.020 -0.9206  0.2692 -0.3822
  418MOL0     C56320   2.832   6.178   9.903 -0.0742 -0.1987  0.3402
  418MOL0     C56321   2.797   6.245   9.785 -0.0621  0.7035 -0.5864
  418MOL0     C56322   2.778   6.185   9.663 -0.1731 -0.4781  0.7418
  418MOL0     C56323   2.804   6.050   9.648 -0.6129 -0.2592  0.2202
  418MOL0     C56324   2.779   5.984   9.518  0.6476 -0.0062  0.3566
  418MOL0     O56325   2.769   6.056   9.394  0.9828  0.2941 -1.0758
  418MOL0     C56326   2.761   5.996   9.271  0.0792  0.4589  0.6612
  418MOL0     C56327   2.833   5.884   9.233 -1.2389  0.2405  0.2615
  418MOL0     C56328   2.816   5.838   9.099 -0.1509 -1.0987  0.1820
  418MOL0     C56329   2.717   5.885   9.012 -0.2317 -0.1181  0.4040
  418MOL0     O56330   2.717   5.826   8.892 -0.1785 -0.4965 -0.0801
  418MOL0     C56331   2.701   5.917   8.778 -0.7890 -0.9136  0.0390
  418MOL0     C56332   2.756   5.874   8.644  0.3682 -0.1738  0.3008
  418MOL0     C56333   2.915   5.887   8.645 -0.2131  0.3315  0.8489
  418MOL0     C56334   2.993   5.772   8.715  0.6288  0.4141 -0.4918
  418MOL0     C56335   3.122   5.823   8.774  0.1762 -0.6051 -0.8329
  418MOL0     C56336   3.235   5.816   8.670 -0.6926  0.3039  0.1036
  418MOL0     C56337   3.366   5.764   8.746 -0.1724 -0.2909  0.1974
  418MOL0     C56338   3.474   5.761   8.646  0.2537 -0.0208 -0.5122
  418MOL0    Cl56339   3.632   5.759   8.724  0.6879  0.2748  0.2974
  418MOL0     C56340   2.640   5.989   9.057  0.2686 -0.3664 -0.3111
  418MOL0     C56341   2.664   6.046   9.187  0.8279 -0.2835 -0.0949
  418MOL0     O56342   2.777   5.860   9.526 -0.5714 -0.1438  0.1837
  418MOL0     C56343   2.840   5.969   9.764  0.6823  0.3783  1.4057
  418MOL0     C56344   2.862   6.039   9.881  0.0491 -0.2194 -0.2711
  418MOL0     N56345   2.446   6.075  10.609  0.1023 -1.1024  0.0422
  418MOL0     N56346   2.456   5.971  10.685  0.3536 -1.0755  0.1141
  418MOL0     C56347   3.346   5.475  10.156  0.3619  1.0765  0.2798
  418MOL0     C56348   3.445   5.389  10.200 -0.6755  0.7711 -0.4123
  418MOL0     C56349   3.778   5.204  10.465 -0.2636  0.6602 -0.3020
  418MOL0     C56350   3.862   5.236  10.359 -0.4729  0.5510  0.5615
  418MOL0     C56351   3.998   5.212  10.354 -0.5029 -0.2302  0.3348
  418MOL0     C56352   4.068   5.144  10.463 -0.6824 -0.2265 -0.3984
  418MOL0     O56353   4.206   5.116  10.454 -0.5135  0.0593 -0.4294
  418MOL0     C56354   4.286   5.237  10.449 -1.0082 -0.0918  0.3869
  418MOL0     C56355   4.269   5.322  10.565  0.2617  0.6360 -0.2570
  418MOL0     C56356   4.324   5.254  10.692 -0.0443  0.0916 -0.1211
  418MOL0     C56357   4.271   5.324  10.825 -0.1713 -1.0063  0.4656
  418MOL0     C56358   4.127   5.352  10.825 -0.4216 -0.4664  0.5500
  418MOL0     C56359   4.004   5.366  10.807 -0.3509  0.0295 -0.5300
  418MOL0     C56360   3.978   5.104  10.570 -0.5425  0.4096  0.3839
  418MOL0     C56361   3.839   5.133  10.572 -0.2304 -0.5606  0.3355
  418MOL0     C56362   3.756   5.091  10.692 -0.4598  0.7474 -0.0677
  418MOL0     H56363   3.436   5.445  10.533 -3.6567  0.0191  0.6421
  418MOL0     H56364   3.262   5.603  10.457  0.4711 -0.7061  1.5730
  418MOL0     H56365   3.004   5.641  10.148  1.1609  0.4555 -0.6247
  418MOL0     H56366   3.041   5.550  10.297  0.3654 -1.1504 -1.0047
  418MOL0     H56367   2.958   5.837  10.271  0.7862 -0.5718 -0.7691
  418MOL0     H56368   3.112   5.835  10.345 -1.1201  1.4115  5.2822
  418MOL0     H56369   3.051   5.678  10.535 -0.9219  0.9684  0.3099
  418MOL0     H56370   2.910   5.625  10.443  2.5366 -2.3710 -1.2853
  418MOL0     H56371   2.958   5.898  10.554  1.0293 -0.6807  1.0906
  418MOL0     H56372   2.811   5.841  10.458 -1.9299 -1.0339  1.6286
  418MOL0     H56373   2.860   5.779  10.749 -0.7221  0.8460  1.8386
  418MOL0     H56374   2.744   5.880  10.663 -0.4493  0.9772  1.2977
  418MOL0     H56375   2.693   5.625  10.558  5.5025 -2.4604 -0.6939
  418MOL0     H56376   2.764   5.584  10.706 -3.2239 -3.3699 -3.0184
  418MOL0     H56377   2.578   5.735  10.826  2.4717 -0.6534  0.1576
  418MOL0     H56378   2.553   5.576  10.782 -0.0207 -0.1862  1.5044
  418MOL0     H56379   2.431   5.651  10.566 -1.7939  0.5171 -0.2112
  418MOL0     H56380   2.360   5.715  10.715 -0.0152 -0.3313  0.6106
  418MOL0     H56381   2.517   5.830  10.397  0.2444 -0.0608 -0.8131
  418MOL0     H56382   2.408   6.094  10.289  0.3520 -2.3395  0.1489
  418MOL0     H56383   2.489   6.224  10.381 -2.8301 -0.0235  0.5847
  418MOL0     H56384   2.722   6.105  10.364  2.0233  3.1704 -2.5139
  418MOL0     H56385   2.655   5.977  10.271 -0.5302 -0.5576  1.0429
  418MOL0     H56386   2.626   6.265  10.175  1.3156 -0.2533  0.7796
  418MOL0     H56387   2.637   6.127  10.074  2.0701 -2.2860 -1.1591
  418MOL0     H56388   2.878   6.087  10.151  1.0226  0.5426 -0.1355
  418MOL0     H56389   2.874   6.240  10.226 -1.3724 -0.9498  0.6844
  418MOL0     H56390   2.776   6.351   9.799 -1.2623  0.3038  0.8093
  418MOL0     H56391   2.747   6.241   9.576  1.9203 -1.2450 -0.5849
  418MOL0     H56392   2.902   5.826   9.294 -0.6938  0.7511  0.1484
  418MOL0     H56393   2.880   5.768   9.046 -0.8173  0.1355 -2.4223
  418MOL0     H56394   2.593   5.933   8.763 -1.2005 -2.9174  0.5725
  418MOL0     H56395   2.753   6.012   8.790 -0.0988 -0.9866 -2.0221
  418MOL0     H56396   2.724   5.776   8.607 -0.4441  0.9151 -2.0926
  418MOL0     H56397   2.713   5.930   8.561 -0.0549 -1.0971 -0.1114
  418MOL0     H56398   2.952   5.894   8.543  1.3386  0.5009  1.3993
  418MOL0     H56399   2.930   5.983   8.695  1.8229  0.7807 -0.5271
  418MOL0     H56400   2.997   5.679   8.656  1.9308 -0.6587  1.1847
  418MOL0     H56401   2.940   5.740   8.805  2.9367 -0.8514  0.4898
  418MOL0     H56402   3.150   5.769   8.866  1.4410  1.0958 -0.1548
  418MOL0     H56403   3.106   5.927   8.801  0.5580 -0.8167  0.2670
  418MOL0     H56404   3.212   5.747   8.588  0.1211  1.5455 -1.2190
  418MOL0     H56405   3.257   5.910   8.620 -0.3521  0.7330  1.0452
  418MOL0     H56406   3.350   5.670   8.799 -4.6698  0.8933  1.4071
  418MOL0     H56407   3.388   5.838   8.823  0.2333 -1.6639  1.4502
  418MOL0     H56408   3.471   5.683   8.569  0.2164 -0.6739  0.1373
  418MOL0     H56409   3.468   5.854   8.590  0.2023  1.3600  1.6909
  418MOL0     H56410   2.542   6.013   9.015 -0.2924 -0.8485  0.6808
  418MOL0     H56411   2.588   6.114   9.226  0.9752  0.7882 -1.6142
  418MOL0     H56412   2.837   5.860   9.768 -1.4019  0.3972  4.0586
  418MOL0     H56413   2.909   5.994   9.968 -0.5282 -0.5771 -0.1409
  418MOL0     H56414   3.316   5.474  10.051 -0.4447 -1.0161  0.4885
  418MOL0     H56415   3.503   5.321  10.138  2.4384  0.7975  2.2036
  418MOL0     H56416   3.818   5.272  10.266 -0.6242 -2.1848 -0.5460
  418MOL0     H56417   4.033   5.246  10.257 -0.5318 -1.7625 -0.2487
  418MOL0     H56418   4.259   5.298  10.362 -0.6696  1.2989  1.2362
  418MOL0     H56419   4.391   5.207  10.440 -1.5432 -2.1887  0.4074
  418MOL0     H56420   4.162   5.343  10.576 -0.3759 -0.7034 -3.0039
  418MOL0     H56421   4.324   5.417  10.562 -1.5754  1.7475 -0.2251
  418MOL0     H56422   4.433   5.254  10.684 -0.1067 -0.8499 -1.3253
  418MOL0     H56423   4.288   5.150  10.693 -4.5700  1.3790 -1.8300
  418MOL0     H56424   4.295   5.261  10.911  1.6887 -0.9006  0.0669
  418MOL0     H56425   4.335   5.409  10.850 -0.7903  0.3481 -2.1910
  418MOL0     H56426   3.901   5.368  10.775  0.1491 -0.4153 -2.2678
  418MOL0     H56427   4.013   5.048  10.656 -1.0727  0.7203  0.8072
  418MOL0     H56428   3.819   5.043  10.768  1.9469  0.3106 -2.1942
  418MOL0     H56429   3.703   5.174  10.740  1.8675  1.4884  1.3855
  418MOL0     H56430   3.692   5.011  10.653 -0.0867 -0.4876  1.6841
  419MOL0     O56431  11.336  11.483   0.990  0.3448  0.2809  0.0015
  419MOL0     C56432  11.284  11.550   1.077  0.1433  0.0339 -0.8806
  419MOL0     O56433  11.151  11.567   1.099 -0.0101  0.5835  0.5644
  419MOL0     C56434  11.046  11.518   1.017 -0.1608 -0.6399  0.4520
  419MOL0     C56435  10.935  11.463   1.076  0.6087  0.1434 -1.1150
  419MOL0     C56436  10.831  11.411   1.001 -0.0289 -0.1676 -0.4417
  419MOL0     C56437  10.831  11.423   0.861  0.7510  0.4321 -0.1077
  419MOL0     O56438  10.715  11.375   0.787  0.4068  0.4985  0.2132
  419MOL0     C56439  10.647  11.262   0.852  1.0445  0.1098 -0.3071
  419MOL0     C56440  10.562  11.205   0.735  0.1450 -0.2866 -0.2540
  419MOL0     C56441  10.512  11.061   0.770 -0.3767  0.0562 -0.5159
  419MOL0     C56442  10.389  11.057   0.852  0.0068  0.1874  0.3400
  419MOL0     C56443  10.390  10.930   0.932  0.2017 -0.6769  0.1755
  419MOL0     C56444  10.338  10.822   0.840  0.7819  0.1627 -1.1994
  419MOL0     C56445  10.340  10.676   0.898  0.1271 -0.5758  0.7990
  419MOL0     C56446  10.249  10.648   1.016  0.5127  0.3550  0.1229
  419MOL0     N56447  10.290  10.705   1.139 -0.8501 -0.3198 -0.0814
  419MOL0     C56448  10.422  10.731   1.184 -0.3076  0.2872 -0.1198
  419MOL0     C56449  10.407  10.819   1.289  0.9304  0.2798  0.0348
  419MOL0     C56450  10.512  10.888   1.365 -0.3983  0.0277  0.7420
  419MOL0     C56451  10.481  10.893   1.509  0.6075  0.1784  0.7099
  419MOL0     C56452  10.605  10.946   1.583 -0.1900  0.0456 -0.2775
  419MOL0     C56453  10.601  10.934   1.734  0.0223  0.5171  0.1678
  419MOL0     O56454  10.480  10.992   1.793  0.0464  0.3641 -0.0033
  419MOL0     C56455  10.440  10.961   1.925  1.6801  0.1754  0.6568
  419MOL0     C56456  10.301  10.979   1.944 -0.1232  0.3302 -0.2051
  419MOL0     C56457  10.239  10.945   2.069  0.2526  0.2156  0.1638
  419MOL0     C56458  10.311  10.911   2.175  0.3486  1.0197 -0.4872
  419MOL0     C56459  10.250  10.874   2.298  0.2962  0.2241  0.3520
  419MOL0     O56460  10.311  10.948   2.397 -0.4608  0.1189  0.2117
  419MOL0     C56461  10.263  10.929   2.527 -0.7426 -0.2938 -0.4075
  419MOL0     C56462  10.218  10.812   2.583  0.9402  0.3928  0.8151
  419MOL0     C56463  10.180  10.809   2.717  0.3418  0.8154 -0.5263
  419MOL0     C56464  10.162  10.930   2.794 -1.3971 -0.4025  0.9972
  419MOL0     O56465  10.129  10.918   2.922  0.6474 -0.7959 -0.6240
  419MOL0     C56466  10.133  11.030   3.007  0.0182 -0.3417 -1.1519
  419MOL0     C56467  10.110  10.988   3.156 -0.0340 -0.5143 -0.3012
  419MOL0     C56468   9.983  10.916   3.175 -0.2358 -0.1480 -0.9095
  419MOL0     C56469   9.985  10.832   3.313 -0.0941 -1.6245  0.4415
  419MOL0     C56470   9.841  10.797   3.347  0.4915 -0.5507  0.3662
  419MOL0     C56471   9.826  10.679   3.443  0.2120  0.8687 -0.0655
  419MOL0     C56472   9.880  10.711   3.578  0.3834  0.1093  0.7695
  419MOL0     C56473   9.876  10.594   3.675  0.1859 -0.2011 -0.1457
  419MOL0    Cl56474   9.974  10.446   3.613 -0.1979  0.0662  0.0154
  419MOL0     C56475  10.200  11.050   2.727  0.0294  0.1421 -0.2675
  419MOL0     C56476  10.254  11.048   2.603  0.0034 -0.0673  0.7155
  419MOL0     O56477  10.152  10.797   2.313  0.5133  0.1640 -0.3298
  419MOL0     C56478  10.449  10.891   2.150  0.3142  0.6714 -0.0691
  419MOL0     C56479  10.517  10.913   2.031 -0.4508 -0.3330 -0.4067
  419MOL0     N56480  10.267  10.836   1.302  0.3423  0.2185  1.0378
  419MOL0     N56481  10.198  10.777   1.205  0.1099 -0.0779 -1.1866
  419MOL0     C56482  10.938  11.487   0.808  0.2531  0.6357  0.9055
  419MOL0     C56483  11.038  11.547   0.882 -0.5931 -0.0149 -0.8031
  419MOL0     C56484  11.368  11.629   1.156 -0.1494  0.9426  0.7233
  419MOL0     C56485  11.353  11.767   1.141 -0.2864 -0.2948  0.1881
  419MOL0     C56486  11.427  11.850   1.222  0.3527 -0.2331 -0.1772
  419MOL0     C56487  11.513  11.805   1.322 -0.4831 -0.6046 -0.2771
  419MOL0     O56488  11.591  11.887   1.413  0.1327  0.3939  0.0661
  419MOL0     C56489  11.594  12.030   1.381 -0.5812 -0.1216 -0.4737
  419MOL0     C56490  11.683  12.093   1.500 -0.5235  0.0173  0.4588
  419MOL0     C56491  11.829  12.072   1.500  0.7154  0.6905  0.4246
  419MOL0     C56492  11.901  12.123   1.622 -0.1161 -0.1178 -0.1822
  419MOL0     C56493  12.023  12.197   1.598 -0.1796 -0.3407 -1.1780
  419MOL0     C56494  12.131  12.250   1.572  0.6264  0.0344  0.3650
  419MOL0     C56495  11.523  11.668   1.337  0.1898  0.1478 -0.1009
  419MOL0     C56496  11.458  11.579   1.247 -0.2578 -0.3744  0.1445
  419MOL0     C56497  11.488  11.429   1.257 -0.5625  0.0846 -0.0180
  419MOL0     H56498  10.926  11.462   1.185  2.7127  3.3958 -0.7642
  419MOL0     H56499  10.745  11.371   1.054 -0.5752  0.3621 -0.9230
  419MOL0     H56500  10.712  11.184   0.892  2.9150  1.1653 -1.1750
  419MOL0     H56501  10.577  11.293   0.930 -0.6269  0.7238 -1.9859
  419MOL0     H56502  10.623  11.187   0.645 -0.1432  2.9080 -1.2218
  419MOL0     H56503  10.480  11.274   0.714 -1.0142 -1.8188 -0.9724
  419MOL0     H56504  10.593  11.010   0.823 -0.8451  1.3751  1.6020
  419MOL0     H56505  10.497  11.017   0.671  0.5412 -1.4833 -0.0044
  419MOL0     H56506  10.401  11.143   0.918  1.8249 -1.5667  2.4853
  419MOL0     H56507  10.293  11.074   0.803  1.0114 -0.6697 -2.0865
  419MOL0     H56508  10.492  10.909   0.965  0.1505 -2.6608 -0.8026
  419MOL0     H56509  10.328  10.944   1.022  0.6277 -1.9042  0.6944
  419MOL0     H56510  10.239  10.846   0.800  1.6955  0.9323 -3.1133
  419MOL0     H56511  10.410  10.811   0.758  1.1942 -1.2045 -0.6857
  419MOL0     H56512  10.436  10.630   0.925  1.8831  1.4550 -1.5612
  419MOL0     H56513  10.311  10.609   0.817  1.6252 -4.8849  3.4824
  419MOL0     H56514  10.145  10.668   0.990 -0.7204 -2.5957  2.1710
  419MOL0     H56515  10.241  10.541   1.037 -3.0929  0.7328  1.3310
  419MOL0     H56516  10.521  10.702   1.150  0.8529  0.5036  2.8385
  419MOL0     H56517  10.603  10.829   1.353 -1.9972 -2.2166 -0.9425
  419MOL0     H56518  10.530  10.993   1.338  0.5378 -0.0815  0.8993
  419MOL0     H56519  10.392  10.955   1.522  1.5991  3.1700 -4.1418
  419MOL0     H56520  10.458  10.790   1.539 -0.9715  1.1840  3.3173
  419MOL0     H56521  10.610  11.050   1.552 -1.6820 -0.5698 -2.8513
  419MOL0     H56522  10.692  10.884   1.555 -0.9964 -0.3022 -2.1607
  419MOL0     H56523  10.688  10.989   1.773  2.0855 -0.7012 -2.4393
  419MOL0     H56524  10.598  10.833   1.775 -1.0906  0.7110  0.6048
  419MOL0     H56525  10.237  11.020   1.866  0.0468  1.1074  0.0525
  419MOL0     H56526  10.132  10.936   2.081  0.5401  0.2345  3.6359
  419MOL0     H56527  10.214  10.723   2.521  1.1254 -0.0301  1.4083
  419MOL0     H56528  10.154  10.720   2.774 -0.0017  2.2289  1.6512
  419MOL0     H56529  10.230  11.079   2.995 -0.6510  0.4266 -4.4594
  419MOL0     H56530  10.057  11.101   2.975  0.9812  0.7497 -1.0586
  419MOL0     H56531  10.196  10.927   3.184  0.4554 -0.8073 -2.2823
  419MOL0     H56532  10.106  11.079   3.216 -3.4246 -0.0816 -1.0131
  419MOL0     H56533   9.903  10.990   3.168  0.3465  1.0011  2.6230
  419MOL0     H56534   9.963  10.842   3.097 -3.6169 -1.4021  0.9125
  419MOL0     H56535  10.043  10.889   3.387 -0.4437 -0.4156 -0.1819
  419MOL0     H56536  10.040  10.739   3.296  2.5586 -0.1133  0.2065
  419MOL0     H56537   9.787  10.774   3.254 -2.5942  2.9201  1.0717
  419MOL0     H56538   9.788  10.885   3.384 -1.9538 -1.9961  0.5498
  419MOL0     H56539   9.719  10.660   3.459  0.3476 -2.2683 -1.9211
  419MOL0     H56540   9.862  10.584   3.403 -2.8652 -0.6142  0.3573
  419MOL0     H56541   9.810  10.790   3.609 -2.4170 -1.2386 -1.5741
  419MOL0     H56542   9.985  10.733   3.559  0.3490 -1.0891 -1.0511
  419MOL0     H56543   9.895  10.622   3.778 -0.2274 -1.2551  0.2389
  419MOL0     H56544   9.770  10.569   3.687 -0.0822 -0.7593 -2.8550
  419MOL0     H56545  10.183  11.147   2.772  3.1786  0.8628 -0.4249
  419MOL0     H56546  10.271  11.144   2.555  0.3945 -1.2842 -1.7291
  419MOL0     H56547  10.504  10.867   2.240  1.2096  5.9505  1.1403
  419MOL0     H56548  10.625  10.900   2.023 -0.3421  0.7746 -0.9259
  419MOL0     H56549  10.933  11.513   0.703  1.3556 -0.1965  0.6288
  419MOL0     H56550  11.116  11.611   0.839 -0.8121  1.2051  0.5421
  419MOL0     H56551  11.286  11.808   1.067  2.6909  1.0734 -1.9614
  419MOL0     H56552  11.427  11.953   1.188  4.0431 -0.2159 -0.5522
  419MOL0     H56553  11.489  12.060   1.378 -1.6905 -3.4371  0.7723
  419MOL0     H56554  11.643  12.064   1.290  1.6253  4.4786  2.0813
  419MOL0     H56555  11.641  12.059   1.595  0.4141  1.6612  1.4952
  419MOL0     H56556  11.657  12.199   1.506 -0.9570 -0.0487 -0.1005
  419MOL0     H56557  11.867  12.124   1.412  2.0868  0.4585  0.8461
  419MOL0     H56558  11.840  11.965   1.479 -0.7098  0.7110 -0.5479
  419MOL0     H56559  11.837  12.197   1.670 -4.8224 -1.2261 -3.8816
  419MOL0     H56560  11.917  12.053   1.704 -0.2761  0.1744  0.1006
  419MOL0     H56561  12.221  12.307   1.567  1.0092 -0.6816 -2.5049
  419MOL0     H56562  11.585  11.639   1.420  1.8610 -0.3231 -1.4603
  419MOL0     H56563  11.563  11.407   1.334  0.7761 -0.6865 -1.4846
  419MOL0     H56564  11.401  11.371   1.286 -1.8384  1.3140 -1.2258
  419MOL0     H56565  11.533  11.402   1.161 -1.6583 -2.1948  0.0539
  420MOL0     O56566   9.316   8.430   2.317  0.1146 -0.7308  0.7086
  420MOL0     C56567   9.296   8.379   2.203 -0.0021 -0.1348  0.0441
  420MOL0     O56568   9.176   8.330   2.156  0.5718 -0.0216 -0.6472
  420MOL0     C56569   9.058   8.360   2.210  0.2303  0.7800  0.1782
  420MOL0     C56570   8.958   8.285   2.155 -0.8093 -0.2511 -0.0821
  420MOL0     C56571   8.830   8.315   2.203 -1.6593 -0.9824 -0.2024
  420MOL0     C56572   8.802   8.416   2.292 -0.2820  0.3142  0.4189
  420MOL0     O56573   8.673   8.440   2.296 -0.0652 -0.2820 -0.8594
  420MOL0     C56574   8.600   8.410   2.424 -0.9486 -0.4836  1.0895
  420MOL0     C56575   8.517   8.520   2.483 -0.1750  0.5205  0.1784
  420MOL0     C56576   8.394   8.555   2.405  0.2519  1.2589  0.0303
  420MOL0     C56577   8.278   8.451   2.443 -1.1678  0.3270 -0.5910
  420MOL0     C56578   8.138   8.469   2.389  0.0286  0.6113 -0.6478
  420MOL0     C56579   8.062   8.330   2.393  0.4171 -0.7642 -0.0392
  420MOL0     C56580   8.047   8.285   2.539 -0.3951 -0.0233  0.5644
  420MOL0     C56581   7.977   8.145   2.543 -0.1625  0.3393  0.7900
  420MOL0     N56582   7.998   8.089   2.679 -0.8019  0.3995  0.4982
  420MOL0     C56583   7.946   8.130   2.800  0.3187  0.2524 -0.3382
  420MOL0     C56584   8.002   8.042   2.893  0.0822 -0.1344  0.5621
  420MOL0     C56585   7.976   8.044   3.041 -0.3483  0.3435  0.4555
  420MOL0     C56586   7.952   7.914   3.113  0.5681  1.0626  1.1165
  420MOL0     C56587   8.026   7.905   3.245  0.2934  0.4668  0.2923
  420MOL0     C56588   8.166   7.857   3.201 -0.9438  0.1979 -0.0380
  420MOL0     O56589   8.256   7.871   3.314  0.5425  1.2172  0.0223
  420MOL0     C56590   8.211   7.805   3.425  0.2531 -1.2714 -0.6241
  420MOL0     C56591   8.213   7.876   3.546 -0.0037  0.6503  0.5941
  420MOL0     C56592   8.161   7.822   3.658 -1.0183 -0.5683 -0.1785
  420MOL0     C56593   8.097   7.696   3.654 -0.3311 -0.3651 -0.1700
  420MOL0     C56594   8.038   7.644   3.783  0.0021  0.3264 -0.3316
  420MOL0     O56595   8.009   7.511   3.793 -0.0231 -0.5253 -1.1653
  420MOL0     C56596   7.979   7.470   3.922  1.2137 -0.0868 -1.3467
  420MOL0     C56597   7.855   7.491   3.993  1.0000 -0.7904  0.0775
  420MOL0     C56598   7.851   7.464   4.131  0.2934  0.1597  0.5713
  420MOL0     C56599   7.947   7.416   4.210 -1.8330 -0.5677 -1.0819
  420MOL0     O56600   7.938   7.418   4.351  0.2223  0.9729  0.2652
  420MOL0     C56601   8.044   7.379   4.434 -0.9023  0.3138 -0.7555
  420MOL0     C56602   8.013   7.404   4.578  0.1058 -0.2589 -0.3179
  420MOL0     C56603   8.125   7.357   4.663 -0.3370 -0.3325  1.5597
  420MOL0     C56604   8.092   7.367   4.807  0.2423  0.0801 -0.1720
  420MOL0     C56605   8.160   7.252   4.885  0.3515  0.4886 -0.2771
  420MOL0     C56606   8.165   7.268   5.036 -0.4524  1.3739 -0.4855
  420MOL0     C56607   8.216   7.406   5.092  0.2771  0.5588 -0.0900
  420MOL0     C56608   8.214   7.398   5.251 -0.8903  0.3963 -0.0095
  420MOL0    Cl56609   8.255   7.555   5.322 -0.2868 -0.1856 -0.1502
  420MOL0     C56610   8.071   7.400   4.140  0.0218  0.3511 -0.6594
  420MOL0     C56611   8.088   7.426   4.004  0.7617 -0.2701 -0.3198
  420MOL0     O56612   8.015   7.725   3.872  0.1477 -0.4084  0.4997
  420MOL0     C56613   8.119   7.615   3.540 -0.3551 -0.5294  0.7645
  420MOL0     C56614   8.162   7.673   3.421 -0.8422 -0.3625 -0.1374
  420MOL0     N56615   8.107   7.975   2.839 -0.4651  0.2960  0.5965
  420MOL0     N56616   8.096   7.998   2.711 -0.9198 -0.2339  1.2244
  420MOL0     C56617   8.895   8.488   2.341 -0.3290 -0.7172  0.7415
  420MOL0     C56618   9.029   8.464   2.301  0.2327  0.3129 -0.3520
  420MOL0     C56619   9.408   8.367   2.105 -0.3294  0.0081  0.5080
  420MOL0     C56620   9.391   8.431   1.984 -0.1621  0.2692  0.2896
  420MOL0     C56621   9.495   8.438   1.893  0.2238 -1.1056 -0.4703
  420MOL0     C56622   9.615   8.374   1.905 -0.3912  1.2076  0.5891
  420MOL0     O56623   9.728   8.392   1.831 -0.8784  0.0909  0.7686
  420MOL0     C56624   9.710   8.431   1.692  0.0922  0.5873 -0.3307
  420MOL0     C56625   9.843   8.443   1.618 -0.5913  0.6072  0.0462
  420MOL0     C56626   9.896   8.298   1.612 -0.4046  1.0569 -0.0566
  420MOL0     C56627  10.040   8.291   1.568 -0.2165  0.6714 -0.4691
  420MOL0     C56628  10.059   8.325   1.427  0.2307 -0.4037 -1.2047
  420MOL0     C56629  10.065   8.361   1.310 -0.2009  0.3586  0.8149
  420MOL0     C56630   9.630   8.307   2.025 -0.5202 -0.5320 -0.6108
  420MOL0     C56631   9.528   8.299   2.121  0.3599 -0.5061 -0.6637
  420MOL0     C56632   9.558   8.214   2.245 -0.1410 -0.6334  0.2097
  420MOL0     H56633   8.981   8.210   2.080 -0.1753  0.1279 -0.2826
  420MOL0     H56634   8.741   8.266   2.167 -2.4763  0.1608  0.2121
  420MOL0     H56635   8.534   8.325   2.402  0.8220 -1.4369 -0.9305
  420MOL0     H56636   8.667   8.390   2.508 -1.4961  1.1999  1.9588
  420MOL0     H56637   8.584   8.607   2.479  2.0545 -1.0655  0.7930
  420MOL0     H56638   8.493   8.497   2.587 -1.1851  2.2618  0.3565
  420MOL0     H56639   8.410   8.569   2.298 -3.4974  2.0556 -0.6003
  420MOL0     H56640   8.369   8.655   2.442  2.0312  1.2944  1.2562
  420MOL0     H56641   8.325   8.362   2.400  0.2420 -0.1154  1.6932
  420MOL0     H56642   8.270   8.464   2.552 -0.5025 -0.6288 -0.4178
  420MOL0     H56643   8.075   8.541   2.442 -0.5356 -1.5268  1.7951
  420MOL0     H56644   8.153   8.498   2.285 -0.6642 -0.3899 -1.0440
  420MOL0     H56645   7.959   8.342   2.356 -0.8286 -2.9142  2.3730
  420MOL0     H56646   8.109   8.254   2.329 -2.4807 -0.5940 -2.6425
  420MOL0     H56647   8.001   8.351   2.614  0.9224  0.6796  0.7903
  420MOL0     H56648   8.151   8.279   2.572  0.5664 -0.2889 -2.2814
  420MOL0     H56649   7.872   8.147   2.513  0.5208  1.4434 -1.7789
  420MOL0     H56650   8.025   8.081   2.469  0.1695 -0.6464  1.8205
  420MOL0     H56651   7.864   8.198   2.821 -0.9287 -1.3857  0.2796
  420MOL0     H56652   8.054   8.104   3.090  0.8588 -0.9948  0.2316
  420MOL0     H56653   7.898   8.120   3.056 -0.8772  0.1861 -1.3388
  420MOL0     H56654   7.844   7.923   3.128  0.1720 -0.0496 -0.7088
  420MOL0     H56655   7.981   7.831   3.048  0.8643  0.2448  2.2804
  420MOL0     H56656   7.987   7.835   3.319  2.0652  1.0976  1.8932
  420MOL0     H56657   8.021   8.005   3.289 -1.3540 -0.1233  1.5406
  420MOL0     H56658   8.211   7.923   3.127  0.3378 -0.1667  0.3751
  420MOL0     H56659   8.158   7.753   3.168 -1.7559  0.1325  0.3269
  420MOL0     H56660   8.237   7.982   3.544  0.3857  0.5539 -1.8468
  420MOL0     H56661   8.153   7.889   3.743  0.6672  0.3714 -0.7053
  420MOL0     H56662   7.769   7.533   3.942  1.6792  0.6002  0.0593
  420MOL0     H56663   7.758   7.491   4.180 -0.5069  1.4428 -1.5177
  420MOL0     H56664   8.053   7.270   4.430 -2.9276  0.0589  0.5197
  420MOL0     H56665   8.129   7.437   4.397 -1.8873 -0.3016 -4.4026
  420MOL0     H56666   7.995   7.511   4.592  0.9745 -0.1206 -0.2078
  420MOL0     H56667   7.923   7.355   4.618 -0.6760  2.5903  1.7330
  420MOL0     H56668   8.159   7.263   4.620  1.2484  1.1638 -0.7429
  420MOL0     H56669   8.217   7.414   4.643 -0.0966 -1.2642 -0.2213
  420MOL0     H56670   7.985   7.351   4.824  0.3966 -1.4528 -0.4819
  420MOL0     H56671   8.131   7.458   4.853  0.9816 -1.6614  2.9160
  420MOL0     H56672   8.265   7.242   4.854  0.1099  1.3097 -1.4232
  420MOL0     H56673   8.113   7.156   4.861  2.8467 -0.7894 -0.4289
  420MOL0     H56674   8.062   7.257   5.071  0.5862 -1.6185  2.1560
  420MOL0     H56675   8.224   7.188   5.082 -0.7758  1.1134 -0.5169
  420MOL0     H56676   8.148   7.489   5.071 -0.0607  0.1654 -0.5516
  420MOL0     H56677   8.315   7.423   5.048 -0.5383 -3.2740 -4.0025
  420MOL0     H56678   8.115   7.371   5.288 -1.1782 -0.4054 -1.2998
  420MOL0     H56679   8.295   7.330   5.282  0.4454  2.2523  0.7526
  420MOL0     H56680   8.159   7.359   4.189  0.6238  0.2434 -1.7847
  420MOL0     H56681   8.188   7.418   3.962  1.5411  1.4839  1.0645
  420MOL0     H56682   8.083   7.513   3.528 -1.2567 -0.1345 -0.0490
  420MOL0     H56683   8.178   7.615   3.331  0.5151 -0.1347 -0.0675
  420MOL0     H56684   8.870   8.561   2.418 -0.2571  1.2550 -0.9936
  420MOL0     H56685   9.116   8.515   2.342 -0.3240  0.7571  0.3012
  420MOL0     H56686   9.299   8.477   1.952  0.2678 -0.4582 -2.1614
  420MOL0     H56687   9.471   8.503   1.809  0.3458 -0.2971  0.1111
  420MOL0     H56688   9.664   8.529   1.678 -0.9526  0.1724  0.1619
  420MOL0     H56689   9.654   8.355   1.637  2.4144  0.2635 -2.4670
  420MOL0     H56690   9.896   8.529   1.659 -1.4382  1.0880  0.1449
  420MOL0     H56691   9.823   8.465   1.513 -1.1055  1.0572  0.2349
  420MOL0     H56692   9.841   8.231   1.546  0.7497 -0.8672  0.8533
  420MOL0     H56693   9.886   8.258   1.713  0.0355  0.9318 -0.0583
  420MOL0     H56694  10.085   8.356   1.643 -2.0978  0.0506  1.2952
  420MOL0     H56695  10.076   8.188   1.576 -1.1290  0.4739  1.6448
  420MOL0     H56696  10.066   8.388   1.206 -3.5512 -0.9820  0.3190
  420MOL0     H56697   9.725   8.263   2.052 -1.3635 -1.0378  1.8077
  420MOL0     H56698   9.652   8.247   2.291 -1.4566  0.9029  1.9778
  420MOL0     H56699   9.478   8.225   2.320  0.3173  0.7329  0.5249
  420MOL0     H56700   9.563   8.107   2.224 -0.7317 -0.7888  0.8234
  421MOL0     O56701   1.984   9.911   4.403  0.4601 -0.0289 -0.2622
  421MOL0     C56702   2.009   9.982   4.304 -1.0231 -0.1225  0.3424
  421MOL0     O56703   1.939  10.095   4.259  0.4376 -0.5265  1.1820
  421MOL0     C56704   1.814  10.137   4.303  0.1374  0.7108 -0.2345
  421MOL0     C56705   1.729  10.071   4.387 -0.2423  0.0161  0.1679
  421MOL0     C56706   1.601  10.123   4.424 -1.2534 -0.0468  0.7258
  421MOL0     C56707   1.553  10.235   4.360  1.2006 -1.4689  0.4655
  421MOL0     O56708   1.413  10.264   4.357 -0.4145  0.0519 -0.5038
  421MOL0     C56709   1.321  10.142   4.372  0.3951 -0.1111 -0.4481
  421MOL0     C56710   1.171  10.179   4.331 -0.0158 -0.1934  0.2722
  421MOL0     C56711   1.119  10.280   4.436  1.4129 -0.2381  0.4760
  421MOL0     C56712   0.967  10.308   4.413  0.8527 -0.2121  0.0612
  421MOL0     C56713   0.916  10.407   4.512 -0.2347 -0.4281 -0.1723
  421MOL0     C56714   0.764  10.425   4.479 -0.7983  0.2538  0.0091
  421MOL0     C56715   0.669  10.313   4.516 -0.3012 -0.0197  0.6401
  421MOL0     C56716   0.535  10.348   4.445  0.0058 -0.2138  0.8401
  421MOL0     N56717   0.451  10.450   4.514  0.3241  0.0674  0.1388
  421MOL0     C56718   0.416  10.570   4.446  0.5487  0.6201  0.6009
  421MOL0     C56719   0.341  10.634   4.535  0.1112  0.2537  0.2056
  421MOL0     C56720   0.268  10.762   4.508  0.2190 -0.6433  0.4436
  421MOL0     C56721   0.115  10.748   4.469  0.1342  0.3194 -0.5990
  421MOL0     C56722   0.034  10.695   4.589  0.8650 -0.7454  0.0082
  421MOL0     C56723  -0.116  10.707   4.567 -0.6007  0.5369  0.3740
  421MOL0     O56724  -0.144  10.642   4.437  0.4976 -0.0141  0.0068
  421MOL0     C56725  -0.269  10.642   4.380 -0.5383 -0.8297  0.3996
  421MOL0     C56726  -0.379  10.700   4.455  1.1783 -0.1504  0.3037
  421MOL0     C56727  -0.514  10.684   4.405  0.4054  0.8521 -0.0806
  421MOL0     C56728  -0.536  10.621   4.282  0.4344  0.0287  0.5085
  421MOL0     C56729  -0.673  10.597   4.234  0.9969  1.3335 -0.9410
  421MOL0     O56730  -0.762  10.591   4.331  0.3115  0.3924  0.6526
  421MOL0     C56731  -0.901  10.608   4.308  0.8818  0.7617  0.2162
  421MOL0     C56732  -0.990  10.530   4.377 -0.9019 -0.5536  0.0568
  421MOL0     C56733  -1.132  10.542   4.362  0.0907 -0.1231 -0.6820
  421MOL0     C56734  -1.177  10.643   4.291 -0.1428 -0.5354  0.8533
  421MOL0     O56735  -1.318  10.652   4.296  0.2611 -0.6837  0.5208
  421MOL0     C56736  -1.375  10.782   4.308 -0.1226  0.4592  0.2582
  421MOL0     C56737  -1.481  10.748   4.410  0.9371 -0.0678 -0.1347
  421MOL0     C56738  -1.466  10.669   4.541 -0.4146 -0.5784 -0.7235
  421MOL0     C56739  -1.337  10.687   4.625  0.0411  1.4517 -0.2054
  421MOL0     C56740  -1.312  10.560   4.706  0.0690  0.2949  0.0965
  421MOL0     C56741  -1.197  10.599   4.789 -0.0017 -0.5185 -0.4462
  421MOL0     C56742  -1.195  10.495   4.905 -0.2060 -0.4680  0.2061
  421MOL0     C56743  -1.263  10.532   5.033  0.7837  0.0151 -0.1498
  421MOL0    Cl56744  -1.157  10.490   5.172  0.6382 -0.5126 -0.0075
  421MOL0     C56745  -1.090  10.736   4.235 -0.4183  0.1226  0.5052
  421MOL0     C56746  -0.948  10.717   4.233 -0.2161 -0.3034 -0.2302
  421MOL0     O56747  -0.697  10.590   4.112  0.3294  0.1047 -0.3437
  421MOL0     C56748  -0.432  10.571   4.204  0.0537  0.1329 -0.1243
  421MOL0     C56749  -0.296  10.584   4.254 -0.1968 -0.2635 -0.3547
  421MOL0     N56750   0.335  10.561   4.654  0.0148 -0.8188  0.2216
  421MOL0     N56751   0.412  10.453   4.647  0.0659 -0.0219  1.5730
  421MOL0     C56752   1.641  10.301   4.267  0.5517  0.2163  0.9457
  421MOL0     C56753   1.769  10.255   4.244 -0.2195  0.3777  0.3372
  421MOL0     C56754   2.139   9.969   4.254 -0.1837 -0.2302 -0.3826
  421MOL0     C56755   2.242   9.986   4.349  0.1047  0.4347  0.7144
  421MOL0     C56756   2.371   9.984   4.300  0.1877 -0.7669 -1.2762
  421MOL0     C56757   2.404   9.985   4.159  0.9644 -0.8702  0.3534
  421MOL0     O56758   2.536   9.988   4.122 -0.2678  1.2287  0.0449
  421MOL0     C56759   2.579  10.051   4.001 -0.7073  0.2782  0.1753
  421MOL0     C56760   2.721  10.115   4.032  1.2445 -0.6498  0.1763
  421MOL0     C56761   2.726  10.229   4.133  0.5194 -0.0192 -0.3113
  421MOL0     C56762   2.642  10.344   4.081 -0.4127  1.1937 -0.4839
  421MOL0     C56763   2.719  10.475   4.097 -0.3216  0.4841 -0.1812
  421MOL0     C56764   2.782  10.584   4.108 -1.3401  0.2974  0.7236
  421MOL0     C56765   2.299   9.973   4.067  0.2666  0.8104  0.0125
  421MOL0     C56766   2.169   9.953   4.117  0.2565  0.0631 -0.1557
  421MOL0     C56767   2.060   9.927   4.013  0.5970 -1.0007  0.2398
  421MOL0     H56768   1.757   9.974   4.426  1.0177 -0.5878 -2.0749
  421MOL0     H56769   1.534  10.076   4.496 -2.7913 -1.2321 -1.3558
  421MOL0     H56770   1.355  10.052   4.320  2.9856 -1.3373  2.9511
  421MOL0     H56771   1.322  10.104   4.475 -3.2023 -0.0550 -0.2727
  421MOL0     H56772   1.115  10.085   4.326  0.7645 -0.6922  0.6675
  421MOL0     H56773   1.171  10.230   4.235 -0.8040  0.8188  0.7893
  421MOL0     H56774   1.176  10.372   4.424 -1.8570  2.1980  2.1099
  421MOL0     H56775   1.133  10.247   4.540  0.8640 -0.6533  0.4204
  421MOL0     H56776   0.941  10.340   4.311  1.0936 -2.2182 -0.6742
  421MOL0     H56777   0.916  10.213   4.430 -0.4071  0.2369 -1.0656
  421MOL0     H56778   0.939  10.383   4.616  0.6414  0.9689 -0.0244
  421MOL0     H56779   0.956  10.500   4.471 -2.7717  1.2808  1.0368
  421MOL0     H56780   0.728  10.514   4.532  1.7250  1.3601  0.0370
  421MOL0     H56781   0.769  10.443   4.371  2.2944  0.0389  0.0272
  421MOL0     H56782   0.662  10.315   4.626  1.7306 -0.1845  0.7977
  421MOL0     H56783   0.704  10.215   4.485 -0.1977  0.4588 -0.8458
  421MOL0     H56784   0.557  10.366   4.339  2.2284 -1.1665  1.0783
  421MOL0     H56785   0.475  10.256   4.442 -0.7250 -0.1231  5.3309
  421MOL0     H56786   0.434  10.596   4.342 -0.0804 -0.2272  0.2604
  421MOL0     H56787   0.273  10.837   4.588 -1.5579  0.1507 -0.1299
  421MOL0     H56788   0.318  10.820   4.430  0.6465 -1.4922  0.0699
  421MOL0     H56789   0.067  10.842   4.442  0.1227 -0.5180 -3.8805
  421MOL0     H56790   0.122  10.685   4.379  0.8619 -1.5590  0.6951
  421MOL0     H56791   0.058  10.760   4.673 -2.1042  0.8643 -0.2861
  421MOL0     H56792   0.065  10.593   4.614  3.3057  0.0407  0.5209
  421MOL0     H56793  -0.144  10.813   4.564 -3.1797 -0.0175  2.1446
  421MOL0     H56794  -0.165  10.654   4.649 -0.2345  1.9284  1.5311
  421MOL0     H56795  -0.373  10.739   4.556  0.5789 -0.4172  0.4455
  421MOL0     H56796  -0.602  10.709   4.463  0.3359  0.1781  0.1182
  421MOL0     H56797  -0.941  10.444   4.421  1.3688  0.2933 -0.6818
  421MOL0     H56798  -1.210  10.478   4.402  0.6148 -0.3827 -0.0662
  421MOL0     H56799  -1.319  10.860   4.360  0.3546  0.0539  0.3655
  421MOL0     H56800  -1.423  10.825   4.219  0.1900  1.1232  0.4081
  421MOL0     H56801  -1.515  10.846   4.447  1.9734  1.1511 -2.1836
  421MOL0     H56802  -1.552  10.694   4.346  1.2835  0.7082 -1.2056
  421MOL0     H56803  -1.557  10.683   4.600 -0.5434  2.2229 -1.4302
  421MOL0     H56804  -1.464  10.565   4.510 -1.1402 -0.6817 -0.4370
  421MOL0     H56805  -1.351  10.773   4.690 -6.0435  2.6949 -2.5156
  421MOL0     H56806  -1.257  10.706   4.552  0.3967 -0.5099 -0.3979
  421MOL0     H56807  -1.274  10.478   4.644  2.2824  0.8721  0.6030
  421MOL0     H56808  -1.394  10.528   4.771 -1.0301  1.6096 -0.5880
  421MOL0     H56809  -1.111  10.593   4.722 -0.4348  2.9357 -1.4898
  421MOL0     H56810  -1.207  10.698   4.835 -0.1789 -1.3689  1.4466
  421MOL0     H56811  -1.089  10.486   4.926 -0.5810 -0.6826  2.2103
  421MOL0     H56812  -1.223  10.397   4.866 -1.0495  0.8082 -2.6322
  421MOL0     H56813  -1.277  10.640   5.040  0.9249 -0.0176  0.6924
  421MOL0     H56814  -1.358  10.479   5.044  1.2608 -0.3171  3.5795
  421MOL0     H56815  -1.124  10.823   4.180  0.2630  1.4614  2.1142
  421MOL0     H56816  -0.883  10.781   4.174  1.3429 -0.1047  1.5971
  421MOL0     H56817  -0.452  10.531   4.105 -1.8287  1.3260 -0.2676
  421MOL0     H56818  -0.209  10.543   4.204  0.5117 -0.0999  0.7083
  421MOL0     H56819   1.609  10.381   4.201 -0.2257  0.1171  1.1910
  421MOL0     H56820   1.822  10.305   4.164 -5.1631  1.3354 -2.7304
  421MOL0     H56821   2.215   9.978   4.454 -1.8120 -1.1542  0.1423
  421MOL0     H56822   2.457   9.971   4.365  1.6321 -0.3546 -3.0234
  421MOL0     H56823   2.502  10.124   3.978 -2.6732 -1.2950  1.4644
  421MOL0     H56824   2.590   9.977   3.921 -3.3343  2.5051 -2.4377
  421MOL0     H56825   2.761  10.155   3.939 -1.4976 -0.2527 -0.9318
  421MOL0     H56826   2.785  10.030   4.059  2.2072 -0.4732 -1.4424
  421MOL0     H56827   2.831  10.254   4.144  0.0174  1.5963  1.2811
  421MOL0     H56828   2.685  10.186   4.225  0.5233 -2.1253 -1.2194
  421MOL0     H56829   2.628  10.322   3.975  0.3570 -0.5901 -0.2409
  421MOL0     H56830   2.552  10.355   4.143 -1.1202  1.8710 -1.6058
  421MOL0     H56831   2.846  10.669   4.109 -1.3740  0.3293  0.3189
  421MOL0     H56832   2.322   9.971   3.961  3.5053 -0.6057  0.6288
  421MOL0     H56833   2.030  10.025   3.973  1.2881 -0.8651  0.0354
  421MOL0     H56834   2.095   9.880   3.921 -1.5266  0.7634 -1.5940
  421MOL0     H56835   1.970   9.886   4.061 -0.5893 -0.1342 -1.1518
  422MOL0     O56836   9.550   9.198   5.731 -0.4105  0.2067 -0.2581
  422MOL0     C56837   9.616   9.229   5.631 -0.2748  0.6877 -0.4451
  422MOL0     O56838   9.751   9.198   5.615  0.4846 -0.3317 -0.0522
  422MOL0     C56839   9.833   9.153   5.717  0.3187 -0.4058 -0.1119
  422MOL0     C56840   9.812   9.194   5.849 -0.3469  0.2903  0.5986
  422MOL0     C56841   9.895   9.138   5.951 -0.0904  0.8095 -0.4789
  422MOL0     C56842   9.987   9.034   5.930 -1.2430 -0.8316 -0.6184
  422MOL0     O56843  10.057   8.969   6.031  0.0151 -0.7198 -0.1891
  422MOL0     C56844  10.078   9.033   6.160  0.1762  0.0431  0.7119
  422MOL0     C56845  10.216   9.011   6.216  0.6494  0.2360 -0.3345
  422MOL0     C56846  10.249   8.863   6.234  0.6313  0.0842  0.1780
  422MOL0     C56847  10.405   8.860   6.246  0.0427  0.9159  0.3074
  422MOL0     C56848  10.445   8.716   6.241 -0.6969 -0.0499 -1.3125
  422MOL0     C56849  10.596   8.688   6.228 -0.0395  0.0667  0.3711
  422MOL0     C56850  10.634   8.558   6.292 -1.2383  0.8085  0.2262
  422MOL0     C56851  10.790   8.551   6.267 -1.1218 -0.3322 -0.0135
  422MOL0     N56852  10.839   8.407   6.289  0.7623 -0.4916 -0.3737
  422MOL0     C56853  10.890   8.363   6.413  0.3816 -0.1166  1.1826
  422MOL0     C56854  10.907   8.230   6.398  1.0503 -0.6007  0.1130
  422MOL0     C56855  10.943   8.136   6.504  0.4240 -0.6061 -0.1317
  422MOL0     C56856  11.087   8.160   6.553 -0.2491  0.3813  0.8198
  422MOL0     C56857  11.129   8.060   6.673 -0.3935 -0.2081 -0.0738
  422MOL0     C56858  11.273   8.014   6.674 -0.0774  0.0881 -0.1144
  422MOL0     O56859  11.278   7.900   6.751 -0.4946  0.2204  0.5109
  422MOL0     C56860  11.333   7.905   6.877 -0.1584 -0.5980 -0.0231
  422MOL0     C56861  11.352   8.025   6.950  0.0551  0.6663  1.3324
  422MOL0     C56862  11.419   8.011   7.071  0.7149 -0.0191  0.5299
  422MOL0     C56863  11.476   7.895   7.114  0.6781 -0.5139 -0.3538
  422MOL0     C56864  11.581   7.903   7.221  0.3958  0.9228 -0.2022
  422MOL0     O56865  11.590   7.781   7.284  0.4525 -0.3122  0.1337
  422MOL0     C56866  11.669   7.751   7.395 -0.6194 -0.7338  0.2030
  422MOL0     C56867  11.792   7.812   7.406  0.1163 -1.0502 -0.6691
  422MOL0     C56868  11.867   7.801   7.525 -0.2925  0.6648  0.3187
  422MOL0     C56869  11.812   7.745   7.634 -0.1606  0.0858 -0.9546
  422MOL0     O56870  11.865   7.740   7.763 -0.5883  0.1201  0.2218
  422MOL0     C56871  11.965   7.833   7.783 -0.0851 -0.1656  0.3825
  422MOL0     C56872  12.023   7.830   7.925  0.2894 -0.3526 -0.5194
  422MOL0     C56873  12.131   7.727   7.931 -0.1122  0.0151  0.7391
  422MOL0     C56874  12.220   7.738   8.060  0.9784  0.6013 -0.2450
  422MOL0     C56875  12.308   7.602   8.065 -0.0419  0.1295 -1.2625
  422MOL0     C56876  12.398   7.610   8.189  0.1750 -0.6334  0.3418
  422MOL0     C56877  12.489   7.488   8.189 -0.1414  0.3426 -0.0620
  422MOL0     C56878  12.588   7.475   8.306  0.4537  1.3308  0.3873
  422MOL0    Cl56879  12.694   7.328   8.309 -0.0190  0.7411 -0.0567
  422MOL0     C56880  11.687   7.690   7.634  0.1715  0.5554 -1.0360
  422MOL0     C56881  11.614   7.690   7.516  0.1734 -0.3809 -0.6694
  422MOL0     O56882  11.642   8.010   7.241 -0.1676 -0.4221  0.3000
  422MOL0     C56883  11.445   7.778   7.049  0.6106  0.4485 -1.0143
  422MOL0     C56884  11.368   7.779   6.941  0.8553  0.6863  0.4704
  422MOL0     N56885  10.867   8.198   6.269  0.3269  0.0518  0.2884
  422MOL0     N56886  10.843   8.302   6.203 -1.4936 -0.2535 -0.5190
  422MOL0     C56887  10.014   9.005   5.796  1.0684 -0.0811  0.4932
  422MOL0     C56888   9.937   9.054   5.690 -0.4262 -1.3536  0.0415
  422MOL0     C56889   9.530   9.291   5.523 -0.4218  1.0371 -0.5066
  422MOL0     C56890   9.564   9.269   5.387 -0.4833 -0.0885 -0.5319
  422MOL0     C56891   9.496   9.317   5.278 -0.4570  0.7801  0.4223
  422MOL0     C56892   9.373   9.376   5.297 -0.4484  0.1543  0.5812
  422MOL0     O56893   9.289   9.399   5.188  0.0215 -0.0677  0.1788
  422MOL0     C56894   9.187   9.497   5.202  0.5514  0.4729 -0.1226
  422MOL0     C56895   9.139   9.541   5.061  0.2902  0.3904 -0.3710
  422MOL0     C56896   9.083   9.423   4.975  0.0283  0.0318  0.1835
  422MOL0     C56897   9.067   9.462   4.824  0.3093  0.2830  1.1046
  422MOL0     C56898   8.950   9.546   4.805 -0.6130  0.4020  0.3644
  422MOL0     C56899   8.844   9.600   4.788 -0.3536  0.1096  0.3075
  422MOL0     C56900   9.334   9.403   5.436  0.1689  0.4835  0.7434
  422MOL0     C56901   9.411   9.365   5.547 -0.0009 -0.5207  0.1708
  422MOL0     C56902   9.353   9.389   5.687  0.8454  0.4762 -0.5715
  422MOL0     H56903   9.741   9.273   5.873  2.2503  1.9816  3.4439
  422MOL0     H56904   9.878   9.167   6.055 -1.0147 -2.6352  0.4444
  422MOL0     H56905  10.062   9.141   6.157 -1.3230 -0.0694  2.7638
  422MOL0     H56906  10.006   8.981   6.224  1.7527 -2.6128  0.4905
  422MOL0     H56907  10.225   9.057   6.314  4.7965  0.4351 -0.6361
  422MOL0     H56908  10.295   9.053   6.154 -0.1362  2.1605 -0.1140
  422MOL0     H56909  10.203   8.803   6.155 -0.0252 -0.0826  0.6752
  422MOL0     H56910  10.214   8.830   6.333  0.3761  1.8640  0.7083
  422MOL0     H56911  10.465   8.906   6.167  2.5441 -0.9249  1.0041
  422MOL0     H56912  10.447   8.892   6.341  3.6933 -0.5127 -0.6242
  422MOL0     H56913  10.410   8.683   6.339  0.9506  1.1189 -0.2853
  422MOL0     H56914  10.389   8.659   6.166 -2.3365 -1.5793  0.9222
  422MOL0     H56915  10.602   8.685   6.118 -3.7391 -0.3926  0.0571
  422MOL0     H56916  10.663   8.767   6.262  0.3967 -0.6576  1.2533
  422MOL0     H56917  10.577   8.473   6.253  0.1738  0.2227 -0.6659
  422MOL0     H56918  10.623   8.547   6.400  0.4650 -1.9546  0.2247
  422MOL0     H56919  10.811   8.585   6.165 -2.3932 -0.0687 -0.1992
  422MOL0     H56920  10.844   8.617   6.336  1.9066 -1.5200 -1.0793
  422MOL0     H56921  10.932   8.407   6.503  4.7804  1.0959 -1.1526
  422MOL0     H56922  10.876   8.134   6.591 -1.5915  2.5234 -1.4188
  422MOL0     H56923  10.922   8.035   6.467 -2.5527  0.0611 -0.5539
  422MOL0     H56924  11.151   8.149   6.465 -0.8479  3.8881 -0.1666
  422MOL0     H56925  11.104   8.261   6.591 -0.9043  1.0117 -0.5239
  422MOL0     H56926  11.058   7.976   6.668 -2.1410  1.2687 -2.9070
  422MOL0     H56927  11.115   8.105   6.772  1.8733 -1.2994  0.7983
  422MOL0     H56928  11.342   8.092   6.707 -1.1970 -0.0430  2.8293
  422MOL0     H56929  11.306   7.970   6.579  2.2736 -2.7689  1.8305
  422MOL0     H56930  11.337   8.128   6.919  3.7800  1.1190  0.4877
  422MOL0     H56931  11.422   8.097   7.138 -0.5727  1.3010 -1.0271
  422MOL0     H56932  11.825   7.852   7.311 -2.9191  2.0280 -0.6084
  422MOL0     H56933  11.969   7.840   7.524 -0.2488  0.5820 -1.2883
  422MOL0     H56934  12.049   7.806   7.719  1.1375 -0.4194  2.0352
  422MOL0     H56935  11.928   7.934   7.762  2.1017  0.2044 -2.1841
  422MOL0     H56936  12.055   7.933   7.946 -0.4893 -0.5973  2.2447
  422MOL0     H56937  11.938   7.809   7.991 -0.5101  1.4127 -0.9211
  422MOL0     H56938  12.089   7.626   7.930  2.6076 -1.2065  1.0082
  422MOL0     H56939  12.191   7.740   7.841 -2.3290  2.6600 -0.5182
  422MOL0     H56940  12.168   7.744   8.156  0.1082  2.5358 -0.8080
  422MOL0     H56941  12.277   7.830   8.044  2.3422 -0.3018 -0.7639
  422MOL0     H56942  12.360   7.585   7.971 -1.3768  3.3470 -2.7604
  422MOL0     H56943  12.248   7.515   8.094  0.2897  1.3624  4.3598
  422MOL0     H56944  12.458   7.699   8.168 -0.1271 -0.1635  1.4160
  422MOL0     H56945  12.366   7.618   8.294  1.2136  1.0086  0.5818
  422MOL0     H56946  12.535   7.479   8.090  1.8712 -0.8085  0.9102
  422MOL0     H56947  12.430   7.396   8.184  1.5198 -0.7946  0.3929
  422MOL0     H56948  12.658   7.558   8.302  1.5820  0.3526 -1.8837
  422MOL0     H56949  12.526   7.470   8.397 -1.3419 -1.4796 -0.8422
  422MOL0     H56950  11.639   7.653   7.724 -0.3027  0.3242 -1.3756
  422MOL0     H56951  11.512   7.656   7.504 -0.8270  1.7495  1.1595
  422MOL0     H56952  11.496   7.686   7.078 -0.1978  0.0844 -0.7084
  422MOL0     H56953  11.348   7.689   6.885  4.3998 -0.6880  1.1109
  422MOL0     H56954  10.103   8.943   5.788  0.9117 -0.3045  0.4626
  422MOL0     H56955   9.963   9.020   5.591 -1.3475 -2.3187  0.1199
  422MOL0     H56956   9.647   9.202   5.365  0.1042  0.6567 -0.6070
  422MOL0     H56957   9.535   9.291   5.181 -1.1680  0.6413  0.1651
  422MOL0     H56958   9.227   9.575   5.267  0.2499 -1.1455  2.1166
  422MOL0     H56959   9.099   9.464   5.257  1.7484  1.4280  2.5480
  422MOL0     H56960   9.232   9.584   5.023  0.3227  2.3535  1.7179
  422MOL0     H56961   9.073   9.628   5.066 -0.4640 -0.2186  2.8595
  422MOL0     H56962   8.985   9.389   5.009  0.1826  0.8670  1.5444
  422MOL0     H56963   9.162   9.348   4.977  1.3172  1.2991 -0.7171
  422MOL0     H56964   9.156   9.514   4.788 -1.4498  1.9346 -1.0889
  422MOL0     H56965   9.050   9.364   4.778  0.1029 -0.7346  3.1952
  422MOL0     H56966   8.756   9.660   4.773 -0.7541 -1.0137 -2.4852
  422MOL0     H56967   9.232   9.433   5.460 -0.4057 -0.1217 -0.8066
  422MOL0     H56968   9.414   9.472   5.724  2.3276  0.0407 -1.9362
  422MOL0     H56969   9.248   9.420   5.681 -0.1438 -2.3623  0.6285
  422MOL0     H56970   9.354   9.298   5.747 -3.9404  0.8518  0.5015
  423MOL0     O56971  10.787   4.116   5.070  0.3722  0.6324 -0.0062
  423MOL0     C56972  10.670   4.132   5.052  0.5109  0.9245  0.4706
  423MOL0     O56973  10.578   4.030   5.022 -0.2044  0.0940 -0.8793
  423MOL0     C56974  10.599   3.895   5.016 -0.3896 -0.2119  0.2392
  423MOL0     C56975  10.480   3.819   5.015 -0.6877  0.8422  0.2652
  423MOL0     C56976  10.493   3.681   5.015  0.7885  0.4238  0.1986
  423MOL0     C56977  10.624   3.618   5.019 -0.5582 -0.9062  0.8466
  423MOL0     O56978  10.618   3.484   5.009  0.2255 -0.2997  0.1090
  423MOL0     C56979  10.734   3.403   5.030 -0.2425  0.1444 -0.3681
  423MOL0     C56980  10.786   3.413   5.181  1.3115 -0.0274  0.2728
  423MOL0     C56981  10.896   3.304   5.202  0.0982  0.8245 -0.2309
  423MOL0     C56982  10.896   3.257   5.345 -0.7180 -0.3834 -0.5322
  423MOL0     C56983  10.979   3.133   5.351 -0.0143  0.9669  0.1359
  423MOL0     C56984  11.004   3.101   5.503  0.1842 -0.4782 -0.6579
  423MOL0     C56985  11.121   3.018   5.550 -0.2286 -0.3125  0.5803
  423MOL0     C56986  11.132   2.875   5.497  0.0822 -0.4767  0.3334
  423MOL0     N56987  11.032   2.785   5.545 -0.5808 -0.0265 -0.5869
  423MOL0     C56988  10.910   2.753   5.487  0.2791 -0.0441  0.0063
  423MOL0     C56989  10.859   2.663   5.586 -0.1816  0.0570 -0.0547
  423MOL0     C56990  10.738   2.589   5.543 -0.1292  0.3428 -0.5763
  423MOL0     C56991  10.681   2.501   5.655  0.2518 -0.2196 -0.7658
  423MOL0     C56992  10.550   2.432   5.611  0.0095  0.4861 -1.4180
  423MOL0     C56993  10.451   2.510   5.525 -0.0811  0.1867  0.1488
  423MOL0     O56994  10.406   2.608   5.616  0.5331 -0.0505  1.0993
  423MOL0     C56995  10.295   2.683   5.602 -0.1551 -0.3164  0.2190
  423MOL0     C56996  10.196   2.663   5.508 -0.3866  0.0271 -0.5265
  423MOL0     C56997  10.099   2.758   5.493 -0.2186 -1.2558  0.5309
  423MOL0     C56998  10.095   2.891   5.552 -0.3653  0.0786  0.3904
  423MOL0     C56999  10.005   3.003   5.513  0.5109 -0.0367  0.2405
  423MOL0     O57000  10.027   3.126   5.561  0.4931  0.4164 -0.2303
  423MOL0     C57001   9.941   3.226   5.547 -1.1816 -0.3551  0.4026
  423MOL0     C57002  10.002   3.349   5.569  0.2516  0.9110 -0.1980
  423MOL0     C57003   9.927   3.465   5.579  0.2891 -0.2660  0.3120
  423MOL0     C57004   9.785   3.454   5.583 -0.0355 -1.6562 -0.4079
  423MOL0     O57005   9.691   3.555   5.592 -0.6992  0.3915  0.3826
  423MOL0     C57006   9.736   3.689   5.623 -0.2095 -0.2255  0.2301
  423MOL0     C57007   9.604   3.758   5.682 -0.1617  0.3230  0.1330
  423MOL0     C57008   9.639   3.901   5.729  0.2535  0.4236  0.4843
  423MOL0     C57009   9.516   3.965   5.785  0.2868 -0.2542  0.4716
  423MOL0     C57010   9.536   4.100   5.858 -0.6324  0.7766  0.4543
  423MOL0     C57011   9.408   4.156   5.906 -0.0369 -0.1935  0.7045
  423MOL0     C57012   9.319   4.203   5.792 -0.5710  0.7814  0.2502
  423MOL0     C57013   9.204   4.292   5.826 -0.3885 -0.5146 -0.7186
  423MOL0    Cl57014   9.112   4.245   5.978  0.1856 -0.1952 -0.3223
  423MOL0     C57015   9.727   3.324   5.573 -0.6424 -0.2865  1.2972
  423MOL0     C57016   9.805   3.211   5.551  0.0375  0.0549 -0.0892
  423MOL0     O57017   9.924   2.976   5.422  0.4567 -0.1601 -1.4632
  423MOL0     C57018  10.197   2.910   5.648 -0.5336  1.0422 -0.1654
  423MOL0     C57019  10.296   2.806   5.674  0.4687 -0.5301  0.7134
  423MOL0     N57020  10.946   2.641   5.692  0.3835  0.2299 -0.0536
  423MOL0     N57021  11.055   2.709   5.654  0.7184  0.4437  0.6545
  423MOL0     C57022  10.732   3.701   5.021  0.1045 -0.3728  1.1199
  423MOL0     C57023  10.724   3.838   5.012 -0.4785  0.0614 -0.0875
  423MOL0     C57024  10.610   4.268   5.064 -0.6034 -0.0931  0.0889
  423MOL0     C57025  10.647   4.348   5.174  0.0247  0.3721  0.4311
  423MOL0     C57026  10.602   4.480   5.171  0.6193 -0.6710 -0.8493
  423MOL0     C57027  10.507   4.529   5.079 -1.2744 -0.5707 -0.4009
  423MOL0     O57028  10.488   4.665   5.070  0.7390 -0.2153 -0.0194
  423MOL0     C57029  10.554   4.757   5.162 -0.4897 -1.3143 -0.4838
  423MOL0     C57030  10.501   4.897   5.123 -1.0139  0.6891  0.1320
  423MOL0     C57031  10.345   4.917   5.141 -0.2399  0.3657 -0.0498
  423MOL0     C57032  10.300   5.055   5.113  1.0534 -0.3378 -0.7785
  423MOL0     C57033  10.330   5.107   4.980  0.1581  0.4682  0.2199
  423MOL0     C57034  10.375   5.142   4.872 -0.4742  0.1743 -0.6679
  423MOL0     C57035  10.486   4.453   4.963 -0.6058  0.2516  0.0422
  423MOL0     C57036  10.528   4.320   4.953 -0.5507  0.9389  0.4178
  423MOL0     C57037  10.464   4.247   4.835  0.0227 -0.1587 -0.7675
  423MOL0     H57038  10.383   3.868   5.000 -0.8021  0.9696  1.3858
  423MOL0     H57039  10.419   3.601   5.014 -0.6531  1.7040  0.9696
  423MOL0     H57040  10.704   3.300   5.010 -1.8160  0.4655  0.1451
  423MOL0     H57041  10.814   3.424   4.959  0.7587  1.7302  1.1370
  423MOL0     H57042  10.702   3.370   5.235  2.4525 -2.9766 -0.1193
  423MOL0     H57043  10.817   3.512   5.217  0.5687  0.1951  0.3192
  423MOL0     H57044  10.991   3.347   5.170  0.7857 -1.4988 -1.6131
  423MOL0     H57045  10.891   3.226   5.125  1.2687 -0.1224  0.6129
  423MOL0     H57046  10.940   3.337   5.405 -3.5661  1.5929 -0.9035
  423MOL0     H57047  10.794   3.248   5.384 -0.0956 -1.4949  0.9545
  423MOL0     H57048  10.927   3.041   5.324  2.4569 -1.4110  2.8123
  423MOL0     H57049  11.073   3.139   5.295  0.0524 -0.3956  0.0623
  423MOL0     H57050  11.011   3.195   5.559 -1.1617 -1.0800  0.5943
  423MOL0     H57051  10.912   3.053   5.539 -0.2865 -0.7842 -2.1980
  423MOL0     H57052  11.131   3.014   5.659  1.2661 -0.4485  0.4557
  423MOL0     H57053  11.205   3.075   5.509  0.2063 -1.3260  0.0098
  423MOL0     H57054  11.136   2.858   5.389  2.5038 -0.7032  0.4164
  423MOL0     H57055  11.225   2.853   5.550  0.5205  1.6755  0.5478
  423MOL0     H57056  10.873   2.786   5.391  0.9359  2.5970  0.5883
  423MOL0     H57057  10.667   2.668   5.517  0.3035  0.8260 -0.3130
  423MOL0     H57058  10.775   2.538   5.454  1.4299  1.3205 -0.5329
  423MOL0     H57059  10.760   2.435   5.693  0.7827  2.1143  2.7451
  423MOL0     H57060  10.667   2.568   5.741 -1.4883  0.2722 -1.4093
  423MOL0     H57061  10.496   2.396   5.698  1.1739  2.2247  0.0871
  423MOL0     H57062  10.566   2.340   5.552 -3.2044 -1.0143 -0.1668
  423MOL0     H57063  10.380   2.433   5.495  0.1355  0.0628 -0.0432
  423MOL0     H57064  10.491   2.566   5.440 -0.5428  0.4542  0.1060
  423MOL0     H57065  10.189   2.559   5.476  0.1584  0.3807 -1.8692
  423MOL0     H57066  10.017   2.743   5.424  0.4269  2.5271 -1.3166
  423MOL0     H57067  10.109   3.352   5.587  0.6170 -2.4268 -1.1805
  423MOL0     H57068   9.965   3.565   5.598  2.7255 -0.8015 -1.3101
  423MOL0     H57069   9.820   3.688   5.693 -0.0936  4.8011  0.4944
  423MOL0     H57070   9.786   3.750   5.547  4.8303 -1.2743  2.3130
  423MOL0     H57071   9.523   3.765   5.609 -0.2517  1.9690  0.3490
  423MOL0     H57072   9.563   3.691   5.759  2.6223 -0.4091  1.0999
  423MOL0     H57073   9.709   3.889   5.813 -1.3921  0.3033  1.8756
  423MOL0     H57074   9.684   3.969   5.656 -1.0692  0.2048 -0.5650
  423MOL0     H57075   9.475   3.893   5.856  2.8697 -1.3775  0.9614
  423MOL0     H57076   9.440   3.976   5.708  1.3474  0.4795 -0.5071
  423MOL0     H57077   9.591   4.170   5.794  3.3354 -0.1148  2.5607
  423MOL0     H57078   9.597   4.083   5.947  0.8949 -0.2098 -0.7445
  423MOL0     H57079   9.364   4.079   5.969 -1.2930 -0.8155 -0.8694
  423MOL0     H57080   9.418   4.243   5.972  2.2135 -1.1610  1.7170
  423MOL0     H57081   9.282   4.114   5.740  0.9822 -0.3427  0.9876
  423MOL0     H57082   9.372   4.266   5.720 -1.4838  0.9108 -0.3270
  423MOL0     H57083   9.235   4.396   5.837 -0.7912 -0.1978 -2.2320
  423MOL0     H57084   9.136   4.308   5.741 -1.1852  1.1141  0.1843
  423MOL0     H57085   9.621   3.303   5.564 -1.1535  2.3737 -0.0274
  423MOL0     H57086   9.750   3.118   5.543  2.0647 -1.0408 -5.0667
  423MOL0     H57087  10.218   3.008   5.690  0.7215  0.5042  0.5501
  423MOL0     H57088  10.375   2.836   5.741  1.2440 -0.6773 -0.1119
  423MOL0     H57089  10.837   3.675   5.033  2.0374  3.0106 -4.3590
  423MOL0     H57090  10.815   3.896   5.024 -2.4733  2.7608  4.6850
  423MOL0     H57091  10.711   4.316   5.256  1.1007  2.5066  0.4853
  423MOL0     H57092  10.639   4.546   5.248  1.4448 -2.3493  0.2526
  423MOL0     H57093  10.662   4.766   5.144 -0.3402  2.2615  1.2763
  423MOL0     H57094  10.536   4.744   5.269  2.7520 -0.9666  0.2178
  423MOL0     H57095  10.546   4.916   5.025 -0.0964 -0.2783  0.3522
  423MOL0     H57096  10.545   4.975   5.186 -0.3453  0.6750 -0.3120
  423MOL0     H57097  10.312   4.885   5.240  3.0772 -1.4588  0.6072
  423MOL0     H57098  10.297   4.855   5.065 -0.4521 -1.0616  1.2014
  423MOL0     H57099  10.190   5.053   5.120  0.9858  1.4196 -0.7318
  423MOL0     H57100  10.351   5.114   5.190  0.0181 -1.0134  0.4857
  423MOL0     H57101  10.404   5.164   4.772  0.0407  4.2279  0.1856
  423MOL0     H57102  10.425   4.498   4.886  0.8244 -2.9660 -3.2336
  423MOL0     H57103  10.429   4.319   4.760 -1.6334 -1.7218 -1.5731
  423MOL0     H57104  10.523   4.163   4.798 -1.0278 -2.4033  2.2471
  423MOL0     H57105  10.370   4.207   4.874 -0.0148  0.3102 -0.3681
  424MOL0     O57106  10.857   3.108   4.578  0.4401  0.4162  0.1792
  424MOL0     C57107  10.767   3.153   4.644  1.1823 -0.2790 -1.1991
  424MOL0     O57108  10.706   3.097   4.760  0.0005  0.1036  0.7290
  424MOL0     C57109  10.740   2.971   4.797  0.4945 -1.2117  1.0286
  424MOL0     C57110  10.787   2.951   4.925 -0.2149 -0.6873 -0.1816
  424MOL0     C57111  10.810   2.826   4.978 -0.2359  0.7186  0.1966
  424MOL0     C57112  10.777   2.711   4.902 -1.2168  0.7234 -1.4157
  424MOL0     O57113  10.794   2.580   4.951 -0.0043 -0.8369  0.5695
  424MOL0     C57114  10.819   2.551   5.088 -0.2627 -0.3098 -0.0057
  424MOL0     C57115  10.789   2.408   5.100  0.1952 -0.2379 -0.9350
  424MOL0     C57116  10.633   2.375   5.083 -0.2348  0.4543  0.6506
  424MOL0     C57117  10.580   2.228   5.107  0.2348  0.9481 -0.3518
  424MOL0     C57118  10.426   2.235   5.093 -0.5116 -0.4411 -0.0582
  424MOL0     C57119  10.332   2.127   5.162  0.1996  0.6210 -0.0048
  424MOL0     C57120  10.189   2.156   5.139 -0.5549  0.0670 -1.2855
  424MOL0     C57121  10.149   2.136   4.987  0.8586  0.1246  0.0490
  424MOL0     N57122  10.007   2.087   5.009 -0.0748  0.1883  0.4693
  424MOL0     C57123   9.959   1.955   4.998  1.3470  0.3112  0.6891
  424MOL0     C57124   9.837   1.955   5.053  0.4223 -0.4489  0.4701
  424MOL0     C57125   9.747   1.837   5.052  0.7349 -0.4676  0.1657
  424MOL0     C57126   9.811   1.704   5.106  0.9649  0.6863  0.4008
  424MOL0     C57127   9.695   1.599   5.092 -0.6851 -0.2858 -0.0498
  424MOL0     C57128   9.558   1.643   5.153  0.1729 -0.3157 -0.5820
  424MOL0     O57129   9.475   1.534   5.177  0.0521  0.3266 -0.6134
  424MOL0     C57130   9.344   1.546   5.211  0.9399  0.2196  0.2345
  424MOL0     C57131   9.267   1.661   5.205  0.4171  0.1929 -0.1219
  424MOL0     C57132   9.135   1.663   5.262 -1.1326  0.5322 -0.1196
  424MOL0     C57133   9.084   1.540   5.307  0.1406  0.7671 -0.0169
  424MOL0     C57134   8.939   1.542   5.361 -0.3533 -0.2799  0.9063
  424MOL0     O57135   8.877   1.662   5.367  0.8557 -0.0288  0.0741
  424MOL0     C57136   8.748   1.663   5.411  0.7522  0.7935 -0.2007
  424MOL0     C57137   8.635   1.661   5.325 -0.6180  0.5005  0.3954
  424MOL0     C57138   8.494   1.659   5.360 -0.1085 -0.9965 -0.0372
  424MOL0     C57139   8.478   1.682   5.503 -0.1689 -0.2614 -0.7498
  424MOL0     O57140   8.346   1.673   5.548 -0.0450  0.0800  0.0715
  424MOL0     C57141   8.310   1.761   5.651  0.0255  0.6593 -0.2894
  424MOL0     C57142   8.169   1.766   5.670  0.7653 -0.2637  1.3313
  424MOL0     C57143   8.097   1.632   5.700 -0.2476  0.6543 -0.1361
  424MOL0     C57144   7.950   1.653   5.735 -0.2943  0.1812 -1.6172
  424MOL0     C57145   7.936   1.707   5.876  0.7181 -0.2710 -0.2140
  424MOL0     C57146   7.798   1.661   5.938 -0.0011 -0.7338 -0.0254
  424MOL0     C57147   7.680   1.671   5.842  0.2436  0.0485  0.8992
  424MOL0     C57148   7.547   1.658   5.915 -0.3716  0.8010  1.0280
  424MOL0    Cl57149   7.519   1.793   6.026 -0.2606 -0.3292  0.2722
  424MOL0     C57150   8.584   1.682   5.594 -0.8645 -0.2792  0.3005
  424MOL0     C57151   8.718   1.679   5.547 -0.0318  0.0542 -0.4977
  424MOL0     O57152   8.883   1.434   5.387  0.1048  0.4121  0.0569
  424MOL0     C57153   9.162   1.422   5.301 -0.8083 -0.4715 -0.2051
  424MOL0     C57154   9.293   1.435   5.261  0.0242 -0.2314 -0.1836
  424MOL0     N57155   9.797   2.081   5.082  0.3426 -0.4136  0.4439
  424MOL0     N57156   9.900   2.156   5.051 -0.6386  0.6333 -0.9428
  424MOL0     C57157  10.719   2.730   4.777  0.9967  0.1231  0.1834
  424MOL0     C57158  10.705   2.855   4.718 -0.5676  0.0323  0.5884
  424MOL0     C57159  10.735   3.304   4.629 -0.5664 -0.3073 -0.7403
  424MOL0     C57160  10.842   3.391   4.599 -0.4310 -0.1516 -0.9464
  424MOL0     C57161  10.814   3.527   4.599  0.2117  0.4889  0.2283
  424MOL0     C57162  10.682   3.581   4.592  0.0405 -0.6000  0.1843
  424MOL0     O57163  10.666   3.711   4.547 -0.3017 -0.0598 -0.1784
  424MOL0     C57164  10.554   3.784   4.590  0.0936  0.6543  0.4503
  424MOL0     C57165  10.530   3.893   4.488  0.2402  0.0378 -0.6093
  424MOL0     C57166  10.622   4.009   4.465 -0.2126  0.7251 -0.8271
  424MOL0     C57167  10.729   3.977   4.364 -0.2722 -0.3402 -1.0855
  424MOL0     C57168  10.809   4.098   4.334  0.5537  0.8979  0.8201
  424MOL0     C57169  10.882   4.193   4.305 -0.0595  0.5452  0.4467
  424MOL0     C57170  10.571   3.490   4.616 -0.1460  0.5803  0.2188
  424MOL0     C57171  10.600   3.355   4.630  0.5268  0.6953 -0.5873
  424MOL0     C57172  10.486   3.258   4.663  0.4186  0.4066  0.1503
  424MOL0     H57173  10.811   3.032   4.993  2.4153 -0.0422 -1.7678
  424MOL0     H57174  10.839   2.820   5.082  1.1234 -2.1436 -0.2317
  424MOL0     H57175  10.925   2.557   5.114 -0.3655 -0.0661  0.3644
  424MOL0     H57176  10.765   2.611   5.161 -0.1291  0.5085 -0.5612
  424MOL0     H57177  10.806   2.374   5.203  1.4804  1.4740 -0.5423
  424MOL0     H57178  10.861   2.353   5.039  1.1934  0.1073 -0.1019
  424MOL0     H57179  10.611   2.399   4.978 -1.5986  0.9623  1.0234
  424MOL0     H57180  10.586   2.450   5.147 -0.9679  1.0302 -0.5083
  424MOL0     H57181  10.621   2.166   5.026 -1.5013  1.2935 -1.5420
  424MOL0     H57182  10.612   2.184   5.201  0.6789  1.0686 -0.4428
  424MOL0     H57183  10.402   2.322   5.155  2.6553 -0.5969  1.5960
  424MOL0     H57184  10.398   2.244   4.988 -0.8583  0.8714  0.1384
  424MOL0     H57185  10.370   2.035   5.115  0.0702  1.1897 -1.2756
  424MOL0     H57186  10.359   2.124   5.268  1.2388  0.1809 -0.2614
  424MOL0     H57187  10.179   2.259   5.174 -1.1873 -0.8941  1.5637
  424MOL0     H57188  10.128   2.094   5.204  0.5657 -0.2784 -0.5331
  424MOL0     H57189  10.145   2.241   4.960  1.2862  1.0683  3.2494
  424MOL0     H57190  10.214   2.074   4.924  0.5885  2.5306 -2.7916
  424MOL0     H57191  10.005   1.862   4.968  0.6154  0.9528 -2.8794
  424MOL0     H57192   9.667   1.869   5.119 -0.0350 -0.5423 -0.6965
  424MOL0     H57193   9.697   1.827   4.955  0.9830  1.9029 -0.2528
  424MOL0     H57194   9.899   1.667   5.053 -0.1670 -1.1207 -0.3411
  424MOL0     H57195   9.832   1.715   5.213 -1.8195 -1.5140  1.2990
  424MOL0     H57196   9.725   1.505   5.140  0.0783  0.6443  1.3418
  424MOL0     H57197   9.674   1.582   4.986 -2.3214  2.0374 -0.1665
  424MOL0     H57198   9.513   1.718   5.088  2.4841  1.8736  0.1762
  424MOL0     H57199   9.571   1.692   5.249  0.7068  0.6880 -1.1495
  424MOL0     H57200   9.294   1.757   5.161 -0.2358  1.1827  1.5130
  424MOL0     H57201   9.075   1.752   5.249 -0.1568  1.2499  0.1914
  424MOL0     H57202   8.652   1.652   5.218 -0.9875  0.2924  0.3543
  424MOL0     H57203   8.403   1.666   5.301 -1.1368 -0.6428  1.5153
  424MOL0     H57204   8.365   1.736   5.742  4.3776  1.7140 -2.3402
  424MOL0     H57205   8.345   1.860   5.622  1.9303 -0.2532 -1.3786
  424MOL0     H57206   8.162   1.832   5.757  1.2020  0.9472  0.4697
  424MOL0     H57207   8.124   1.822   5.587  3.0909  2.1682  1.5870
  424MOL0     H57208   8.121   1.565   5.617 -2.8318  1.5535 -1.7023
  424MOL0     H57209   8.138   1.579   5.787 -3.7424  1.0832  1.9621
  424MOL0     H57210   7.907   1.553   5.730  1.4148 -0.7820  0.8400
  424MOL0     H57211   7.895   1.716   5.665  0.0065  2.4973  0.1490
  424MOL0     H57212   7.937   1.816   5.878 -2.0551 -0.1637  1.0989
  424MOL0     H57213   7.994   1.667   5.959  1.7693  0.8114 -0.4046
  424MOL0     H57214   7.794   1.555   5.964  1.8293 -0.5947  0.9866
  424MOL0     H57215   7.785   1.729   6.023 -0.6168  0.9909 -1.4517
  424MOL0     H57216   7.689   1.592   5.766 -1.8546 -0.4459  1.1127
  424MOL0     H57217   7.688   1.767   5.789  3.3895 -1.6437 -2.1415
  424MOL0     H57218   7.465   1.654   5.843  0.1840 -2.3327  0.4055
  424MOL0     H57219   7.552   1.565   5.972 -0.8199 -0.8615 -1.4652
  424MOL0     H57220   8.567   1.684   5.702 -2.9966  1.2885  0.0162
  424MOL0     H57221   8.791   1.673   5.627 -1.8854  0.9553  1.3595
  424MOL0     H57222   9.124   1.328   5.339 -0.1808 -0.6845 -0.0891
  424MOL0     H57223   9.354   1.345   5.262  0.2920 -0.0914 -1.4782
  424MOL0     H57224  10.686   2.654   4.708 -1.5817  1.5495 -0.2946
  424MOL0     H57225  10.663   2.862   4.618  0.3921 -2.8820 -0.1164
  424MOL0     H57226  10.939   3.344   4.595  0.1424 -0.2757  5.5057
  424MOL0     H57227  10.898   3.595   4.591  0.4749  0.7725  3.7085
  424MOL0     H57228  10.584   3.813   4.691  4.3825 -3.0904  0.5846
  424MOL0     H57229  10.461   3.726   4.584  0.7597 -0.4097 -0.0114
  424MOL0     H57230  10.433   3.933   4.516  1.2400  1.4893  1.0214
  424MOL0     H57231  10.502   3.849   4.392 -0.7134 -0.0290 -0.3089
  424MOL0     H57232  10.667   4.035   4.561 -1.4192  1.5906 -0.4695
  424MOL0     H57233  10.562   4.096   4.434 -2.0895 -0.1725  0.1121
  424MOL0     H57234  10.794   3.904   4.413 -1.1841  0.1141  0.8894
  424MOL0     H57235  10.685   3.931   4.275  0.2485  0.7609 -1.9508
  424MOL0     H57236  10.936   4.277   4.267 -1.3993  0.6643 -1.3068
  424MOL0     H57237  10.468   3.525   4.606 -0.1039  0.5828 -0.2229
  424MOL0     H57238  10.500   3.206   4.758  1.9787 -1.9605 -1.2928
  424MOL0     H57239  10.381   3.291   4.664  0.0833 -0.5929 -0.8381
  424MOL0     H57240  10.498   3.175   4.593 -2.1212 -2.0567  2.3735
  425MOL0     O57241  11.273  10.619   2.244  0.3631  0.5384  0.0168
  425MOL0     C57242  11.330  10.560   2.332 -0.2876  0.6830  0.2921
  425MOL0     O57243  11.445  10.488   2.312  0.4821 -0.6899  0.6934
  425MOL0     C57244  11.497  10.489   2.193 -0.7498 -0.0051  0.3396
  425MOL0     C57245  11.432  10.425   2.087 -0.3420 -0.0503  0.3265
  425MOL0     C57246  11.485  10.426   1.959 -1.4125 -0.1907  0.1565
  425MOL0     C57247  11.605  10.496   1.933 -0.4238  0.3965 -0.4352
  425MOL0     O57248  11.667  10.486   1.815  0.0825 -0.8143  0.5594
  425MOL0     C57249  11.754  10.593   1.778 -0.0510 -0.2734  0.3621
  425MOL0     C57250  11.771  10.589   1.628 -0.7149  0.3857  1.4020
  425MOL0     C57251  11.904  10.668   1.595 -0.0881 -0.3906  0.0156
  425MOL0     C57252  11.932  10.651   1.443  0.4133  0.5965  1.3790
  425MOL0     C57253  12.046  10.737   1.397  0.1802 -0.1615 -0.4989
  425MOL0     C57254  12.110  10.715   1.260  0.2140 -0.9272  0.5208
  425MOL0     C57255  12.011  10.699   1.145  0.7692  0.4537  0.4921
  425MOL0     C57256  11.947  10.831   1.105  0.1252 -0.4659  0.0771
  425MOL0     N57257  12.054  10.905   1.030  0.2773 -0.1204  0.3563
  425MOL0     C57258  12.098  10.896   0.896 -0.0534  0.1521 -0.3995
  425MOL0     C57259  12.162  11.009   0.873 -0.6704 -0.1115 -0.7657
  425MOL0     C57260  12.224  11.031   0.731  0.2555  0.7026 -1.0129
  425MOL0     C57261  12.181  11.151   0.661 -0.5941 -0.8061 -0.5535
  425MOL0     C57262  12.233  11.143   0.510  0.3631  0.0802  0.0558
  425MOL0     C57263  12.181  11.261   0.425 -0.1127  0.5203 -0.4403
  425MOL0     O57264  12.043  11.271   0.455 -0.3155 -0.1633  0.5531
  425MOL0     C57265  11.936  11.232   0.377  0.2625 -0.3418 -0.7529
  425MOL0     C57266  11.933  11.131   0.283 -1.3798 -0.5796 -0.1560
  425MOL0     C57267  11.814  11.082   0.232  0.4099  1.3929  0.0617
  425MOL0     C57268  11.690  11.142   0.270 -0.0309  0.1134 -0.7820
  425MOL0     C57269  11.558  11.095   0.212 -0.1094 -0.3803 -0.1520
  425MOL0     O57270  11.562  11.007   0.105 -0.6792 -0.1629  0.5579
  425MOL0     C57271  11.455  10.966   0.036 -1.0454 -0.5724  0.0830
  425MOL0     C57272  11.467  10.852  -0.047 -0.4026  0.0033 -0.2456
  425MOL0     C57273  11.356  10.814  -0.129  0.5371 -0.1061 -0.2163
  425MOL0     C57274  11.246  10.895  -0.132  1.2699  0.2992  0.6884
  425MOL0     O57275  11.147  10.844  -0.213  0.6654  0.3754  0.0950
  425MOL0     C57276  11.015  10.869  -0.163  0.2474  0.6465 -0.6330
  425MOL0     C57277  10.930  10.758  -0.227  0.2837 -1.0692  0.3925
  425MOL0     C57278  10.968  10.616  -0.173 -0.8671  0.0299  0.5139
  425MOL0     C57279  10.889  10.497  -0.235  0.0510 -0.4098 -0.2714
  425MOL0     C57280  10.897  10.380  -0.140 -0.2989  0.2291 -1.2122
  425MOL0     C57281  10.851  10.244  -0.188  0.0208  0.3948  0.4206
  425MOL0     C57282  10.851  10.142  -0.071 -0.2579  0.2928  0.2549
  425MOL0     C57283  10.777  10.015  -0.110  0.2217 -0.2619 -0.6738
  425MOL0    Cl57284  10.769   9.893   0.030  0.0820  0.2324 -0.7052
  425MOL0     C57285  11.242  11.014  -0.064  0.2356  0.1678 -0.1707
  425MOL0     C57286  11.346  11.048   0.017 -0.0844  0.0508  0.6463
  425MOL0     O57287  11.455  11.155   0.260  0.3176  0.1012 -0.4258
  425MOL0     C57288  11.694  11.239   0.359 -0.9752 -0.2285  0.2549
  425MOL0     C57289  11.811  11.290   0.415 -0.0047  0.3921  0.4312
  425MOL0     N57290  12.171  11.089   0.988  0.0464 -0.5076 -0.2439
  425MOL0     N57291  12.097  11.024   1.072  0.1179  0.1891 -0.5903
  425MOL0     C57292  11.674  10.558   2.047 -0.7308  0.0520 -0.0079
  425MOL0     C57293  11.621  10.553   2.175  1.1139  1.0207  0.1734
  425MOL0     C57294  11.287  10.580   2.472  0.4079 -1.0044  0.0772
  425MOL0     C57295  11.370  10.529   2.580  0.7105 -0.2459  0.6083
  425MOL0     C57296  11.334  10.531   2.715 -0.2403  0.8424  0.3071
  425MOL0     C57297  11.211  10.585   2.745  1.4514 -0.1217 -0.9928
  425MOL0     O57298  11.157  10.596   2.873 -0.2750 -0.2772  0.1564
  425MOL0     C57299  11.238  10.631   2.986 -0.1983  0.2723  0.5095
  425MOL0     C57300  11.143  10.638   3.105 -0.1827  0.2634  0.3444
  425MOL0     C57301  11.065  10.765   3.107  0.1740 -0.1745 -0.2406
  425MOL0     C57302  10.954  10.748   3.223  0.2077 -0.3293  0.2081
  425MOL0     C57303  11.025  10.745   3.354  0.4660  0.1864 -0.5474
  425MOL0     C57304  11.077  10.723   3.465  1.5804  0.6193  0.6919
  425MOL0     C57305  11.128  10.638   2.644  1.1714  1.4987 -0.5894
  425MOL0     C57306  11.158  10.636   2.513 -0.1610  0.8200  0.1195
  425MOL0     C57307  11.043  10.668   2.424  0.0666 -0.2704  0.9168
  425MOL0     H57308  11.339  10.374   2.113 -0.9242  1.0081  0.3767
  425MOL0     H57309  11.437  10.366   1.882  0.9351 -3.8751  1.2974
  425MOL0     H57310  11.719  10.691   1.810  2.9507  1.5265 -1.4559
  425MOL0     H57311  11.852  10.581   1.824  1.4577  1.5978 -2.1522
  425MOL0     H57312  11.687  10.636   1.577  0.5198 -0.5244 -1.7076
  425MOL0     H57313  11.770  10.483   1.602 -2.1597  0.6093  0.4415
  425MOL0     H57314  11.993  10.641   1.653 -0.8811  0.9723  1.9830
  425MOL0     H57315  11.876  10.771   1.618  2.7473  0.1844  1.3735
  425MOL0     H57316  11.950  10.544   1.427  1.0284  0.7237  1.1957
  425MOL0     H57317  11.842  10.674   1.385  1.4241 -0.0298 -0.5397
  425MOL0     H57318  11.997  10.834   1.393 -1.4890 -0.9817 -0.6376
  425MOL0     H57319  12.126  10.736   1.472 -1.7622 -0.8603  1.6946
  425MOL0     H57320  12.174  10.802   1.240  1.2052 -1.8112 -0.2231
  425MOL0     H57321  12.169  10.624   1.265  0.2549 -0.9563 -0.3258
  425MOL0     H57322  11.943  10.616   1.163  2.6806 -1.6641 -1.4369
  425MOL0     H57323  12.062  10.662   1.055 -2.2688 -0.0485 -1.1557
  425MOL0     H57324  11.861  10.814   1.040 -1.3919  0.2580  1.8383
  425MOL0     H57325  11.900  10.882   1.189  0.8873 -1.5513  1.1980
  425MOL0     H57326  12.083  10.812   0.829 -1.0271  0.2243 -0.2820
  425MOL0     H57327  12.333  11.036   0.740  0.4157  0.3587 -2.5420
  425MOL0     H57328  12.202  10.951   0.661 -0.9108 -1.8082  1.9809
  425MOL0     H57329  12.072  11.164   0.662 -0.4284  0.7921  0.9484
  425MOL0     H57330  12.216  11.243   0.708 -0.7905 -1.1928  0.3664
  425MOL0     H57331  12.203  11.047   0.468  1.0486  0.0121 -0.3037
  425MOL0     H57332  12.343  11.146   0.508  0.3581  1.0853  0.5745
  425MOL0     H57333  12.202  11.238   0.320  2.8016  0.7530  0.0193
  425MOL0     H57334  12.245  11.346   0.450  1.3777 -0.4760 -0.7162
  425MOL0     H57335  12.024  11.077   0.260 -0.7089 -0.3667  1.8294
  425MOL0     H57336  11.817  10.999   0.162  1.7299  1.2059  0.3176
  425MOL0     H57337  11.557  10.792  -0.042  0.1529  0.8661  0.5266
  425MOL0     H57338  11.367  10.725  -0.190  1.3794 -0.7860  0.8988
  425MOL0     H57339  11.008  10.850  -0.055  1.0996 -2.0796 -1.0036
  425MOL0     H57340  10.985  10.972  -0.187 -0.4545  1.2203  2.2814
  425MOL0     H57341  10.822  10.772  -0.220 -0.2623 -2.5471 -2.8765
  425MOL0     H57342  10.947  10.783  -0.333  0.6969 -1.6303  0.3210
  425MOL0     H57343  11.071  10.586  -0.192 -0.6732  1.1793 -0.3648
  425MOL0     H57344  10.944  10.607  -0.067 -0.2732  1.9333  0.8626
  425MOL0     H57345  10.926  10.471  -0.335  2.4555  1.8027 -0.0746
  425MOL0     H57346  10.784  10.526  -0.236  0.8772  3.6198  3.0698
  425MOL0     H57347  10.842  10.409  -0.050  0.9602  0.8364 -0.6127
  425MOL0     H57348  10.997  10.370  -0.096  1.0604  0.3110 -4.0604
  425MOL0     H57349  10.753  10.252  -0.234  0.4839 -2.3657 -1.2499
  425MOL0     H57350  10.925  10.216  -0.264  1.8210  1.0496  1.8381
  425MOL0     H57351  10.800  10.176   0.020 -2.3129 -4.0920  1.0141
  425MOL0     H57352  10.956  10.113  -0.055  0.2023  0.8416 -1.5289
  425MOL0     H57353  10.671  10.031  -0.131 -0.7561 -0.6001  3.3241
  425MOL0     H57354  10.831   9.960  -0.188  0.1107 -1.9545  0.3854
  425MOL0     H57355  11.156  11.079  -0.077  2.2997  2.8026 -1.8346
  425MOL0     H57356  11.353  11.146   0.065  0.5399  0.1119  0.4268
  425MOL0     H57357  11.595  11.278   0.384 -0.5208  1.3429 -0.3224
  425MOL0     H57358  11.797  11.379   0.477 -0.8892  2.0614 -2.0026
  425MOL0     H57359  11.766  10.616   2.036 -1.6352  1.5000 -0.1554
  425MOL0     H57360  11.670  10.609   2.254  0.5409  0.4403  0.9520
  425MOL0     H57361  11.465  10.491   2.542 -1.7536 -3.3214 -3.3378
  425MOL0     H57362  11.401  10.492   2.790 -2.5414  1.2313  2.7451
  425MOL0     H57363  11.287  10.728   2.967 -3.1054  1.8089  0.3096
  425MOL0     H57364  11.315  10.556   3.004 -1.0131 -1.6238 -3.0367
  425MOL0     H57365  11.210  10.639   3.191  2.2144 -1.0439 -1.4034
  425MOL0     H57366  11.082  10.548   3.099  0.7773 -0.3700 -0.1109
  425MOL0     H57367  11.032  10.789   3.005 -0.0093  0.1540 -0.1076
  425MOL0     H57368  11.117  10.857   3.132 -2.5927  1.9344 -1.6271
  425MOL0     H57369  10.885  10.831   3.208  3.8448  3.3541  1.9238
  425MOL0     H57370  10.897  10.655   3.218 -0.4772  0.1243 -0.7242
  425MOL0     H57371  11.134  10.702   3.553  0.7501  0.1892  1.1405
  425MOL0     H57372  11.034  10.686   2.666  0.1001  0.2146 -2.1374
  425MOL0     H57373  11.044  10.611   2.330 -3.5542  2.6876 -1.1757
  425MOL0     H57374  10.946  10.642   2.466 -0.5822 -0.6315 -0.7023
  425MOL0     H57375  11.038  10.775   2.400 -0.2848 -0.4649  0.0918
  426MOL0     O57376   7.626   1.625   5.307 -0.0424 -0.1893  0.1158
  426MOL0     C57377   7.539   1.563   5.248 -0.7858  0.1775 -0.3422
  426MOL0     O57378   7.474   1.456   5.303 -0.9118  0.4999 -0.3096
  426MOL0     C57379   7.558   1.390   5.396 -0.5766 -0.3021 -0.2786
  426MOL0     C57380   7.649   1.296   5.357 -0.0352  0.1307 -0.0526
  426MOL0     C57381   7.736   1.234   5.442 -0.5969  0.1516  0.8621
  426MOL0     C57382   7.737   1.271   5.580  0.8603  0.6720 -0.4744
  426MOL0     O57383   7.825   1.226   5.682  0.3010  0.2182  0.1779
  426MOL0     C57384   7.938   1.152   5.642  0.2554 -0.1858 -0.7866
  426MOL0     C57385   8.065   1.242   5.648  0.2934  0.5733  0.4580
  426MOL0     C57386   8.197   1.165   5.656 -0.1191  0.6278  0.3938
  426MOL0     C57387   8.324   1.259   5.653 -0.1582  0.0913 -0.0092
  426MOL0     C57388   8.343   1.315   5.799  0.6960  0.5516 -0.1711
  426MOL0     C57389   8.485   1.363   5.836 -0.0859  0.0053  0.1749
  426MOL0     C57390   8.500   1.413   5.989 -0.0780  0.5274  0.3781
  426MOL0     C57391   8.539   1.296   6.074  0.1975  0.3361  0.6386
  426MOL0     N57392   8.566   1.341   6.215 -0.3902 -0.1665  0.0831
  426MOL0     C57393   8.676   1.400   6.262 -0.6323  0.4579  1.0043
  426MOL0     C57394   8.660   1.434   6.387 -0.2578 -0.1755 -0.2386
  426MOL0     C57395   8.757   1.493   6.469 -0.5434 -0.4175 -1.3066
  426MOL0     C57396   8.679   1.613   6.526  0.7188 -0.2345 -0.3443
  426MOL0     C57397   8.796   1.699   6.590  0.0272  0.3119 -0.4736
  426MOL0     C57398   8.747   1.832   6.636 -0.1729 -0.9777 -0.3469
  426MOL0     O57399   8.844   1.919   6.702  0.6565 -0.3100  0.0829
  426MOL0     C57400   8.868   2.052   6.659  0.6086 -0.0477  0.3720
  426MOL0     C57401   8.794   2.126   6.570 -0.9341  0.3923 -0.3394
  426MOL0     C57402   8.826   2.255   6.543  0.0476 -0.5038  0.1593
  426MOL0     C57403   8.928   2.318   6.610 -0.3274  0.2540  0.5542
  426MOL0     C57404   8.955   2.457   6.578 -0.3134 -0.2851 -0.2866
  426MOL0     O57405   8.855   2.516   6.513  0.7018  0.4259 -0.5661
  426MOL0     C57406   8.853   2.642   6.463  0.2328 -0.1634  0.6756
  426MOL0     C57407   8.724   2.687   6.429  0.2723  0.3695 -0.2309
  426MOL0     C57408   8.711   2.822   6.390  0.2525  0.1170 -0.5715
  426MOL0     C57409   8.815   2.913   6.378 -0.3488  0.9305  0.0597
  426MOL0     O57410   8.799   3.039   6.338 -0.2446 -0.7426  0.6223
  426MOL0     C57411   8.670   3.082   6.312  0.0450 -1.3909  0.1548
  426MOL0     C57412   8.672   3.229   6.264  0.2261  0.3471 -0.1381
  426MOL0     C57413   8.708   3.319   6.380 -1.1961  0.3314 -0.0297
  426MOL0     C57414   8.753   3.452   6.314 -0.2885 -0.2503  0.1418
  426MOL0     C57415   8.824   3.534   6.422  0.1949 -0.7860 -0.2472
  426MOL0     C57416   8.863   3.675   6.359  1.0270  0.9797  0.5109
  426MOL0     C57417   8.903   3.769   6.469 -0.7020 -0.6028 -0.9544
  426MOL0     C57418   9.043   3.826   6.445 -0.6015 -0.7955  0.2107
  426MOL0    Cl57419   9.070   3.961   6.324 -0.2726  0.8279 -0.7549
  426MOL0     C57420   8.949   2.864   6.404  0.8275  1.2625 -0.0619
  426MOL0     C57421   8.965   2.726   6.437  0.1804  0.6990 -0.8170
  426MOL0     O57422   9.048   2.511   6.637 -0.6159 -0.3881 -0.3033
  426MOL0     C57423   9.006   2.245   6.696 -0.0419  1.1015 -0.1100
  426MOL0     C57424   8.964   2.119   6.729 -0.9502  0.4435  0.0228
  426MOL0     N57425   8.544   1.376   6.426  1.0570 -0.1928 -0.2196
  426MOL0     N57426   8.487   1.320   6.325 -0.4489  1.0708 -0.0673
  426MOL0     C57427   7.639   1.358   5.629  1.1073 -0.6141  0.6358
  426MOL0     C57428   7.549   1.412   5.533 -0.1662 -0.7733  0.1857
  426MOL0     C57429   7.505   1.619   5.119  1.0889  0.3206  1.0434
  426MOL0     C57430   7.546   1.750   5.086  0.6639 -0.4676 -0.9295
  426MOL0     C57431   7.494   1.821   4.977 -0.0229 -0.0805 -0.6682
  426MOL0     C57432   7.408   1.758   4.892  1.0036 -0.2078  0.5703
  426MOL0     O57433   7.349   1.801   4.779 -0.1260 -0.2598  0.1276
  426MOL0     C57434   7.246   1.899   4.809  0.1388 -0.4566 -0.3046
  426MOL0     C57435   7.296   2.043   4.782  0.0985  0.3033 -0.2960
  426MOL0     C57436   7.192   2.145   4.835  0.0847  0.3752  0.6403
  426MOL0     C57437   7.100   2.177   4.710 -0.4139  0.9307  0.4456
  426MOL0     C57438   6.986   2.262   4.760 -1.0325  0.3648  0.4202
  426MOL0     C57439   6.898   2.336   4.797  0.0425  0.0216  0.0911
  426MOL0     C57440   7.358   1.628   4.924  0.3261  0.8298 -0.7035
  426MOL0     C57441   7.407   1.553   5.031  0.5345 -0.4615 -0.3488
  426MOL0     C57442   7.352   1.416   5.057 -1.4333 -0.8359  0.1372
  426MOL0     H57443   7.638   1.256   5.257  0.8064 -1.5888  0.4996
  426MOL0     H57444   7.809   1.162   5.406 -1.4015 -1.0065  1.5163
  426MOL0     H57445   7.955   1.073   5.716 -4.7142 -1.4397 -0.6169
  426MOL0     H57446   7.931   1.102   5.544 -1.6074 -0.5302 -0.5229
  426MOL0     H57447   8.045   1.322   5.720 -0.0073  0.4705  0.4911
  426MOL0     H57448   8.077   1.304   5.559  3.2505 -3.3960 -2.2988
  426MOL0     H57449   8.199   1.094   5.573 -0.0680 -1.4348  2.0766
  426MOL0     H57450   8.194   1.102   5.745 -0.4870  0.2877  0.1421
  426MOL0     H57451   8.412   1.198   5.631 -1.3972 -1.6895 -0.3167
  426MOL0     H57452   8.322   1.341   5.580 -3.2170  3.1181  3.0846
  426MOL0     H57453   8.272   1.396   5.819 -0.0090 -0.1451  0.2428
  426MOL0     H57454   8.313   1.235   5.868  0.7751 -0.6655 -1.4981
  426MOL0     H57455   8.565   1.295   5.806  0.6158  0.1319  1.6319
  426MOL0     H57456   8.518   1.444   5.771  2.7222 -0.4665  0.8388
  426MOL0     H57457   8.409   1.468   6.012  1.2423  2.5151  1.1359
  426MOL0     H57458   8.587   1.480   5.991  1.6453 -1.4175 -2.4180
  426MOL0     H57459   8.451   1.232   6.070 -0.3765  1.0711 -3.5534
  426MOL0     H57460   8.620   1.250   6.016  0.6831  2.9537 -0.9400
  426MOL0     H57461   8.761   1.422   6.200 -2.9934  3.3803 -1.4865
  426MOL0     H57462   8.799   1.447   6.559 -0.8050  4.3175  1.5705
  426MOL0     H57463   8.833   1.522   6.397  1.1850 -0.7608  0.2919
  426MOL0     H57464   8.624   1.674   6.453 -0.6001  0.3793  1.0871
  426MOL0     H57465   8.604   1.580   6.599  2.1957 -3.3206 -0.0670
  426MOL0     H57466   8.867   1.722   6.510  0.3191 -0.7225 -0.5268
  426MOL0     H57467   8.849   1.655   6.675  3.1931 -1.2895 -3.0300
  426MOL0     H57468   8.671   1.810   6.712 -1.4221 -1.3769 -1.6648
  426MOL0     H57469   8.699   1.874   6.547 -0.3433  2.6492  1.2912
  426MOL0     H57470   8.717   2.069   6.519 -0.6970 -2.3386  2.0863
  426MOL0     H57471   8.767   2.309   6.470 -1.2431  0.8255  2.0659
  426MOL0     H57472   8.639   2.619   6.438 -0.3063  1.2879  1.8945
  426MOL0     H57473   8.605   2.843   6.382  0.6196  1.6601 -1.7760
  426MOL0     H57474   8.634   3.016   6.233 -2.7348  0.5740 -0.3747
  426MOL0     H57475   8.602   3.075   6.398  0.1322  1.2986  0.5267
  426MOL0     H57476   8.746   3.232   6.184 -0.3594  0.6686 -0.6785
  426MOL0     H57477   8.573   3.262   6.232  1.0734  1.5236 -1.6427
  426MOL0     H57478   8.629   3.336   6.454 -2.3214 -1.7751 -0.6793
  426MOL0     H57479   8.791   3.270   6.432 -1.4783 -0.8477 -0.6626
  426MOL0     H57480   8.673   3.501   6.259 -0.5112 -0.1952  0.5133
  426MOL0     H57481   8.832   3.431   6.241 -0.0618 -0.4067  0.4293
  426MOL0     H57482   8.912   3.488   6.468  0.7423  1.3465  0.9783
  426MOL0     H57483   8.757   3.552   6.507  1.1288  3.3069 -0.1554
  426MOL0     H57484   8.938   3.663   6.281  1.9733  0.1388  1.5268
  426MOL0     H57485   8.768   3.701   6.311  0.0326 -1.7138  0.8602
  426MOL0     H57486   8.904   3.716   6.565 -1.1994  2.1208  0.6482
  426MOL0     H57487   8.829   3.849   6.480  1.6333  1.7359 -1.2427
  426MOL0     H57488   9.086   3.860   6.539 -2.5831  1.3309  0.4530
  426MOL0     H57489   9.107   3.743   6.414 -0.9697 -1.4239  1.0788
  426MOL0     H57490   9.040   2.922   6.414 -0.1463  2.5725  2.0186
  426MOL0     H57491   9.067   2.691   6.448 -0.6803 -2.0029 -0.9097
  426MOL0     H57492   9.077   2.305   6.751  0.2420  1.1594 -0.5374
  426MOL0     H57493   9.019   2.071   6.809 -2.6243 -1.9877 -0.1515
  426MOL0     H57494   7.626   1.376   5.736 -1.7305 -1.4008  0.5116
  426MOL0     H57495   7.473   1.483   5.563 -2.0479 -1.7629 -1.9471
  426MOL0     H57496   7.618   1.810   5.141 -0.4521 -0.9366  1.1548
  426MOL0     H57497   7.516   1.926   4.961 -0.7431 -0.1084 -1.9574
  426MOL0     H57498   7.220   1.898   4.916 -1.7261  1.0172 -0.6845
  426MOL0     H57499   7.153   1.881   4.755 -0.5938  0.7644  0.4966
  426MOL0     H57500   7.326   2.075   4.682 -0.8684  3.6961  0.3838
  426MOL0     H57501   7.381   2.076   4.842 -1.4262  4.6299 -0.1330
  426MOL0     H57502   7.242   2.234   4.875 -3.3539  2.1804  1.2966
  426MOL0     H57503   7.138   2.115   4.926 -1.2937 -1.7863 -0.8172
  426MOL0     H57504   7.154   2.231   4.632  0.1117 -1.3626 -0.8618
  426MOL0     H57505   7.069   2.082   4.667 -2.1096  0.1451  3.1284
  426MOL0     H57506   6.799   2.376   4.809  0.6412  1.7133 -0.3761
  426MOL0     H57507   7.291   1.574   4.857 -0.5726 -2.5044  2.5572
  426MOL0     H57508   7.278   1.394   4.979 -0.8925 -0.9698 -0.3482
  426MOL0     H57509   7.431   1.340   5.062 -1.0007 -0.5063 -1.2584
  426MOL0     H57510   7.297   1.431   5.150 -2.8168  2.2116 -1.0614
  427MOL0     O57511  10.993   3.158  11.234 -0.4681  0.6049  0.6976
  427MOL0     C57512  11.028   3.039  11.198  1.2571 -0.9058 -0.5054
  427MOL0     O57513  11.093   2.950  11.283 -0.1444 -0.4375 -0.4001
  427MOL0     C57514  11.162   2.997  11.386 -0.6753  0.6048  0.0361
  427MOL0     C57515  11.113   2.999  11.518  0.1462  0.5162 -0.8257
  427MOL0     C57516  11.194   3.037  11.624 -1.1566  0.7387 -0.8172
  427MOL0     C57517  11.330   3.079  11.598  0.2616 -0.0482 -0.1544
  427MOL0     O57518  11.423   3.113  11.700 -0.1227 -0.0028  0.3592
  427MOL0     C57519  11.391   3.112  11.847  0.4947  0.4871  0.2335
  427MOL0     C57520  11.518   3.086  11.933  0.0249 -0.0611  0.3763
  427MOL0     C57521  11.533   2.947  11.979  0.7478  0.4386 -0.1585
  427MOL0     C57522  11.517   2.860  11.858  0.0869  0.6841 -0.0635
  427MOL0     C57523  11.539   2.706  11.884  0.4186 -0.2835 -0.3361
  427MOL0     C57524  11.666   2.653  11.817  0.0932 -0.1577  0.6103
  427MOL0     C57525  11.678   2.498  11.821  0.2983 -0.7230  0.3970
  427MOL0     C57526  11.796   2.448  11.724  0.2256  0.4770 -0.7559
  427MOL0     N57527  11.906   2.534  11.720 -0.7502 -0.1613 -0.1334
  427MOL0     C57528  11.956   2.598  11.610 -0.5950  0.0117 -0.0247
  427MOL0     C57529  12.058   2.672  11.659 -0.4564  0.7003  0.4564
  427MOL0     C57530  12.156   2.749  11.573 -0.2203 -0.7897  0.3193
  427MOL0     C57531  12.246   2.648  11.495  0.3099 -1.0101  1.0368
  427MOL0     C57532  12.371   2.716  11.430 -1.3164  0.1415  0.4869
  427MOL0     C57533  12.459   2.610  11.357 -0.4150 -0.7281 -0.0823
  427MOL0     O57534  12.583   2.681  11.330 -0.5465  0.4047 -0.2157
  427MOL0     C57535  12.681   2.610  11.264 -0.3240 -0.0830 -1.6282
  427MOL0     C57536  12.780   2.681  11.188 -0.2674 -0.2321  0.7509
  427MOL0     C57537  12.878   2.620  11.112  0.4909  0.0237  0.2298
  427MOL0     C57538  12.881   2.479  11.115 -0.2277 -0.5059  0.2428
  427MOL0     C57539  12.998   2.415  11.035 -0.1442  0.0419  0.5965
  427MOL0     O57540  13.020   2.280  11.060  0.6051 -0.0042  0.0834
  427MOL0     C57541  13.109   2.216  10.983  1.0299  0.0060 -0.4221
  427MOL0     C57542  13.091   2.077  10.966 -0.0110 -0.6815  0.1539
  427MOL0     C57543  13.185   1.997  10.914 -0.4124  0.0190  0.6943
  427MOL0     C57544  13.299   2.052  10.862  0.0768 -1.2325  0.2929
  427MOL0     O57545  13.387   1.974  10.793  0.0661  0.1089 -0.3019
  427MOL0     C57546  13.469   1.880  10.861  0.1776 -0.1842 -0.1903
  427MOL0     C57547  13.602   1.869  10.786  0.3798 -0.1304  0.1078
  427MOL0     C57548  13.580   1.840  10.642 -0.1905  0.2001 -0.4264
  427MOL0     C57549  13.704   1.799  10.568 -0.2816  0.9655 -0.0563
  427MOL0     C57550  13.782   1.917  10.516  0.7709  0.1939 -0.2624
  427MOL0     C57551  13.700   2.028  10.435 -0.8767  0.6731  0.8828
  427MOL0     C57552  13.638   2.141  10.511  0.7783  0.1696 -0.2640
  427MOL0     C57553  13.607   2.264  10.425  0.4637 -0.1205 -1.2645
  427MOL0    Cl57554  13.513   2.389  10.515  0.3000  0.0799 -0.5655
  427MOL0     C57555  13.328   2.181  10.882 -0.6119 -0.1805  0.1390
  427MOL0     C57556  13.235   2.264  10.951  0.0603  0.5768  0.8055
  427MOL0     O57557  13.056   2.487  10.956 -0.3067  0.1258 -0.5036
  427MOL0     C57558  12.787   2.405  11.180  0.7119 -0.6426  0.4824
  427MOL0     C57559  12.682   2.473  11.253 -0.7465  0.4979 -0.9011
  427MOL0     N57560  12.075   2.654  11.793  0.2600  0.7282  0.3360
  427MOL0     N57561  11.980   2.566  11.824 -0.4165  0.5436 -0.8449
  427MOL0     C57562  11.379   3.074  11.464  1.0562  1.0722 -0.1036
  427MOL0     C57563  11.298   3.026  11.353  1.4238  0.1344 -0.1135
  427MOL0     C57564  10.992   3.000  11.063 -0.9163  0.1675 -0.2820
  427MOL0     C57565  11.037   2.871  11.022  0.9031  0.3824 -0.0826
  427MOL0     C57566  11.005   2.814  10.900 -0.7980 -0.9480  0.2674
  427MOL0     C57567  10.929   2.879  10.807  0.1921 -0.3637  0.1698
  427MOL0     O57568  10.902   2.812  10.691  0.0335 -0.2735 -0.4259
  427MOL0     C57569  10.862   2.893  10.578  0.3097 -0.5091 -0.7616
  427MOL0     C57570  10.851   2.796  10.461  0.5630 -0.4895 -0.0114
  427MOL0     C57571  10.835   2.867  10.329 -0.2657 -0.0475 -0.7470
  427MOL0     C57572  10.790   2.774  10.214 -0.4169  0.4952  0.3483
  427MOL0     C57573  10.680   2.679  10.244 -0.7857 -0.0467  0.1197
  427MOL0     C57574  10.582   2.604  10.255  0.2205 -0.4869  0.0993
  427MOL0     C57575  10.876   3.008  10.844  0.3158  0.0514 -0.2146
  427MOL0     C57576  10.907   3.066  10.972 -0.4723  0.6091 -0.2878
  427MOL0     C57577  10.825   3.194  11.015 -0.6773  0.4732  0.6685
  427MOL0     H57578  11.014   2.972  11.552  1.1325  0.6891  2.6409
  427MOL0     H57579  11.151   3.025  11.723  0.1922 -1.7790 -0.4500
  427MOL0     H57580  11.348   3.210  11.872 -1.7895 -0.8303  1.8520
  427MOL0     H57581  11.307   3.049  11.876 -0.6478  1.6959 -0.3377
  427MOL0     H57582  11.510   3.152  12.020 -0.4507  0.9019 -0.3729
  427MOL0     H57583  11.611   3.108  11.879  0.7239  0.9375  1.9336
  427MOL0     H57584  11.460   2.925  12.058 -0.7578 -0.6549 -1.7701
  427MOL0     H57585  11.628   2.916  12.022  1.6886 -2.9937 -4.1210
  427MOL0     H57586  11.414   2.866  11.822 -0.2740  2.2671  1.1128
  427MOL0     H57587  11.573   2.905  11.776 -0.1754  0.2702 -0.4714
  427MOL0     H57588  11.531   2.674  11.988 -0.2271 -0.6310 -0.4855
  427MOL0     H57589  11.458   2.656  11.829  1.3203 -1.1410 -0.9058
  427MOL0     H57590  11.662   2.687  11.714 -0.4492  3.2530  1.6240
  427MOL0     H57591  11.759   2.699  11.853  0.8771  0.9192 -2.5075
  427MOL0     H57592  11.581   2.452  11.803 -0.9465  1.9564 -0.2711
  427MOL0     H57593  11.700   2.474  11.926  0.4507  0.6898  0.7071
  427MOL0     H57594  11.829   2.348  11.754  0.0078  0.3740 -0.8607
  427MOL0     H57595  11.746   2.439  11.627 -1.1825 -4.2781  0.1497
  427MOL0     H57596  11.908   2.580  11.514 -3.6650 -0.9870  1.5492
  427MOL0     H57597  12.112   2.826  11.508  2.6094  0.2166 -0.5375
  427MOL0     H57598  12.224   2.797  11.644 -1.4262  0.0500  0.9449
  427MOL0     H57599  12.283   2.574  11.566 -0.8691 -1.6541  1.0020
  427MOL0     H57600  12.194   2.585  11.423  2.6576 -1.7743 -0.1126
  427MOL0     H57601  12.438   2.750  11.510  1.7352 -0.2380 -1.7282
  427MOL0     H57602  12.344   2.791  11.355 -1.4715 -0.9153 -0.5389
  427MOL0     H57603  12.409   2.581  11.264  1.1047  1.1183 -1.5694
  427MOL0     H57604  12.472   2.520  11.417 -2.3776 -0.5005  0.7332
  427MOL0     H57605  12.772   2.789  11.194 -0.1814 -0.3085  2.9333
  427MOL0     H57606  12.947   2.683  11.057 -0.1246  0.2573 -0.2865
  427MOL0     H57607  12.998   2.037  11.006 -0.1131  0.6754  1.3740
  427MOL0     H57608  13.168   1.890  10.914  0.6877 -0.1797  0.0994
  427MOL0     H57609  13.481   1.899  10.968 -0.4198 -0.5814 -0.0502
  427MOL0     H57610  13.422   1.781  10.858  0.1595 -0.1571 -0.8962
  427MOL0     H57611  13.646   1.968  10.773 -1.2328  0.4739 -1.0389
  427MOL0     H57612  13.661   1.795  10.842  1.1147  2.2797  2.8008
  427MOL0     H57613  13.520   1.748  10.641  0.0148 -0.0536  2.2859
  427MOL0     H57614  13.520   1.909  10.582  2.5169  0.2250 -3.4007
  427MOL0     H57615  13.681   1.736  10.481 -2.9168  1.7298 -0.0016
  427MOL0     H57616  13.771   1.751  10.640  1.8928  3.5030 -0.2246
  427MOL0     H57617  13.855   1.877  10.446 -0.8394 -1.2894 -1.1725
  427MOL0     H57618  13.827   1.958  10.607  2.3776  2.0469 -1.8249
  427MOL0     H57619  13.777   2.084  10.380  0.8193 -0.3854  2.0753
  427MOL0     H57620  13.623   1.984  10.371  0.1399 -0.9114  0.7081
  427MOL0     H57621  13.705   2.171  10.593  1.3990  1.6174 -1.2536
  427MOL0     H57622  13.538   2.108  10.542  0.5124 -1.7913 -2.8981
  427MOL0     H57623  13.705   2.295  10.387  0.1806 -0.8898 -2.7145
  427MOL0     H57624  13.555   2.239  10.332  2.6514 -0.2943 -2.5229
  427MOL0     H57625  13.422   2.223  10.848 -0.9190  0.4462  0.0442
  427MOL0     H57626  13.259   2.365  10.983 -0.4080  0.5174  1.3626
  427MOL0     H57627  12.798   2.297  11.169  1.9508 -0.5112  0.3866
  427MOL0     H57628  12.620   2.405  11.310 -0.9465 -0.7383 -2.5105
  427MOL0     H57629  11.483   3.103  11.450  0.3925  3.0416 -1.3307
  427MOL0     H57630  11.348   2.989  11.264  0.2142 -0.9901 -0.3592
  427MOL0     H57631  11.084   2.797  11.085 -1.4190 -0.3976  0.8518
  427MOL0     H57632  11.029   2.712  10.873 -1.8095 -0.3637 -3.3856
  427MOL0     H57633  10.929   2.976  10.552  0.6527 -0.5486 -0.0310
  427MOL0     H57634  10.771   2.944  10.611  2.5578  1.6425  2.8366
  427MOL0     H57635  10.775   2.720  10.484  1.8403 -1.4321  1.2860
  427MOL0     H57636  10.940   2.733  10.467 -0.3110 -1.8911 -1.0760
  427MOL0     H57637  10.931   2.910  10.302 -0.0077 -1.7329 -2.7869
  427MOL0     H57638  10.773   2.957  10.335  0.4945  0.4964 -0.9590
  427MOL0     H57639  10.758   2.831  10.127 -0.9574 -1.0132 -0.4767
  427MOL0     H57640  10.873   2.712  10.177 -0.6378 -1.0056  2.2104
  427MOL0     H57641  10.501   2.534  10.266 -2.5750  2.2471 -1.3985
  427MOL0     H57642  10.803   3.053  10.777  1.9537  1.2805 -1.2529
  427MOL0     H57643  10.772   3.234  10.928 -2.3336 -1.0109  0.9349
  427MOL0     H57644  10.752   3.155  11.086 -2.3685  1.5232 -0.4112
  427MOL0     H57645  10.892   3.273  11.049  0.1318  0.1248 -0.0786
  428MOL0     O57646   8.722   4.234   5.996  0.0981 -0.1782  0.2007
  428MOL0     C57647   8.606   4.225   6.031  0.7873 -0.8399  0.3490
  428MOL0     O57648   8.498   4.229   5.947  0.7196  1.3095 -0.2110
  428MOL0     C57649   8.518   4.186   5.815 -0.4592 -0.0676 -0.1666
  428MOL0     C57650   8.570   4.269   5.722  0.7459 -0.5815  0.9040
  428MOL0     C57651   8.584   4.223   5.590 -0.8569  0.7705 -0.3482
  428MOL0     C57652   8.570   4.099   5.547  0.8404  0.2373 -0.1022
  428MOL0     O57653   8.618   4.043   5.431 -0.2397 -0.1416  0.3662
  428MOL0     C57654   8.753   3.999   5.449 -0.8265 -0.5842  1.0032
  428MOL0     C57655   8.776   3.886   5.349 -0.4150  0.2471 -0.3943
  428MOL0     C57656   8.914   3.824   5.353  0.0366 -0.3736  0.6756
  428MOL0     C57657   8.941   3.733   5.233  0.8020  0.2505 -0.0959
  428MOL0     C57658   8.845   3.609   5.221  0.2246 -0.7357  0.6065
  428MOL0     C57659   8.854   3.506   5.323  0.4372  0.3759 -0.4232
  428MOL0     C57660   8.737   3.418   5.311 -0.2847  0.0648 -0.2272
  428MOL0     C57661   8.733   3.310   5.419 -0.1527  0.6651 -0.7457
  428MOL0     N57662   8.849   3.214   5.420  0.0370  0.1103  0.1466
  428MOL0     C57663   8.885   3.113   5.332  0.2309 -1.1878  0.9735
  428MOL0     C57664   9.001   3.066   5.392  1.1538 -0.6140 -0.0408
  428MOL0     C57665   9.086   2.943   5.335 -0.0148 -0.8776 -0.1824
  428MOL0     C57666   9.184   2.879   5.439 -0.0387  0.4428  0.6312
  428MOL0     C57667   9.217   2.740   5.381 -0.2077 -0.2077 -0.8159
  428MOL0     C57668   9.314   2.674   5.473  0.3484  0.2827 -0.6921
  428MOL0     O57669   9.361   2.552   5.408 -0.0189 -0.2972 -0.0054
  428MOL0     C57670   9.488   2.513   5.434 -0.1564  0.1198 -0.7731
  428MOL0     C57671   9.538   2.514   5.564 -0.5839 -0.2893 -0.0087
  428MOL0     C57672   9.667   2.469   5.597 -0.2600  0.5369 -0.4409
  428MOL0     C57673   9.759   2.435   5.493  0.9404 -1.1490 -0.2030
  428MOL0     C57674   9.889   2.402   5.535 -0.7938  0.2204  0.5786
  428MOL0     O57675   9.920   2.448   5.662  0.4605 -0.6310 -0.2407
  428MOL0     C57676  10.035   2.391   5.718  0.2341  0.5424  0.3606
  428MOL0     C57677  10.091   2.259   5.689  0.0827  0.4504  0.7104
  428MOL0     C57678  10.209   2.227   5.748  0.2956 -0.2118 -1.0750
  428MOL0     C57679  10.283   2.322   5.829  0.8337  0.1317  1.0190
  428MOL0     O57680  10.405   2.309   5.894  0.6535 -0.7596 -0.2309
  428MOL0     C57681  10.478   2.187   5.877 -0.3945  0.3989  0.4212
  428MOL0     C57682  10.597   2.190   5.966  0.2954  1.2844  0.4009
  428MOL0     C57683  10.692   2.309   5.941  0.6941 -1.2437 -0.1914
  428MOL0     C57684  10.799   2.331   6.045 -0.8350  0.3525 -1.0723
  428MOL0     C57685  10.895   2.438   5.993  0.1054  0.1254 -0.2157
  428MOL0     C57686  10.990   2.498   6.093 -0.2232 -0.2193 -0.2450
  428MOL0     C57687  11.081   2.609   6.031  0.9586 -0.3099 -0.8977
  428MOL0     C57688  11.190   2.557   5.933 -0.1090 -0.4674 -0.4886
  428MOL0    Cl57689  11.316   2.475   6.027  0.4533 -0.3380 -0.3418
  428MOL0     C57690  10.220   2.443   5.857  0.5862  0.0714  0.2026
  428MOL0     C57691  10.100   2.476   5.812 -0.3527  0.2312  0.2293
  428MOL0     O57692   9.969   2.366   5.446  0.0867  0.4897  0.1130
  428MOL0     C57693   9.710   2.452   5.354 -0.9317 -0.1814 -0.2739
  428MOL0     C57694   9.577   2.482   5.329 -0.2858 -0.4983 -0.7393
  428MOL0     N57695   9.042   3.155   5.497  0.8639 -0.2725  0.1541
  428MOL0     N57696   8.944   3.238   5.520 -0.3839  0.0167  0.1653
  428MOL0     C57697   8.524   4.007   5.643  0.5103  0.6056  0.0344
  428MOL0     C57698   8.491   4.055   5.774 -0.3399 -0.2502  0.2117
  428MOL0     C57699   8.563   4.226   6.176 -0.1965 -0.5784 -0.0828
  428MOL0     C57700   8.440   4.276   6.214  0.3348  0.0399  0.5981
  428MOL0     C57701   8.396   4.301   6.346 -0.0668  0.4635 -0.1305
  428MOL0     C57702   8.479   4.267   6.448 -0.3484  0.0352 -0.4866
  428MOL0     O57703   8.424   4.285   6.570 -0.2495 -0.5315  0.5770
  428MOL0     C57704   8.469   4.219   6.685 -0.9720 -0.1495  0.4960
  428MOL0     C57705   8.348   4.161   6.760 -0.4666 -0.5687  0.8700
  428MOL0     C57706   8.287   4.264   6.854  1.2602  0.4653  0.8828
  428MOL0     C57707   8.192   4.366   6.786 -0.1394  0.8414  0.2247
  428MOL0     C57708   8.137   4.456   6.887  0.1946  0.7979 -0.2122
  428MOL0     C57709   8.068   4.520   6.971 -0.0058 -0.5745  0.1259
  428MOL0     C57710   8.610   4.218   6.417  0.5436 -0.4132 -0.3664
  428MOL0     C57711   8.649   4.193   6.281 -0.6263  0.5622  0.0437
  428MOL0     C57712   8.771   4.109   6.254 -0.4111  0.0579  0.4701
  428MOL0     H57713   8.609   4.367   5.750  1.7030 -1.1728  1.7071
  428MOL0     H57714   8.633   4.293   5.523 -1.9423  0.8969 -1.0473
  428MOL0     H57715   8.832   4.069   5.421 -0.5058 -1.2724  0.1367
  428MOL0     H57716   8.770   3.960   5.550 -1.0656 -1.3614  0.7464
  428MOL0     H57717   8.762   3.927   5.249 -0.3091 -0.3722 -0.6669
  428MOL0     H57718   8.705   3.804   5.366  1.7236 -1.2524  2.0999
  428MOL0     H57719   8.944   3.779   5.448 -3.8384  1.0045  2.7457
  428MOL0     H57720   8.972   3.913   5.328 -2.0727  0.6271 -0.9764
  428MOL0     H57721   8.909   3.794   5.148 -1.1328 -2.2997 -1.3584
  428MOL0     H57722   9.040   3.689   5.220  0.0272 -0.8036 -3.1311
  428MOL0     H57723   8.742   3.642   5.204  0.0219 -0.4174  2.2290
  428MOL0     H57724   8.859   3.564   5.122 -1.1650  0.2002 -0.0504
  428MOL0     H57725   8.944   3.444   5.331  1.6879  2.2431  0.8024
  428MOL0     H57726   8.849   3.552   5.422  0.4161  3.8900 -1.9302
  428MOL0     H57727   8.751   3.362   5.218  1.6877 -1.2195  0.7773
  428MOL0     H57728   8.641   3.470   5.312 -0.5684 -0.3937 -1.5970
  428MOL0     H57729   8.732   3.370   5.511 -1.3143  0.5073 -0.6454
  428MOL0     H57730   8.642   3.249   5.422  0.1426  0.2634  0.9745
  428MOL0     H57731   8.834   3.063   5.250  0.4192 -3.8014  2.3586
  428MOL0     H57732   9.020   2.864   5.299 -1.8377  0.8484 -0.8848
  428MOL0     H57733   9.139   2.975   5.245  1.8608 -1.4592  0.6730
  428MOL0     H57734   9.278   2.935   5.443  1.9874 -2.3768 -2.4359
  428MOL0     H57735   9.128   2.876   5.533 -3.1500  1.7706 -1.0183
  428MOL0     H57736   9.270   2.751   5.286 -1.7976 -4.2073 -2.3907
  428MOL0     H57737   9.135   2.673   5.355  1.4133 -2.1469 -1.1091
  428MOL0     H57738   9.265   2.639   5.565  2.3226  1.1873  0.7837
  428MOL0     H57739   9.404   2.729   5.501  2.3337 -2.7728 -0.5407
  428MOL0     H57740   9.472   2.525   5.650 -0.0737 -1.9125  0.6330
  428MOL0     H57741   9.697   2.434   5.695  2.4413 -1.5333 -1.8556
  428MOL0     H57742  10.036   2.200   5.617 -1.0655  0.1880  1.7767
  428MOL0     H57743  10.256   2.135   5.715 -0.0492  0.2433 -2.9530
  428MOL0     H57744  10.407   2.110   5.907 -0.3041  0.7605  1.6233
  428MOL0     H57745  10.497   2.181   5.769 -0.2619  0.3381  0.4477
  428MOL0     H57746  10.558   2.189   6.068 -0.1016 -3.3215  0.3939
  428MOL0     H57747  10.656   2.099   5.951  0.0627  1.2729 -0.5603
  428MOL0     H57748  10.752   2.302   5.849  0.3600  1.6603 -0.7432
  428MOL0     H57749  10.625   2.396   5.940  0.5411 -1.3484  0.6080
  428MOL0     H57750  10.859   2.241   6.062  0.8870  0.8993 -3.6284
  428MOL0     H57751  10.749   2.355   6.139 -2.6324 -0.4802 -1.7761
  428MOL0     H57752  10.828   2.517   5.957 -1.2726 -1.4003 -1.1162
  428MOL0     H57753  10.951   2.414   5.903  1.3038  1.4013  0.1500
  428MOL0     H57754  10.947   2.551   6.178  2.9618 -0.8255  1.8972
  428MOL0     H57755  11.058   2.423   6.135 -0.8879 -0.8375 -0.2523
  428MOL0     H57756  11.125   2.650   6.123  1.2674  1.0128 -1.6084
  428MOL0     H57757  11.025   2.687   5.978 -1.8848 -2.5225 -1.3888
  428MOL0     H57758  11.133   2.484   5.876  1.0491 -2.1750  0.4308
  428MOL0     H57759  11.234   2.638   5.874  1.7645  1.0200  2.6121
  428MOL0     H57760  10.267   2.514   5.924 -1.7941  2.9308 -0.9220
  428MOL0     H57761  10.066   2.576   5.836 -1.6121 -0.2374  0.4592
  428MOL0     H57762   9.779   2.421   5.276  1.6533  1.1263  1.3476
  428MOL0     H57763   9.544   2.507   5.229  0.4097  2.7076 -0.2711
  428MOL0     H57764   8.510   3.906   5.607  2.2504 -0.2200  1.5326
  428MOL0     H57765   8.459   4.005   5.865 -1.3874 -1.3683 -0.7468
  428MOL0     H57766   8.375   4.310   6.134  1.1957 -0.2614 -0.2563
  428MOL0     H57767   8.309   4.365   6.356  0.5650  1.3093  0.0368
  428MOL0     H57768   8.535   4.280   6.746 -0.0686  0.2075 -0.7862
  428MOL0     H57769   8.539   4.138   6.662  0.9216  1.0809  1.6053
  428MOL0     H57770   8.367   4.074   6.823 -0.3612 -1.7772 -0.7863
  428MOL0     H57771   8.277   4.126   6.685  0.1797 -0.3091  0.1242
  428MOL0     H57772   8.357   4.324   6.913  1.5323  1.3812 -0.3451
  428MOL0     H57773   8.224   4.199   6.916  0.3928 -0.7722 -1.1679
  428MOL0     H57774   8.254   4.423   6.717 -0.4495  1.2281  0.2579
  428MOL0     H57775   8.107   4.316   6.738  0.1193  0.4646  0.1566
  428MOL0     H57776   8.001   4.558   7.045  3.1675 -0.1419  3.0320
  428MOL0     H57777   8.683   4.180   6.489  0.0118 -0.4832  0.1448
  428MOL0     H57778   8.850   4.162   6.199 -0.6789  1.1730  1.1208
  428MOL0     H57779   8.820   4.081   6.347 -0.0657  1.5608  0.7735
  428MOL0     H57780   8.742   4.018   6.201  0.4421 -0.1560  0.3600
  429MOL0     O57781   1.874   5.646  10.387 -0.9217  0.0486  0.5184
  429MOL0     C57782   1.948   5.672  10.286 -0.6064  1.0119  0.2057
  429MOL0     O57783   1.991   5.793  10.252 -0.3059  0.3366  0.3053
  429MOL0     C57784   1.930   5.901  10.290 -0.1371 -0.3997  0.3576
  429MOL0     C57785   2.010   6.016  10.323 -0.3591 -0.5921  0.8804
  429MOL0     C57786   1.958   6.126  10.389  0.4339 -0.2059 -0.5337
  429MOL0     C57787   1.815   6.136  10.400  0.0543 -0.2405  1.3378
  429MOL0     O57788   1.746   6.237  10.460 -0.3299  0.1107  0.7753
  429MOL0     C57789   1.818   6.365  10.492  0.2245  0.6617  0.1458
  429MOL0     C57790   1.839   6.436  10.360 -0.1486  0.2945  0.0595
  429MOL0     C57791   1.895   6.586  10.378  0.3729  0.6090  0.5609
  429MOL0     C57792   1.903   6.649  10.240 -0.7281  0.3753  0.3115
  429MOL0     C57793   2.005   6.762  10.227  0.3086  0.8583 -0.2724
  429MOL0     C57794   2.159   6.706  10.229  0.1053  0.6145 -0.0638
  429MOL0     C57795   2.264   6.804  10.195 -0.1341  0.1651 -0.0443
  429MOL0     C57796   2.273   6.923  10.288 -0.1365 -0.1863  0.0249
  429MOL0     N57797   2.247   7.054  10.222 -0.6326  0.2849 -0.5295
  429MOL0     C57798   2.121   7.113  10.224 -1.0464  0.4608 -0.1742
  429MOL0     C57799   2.151   7.228  10.158  0.2918  0.4601 -0.4353
  429MOL0     C57800   2.048   7.313  10.098 -0.3343 -0.6434  1.2708
  429MOL0     C57801   2.085   7.459  10.060 -0.6327  1.1862 -0.0664
  429MOL0     C57802   2.194   7.490   9.949 -0.4604 -0.7134  0.0030
  429MOL0     C57803   2.183   7.632   9.905 -0.6163 -0.1229 -0.7305
  429MOL0     O57804   2.221   7.729  10.002 -0.4394 -0.0021 -0.0827
  429MOL0     C57805   2.355   7.764  10.020  0.1577 -0.4360 -0.4694
  429MOL0     C57806   2.460   7.737   9.938  0.5543  1.1390 -0.7161
  429MOL0     C57807   2.586   7.765   9.971  0.6118 -0.0139 -0.3731
  429MOL0     C57808   2.618   7.827  10.092 -0.2769  0.5360  0.5314
  429MOL0     C57809   2.761   7.849  10.135 -0.0992 -0.1468 -0.5785
  429MOL0     O57810   2.773   7.890  10.265  1.0308 -0.9038 -0.2907
  429MOL0     C57811   2.886   7.953  10.324  0.2339  0.0115 -0.3287
  429MOL0     C57812   3.003   7.979  10.247  0.1426 -0.0642 -0.2581
  429MOL0     C57813   3.119   8.016  10.316 -0.0013  1.0281 -0.5004
  429MOL0     C57814   3.129   8.017  10.458 -0.2159 -0.0860 -1.0842
  429MOL0     O57815   3.247   8.039  10.523 -0.3025 -0.5285 -0.0091
  429MOL0     C57816   3.333   7.920  10.521  0.0846 -0.0919  0.1945
  429MOL0     C57817   3.422   7.931  10.648  0.4898 -0.4346  0.7961
  429MOL0     C57818   3.340   7.923  10.778  0.2852 -0.4381  0.0708
  429MOL0     C57819   3.406   7.993  10.901 -0.3730  0.0956 -0.9729
  429MOL0     C57820   3.318   7.992  11.024 -0.6171  0.0214  0.2392
  429MOL0     C57821   3.410   8.004  11.143  0.1190 -0.3443  0.2552
  429MOL0     C57822   3.341   8.049  11.279  0.5034  0.4022  0.2584
  429MOL0     C57823   3.427   8.067  11.400  0.0412 -0.0205 -0.2786
  429MOL0    Cl57824   3.563   8.185  11.352 -0.1680  0.1976 -0.3827
  429MOL0     C57825   3.016   7.981  10.537  0.1868 -0.6082 -0.4965
  429MOL0     C57826   2.893   7.960  10.466 -0.1605 -0.3486  0.4483
  429MOL0     O57827   2.856   7.835  10.057  0.1356  0.0021 -0.0133
  429MOL0     C57828   2.510   7.870  10.174 -0.0024  0.5417  0.0701
  429MOL0     C57829   2.381   7.832  10.142  0.1957  0.1357 -0.1925
  429MOL0     N57830   2.282   7.250  10.144 -0.8642 -0.0236  0.3630
  429MOL0     N57831   2.342   7.147  10.190 -0.1797  0.1599 -0.5297
  429MOL0     C57832   1.733   6.031  10.361 -0.6080 -0.0352  0.5363
  429MOL0     C57833   1.790   5.917  10.304 -0.2161 -1.3763  0.6090
  429MOL0     C57834   2.010   5.551  10.234 -0.1293 -0.1218 -0.1135
  429MOL0     C57835   2.024   5.433  10.319 -0.3343  0.2875  0.1508
  429MOL0     C57836   2.079   5.319  10.255 -0.0782  0.9140 -0.9538
  429MOL0     C57837   2.126   5.325  10.115 -0.7439 -0.6053 -0.6325
  429MOL0     O57838   2.171   5.206  10.063  0.2895 -0.1705 -0.8998
  429MOL0     C57839   2.216   5.194   9.922  0.1707  0.4840  0.1079
  429MOL0     C57840   2.251   5.053   9.881 -0.6455  0.4219 -0.3190
  429MOL0     C57841   2.327   4.978   9.993  0.0975  0.5341 -0.0336
  429MOL0     C57842   2.455   5.056  10.029  0.7062  0.3730 -0.2593
  429MOL0     C57843   2.525   4.999  10.145  0.1349 -0.8846 -0.1587
  429MOL0     C57844   2.595   4.944  10.231 -0.9785 -0.7502  0.6371
  429MOL0     C57845   2.103   5.436  10.041 -0.0329 -0.3482  0.7959
  429MOL0     C57846   2.046   5.544  10.096  0.4078  0.1984  0.5424
  429MOL0     C57847   2.022   5.652   9.999 -0.2613  0.4502  0.5315
  429MOL0     H57848   2.117   5.998  10.327 -0.3920 -0.6172  1.9709
  429MOL0     H57849   2.023   6.204  10.430  1.3579  0.5846 -3.2471
  429MOL0     H57850   1.764   6.433  10.558 -1.1903 -0.7531  0.5224
  429MOL0     H57851   1.909   6.350  10.550 -0.0658  3.3865  1.4585
  429MOL0     H57852   1.741   6.436  10.311 -1.5959 -2.8597  2.6142
  429MOL0     H57853   1.916   6.379  10.308  0.8428 -0.6296  2.4188
  429MOL0     H57854   1.996   6.569  10.415  0.1895 -0.2664  0.6788
  429MOL0     H57855   1.830   6.648  10.440  1.4502  4.4861 -1.8404
  429MOL0     H57856   1.939   6.571  10.172  0.6891  0.3776  1.0231
  429MOL0     H57857   1.804   6.671  10.201 -1.6301 -2.0005  1.0582
  429MOL0     H57858   2.004   6.798  10.124 -2.0592 -0.2113 -0.6840
  429MOL0     H57859   1.999   6.837  10.306 -0.4247 -1.2964  1.8577
  429MOL0     H57860   2.192   6.654  10.319 -2.2910  0.6107  0.8897
  429MOL0     H57861   2.156   6.628  10.153 -0.0574 -0.2295  0.7935
  429MOL0     H57862   2.256   6.824  10.087  2.8092 -2.8993 -1.0150
  429MOL0     H57863   2.360   6.752  10.187  1.5277  3.1676 -1.0959
  429MOL0     H57864   2.204   6.902  10.370  0.1438  0.3947  0.4185
  429MOL0     H57865   2.363   6.951  10.344 -1.1332  1.0518  1.1009
  429MOL0     H57866   2.025   7.072  10.253 -1.1080 -0.2982 -1.4264
  429MOL0     H57867   2.019   7.275  10.000  4.5443 -0.1243 -0.6361
  429MOL0     H57868   1.967   7.320  10.171  0.1685 -0.5718  1.8246
  429MOL0     H57869   1.992   7.505  10.027  1.3182  3.3679 -3.1226
  429MOL0     H57870   2.113   7.509  10.153  1.8140  0.6577 -0.4415
  429MOL0     H57871   2.174   7.422   9.866  0.7899 -2.0415  0.7390
  429MOL0     H57872   2.297   7.469   9.980  0.5198  1.7332 -1.3402
  429MOL0     H57873   2.076   7.643   9.882 -1.1763 -0.1804  1.5889
  429MOL0     H57874   2.246   7.645   9.816  1.6395 -0.2803  0.7650
  429MOL0     H57875   2.439   7.692   9.841 -0.7266 -1.4043  0.6605
  429MOL0     H57876   2.661   7.740   9.897 -1.8464  0.4223 -3.2045
  429MOL0     H57877   3.015   7.986  10.140 -1.3699 -1.0797 -0.5104
  429MOL0     H57878   3.212   8.032  10.263  1.2575  1.9233  1.8271
  429MOL0     H57879   3.271   7.829  10.524  0.6534 -0.6672 -2.9212
  429MOL0     H57880   3.404   7.923  10.439  1.8266  3.2420  1.6289
  429MOL0     H57881   3.496   7.853  10.665  0.2077 -0.2672  3.0838
  429MOL0     H57882   3.468   8.030  10.635  0.0713 -0.2091  0.9869
  429MOL0     H57883   3.246   7.974  10.756  1.0057  2.1172  2.2826
  429MOL0     H57884   3.317   7.818  10.797  0.3276 -0.6958 -1.2026
  429MOL0     H57885   3.422   8.097  10.871  0.4395  0.2725 -0.0127
  429MOL0     H57886   3.498   7.938  10.921  0.3067  1.9507  1.4481
  429MOL0     H57887   3.261   7.900  11.036 -0.0336 -0.6136 -1.5243
  429MOL0     H57888   3.249   8.077  11.031  0.4718  0.8719  1.2416
  429MOL0     H57889   3.467   7.912  11.160  0.1219 -0.1542  1.3296
  429MOL0     H57890   3.482   8.084  11.123  0.5292 -0.9894 -0.9678
  429MOL0     H57891   3.252   7.988  11.294  0.1934  1.0037  0.9252
  429MOL0     H57892   3.299   8.149  11.266  1.3793  0.5686 -1.5986
  429MOL0     H57893   3.375   8.096  11.491 -0.1120 -1.8026  0.2292
  429MOL0     H57894   3.480   7.979  11.438  0.5659  0.7933  0.9676
  429MOL0     H57895   3.017   7.986  10.645  1.0170  1.5391 -0.5714
  429MOL0     H57896   2.807   7.944  10.530 -0.2464  0.6780  0.6141
  429MOL0     H57897   2.519   7.932  10.262 -0.3489  3.5570 -1.8560
  429MOL0     H57898   2.290   7.847  10.199 -0.8671 -3.1087 -0.8302
  429MOL0     H57899   1.625   6.029  10.372 -1.3987  0.6961 -4.4972
  429MOL0     H57900   1.723   5.835  10.279 -1.9760  0.8856 -3.0128
  429MOL0     H57901   2.017   5.425  10.427 -0.6280 -0.7995  0.0624
  429MOL0     H57902   2.099   5.226  10.308  1.1117  1.8743  0.3459
  429MOL0     H57903   2.295   5.265   9.898 -0.4915  0.3301 -2.9214
  429MOL0     H57904   2.138   5.217   9.850  0.5392 -1.8090 -1.1135
  429MOL0     H57905   2.311   5.063   9.790  0.8655  4.5836  0.8665
  429MOL0     H57906   2.161   4.994   9.859  0.4255 -1.0868 -0.7870
  429MOL0     H57907   2.357   4.877   9.963 -3.3158 -0.3115 -1.0809
  429MOL0     H57908   2.254   4.971  10.074 -2.4635 -1.3718 -2.2891
  429MOL0     H57909   2.525   5.055   9.944  0.4066 -0.9802 -0.5190
  429MOL0     H57910   2.439   5.160  10.057  1.0844 -0.4448  3.3842
  429MOL0     H57911   2.659   4.891  10.299  0.4833 -2.6194 -1.9676
  429MOL0     H57912   2.149   5.455   9.944  2.2271  0.7599  2.0140
  429MOL0     H57913   2.001   5.617   9.898 -3.0508 -1.0072  1.5323
  429MOL0     H57914   1.930   5.695  10.038  0.0621 -0.2289  2.1205
  429MOL0     H57915   2.096   5.733   9.990 -0.5219  0.7074  0.7024
  430MOL0     O57916   4.005   2.900   7.211 -0.3448  0.1377  0.3206
  430MOL0     C57917   3.894   2.873   7.167  0.0296  0.5026 -0.3820
  430MOL0     O57918   3.814   2.952   7.092 -0.0572 -0.1390  0.3328
  430MOL0     C57919   3.843   3.084   7.059 -0.3030  0.0928  0.2089
  430MOL0     C57920   3.751   3.152   6.984 -0.2964  0.6773  0.6196
  430MOL0     C57921   3.774   3.280   6.942 -0.0508  0.0467  1.1757
  430MOL0     C57922   3.892   3.347   6.968 -0.0408 -0.1069 -0.3825
  430MOL0     O57923   3.891   3.484   6.946  0.4664  0.5459  0.0734
  430MOL0     C57924   4.010   3.540   6.894  0.5948  0.1608  0.6293
  430MOL0     C57925   4.060   3.487   6.758 -0.8271  0.4710  0.3815
  430MOL0     C57926   4.186   3.552   6.713  0.2325 -0.2486 -0.2274
  430MOL0     C57927   4.198   3.611   6.567 -0.6798  0.0968  0.6615
  430MOL0     C57928   4.331   3.696   6.572 -0.3948 -0.2397  0.5742
  430MOL0     C57929   4.362   3.779   6.443 -0.5902 -0.1112 -0.9082
  430MOL0     C57930   4.477   3.894   6.465 -0.0489  0.1012 -0.6039
  430MOL0     C57931   4.597   3.836   6.540 -0.1054  0.3313  0.3818
  430MOL0     N57932   4.713   3.927   6.554  0.7109  0.9315  0.6388
  430MOL0     C57933   4.705   4.054   6.592 -0.4693  0.4141 -0.4489
  430MOL0     C57934   4.831   4.094   6.606 -0.4465  0.4266  0.6398
  430MOL0     C57935   4.865   4.233   6.639 -0.1707 -0.1009 -0.5688
  430MOL0     C57936   4.855   4.332   6.528  0.0340  0.6394  0.0866
  430MOL0     C57937   4.912   4.273   6.398 -1.0725 -0.0222 -0.2505
  430MOL0     C57938   5.060   4.243   6.419  0.4370  0.1582  0.3099
  430MOL0     O57939   5.111   4.223   6.282  0.4304  0.1337  0.1301
  430MOL0     C57940   5.189   4.316   6.227 -0.4457 -0.7270 -0.1953
  430MOL0     C57941   5.196   4.453   6.239 -0.4909 -0.4453  0.3122
  430MOL0     C57942   5.287   4.549   6.182  0.0939  0.2168 -1.5554
  430MOL0     C57943   5.391   4.486   6.099 -0.5100 -0.4491 -0.3441
  430MOL0     C57944   5.499   4.572   6.053  0.5984 -0.3882 -0.1330
  430MOL0     O57945   5.493   4.706   6.085  0.6992  0.1051  0.0134
  430MOL0     C57946   5.571   4.778   5.996  0.5535 -0.0308 -0.3725
  430MOL0     C57947   5.696   4.826   6.034 -0.1643 -0.1975  0.7434
  430MOL0     C57948   5.765   4.911   5.950  0.0232 -0.2700 -0.0267
  430MOL0     C57949   5.719   4.951   5.822  0.0660  0.1290 -0.5955
  430MOL0     O57950   5.784   5.023   5.732 -0.2011 -0.6777 -0.2880
  430MOL0     C57951   5.869   5.131   5.773  0.5779  0.8837  0.4749
  430MOL0     C57952   5.942   5.177   5.637  0.1117  0.7597 -0.5127
  430MOL0     C57953   5.825   5.210   5.539  0.0005 -0.1229  0.0046
  430MOL0     C57954   5.868   5.313   5.434  0.9131  0.1562  0.6945
  430MOL0     C57955   5.763   5.334   5.319  0.3947 -0.3221  0.1540
  430MOL0     C57956   5.822   5.440   5.225 -0.2322 -0.3787  0.3134
  430MOL0     C57957   5.739   5.443   5.095 -1.0073  0.3419 -0.0329
  430MOL0     C57958   5.753   5.584   5.020  0.2101 -0.1933 -0.3676
  430MOL0    Cl57959   5.934   5.613   5.002 -0.4529 -0.3444 -0.3110
  430MOL0     C57960   5.596   4.895   5.782  0.3197  0.4573  0.2557
  430MOL0     C57961   5.519   4.820   5.877 -0.2805  0.2799  0.4655
  430MOL0     O57962   5.595   4.522   5.994 -0.6612  0.1604  0.2837
  430MOL0     C57963   5.379   4.346   6.081 -0.6781 -0.9466 -1.2406
  430MOL0     C57964   5.284   4.264   6.142  0.8238  0.6379  0.8453
  430MOL0     N57965   4.907   3.990   6.557 -0.1723 -0.3952 -0.2243
  430MOL0     N57966   4.835   3.885   6.536  0.4143  0.2863  0.3436
  430MOL0     C57967   3.995   3.293   7.040 -0.2977  0.5549  0.4989
  430MOL0     C57968   3.965   3.163   7.087 -0.6991 -0.0582  0.0910
  430MOL0     C57969   3.835   2.742   7.212 -0.2248 -0.0344  0.7974
  430MOL0     C57970   3.727   2.690   7.129  0.1951 -0.4738  0.7749
  430MOL0     C57971   3.643   2.578   7.166 -0.7990 -0.9130  0.6929
  430MOL0     C57972   3.679   2.511   7.281 -0.1211 -0.7290  0.6356
  430MOL0     O57973   3.601   2.401   7.300 -0.7422  0.1432  0.1534
  430MOL0     C57974   3.599   2.344   7.434 -0.7095 -0.0331 -0.5349
  430MOL0     C57975   3.512   2.230   7.443  0.0713  0.2133  0.1055
  430MOL0     C57976   3.525   2.170   7.586 -0.2643 -0.1769 -0.5029
  430MOL0     C57977   3.629   2.054   7.609 -0.3037 -0.0958  0.5199
  430MOL0     C57978   3.665   2.070   7.750 -0.1026  0.0023  0.6333
  430MOL0     C57979   3.710   2.064   7.864  0.5387 -0.4926 -0.5776
  430MOL0     C57980   3.782   2.558   7.356 -0.5060 -0.0441 -0.2558
  430MOL0     C57981   3.865   2.673   7.324  0.7090 -0.1744 -0.7810
  430MOL0     C57982   3.965   2.716   7.424  0.2205  0.1707 -0.0119
  430MOL0     H57983   3.667   3.098   6.942 -1.9015  3.7115 -0.3990
  430MOL0     H57984   3.695   3.333   6.890  0.7900  1.7270  1.5601
  430MOL0     H57985   3.992   3.648   6.887 -1.4297 -0.1636  0.2151
  430MOL0     H57986   4.088   3.526   6.969 -1.4082 -2.7568  2.3990
  430MOL0     H57987   3.971   3.489   6.696 -0.2185 -1.5556 -0.6485
  430MOL0     H57988   4.078   3.380   6.746 -0.4772  0.5311  0.3404
  430MOL0     H57989   4.275   3.491   6.724  1.3898  1.4627  0.2580
  430MOL0     H57990   4.204   3.633   6.784 -1.2432  1.8655 -2.0820
  430MOL0     H57991   4.196   3.544   6.480 -0.1103  3.8547 -2.5152
  430MOL0     H57992   4.116   3.680   6.551 -0.8459 -0.1805  0.3044
  430MOL0     H57993   4.313   3.763   6.657 -0.5847  0.8072 -0.2652
  430MOL0     H57994   4.418   3.634   6.594 -2.3462 -2.4088  2.9233
  430MOL0     H57995   4.411   3.706   6.378 -1.5731 -0.3716 -1.3642
  430MOL0     H57996   4.272   3.820   6.396  1.4203  2.3777 -2.8535
  430MOL0     H57997   4.428   3.975   6.520  0.2875 -0.1056  0.0125
  430MOL0     H57998   4.500   3.934   6.366  0.2920  3.5224  0.7101
  430MOL0     H57999   4.574   3.810   6.643 -0.6720  2.3795  0.8246
  430MOL0     H58000   4.638   3.749   6.488  2.5641 -0.5913  3.6308
  430MOL0     H58001   4.610   4.102   6.613  0.2019  1.9451 -0.8087
  430MOL0     H58002   4.795   4.275   6.712  2.0320  1.5458  0.7186
  430MOL0     H58003   4.963   4.238   6.687  0.0162 -0.3284 -0.9330
  430MOL0     H58004   4.747   4.344   6.512 -0.1206  0.5582  1.0235
  430MOL0     H58005   4.903   4.427   6.551  0.3823  0.8817 -1.4961
  430MOL0     H58006   4.896   4.344   6.316  2.7207  0.6566 -0.6275
  430MOL0     H58007   4.854   4.187   6.362 -0.5572 -1.1427  1.4548
  430MOL0     H58008   5.061   4.143   6.462  0.6879 -1.6674 -3.4707
  430MOL0     H58009   5.113   4.320   6.475  2.7567 -1.2846  0.2162
  430MOL0     H58010   5.107   4.489   6.290 -1.1222 -0.5051 -0.7093
  430MOL0     H58011   5.272   4.657   6.183 -2.1341 -0.0045  0.7099
  430MOL0     H58012   5.732   4.818   6.136  3.6484  2.2627 -0.2246
  430MOL0     H58013   5.860   4.948   5.986  0.1764 -1.7862  1.2127
  430MOL0     H58014   5.800   5.209   5.806 -0.1165 -0.0512  1.2897
  430MOL0     H58015   5.944   5.104   5.849 -1.1234 -0.9015  1.6184
  430MOL0     H58016   6.007   5.263   5.657 -1.7843  2.2474 -0.4064
  430MOL0     H58017   6.002   5.089   5.615 -0.1800  1.0500 -2.7033
  430MOL0     H58018   5.803   5.113   5.493  0.3309 -0.3963  0.4268
  430MOL0     H58019   5.729   5.246   5.577 -0.3369  2.3297 -2.7690
  430MOL0     H58020   5.965   5.289   5.388  1.2428  3.8115 -0.8026
  430MOL0     H58021   5.884   5.406   5.489  1.0421 -0.2487  1.3607
  430MOL0     H58022   5.663   5.356   5.357 -0.0472 -2.3499  0.3006
  430MOL0     H58023   5.762   5.239   5.265  3.2060 -0.7822  0.7614
  430MOL0     H58024   5.824   5.535   5.280 -2.9090 -0.4775  0.7614
  430MOL0     H58025   5.925   5.432   5.191  0.6450  3.5201  1.5480
  430MOL0     H58026   5.634   5.434   5.126 -0.7406 -0.8420  0.5778
  430MOL0     H58027   5.759   5.369   5.017  0.7820  0.5907  0.1489
  430MOL0     H58028   5.702   5.565   4.925  0.2963 -1.6822 -0.1433
  430MOL0     H58029   5.717   5.665   5.084 -0.6708  0.1611 -1.2860
  430MOL0     H58030   5.551   4.924   5.688 -1.1471 -4.7209 -0.9601
  430MOL0     H58031   5.424   4.784   5.839  1.8600 -0.8797 -4.6205
  430MOL0     H58032   5.459   4.299   6.025  0.6649  1.7853 -1.7851
  430MOL0     H58033   5.289   4.157   6.125  1.7963  0.9133 -0.8050
  430MOL0     H58034   4.089   3.335   7.074 -0.8939  2.7656 -0.4292
  430MOL0     H58035   4.048   3.117   7.139  1.2093  1.7772 -1.1822
  430MOL0     H58036   3.705   2.730   7.030 -2.4400  0.5981  1.6968
  430MOL0     H58037   3.557   2.553   7.105 -0.1823  1.0323 -1.0705
  430MOL0     H58038   3.575   2.423   7.506  3.4828  1.5869 -0.6477
  430MOL0     H58039   3.701   2.318   7.466 -0.2659  2.1751  0.0122
  430MOL0     H58040   3.544   2.156   7.369  1.0083  0.4075  0.3082
  430MOL0     H58041   3.407   2.258   7.433  0.3862  1.8006  0.9299
  430MOL0     H58042   3.429   2.119   7.602  0.0182 -0.6021 -0.1273
  430MOL0     H58043   3.548   2.248   7.658 -2.4825  1.4513 -1.4381
  430MOL0     H58044   3.580   1.958   7.590 -3.0119  1.1664  0.7139
  430MOL0     H58045   3.721   2.072   7.553 -0.2502  2.2555  1.2639
  430MOL0     H58046   3.739   2.076   7.967 -1.8000 -1.2207  0.2324
  430MOL0     H58047   3.782   2.515   7.455  0.1463 -0.1857 -0.3142
  430MOL0     H58048   3.916   2.804   7.467  0.5487  1.5323 -2.2818
  430MOL0     H58049   3.997   2.647   7.503  0.4757  0.3165  0.0139
  430MOL0     H58050   4.066   2.737   7.386  0.0899  0.9626  0.0586
  431MOL0     O58051   6.452  11.294   6.109 -0.0820  0.1492 -0.8635
  431MOL0     C58052   6.473  11.181   6.107 -0.8804  0.7816 -0.5834
  431MOL0     O58053   6.597  11.123   6.126  0.1876  0.4648 -0.0788
  431MOL0     C58054   6.701  11.219   6.144 -0.1243 -0.1558 -1.3865
  431MOL0     C58055   6.724  11.316   6.048  0.1610 -1.1036  0.1468
  431MOL0     C58056   6.825  11.408   6.073  0.3843 -0.3067  0.4549
  431MOL0     C58057   6.907  11.397   6.182 -0.7275  0.1858  0.2295
  431MOL0     O58058   7.016  11.488   6.195 -0.2913  0.7337  0.3659
  431MOL0     C58059   7.000  11.585   6.300  0.6857  0.6063 -0.0163
  431MOL0     C58060   7.098  11.699   6.292 -0.5862  0.0745 -0.7594
  431MOL0     C58061   7.081  11.775   6.153  0.4314  0.0379  0.0908
  431MOL0     C58062   7.193  11.872   6.130 -0.7314  0.0721  0.5644
  431MOL0     C58063   7.163  11.936   5.993  0.5263 -0.1202 -1.1020
  431MOL0     C58064   7.194  11.856   5.862 -0.2731 -0.4833  0.7158
  431MOL0     C58065   7.345  11.852   5.845  0.6933 -0.2531  0.5462
  431MOL0     C58066   7.388  11.782   5.715 -0.2484 -0.3712  0.7196
  431MOL0     N58067   7.526  11.737   5.690 -0.4731 -0.1706  0.4753
  431MOL0     C58068   7.637  11.774   5.773 -0.8223  0.5060 -0.2184
  431MOL0     C58069   7.744  11.726   5.694  0.4303  0.5906  0.1910
  431MOL0     C58070   7.873  11.746   5.750 -0.2270  0.2609 -0.3629
  431MOL0     C58071   7.925  11.627   5.829  0.3972 -0.5539  0.6047
  431MOL0     C58072   7.831  11.589   5.940  0.2607 -1.3459 -0.3063
  431MOL0     C58073   7.899  11.481   6.027  0.0490  0.1751  0.5949
  431MOL0     O58074   8.015  11.531   6.082 -0.4033  0.4172 -0.9447
  431MOL0     C58075   8.090  11.450   6.166  0.1544  0.7875 -0.7296
  431MOL0     C58076   8.180  11.517   6.254 -0.9964 -0.4741  0.7421
  431MOL0     C58077   8.276  11.440   6.324  0.5853  0.1808  0.1473
  431MOL0     C58078   8.261  11.303   6.331  0.3250 -0.1685 -0.0849
  431MOL0     C58079   8.354  11.216   6.417  0.8758  1.2532  0.0024
  431MOL0     O58080   8.332  11.082   6.421  0.0826  0.1025  0.0528
  431MOL0     C58081   8.394  10.994   6.517  0.4749 -0.0439  0.4963
  431MOL0     C58082   8.307  10.891   6.564  0.2443 -0.8322  0.1650
  431MOL0     C58083   8.344  10.794   6.657 -0.1155 -0.6780  0.1029
  431MOL0     C58084   8.481  10.791   6.699 -0.4328  0.1931 -0.7869
  431MOL0     O58085   8.518  10.710   6.801 -0.0127  0.2060  0.0263
  431MOL0     C58086   8.657  10.696   6.831 -0.7019 -0.3025  1.0001
  431MOL0     C58087   8.721  10.588   6.743  0.4764 -0.0653 -0.7563
  431MOL0     C58088   8.869  10.585   6.763  0.3919  0.8743  0.3848
  431MOL0     C58089   8.917  10.545   6.900  0.1879  0.6601  0.6664
  431MOL0     C58090   9.065  10.587   6.931 -0.7782  0.0641  0.2331
  431MOL0     C58091   9.076  10.731   6.960 -0.3467  0.6617  0.6139
  431MOL0     C58092   8.982  10.796   7.067  0.5816 -0.2716 -0.0606
  431MOL0     C58093   9.068  10.866   7.174  0.5659 -0.3298 -0.1235
  431MOL0    Cl58094   8.958  10.954   7.290  0.2630  0.1524  0.8420
  431MOL0     C58095   8.572  10.891   6.660 -0.6802  0.7429 -0.9983
  431MOL0     C58096   8.530  10.976   6.561 -0.0537 -0.1742  0.2884
  431MOL0     O58097   8.439  11.275   6.481 -0.0094  0.3465  0.2408
  431MOL0     C58098   8.162  11.241   6.257  0.9874 -0.7017  0.1922
  431MOL0     C58099   8.071  11.312   6.174 -0.3624 -0.4739  0.4191
  431MOL0     N58100   7.696  11.643   5.592  0.6155 -0.1264  0.6605
  431MOL0     N58101   7.562  11.644   5.594 -0.2444  0.1287  0.0714
  431MOL0     C58102   6.880  11.296   6.270  0.1393 -0.0361  0.2755
  431MOL0     C58103   6.773  11.211   6.259  0.0150 -0.5830  0.8960
  431MOL0     C58104   6.368  11.084   6.095  0.4065 -0.4182  0.1110
  431MOL0     C58105   6.359  10.974   6.180 -0.1749 -0.4829 -0.6191
  431MOL0     C58106   6.259  10.883   6.160 -0.2397 -1.2632  0.1454
  431MOL0     C58107   6.164  10.893   6.059 -0.3243 -0.2025  0.3180
  431MOL0     O58108   6.068  10.793   6.030 -0.4566  0.9816  0.7680
  431MOL0     C58109   6.021  10.702   6.137  0.1915 -0.4350 -0.3022
  431MOL0     C58110   6.079  10.572   6.123  0.3496 -0.5036 -0.4368
  431MOL0     C58111   6.053  10.481   6.244 -0.5600 -0.0523 -0.2036
  431MOL0     C58112   6.160  10.469   6.349 -0.4063 -0.3771  0.0683
  431MOL0     C58113   6.276  10.394   6.301 -0.6550 -0.3494  0.6729
  431MOL0     C58114   6.380  10.348   6.247  0.7511 -0.2213 -0.0413
  431MOL0     C58115   6.164  11.006   5.979 -0.3365  0.0454 -0.1607
  431MOL0     C58116   6.266  11.108   5.995 -0.3206  0.6264 -0.1500
  431MOL0     C58117   6.250  11.216   5.894  0.3859  0.2136 -0.2629
  431MOL0     H58118   6.657  11.323   5.963  0.6530 -1.2361 -0.2525
  431MOL0     H58119   6.848  11.477   5.992 -0.0532 -0.6858  0.0006
  431MOL0     H58120   6.899  11.625   6.288  0.9112  1.7108  1.4644
  431MOL0     H58121   7.001  11.539   6.399 -1.7642  2.1764  0.8116
  431MOL0     H58122   7.201  11.664   6.301 -0.8202 -0.8468 -1.4759
  431MOL0     H58123   7.083  11.762   6.379  0.3422 -3.0251  1.8384
  431MOL0     H58124   6.983  11.822   6.155 -0.2819 -1.3323 -0.9285
  431MOL0     H58125   7.090  11.699   6.074  1.5698  2.9238 -2.7637
  431MOL0     H58126   7.211  11.948   6.206  3.0994  1.8021 -1.8039
  431MOL0     H58127   7.283  11.811   6.143 -1.5601 -0.8782  2.1849
  431MOL0     H58128   7.056  11.960   5.996  1.1066  2.8198 -0.4244
  431MOL0     H58129   7.206  12.036   5.979  2.3462 -1.1157 -3.0486
  431MOL0     H58130   7.151  11.756   5.858  1.4943 -1.5465  4.2593
  431MOL0     H58131   7.150  11.914   5.780 -5.6139 -0.0575  3.4278
  431MOL0     H58132   7.384  11.790   5.927  0.3538  0.1977  1.0539
  431MOL0     H58133   7.388  11.952   5.851 -3.0461  1.6425 -1.1995
  431MOL0     H58134   7.334  11.688   5.698  1.1021 -0.7254 -2.4890
  431MOL0     H58135   7.358  11.842   5.629  0.7396 -1.1734 -0.2190
  431MOL0     H58136   7.641  11.835   5.863 -0.1447 -0.6215  0.5460
  431MOL0     H58137   7.953  11.769   5.679 -1.4505  5.7973 -0.3685
  431MOL0     H58138   7.875  11.838   5.809  0.3265  0.6783 -1.0224
  431MOL0     H58139   7.939  11.550   5.752  1.3332  2.2152 -2.1634
  431MOL0     H58140   8.024  11.657   5.866  1.5975 -3.5503  0.1160
  431MOL0     H58141   7.742  11.549   5.891 -2.3015  2.2284  1.0365
  431MOL0     H58142   7.818  11.677   6.003  0.0831 -1.6728  0.1252
  431MOL0     H58143   7.914  11.390   5.969 -2.7304 -0.2182  0.3438
  431MOL0     H58144   7.832  11.450   6.108  0.6330 -3.6289 -0.2050
  431MOL0     H58145   8.181  11.625   6.265 -0.8808 -0.4485  0.5018
  431MOL0     H58146   8.352  11.504   6.369 -1.1438  3.0004 -0.6625
  431MOL0     H58147   8.201  10.903   6.542  0.2365  0.4251  0.8075
  431MOL0     H58148   8.273  10.724   6.699  1.1629 -1.4028  1.1227
  431MOL0     H58149   8.718  10.787   6.835 -0.8625  0.2353 -3.4147
  431MOL0     H58150   8.651  10.657   6.933  0.3422  1.2290  1.6833
  431MOL0     H58151   8.677  10.489   6.757  2.3377 -0.8188  0.0716
  431MOL0     H58152   8.699  10.619   6.640  0.4261  2.2065 -0.1294
  431MOL0     H58153   8.920  10.541   6.677 -1.4581  3.7088 -2.4386
  431MOL0     H58154   8.904  10.687   6.740 -0.5975  0.8703 -1.3313
  431MOL0     H58155   8.913  10.436   6.904  4.3039  0.2622 -1.2192
  431MOL0     H58156   8.842  10.582   6.971 -1.2271  0.0220 -0.4549
  431MOL0     H58157   9.132  10.564   6.848  1.4606  1.1143  1.6491
  431MOL0     H58158   9.101  10.532   7.019  1.1707 -0.6097 -0.9306
  431MOL0     H58159   9.175  10.732   7.006 -1.7240 -0.8754  4.0417
  431MOL0     H58160   9.086  10.790   6.869  1.5493  2.2756  1.8172
  431MOL0     H58161   8.915  10.718   7.107  0.2003  0.7506  1.3899
  431MOL0     H58162   8.914  10.866   7.018 -1.0168 -2.3356 -1.0134
  431MOL0     H58163   9.138  10.795   7.218  2.1253  1.3411  0.2303
  431MOL0     H58164   9.131  10.939   7.121  2.6183 -0.9636  1.3062
  431MOL0     H58165   8.675  10.894   6.696 -1.1364 -1.6419  0.7649
  431MOL0     H58166   8.605  11.047   6.527  1.2181 -1.0528  1.1502
  431MOL0     H58167   8.157  11.134   6.276 -2.0446 -0.7073 -0.1011
  431MOL0     H58168   7.985  11.272   6.121 -1.2767  2.2515 -0.3585
  431MOL0     H58169   6.942  11.292   6.359 -0.7589 -2.1513  0.8939
  431MOL0     H58170   6.763  11.131   6.332  2.0991 -0.1792  1.6887
  431MOL0     H58171   6.428  10.972   6.264 -0.1257  3.6880 -0.3423
  431MOL0     H58172   6.252  10.799   6.228  0.7443  0.2324  2.2047
  431MOL0     H58173   5.913  10.685   6.133 -0.0633 -0.4748  3.2764
  431MOL0     H58174   6.030  10.738   6.240  0.6646  4.6709 -1.8640
  431MOL0     H58175   6.184  10.579   6.095  0.3027 -1.1681 -0.8000
  431MOL0     H58176   6.037  10.515   6.040  0.6966 -2.3146  0.5741
  431MOL0     H58177   6.039  10.378   6.208  0.1418  0.4479 -2.0039
  431MOL0     H58178   5.956  10.506   6.288  0.1277 -0.0464  1.3802
  431MOL0     H58179   6.190  10.570   6.378  2.6291 -0.5084 -2.1879
  431MOL0     H58180   6.123  10.421   6.441  0.6576  2.5332  2.1723
  431MOL0     H58181   6.464  10.315   6.189 -0.9639 -1.7997 -1.7592
  431MOL0     H58182   6.080  11.022   5.912  0.4916  0.1687 -1.1950
  431MOL0     H58183   6.188  11.184   5.810  0.6426  1.0302 -0.7733
  431MOL0     H58184   6.208  11.309   5.934  1.9736  2.1400 -2.8159
  431MOL0     H58185   6.343  11.236   5.840  1.0225 -1.5362  0.1142
  432MOL0     O58186   7.689   1.558   7.758 -0.9236  0.1236  0.1117
  432MOL0     C58187   7.797   1.578   7.805 -0.0577 -0.0643  0.2041
  432MOL0     O58188   7.850   1.704   7.811 -0.1516  0.8372 -0.6378
  432MOL0     C58189   7.809   1.795   7.717  0.4090 -0.0302 -0.4920
  432MOL0     C58190   7.801   1.926   7.766 -1.0602  0.4846  0.3861
  432MOL0     C58191   7.772   2.029   7.678 -0.0464 -0.1970 -1.7586
  432MOL0     C58192   7.739   1.996   7.545 -0.0451  0.7902  0.6178
  432MOL0     O58193   7.686   2.087   7.456  0.3764  0.4544 -0.1744
  432MOL0     C58194   7.754   2.218   7.451  0.1272  0.1811 -0.1953
  432MOL0     C58195   7.730   2.314   7.328 -0.2589 -0.8555 -0.7873
  432MOL0     C58196   7.578   2.343   7.291 -1.8222  0.4268 -0.6203
  432MOL0     C58197   7.566   2.434   7.168 -0.0987  0.0138 -0.1165
  432MOL0     C58198   7.432   2.507   7.138  0.5094 -0.4826  0.1537
  432MOL0     C58199   7.310   2.412   7.134 -0.6320 -0.1881 -0.3209
  432MOL0     C58200   7.169   2.483   7.130  0.0236 -0.1893  0.2658
  432MOL0     C58201   7.119   2.546   6.993  0.4181  1.5830  0.5736
  432MOL0     N58202   7.107   2.439   6.894  0.2352  0.0389 -0.2396
  432MOL0     C58203   6.992   2.355   6.881  0.6640  0.3039 -0.9390
  432MOL0     C58204   7.026   2.265   6.791  0.9676  0.2921 -0.3929
  432MOL0     C58205   6.937   2.158   6.742  0.2168  0.2991  0.2552
  432MOL0     C58206   7.020   2.027   6.744  0.2258  0.3967 -0.3023
  432MOL0     C58207   6.951   1.940   6.653  0.3990 -0.4996 -0.0506
  432MOL0     C58208   7.023   1.807   6.647 -0.0534 -0.0258  0.0211
  432MOL0     O58209   6.981   1.717   6.543  0.4090  0.3955 -0.4116
  432MOL0     C58210   7.063   1.605   6.530  0.0836  0.3164  0.7394
  432MOL0     C58211   7.198   1.588   6.581  0.5071 -0.2874 -0.6509
  432MOL0     C58212   7.266   1.472   6.556 -0.3859  0.8487 -0.4271
  432MOL0     C58213   7.213   1.357   6.498  1.2242 -0.1279  0.5063
  432MOL0     C58214   7.290   1.234   6.466 -0.2791  0.3459  0.4080
  432MOL0     O58215   7.218   1.115   6.433 -0.2544  0.0033 -0.1379
  432MOL0     C58216   7.288   1.009   6.392 -0.3659  0.1855  0.6405
  432MOL0     C58217   7.412   0.960   6.452  0.8646  0.6565  0.5184
  432MOL0     C58218   7.478   0.842   6.410  0.3168  0.0683  1.4233
  432MOL0     C58219   7.425   0.771   6.300  0.0255  0.3043  0.5234
  432MOL0     O58220   7.486   0.661   6.238  0.6630  0.1316 -0.0840
  432MOL0     C58221   7.626   0.679   6.202  0.9058 -0.1405  0.9299
  432MOL0     C58222   7.653   0.583   6.082 -0.3550  1.0462 -0.1239
  432MOL0     C58223   7.794   0.592   6.038  0.2733 -0.5332 -0.8346
  432MOL0     C58224   7.888   0.538   6.141  0.8647 -0.3853  0.6374
  432MOL0     C58225   8.033   0.509   6.095  0.5921  0.0794 -0.2480
  432MOL0     C58226   8.094   0.430   6.217 -0.3942  1.0647  0.0563
  432MOL0     C58227   8.244   0.411   6.199  0.0722  0.1270 -0.6689
  432MOL0     C58228   8.329   0.526   6.246  1.2748  0.0269 -0.5783
  432MOL0    Cl58229   8.321   0.522   6.429  0.5571 -0.2569 -0.3957
  432MOL0     C58230   7.309   0.820   6.236 -0.3361 -0.1174  0.4492
  432MOL0     C58231   7.249   0.936   6.281 -0.7225 -0.1467  0.2761
  432MOL0     O58232   7.412   1.251   6.453  0.3569 -1.1552 -0.5083
  432MOL0     C58233   7.082   1.372   6.447  0.0232 -0.0874  0.1359
  432MOL0     C58234   7.011   1.493   6.461 -0.6576  0.3505  0.6179
  432MOL0     N58235   7.147   2.305   6.740 -0.3949  0.7627 -0.0626
  432MOL0     N58236   7.199   2.408   6.798  0.2633  0.0145 -0.0962
  432MOL0     C58237   7.727   1.865   7.500 -1.0587  0.2911 -0.5010
  432MOL0     C58238   7.778   1.760   7.584 -1.4248  0.0311 -0.4871
  432MOL0     C58239   7.862   1.469   7.884  0.3942 -1.3636 -0.4640
  432MOL0     C58240   7.965   1.498   7.970  0.4598 -0.2986 -0.3411
  432MOL0     C58241   8.039   1.397   8.036  0.8655  0.4263 -0.5774
  432MOL0     C58242   7.992   1.262   8.036 -0.3876  0.1837  0.3241
  432MOL0     O58243   8.044   1.161   8.105 -0.0278 -0.1463  0.3347
  432MOL0     C58244   8.175   1.199   8.156 -0.9322  0.0629 -0.3991
  432MOL0     C58245   8.252   1.076   8.218  1.1766  0.4769 -0.9279
  432MOL0     C58246   8.373   1.127   8.293  0.3121  0.9692  0.4707
  432MOL0     C58247   8.447   1.011   8.374  0.0322 -1.3795 -0.0013
  432MOL0     C58248   8.586   1.063   8.411 -0.0344 -0.0132  0.1996
  432MOL0     C58249   8.702   1.095   8.428 -1.1992  0.2934 -0.9332
  432MOL0     C58250   7.884   1.237   7.956  1.1192 -0.2525  0.0521
  432MOL0     C58251   7.821   1.335   7.875 -0.0087  0.4406  0.0879
  432MOL0     C58252   7.705   1.279   7.798  0.5425  0.3255  0.6173
  432MOL0     H58253   7.818   1.921   7.874  2.3352  1.3964  0.0149
  432MOL0     H58254   7.750   2.130   7.708 -0.8855 -0.6941 -0.6581
  432MOL0     H58255   7.715   2.281   7.532 -5.4597 -1.1993 -1.4173
  432MOL0     H58256   7.860   2.195   7.458 -0.2162 -0.9978  1.7005
  432MOL0     H58257   7.769   2.266   7.238 -1.3461 -3.3916 -0.0197
  432MOL0     H58258   7.785   2.407   7.343  1.0212 -1.4929 -1.3987
  432MOL0     H58259   7.538   2.404   7.372  2.5923 -1.5157  3.5540
  432MOL0     H58260   7.528   2.246   7.302 -0.0839 -0.3613  1.0191
  432MOL0     H58261   7.627   2.523   7.185 -2.6853  2.2131 -1.5589
  432MOL0     H58262   7.588   2.375   7.078 -1.2340  0.2465 -0.5630
  432MOL0     H58263   7.416   2.580   7.217  0.4422  0.6087 -0.8477
  432MOL0     H58264   7.444   2.554   7.040 -0.3164 -2.0643 -0.7463
  432MOL0     H58265   7.315   2.337   7.055 -3.3932  1.2822 -2.0205
  432MOL0     H58266   7.306   2.358   7.230  0.2743  0.0734 -0.1279
  432MOL0     H58267   7.163   2.558   7.209 -0.1967  0.9510 -0.8065
  432MOL0     H58268   7.098   2.402   7.149 -0.9211  0.5695  0.0594
  432MOL0     H58269   7.023   2.599   7.002 -0.6850 -0.2351  0.0460
  432MOL0     H58270   7.190   2.619   6.955 -0.2531  2.7406  1.4517
  432MOL0     H58271   6.889   2.369   6.911  0.3551 -4.5396  1.2605
  432MOL0     H58272   6.847   2.155   6.805 -0.1420  2.8493 -0.0278
  432MOL0     H58273   6.905   2.167   6.638  4.0797 -1.0864 -1.2589
  432MOL0     H58274   7.123   2.036   6.707  0.5153 -3.3608 -0.7843
  432MOL0     H58275   7.032   1.986   6.845  4.6576  1.9295  0.0156
  432MOL0     H58276   6.950   1.970   6.548 -0.7811 -0.7298 -0.1204
  432MOL0     H58277   6.848   1.922   6.686  1.0713 -3.1171  0.9196
  432MOL0     H58278   7.006   1.759   6.744 -2.8416  2.1373  0.7079
  432MOL0     H58279   7.130   1.829   6.642 -0.5313  2.9130  0.7302
  432MOL0     H58280   7.261   1.652   6.643  0.8143 -1.8465  0.6916
  432MOL0     H58281   7.374   1.465   6.571 -0.4429  0.8643  0.0147
  432MOL0     H58282   7.457   1.008   6.538 -1.6051 -2.4688  3.8649
  432MOL0     H58283   7.573   0.821   6.459  1.6244 -0.6161 -1.2557
  432MOL0     H58284   7.643   0.781   6.167 -1.0010 -0.9125 -2.7416
  432MOL0     H58285   7.683   0.661   6.293  0.5967 -1.6062  0.8644
  432MOL0     H58286   7.629   0.483   6.120  1.1847  0.1867 -1.2727
  432MOL0     H58287   7.589   0.605   5.997  0.1736  0.6230 -0.6354
  432MOL0     H58288   7.815   0.526   5.954  1.0590  0.2065 -1.2407
  432MOL0     H58289   7.802   0.696   6.006  1.5817 -0.9520 -1.9943
  432MOL0     H58290   7.842   0.450   6.187  0.5832 -3.9142 -5.3884
  432MOL0     H58291   7.895   0.615   6.219  1.5999  0.1555  0.0603
  432MOL0     H58292   8.083   0.600   6.061  2.6733 -1.6989 -2.2994
  432MOL0     H58293   8.035   0.452   6.002  0.2505 -2.0997  1.0117
  432MOL0     H58294   8.066   0.477   6.312 -2.3320 -1.2652  0.7421
  432MOL0     H58295   8.043   0.333   6.223 -2.3924  1.6719 -3.7661
  432MOL0     H58296   8.265   0.389   6.094 -2.6511 -1.1473 -1.0362
  432MOL0     H58297   8.289   0.328   6.256  1.5108  1.6752  0.5581
  432MOL0     H58298   8.435   0.522   6.217  2.3180 -2.3644  2.9207
  432MOL0     H58299   8.285   0.616   6.201 -1.3069 -0.0445  1.5632
  432MOL0     H58300   7.267   0.760   6.156 -1.7072 -2.1720  2.6094
  432MOL0     H58301   7.165   0.968   6.222 -2.1564 -2.8323  0.6731
  432MOL0     H58302   7.031   1.288   6.400 -2.5754 -0.7015  3.6360
  432MOL0     H58303   6.912   1.480   6.419  0.8544 -1.0526 -2.9221
  432MOL0     H58304   7.696   1.853   7.396 -4.0980  2.9574 -0.0697
  432MOL0     H58305   7.786   1.656   7.552  0.5616 -0.5764  1.7078
  432MOL0     H58306   8.001   1.601   7.967 -2.8237  0.9690  0.0833
  432MOL0     H58307   8.125   1.441   8.087  2.1612 -2.0939 -0.4159
  432MOL0     H58308   8.172   1.275   8.235 -1.3686 -1.4018  1.0186
  432MOL0     H58309   8.247   1.228   8.078  0.8457 -0.0492  1.1325
  432MOL0     H58310   8.284   0.992   8.156  0.8383 -1.5830  1.5174
  432MOL0     H58311   8.181   1.035   8.290  3.1543  1.6441  1.8926
  432MOL0     H58312   8.345   1.204   8.365 -1.4978  0.8566 -0.0630
  432MOL0     H58313   8.442   1.178   8.224  1.3657 -3.0388 -1.7707
  432MOL0     H58314   8.390   0.965   8.454 -3.5258 -2.4012 -2.8910
  432MOL0     H58315   8.464   0.918   8.319  1.6186 -1.1945  0.1100
  432MOL0     H58316   8.806   1.119   8.438 -1.5810  2.6757 -1.9395
  432MOL0     H58317   7.844   1.136   7.960  0.4694 -0.2184 -3.2047
  432MOL0     H58318   7.620   1.347   7.812 -0.2151  0.1758 -2.5701
  432MOL0     H58319   7.716   1.276   7.689 -0.7184 -0.3865  0.4822
  432MOL0     H58320   7.670   1.179   7.826  0.3879 -0.4988 -2.1843
  433MOL0     O58321   7.384   8.281   9.529 -0.4223  0.1657 -0.3036
  433MOL0     C58322   7.372   8.160   9.510 -0.2638 -0.8291  0.6094
  433MOL0     O58323   7.472   8.080   9.483 -0.8677  0.3170  0.7759
  433MOL0     C58324   7.601   8.097   9.440  0.1215  0.3703 -0.1187
  433MOL0     C58325   7.665   7.980   9.399 -0.7870  0.4186  0.3099
  433MOL0     C58326   7.791   7.982   9.342  0.0568  0.2203 -0.0147
  433MOL0     C58327   7.859   8.108   9.321  0.5747 -0.7081  0.2898
  433MOL0     O58328   7.977   8.118   9.242  0.0731  0.5619 -0.7188
  433MOL0     C58329   8.001   8.238   9.174 -0.4131  0.9383  1.0736
  433MOL0     C58330   8.113   8.226   9.060  0.8379 -0.5286 -1.1503
  433MOL0     C58331   8.074   8.127   8.959  0.5687 -0.0740 -0.0536
  433MOL0     C58332   8.173   8.121   8.837 -0.2767 -0.0591  0.8517
  433MOL0     C58333   8.291   8.036   8.862  0.3755 -0.2676  0.1929
  433MOL0     C58334   8.397   8.020   8.756 -0.1177 -0.3395  0.7835
  433MOL0     C58335   8.518   7.931   8.799 -0.3559  0.2853  0.2454
  433MOL0     C58336   8.607   7.944   8.673 -0.0453 -0.8656 -1.3439
  433MOL0     N58337   8.742   7.898   8.710  0.7281 -0.1002  0.7140
  433MOL0     C58338   8.806   7.908   8.829  0.5645 -0.3653  0.2501
  433MOL0     C58339   8.933   7.866   8.798 -0.8018 -0.1887 -0.6545
  433MOL0     C58340   9.053   7.909   8.882 -0.4949  0.3513  0.4408
  433MOL0     C58341   9.146   7.786   8.907 -0.2313 -0.1580  0.4077
  433MOL0     C58342   9.256   7.780   8.809 -1.1547  0.3180 -0.0417
  433MOL0     C58343   9.354   7.656   8.833  0.1188 -0.6266 -0.2694
  433MOL0     O58344   9.445   7.646   8.722  0.1441  0.0159 -0.8637
  433MOL0     C58345   9.573   7.709   8.718  0.2151  0.0436 -0.7243
  433MOL0     C58346   9.653   7.682   8.606 -0.6421 -0.8864  0.0572
  433MOL0     C58347   9.782   7.737   8.602  0.0363 -0.3092 -0.1892
  433MOL0     C58348   9.824   7.816   8.707  0.8120 -0.5648 -0.1328
  433MOL0     C58349   9.949   7.900   8.684 -0.8807 -0.0831  0.1033
  433MOL0     O58350   9.992   7.911   8.563 -0.6902  0.0383  0.2400
  433MOL0     C58351  10.055   8.030   8.524 -0.5922  1.1270 -0.6835
  433MOL0     C58352   9.999   8.162   8.529  0.5853 -1.0407  0.6129
  433MOL0     C58353  10.078   8.274   8.489 -0.1731  0.2091 -0.0360
  433MOL0     C58354  10.207   8.251   8.440 -0.9856 -0.1964  0.1270
  433MOL0     O58355  10.310   8.343   8.416  0.5520 -0.2478  0.2713
  433MOL0     C58356  10.290   8.478   8.469 -0.6377 -0.5501  0.1487
  433MOL0     C58357  10.430   8.539   8.451 -0.3754 -0.6731  0.5500
  433MOL0     C58358  10.503   8.508   8.583 -0.7179  0.2602 -0.1591
  433MOL0     C58359  10.659   8.485   8.562 -1.2256  0.9352 -0.1990
  433MOL0     C58360  10.736   8.408   8.678  0.5082  0.4509 -0.0042
  433MOL0     C58361  10.892   8.381   8.639  0.9149  0.5050  0.3138
  433MOL0     C58362  10.977   8.506   8.659  0.5549  0.1913 -0.0308
  433MOL0     C58363  10.997   8.544   8.809  0.3122  0.0010 -0.2902
  433MOL0    Cl58364  11.147   8.465   8.869  0.2866  0.0673  0.5182
  433MOL0     C58365  10.262   8.121   8.445 -0.4165 -0.0750 -0.6192
  433MOL0     C58366  10.189   8.006   8.482  0.7709 -0.0614  0.4058
  433MOL0     O58367   9.988   7.967   8.779 -0.5767  0.4100  0.4895
  433MOL0     C58368   9.748   7.846   8.823 -0.7101  0.9556  0.4138
  433MOL0     C58369   9.618   7.795   8.828  0.6596 -0.5922 -0.1539
  433MOL0     N58370   8.936   7.814   8.673 -0.5381 -0.1366 -0.3998
  433MOL0     N58371   8.820   7.831   8.622  0.3512 -0.3575  0.8402
  433MOL0     C58372   7.792   8.232   9.367  0.1363  0.5630 -0.2960
  433MOL0     C58373   7.668   8.224   9.428 -0.2964 -0.0125 -0.0235
  433MOL0     C58374   7.238   8.101   9.541 -0.6197  0.4553  0.1032
  433MOL0     C58375   7.133   8.175   9.490  0.9045 -0.5266 -0.1602
  433MOL0     C58376   7.006   8.139   9.529  0.0888 -0.1539  0.2425
  433MOL0     C58377   6.978   8.029   9.603 -0.0531  0.4421 -0.5126
  433MOL0     O58378   6.842   8.010   9.612  0.2766 -0.0801  0.0028
  433MOL0     C58379   6.788   7.881   9.652 -0.2859  0.0184  0.4321
  433MOL0     C58380   6.642   7.871   9.620  0.1855  0.5104  0.0490
  433MOL0     C58381   6.608   7.893   9.467  0.0023  0.4441 -0.5890
  433MOL0     C58382   6.468   7.947   9.431 -0.0675  0.3574  0.1429
  433MOL0     C58383   6.459   7.955   9.288  0.2179 -1.3143  0.7560
  433MOL0     C58384   6.474   7.956   9.164  1.0529  0.1412  0.2281
  433MOL0     C58385   7.082   7.952   9.651 -0.0321  0.1271 -0.5077
  433MOL0     C58386   7.213   7.984   9.624 -0.3082 -0.1230  0.3849
  433MOL0     C58387   7.329   7.899   9.686 -0.5578  0.6124 -0.0252
  433MOL0     H58388   7.604   7.891   9.411 -2.1817  0.3899 -4.6085
  433MOL0     H58389   7.842   7.893   9.306  1.1706  2.3088 -4.2359
  433MOL0     H58390   7.913   8.276   9.121 -0.6509  0.1998  0.9366
  433MOL0     H58391   8.036   8.321   9.236 -0.9616  1.8010  0.2705
  433MOL0     H58392   8.208   8.208   9.112 -0.5634 -2.5351  0.9330
  433MOL0     H58393   8.127   8.322   9.009  0.9447  1.3392  2.0488
  433MOL0     H58394   7.977   8.163   8.925  0.3754 -0.9746 -0.4844
  433MOL0     H58395   8.067   8.032   9.014 -2.4656  0.0717 -0.0507
  433MOL0     H58396   8.122   8.076   8.751 -0.0570  1.3438 -0.0521
  433MOL0     H58397   8.191   8.224   8.806 -1.5758  0.2252  0.9921
  433MOL0     H58398   8.332   8.077   8.955  0.0530 -0.5643  0.4694
  433MOL0     H58399   8.256   7.937   8.895 -0.0266 -1.1930 -2.6723
  433MOL0     H58400   8.347   7.962   8.679  2.0601 -1.5910  0.2192
  433MOL0     H58401   8.429   8.118   8.721 -0.7555 -0.9087 -1.5121
  433MOL0     H58402   8.489   7.826   8.811  2.8361 -0.6338  0.7318
  433MOL0     H58403   8.562   7.962   8.895  0.8308 -1.7107  0.4015
  433MOL0     H58404   8.571   7.880   8.592 -4.2263  0.3785 -0.7052
  433MOL0     H58405   8.614   8.046   8.634 -3.0437  0.7860  1.9518
  433MOL0     H58406   8.777   7.958   8.920 -0.3051 -0.8686  0.2575
  433MOL0     H58407   9.108   7.982   8.820  0.3702 -1.5981 -1.2110
  433MOL0     H58408   9.025   7.956   8.977 -1.0430  0.5047  0.2061
  433MOL0     H58409   9.185   7.779   9.009 -0.8971 -2.9823  0.5579
  433MOL0     H58410   9.088   7.693   8.900  2.2647 -2.0986  2.9419
  433MOL0     H58411   9.319   7.868   8.826  0.6243 -1.4995  3.9031
  433MOL0     H58412   9.211   7.766   8.710 -2.2150 -1.0712  0.6012
  433MOL0     H58413   9.304   7.559   8.824  1.5642 -1.5028  0.7804
  433MOL0     H58414   9.406   7.665   8.929 -3.1971  0.6503  1.5439
  433MOL0     H58415   9.622   7.616   8.526 -1.3095 -3.5185  2.3122
  433MOL0     H58416   9.845   7.734   8.514  1.0552  0.7336  0.4670
  433MOL0     H58417   9.895   8.169   8.558  0.3432 -2.4538  0.1670
  433MOL0     H58418  10.029   8.371   8.491 -1.8763 -0.4961 -2.6250
  433MOL0     H58419  10.222   8.531   8.402 -1.3309  0.1836  1.3969
  433MOL0     H58420  10.252   8.491   8.571  1.3858 -2.1444  1.1883
  433MOL0     H58421  10.481   8.493   8.365 -2.4973 -0.1839 -1.0453
  433MOL0     H58422  10.445   8.646   8.433  0.4306 -0.9619 -0.5666
  433MOL0     H58423  10.487   8.601   8.639 -1.8733  1.1680 -1.9072
  433MOL0     H58424  10.465   8.416   8.629 -0.1362  0.6547  1.1601
  433MOL0     H58425  10.708   8.582   8.546 -0.8244  0.9019  0.7812
  433MOL0     H58426  10.679   8.423   8.474 -0.0244  0.0057  0.7108
  433MOL0     H58427  10.692   8.310   8.696  2.3958 -0.7800 -1.6561
  433MOL0     H58428  10.723   8.459   8.774 -3.1592 -2.0959  1.0487
  433MOL0     H58429  10.934   8.301   8.701 -0.2651 -3.1375 -3.1497
  433MOL0     H58430  10.898   8.345   8.536 -2.3580 -1.8211  0.8056
  433MOL0     H58431  10.953   8.594   8.597  2.5493 -0.9190 -2.5662
  433MOL0     H58432  11.072   8.471   8.616 -0.3104 -2.8172  0.3020
  433MOL0     H58433  11.001   8.654   8.804  2.3872 -0.0165 -0.1823
  433MOL0     H58434  10.914   8.511   8.872  2.8439 -2.2349  2.1637
  433MOL0     H58435  10.369   8.108   8.433 -0.3877  0.6834 -1.2212
  433MOL0     H58436  10.228   7.905   8.484  0.9295 -0.0493 -1.1653
  433MOL0     H58437   9.789   7.913   8.898  0.7200  0.8942 -0.2886
  433MOL0     H58438   9.556   7.829   8.911  1.6684 -1.9013  1.1930
  433MOL0     H58439   7.838   8.328   9.348  0.6527 -0.2180 -3.9582
  433MOL0     H58440   7.631   8.313   9.478  0.0843  0.0221  0.1984
  433MOL0     H58441   7.146   8.249   9.411  2.1885  0.2772  0.7697
  433MOL0     H58442   6.915   8.188   9.495 -1.3257 -0.2232  3.5634
  433MOL0     H58443   6.811   7.867   9.758 -2.2044 -0.3655  0.8298
  433MOL0     H58444   6.829   7.794   9.600 -3.1105 -2.3501  1.9087
  433MOL0     H58445   6.591   7.947   9.680  0.7983  1.7628 -0.9421
  433MOL0     H58446   6.600   7.772   9.640 -0.0516  0.7520  0.7944
  433MOL0     H58447   6.618   7.794   9.420  0.0385 -0.4584  1.2332
  433MOL0     H58448   6.687   7.962   9.439  2.8685 -0.9582  3.2223
  433MOL0     H58449   6.394   7.877   9.471 -0.0407  1.0985  1.5475
  433MOL0     H58450   6.434   8.036   9.485  0.0262  1.3669 -1.4096
  433MOL0     H58451   6.474   7.982   9.060  3.3561 -1.7985 -0.3378
  433MOL0     H58452   7.059   7.864   9.710 -0.8974  1.1487  0.7348
  433MOL0     H58453   7.408   7.962   9.727  1.3444 -2.1818  0.9568
  433MOL0     H58454   7.282   7.845   9.770  3.2429 -1.4647  0.9909
  433MOL0     H58455   7.363   7.834   9.605 -1.4121  0.0042  0.0883
  434MOL0     O58456   2.817   4.065   9.562  0.4401  0.5812 -0.3695
  434MOL0     C58457   2.888   4.090   9.466  0.1319 -0.0461  0.5933
  434MOL0     O58458   2.890   4.218   9.412 -1.2498 -0.6885  0.6951
  434MOL0     C58459   2.854   4.318   9.494 -0.3427  0.5479 -1.0143
  434MOL0     C58460   2.922   4.342   9.623  0.8805  0.4306  0.8296
  434MOL0     C58461   2.887   4.448   9.702  0.5110 -0.5815 -0.4305
  434MOL0     C58462   2.786   4.544   9.657 -0.9883 -0.0580  0.2710
  434MOL0     O58463   2.755   4.664   9.716  0.0136 -0.5146  0.1760
  434MOL0     C58464   2.699   4.648   9.844 -0.5782  0.3969  0.1956
  434MOL0     C58465   2.747   4.770   9.936  0.1646 -0.5632  0.1235
  434MOL0     C58466   2.887   4.746   9.993 -0.1558  0.3009 -0.5389
  434MOL0     C58467   2.882   4.645  10.109 -1.0650  0.7563  0.5578
  434MOL0     C58468   3.023   4.627  10.183  0.1422  0.4380 -0.6210
  434MOL0     C58469   3.018   4.511  10.283  0.1827  0.4580 -0.0699
  434MOL0     C58470   3.165   4.482  10.323 -0.3163  0.1763  0.1180
  434MOL0     C58471   3.185   4.435  10.465 -0.3413 -0.6701  0.2976
  434MOL0     N58472   3.153   4.530  10.571  0.2338 -1.1543  0.0583
  434MOL0     C58473   3.145   4.667  10.569  0.1624 -0.1091  0.1936
  434MOL0     C58474   3.093   4.707  10.689 -0.3246  0.3661  0.0547
  434MOL0     C58475   3.060   4.843  10.748  0.0027 -0.2090  0.3631
  434MOL0     C58476   3.134   4.871  10.888  0.2131 -0.2709  0.3867
  434MOL0     C58477   3.043   4.818  11.007  0.0227 -0.1872 -0.3765
  434MOL0     C58478   3.117   4.844  11.142  0.6662 -0.1470 -0.5021
  434MOL0     O58479   3.229   4.760  11.180  0.2431 -0.0208 -0.2281
  434MOL0     C58480   3.346   4.795  11.131 -1.1761 -1.1323 -0.4715
  434MOL0     C58481   3.450   4.698  11.144  0.0511 -0.3811 -0.3895
  434MOL0     C58482   3.586   4.715  11.110  0.1895  0.1424 -0.2959
  434MOL0     C58483   3.621   4.851  11.071 -0.2682 -0.4353 -0.7817
  434MOL0     C58484   3.762   4.900  11.063 -0.4309 -0.3952 -0.1997
  434MOL0     O58485   3.846   4.798  11.082 -0.2860  0.2177 -0.3151
  434MOL0     C58486   3.962   4.787  11.004  0.8132 -0.4663 -1.5216
  434MOL0     C58487   4.050   4.889  10.963 -0.4492  0.5754 -0.3113
  434MOL0     C58488   4.155   4.863  10.878 -0.0086 -1.0555 -0.0282
  434MOL0     C58489   4.164   4.738  10.814 -0.0552 -0.6147 -0.6165
  434MOL0     O58490   4.259   4.719  10.718 -0.3129  0.6472 -0.3083
  434MOL0     C58491   4.224   4.784  10.587 -0.4645  0.4744 -0.2163
  434MOL0     C58492   4.315   4.734  10.477  0.4530  0.0661  0.1197
  434MOL0     C58493   4.469   4.761  10.480  0.7375 -0.4186  0.8650
  434MOL0     C58494   4.499   4.905  10.503  0.4324 -0.1046  0.1349
  434MOL0     C58495   4.655   4.950  10.483  0.0128  0.6522 -1.6292
  434MOL0     C58496   4.737   4.857  10.567  0.9963 -0.0290 -0.2685
  434MOL0     C58497   4.890   4.881  10.561  0.5553  0.1362  0.9870
  434MOL0     C58498   4.958   4.740  10.570  0.0345 -0.2576  0.5430
  434MOL0    Cl58499   4.949   4.689  10.740  0.2582  0.0089  0.3216
  434MOL0     C58500   4.088   4.631  10.862  0.6634 -0.0846  0.5116
  434MOL0     C58501   3.982   4.656  10.956 -0.5854  0.3718  1.3696
  434MOL0     O58502   3.792   5.010  11.018  0.2501 -0.4891  0.1100
  434MOL0     C58503   3.523   4.943  11.050 -0.8476 -0.0990 -0.7788
  434MOL0     C58504   3.390   4.921  11.080 -0.5762 -0.2042 -0.2178
  434MOL0     N58505   3.081   4.595  10.767  0.0020  0.3606 -0.2565
  434MOL0     N58506   3.117   4.493  10.691  0.3358  0.5570 -0.5299
  434MOL0     C58507   2.722   4.522   9.531  0.4503 -0.3421 -0.1203
  434MOL0     C58508   2.760   4.406   9.449 -0.2334  0.4811  0.6997
  434MOL0     C58509   2.985   3.997   9.410 -0.8902 -0.7783 -0.9570
  434MOL0     C58510   3.078   4.048   9.323 -0.0857 -0.4805  0.6415
  434MOL0     C58511   3.169   3.966   9.262  0.0912  0.4398  1.0026
  434MOL0     C58512   3.165   3.829   9.284 -0.9051  1.0669  0.3141
  434MOL0     O58513   3.259   3.746   9.224 -0.0516  0.2510  0.0288
  434MOL0     C58514   3.220   3.621   9.172 -0.4233 -0.2069 -1.1248
  434MOL0     C58515   3.329   3.561   9.069  0.5070 -0.5438  0.0589
  434MOL0     C58516   3.441   3.501   9.152  0.0058 -0.2343  1.1732
  434MOL0     C58517   3.527   3.433   9.048 -1.2529  0.8709 -0.2603
  434MOL0     C58518   3.647   3.401   9.122  0.1339 -0.2444 -0.1504
  434MOL0     C58519   3.742   3.362   9.190  0.0518  0.4334 -0.3652
  434MOL0     C58520   3.067   3.775   9.363  0.5484 -0.5256  0.4847
  434MOL0     C58521   2.979   3.852   9.433 -0.7655 -0.4800 -0.2523
  434MOL0     C58522   2.877   3.771   9.507 -0.3576 -0.6510 -0.5918
  434MOL0     H58523   2.987   4.262   9.657 -0.6302 -0.2882  2.1398
  434MOL0     H58524   2.919   4.485   9.799  0.6957  0.2417 -0.7961
  434MOL0     H58525   2.590   4.644   9.846 -0.5779 -0.1485 -0.5497
  434MOL0     H58526   2.738   4.557   9.890  0.9147  1.8679  2.0192
  434MOL0     H58527   2.678   4.793  10.018  2.0937  0.1904  1.6148
  434MOL0     H58528   2.748   4.853   9.865  0.9377 -1.3893 -0.8614
  434MOL0     H58529   2.926   4.838  10.040  0.7041 -0.4924  0.3539
  434MOL0     H58530   2.960   4.709   9.921  0.1751 -0.6188  0.2511
  434MOL0     H58531   2.802   4.649  10.182 -1.1573  0.0146  0.5008
  434MOL0     H58532   2.859   4.552  10.056  1.2700 -0.3331  1.2975
  434MOL0     H58533   3.107   4.613  10.114  0.8430  3.0683 -0.4265
  434MOL0     H58534   3.071   4.711  10.234  1.0754 -0.4092 -0.0613
  434MOL0     H58535   2.951   4.543  10.363 -0.3457 -0.6986 -0.0261
  434MOL0     H58536   2.970   4.426  10.232  2.3660  0.3527 -2.1065
  434MOL0     H58537   3.229   4.571  10.324 -1.8453  1.4124 -2.5620
  434MOL0     H58538   3.201   4.418  10.243  3.2494  3.8139 -1.5270
  434MOL0     H58539   3.127   4.344  10.481 -1.2793 -0.0694  0.3704
  434MOL0     H58540   3.290   4.410  10.485 -0.3541  0.0704  1.3553
  434MOL0     H58541   3.175   4.731  10.486  3.7232  0.2343  1.5837
  434MOL0     H58542   3.095   4.915  10.673 -1.0279 -0.1562 -0.0746
  434MOL0     H58543   2.951   4.846  10.755 -0.1813 -3.6698  0.5342
  434MOL0     H58544   3.231   4.819  10.885  1.8842  2.6315 -0.0750
  434MOL0     H58545   3.142   4.979  10.904 -0.6695  0.0874 -1.3142
  434MOL0     H58546   3.022   4.711  10.997 -0.4700 -0.1182 -0.1101
  434MOL0     H58547   2.946   4.869  11.007 -0.2173 -0.6000 -1.8232
  434MOL0     H58548   3.039   4.818  11.215 -2.3427  3.2483 -2.1461
  434MOL0     H58549   3.119   4.953  11.151 -2.1194 -0.0372 -0.3645
  434MOL0     H58550   3.415   4.602  11.180 -0.8780 -0.3021 -1.0429
  434MOL0     H58551   3.661   4.638  11.129  1.8489  1.0372 -2.6974
  434MOL0     H58552   4.030   4.983  11.013 -1.5559 -1.4302  3.4495
  434MOL0     H58553   4.225   4.946  10.869 -2.1393  1.2380  2.5922
  434MOL0     H58554   4.124   4.745  10.564  0.2253 -1.6482  0.1134
  434MOL0     H58555   4.231   4.892  10.601 -1.6343  0.5301  0.0381
  434MOL0     H58556   4.300   4.626  10.485 -0.8249  0.1611 -0.7469
  434MOL0     H58557   4.269   4.764  10.382  1.5077  1.9321  0.1458
  434MOL0     H58558   4.490   4.704  10.571  3.0065  1.8245  1.8835
  434MOL0     H58559   4.516   4.727  10.388 -0.3852  3.6653 -1.5115
  434MOL0     H58560   4.468   4.930  10.605  0.1060  1.3513 -0.2948
  434MOL0     H58561   4.428   4.953  10.435 -0.1410 -2.5287 -1.0832
  434MOL0     H58562   4.662   5.047  10.534 -3.3222  0.6694 -0.9382
  434MOL0     H58563   4.686   4.938  10.379  4.7933  1.1616 -0.4911
  434MOL0     H58564   4.706   4.851  10.672  0.7593  1.4680 -0.2300
  434MOL0     H58565   4.720   4.757  10.526  3.1020 -0.2503 -0.6847
  434MOL0     H58566   4.924   4.951  10.638 -4.0270  1.3191  2.2240
  434MOL0     H58567   4.914   4.919  10.461  3.6744 -0.5698  1.3631
  434MOL0     H58568   4.922   4.662  10.502 -0.6542 -1.3266  2.0732
  434MOL0     H58569   5.063   4.754  10.545  0.0627  3.0087  1.9949
  434MOL0     H58570   4.101   4.532  10.820  1.4139 -1.6489  4.0661
  434MOL0     H58571   3.916   4.574  10.980  0.8079 -2.5586 -3.4505
  434MOL0     H58572   3.561   5.033  11.003  0.4254  0.0954  0.5241
  434MOL0     H58573   3.327   5.009  11.088 -1.3189 -0.8755  2.2159
  434MOL0     H58574   2.661   4.594   9.477 -0.6902 -1.7101 -0.7159
  434MOL0     H58575   2.725   4.401   9.346  0.8472 -3.5663  0.3713
  434MOL0     H58576   3.081   4.154   9.298 -3.0335 -0.6400 -0.8121
  434MOL0     H58577   3.248   4.007   9.200  0.9745  0.7711  2.2976
  434MOL0     H58578   3.136   3.644   9.105  0.5323  3.2981 -1.3550
  434MOL0     H58579   3.177   3.556   9.248 -1.4207  0.6340 -0.9486
  434MOL0     H58580   3.368   3.640   9.003 -0.7874  0.2922  0.2487
  434MOL0     H58581   3.275   3.479   9.020 -1.1552  0.8604 -0.5777
  434MOL0     H58582   3.408   3.422   9.220  0.2629 -0.9108  0.5367
  434MOL0     H58583   3.500   3.581   9.196  0.7564 -1.3843  2.3261
  434MOL0     H58584   3.485   3.341   9.007 -1.4060  1.0110 -0.4243
  434MOL0     H58585   3.548   3.495   8.960 -0.1554 -2.2032 -2.3162
  434MOL0     H58586   3.827   3.321   9.241  0.4067  0.4661 -0.9221
  434MOL0     H58587   3.066   3.667   9.376 -0.8617 -0.3821  1.9360
  434MOL0     H58588   2.863   3.807   9.610 -1.4780 -1.1394 -0.5615
  434MOL0     H58589   2.781   3.773   9.455  1.2862 -0.8123 -3.8474
  434MOL0     H58590   2.908   3.668   9.525 -0.9572 -0.4948  1.6800
  435MOL0     O58591   1.874  10.664  10.757  0.1547  0.5270 -0.1752
  435MOL0     C58592   1.803  10.765  10.749  0.0013 -0.1324 -0.4266
  435MOL0     O58593   1.718  10.798  10.647  0.2337  0.3679  0.2848
  435MOL0     C58594   1.700  10.705  10.544 -0.0648  0.0105 -0.5312
  435MOL0     C58595   1.580  10.679  10.492 -0.4508  0.3889  0.2526
  435MOL0     C58596   1.566  10.588  10.387  0.7584  0.3079 -0.0051
  435MOL0     C58597   1.681  10.530  10.327 -0.1375  0.1138 -0.3512
  435MOL0     O58598   1.684  10.442  10.223 -0.7381 -0.4522 -0.0668
  435MOL0     C58599   1.613  10.326  10.240  0.5237 -0.1087 -0.7779
  435MOL0     C58600   1.659  10.223  10.141  0.1853  0.1500  0.2340
  435MOL0     C58601   1.542  10.125  10.117 -0.0929  0.3665  0.1910
  435MOL0     C58602   1.541  10.049   9.977 -0.0692 -1.2021  0.1785
  435MOL0     C58603   1.425   9.952   9.970 -0.1496  0.2868  0.4958
  435MOL0     C58604   1.447   9.838   9.881  0.2209 -0.5719  1.0780
  435MOL0     C58605   1.342   9.723   9.899 -0.1209 -0.6664 -0.5695
  435MOL0     C58606   1.345   9.630   9.774 -0.6138 -0.0202  0.4656
  435MOL0     N58607   1.255   9.526   9.791  0.6174  0.3312  0.0410
  435MOL0     C58608   1.159   9.486   9.697  0.5213  0.2322 -0.1610
  435MOL0     C58609   1.105   9.374   9.750  0.0006 -0.0685 -0.1380
  435MOL0     C58610   0.983   9.307   9.703  0.2939  0.5885 -1.0359
  435MOL0     C58611   1.019   9.183   9.626 -0.9464  0.2193  0.1718
  435MOL0     C58612   1.083   9.212   9.493 -0.1866  0.1585  0.3513
  435MOL0     C58613   1.132   9.084   9.421  1.0244 -0.8129 -0.3151
  435MOL0     O58614   1.229   9.114   9.314  0.4905 -0.0156 -0.3061
  435MOL0     C58615   1.190   9.177   9.193 -0.7596 -0.0982  0.6956
  435MOL0     C58616   1.060   9.202   9.145  0.6264  1.0076 -0.4087
  435MOL0     C58617   1.030   9.252   9.022  0.2271 -0.0684 -0.0467
  435MOL0     C58618   1.138   9.263   8.939  0.6214 -0.6064  0.4674
  435MOL0     C58619   1.113   9.309   8.799 -0.2251  0.1279  0.2818
  435MOL0     O58620   1.222   9.320   8.713 -0.1310 -0.3699 -0.1259
  435MOL0     C58621   1.209   9.338   8.579 -0.8391  0.0501 -0.0028
  435MOL0     C58622   1.308   9.276   8.496  0.1363  0.0723  0.2675
  435MOL0     C58623   1.299   9.271   8.354  0.5853  0.4518  0.2015
  435MOL0     C58624   1.204   9.355   8.297  0.8847  0.4904  0.9936
  435MOL0     O58625   1.215   9.365   8.153 -0.0383 -0.0557 -0.2305
  435MOL0     C58626   1.128   9.447   8.077 -0.5677  0.9280  0.0463
  435MOL0     C58627   0.983   9.377   8.072 -0.1171 -0.1772 -0.6264
  435MOL0     C58628   0.890   9.454   7.980 -0.5586 -0.6807 -1.1573
  435MOL0     C58629   0.851   9.583   8.044 -0.3039 -0.5997 -0.3187
  435MOL0     C58630   0.761   9.667   7.955  0.5376 -0.5807 -0.6146
  435MOL0     C58631   0.812   9.796   7.877 -0.6431  0.1583  0.5078
  435MOL0     C58632   0.953   9.788   7.812  0.0817  0.2277 -0.1040
  435MOL0     C58633   0.967   9.836   7.661 -0.2602 -0.4917  0.2085
  435MOL0    Cl58634   0.877   9.729   7.554  0.4971  0.0274  0.5322
  435MOL0     C58635   1.116   9.431   8.378  0.1359  0.5856  0.9758
  435MOL0     C58636   1.111   9.417   8.517  0.6773  0.2930  0.8048
  435MOL0     O58637   0.997   9.343   8.772  0.2547  0.3317  0.3140
  435MOL0     C58638   1.270   9.248   8.982 -0.8576 -0.2583 -0.1715
  435MOL0     C58639   1.296   9.200   9.108  0.9957  0.3385 -0.5534
  435MOL0     N58640   1.177   9.335   9.861 -0.6255  1.0817  0.1624
  435MOL0     N58641   1.263   9.432   9.883  0.3902  0.7507  0.1126
  435MOL0     C58642   1.807  10.565  10.369  0.1515  0.4781 -0.5822
  435MOL0     C58643   1.814  10.649  10.480 -0.3451 -0.4448  0.6468
  435MOL0     C58644   1.804  10.872  10.864 -0.0113 -0.3287 -0.4532
  435MOL0     C58645   1.923  10.900  10.930 -0.1743  0.3167  1.0205
  435MOL0     C58646   1.946  11.009  11.017 -0.2533 -0.0072 -0.5414
  435MOL0     C58647   1.839  11.091  11.053  0.3684 -0.7616 -0.9345
  435MOL0     O58648   1.846  11.206  11.127  0.5833 -0.3195 -0.9988
  435MOL0     C58649   1.982  11.255  11.164  0.1452  0.4471 -0.2415
  435MOL0     C58650   1.988  11.400  11.216 -1.2338  0.8524 -0.5792
  435MOL0     C58651   1.913  11.495  11.113  0.2029 -0.1686  0.9626
  435MOL0     C58652   1.965  11.635  11.138  0.3600  0.1394  0.3639
  435MOL0     C58653   2.086  11.656  11.057  0.6253 -0.1087  0.5966
  435MOL0     C58654   2.188  11.656  10.982  0.9449  0.2240  0.8057
  435MOL0     C58655   1.720  11.068  10.986  0.9763  0.6158  0.3170
  435MOL0     C58656   1.697  10.959  10.899  0.5095  0.9955  0.0574
  435MOL0     C58657   1.563  10.936  10.839  0.8981  0.0681 -0.0276
  435MOL0     H58658   1.493  10.725  10.538 -0.4403  1.0156 -0.3432
  435MOL0     H58659   1.466  10.556  10.358  0.5661  0.5696  0.3480
  435MOL0     H58660   1.637  10.284  10.338 -2.0084  1.3553  0.5698
  435MOL0     H58661   1.508  10.353  10.225 -0.2456 -1.6316  1.3885
  435MOL0     H58662   1.744  10.171  10.186  1.2048  1.4949 -0.0791
  435MOL0     H58663   1.694  10.262  10.045 -0.2140  1.0155  0.4251
  435MOL0     H58664   1.446  10.175  10.135 -1.5213 -2.3864  0.8905
  435MOL0     H58665   1.542  10.051  10.198  0.7222 -0.3804 -0.4824
  435MOL0     H58666   1.539  10.119   9.894 -2.4606 -0.7602  0.5554
  435MOL0     H58667   1.637   9.996   9.974  0.6657  0.0981 -0.0749
  435MOL0     H58668   1.393   9.925  10.071  0.5221  1.0311  0.9194
  435MOL0     H58669   1.340  10.008   9.928  0.3617 -0.3492 -1.5001
  435MOL0     H58670   1.434   9.870   9.777  3.6532 -2.3562 -0.0378
  435MOL0     H58671   1.551   9.807   9.892  0.8709  0.8867 -0.4795
  435MOL0     H58672   1.242   9.768   9.894  0.5913  0.8906 -1.8404
  435MOL0     H58673   1.348   9.655   9.985 -2.6619 -0.4633 -0.1560
  435MOL0     H58674   1.306   9.676   9.683  2.6362  0.4787 -0.8380
  435MOL0     H58675   1.449   9.599   9.760 -0.2711  2.0751 -2.7709
  435MOL0     H58676   1.132   9.538   9.606 -3.1519 -0.1445  0.5555
  435MOL0     H58677   0.923   9.274   9.788  3.4907 -1.6005  0.5989
  435MOL0     H58678   0.929   9.383   9.645  1.4169  2.3198  0.0749
  435MOL0     H58679   1.076   9.115   9.690 -2.5188  1.5203  3.2195
  435MOL0     H58680   0.925   9.128   9.616 -0.7518 -0.6198  2.3540
  435MOL0     H58681   1.164   9.282   9.514 -1.8345  1.7438  1.6686
  435MOL0     H58682   1.013   9.265   9.429 -0.1647  2.0679  1.8413
  435MOL0     H58683   1.045   9.028   9.387 -0.9323  2.5714 -1.4377
  435MOL0     H58684   1.196   9.020   9.483  1.3098  1.5858  2.0622
  435MOL0     H58685   0.971   9.203   9.207 -1.2702  1.1113 -2.9686
  435MOL0     H58686   0.928   9.271   8.989 -0.6031 -0.7586  1.9384
  435MOL0     H58687   1.383   9.224   8.554 -3.0605 -1.3215  3.5237
  435MOL0     H58688   1.374   9.224   8.292  2.2529  1.2576  1.5156
  435MOL0     H58689   1.126   9.546   8.123 -0.6365  1.2008 -0.5460
  435MOL0     H58690   1.168   9.467   7.978 -0.1634  4.5629  0.8231
  435MOL0     H58691   1.010   9.275   8.043  1.1635  0.2973 -1.1541
  435MOL0     H58692   0.928   9.377   8.166 -1.4371  2.5066 -1.3000
  435MOL0     H58693   0.947   9.483   7.891  0.6301 -2.5685 -1.0777
  435MOL0     H58694   0.804   9.392   7.954 -1.1785  0.3890 -1.6786
  435MOL0     H58695   0.930   9.654   8.070 -3.2768  3.4750 -1.4722
  435MOL0     H58696   0.789   9.548   8.128 -0.9896 -0.0580 -0.5891
  435MOL0     H58697   0.671   9.676   8.017  0.6428 -2.5076 -0.0969
  435MOL0     H58698   0.724   9.596   7.880  2.8808  0.1601 -2.5879
  435MOL0     H58699   0.747   9.823   7.793 -0.4350  0.4570  0.4389
  435MOL0     H58700   0.810   9.872   7.955  0.6111 -0.3608  1.0800
  435MOL0     H58701   0.987   9.686   7.831  1.1155  0.7110  0.7274
  435MOL0     H58702   1.023   9.845   7.874 -2.1611  2.2146  0.7447
  435MOL0     H58703   0.927   9.938   7.663  0.1202 -0.3514  1.0037
  435MOL0     H58704   1.070   9.849   7.629  0.3729  2.4972  2.9001
  435MOL0     H58705   1.057   9.513   8.339  0.6766  0.8911  0.7925
  435MOL0     H58706   1.044   9.471   8.583 -0.4481 -0.2486  0.1384
  435MOL0     H58707   1.349   9.273   8.912 -1.8330 -1.9132 -1.9597
  435MOL0     H58708   1.397   9.176   9.138  1.7369  1.2526 -2.1406
  435MOL0     H58709   1.895  10.525  10.319 -0.5290  0.9534 -2.2289
  435MOL0     H58710   1.906  10.678  10.528 -1.5309 -0.2278  2.9057
  435MOL0     H58711   2.006  10.838  10.899 -1.0643 -0.1766 -0.4847
  435MOL0     H58712   2.045  11.031  11.056 -1.1554  1.1601  1.1967
  435MOL0     H58713   2.035  11.236  11.070 -2.2453 -3.7999 -1.0167
  435MOL0     H58714   2.023  11.189  11.241  1.6535 -0.3570 -1.6710
  435MOL0     H58715   2.092  11.428  11.234 -0.6007 -1.6564  0.0270
  435MOL0     H58716   1.940  11.404  11.314 -1.2778  1.2931 -0.6168
  435MOL0     H58717   1.806  11.507  11.130  0.4762  3.7262  0.8366
  435MOL0     H58718   1.925  11.466  11.009 -4.9242  0.5770 -0.0917
  435MOL0     H58719   1.884  11.696  11.098 -0.4386  0.8704  2.9099
  435MOL0     H58720   1.983  11.668  11.240 -1.1740 -2.0251  1.4095
  435MOL0     H58721   2.267  11.648  10.910  0.9197 -3.0427  0.9642
  435MOL0     H58722   1.640  11.142  10.992 -0.8099 -1.1823  0.0725
  435MOL0     H58723   1.483  10.978  10.900  2.8054  1.3654  1.7160
  435MOL0     H58724   1.555  10.984  10.741 -0.1737  1.9726  0.9454
  435MOL0     H58725   1.551  10.829  10.821  0.2430 -0.5174  3.2476
  436MOL0     O58726   7.570  10.132   2.965  0.6535  0.1056 -0.2778
  436MOL0     C58727   7.489  10.126   2.869  0.5469  0.3609  0.3192
  436MOL0     O58728   7.393  10.220   2.843 -0.4394 -0.1038 -0.1700
  436MOL0     C58729   7.371  10.328   2.922  0.8533 -0.7907 -0.2295
  436MOL0     C58730   7.369  10.339   3.066  0.8223 -0.3505  0.0907
  436MOL0     C58731   7.335  10.454   3.132  0.9834 -0.4732  0.7493
  436MOL0     C58732   7.317  10.578   3.070  0.2085 -0.6550 -0.2376
  436MOL0     O58733   7.297  10.693   3.137 -0.8650 -0.0406 -0.2054
  436MOL0     C58734   7.279  10.810   3.052  0.3862  0.7158  0.1444
  436MOL0     C58735   7.255  10.937   3.139 -0.4590 -0.5623 -0.1249
  436MOL0     C58736   7.370  11.028   3.165  0.3814 -0.0185  1.2674
  436MOL0     C58737   7.334  11.150   3.249 -0.7013  1.0961 -0.3646
  436MOL0     C58738   7.253  11.252   3.184  0.4459  0.0688  0.3739
  436MOL0     C58739   7.247  11.395   3.249 -0.1522 -0.0153  0.5045
  436MOL0     C58740   7.175  11.497   3.168  0.8946 -0.5872  0.5278
  436MOL0     C58741   7.047  11.548   3.243  0.1699  0.4559  0.0530
  436MOL0     N58742   6.983  11.625   3.137 -0.0742 -0.4778 -0.1266
  436MOL0     C58743   6.949  11.596   3.009 -0.1444 -0.3536 -0.3436
  436MOL0     C58744   6.907  11.708   2.946  0.4704  0.1141 -0.0003
  436MOL0     C58745   6.859  11.707   2.808  0.9267  0.3405  0.7373
  436MOL0     C58746   6.752  11.604   2.780  0.3848 -0.8792 -0.1165
  436MOL0     C58747   6.634  11.628   2.876 -0.4675  0.3578 -0.1065
  436MOL0     C58748   6.514  11.546   2.861 -0.2189 -0.6249 -0.0657
  436MOL0     O58749   6.424  11.595   2.969 -0.1191  0.5943 -0.3683
  436MOL0     C58750   6.296  11.552   2.964  0.0417  0.5405  0.5272
  436MOL0     C58751   6.235  11.482   2.858 -0.5584  0.4748 -0.1102
  436MOL0     C58752   6.103  11.444   2.849  0.2765 -0.0748 -0.0192
  436MOL0     C58753   6.020  11.478   2.963 -0.3199 -0.4894 -0.4621
  436MOL0     C58754   5.885  11.445   2.953  0.5378  0.2753 -0.2446
  436MOL0     O58755   5.814  11.451   3.068 -0.4360 -0.4276 -0.0680
  436MOL0     C58756   5.675  11.470   3.050  1.1114 -0.7816  0.4095
  436MOL0     C58757   5.589  11.378   3.099 -1.0768 -0.0266 -0.2318
  436MOL0     C58758   5.453  11.367   3.057  0.3111  0.6252  0.4774
  436MOL0     C58759   5.396  11.465   2.984  0.3082 -0.0447 -0.1104
  436MOL0     O58760   5.268  11.442   2.946 -0.1663 -0.5454  0.8257
  436MOL0     C58761   5.223  11.494   2.817  0.4000  0.0298 -0.3196
  436MOL0     C58762   5.124  11.605   2.844  0.9481 -1.2486 -0.5315
  436MOL0     C58763   4.978  11.551   2.855 -0.1271 -0.4286 -0.6781
  436MOL0     C58764   4.867  11.658   2.879 -0.8306 -0.6966  0.2458
  436MOL0     C58765   4.731  11.608   2.816 -0.1792 -0.1013 -0.6912
  436MOL0     C58766   4.708  11.465   2.843  0.6848 -0.1661 -0.3177
  436MOL0     C58767   4.557  11.435   2.816  0.0847 -0.3195 -0.1084
  436MOL0     C58768   4.540  11.287   2.787 -0.1904  0.5166  0.0159
  436MOL0    Cl58769   4.569  11.236   2.612  0.2532 -0.7471  0.3997
  436MOL0     C58770   5.482  11.574   2.941  0.3127 -0.0284 -0.3903
  436MOL0     C58771   5.617  11.577   2.975  0.8297  0.1141 -0.4319
  436MOL0     O58772   5.831  11.418   2.842  1.1100 -0.8219  0.2648
  436MOL0     C58773   6.080  11.545   3.075 -0.5528 -0.0860 -0.4419
  436MOL0     C58774   6.214  11.580   3.070  0.1547  0.0646  0.1375
  436MOL0     N58775   6.922  11.807   3.041  0.4022  0.5712 -0.0368
  436MOL0     N58776   6.967  11.764   3.149  0.3679  0.4173  0.3158
  436MOL0     C58777   7.318  10.564   2.926  0.0511 -0.1078 -0.0487
  436MOL0     C58778   7.338  10.447   2.859 -0.4327 -0.5472  0.5501
  436MOL0     C58779   7.464  10.008   2.784 -0.2279  0.2316 -0.9356
  436MOL0     C58780   7.472  10.010   2.648 -1.0515  0.7383 -0.8326
  436MOL0     C58781   7.465   9.892   2.572 -0.4693 -0.2095 -0.2744
  436MOL0     C58782   7.428   9.769   2.628  0.1054 -0.7357  0.2843
  436MOL0     O58783   7.443   9.653   2.552  0.6165  0.2314  0.0543
  436MOL0     C58784   7.453   9.666   2.411 -0.3220 -0.3174 -0.8531
  436MOL0     C58785   7.466   9.517   2.371  0.9015  0.3340  0.1746
  436MOL0     C58786   7.561   9.492   2.255  0.1710  0.7587 -0.4076
  436MOL0     C58787   7.486   9.492   2.121  0.0042  0.0983 -0.6254
  436MOL0     C58788   7.425   9.357   2.100 -0.1172  0.3241  0.2643
  436MOL0     C58789   7.388   9.241   2.084  0.4936 -0.2752  0.0356
  436MOL0     C58790   7.419   9.764   2.771 -0.5086 -0.2247  0.6362
  436MOL0     C58791   7.433   9.884   2.851 -0.4706 -0.6627 -0.3449
  436MOL0     C58792   7.437   9.864   3.001  0.4902  0.9058  0.2099
  436MOL0     H58793   7.396  10.249   3.119  0.4787 -0.7228 -0.3543
  436MOL0     H58794   7.320  10.457   3.240 -0.3905  2.1315  0.5414
  436MOL0     H58795   7.360  10.820   2.980  0.1630  2.2889  0.0908
  436MOL0     H58796   7.185  10.796   2.999  0.0976 -2.8700  1.3037
  436MOL0     H58797   7.224  10.906   3.239 -0.1502 -1.0673 -0.1879
  436MOL0     H58798   7.173  10.998   3.098 -1.7242 -0.0343  2.8861
  436MOL0     H58799   7.418  11.059   3.072  1.5059  0.2896  1.9376
  436MOL0     H58800   7.451  10.974   3.216  1.6848 -0.6159 -1.2774
  436MOL0     H58801   7.289  11.116   3.343  2.6452 -1.4104  0.5489
  436MOL0     H58802   7.433  11.195   3.264  0.6003 -1.2529 -1.3736
  436MOL0     H58803   7.289  11.263   3.081  4.9507  1.6454  1.8699
  436MOL0     H58804   7.155  11.208   3.167  1.5755 -1.6295 -2.2911
  436MOL0     H58805   7.205  11.398   3.350  2.3132 -0.3137  1.6382
  436MOL0     H58806   7.351  11.429   3.252 -0.2980  0.6984 -1.4574
  436MOL0     H58807   7.143  11.451   3.074 -1.1031 -0.6768  1.2079
  436MOL0     H58808   7.235  11.585   3.145  1.9917 -1.8202 -1.7506
  436MOL0     H58809   6.972  11.469   3.255 -1.8011  2.0430 -1.1629
  436MOL0     H58810   7.070  11.595   3.338 -0.0925 -0.3718  0.5401
  436MOL0     H58811   6.934  11.502   2.958  2.3643 -0.7694 -0.3992
  436MOL0     H58812   6.831  11.805   2.768  1.5256  0.8442  1.4996
  436MOL0     H58813   6.949  11.683   2.750 -1.5123 -1.8213 -2.4813
  436MOL0     H58814   6.716  11.613   2.677  2.6275 -0.1670 -0.9048
  436MOL0     H58815   6.795  11.504   2.787  0.9443 -0.6557 -0.3382
  436MOL0     H58816   6.607  11.734   2.875 -1.4066  0.1750 -3.0745
  436MOL0     H58817   6.655  11.597   2.979 -0.7456 -1.7422 -0.6367
  436MOL0     H58818   6.538  11.441   2.881 -4.8623 -1.8684  0.1012
  436MOL0     H58819   6.475  11.561   2.760 -4.5661  0.8710  1.5633
  436MOL0     H58820   6.289  11.457   2.768  0.6160 -1.4882  1.0662
  436MOL0     H58821   6.071  11.388   2.762 -2.5887  0.3560  0.6572
  436MOL0     H58822   5.652  11.301   3.143  2.5821  1.3255 -2.7146
  436MOL0     H58823   5.401  11.274   3.076  0.7792 -0.0362 -1.2796
  436MOL0     H58824   5.288  11.547   2.747 -0.5909  0.5200 -0.8858
  436MOL0     H58825   5.177  11.406   2.771  2.0113  0.1407 -2.3228
  436MOL0     H58826   5.133  11.653   2.942 -3.0746 -2.0647  0.4064
  436MOL0     H58827   5.134  11.682   2.767  2.1925 -0.7691  0.0768
  436MOL0     H58828   4.962  11.509   2.755 -1.8899 -1.8013  0.1266
  436MOL0     H58829   4.980  11.467   2.925 -1.4635 -2.4745 -2.9208
  436MOL0     H58830   4.894  11.752   2.830 -0.8340 -0.2634  1.0563
  436MOL0     H58831   4.865  11.675   2.987 -1.3475  0.0894  0.1180
  436MOL0     H58832   4.720  11.645   2.714 -0.4081 -1.6628 -1.2577
  436MOL0     H58833   4.650  11.654   2.874 -1.0562 -4.3120  1.8573
  436MOL0     H58834   4.767  11.391   2.787 -0.4937 -0.7694 -0.8035
  436MOL0     H58835   4.731  11.444   2.948 -0.4512 -0.9223 -0.1909
  436MOL0     H58836   4.511  11.487   2.732  0.2676 -0.8391 -0.5409
  436MOL0     H58837   4.501  11.454   2.908  0.8243 -0.8103  0.4546
  436MOL0     H58838   4.610  11.231   2.850  1.8294  2.3716 -0.4572
  436MOL0     H58839   4.440  11.262   2.824  0.0473  0.4852  0.6475
  436MOL0     H58840   5.441  11.651   2.877 -2.3794 -0.0910  1.1099
  436MOL0     H58841   5.697  11.644   2.946  1.6184 -0.1566  1.0225
  436MOL0     H58842   6.026  11.572   3.165 -0.9089  4.2621 -1.7176
  436MOL0     H58843   6.247  11.621   3.166  0.3991 -2.6448  1.2971
  436MOL0     H58844   7.307  10.648   2.858 -2.6715 -0.0320  0.3723
  436MOL0     H58845   7.342  10.446   2.751 -1.6742 -1.1413  0.4951
  436MOL0     H58846   7.514  10.095   2.595 -2.2146  1.3642 -0.7782
  436MOL0     H58847   7.484   9.898   2.466 -1.4164 -1.5425 -0.5450
  436MOL0     H58848   7.549   9.712   2.383  0.1896 -1.8403 -1.7936
  436MOL0     H58849   7.371   9.718   2.363 -1.0220  0.5217  1.1710
  436MOL0     H58850   7.369   9.475   2.342  1.4542 -0.5569 -0.4623
  436MOL0     H58851   7.510   9.463   2.455  2.2265  0.5815 -0.3342
  436MOL0     H58852   7.613   9.397   2.274  3.4249  2.3953 -0.4393
  436MOL0     H58853   7.644   9.563   2.252 -0.3316  1.5699  2.2583
  436MOL0     H58854   7.410   9.571   2.118 -0.9716 -0.8394 -1.1044
  436MOL0     H58855   7.556   9.495   2.037  2.3635  2.9634  1.1965
  436MOL0     H58856   7.332   9.150   2.074 -2.2011  1.4627 -2.5158
  436MOL0     H58857   7.391   9.664   2.803 -1.1786 -0.0769  0.5273
  436MOL0     H58858   7.476   9.770   3.042 -1.7450  0.0783  0.5451
  436MOL0     H58859   7.476   9.943   3.066  1.6167  0.4240  0.1525
  436MOL0     H58860   7.330   9.864   3.021  0.2662  1.4234 -0.9342
  437MOL0     O58861   9.064   7.270   7.084  0.3434  0.1608 -0.0291
  437MOL0     C58862   9.036   7.204   7.184  0.9696  1.3685 -0.9421
  437MOL0     O58863   8.921   7.220   7.260 -0.7930 -0.3612 -0.3615
  437MOL0     C58864   8.824   7.305   7.216 -0.0983 -0.0017  0.5391
  437MOL0     C58865   8.741   7.252   7.122  0.2785  0.0109  0.8125
  437MOL0     C58866   8.625   7.316   7.083  0.2794 -0.4899 -0.1028
  437MOL0     C58867   8.597   7.444   7.137 -0.5751 -1.4826 -0.3863
  437MOL0     O58868   8.489   7.520   7.098 -0.5574 -0.2200  0.1713
  437MOL0     C58869   8.429   7.498   6.965  0.3433 -0.3890  0.0244
  437MOL0     C58870   8.345   7.615   6.918 -0.6522 -1.0591  0.3221
  437MOL0     C58871   8.428   7.742   6.926  0.6906 -0.2589  0.3678
  437MOL0     C58872   8.344   7.865   6.878 -0.7356 -0.4453 -0.0791
  437MOL0     C58873   8.245   7.918   6.988 -0.0854 -0.1302  0.1549
  437MOL0     C58874   8.153   8.025   6.920  0.0618  0.6676 -0.4420
  437MOL0     C58875   8.056   8.066   7.029  0.5377 -0.4763 -0.6283
  437MOL0     C58876   8.118   8.166   7.122 -0.1183 -0.0655 -0.6920
  437MOL0     N58877   8.152   8.291   7.064  0.0015  0.7725  0.3838
  437MOL0     C58878   8.271   8.345   7.032 -0.2582 -0.5815  0.0832
  437MOL0     C58879   8.246   8.470   6.992  0.8053  0.1927 -0.9186
  437MOL0     C58880   8.352   8.577   6.968  1.6710 -0.1590 -0.4108
  437MOL0     C58881   8.387   8.647   7.096 -0.5418 -0.0819 -0.2258
  437MOL0     C58882   8.478   8.579   7.193 -0.1880  0.3824 -0.6764
  437MOL0     C58883   8.512   8.656   7.321  1.0750  0.4200  0.6500
  437MOL0     O58884   8.404   8.681   7.410  0.2332  0.2545 -0.1171
  437MOL0     C58885   8.374   8.814   7.414  0.4263 -0.3363 -0.1239
  437MOL0     C58886   8.459   8.907   7.482 -0.3626  0.0453  0.3298
  437MOL0     C58887   8.410   9.037   7.492 -0.1735 -0.4541  1.0171
  437MOL0     C58888   8.288   9.079   7.442  0.2796  0.2235 -1.3572
  437MOL0     C58889   8.253   9.219   7.460 -1.2720 -0.2669 -0.4276
  437MOL0     O58890   8.308   9.287   7.559 -0.1189 -0.1400 -0.1511
  437MOL0     C58891   8.233   9.402   7.583 -0.1566 -0.1755  0.4618
  437MOL0     C58892   8.222   9.510   7.491  0.2567 -0.6922  1.0594
  437MOL0     C58893   8.146   9.623   7.521  1.5739  0.0098 -0.4376
  437MOL0     C58894   8.070   9.626   7.638 -0.0867  0.4339  0.8617
  437MOL0     O58895   7.984   9.725   7.664 -0.0678  0.8434  0.8075
  437MOL0     C58896   7.878   9.729   7.580  0.2354  0.0921  0.1441
  437MOL0     C58897   7.763   9.639   7.625  0.0095 -0.5094  0.8444
  437MOL0     C58898   7.709   9.669   7.765  0.7560  0.3735  0.2558
  437MOL0     C58899   7.592   9.583   7.807 -0.1567 -0.0414  0.2951
  437MOL0     C58900   7.556   9.616   7.951  1.1298 -0.5869 -0.9572
  437MOL0     C58901   7.474   9.751   7.984  0.0846  0.1369 -0.5128
  437MOL0     C58902   7.445   9.753   8.133 -0.2606  1.1807  0.3501
  437MOL0     C58903   7.360   9.882   8.148  0.3696  0.2771 -0.2347
  437MOL0    Cl58904   7.355   9.930   8.328  0.2293  0.4275  0.2423
  437MOL0     C58905   8.094   9.524   7.731  0.2269 -0.3929  0.0128
  437MOL0     C58906   8.168   9.414   7.706 -0.4087 -0.3103  0.3009
  437MOL0     O58907   8.185   9.261   7.366 -0.5897 -0.7413  0.3044
  437MOL0     C58908   8.204   8.989   7.380 -0.1706  0.4046  0.2021
  437MOL0     C58909   8.252   8.857   7.359  0.4772  0.2398  0.1498
  437MOL0     N58910   8.107   8.478   7.000 -0.1686 -0.8681 -0.3432
  437MOL0     N58911   8.056   8.382   7.059  0.4972  0.2388  0.8606
  437MOL0     C58912   8.684   7.494   7.238  0.2584  0.8984  0.0708
  437MOL0     C58913   8.803   7.423   7.276  0.0885 -0.2027  0.5312
  437MOL0     C58914   9.139   7.123   7.255 -0.2249  0.5617  0.9466
  437MOL0     C58915   9.124   7.091   7.388 -0.5433 -0.7020 -0.7555
  437MOL0     C58916   9.222   7.021   7.461 -0.0901  0.2360 -0.2725
  437MOL0     C58917   9.337   6.983   7.401  0.3721  0.2809  0.1651
  437MOL0     O58918   9.422   6.901   7.472 -0.9903  0.3875 -0.2695
  437MOL0     C58919   9.561   6.888   7.435  0.8986 -0.8336  0.5485
  437MOL0     C58920   9.645   6.877   7.549 -0.4969  0.0057  0.0445
  437MOL0     C58921   9.627   6.956   7.680  0.2238  0.3504 -0.5236
  437MOL0     C58922   9.731   6.914   7.787  0.9019 -0.6908  0.4111
  437MOL0     C58923   9.870   6.910   7.744  0.5849 -0.7871  1.0383
  437MOL0     C58924   9.986   6.885   7.726  0.4434 -0.2391  0.1201
  437MOL0     C58925   9.360   7.011   7.264  1.0710 -0.4158 -0.2258
  437MOL0     C58926   9.257   7.077   7.195 -0.8652 -0.6566  0.3745
  437MOL0     C58927   9.299   7.117   7.045  1.2965 -0.4984 -0.3764
  437MOL0     H58928   8.761   7.151   7.086  0.5553 -0.2681  1.7192
  437MOL0     H58929   8.576   7.261   7.003  1.5016  0.3145 -1.4582
  437MOL0     H58930   8.502   7.470   6.888 -1.2855 -1.5889 -1.1714
  437MOL0     H58931   8.357   7.415   6.971 -1.7209  1.3937  1.5847
  437MOL0     H58932   8.250   7.611   6.973 -0.5504  2.0369  0.8925
  437MOL0     H58933   8.318   7.599   6.814 -0.4928 -3.9438  0.6368
  437MOL0     H58934   8.525   7.741   6.875  0.9473 -0.3213  0.8496
  437MOL0     H58935   8.445   7.766   7.031 -1.7069  1.5407  0.4296
  437MOL0     H58936   8.404   7.951   6.847 -2.7426  0.8157 -0.6297
  437MOL0     H58937   8.290   7.837   6.787 -0.3320  0.5173 -0.6267
  437MOL0     H58938   8.183   7.837   7.028  2.1359 -1.8077  0.3936
  437MOL0     H58939   8.298   7.965   7.071  2.0386 -0.0111 -1.1907
  437MOL0     H58940   8.208   8.112   6.882  2.4252 -0.8780 -0.7418
  437MOL0     H58941   8.089   7.984   6.841  0.5075  1.0484 -1.0066
  437MOL0     H58942   8.025   7.988   7.100  4.2297 -1.0210  0.6416
  437MOL0     H58943   7.960   8.099   6.989 -1.4175 -1.5201  2.7469
  437MOL0     H58944   8.046   8.192   7.201  2.6839 -0.6005  2.2588
  437MOL0     H58945   8.207   8.127   7.173 -0.2685  0.3482 -0.0930
  437MOL0     H58946   8.368   8.296   7.042  0.4356  0.7452  0.0822
  437MOL0     H58947   8.440   8.531   6.922  3.0564  3.1940 -1.4447
  437MOL0     H58948   8.315   8.647   6.892 -0.4728  0.0597  0.7446
  437MOL0     H58949   8.416   8.751   7.074 -2.4012  0.5115 -0.0413
  437MOL0     H58950   8.293   8.672   7.147 -0.7627  1.9092 -1.4942
  437MOL0     H58951   8.572   8.551   7.145  0.1093 -1.1100  0.6826
  437MOL0     H58952   8.428   8.486   7.223  0.8274 -0.7691 -2.3884
  437MOL0     H58953   8.564   8.749   7.298 -4.4342  2.8965 -4.2235
  437MOL0     H58954   8.586   8.590   7.369  1.9187  0.2227 -0.8553
  437MOL0     H58955   8.547   8.864   7.529  0.2692  0.4060 -0.4800
  437MOL0     H58956   8.477   9.106   7.542 -0.0086  1.0592 -1.1037
  437MOL0     H58957   8.266   9.506   7.392  0.0323  1.1883  0.8390
  437MOL0     H58958   8.134   9.707   7.454  2.4496 -0.6104 -1.3982
  437MOL0     H58959   7.837   9.831   7.583 -1.8267 -0.6284 -1.2808
  437MOL0     H58960   7.909   9.711   7.477  0.1069  0.9162 -0.0505
  437MOL0     H58961   7.677   9.652   7.559 -1.3462 -2.9970  1.9838
  437MOL0     H58962   7.802   9.538   7.612  2.9131  0.2979  2.2913
  437MOL0     H58963   7.784   9.655   7.844  0.4841  0.1990  0.4846
  437MOL0     H58964   7.680   9.774   7.762  2.3636  0.8465  0.1174
  437MOL0     H58965   7.614   9.476   7.800  1.1010  0.2336 -0.1174
  437MOL0     H58966   7.507   9.599   7.739 -0.1677 -0.3770  0.2275
  437MOL0     H58967   7.641   9.617   8.020 -1.2786  2.2247  2.3448
  437MOL0     H58968   7.491   9.532   7.977 -2.2039  2.4329  1.4400
  437MOL0     H58969   7.536   9.836   7.954  0.0722 -0.1671 -1.4139
  437MOL0     H58970   7.378   9.754   7.933 -1.5602 -0.2272  2.3217
  437MOL0     H58971   7.539   9.748   8.188  0.1153 -1.4843 -0.3788
  437MOL0     H58972   7.377   9.669   8.153  1.9837 -0.0562  3.6349
  437MOL0     H58973   7.413   9.963   8.097  1.9570 -2.2453 -2.8949
  437MOL0     H58974   7.256   9.876   8.116  0.8891 -2.2696 -1.6440
  437MOL0     H58975   8.058   9.545   7.831  0.6297  2.6437 -0.3766
  437MOL0     H58976   8.170   9.343   7.788 -4.4105 -0.3413  0.6137
  437MOL0     H58977   8.106   9.011   7.339 -1.3622 -3.3947  0.6291
  437MOL0     H58978   8.191   8.786   7.302  0.9801  1.8323 -2.5463
  437MOL0     H58979   8.651   7.579   7.297  0.8284  1.8239 -0.9036
  437MOL0     H58980   8.863   7.446   7.364 -0.3850  1.2044  0.5071
  437MOL0     H58981   9.046   7.132   7.450  2.1384  2.4329  0.8817
  437MOL0     H58982   9.209   6.990   7.564  2.5745 -0.3612 -0.0343
  437MOL0     H58983   9.589   6.976   7.378 -1.6940  2.5038  3.9502
  437MOL0     H58984   9.561   6.791   7.382  0.6235 -0.8194  0.5194
  437MOL0     H58985   9.746   6.902   7.515 -1.3107 -1.1388 -3.6675
  437MOL0     H58986   9.641   6.774   7.583  1.6518 -0.3108 -0.5155
  437MOL0     H58987   9.527   6.930   7.717  0.1240  3.1788  1.5298
  437MOL0     H58988   9.636   7.063   7.659 -0.8696  0.8133  1.1366
  437MOL0     H58989   9.723   6.990   7.865  1.1065  1.0789 -1.2034
  437MOL0     H58990   9.713   6.814   7.828  2.1369 -0.3601  1.8454
  437MOL0     H58991  10.086   6.847   7.724  0.4761 -0.1375 -2.0278
  437MOL0     H58992   9.445   6.978   7.207  0.8233 -1.2537 -0.1262
  437MOL0     H58993   9.291   7.225   7.029 -0.7233 -0.9247 -2.7721
  437MOL0     H58994   9.399   7.084   7.015  0.8323 -2.4421  0.0811
  437MOL0     H58995   9.230   7.085   6.967  3.7963  2.8648 -4.3940
  438MOL0     O58996   0.414   4.926   0.190  0.7300  0.3614 -0.3809
  438MOL0     C58997   0.464   4.958   0.294 -0.2026  0.6449 -0.1149
  438MOL0     O58998   0.583   5.019   0.303 -0.8273  0.1947 -0.2485
  438MOL0     C58999   0.669   5.053   0.201  0.6127 -0.7749 -0.1089
  438MOL0     C59000   0.721   4.972   0.103  0.7556  0.2653 -0.2560
  438MOL0     C59001   0.826   5.004   0.022 -0.8488 -0.0045  0.8730
  438MOL0     C59002   0.881   5.131   0.034  0.4227 -0.1992  0.0244
  438MOL0     O59003   0.949   5.165  -0.081 -0.2596 -0.3253 -0.2310
  438MOL0     C59004   1.017   5.290  -0.093  0.2201  0.1436 -0.1841
  438MOL0     C59005   1.153   5.290  -0.030  0.3761  0.1401 -0.1579
  438MOL0     C59006   1.219   5.424  -0.051  0.0096 -0.5991  0.7948
  438MOL0     C59007   1.141   5.530   0.040 -0.9733 -1.0353  0.4711
  438MOL0     C59008   1.230   5.645   0.077  0.1365  0.0224 -1.1620
  438MOL0     C59009   1.302   5.633   0.214 -0.6998  0.8734  0.5846
  438MOL0     C59010   1.370   5.764   0.244  0.2710 -0.6840 -0.2611
  438MOL0     C59011   1.289   5.854   0.336  0.9290 -0.7038  0.3788
  438MOL0     N59012   1.380   5.960   0.391  0.6812 -0.0547  0.1832
  438MOL0     C59013   1.435   6.054   0.317 -1.4031 -0.8629  0.1553
  438MOL0     C59014   1.474   6.150   0.409 -0.2993  0.5954 -0.2623
  438MOL0     C59015   1.515   6.289   0.381  1.4109 -0.0468 -0.2527
  438MOL0     C59016   1.423   6.388   0.459 -0.1572  1.2026  0.9761
  438MOL0     C59017   1.433   6.536   0.438 -0.0766 -0.6493 -0.0548
  438MOL0     C59018   1.354   6.601   0.327 -0.0041 -0.1667 -0.0607
  438MOL0     O59019   1.413   6.552   0.204  0.1551  0.0858 -0.0224
  438MOL0     C59020   1.336   6.533   0.092  0.0606 -0.4655  0.1756
  438MOL0     C59021   1.258   6.419   0.081 -0.3768 -0.5524 -0.3652
  438MOL0     C59022   1.188   6.393  -0.043 -0.2970  0.5148  0.4542
  438MOL0     C59023   1.195   6.478  -0.148  0.7618  0.0504  0.7059
  438MOL0     C59024   1.112   6.449  -0.274 -0.5753 -0.3654  0.1892
  438MOL0     O59025   1.043   6.327  -0.283  0.6990  0.3525  0.6223
  438MOL0     C59026   0.978   6.276  -0.401  0.3671 -0.4100 -0.7486
  438MOL0     C59027   0.994   6.323  -0.532 -0.4348  1.0172 -0.3469
  438MOL0     C59028   0.924   6.248  -0.625  0.1269 -0.4899 -0.1253
  438MOL0     C59029   0.848   6.132  -0.607 -0.7262  0.1309  0.5767
  438MOL0     O59030   0.775   6.059  -0.698 -0.3645  0.3463 -0.1098
  438MOL0     C59031   0.779   6.090  -0.837 -1.3120  0.4671  0.0505
  438MOL0     C59032   0.665   6.025  -0.912  0.2232 -0.0943  0.7013
  438MOL0     C59033   0.712   5.887  -0.972 -0.5190  0.5743  0.0666
  438MOL0     C59034   0.770   5.891  -1.114  0.1934 -0.6994  0.4878
  438MOL0     C59035   0.775   5.755  -1.183  0.3122  0.5756 -0.4580
  438MOL0     C59036   0.887   5.660  -1.153 -0.0779 -0.2637  1.0169
  438MOL0     C59037   0.861   5.527  -1.210 -0.6435  0.3474  0.2930
  438MOL0     C59038   0.978   5.440  -1.169  0.7604  0.1544 -0.7689
  438MOL0    Cl59039   0.951   5.257  -1.172 -0.1317 -0.0239  0.1132
  438MOL0     C59040   0.849   6.091  -0.477 -0.3346  0.6046 -0.8051
  438MOL0     C59041   0.916   6.161  -0.373  0.1556 -0.8014  0.6992
  438MOL0     O59042   1.126   6.530  -0.358  0.5524 -0.5440  0.2331
  438MOL0     C59043   1.282   6.584  -0.141  0.4401  0.7817 -0.1257
  438MOL0     C59044   1.351   6.615  -0.022 -0.5670  0.1134 -1.2811
  438MOL0     N59045   1.455   6.102   0.541 -0.0479  0.4806  0.1068
  438MOL0     N59046   1.397   5.983   0.525  0.0241 -0.2465  0.1647
  438MOL0     C59047   0.842   5.218   0.136 -0.3358 -0.7804  0.4402
  438MOL0     C59048   0.732   5.181   0.213  0.4114  1.1673  0.2227
  438MOL0     C59049   0.395   4.946   0.420  0.2521 -0.9236 -0.8218
  438MOL0     C59050   0.456   4.929   0.545 -0.9979  0.8033  0.0851
  438MOL0     C59051   0.397   4.941   0.666 -0.6493 -0.6574 -0.2163
  438MOL0     C59052   0.257   4.967   0.673 -0.2612 -0.7002  0.0309
  438MOL0     O59053   0.189   4.978   0.791  0.9994 -0.4054  0.2025
  438MOL0     C59054   0.272   5.004   0.905  0.5400 -0.8923 -1.8742
  438MOL0     C59055   0.194   5.087   1.016 -0.6798 -0.6088  1.2483
  438MOL0     C59056   0.058   5.042   1.074  0.5176 -0.7500  0.4833
  438MOL0     C59057  -0.054   5.029   0.961  0.7829 -0.1285  0.1719
  438MOL0     C59058  -0.088   5.156   0.885 -0.1053  0.4222 -1.0785
  438MOL0     C59059  -0.132   5.249   0.831  0.1308  0.0850 -0.3726
  438MOL0     C59060   0.192   4.970   0.549  0.8442 -0.0800 -0.5586
  438MOL0     C59061   0.256   4.963   0.422 -0.6391 -0.6361 -0.3950
  438MOL0     C59062   0.165   4.979   0.305 -0.3201  0.0064 -0.1587
  438MOL0     H59063   0.677   4.873   0.094  0.1073  0.3469  1.5198
  438MOL0     H59064   0.856   4.945  -0.064  0.4848  2.1361 -0.2154
  438MOL0     H59065   1.031   5.322  -0.197 -0.0255  0.3101 -0.1688
  438MOL0     H59066   0.966   5.375  -0.045  1.0742  0.2160  0.6265
  438MOL0     H59067   1.218   5.216  -0.078 -0.4896  1.3314 -3.4216
  438MOL0     H59068   1.151   5.265   0.076 -3.7377 -0.3559 -0.1639
  438MOL0     H59069   1.215   5.436  -0.159 -0.6202 -0.2369  0.8523
  438MOL0     H59070   1.324   5.411  -0.022  0.5462  0.6953 -0.4651
  438MOL0     H59071   1.054   5.575  -0.010  0.0953  1.2920  0.5808
  438MOL0     H59072   1.113   5.481   0.133 -1.1185 -0.7544  0.5757
  438MOL0     H59073   1.306   5.654  -0.000  0.4524  2.1195 -0.6722
  438MOL0     H59074   1.167   5.733   0.095 -1.6424 -1.6530  1.5631
  438MOL0     H59075   1.237   5.594   0.293 -1.3867 -1.4392 -1.0305
  438MOL0     H59076   1.372   5.551   0.197 -0.6971  1.4396 -2.7139
  438MOL0     H59077   1.422   5.801   0.155  0.3122 -1.4759 -0.5823
  438MOL0     H59078   1.455   5.735   0.306  1.4473 -0.1848 -1.5737
  438MOL0     H59079   1.208   5.909   0.289  2.3101 -0.3208 -1.7144
  438MOL0     H59080   1.247   5.798   0.420  1.0635  1.0114  1.6259
  438MOL0     H59081   1.427   6.060   0.208  0.2177  0.0037  0.0482
  438MOL0     H59082   1.613   6.297   0.429  0.4203  1.6503  1.6676
  438MOL0     H59083   1.514   6.306   0.273 -3.6313 -0.7762 -0.5489
  438MOL0     H59084   1.317   6.365   0.448 -0.0456  0.8539  0.5993
  438MOL0     H59085   1.448   6.365   0.563  3.7490 -1.6745 -0.3419
  438MOL0     H59086   1.536   6.570   0.423 -0.4730 -0.6619 -3.6253
  438MOL0     H59087   1.402   6.592   0.526 -2.4416 -2.6826  0.5203
  438MOL0     H59088   1.364   6.709   0.325 -2.3258  0.1375  1.2312
  438MOL0     H59089   1.247   6.582   0.340 -0.2032  1.2397  0.4634
  438MOL0     H59090   1.235   6.344   0.157 -1.9006 -0.3241 -0.5721
  438MOL0     H59091   1.135   6.298  -0.044 -0.2047  0.4650  0.1642
  438MOL0     H59092   1.063   6.397  -0.572  1.0497 -1.7408 -3.4443
  438MOL0     H59093   0.941   6.274  -0.729 -1.4279 -0.5884 -0.4292
  438MOL0     H59094   0.784   6.199  -0.847  0.5027  0.8666  3.6981
  438MOL0     H59095   0.880   6.052  -0.853 -1.1239  0.0754  2.0029
  438MOL0     H59096   0.583   6.008  -0.842  3.6337  1.0596  5.4537
  438MOL0     H59097   0.630   6.096  -0.987  2.3570  0.3414  0.0277
  438MOL0     H59098   0.762   5.830  -0.893 -3.3444 -0.9077  0.9003
  438MOL0     H59099   0.615   5.837  -0.971 -0.3285  0.1941  0.8272
  438MOL0     H59100   0.873   5.926  -1.107 -0.1509  0.0720  2.0890
  438MOL0     H59101   0.710   5.953  -1.182 -4.2091 -1.9691  2.8195
  438MOL0     H59102   0.785   5.768  -1.291 -0.5165 -0.4527 -0.6808
  438MOL0     H59103   0.675   5.710  -1.178 -0.6275  2.5740 -0.4141
  438MOL0     H59104   0.975   5.704  -1.200 -0.3336 -2.1013 -1.3758
  438MOL0     H59105   0.898   5.649  -1.044  1.9287 -0.6128  0.8023
  438MOL0     H59106   0.845   5.532  -1.318  1.8851  1.6527 -0.0891
  438MOL0     H59107   0.781   5.472  -1.159 -1.4436  1.0994 -0.1359
  438MOL0     H59108   1.062   5.470  -1.233  0.7750  0.8524 -0.4276
  438MOL0     H59109   1.020   5.464  -1.070  1.8276  1.7814 -1.5777
  438MOL0     H59110   0.813   5.994  -0.447  0.5647  0.3224 -0.6133
  438MOL0     H59111   0.924   6.140  -0.267  0.7580  2.4244  1.3789
  438MOL0     H59112   1.299   6.656  -0.221 -1.7193  0.2291 -1.1408
  438MOL0     H59113   1.405   6.709  -0.015 -2.3757  1.0664  2.0362
  438MOL0     H59114   0.870   5.323   0.147 -0.8959 -0.4219 -1.2553
  438MOL0     H59115   0.692   5.248   0.289  4.1702  5.6465 -1.3477
  438MOL0     H59116   0.563   4.913   0.536 -0.9951 -0.3111  1.6194
  438MOL0     H59117   0.459   4.936   0.755  0.0285  0.7939 -0.5749
  438MOL0     H59118   0.371   5.049   0.896  1.0217 -0.9341  1.7148
  438MOL0     H59119   0.298   4.908   0.951 -1.3397 -0.0008  1.4193
  438MOL0     H59120   0.177   5.185   0.971  1.0282 -0.6439  0.4624
  438MOL0     H59121   0.255   5.105   1.104  0.3107  2.0539  0.1153
  438MOL0     H59122   0.014   5.127   1.127 -1.2741 -2.5161  2.0307
  438MOL0     H59123   0.065   4.970   1.156  0.1274  0.2316  1.4119
  438MOL0     H59124  -0.028   4.959   0.882 -2.2972  0.7451 -1.7712
  438MOL0     H59125  -0.147   4.996   1.008  0.9278 -0.2350  0.3827
  438MOL0     H59126  -0.169   5.314   0.754  2.4756  1.1276 -0.7333
  438MOL0     H59127   0.084   4.977   0.548  0.8605  3.6569  2.1551
  438MOL0     H59128   0.184   4.914   0.219  5.5168  1.2473 -0.2166
  438MOL0     H59129   0.063   4.956   0.336  0.3984 -0.6863  1.8779
  438MOL0     H59130   0.165   5.085   0.279  1.6417 -0.0575 -0.5277
  439MOL0     O59131   7.616  10.125   7.633 -0.5780 -1.2627  0.1078
  439MOL0     C59132   7.640  10.228   7.688  0.5242  0.4308 -0.2673
  439MOL0     O59133   7.676  10.230   7.820 -0.1610  0.4161 -0.1357
  439MOL0     C59134   7.729  10.124   7.895 -0.8384  1.3059  0.4557
  439MOL0     C59135   7.828  10.040   7.832 -0.0534  0.0341  0.2515
  439MOL0     C59136   7.892   9.945   7.911 -0.3954  0.0431 -0.3293
  439MOL0     C59137   7.851   9.919   8.044 -1.0635  1.0424  0.7291
  439MOL0     O59138   7.894   9.812   8.115 -0.2580 -0.3527 -0.1275
  439MOL0     C59139   8.022   9.774   8.083 -0.0056 -0.1681  0.1538
  439MOL0     C59140   8.076   9.671   8.186  0.2170 -0.2538  0.6855
  439MOL0     C59141   8.104   9.739   8.325  0.1313 -0.0950 -0.1963
  439MOL0     C59142   8.152   9.633   8.417 -0.7465  0.9060 -0.2962
  439MOL0     C59143   8.233   9.692   8.530 -0.6542 -0.2963 -0.5630
  439MOL0     C59144   8.297   9.580   8.628  0.9206 -0.2470  0.0594
  439MOL0     C59145   8.378   9.652   8.747  1.2308  0.3453  0.5675
  439MOL0     C59146   8.369   9.564   8.883  0.1641 -0.5011 -0.1809
  439MOL0     N59147   8.398   9.650   8.993  0.5398 -0.3578 -0.4988
  439MOL0     C59148   8.305   9.702   9.077 -0.5945  0.2856  0.5469
  439MOL0     C59149   8.368   9.773   9.177 -0.5623 -1.0554 -0.1284
  439MOL0     C59150   8.313   9.816   9.307  0.2195 -0.0812 -0.3413
  439MOL0     C59151   8.281   9.690   9.386  0.5053 -0.6580 -0.4905
  439MOL0     C59152   8.233   9.732   9.535  0.2411 -0.3076  0.0926
  439MOL0     C59153   8.177   9.619   9.611  0.2623  0.3457  0.0180
  439MOL0     O59154   8.132   9.661   9.743  1.1261 -0.1729 -0.4944
  439MOL0     C59155   8.102   9.567   9.842  0.6855  0.8342  0.5555
  439MOL0     C59156   8.037   9.439   9.822 -0.5980 -0.3781  1.2385
  439MOL0     C59157   7.989   9.364   9.929 -0.3220  0.0733  0.6386
  439MOL0     C59158   8.020   9.394  10.063  1.1321 -0.7328 -0.0652
  439MOL0     C59159   7.995   9.308  10.172  0.4891 -0.6689 -0.9377
  439MOL0     O59160   8.035   9.363  10.293 -0.0909  0.1030  0.0720
  439MOL0     C59161   8.023   9.285  10.407 -0.1791  0.6520 -0.3262
  439MOL0     C59162   8.141   9.278  10.478  0.6894  0.7191  0.4226
  439MOL0     C59163   8.153   9.189  10.583 -0.4755 -0.1393 -0.0124
  439MOL0     C59164   8.047   9.113  10.630  0.2771 -0.1214  0.4739
  439MOL0     O59165   8.032   9.036  10.736 -0.2611 -0.2089  0.0400
  439MOL0     C59166   8.157   8.989  10.797  0.1407  0.0466 -0.7816
  439MOL0     C59167   8.118   8.857  10.857  0.1954 -0.5298  0.1565
  439MOL0     C59168   8.244   8.764  10.879 -0.1763  0.7022 -0.6610
  439MOL0     C59169   8.339   8.823  10.986 -0.8147  0.1910 -0.0872
  439MOL0     C59170   8.456   8.712  11.018  0.3407  0.0704  0.3041
  439MOL0     C59171   8.599   8.771  11.048  0.5597 -0.3547  0.2315
  439MOL0     C59172   8.621   8.812  11.186  0.5419 -0.5145 -0.5338
  439MOL0     C59173   8.747   8.884  11.204 -0.3641  0.0188  0.7889
  439MOL0    Cl59174   8.893   8.781  11.203  0.0040 -0.0470 -0.1164
  439MOL0     C59175   7.922   9.138  10.557 -0.6548  0.1802 -0.3075
  439MOL0     C59176   7.917   9.217  10.451  0.8446  0.4503  0.4257
  439MOL0     O59177   7.942   9.205  10.143 -0.0742  0.6294  0.0590
  439MOL0     C59178   8.092   9.519  10.080 -0.4146 -0.2201 -0.7820
  439MOL0     C59179   8.127   9.599   9.969 -0.8678 -0.6779 -1.1795
  439MOL0     N59180   8.504   9.761   9.134 -0.5401 -1.3279 -0.8006
  439MOL0     N59181   8.514   9.702   9.018 -0.8757  0.0688 -0.2437
  439MOL0     C59182   7.768  10.005   8.110 -0.6878 -0.5467  0.0256
  439MOL0     C59183   7.702  10.109   8.037 -0.6353  0.4222 -0.0150
  439MOL0     C59184   7.635  10.353   7.617 -0.7368 -0.0222  1.1216
  439MOL0     C59185   7.664  10.475   7.683  0.4985  0.5047 -1.0124
  439MOL0     C59186   7.680  10.592   7.611  0.8257 -0.1098 -0.7820
  439MOL0     C59187   7.669  10.600   7.477  0.2459  0.2032  0.8604
  439MOL0     O59188   7.671  10.724   7.420  0.4433  0.4259 -0.6994
  439MOL0     C59189   7.805  10.769   7.391  0.0815  0.2383 -0.3376
  439MOL0     C59190   7.806  10.877   7.277 -0.5113  0.2021 -0.1219
  439MOL0     C59191   7.742  10.989   7.323 -0.1404 -0.0005 -0.0114
  439MOL0     C59192   7.659  11.050   7.208 -0.5152 -0.3359 -0.0723
  439MOL0     C59193   7.740  11.110   7.097 -0.1119 -0.8930  0.2466
  439MOL0     C59194   7.805  11.190   7.024 -0.5427  0.5927 -0.3192
  439MOL0     C59195   7.622  10.488   7.410 -1.0524 -0.0115 -0.5995
  439MOL0     C59196   7.612  10.362   7.477  0.2000  0.5222  0.3994
  439MOL0     C59197   7.568  10.251   7.386  0.5435 -0.4938 -0.6975
  439MOL0     H59198   7.861  10.047   7.729 -3.5149 -0.4676 -1.0459
  439MOL0     H59199   7.967   9.880   7.867 -2.6408 -1.7683 -1.6720
  439MOL0     H59200   8.027   9.725   7.986 -1.4995 -0.8846  0.4116
  439MOL0     H59201   8.088   9.861   8.086  2.5210 -1.9900  1.7407
  439MOL0     H59202   8.171   9.631   8.149  0.3340  0.6903 -0.0887
  439MOL0     H59203   8.004   9.589   8.196  0.6186 -0.5338  1.2976
  439MOL0     H59204   8.012   9.785   8.363  1.6106  1.2315  1.9960
  439MOL0     H59205   8.174   9.819   8.303 -1.0083  0.7258 -0.9856
  439MOL0     H59206   8.068   9.569   8.448 -3.1844  2.1729 -3.6147
  439MOL0     H59207   8.218   9.563   8.364  0.5133 -0.0667  2.4029
  439MOL0     H59208   8.319   9.747   8.490 -1.0251  2.6596  2.3808
  439MOL0     H59209   8.162   9.753   8.585  0.0473 -0.2429  0.2955
  439MOL0     H59210   8.220   9.517   8.673  2.9607 -2.7811  0.3356
  439MOL0     H59211   8.366   9.510   8.578 -0.6364 -0.8566 -1.3231
  439MOL0     H59212   8.343   9.755   8.758  2.4563  0.8616 -0.2020
  439MOL0     H59213   8.486   9.661   8.731  1.0373  3.0498  0.2788
  439MOL0     H59214   8.272   9.514   8.891  0.7755 -1.7738 -0.4573
  439MOL0     H59215   8.445   9.486   8.879 -1.9063 -2.6668 -4.7035
  439MOL0     H59216   8.198   9.680   9.080 -0.6858  0.6567  0.1349
  439MOL0     H59217   8.381   9.872   9.373 -2.4524  0.0945  2.4553
  439MOL0     H59218   8.222   9.875   9.296  0.4898  0.6142  0.9412
  439MOL0     H59219   8.189   9.651   9.341 -1.2676  2.0539  0.5406
  439MOL0     H59220   8.363   9.618   9.383  0.5976 -0.5176 -2.0797
  439MOL0     H59221   8.157   9.808   9.519 -0.2841 -0.8531 -0.0524
  439MOL0     H59222   8.316   9.772   9.594  0.2077  3.0859 -1.9271
  439MOL0     H59223   8.258   9.549   9.635  0.8949  0.9689 -0.2446
  439MOL0     H59224   8.104   9.563   9.552  0.8379  1.2845 -1.6624
  439MOL0     H59225   8.009   9.396   9.726 -0.4716  0.2162  0.9217
  439MOL0     H59226   7.933   9.274   9.905  0.8457 -0.9481  1.5992
  439MOL0     H59227   8.226   9.330  10.434  1.9035 -0.4823  1.2329
  439MOL0     H59228   8.249   9.167  10.630 -0.4093 -0.8156 -0.4538
  439MOL0     H59229   8.243   8.989  10.729  0.2117  4.5193 -0.9891
  439MOL0     H59230   8.176   9.048  10.887 -0.7538 -1.3767  0.3745
  439MOL0     H59231   8.064   8.881  10.949  0.2677  1.1564 -0.2124
  439MOL0     H59232   8.053   8.798  10.791  2.6376 -0.2722 -2.6807
  439MOL0     H59233   8.212   8.669  10.924 -0.3614  1.7716  1.6018
  439MOL0     H59234   8.290   8.751  10.780 -0.3291  2.7841 -1.0464
  439MOL0     H59235   8.286   8.854  11.076 -2.7547  2.5506 -1.8893
  439MOL0     H59236   8.399   8.908  10.952  3.8155 -2.1957  1.2746
  439MOL0     H59237   8.469   8.658  10.924  0.0407 -0.4639  0.5649
  439MOL0     H59238   8.439   8.639  11.097  1.8459 -0.5914  0.0397
  439MOL0     H59239   8.677   8.700  11.018  0.9764  0.1885  0.0110
  439MOL0     H59240   8.586   8.857  10.981 -1.7949 -1.9033 -1.4334
  439MOL0     H59241   8.606   8.723  11.249 -2.5951  0.2497  0.0082
  439MOL0     H59242   8.538   8.874  11.221 -2.6116 -3.3323 -2.3905
  439MOL0     H59243   8.773   8.951  11.122  1.9064 -0.7011  0.8430
  439MOL0     H59244   8.740   8.946  11.294  0.1761 -1.7333  2.1020
  439MOL0     H59245   7.832   9.086  10.590 -1.5885  2.6867  1.3752
  439MOL0     H59246   7.829   9.224  10.388  0.6866 -2.7958  0.1288
  439MOL0     H59247   8.121   9.561  10.176 -0.8208  3.6820 -2.2230
  439MOL0     H59248   8.157   9.703   9.981  3.3089 -1.9115  0.7222
  439MOL0     H59249   7.754   9.991   8.217  0.5575  2.1546  0.6273
  439MOL0     H59250   7.635  10.186   8.073  0.3612  0.5168  1.6969
  439MOL0     H59251   7.689  10.476   7.789  3.9670 -1.6350 -1.6450
  439MOL0     H59252   7.715  10.678   7.667  2.9510 -2.0279  1.0365
  439MOL0     H59253   7.866  10.681   7.366 -2.0191 -1.1327 -0.9029
  439MOL0     H59254   7.849  10.813   7.481 -1.2174 -0.9778  0.9618
  439MOL0     H59255   7.749  10.838   7.192 -0.4697 -0.5323  0.1808
  439MOL0     H59256   7.908  10.896   7.244 -0.4669  0.9054  0.4056
  439MOL0     H59257   7.818  11.062   7.353  4.3716 -3.1693 -2.5980
  439MOL0     H59258   7.683  10.964   7.412  1.8243  3.6301  2.5981
  439MOL0     H59259   7.592  10.977   7.162  1.3773 -0.8147 -2.2220
  439MOL0     H59260   7.593  11.126   7.251  1.1152  1.9384 -1.3793
  439MOL0     H59261   7.858  11.271   6.979  0.6718  0.2667  0.4721
  439MOL0     H59262   7.600  10.504   7.305 -0.0719  3.6975 -0.3860
  439MOL0     H59263   7.641  10.169   7.392  1.9402  0.7985  2.3794
  439MOL0     H59264   7.468  10.224   7.419  0.8099  1.7360  2.3824
  439MOL0     H59265   7.568  10.290   7.284  3.3920  1.0138 -0.2323
  440MOL0     O59266   3.859  10.025   9.725 -0.0512  0.3446 -0.3126
  440MOL0     C59267   3.831  10.138   9.688 -0.7317 -0.6117 -0.4652
  440MOL0     O59268   3.749  10.160   9.577  0.2327  0.0542 -0.5374
  440MOL0     C59269   3.707  10.055   9.505  0.5422  0.2536  0.0339
  440MOL0     C59270   3.603   9.973   9.550 -0.4106 -0.0917  0.3465
  440MOL0     C59271   3.548   9.880   9.467 -0.7210  0.7324  0.5916
  440MOL0     C59272   3.595   9.860   9.330 -0.1253 -0.0823 -0.4833
  440MOL0     O59273   3.533   9.784   9.233 -0.5247 -0.2157 -0.1783
  440MOL0     C59274   3.420   9.705   9.266 -0.3155 -1.1109 -0.1156
  440MOL0     C59275   3.392   9.599   9.159  0.4593 -0.6165 -0.2156
  440MOL0     C59276   3.244   9.554   9.163 -0.5413  0.4796 -0.0035
  440MOL0     C59277   3.204   9.501   9.306  0.3667  0.5793  0.1298
  440MOL0     C59278   3.066   9.438   9.314 -0.0329  0.0188 -0.1425
  440MOL0     C59279   2.949   9.541   9.310 -0.4338  0.3801 -0.4318
  440MOL0     C59280   2.884   9.563   9.445  0.0042  0.5289 -0.0712
  440MOL0     C59281   2.772   9.662   9.433  0.4294 -0.7063 -0.7935
  440MOL0     N59282   2.720   9.708   9.564 -0.3065 -0.2717  0.6360
  440MOL0     C59283   2.602   9.664   9.622 -1.4266  0.7693  0.3824
  440MOL0     C59284   2.577   9.750   9.724 -0.1234 -0.0437 -0.8238
  440MOL0     C59285   2.457   9.758   9.827 -0.4641 -0.0699  0.7184
  440MOL0     C59286   2.456   9.627   9.900 -0.0737 -0.3014  0.0688
  440MOL0     C59287   2.351   9.626  10.017 -0.9889  0.2329  0.2868
  440MOL0     C59288   2.344   9.484  10.078  0.6158  0.6603 -0.3857
  440MOL0     O59289   2.284   9.490  10.212  0.2310  0.1085  0.0745
  440MOL0     C59290   2.207   9.382  10.263 -0.1158 -0.2952  0.1965
  440MOL0     C59291   2.131   9.400  10.380  0.5171 -0.1672  0.0443
  440MOL0     C59292   2.039   9.300  10.430 -0.7543  0.3508  0.5165
  440MOL0     C59293   2.044   9.169  10.376  0.9227 -0.0638  0.7391
  440MOL0     C59294   1.966   9.062  10.447  0.0398  0.2038  1.2903
  440MOL0     O59295   1.838   9.087  10.493 -0.0811 -0.3775 -0.4745
  440MOL0     C59296   1.800   8.999  10.596  0.5089 -0.3982 -0.4520
  440MOL0     C59297   1.784   8.868  10.569 -0.8729  1.0163  0.4675
  440MOL0     C59298   1.757   8.776  10.673  0.3558  0.1769  0.0017
  440MOL0     C59299   1.731   8.821  10.800  0.4150 -0.5146  0.1933
  440MOL0     O59300   1.688   8.736  10.894  0.3652  0.4224 -0.1954
  440MOL0     C59301   1.640   8.605  10.862  0.2435  0.2061  0.4660
  440MOL0     C59302   1.584   8.527  10.981  0.0323 -0.1216 -0.2982
  440MOL0     C59303   1.467   8.431  10.954  0.8909  0.4545 -0.9615
  440MOL0     C59304   1.336   8.505  10.949 -0.2028 -0.6226  0.5337
  440MOL0     C59305   1.228   8.399  10.941 -0.4467  0.7042 -0.1839
  440MOL0     C59306   1.102   8.448  10.876 -0.4242  0.6489  1.4077
  440MOL0     C59307   1.049   8.586  10.906  0.0371 -0.2535 -0.1534
  440MOL0     C59308   0.945   8.635  10.808 -0.7196 -0.0418  0.2298
  440MOL0    Cl59309   0.807   8.534  10.813  0.2811 -0.8207 -0.7296
  440MOL0     C59310   1.733   8.962  10.831  0.3085  0.2146  1.4947
  440MOL0     C59311   1.764   9.048  10.725 -0.3557  0.1341 -0.2834
  440MOL0     O59312   2.029   8.951  10.443  0.5844 -0.3349  0.0206
  440MOL0     C59313   2.133   9.139  10.269  0.5388 -0.4886  0.3397
  440MOL0     C59314   2.195   9.248  10.209 -0.2865 -0.1726  0.1369
  440MOL0     N59315   2.688   9.838   9.726  0.2181 -0.3121 -0.5855
  440MOL0     N59316   2.772   9.809   9.627  0.1931  0.0022  0.4512
  440MOL0     C59317   3.712   9.934   9.294 -0.7950  0.3212 -1.2255
  440MOL0     C59318   3.762  10.035   9.376 -0.2058 -0.4781 -0.3967
  440MOL0     C59319   3.873  10.248   9.778  0.6818  0.3906 -0.3978
  440MOL0     C59320   3.903  10.221   9.914 -0.2076  1.1310  0.8523
  440MOL0     C59321   3.923  10.322   9.999  1.1461 -0.3473 -0.5689
  440MOL0     C59322   3.899  10.453   9.962 -0.2226  0.2791  0.1118
  440MOL0     O59323   3.929  10.541  10.059 -0.1121 -0.1525 -0.0601
  440MOL0     C59324   4.030  10.637  10.042 -0.2253  0.0402 -0.0735
  440MOL0     C59325   4.157  10.602  10.109 -0.3569 -0.2451  0.3760
  440MOL0     C59326   4.265  10.704  10.063 -0.3445 -0.4391  1.0389
  440MOL0     C59327   4.399  10.679  10.135 -0.5865  0.6440 -0.0814
  440MOL0     C59328   4.502  10.742  10.055 -0.2915 -0.5367 -0.9861
  440MOL0     C59329   4.581  10.780   9.974 -0.6970 -0.3251  0.4262
  440MOL0     C59330   3.858  10.492   9.832  0.2078 -0.2405 -0.1190
  440MOL0     C59331   3.856  10.386   9.734 -0.3450 -0.0565  0.8115
  440MOL0     C59332   3.833  10.425   9.594  0.3256  0.2089  0.8979
  440MOL0     H59333   3.553  10.009   9.639 -1.8437  1.7810 -1.1320
  440MOL0     H59334   3.455   9.835   9.500 -2.8648  4.7276  0.6131
  440MOL0     H59335   3.431   9.654   9.362 -1.3971 -1.1191  0.0150
  440MOL0     H59336   3.334   9.773   9.261 -0.8906 -1.8789 -1.0557
  440MOL0     H59337   3.443   9.504   9.176 -1.3056 -1.6070 -0.1944
  440MOL0     H59338   3.410   9.637   9.058  0.9070  0.2125  0.1729
  440MOL0     H59339   3.220   9.490   9.078  1.8488  0.2841 -0.6001
  440MOL0     H59340   3.174   9.634   9.139  0.1928  1.2735  0.4395
  440MOL0     H59341   3.290   9.437   9.327 -0.9772 -0.8144  1.7263
  440MOL0     H59342   3.202   9.593   9.365 -0.2782  1.2039 -0.8352
  440MOL0     H59343   3.047   9.387   9.219 -2.5174  2.0279 -0.8610
  440MOL0     H59344   3.069   9.370   9.399  1.2985  2.3314  1.7868
  440MOL0     H59345   2.980   9.635   9.264  0.8077 -0.6564 -1.8003
  440MOL0     H59346   2.870   9.499   9.247  1.1847 -1.7686 -1.1602
  440MOL0     H59347   2.963   9.605   9.509 -1.2389  3.1041 -0.1111
  440MOL0     H59348   2.849   9.465   9.476  0.8556  0.2383 -0.0009
  440MOL0     H59349   2.811   9.753   9.385  0.9708  0.4348  1.6585
  440MOL0     H59350   2.690   9.632   9.368  0.1176  1.1751 -1.3322
  440MOL0     H59351   2.524   9.592   9.598 -0.9267 -0.3419  1.9129
  440MOL0     H59352   2.475   9.842   9.895 -1.6261  1.3617 -0.6553
  440MOL0     H59353   2.367   9.777   9.767  0.3603 -0.6241 -0.7274
  440MOL0     H59354   2.426   9.554   9.824 -2.2883  0.8832 -0.2846
  440MOL0     H59355   2.556   9.599   9.933  0.9401  0.1955 -2.3614
  440MOL0     H59356   2.257   9.666   9.978 -1.6645 -0.1147  1.4857
  440MOL0     H59357   2.390   9.685  10.101 -2.7107  1.9801 -0.0678
  440MOL0     H59358   2.444   9.440  10.078 -0.3265 -1.6083 -1.1628
  440MOL0     H59359   2.288   9.413  10.016  2.0958  0.2431 -1.2952
  440MOL0     H59360   2.131   9.496  10.432 -1.4993  1.4059 -2.6268
  440MOL0     H59361   1.968   9.318  10.510 -1.6657 -2.2886  0.3675
  440MOL0     H59362   1.795   8.843  10.464  1.2434  0.8487  0.6927
  440MOL0     H59363   1.751   8.672  10.642  2.8953  0.0818 -0.3632
  440MOL0     H59364   1.561   8.604  10.787 -0.7669 -1.5669  1.4587
  440MOL0     H59365   1.725   8.550  10.821  1.1456  1.0344  1.1776
  440MOL0     H59366   1.663   8.466  11.027  0.7618 -0.2036 -1.6044
  440MOL0     H59367   1.559   8.604  11.054  1.6714  1.8304 -1.6800
  440MOL0     H59368   1.485   8.378  10.860  1.3387  0.5623 -0.9420
  440MOL0     H59369   1.458   8.357  11.034  0.5104  0.5900 -0.8803
  440MOL0     H59370   1.335   8.557  10.853  1.0095 -3.0777 -0.9221
  440MOL0     H59371   1.326   8.585  11.023  0.6640  1.7422 -1.7630
  440MOL0     H59372   1.197   8.357  11.037  0.1181 -0.4104 -0.4797
  440MOL0     H59373   1.274   8.336  10.864 -0.2760  1.4515 -0.7147
  440MOL0     H59374   1.109   8.444  10.767 -0.6249  1.0941  1.3774
  440MOL0     H59375   1.026   8.372  10.898  0.8845 -1.5951 -1.2501
  440MOL0     H59376   1.130   8.659  10.916  0.3806 -0.7765  1.1956
  440MOL0     H59377   1.007   8.576  11.006 -1.2532  0.8533 -0.5570
  440MOL0     H59378   0.927   8.737  10.842  0.5574 -0.1131  1.2147
  440MOL0     H59379   0.990   8.649  10.709 -0.1108  3.1687  0.8729
  440MOL0     H59380   1.714   8.997  10.932  1.3749 -1.1551  2.1986
  440MOL0     H59381   1.774   9.150  10.759  2.1304 -0.0651 -0.2245
  440MOL0     H59382   2.159   9.039  10.238  0.2440 -0.8321  1.1860
  440MOL0     H59383   2.260   9.233  10.124 -2.8573 -1.9198 -1.6784
  440MOL0     H59384   3.752   9.913   9.195  0.7403 -1.5484 -0.2819
  440MOL0     H59385   3.834  10.104   9.332  2.9822 -2.5892  1.0991
  440MOL0     H59386   3.905  10.121   9.955  1.4684 -0.0891 -1.8808
  440MOL0     H59387   3.945  10.300  10.103 -2.3722 -2.3840 -0.0931
  440MOL0     H59388   3.993  10.730  10.086  1.7348  2.4410 -3.1252
  440MOL0     H59389   4.053  10.649   9.936 -0.7036 -0.3587 -0.2293
  440MOL0     H59390   4.193  10.506  10.071  3.2132 -0.1641  3.0432
  440MOL0     H59391   4.156  10.608  10.218 -0.5839 -1.4679  0.4538
  440MOL0     H59392   4.246  10.810  10.083  1.2033  0.2623 -0.8769
  440MOL0     H59393   4.265  10.690   9.955  0.3594 -0.6711  1.0660
  440MOL0     H59394   4.409  10.711  10.240 -1.9888 -0.2574  0.3475
  440MOL0     H59395   4.422  10.572  10.136 -0.8161  0.5857 -0.8272
  440MOL0     H59396   4.649  10.819   9.901 -2.0022  2.1125  0.3818
  440MOL0     H59397   3.846  10.597   9.806  0.8035 -0.3281 -0.7724
  440MOL0     H59398   3.893  10.362   9.528 -1.6206 -1.3747  0.5372
  440MOL0     H59399   3.725  10.433   9.575  0.2610  1.6274  1.6516
  440MOL0     H59400   3.873  10.525   9.572 -1.4155  1.2083  1.9911
  441MOL0     O59401   4.215  10.588   1.657  0.7010  0.3302  0.0266
  441MOL0     C59402   4.213  10.514   1.750  0.2426 -0.1296  0.0246
  441MOL0     O59403   4.186  10.554   1.882  0.0861 -0.4669  0.6800
  441MOL0     C59404   4.187  10.683   1.904  0.6549 -0.2711 -1.2826
  441MOL0     C59405   4.284  10.774   1.873  0.0780 -0.1560  0.0119
  441MOL0     C59406   4.284  10.915   1.903 -0.3933  0.2459  0.0040
  441MOL0     C59407   4.173  10.964   1.968 -0.1996  0.2644 -0.1404
  441MOL0     O59408   4.153  11.091   2.014  0.1860  0.1023  0.3786
  441MOL0     C59409   4.170  11.195   1.919  0.7573 -0.3492  0.0833
  441MOL0     C59410   4.035  11.203   1.830 -0.4264  0.4347 -0.1272
  441MOL0     C59411   3.915  11.250   1.905 -0.9817  1.1611  0.6814
  441MOL0     C59412   3.929  11.403   1.934  0.2655  0.3883  0.2207
  441MOL0     C59413   3.780  11.451   1.960 -0.4897  0.2742  0.2364
  441MOL0     C59414   3.780  11.594   2.006 -0.2411 -0.0481  0.1788
  441MOL0     C59415   3.639  11.647   2.038  0.5327  0.4340 -0.0985
  441MOL0     C59416   3.581  11.690   1.902 -0.3480 -0.0655  0.1983
  441MOL0     N59417   3.443  11.729   1.909  0.0486  0.4515  0.7195
  441MOL0     C59418   3.392  11.848   1.943 -0.2736 -0.1464 -1.1573
  441MOL0     C59419   3.260  11.839   1.958 -1.0798  0.0744  0.0052
  441MOL0     C59420   3.151  11.945   1.981 -0.4261 -0.1453 -0.7763
  441MOL0     C59421   3.015  11.896   2.018  0.1661  0.1420 -0.7439
  441MOL0     C59422   2.918  12.020   2.046  0.1312 -0.0345  0.4806
  441MOL0     C59423   2.850  12.060   1.912  0.7184  0.7961 -0.3116
  441MOL0     O59424   2.930  12.150   1.838 -0.5684  0.5804 -0.1507
  441MOL0     C59425   2.870  12.225   1.742 -0.8851  0.6781 -0.2025
  441MOL0     C59426   2.940  12.338   1.692  0.0179  0.2104 -0.5430
  441MOL0     C59427   2.875  12.422   1.603  0.4098  0.0011 -0.0921
  441MOL0     C59428   2.752  12.400   1.541 -0.6846 -0.5157  0.0224
  441MOL0     C59429   2.700  12.487   1.439 -0.0047  1.0675  0.6933
  441MOL0     O59430   2.770  12.601   1.428 -0.4993 -0.5428  0.5818
  441MOL0     C59431   2.726  12.712   1.358 -0.3781  0.1542 -1.0938
  441MOL0     C59432   2.613  12.719   1.259 -0.1946  0.5180  0.2172
  441MOL0     C59433   2.579  12.838   1.196 -0.2682  1.9465  0.2675
  441MOL0     C59434   2.657  12.950   1.227  0.1909 -0.0133 -1.3245
  441MOL0     O59435   2.622  13.063   1.160  0.2267 -1.2541 -0.3440
  441MOL0     C59436   2.646  13.196   1.220 -0.8072  0.0240 -0.1779
  441MOL0     C59437   2.611  13.303   1.121  0.1113 -1.2753  0.9194
  441MOL0     C59438   2.588  13.442   1.187  0.3432 -0.1726  0.1769
  441MOL0     C59439   2.709  13.487   1.256  0.0932  0.4872 -0.2176
  441MOL0     C59440   2.712  13.639   1.278 -0.6280 -0.0713  0.0160
  441MOL0     C59441   2.862  13.680   1.313  0.5030 -0.4367  0.9856
  441MOL0     C59442   2.889  13.832   1.346 -0.5327 -1.1023 -0.1494
  441MOL0     C59443   2.903  13.909   1.220 -0.0843  0.7781 -0.5815
  441MOL0    Cl59444   2.966  14.082   1.240 -0.1573  0.0321  0.2992
  441MOL0     C59445   2.762  12.945   1.325 -0.7290  1.4293 -0.4150
  441MOL0     C59446   2.797  12.832   1.395 -0.3432  0.0039 -0.0597
  441MOL0     O59447   2.607  12.459   1.370 -0.1775  0.0238 -0.2453
  441MOL0     C59448   2.688  12.290   1.591 -0.3418  0.0896 -0.5959
  441MOL0     C59449   2.748  12.200   1.682  0.4049  0.1837 -0.1075
  441MOL0     N59450   3.234  11.707   1.936 -0.3415  0.3338 -0.0595
  441MOL0     N59451   3.337  11.645   1.899 -1.0148 -0.6531  0.1829
  441MOL0     C59452   4.074  10.875   2.018  0.5106  0.2876  0.7889
  441MOL0     C59453   4.071  10.737   1.982  0.8408  0.8250 -0.4039
  441MOL0     C59454   4.253  10.372   1.715 -0.1805  0.5165  1.2466
  441MOL0     C59455   4.332  10.354   1.596  0.6224  0.2088 -0.9949
  441MOL0     C59456   4.362  10.227   1.551  0.2996  0.5170  0.0028
  441MOL0     C59457   4.330  10.107   1.628  0.4325  0.6981 -0.8744
  441MOL0     O59458   4.368   9.979   1.575 -0.4361 -0.5580  0.2340
  441MOL0     C59459   4.300   9.868   1.637 -0.0068 -0.5369 -0.2587
  441MOL0     C59460   4.308   9.751   1.543 -0.2483 -0.8189  0.2120
  441MOL0     C59461   4.188   9.655   1.557  0.0195  0.6062  0.4087
  441MOL0     C59462   4.239   9.521   1.608  0.8224  0.5442  0.2085
  441MOL0     C59463   4.301   9.543   1.739 -0.2377  0.1903 -0.6214
  441MOL0     C59464   4.352   9.549   1.851 -0.3731  0.5781 -0.8539
  441MOL0     C59465   4.248  10.128   1.740 -0.2180  0.4567 -0.9552
  441MOL0     C59466   4.215  10.258   1.786  0.4466  0.9000  0.8676
  441MOL0     C59467   4.136  10.271   1.905  1.0113 -0.2581  0.2493
  441MOL0     H59468   4.372  10.726   1.832 -0.6736 -2.8757  1.3076
  441MOL0     H59469   4.363  10.972   1.856 -1.2701  0.2057 -1.5827
  441MOL0     H59470   4.183  11.291   1.970  2.7145  0.8276 -2.3695
  441MOL0     H59471   4.263  11.174   1.865  0.5016 -1.3311  0.0005
  441MOL0     H59472   4.020  11.106   1.781  0.9640  0.9759 -1.7205
  441MOL0     H59473   4.039  11.277   1.749  0.8877  2.2375  1.5035
  441MOL0     H59474   3.916  11.189   1.996  4.1486 -0.6100 -0.2563
  441MOL0     H59475   3.824  11.234   1.847  0.5946 -3.0228 -0.9837
  441MOL0     H59476   3.977  11.412   2.032 -2.4291 -0.6044  1.7358
  441MOL0     H59477   3.970  11.469   1.857  2.1981  0.7775  1.4873
  441MOL0     H59478   3.715  11.445   1.872 -0.7830  0.1098  0.4589
  441MOL0     H59479   3.737  11.384   2.036 -0.5137 -4.5508 -3.5631
  441MOL0     H59480   3.836  11.604   2.100 -0.0922  0.0638  0.0777
  441MOL0     H59481   3.831  11.651   1.928  0.2406 -1.7532 -0.8196
  441MOL0     H59482   3.631  11.739   2.096  0.6358  1.2036 -1.2606
  441MOL0     H59483   3.577  11.568   2.081  0.3881  0.7749  0.3265
  441MOL0     H59484   3.649  11.770   1.871  1.0629 -1.3103 -0.0631
  441MOL0     H59485   3.588  11.614   1.823 -1.1865 -1.4786  1.4409
  441MOL0     H59486   3.446  11.942   1.958  0.7033 -0.6049 -1.7211
  441MOL0     H59487   3.176  12.023   2.054 -5.7429  2.7019 -1.4690
  441MOL0     H59488   3.131  12.009   1.894 -2.7183  4.4622  2.6554
  441MOL0     H59489   2.964  11.840   1.939  2.2352 -0.1890 -1.9119
  441MOL0     H59490   3.016  11.835   2.108 -0.1253 -0.4040 -1.1013
  441MOL0     H59491   2.956  12.109   2.097 -2.8486 -0.3317  3.5289
  441MOL0     H59492   2.839  11.998   2.119  2.9474  0.1161  3.8229
  441MOL0     H59493   2.758  12.110   1.943  2.1554  3.7792 -0.5287
  441MOL0     H59494   2.818  11.980   1.846 -1.6671  0.5379  1.0554
  441MOL0     H59495   3.041  12.358   1.726 -0.0315 -3.2970  2.3301
  441MOL0     H59496   2.936  12.505   1.566  1.4660  0.1826  1.9229
  441MOL0     H59497   2.560  12.629   1.233  1.4054 -0.3355 -0.1942
  441MOL0     H59498   2.494  12.844   1.129 -0.5249 -1.1173  0.1537
  441MOL0     H59499   2.599  13.215   1.316 -0.5207  2.7224 -0.5146
  441MOL0     H59500   2.753  13.193   1.244 -1.2469 -2.0820  1.8993
  441MOL0     H59501   2.690  13.307   1.045  1.2846 -0.3055  2.1166
  441MOL0     H59502   2.518  13.277   1.071 -1.7354  5.2194  0.0183
  441MOL0     H59503   2.552  13.513   1.112  2.0663 -2.0253 -2.6208
  441MOL0     H59504   2.501  13.433   1.253 -0.7027 -0.8664 -1.2327
  441MOL0     H59505   2.791  13.466   1.187  1.5215  3.7110  0.3341
  441MOL0     H59506   2.724  13.442   1.355  0.4109 -1.4523 -1.0917
  441MOL0     H59507   2.658  13.678   1.365  1.4271 -1.3086  1.9397
  441MOL0     H59508   2.686  13.698   1.189 -0.1247 -1.1507 -0.8698
  441MOL0     H59509   2.897  13.626   1.401  2.2358  0.7926  1.0914
  441MOL0     H59510   2.928  13.651   1.231 -1.5130 -4.0671  0.4268
  441MOL0     H59511   2.985  13.842   1.398 -0.5315 -4.3838  0.7526
  441MOL0     H59512   2.814  13.870   1.416  0.4822 -0.5022  0.6360
  441MOL0     H59513   2.972  13.859   1.152 -0.7082  0.1755 -0.7795
  441MOL0     H59514   2.806  13.913   1.171  0.0011 -0.1310 -0.8301
  441MOL0     H59515   2.824  13.032   1.337  0.6431  0.7596 -2.1625
  441MOL0     H59516   2.882  12.824   1.462 -1.4002 -3.0398  1.1214
  441MOL0     H59517   2.583  12.271   1.575 -0.3844 -2.4950  1.8347
  441MOL0     H59518   2.694  12.113   1.718  1.1880  0.1456  1.0160
  441MOL0     H59519   3.990  10.929   2.059  0.1412 -0.1459  0.6031
  441MOL0     H59520   3.988  10.672   2.007  1.2992 -0.4264 -1.9732
  441MOL0     H59521   4.359  10.441   1.537  1.9622  1.8246  1.7992
  441MOL0     H59522   4.419  10.223   1.458  0.8087  2.7737  0.1702
  441MOL0     H59523   4.193   9.893   1.639 -0.4938 -2.5238  1.3638
  441MOL0     H59524   4.351   9.833   1.727  0.9849 -1.7111 -1.2458
  441MOL0     H59525   4.405   9.701   1.557  0.2656 -0.6939 -2.4108
  441MOL0     H59526   4.305   9.792   1.442  2.2799 -0.4866  0.2001
  441MOL0     H59527   4.138   9.648   1.460  1.8324 -1.3477 -0.4785
  441MOL0     H59528   4.110   9.686   1.627 -0.3567 -1.5386  1.0361
  441MOL0     H59529   4.156   9.449   1.606  1.5320 -0.3008 -1.7222
  441MOL0     H59530   4.313   9.479   1.538  2.2298  2.8396  0.2064
  441MOL0     H59531   4.383   9.558   1.953 -0.7536 -1.7133 -0.4721
  441MOL0     H59532   4.206  10.047   1.800 -1.2754  3.1064  2.1953
  441MOL0     H59533   4.081  10.180   1.934 -0.8954  1.8877  4.3649
  441MOL0     H59534   4.187  10.310   1.994 -0.1281  0.1710  0.7463
  441MOL0     H59535   4.061  10.349   1.890  1.0970 -0.0386  0.9261
  442MOL0     O59536   3.922  10.827  10.862 -0.2790 -0.0027 -0.8242
  442MOL0     C59537   3.808  10.831  10.894 -0.2074 -0.2810 -0.0687
  442MOL0     O59538   3.731  10.718  10.913 -0.0502  0.2300 -0.0258
  442MOL0     C59539   3.775  10.605  10.843  0.4622  0.3211 -0.7434
  442MOL0     C59540   3.796  10.493  10.929 -0.2107  0.3627 -0.1527
  442MOL0     C59541   3.860  10.381  10.876  0.1306 -0.3001  0.5331
  442MOL0     C59542   3.891  10.362  10.740 -0.6109 -0.6461 -0.6399
  442MOL0     O59543   3.933  10.241  10.683 -0.4383  0.1511 -0.2834
  442MOL0     C59544   3.955  10.230  10.543  0.2063  0.7397 -0.3052
  442MOL0     C59545   4.098  10.255  10.528 -1.3431 -0.0080  0.9782
  442MOL0     C59546   4.140  10.202  10.389  0.8168 -0.4936 -0.3060
  442MOL0     C59547   4.287  10.190  10.367  0.0152 -0.6168 -0.8387
  442MOL0     C59548   4.320  10.147  10.228 -0.3623 -0.1657 -0.2854
  442MOL0     C59549   4.447  10.206  10.185 -0.3635  0.0619  0.2319
  442MOL0     C59550   4.572  10.191  10.277  0.5873  0.7421  0.9986
  442MOL0     C59551   4.685  10.284  10.225 -0.0243  0.5048 -0.1835
  442MOL0     N59552   4.790  10.301  10.327  0.3933  0.0660 -0.2271
  442MOL0     C59553   4.855  10.193  10.384 -0.4644  0.6326  0.2923
  442MOL0     C59554   4.938  10.237  10.481 -0.9341 -0.3031 -0.2830
  442MOL0     C59555   5.033  10.166  10.584 -0.2990 -0.9984 -0.2009
  442MOL0     C59556   5.157  10.115  10.507 -1.0441  0.3807  0.2853
  442MOL0     C59557   5.266  10.222  10.468 -0.0083  0.5827  0.5153
  442MOL0     C59558   5.366  10.155  10.373  0.5676  0.0969  0.1277
  442MOL0     O59559   5.320  10.165  10.235 -0.1293 -0.6966  0.0118
  442MOL0     C59560   5.351  10.280  10.156 -0.3931  0.1532 -0.3690
  442MOL0     C59561   5.304  10.287  10.029 -0.2579 -0.1249 -0.3989
  442MOL0     C59562   5.343  10.388   9.940 -0.4012  0.5818  0.0747
  442MOL0     C59563   5.410  10.501   9.982  0.4075 -0.1724 -0.0115
  442MOL0     C59564   5.433  10.617   9.888 -0.0652  0.3744  0.7056
  442MOL0     O59565   5.356  10.617   9.777  0.1850  0.5896 -0.6874
  442MOL0     C59566   5.369  10.720   9.683 -0.1589  0.0645  0.0723
  442MOL0     C59567   5.263  10.808   9.657  0.0918 -0.5816 -0.7403
  442MOL0     C59568   5.283  10.912   9.568 -0.9809  0.0329  0.5207
  442MOL0     C59569   5.402  10.934   9.497 -0.2322  0.6011  0.1302
  442MOL0     O59570   5.417  11.028   9.396 -1.1283 -0.5346  0.8799
  442MOL0     C59571   5.345  11.154   9.399 -0.1621  0.0989 -0.7235
  442MOL0     C59572   5.437  11.246   9.466 -0.5182  0.7758 -0.4233
  442MOL0     C59573   5.370  11.377   9.526 -0.6712 -0.8288 -0.4526
  442MOL0     C59574   5.470  11.488   9.560  1.0042 -0.3010 -0.0725
  442MOL0     C59575   5.402  11.601   9.640  0.6975 -0.0910 -0.7205
  442MOL0     C59576   5.503  11.710   9.670  0.2194 -0.0325  0.4735
  442MOL0     C59577   5.443  11.820   9.753 -0.3424  0.2359  0.4751
  442MOL0     C59578   5.368  11.918   9.658 -0.8743  0.6058 -0.0843
  442MOL0    Cl59579   5.309  12.059   9.768  0.2662  0.4704  0.2053
  442MOL0     C59580   5.496  10.832   9.509  0.0212 -1.0952 -0.6017
  442MOL0     C59581   5.486  10.736   9.611 -0.2480  0.0671 -0.2058
  442MOL0     O59582   5.518  10.692   9.909  0.0079  0.2250 -0.3880
  442MOL0     C59583   5.447  10.501  10.120 -0.5525  0.0116  0.0599
  442MOL0     C59584   5.425  10.393  10.207 -0.2126 -0.0033  0.8838
  442MOL0     N59585   4.908  10.373  10.485 -0.5597  0.0795 -0.3306
  442MOL0     N59586   4.831  10.417  10.386 -0.7304 -0.6331  0.0350
  442MOL0     C59587   3.868  10.485  10.661 -0.3577  0.0119  0.4733
  442MOL0     C59588   3.795  10.596  10.703 -0.1945  0.7304 -0.1885
  442MOL0     C59589   3.746  10.967  10.917 -0.1334  0.0670  0.4075
  442MOL0     C59590   3.600  10.958  10.943  0.3853 -0.3477  0.7457
  442MOL0     C59591   3.522  11.074  10.967 -0.3290 -0.3518  0.7670
  442MOL0     C59592   3.587  11.200  10.950  0.1649  0.6067 -1.2657
  442MOL0     O59593   3.516  11.315  10.965  0.3278  0.2883  0.6234
  442MOL0     C59594   3.542  11.401  11.075  0.0643  0.3482 -0.0158
  442MOL0     C59595   3.433  11.496  11.106  0.2713  0.5152  0.1585
  442MOL0     C59596   3.424  11.527  11.253  1.5677 -0.3433 -1.8332
  442MOL0     C59597   3.345  11.446  11.347 -0.5523  0.5126 -0.6508
  442MOL0     C59598   3.382  11.301  11.345  0.5044 -0.2543 -0.7074
  442MOL0     C59599   3.412  11.186  11.338  0.6901 -0.1399 -0.2121
  442MOL0     C59600   3.725  11.203  10.926 -0.2408 -0.7073 -0.0375
  442MOL0     C59601   3.807  11.095  10.906 -0.6043  0.4234 -0.0948
  442MOL0     C59602   3.957  11.107  10.876  0.6132 -0.7645 -1.5565
  442MOL0     H59603   3.785  10.498  11.037 -0.4305 -2.0470 -0.0060
  442MOL0     H59604   3.896  10.319  10.956 -0.2761  0.9137  1.7010
  442MOL0     H59605   3.933  10.130  10.506  0.0256  1.3081 -1.7967
  442MOL0     H59606   3.883  10.291  10.488 -1.0614  0.4922  1.0083
  442MOL0     H59607   4.141  10.185  10.601 -4.5092 -0.6029  2.4132
  442MOL0     H59608   4.130  10.359  10.534  0.6053 -0.2803 -2.1591
  442MOL0     H59609   4.100  10.271  10.315  0.4393 -0.2808  0.0973
  442MOL0     H59610   4.094  10.104  10.372 -0.0305  0.1823 -2.0615
  442MOL0     H59611   4.316  10.293  10.389  0.3088 -1.2371  2.0798
  442MOL0     H59612   4.319  10.117  10.442  0.3053 -2.0908 -2.3578
  442MOL0     H59613   4.341  10.041  10.218  4.4287  0.6246 -1.1022
  442MOL0     H59614   4.237  10.177  10.164 -0.8319 -1.5928 -0.3640
  442MOL0     H59615   4.474  10.154  10.093  0.9344  0.5824  0.2996
  442MOL0     H59616   4.428  10.312  10.171 -0.4868 -0.1360 -1.2365
  442MOL0     H59617   4.586  10.083  10.284 -0.0099  0.5534 -0.5122
  442MOL0     H59618   4.552  10.230  10.378  1.0524 -0.3376  1.5257
  442MOL0     H59619   4.728  10.249  10.131 -0.1476  1.6778 -0.6948
  442MOL0     H59620   4.645  10.383  10.206  0.0338  0.3352 -1.2590
  442MOL0     H59621   4.854  10.093  10.343  2.2344  0.1450  1.2221
  442MOL0     H59622   5.073  10.230  10.663  2.1194 -1.9907 -0.5601
  442MOL0     H59623   4.974  10.091  10.638 -3.6910  2.2138  0.9553
  442MOL0     H59624   5.212  10.044  10.570 -0.7642  2.0835  2.0401
  442MOL0     H59625   5.112  10.061  10.423  0.4623  0.6983 -0.7803
  442MOL0     H59626   5.322  10.261  10.553  4.4421  0.3665 -1.9563
  442MOL0     H59627   5.215  10.306  10.420 -0.4800  1.5174  2.5609
  442MOL0     H59628   5.374  10.048  10.392  1.4163 -0.1995 -1.7711
  442MOL0     H59629   5.465  10.199  10.386  0.4095  0.2838  0.7776
  442MOL0     H59630   5.246  10.204   9.990 -0.0436 -1.4369  1.9256
  442MOL0     H59631   5.321  10.369   9.836 -2.5016 -2.9764  0.9843
  442MOL0     H59632   5.168  10.789   9.707 -0.3751 -0.5972 -1.6118
  442MOL0     H59633   5.188  10.965   9.559 -0.8999 -0.0660 -1.3806
  442MOL0     H59634   5.332  11.201   9.301  0.5038  1.1569 -0.3154
  442MOL0     H59635   5.248  11.151   9.450  0.3785 -0.2909  0.3134
  442MOL0     H59636   5.464  11.204   9.563 -1.8465 -0.8033 -0.7023
  442MOL0     H59637   5.524  11.244   9.400  1.0679 -1.5176  1.5513
  442MOL0     H59638   5.301  11.422   9.454  0.4627 -1.4924 -2.0045
  442MOL0     H59639   5.307  11.363   9.615 -1.4154 -3.0141 -1.2516
  442MOL0     H59640   5.498  11.538   9.467 -0.4676  2.3864  0.8186
  442MOL0     H59641   5.558  11.451   9.613 -0.3013 -1.0320  1.6773
  442MOL0     H59642   5.359  11.571   9.736 -1.7120 -1.9869 -2.2824
  442MOL0     H59643   5.330  11.639   9.567  4.2750 -0.3296 -4.7653
  442MOL0     H59644   5.587  11.670   9.728  1.2283  1.1541 -0.1168
  442MOL0     H59645   5.542  11.752   9.576  0.2231  2.4952  1.5369
  442MOL0     H59646   5.519  11.873   9.812 -1.1165  0.5684  1.1843
  442MOL0     H59647   5.380  11.777   9.831  1.0487 -1.9190  0.5269
  442MOL0     H59648   5.443  11.962   9.592  0.1563  3.2193  2.5926
  442MOL0     H59649   5.297  11.860   9.598  0.7970 -2.5589  0.7824
  442MOL0     H59650   5.588  10.844   9.453  0.7835  1.5282  1.0204
  442MOL0     H59651   5.576  10.678   9.628  1.9536  3.7365  2.1675
  442MOL0     H59652   5.503  10.586  10.159 -2.9067  0.1815  3.5572
  442MOL0     H59653   5.470  10.382  10.305  0.4805  0.2067  0.5944
  442MOL0     H59654   3.883  10.483  10.554  2.2003  0.5473  0.7476
  442MOL0     H59655   3.771  10.675  10.632  0.3724  0.0287 -1.1858
  442MOL0     H59656   3.539  10.869  10.941 -3.2402  1.9121  1.5327
  442MOL0     H59657   3.414  11.071  10.983 -0.7660 -2.1861 -2.0173
  442MOL0     H59658   3.629  11.466  11.058 -0.8109  1.0564 -2.0874
  442MOL0     H59659   3.575  11.351  11.167 -2.1369  1.7071  1.6097
  442MOL0     H59660   3.331  11.461  11.085 -0.5073  2.2931  0.8156
  442MOL0     H59661   3.455  11.575  11.034  0.3602 -2.1069 -2.9390
  442MOL0     H59662   3.383  11.628  11.256  1.8252 -0.2277 -2.1481
  442MOL0     H59663   3.524  11.525  11.298  1.9607 -0.6206 -2.6869
  442MOL0     H59664   3.361  11.464  11.453 -4.3449  2.2563 -0.2070
  442MOL0     H59665   3.238  11.463  11.332 -0.2607  0.7434 -2.7373
  442MOL0     H59666   3.430  11.081  11.334 -0.9930 -0.4399 -1.0976
  442MOL0     H59667   3.770  11.302  10.928 -0.5048 -0.5970  0.9777
  442MOL0     H59668   3.991  11.207  10.906 -1.7973 -0.5468  0.7979
  442MOL0     H59669   4.014  11.040  10.941 -0.3467  0.4881  0.7306
  442MOL0     H59670   3.974  11.097  10.769 -0.2072 -0.3729 -1.7355
  443MOL0     O59671   3.752   2.207   8.246  0.7891  0.4956 -0.3842
  443MOL0     C59672   3.653   2.289   8.254 -0.3865 -0.1179 -0.2263
  443MOL0     O59673   3.535   2.264   8.319  0.3343 -0.3445 -0.3776
  443MOL0     C59674   3.454   2.153   8.299 -0.9379 -0.0178  0.4946
  443MOL0     C59675   3.486   2.043   8.208 -0.0065 -0.6318  0.4151
  443MOL0     C59676   3.405   1.925   8.203 -0.7805 -0.4862 -0.5840
  443MOL0     C59677   3.291   1.916   8.283  1.3254  0.5757 -0.4623
  443MOL0     O59678   3.213   1.806   8.265  0.0798 -0.2573 -0.2350
  443MOL0     C59679   3.257   1.692   8.196 -0.7687  1.4062  0.0062
  443MOL0     C59680   3.164   1.574   8.225 -0.1379 -0.1833 -0.1324
  443MOL0     C59681   3.027   1.613   8.169 -0.7605 -0.2405  0.4015
  443MOL0     C59682   2.992   1.535   8.046  1.2028 -0.4751  1.0751
  443MOL0     C59683   2.843   1.561   8.015  0.3711  0.2578  0.6516
  443MOL0     C59684   2.798   1.520   7.870 -0.0069 -1.0171 -0.5185
  443MOL0     C59685   2.773   1.375   7.850 -0.7819  0.5242  0.3739
  443MOL0     C59686   2.721   1.353   7.708 -0.7087  0.2004  0.1549
  443MOL0     N59687   2.797   1.411   7.592 -0.0731 -0.5610 -0.3776
  443MOL0     C59688   2.870   1.338   7.506  0.8081 -0.7047 -0.2389
  443MOL0     C59689   2.893   1.422   7.408 -0.2348  1.0274 -0.7264
  443MOL0     C59690   2.954   1.393   7.284 -0.2733 -0.7909  0.4926
  443MOL0     C59691   2.859   1.404   7.166  0.1325 -0.8673 -0.6799
  443MOL0     C59692   2.733   1.323   7.165  1.1517 -0.2323 -0.1220
  443MOL0     C59693   2.654   1.336   7.028 -0.6286 -0.5383 -1.1206
  443MOL0     O59694   2.755   1.285   6.936  0.0049  0.4823  0.2801
  443MOL0     C59695   2.723   1.245   6.811  0.5233  0.5384 -0.0446
  443MOL0     C59696   2.821   1.205   6.720 -0.5979 -0.4336 -0.5145
  443MOL0     C59697   2.791   1.144   6.601  0.2430  0.7076  0.6221
  443MOL0     C59698   2.654   1.136   6.555 -0.4137 -0.8228 -0.7570
  443MOL0     C59699   2.619   1.073   6.427  0.1997  0.5267  0.0088
  443MOL0     O59700   2.496   1.061   6.392 -0.0986  0.7234 -0.1143
  443MOL0     C59701   2.472   0.997   6.275 -0.1465 -0.2287 -0.3963
  443MOL0     C59702   2.451   1.075   6.158  0.0210 -0.3540 -0.5449
  443MOL0     C59703   2.429   1.015   6.034 -0.2002 -0.0523  0.3587
  443MOL0     C59704   2.422   0.874   6.022 -0.0074 -0.4823  0.5556
  443MOL0     O59705   2.394   0.803   5.906 -0.2682  0.2947  0.5063
  443MOL0     C59706   2.372   0.868   5.782 -0.9676  0.1042  0.7925
  443MOL0     C59707   2.498   0.901   5.710 -0.3841 -0.1608  0.3269
  443MOL0     C59708   2.619   0.814   5.745 -0.3369  0.2394 -0.3173
  443MOL0     C59709   2.736   0.869   5.660  0.6628  0.1427  0.1176
  443MOL0     C59710   2.855   0.777   5.687  0.7269 -0.9469  0.9736
  443MOL0     C59711   2.968   0.813   5.782  0.0090 -0.2227  0.2756
  443MOL0     C59712   3.057   0.692   5.809 -0.6152  0.5388  0.1689
  443MOL0     C59713   3.186   0.739   5.860  0.1946 -0.8434 -0.0744
  443MOL0    Cl59714   3.302   0.605   5.920 -0.1846  0.0267  0.0246
  443MOL0     C59715   2.440   0.802   6.143 -0.7703  0.5812 -0.1047
  443MOL0     C59716   2.473   0.854   6.272  0.0675 -0.3905  0.4432
  443MOL0     O59717   2.712   1.051   6.349  0.1577 -0.7617 -0.5894
  443MOL0     C59718   2.552   1.171   6.650 -0.5741  0.0139 -0.1455
  443MOL0     C59719   2.586   1.233   6.771  1.7661  0.7016  1.2233
  443MOL0     N59720   2.855   1.546   7.437  0.2869 -0.2391 -0.6242
  443MOL0     N59721   2.780   1.538   7.549 -0.9933 -0.1408  0.2778
  443MOL0     C59722   3.249   2.025   8.348  0.0955  0.1290  0.7289
  443MOL0     C59723   3.331   2.141   8.363 -0.1355 -1.0944  0.7738
  443MOL0     C59724   3.677   2.421   8.196 -0.4021  0.2396  0.4407
  443MOL0     C59725   3.806   2.474   8.226  0.0805 -0.9574 -0.0598
  443MOL0     C59726   3.838   2.601   8.171  0.0682 -0.1344  1.2159
  443MOL0     C59727   3.753   2.670   8.091  0.4969 -1.2327 -0.5821
  443MOL0     O59728   3.757   2.804   8.043  0.2178 -0.2755 -0.5334
  443MOL0     C59729   3.873   2.878   8.080 -0.5436 -0.1951 -0.3403
  443MOL0     C59730   3.868   3.016   8.031 -0.6205 -0.4083  0.3329
  443MOL0     C59731   3.738   3.085   8.061  0.2342 -1.2103  0.1063
  443MOL0     C59732   3.730   3.232   8.052  1.4320 -0.0527  0.3743
  443MOL0     C59733   3.801   3.289   8.168 -0.3937  0.4896 -0.5956
  443MOL0     C59734   3.863   3.336   8.267  0.4595 -0.4380 -0.8042
  443MOL0     C59735   3.624   2.615   8.067  0.1946 -0.9802 -0.1715
  443MOL0     C59736   3.587   2.493   8.114  0.3651 -0.5095  0.4695
  443MOL0     C59737   3.441   2.450   8.090  0.0733 -0.1177 -0.3189
  443MOL0     H59738   3.573   2.049   8.143  0.1686 -0.1940  0.6854
  443MOL0     H59739   3.432   1.842   8.138 -2.0009 -1.4327  0.0853
  443MOL0     H59740   3.253   1.710   8.088  2.8948 -1.0911 -0.7361
  443MOL0     H59741   3.358   1.657   8.218 -0.4002  0.2011 -3.0676
  443MOL0     H59742   3.148   1.562   8.333  1.4185 -0.8710  0.0606
  443MOL0     H59743   3.202   1.480   8.185  1.1028  0.1070  0.2877
  443MOL0     H59744   3.032   1.718   8.138  0.2732 -0.8497 -1.6339
  443MOL0     H59745   2.959   1.609   8.255 -0.1444  0.6919  0.9475
  443MOL0     H59746   3.053   1.574   7.964 -2.5252 -0.1798 -1.8695
  443MOL0     H59747   3.002   1.427   8.040  1.6902 -0.4153  0.7524
  443MOL0     H59748   2.799   1.507   8.098 -3.1771  2.7560  0.6136
  443MOL0     H59749   2.812   1.665   8.031 -0.9188 -0.4036  2.9377
  443MOL0     H59750   2.700   1.568   7.860  0.6771  1.2776  2.5123
  443MOL0     H59751   2.867   1.567   7.800  2.2414 -1.6315  1.1642
  443MOL0     H59752   2.689   1.342   7.912 -0.8981 -1.7913 -0.9063
  443MOL0     H59753   2.851   1.303   7.878 -1.6646 -1.9808 -2.9788
  443MOL0     H59754   2.711   1.244   7.696  5.2174 -0.6798  0.4977
  443MOL0     H59755   2.619   1.392   7.703 -0.7630  0.2081  1.2558
  443MOL0     H59756   2.891   1.232   7.514  2.1757 -0.3638  0.9609
  443MOL0     H59757   3.035   1.463   7.263 -0.4991 -0.6462  0.0899
  443MOL0     H59758   3.000   1.294   7.288  0.5497 -0.4149  0.5670
  443MOL0     H59759   2.816   1.505   7.159 -1.1297 -1.2804  0.7309
  443MOL0     H59760   2.920   1.378   7.078  0.2725 -0.1350 -0.8067
  443MOL0     H59761   2.671   1.341   7.253 -1.9830  2.3966 -2.6178
  443MOL0     H59762   2.761   1.218   7.174 -1.9099 -1.0002  1.7754
  443MOL0     H59763   2.637   1.440   7.001  1.2761 -0.5657 -2.6594
  443MOL0     H59764   2.562   1.281   7.048 -1.2340  0.7806 -0.1563
  443MOL0     H59765   2.923   1.236   6.744  0.5309 -2.4483 -2.3379
  443MOL0     H59766   2.869   1.102   6.538 -0.6505  2.3858 -1.6957
  443MOL0     H59767   2.441   1.183   6.155 -1.2215 -0.4754 -2.1371
  443MOL0     H59768   2.418   1.073   5.943 -2.8549 -4.9967 -2.9300
  443MOL0     H59769   2.333   0.787   5.719 -1.4753  1.2987 -0.4845
  443MOL0     H59770   2.301   0.951   5.793  0.1424  0.9522  1.7275
  443MOL0     H59771   2.469   0.898   5.605 -0.8827  1.9816  0.3520
  443MOL0     H59772   2.534   1.002   5.735  1.0263 -0.3642 -0.7240
  443MOL0     H59773   2.655   0.826   5.848  5.2107 -0.6495 -1.7975
  443MOL0     H59774   2.612   0.707   5.725 -0.6056  0.5228 -1.8522
  443MOL0     H59775   2.752   0.974   5.688 -1.1766  1.0846 -2.0109
  443MOL0     H59776   2.719   0.854   5.553  1.5468 -1.6484  0.2045
  443MOL0     H59777   2.909   0.764   5.593 -0.7650  0.3986 -0.1269
  443MOL0     H59778   2.819   0.679   5.719  0.1038 -0.9095  0.4129
  443MOL0     H59779   3.026   0.888   5.728  1.0741  0.2712  1.9990
  443MOL0     H59780   2.930   0.863   5.871  0.2407  0.8281 -0.2108
  443MOL0     H59781   3.080   0.640   5.716  1.2038 -1.7433  1.7967
  443MOL0     H59782   3.001   0.641   5.888 -1.2595  1.4654  0.3321
  443MOL0     H59783   3.230   0.794   5.777  2.1927 -0.2975  1.2828
  443MOL0     H59784   3.167   0.813   5.938 -0.1409 -1.0157  0.0073
  443MOL0     H59785   2.430   0.694   6.137  1.0256  0.4163 -0.4925
  443MOL0     H59786   2.483   0.789   6.358 -0.2202 -0.4449  0.4369
  443MOL0     H59787   2.450   1.140   6.628  0.0841 -0.1348 -3.4587
  443MOL0     H59788   2.506   1.253   6.841 -0.0640 -2.1254  0.1276
  443MOL0     H59789   3.158   2.012   8.405 -0.8948 -0.9902 -1.0373
  443MOL0     H59790   3.307   2.220   8.434  0.9419 -2.2956  2.5790
  443MOL0     H59791   3.877   2.423   8.289 -0.1805  0.0833  1.1164
  443MOL0     H59792   3.935   2.643   8.198  1.5916 -1.3324 -1.8557
  443MOL0     H59793   3.962   2.834   8.034  0.5666  0.3195  1.2246
  443MOL0     H59794   3.892   2.871   8.188  2.8675  4.3698 -0.3436
  443MOL0     H59795   3.892   3.025   7.925 -0.0449  1.0943  0.5601
  443MOL0     H59796   3.949   3.065   8.086 -1.7025  0.5480  1.1384
  443MOL0     H59797   3.699   3.061   8.160  0.4953 -1.9100  0.0524
  443MOL0     H59798   3.660   3.041   7.998 -0.7722 -4.2645  3.1323
  443MOL0     H59799   3.777   3.266   7.959 -0.6686 -0.2973 -0.8376
  443MOL0     H59800   3.629   3.275   8.060  1.2568 -0.6106  1.3108
  443MOL0     H59801   3.926   3.378   8.343  0.4631 -3.2344  0.9144
  443MOL0     H59802   3.559   2.668   7.999  0.7211 -1.8509 -1.3980
  443MOL0     H59803   3.422   2.347   8.058 -1.1666  0.1470 -0.5043
  443MOL0     H59804   3.395   2.476   8.185  0.0040  2.0867 -0.8999
  443MOL0     H59805   3.391   2.509   8.012  1.3154  1.4168 -0.0019
  444MOL0     O59806   4.936   0.120   5.962 -0.2488 -0.1030  0.0985
  444MOL0     C59807   5.033   0.183   6.007 -0.9634  0.7174  0.2509
  444MOL0     O59808   5.031   0.272   6.112  0.3824 -0.4281  0.3708
  444MOL0     C59809   4.934   0.278   6.204  0.1341 -1.4812 -0.5069
  444MOL0     C59810   4.930   0.385   6.299  0.6090  0.1703 -0.2193
  444MOL0     C59811   4.843   0.396   6.405 -0.2105  0.4984 -0.3909
  444MOL0     C59812   4.758   0.292   6.427  0.5344 -0.9640 -0.2283
  444MOL0     O59813   4.666   0.314   6.526 -0.1916 -0.4998  0.3243
  444MOL0     C59814   4.531   0.299   6.476 -0.1148  0.3166 -0.5258
  444MOL0     C59815   4.427   0.375   6.569  0.1977 -1.1405  0.2585
  444MOL0     C59816   4.442   0.337   6.721 -0.2436  0.2399 -0.4714
  444MOL0     C59817   4.404   0.190   6.752 -0.2121 -0.3626  0.8906
  444MOL0     C59818   4.264   0.160   6.704 -1.0581  0.4442  0.0053
  444MOL0     C59819   4.214   0.020   6.750 -0.4236 -0.2556  0.2399
  444MOL0     C59820   4.068   0.007   6.728  0.3720  0.2288 -0.0155
  444MOL0     C59821   4.016  -0.089   6.617 -0.3239  0.4448 -0.4948
  444MOL0     N59822   4.086  -0.075   6.484 -0.0401 -0.6996  0.4047
  444MOL0     C59823   4.076   0.042   6.407 -1.2606  0.2114 -0.5623
  444MOL0     C59824   4.179   0.027   6.321  0.8576  0.9120  1.1584
  444MOL0     C59825   4.239   0.118   6.220  0.5997 -0.6126  0.6103
  444MOL0     C59826   4.189   0.150   6.074 -0.3436  0.1532 -0.9373
  444MOL0     C59827   4.056   0.221   6.091  0.5247 -0.1590 -0.8485
  444MOL0     C59828   3.978   0.239   5.960  0.0049  0.2149  0.5390
  444MOL0     O59829   3.844   0.301   5.974 -0.3553  0.4803  0.1030
  444MOL0     C59830   3.754   0.284   5.876  0.4140  0.2023  0.0045
  444MOL0     C59831   3.622   0.321   5.887  1.1174  1.7361  0.3666
  444MOL0     C59832   3.523   0.305   5.784 -0.3923 -0.1541  0.9638
  444MOL0     C59833   3.567   0.270   5.653  0.1664  0.0456 -0.1976
  444MOL0     C59834   3.470   0.265   5.536 -0.5705 -0.5301  0.2362
  444MOL0     O59835   3.340   0.265   5.586  0.1838 -0.0596  0.7845
  444MOL0     C59836   3.245   0.246   5.485 -0.6180  0.4845  0.2976
  444MOL0     C59837   3.188   0.345   5.403 -0.3896 -0.4093  0.3598
  444MOL0     C59838   3.102   0.315   5.297 -0.8382  0.0711  0.8911
  444MOL0     C59839   3.056   0.181   5.260 -0.3435 -0.9783 -1.3016
  444MOL0     O59840   2.955   0.145   5.173  0.0197 -0.3342  0.4319
  444MOL0     C59841   2.922   0.243   5.070 -0.7570  0.0519 -0.3862
  444MOL0     C59842   2.788   0.201   5.009 -0.7718  0.0282 -0.5191
  444MOL0     C59843   2.783   0.051   4.971 -0.4437 -0.4852 -0.1382
  444MOL0     C59844   2.629   0.017   4.948 -0.8624  0.4447  0.1716
  444MOL0     C59845   2.611  -0.097   4.836  0.1949  0.5916 -1.0423
  444MOL0     C59846   2.629  -0.042   4.695  0.5572 -0.1059  0.4671
  444MOL0     C59847   2.612  -0.146   4.580  0.9572  0.0721  0.4780
  444MOL0     C59848   2.613  -0.069   4.449  1.1365  0.2900  1.3746
  444MOL0    Cl59849   2.588  -0.188   4.312 -0.0840 -0.0002  0.2494
  444MOL0     C59850   3.110   0.086   5.349 -0.1455 -0.0830 -0.0600
  444MOL0     C59851   3.204   0.114   5.452  0.6031 -0.1366 -0.9945
  444MOL0     O59852   3.505   0.275   5.421 -0.1598 -0.1902  1.1773
  444MOL0     C59853   3.703   0.234   5.635 -0.2230 -0.5193 -0.3527
  444MOL0     C59854   3.790   0.238   5.748 -0.2658 -0.3987 -0.3832
  444MOL0     N59855   4.229  -0.101   6.338  1.1992  0.5096  0.5355
  444MOL0     N59856   4.180  -0.158   6.434 -0.0516  0.1439  0.0808
  444MOL0     C59857   4.730   0.203   6.333 -0.5525  0.5865 -0.1573
  444MOL0     C59858   4.826   0.186   6.224  0.3804  0.1300  0.0522
  444MOL0     C59859   5.161   0.162   5.929 -0.3637  0.1939 -0.8353
  444MOL0     C59860   5.275   0.234   5.970 -0.4399 -0.7699 -0.3135
  444MOL0     C59861   5.397   0.210   5.915  0.4253 -0.5622  0.1227
  444MOL0     C59862   5.408   0.120   5.816 -0.3177  0.5972  0.7479
  444MOL0     O59863   5.521   0.113   5.736  0.3437  0.4650 -0.1090
  444MOL0     C59864   5.652   0.169   5.773  0.0714  0.0040 -0.5786
  444MOL0     C59865   5.763   0.079   5.736  0.3536  0.9592 -0.0669
  444MOL0     C59866   5.747  -0.077   5.771 -0.3347 -0.4419  0.5201
  444MOL0     C59867   5.838  -0.157   5.670  0.0878 -0.1104 -0.4880
  444MOL0     C59868   5.853  -0.291   5.724 -0.4145 -0.0063 -0.0973
  444MOL0     C59869   5.858  -0.406   5.757  0.0257  0.0516 -0.2668
  444MOL0     C59870   5.295   0.038   5.777  0.1701 -0.2799  0.4386
  444MOL0     C59871   5.170   0.069   5.822 -0.1968 -0.4753  0.3560
  444MOL0     C59872   5.059  -0.003   5.746 -0.5324  0.0561 -0.4089
  444MOL0     H59873   5.003   0.466   6.294 -1.7122  2.4671  0.5834
  444MOL0     H59874   4.858   0.476   6.476  1.0311 -1.1977  1.3468
  444MOL0     H59875   4.532   0.352   6.380 -2.5617  0.9443 -0.2646
  444MOL0     H59876   4.490   0.198   6.471  0.3190 -0.1464  2.8938
  444MOL0     H59877   4.328   0.367   6.524  1.0273 -1.7686 -1.5481
  444MOL0     H59878   4.464   0.478   6.574  1.2433 -1.2501 -2.9043
  444MOL0     H59879   4.390   0.417   6.774  2.4565  1.9284 -0.1563
  444MOL0     H59880   4.547   0.345   6.749  0.6624 -2.6492 -2.5308
  444MOL0     H59881   4.476   0.136   6.689 -2.2347  0.6545 -2.5359
  444MOL0     H59882   4.425   0.162   6.855  1.9465 -4.2311 -0.3753
  444MOL0     H59883   4.194   0.231   6.750 -0.9896 -0.4194  1.5048
  444MOL0     H59884   4.242   0.149   6.598 -1.3839 -1.5044  0.2419
  444MOL0     H59885   4.260  -0.065   6.697 -0.6290  1.1495 -2.3537
  444MOL0     H59886   4.248   0.009   6.853 -1.4909 -1.8470  0.4576
  444MOL0     H59887   4.016   0.097   6.696 -1.7613 -1.8178 -2.9282
  444MOL0     H59888   4.035  -0.026   6.827  4.1323 -1.4090  0.8608
  444MOL0     H59889   4.034  -0.187   6.662 -2.0763  2.1912  4.8107
  444MOL0     H59890   3.907  -0.084   6.602 -0.1120 -1.9432 -3.7179
  444MOL0     H59891   4.017   0.129   6.433  0.7933  1.0677  1.5399
  444MOL0     H59892   4.271   0.213   6.264  0.3188  0.3900 -1.2357
  444MOL0     H59893   4.340   0.083   6.196  0.4650 -1.0927  0.7317
  444MOL0     H59894   4.251   0.223   6.023  0.7348 -0.2754 -0.2842
  444MOL0     H59895   4.175   0.061   6.012  1.0476  1.4709 -3.2784
  444MOL0     H59896   4.077   0.321   6.131  2.0656  0.4458 -2.9431
  444MOL0     H59897   4.005   0.159   6.164 -0.4085 -0.9966 -2.1781
  444MOL0     H59898   3.964   0.141   5.914 -0.9193  1.9032 -3.1667
  444MOL0     H59899   4.034   0.299   5.888  0.4440 -0.1669  0.5559
  444MOL0     H59900   3.588   0.357   5.983 -2.4805 -0.6105  0.1768
  444MOL0     H59901   3.425   0.337   5.817  1.3303  2.2379  4.3243
  444MOL0     H59902   3.221   0.448   5.417 -1.0654 -0.3430  1.6079
  444MOL0     H59903   3.068   0.403   5.244 -1.2987 -0.6054  0.0519
  444MOL0     H59904   2.925   0.343   5.113  1.5708 -1.5990  3.9614
  444MOL0     H59905   2.999   0.239   4.993  2.3234 -0.3470  2.4931
  444MOL0     H59906   2.704   0.228   5.074  1.0135  1.3933  1.3537
  444MOL0     H59907   2.782   0.255   4.914  0.0391 -0.5168 -0.8900
  444MOL0     H59908   2.838   0.027   4.880 -1.9762 -3.5302 -0.3639
  444MOL0     H59909   2.826  -0.015   5.047 -0.5639  0.7887  1.0678
  444MOL0     H59910   2.578   0.109   4.918 -1.8542 -0.8359 -2.3285
  444MOL0     H59911   2.578  -0.011   5.041 -1.3384 -0.0887 -0.2439
  444MOL0     H59912   2.513  -0.142   4.856  1.1510 -1.0374  0.2967
  444MOL0     H59913   2.684  -0.170   4.872 -1.4613  0.2862  2.0793
  444MOL0     H59914   2.559   0.040   4.676  0.9235 -0.2919 -2.1125
  444MOL0     H59915   2.724   0.011   4.688 -1.8952  4.5676 -2.0323
  444MOL0     H59916   2.518  -0.199   4.598  0.9321  1.2231  5.1311
  444MOL0     H59917   2.692  -0.221   4.583  0.0669 -0.9847 -0.8729
  444MOL0     H59918   2.530   0.002   4.458 -0.5701 -1.0836 -1.7571
  444MOL0     H59919   2.706  -0.015   4.432 -1.5320  5.3370  1.0586
  444MOL0     H59920   3.073  -0.014   5.331  0.0888  0.1091 -1.7440
  444MOL0     H59921   3.241   0.031   5.511 -1.1187 -0.9588 -1.0141
  444MOL0     H59922   3.741   0.200   5.539 -3.0729  2.8921 -2.9593
  444MOL0     H59923   3.894   0.221   5.723 -0.2352 -2.9936  1.1707
  444MOL0     H59924   4.647   0.132   6.332  0.0019 -0.0934  0.6666
  444MOL0     H59925   4.800   0.094   6.172 -3.6112 -0.7435  3.1428
  444MOL0     H59926   5.271   0.316   6.041  1.5341  2.0274 -3.1629
  444MOL0     H59927   5.484   0.263   5.951 -2.0739  1.9842  2.9575
  444MOL0     H59928   5.656   0.202   5.877 -3.7914  1.5517 -0.7853
  444MOL0     H59929   5.651   0.259   5.711 -0.5245  0.3664 -0.0393
  444MOL0     H59930   5.856   0.102   5.788 -0.7936 -0.3469  2.7510
  444MOL0     H59931   5.784   0.093   5.629  1.2636 -0.0651 -0.0409
  444MOL0     H59932   5.646  -0.112   5.748  0.3927 -0.5513 -3.2656
  444MOL0     H59933   5.768  -0.090   5.877 -2.5017 -0.8959  0.9266
  444MOL0     H59934   5.801  -0.169   5.568  4.3664 -7.0849 -1.9309
  444MOL0     H59935   5.932  -0.101   5.671  0.5793 -0.9121  0.6055
  444MOL0     H59936   5.859  -0.511   5.779  3.3967 -0.1030 -0.5499
  444MOL0     H59937   5.309  -0.032   5.695  0.9206  0.0132  0.3074
  444MOL0     H59938   5.009  -0.078   5.808  2.1491  0.6186  2.7263
  444MOL0     H59939   5.001   0.081   5.708 -0.1454  0.3961 -0.2619
  444MOL0     H59940   5.104  -0.055   5.661  1.1416  0.4486  0.1976
  445MOL0     O59941   0.803   0.687   0.381 -0.2767 -0.3458 -0.7542
  445MOL0     C59942   0.816   0.787   0.312 -0.0639 -0.0552 -0.2475
  445MOL0     O59943   0.896   0.892   0.333  0.1538  0.7510  0.2019
  445MOL0     C59944   0.986   0.909   0.432 -0.3446 -0.1654 -0.3893
  445MOL0     C59945   1.016   0.818   0.538  0.2702 -0.3764  0.0056
  445MOL0     C59946   1.117   0.848   0.624 -0.3364 -1.1999 -0.1273
  445MOL0     C59947   1.191   0.970   0.619  0.1767 -0.7962  0.2261
  445MOL0     O59948   1.292   1.000   0.704 -0.4069 -0.0180 -0.1944
  445MOL0     C59949   1.262   1.015   0.846  0.3159  0.0769 -0.1636
  445MOL0     C59950   1.394   1.000   0.929 -0.5177 -0.6689  0.1121
  445MOL0     C59951   1.367   0.996   1.081 -0.1455 -0.1528  0.4639
  445MOL0     C59952   1.486   0.980   1.174 -0.2364 -0.7717 -0.9150
  445MOL0     C59953   1.609   1.075   1.155 -0.7017  0.2868 -0.3262
  445MOL0     C59954   1.710   1.027   1.260 -0.0637  0.0487 -0.0873
  445MOL0     C59955   1.831   1.127   1.263 -0.6171 -0.1859  1.1016
  445MOL0     C59956   1.923   1.094   1.144 -0.2313 -0.1094 -0.2706
  445MOL0     N59957   2.044   1.187   1.149 -0.1729  0.2448 -0.4102
  445MOL0     C59958   2.047   1.322   1.169 -0.4794 -1.7377  0.9154
  445MOL0     C59959   2.180   1.358   1.162  0.1637 -0.1072 -1.9443
  445MOL0     C59960   2.234   1.503   1.170  0.6975  0.3881 -0.5742
  445MOL0     C59961   2.273   1.538   1.312  0.5105 -0.6580 -0.4978
  445MOL0     C59962   2.294   1.687   1.336 -0.1198  0.2535  0.0462
  445MOL0     C59963   2.340   1.712   1.483 -0.3419 -1.1776 -0.0150
  445MOL0     O59964   2.329   1.855   1.513 -0.3124  0.3711  0.3671
  445MOL0     C59965   2.435   1.905   1.586 -0.5210  0.2519  0.4106
  445MOL0     C59966   2.468   2.043   1.571  0.0105  0.2145 -0.2976
  445MOL0     C59967   2.581   2.091   1.641 -0.0291 -1.5915  0.2422
  445MOL0     C59968   2.651   2.010   1.733  0.0866  0.0211 -0.1714
  445MOL0     C59969   2.757   2.072   1.809  0.3274 -0.1273  0.9409
  445MOL0     O59970   2.785   2.200   1.786  1.6020  0.4299 -0.0092
  445MOL0     C59971   2.892   2.235   1.864  0.6718  0.0893  0.1146
  445MOL0     C59972   3.032   2.229   1.816 -0.1644  0.8169  0.5267
  445MOL0     C59973   3.140   2.269   1.897  0.3890  0.0928 -0.0803
  445MOL0     C59974   3.111   2.327   2.023 -0.9883  0.2188 -0.4289
  445MOL0     O59975   3.193   2.365   2.133 -0.3144 -0.2745 -0.0754
  445MOL0     C59976   3.330   2.369   2.092  0.2380  0.5364  0.2837
  445MOL0     C59977   3.438   2.441   2.183 -0.2684 -0.1267 -0.6408
  445MOL0     C59978   3.400   2.583   2.235  0.7936 -0.4640 -0.3671
  445MOL0     C59979   3.518   2.675   2.299  0.4874 -0.5177  1.4211
  445MOL0     C59980   3.555   2.613   2.440 -0.3265 -0.1017  0.0992
  445MOL0     C59981   3.665   2.692   2.506  0.0219  0.8475 -0.9848
  445MOL0     C59982   3.623   2.825   2.558 -0.8507 -0.9303 -0.0080
  445MOL0     C59983   3.688   2.870   2.697  0.7293 -0.3539 -0.1450
  445MOL0    Cl59984   3.626   3.024   2.774  0.1342 -0.3363 -0.0813
  445MOL0     C59985   2.976   2.340   2.066 -0.7377  0.2359  0.0962
  445MOL0     C59986   2.872   2.296   1.983  0.0810  0.4195 -0.2871
  445MOL0     O59987   2.813   2.003   1.892 -0.0870 -0.1384  0.2266
  445MOL0     C59988   2.627   1.875   1.738  0.5067  0.2687  0.4707
  445MOL0     C59989   2.512   1.821   1.677 -0.8803  0.3173 -0.3516
  445MOL0     N59990   2.250   1.238   1.147 -0.1053  0.0552  0.4055
  445MOL0     N59991   2.175   1.137   1.148 -1.2410  0.6039 -0.6674
  445MOL0     C59992   1.170   1.053   0.511  1.3067 -0.3909 -0.4945
  445MOL0     C59993   1.059   1.031   0.429  0.8118 -0.4114  0.7021
  445MOL0     C59994   0.713   0.803   0.211 -1.0102  0.3515  0.0648
  445MOL0     C59995   0.682   0.940   0.172  0.3105  0.3100 -0.3083
  445MOL0     C59996   0.625   0.965   0.048 -0.0291  0.1380  0.1765
  445MOL0     C59997   0.569   0.866  -0.029  0.7722  0.2665  0.6335
  445MOL0     O59998   0.524   0.913  -0.148  0.6295 -0.0852  0.4188
  445MOL0     C59999   0.540   0.830  -0.265 -0.3778  0.2487  0.9472
  445MOL0     C60000   0.534   0.903  -0.400  1.1360 -0.3063 -0.5292
  445MOL0     C60001   0.611   1.035  -0.381 -0.8155 -0.1928 -0.3181
  445MOL0     C60002   0.660   1.096  -0.523  0.6022  0.7104  0.7696
  445MOL0     C60003   0.751   1.001  -0.588 -0.1143  0.7027 -0.4090
  445MOL0     C60004   0.829   0.920  -0.634 -0.2347 -0.0774  0.6170
  445MOL0     C60005   0.584   0.731   0.006 -0.9493 -0.0889 -0.5604
  445MOL0     C60006   0.664   0.696   0.124 -1.0890  0.2670  0.6584
  445MOL0     C60007   0.697   0.545   0.142 -0.1247 -0.3706  0.4228
  445MOL0     H60008   0.963   0.725   0.556  0.4975 -0.9714 -2.1076
  445MOL0     H60009   1.140   0.772   0.698 -1.8551  0.5647  2.3408
  445MOL0     H60010   1.223   1.116   0.861  0.2430  0.2060 -1.1478
  445MOL0     H60011   1.186   0.943   0.878  1.8961 -1.6623 -0.1780
  445MOL0     H60012   1.457   1.084   0.898 -1.9326  0.1342 -0.6885
  445MOL0     H60013   1.448   0.908   0.905  0.5515 -0.3286  1.1305
  445MOL0     H60014   1.303   0.907   1.082 -2.0909  1.1767  0.3701
  445MOL0     H60015   1.302   1.079   1.112  0.2308  0.9403 -1.4933
  445MOL0     H60016   1.462   0.983   1.280  1.9178  1.1517 -0.4183
  445MOL0     H60017   1.516   0.875   1.163 -1.1836 -1.2203  0.4782
  445MOL0     H60018   1.652   1.067   1.055  0.6428  4.0859 -0.2298
  445MOL0     H60019   1.581   1.179   1.178 -0.2654  0.9394 -2.4749
  445MOL0     H60020   1.664   1.034   1.359 -3.9972 -4.8204 -1.1271
  445MOL0     H60021   1.740   0.922   1.253 -0.7003 -0.1739  0.4236
  445MOL0     H60022   1.885   1.128   1.359  3.4965  1.7571 -0.9749
  445MOL0     H60023   1.799   1.230   1.247  2.2790  0.7752  0.9325
  445MOL0     H60024   1.941   0.987   1.156 -0.5499 -0.1642 -0.2911
  445MOL0     H60025   1.876   1.112   1.047  0.1011 -0.7157 -0.5495
  445MOL0     H60026   1.964   1.390   1.185  0.3238 -0.8007  1.1038
  445MOL0     H60027   2.307   1.529   1.093  0.3686  0.2829 -0.9233
  445MOL0     H60028   2.146   1.566   1.152  1.0394  1.3504  0.9048
  445MOL0     H60029   2.193   1.509   1.380  0.4438  0.1816 -0.2159
  445MOL0     H60030   2.349   1.466   1.345 -0.8302 -1.9595 -0.1540
  445MOL0     H60031   2.193   1.726   1.317 -1.1671 -0.6959  3.0568
  445MOL0     H60032   2.377   1.703   1.267 -0.2562 -3.0014 -1.0333
  445MOL0     H60033   2.443   1.676   1.484 -0.7102 -2.3097 -1.0398
  445MOL0     H60034   2.279   1.653   1.552 -1.3896 -1.7039 -1.3474
  445MOL0     H60035   2.418   2.113   1.505  1.0351  1.6271  0.3895
  445MOL0     H60036   2.604   2.196   1.626 -0.2804 -1.9320 -3.2662
  445MOL0     H60037   3.052   2.187   1.718  0.2154 -1.4562  1.5065
  445MOL0     H60038   3.240   2.253   1.861  1.2139  3.4036  0.3815
  445MOL0     H60039   3.362   2.267   2.070  2.9735  1.2840  0.3619
  445MOL0     H60040   3.338   2.431   2.002  1.2580  0.0752  0.0440
  445MOL0     H60041   3.453   2.381   2.273  2.3780  1.6554  0.2342
  445MOL0     H60042   3.532   2.444   2.127 -0.0976 -1.0349 -0.4193
  445MOL0     H60043   3.353   2.640   2.154 -1.4852 -0.8292  0.6334
  445MOL0     H60044   3.329   2.563   2.316 -0.6713 -0.1368 -1.5273
  445MOL0     H60045   3.477   2.776   2.310 -0.7979 -0.6582 -1.1922
  445MOL0     H60046   3.599   2.685   2.226 -1.1457  1.2063 -0.2777
  445MOL0     H60047   3.589   2.511   2.418 -1.6801 -0.3651 -0.8649
  445MOL0     H60048   3.461   2.602   2.495 -0.9352 -0.4606 -0.9776
  445MOL0     H60049   3.709   2.638   2.590  1.6329  0.1194 -2.2281
  445MOL0     H60050   3.741   2.700   2.427  1.7068  3.2287  0.7285
  445MOL0     H60051   3.514   2.829   2.564 -0.7278  0.7101  2.5840
  445MOL0     H60052   3.667   2.895   2.487 -0.8705  1.6181  2.3148
  445MOL0     H60053   3.663   2.786   2.763 -1.5324  0.2312 -0.1694
  445MOL0     H60054   3.794   2.884   2.675  0.3736  0.6746 -1.2939
  445MOL0     H60055   2.968   2.393   2.160 -0.1455  2.1150 -0.8601
  445MOL0     H60056   2.766   2.299   2.007 -0.3242 -0.0148 -1.9070
  445MOL0     H60057   2.688   1.817   1.807 -0.7896 -1.0298  0.5792
  445MOL0     H60058   2.504   1.716   1.700 -1.2778  0.3498 -0.3288
  445MOL0     H60059   1.233   1.141   0.505  1.5087 -0.6079 -2.1774
  445MOL0     H60060   1.030   1.104   0.353  3.3225 -1.6952 -1.6520
  445MOL0     H60061   0.720   1.023   0.232  0.3140  0.2807 -0.2701
  445MOL0     H60062   0.614   1.059  -0.006 -3.8658  0.9436  1.9931
  445MOL0     H60063   0.464   0.751  -0.269  0.8345 -0.9201 -3.0032
  445MOL0     H60064   0.636   0.779  -0.253 -0.5687 -0.2092  0.5365
  445MOL0     H60065   0.431   0.929  -0.424  1.4193  0.7530 -0.6286
  445MOL0     H60066   0.575   0.837  -0.478  0.1577 -2.0171  0.3368
  445MOL0     H60067   0.695   1.006  -0.317 -3.9160 -1.0144  3.8676
  445MOL0     H60068   0.546   1.104  -0.326 -0.8919 -1.2661  0.9837
  445MOL0     H60069   0.571   1.108  -0.585  1.9437 -2.5269 -2.1422
  445MOL0     H60070   0.701   1.193  -0.495  2.5443 -0.2064  1.2791
  445MOL0     H60071   0.889   0.845  -0.681  1.1101  1.8510 -0.8646
  445MOL0     H60072   0.539   0.650  -0.051  0.5610 -2.2804  1.1917
  445MOL0     H60073   0.778   0.507   0.078 -0.3355 -2.5465  1.3619
  445MOL0     H60074   0.720   0.515   0.244  0.1370  1.7707  1.0337
  445MOL0     H60075   0.607   0.488   0.117 -0.0389 -0.6823  0.8216
  446MOL0     O60076   2.576   3.724   7.094  0.6350  0.5096  0.1651
  446MOL0     C60077   2.474   3.781   7.064  0.3128 -0.6252 -0.0564
  446MOL0     O60078   2.470   3.918   7.032 -0.4893  0.1999 -0.2669
  446MOL0     C60079   2.583   3.984   6.978  0.9139 -0.4002 -0.5082
  446MOL0     C60080   2.717   3.960   6.996  0.9012  0.5561 -0.1601
  446MOL0     C60081   2.819   4.033   6.934 -0.2731  0.5949 -0.6879
  446MOL0     C60082   2.799   4.131   6.844 -0.1561 -1.0618 -0.1097
  446MOL0     O60083   2.910   4.202   6.797  1.0927  0.6881  0.0067
  446MOL0     C60084   2.884   4.272   6.680  1.1305 -0.1505  1.5385
  446MOL0     C60085   2.860   4.419   6.715 -0.4441  0.0038 -0.9127
  446MOL0     C60086   2.904   4.525   6.615 -0.0556  0.1595  0.2588
  446MOL0     C60087   3.050   4.509   6.554  0.1915  0.1536  0.7437
  446MOL0     C60088   3.091   4.646   6.485 -0.2735 -0.3254  0.2590
  446MOL0     C60089   3.236   4.645   6.433  0.1547 -0.3250 -0.0031
  446MOL0     C60090   3.281   4.797   6.403  0.4165 -0.2833 -0.6052
  446MOL0     C60091   3.428   4.807   6.364 -0.6214 -0.4595  0.0042
  446MOL0     N60092   3.490   4.939   6.404 -1.2259  0.7314 -0.5299
  446MOL0     C60093   3.528   5.039   6.321  0.0554  0.1888 -0.2168
  446MOL0     C60094   3.583   5.127   6.401  0.5080 -0.3874  0.5071
  446MOL0     C60095   3.630   5.263   6.363  0.3704  0.4016 -0.0073
  446MOL0     C60096   3.750   5.241   6.264  0.2624  0.7109  0.0863
  446MOL0     C60097   3.723   5.190   6.123  0.5828  0.4660 -0.3950
  446MOL0     C60098   3.838   5.188   6.024 -0.1598 -1.1708  0.0193
  446MOL0     O60099   3.923   5.070   6.034 -0.4985 -0.7550  0.7738
  446MOL0     C60100   3.980   5.016   5.923 -0.1756 -1.6375  0.2345
  446MOL0     C60101   3.970   5.072   5.791 -0.8702 -0.2719  1.0402
  446MOL0     C60102   4.016   5.009   5.681  0.4431 -0.1841 -0.4964
  446MOL0     C60103   4.080   4.891   5.686  0.2778  0.8425 -0.3604
  446MOL0     C60104   4.131   4.814   5.573 -0.0862  0.7605  0.2577
  446MOL0     O60105   4.142   4.898   5.458  0.9722 -0.5796 -0.5712
  446MOL0     C60106   4.239   4.861   5.361  0.4252 -0.1527 -0.6817
  446MOL0     C60107   4.369   4.902   5.374  0.4882  0.5608  0.5830
  446MOL0     C60108   4.470   4.855   5.287 -1.1801 -0.4430 -0.2686
  446MOL0     C60109   4.439   4.757   5.192 -0.6982  0.5352  0.7039
  446MOL0     O60110   4.535   4.717   5.100 -0.8632  0.0508  0.0953
  446MOL0     C60111   4.491   4.735   4.961 -0.0114  0.5841  0.2195
  446MOL0     C60112   4.461   4.593   4.889 -0.1266 -0.0685  0.0355
  446MOL0     C60113   4.589   4.502   4.853 -0.7661  0.0219  0.5884
  446MOL0     C60114   4.704   4.575   4.776 -0.0162 -0.5218 -0.5356
  446MOL0     C60115   4.823   4.481   4.757 -0.3726  0.1663  0.1915
  446MOL0     C60116   4.946   4.558   4.699 -0.3076 -0.7799  0.6024
  446MOL0     C60117   5.074   4.476   4.667  0.0866 -0.6008 -0.2330
  446MOL0     C60118   5.197   4.575   4.654  0.1972  0.4208 -1.1129
  446MOL0    Cl60119   5.194   4.647   4.489  0.1637  0.1059  0.1613
  446MOL0     C60120   4.300   4.716   5.179 -0.2865  0.5186 -0.2349
  446MOL0     C60121   4.203   4.773   5.261  0.5149  0.2820  0.0985
  446MOL0     O60122   4.155   4.694   5.581  0.3399 -0.0683  0.0306
  446MOL0     C60123   4.108   4.839   5.820 -0.3411  0.1625  0.4832
  446MOL0     C60124   4.053   4.900   5.933 -0.4161  0.3119 -0.5336
  446MOL0     N60125   3.592   5.084   6.534  0.3719  0.9085 -1.0479
  446MOL0     N60126   3.527   4.968   6.536  0.0983 -0.1123 -0.0475
  446MOL0     C60127   2.669   4.176   6.834  0.1355 -1.0731  0.8577
  446MOL0     C60128   2.560   4.107   6.903  0.1617  0.2605  0.5578
  446MOL0     C60129   2.343   3.714   7.108  0.2359  0.1677  0.9506
  446MOL0     C60130   2.348   3.603   7.193 -0.5911 -0.7919 -0.9279
  446MOL0     C60131   2.228   3.543   7.229  0.4744  0.1033  0.2531
  446MOL0     C60132   2.112   3.581   7.180 -0.8041 -0.2171 -0.0477
  446MOL0     O60133   2.009   3.497   7.212  1.2438 -0.5496 -0.5852
  446MOL0     C60134   1.892   3.507   7.130  0.3652  0.2519 -0.4245
  446MOL0     C60135   1.788   3.413   7.194 -0.1538 -0.5988 -0.9162
  446MOL0     C60136   1.694   3.468   7.291  0.2626 -0.4416  0.2439
  446MOL0     C60137   1.624   3.365   7.382 -0.1859 -0.1443 -0.0145
  446MOL0     C60138   1.550   3.270   7.302  0.1144 -0.7048 -0.5720
  446MOL0     C60139   1.511   3.177   7.235 -0.4484  0.6081 -0.0398
  446MOL0     C60140   2.103   3.690   7.098 -0.0461 -0.2520  0.0148
  446MOL0     C60141   2.218   3.762   7.067  0.4457  0.0663 -0.0753
  446MOL0     C60142   2.193   3.879   6.975 -0.7266 -0.6291 -0.0086
  446MOL0     H60143   2.743   3.878   7.061  1.5675  0.2567 -0.7914
  446MOL0     H60144   2.921   4.002   6.950 -1.3784 -1.9343  2.7216
  446MOL0     H60145   2.972   4.272   6.616 -0.6400 -0.6950 -1.0567
  446MOL0     H60146   2.797   4.234   6.626  1.7860 -1.3109  1.2681
  446MOL0     H60147   2.917   4.444   6.805 -0.5683 -1.1057 -0.5110
  446MOL0     H60148   2.754   4.429   6.738 -0.3290 -0.4016 -0.1465
  446MOL0     H60149   2.907   4.624   6.663 -2.9319  0.6933 -0.4637
  446MOL0     H60150   2.833   4.533   6.532  0.0982 -1.4300 -0.0431
  446MOL0     H60151   3.116   4.496   6.639 -1.4301 -2.0883  1.7628
  446MOL0     H60152   3.063   4.423   6.487  2.6410 -1.3921  3.0367
  446MOL0     H60153   3.030   4.683   6.403  0.5822  2.0857  0.6218
  446MOL0     H60154   3.081   4.723   6.563 -0.6878 -2.2683  2.2470
  446MOL0     H60155   3.300   4.597   6.508 -0.0925  1.2057  1.2377
  446MOL0     H60156   3.234   4.594   6.337 -0.9175 -4.0817  1.8282
  446MOL0     H60157   3.269   4.851   6.497  1.2383  1.2487 -1.3422
  446MOL0     H60158   3.227   4.850   6.324  0.8215 -1.2769 -1.5769
  446MOL0     H60159   3.477   4.733   6.428  1.1491  0.2808 -0.4411
  446MOL0     H60160   3.436   4.785   6.258  3.6558  1.9486 -0.4097
  446MOL0     H60161   3.509   5.038   6.214 -0.9689  2.1382 -0.1009
  446MOL0     H60162   3.547   5.315   6.314  1.5881  0.7356 -1.8135
  446MOL0     H60163   3.665   5.325   6.446  1.9299 -1.2109  0.5838
  446MOL0     H60164   3.803   5.335   6.246  3.4258 -1.4271 -3.4428
  446MOL0     H60165   3.826   5.171   6.300  2.9129  1.9349 -2.6553
  446MOL0     H60166   3.652   5.263   6.083 -0.5480 -0.7144 -0.6246
  446MOL0     H60167   3.679   5.091   6.138  2.1861 -0.0386  1.3669
  446MOL0     H60168   3.899   5.276   6.043  0.4416 -1.3192 -1.1344
  446MOL0     H60169   3.800   5.203   5.923  0.9719  5.1271  0.1455
  446MOL0     H60170   3.937   5.171   5.764  1.3897  0.3604  0.3247
  446MOL0     H60171   4.001   5.065   5.588  0.7370  0.4490 -0.1686
  446MOL0     H60172   4.396   4.968   5.457  0.7805 -0.6485  1.4738
  446MOL0     H60173   4.569   4.880   5.323 -1.2963  0.7565 -0.7538
  446MOL0     H60174   4.405   4.799   4.939  0.3417  0.2150 -2.6911
  446MOL0     H60175   4.577   4.787   4.917 -0.5823  2.5235  1.3074
  446MOL0     H60176   4.399   4.536   4.959  1.6603  0.1598  1.9215
  446MOL0     H60177   4.413   4.616   4.794 -0.8197  0.0709  0.4088
  446MOL0     H60178   4.635   4.467   4.946  1.4437 -0.0935 -0.4693
  446MOL0     H60179   4.562   4.419   4.786 -0.7973  0.8828 -0.4952
  446MOL0     H60180   4.739   4.667   4.823 -2.0557  0.6196 -1.0891
  446MOL0     H60181   4.667   4.601   4.676 -0.1995 -1.4197 -0.7125
  446MOL0     H60182   4.786   4.408   4.685 -0.7533 -0.6524  1.1969
  446MOL0     H60183   4.861   4.437   4.850  4.7485  0.8104 -1.3025
  446MOL0     H60184   4.920   4.609   4.606 -0.2517 -0.5180  0.7293
  446MOL0     H60185   4.954   4.628   4.782  0.0783 -1.2362  0.9587
  446MOL0     H60186   5.067   4.412   4.579  0.2625  0.2589 -0.8914
  446MOL0     H60187   5.083   4.407   4.751  0.5731  0.2789  0.4602
  446MOL0     H60188   5.184   4.655   4.728 -3.5652 -1.9754  1.1029
  446MOL0     H60189   5.282   4.510   4.678 -2.2870 -2.5597  0.1985
  446MOL0     H60190   4.298   4.632   5.111  0.1651 -1.1980  1.8040
  446MOL0     H60191   4.100   4.740   5.265  0.2023  1.3182  1.5344
  446MOL0     H60192   4.166   4.747   5.820  0.1530  0.3230 -3.2572
  446MOL0     H60193   4.069   4.856   6.031 -2.2211 -0.3882 -0.5219
  446MOL0     H60194   2.647   4.270   6.785  2.1810 -0.7059  0.5202
  446MOL0     H60195   2.463   4.154   6.896  1.3407  2.7230 -0.3814
  446MOL0     H60196   2.442   3.562   7.230  0.7457  3.0411  0.3859
  446MOL0     H60197   2.229   3.466   7.305 -0.4996  2.9889  3.4475
  446MOL0     H60198   1.924   3.468   7.033 -0.2575  2.3394 -1.5321
  446MOL0     H60199   1.845   3.604   7.112 -1.2941 -0.8657 -2.5987
  446MOL0     H60200   1.844   3.327   7.232  0.6038  1.2891  2.6471
  446MOL0     H60201   1.738   3.385   7.101  1.2291 -0.2464 -1.7989
  446MOL0     H60202   1.621   3.531   7.239 -0.1650 -0.8613  0.3270
  446MOL0     H60203   1.739   3.546   7.352 -0.1275  2.4962 -2.9286
  446MOL0     H60204   1.699   3.317   7.445  0.7097  2.8587  1.4254
  446MOL0     H60205   1.559   3.412   7.457  1.9583 -0.0200  1.8970
  446MOL0     H60206   1.504   3.086   7.178 -3.3816 -0.1624  1.3243
  446MOL0     H60207   2.008   3.718   7.054 -0.7926 -0.6222  1.3174
  446MOL0     H60208   2.196   3.971   7.033 -3.4008 -1.2811  1.3301
  446MOL0     H60209   2.273   3.887   6.900 -0.1694 -0.8331  0.5574
  446MOL0     H60210   2.105   3.863   6.912 -2.4754 -2.0710  2.6243
  447MOL0     O60211   8.093   2.785   8.268 -0.5605 -0.1183  0.8877
  447MOL0     C60212   8.195   2.842   8.311  0.4993  0.8233 -0.4736
  447MOL0     O60213   8.322   2.792   8.314  1.2807 -0.3902 -0.2616
  447MOL0     C60214   8.346   2.685   8.249  1.0530  0.6652  0.3119
  447MOL0     C60215   8.352   2.562   8.324  0.6504 -0.4390 -0.3342
  447MOL0     C60216   8.396   2.445   8.265 -0.2587  0.1658  0.1297
  447MOL0     C60217   8.429   2.443   8.131  0.1041 -0.3329 -0.5615
  447MOL0     O60218   8.443   2.317   8.067 -0.0255 -0.0077 -0.7072
  447MOL0     C60219   8.533   2.311   7.959  0.2179  0.6978  0.7531
  447MOL0     C60220   8.614   2.179   7.962  0.1499 -1.0385  0.2683
  447MOL0     C60221   8.722   2.191   8.072 -0.1272 -0.0454  0.1165
  447MOL0     C60222   8.867   2.182   8.025 -0.2502 -0.4051  0.3468
  447MOL0     C60223   8.978   2.205   8.125 -1.3696 -0.0255 -0.4293
  447MOL0     C60224   9.125   2.172   8.077 -0.2232 -0.0168 -0.0108
  447MOL0     C60225   9.223   2.225   8.187  0.8688 -0.1494  1.3665
  447MOL0     C60226   9.270   2.362   8.145  0.2123  0.2520 -0.6713
  447MOL0     N60227   9.372   2.341   8.048  0.1207  0.7142  0.1129
  447MOL0     C60228   9.358   2.343   7.912  0.5350 -0.8107  0.7306
  447MOL0     C60229   9.485   2.307   7.869  0.1805 -0.8479  0.3604
  447MOL0     C60230   9.524   2.284   7.727 -0.5736  0.8062 -0.7866
  447MOL0     C60231   9.538   2.131   7.702  0.1453  1.0209  0.1405
  447MOL0     C60232   9.407   2.057   7.719  0.9425  0.6832 -0.3422
  447MOL0     C60233   9.412   1.923   7.647  0.4268 -0.9336  0.8687
  447MOL0     O60234   9.293   1.852   7.636  0.3679  0.5476 -0.9695
  447MOL0     C60235   9.279   1.766   7.534 -0.0899 -0.2039 -0.1405
  447MOL0     C60236   9.181   1.784   7.433 -0.1882  0.5189 -0.3338
  447MOL0     C60237   9.176   1.688   7.333 -0.0613  0.0873  0.3069
  447MOL0     C60238   9.268   1.586   7.319 -0.4933  0.7991 -0.0491
  447MOL0     C60239   9.257   1.474   7.223  0.5960  0.1156  0.2601
  447MOL0     O60240   9.261   1.346   7.273  0.6621  0.1024 -0.0221
  447MOL0     C60241   9.249   1.238   7.192 -0.6573 -0.2867  0.4544
  447MOL0     C60242   9.318   1.124   7.224 -0.0113  0.1789 -0.0064
  447MOL0     C60243   9.302   0.998   7.161  0.6741 -1.2132  0.7503
  447MOL0     C60244   9.216   0.988   7.055 -0.3307 -0.0019  0.0467
  447MOL0     O60245   9.201   0.864   6.997  0.8123 -0.2190  0.4118
  447MOL0     C60246   9.077   0.821   6.932 -0.1527 -0.2216  0.3333
  447MOL0     C60247   9.074   0.672   6.905 -0.0155  0.1515  0.4205
  447MOL0     C60248   9.161   0.618   6.787 -0.0832 -0.2153 -0.4105
  447MOL0     C60249   9.137   0.677   6.649  0.8513 -0.2034 -0.3699
  447MOL0     C60250   9.216   0.603   6.543 -0.3934  0.0791  0.4291
  447MOL0     C60251   9.264   0.701   6.432 -0.1207  0.4967 -0.9301
  447MOL0     C60252   9.328   0.632   6.315  0.7524  0.3810 -0.6919
  447MOL0     C60253   9.464   0.577   6.353 -0.9898  0.1810  0.0887
  447MOL0    Cl60254   9.563   0.567   6.210 -0.2073 -0.3944  0.6490
  447MOL0     C60255   9.126   1.100   7.026 -0.3495  0.2918 -0.2276
  447MOL0     C60256   9.149   1.223   7.095 -0.9981 -0.0400 -0.4139
  447MOL0     O60257   9.243   1.504   7.103  0.0468 -0.1894  0.1672
  447MOL0     C60258   9.369   1.579   7.414  0.1784  0.4866 -0.6495
  447MOL0     C60259   9.372   1.667   7.514  0.2803 -0.7387  0.4060
  447MOL0     N60260   9.568   2.303   7.973 -0.0290  0.0754 -0.3606
  447MOL0     N60261   9.504   2.311   8.079  0.5873  0.3934  0.4875
  447MOL0     C60262   8.426   2.566   8.060  0.5647  0.1227  0.3060
  447MOL0     C60263   8.384   2.682   8.118  0.5674  0.8742  1.6812
  447MOL0     C60264   8.184   2.974   8.366  0.5882  0.4966 -1.2301
  447MOL0     C60265   8.145   2.986   8.496  0.0905  0.3894  0.1485
  447MOL0     C60266   8.144   3.103   8.553  0.8624  0.3005  0.5904
  447MOL0     C60267   8.171   3.222   8.487 -0.2024 -0.0024 -0.2301
  447MOL0     O60268   8.161   3.344   8.537 -0.0533  0.1053 -0.7372
  447MOL0     C60269   8.119   3.365   8.673 -0.0430 -0.2637 -0.0739
  447MOL0     C60270   7.962   3.360   8.702  0.6496 -1.1198  0.1464
  447MOL0     C60271   7.887   3.462   8.617 -0.5975  0.1657  0.4630
  447MOL0     C60272   7.743   3.441   8.633  0.2609  0.4496 -0.4736
  447MOL0     C60273   7.707   3.476   8.766 -0.3656  0.1690 -0.3377
  447MOL0     C60274   7.666   3.501   8.878 -0.0658  0.3424  0.2276
  447MOL0     C60275   8.220   3.212   8.355 -0.2939  0.5253  0.2108
  447MOL0     C60276   8.232   3.088   8.295 -0.3544 -0.2054  0.0557
  447MOL0     C60277   8.268   3.091   8.143  0.2839  0.8192  1.1043
  447MOL0     H60278   8.313   2.563   8.425  0.1056  1.0669 -0.5354
  447MOL0     H60279   8.378   2.344   8.301  0.6644  0.1253  0.5192
  447MOL0     H60280   8.487   2.318   7.860 -0.7440 -1.7836  0.9651
  447MOL0     H60281   8.603   2.395   7.950 -1.1432  1.8195  0.2919
  447MOL0     H60282   8.665   2.172   7.865  1.8360 -2.4599  1.2052
  447MOL0     H60283   8.547   2.094   7.976 -1.3414 -0.4800 -2.6654
  447MOL0     H60284   8.702   2.108   8.141  5.3953 -2.1715 -0.3671
  447MOL0     H60285   8.713   2.288   8.122 -1.5706  0.4026 -0.9329
  447MOL0     H60286   8.888   2.083   7.982 -1.0356  0.1104 -1.3054
  447MOL0     H60287   8.882   2.258   7.947  3.9157  0.6608  1.8764
  447MOL0     H60288   8.964   2.312   8.145  3.4714  0.8349 -0.4872
  447MOL0     H60289   8.949   2.160   8.221 -0.5459 -0.6507 -0.4655
  447MOL0     H60290   9.138   2.064   8.073 -1.3532 -0.1596 -0.1406
  447MOL0     H60291   9.134   2.217   7.978 -0.3782 -0.3264 -0.1674
  447MOL0     H60292   9.316   2.168   8.195  1.3140  0.2986 -0.3038
  447MOL0     H60293   9.174   2.218   8.285 -1.0583 -1.9330  0.3607
  447MOL0     H60294   9.185   2.427   8.122 -0.3535 -0.6346 -1.1273
  447MOL0     H60295   9.308   2.420   8.230 -2.3686  1.6943 -0.3939
  447MOL0     H60296   9.277   2.383   7.853  1.1546 -2.2050 -1.1979
  447MOL0     H60297   9.453   2.334   7.660 -0.2377  3.4636  0.7093
  447MOL0     H60298   9.622   2.331   7.714  0.1557 -0.0256  1.2721
  447MOL0     H60299   9.593   2.113   7.609  4.0906 -0.0160  2.4722
  447MOL0     H60300   9.613   2.089   7.768  0.9158 -0.8289 -1.8049
  447MOL0     H60301   9.317   2.102   7.676 -0.4600 -1.2980  0.3763
  447MOL0     H60302   9.370   2.050   7.821 -2.1341 -0.6404 -1.4162
  447MOL0     H60303   9.492   1.867   7.696 -0.7649 -1.4881  2.2713
  447MOL0     H60304   9.433   1.948   7.543 -1.0385 -0.4571  0.6650
  447MOL0     H60305   9.103   1.857   7.452 -0.5884 -0.4638  2.2709
  447MOL0     H60306   9.087   1.707   7.273  0.6834  0.6394 -0.6640
  447MOL0     H60307   9.388   1.125   7.306  0.7893 -0.4118 -0.6648
  447MOL0     H60308   9.359   0.916   7.204  0.1781 -1.0996  1.6497
  447MOL0     H60309   9.001   0.839   7.008  0.7220 -1.2249  1.4834
  447MOL0     H60310   9.055   0.888   6.849  0.1847 -0.3623  0.1296
  447MOL0     H60311   9.100   0.611   6.991 -1.8737 -1.1450  0.1412
  447MOL0     H60312   8.968   0.647   6.893  0.4509 -2.1683  0.5911
  447MOL0     H60313   9.266   0.635   6.813 -1.0197  4.3971  1.2366
  447MOL0     H60314   9.144   0.511   6.771 -1.3888  0.3288 -3.4581
  447MOL0     H60315   9.185   0.774   6.666  4.3977 -1.8853 -0.0011
  447MOL0     H60316   9.031   0.697   6.632 -0.3517 -2.0418  3.6930
  447MOL0     H60317   9.157   0.516   6.512 -0.6684 -0.5886  2.6777
  447MOL0     H60318   9.310   0.571   6.589 -0.2512  1.3285  1.0538
  447MOL0     H60319   9.177   0.761   6.404 -0.7011 -0.0084 -0.2592
  447MOL0     H60320   9.343   0.760   6.480  2.6719 -2.7089 -1.1788
  447MOL0     H60321   9.335   0.697   6.227 -0.5670 -0.3985 -1.4133
  447MOL0     H60322   9.263   0.555   6.271  1.2752 -0.4222 -0.0976
  447MOL0     H60323   9.515   0.642   6.424  1.2804 -1.3564 -0.0530
  447MOL0     H60324   9.461   0.475   6.394  1.4586 -0.5160 -1.3099
  447MOL0     H60325   9.036   1.091   6.968 -2.8213 -0.8153  3.4241
  447MOL0     H60326   9.095   1.314   7.070 -0.7043  0.1710 -0.2862
  447MOL0     H60327   9.431   1.491   7.398  0.8943  1.1461 -1.6527
  447MOL0     H60328   9.452   1.662   7.587  3.6975  0.2520 -2.9536
  447MOL0     H60329   8.439   2.584   7.954 -0.7909  1.1104  0.2876
  447MOL0     H60330   8.381   2.770   8.054  1.1318 -0.8773 -0.9021
  447MOL0     H60331   8.110   2.899   8.550 -1.1837  1.5255  1.2313
  447MOL0     H60332   8.098   3.100   8.651 -4.7983  1.9416 -1.6071
  447MOL0     H60333   8.160   3.461   8.707  3.9539 -2.0660  0.8390
  447MOL0     H60334   8.174   3.299   8.741 -1.0673 -0.7667  0.2903
  447MOL0     H60335   7.952   3.377   8.810  0.5031  1.9493 -0.2646
  447MOL0     H60336   7.918   3.262   8.680  2.6182 -1.5208 -2.5117
  447MOL0     H60337   7.904   3.450   8.510 -0.9342 -0.8755  0.5168
  447MOL0     H60338   7.929   3.561   8.636  0.1882 -0.2768  1.1079
  447MOL0     H60339   7.689   3.515   8.574 -1.1799 -1.5935 -1.8780
  447MOL0     H60340   7.715   3.338   8.607  1.1094  0.1936 -0.3936
  447MOL0     H60341   7.617   3.528   8.969 -0.0505  2.5917 -0.3623
  447MOL0     H60342   8.254   3.305   8.312 -0.6162  0.7616  0.4657
  447MOL0     H60343   8.349   3.018   8.132 -1.3308 -0.9038  0.2008
  447MOL0     H60344   8.176   3.059   8.093 -0.3169  1.1312  1.9910
  447MOL0     H60345   8.305   3.187   8.105 -2.6091  1.6602  0.1696
  448MOL0     O60346  10.618   9.608   7.136  0.3443 -0.8593  0.0070
  448MOL0     C60347  10.599   9.610   7.257  0.4916  0.0701 -0.8760
  448MOL0     O60348  10.682   9.652   7.359  0.0254  0.5156  1.0057
  448MOL0     C60349  10.771   9.752   7.333 -0.1708  0.0436 -0.4194
  448MOL0     C60350  10.765   9.851   7.224  0.0028 -0.5034 -0.9351
  448MOL0     C60351  10.862   9.948   7.218 -0.5852 -0.0858 -1.3160
  448MOL0     C60352  10.977   9.946   7.300 -0.7298  0.0718 -0.1006
  448MOL0     O60353  11.069  10.043   7.282 -0.5288 -0.2659 -0.0722
  448MOL0     C60354  11.108  10.067   7.145  0.8472  0.2836 -0.4710
  448MOL0     C60355  11.202  10.186   7.152  0.3234  0.4520  1.0578
  448MOL0     C60356  11.284  10.201   7.018  0.4518  0.0384 -0.5277
  448MOL0     C60357  11.382  10.323   7.041  0.0611 -0.0886  0.3544
  448MOL0     C60358  11.484  10.301   6.934 -0.2105 -0.5445 -0.1636
  448MOL0     C60359  11.562  10.426   6.883 -0.0634  0.1925  0.2497
  448MOL0     C60360  11.589  10.536   6.979  0.4167 -0.0581  0.3466
  448MOL0     C60361  11.693  10.503   7.081  0.1948 -0.1804 -1.1510
  448MOL0     N60362  11.758  10.623   7.145 -0.8722  0.2024 -0.0675
  448MOL0     C60363  11.695  10.733   7.201  1.1137  0.4067 -0.0415
  448MOL0     C60364  11.787  10.827   7.203 -0.0137 -0.3295  0.1291
  448MOL0     C60365  11.783  10.968   7.256  0.7429  0.5713  0.3533
  448MOL0     C60366  11.672  11.060   7.210 -0.0623  0.3391  0.4754
  448MOL0     C60367  11.630  11.044   7.067  0.1771  0.8018  1.0310
  448MOL0     C60368  11.731  11.073   6.967  0.8978 -0.1707  0.4502
  448MOL0     O60369  11.662  11.099   6.839 -0.6871  0.1418  0.2189
  448MOL0     C60370  11.752  11.132   6.738  0.8791 -0.9439  0.3933
  448MOL0     C60371  11.784  11.271   6.723 -1.0911 -0.0428 -0.5753
  448MOL0     C60372  11.870  11.296   6.621  0.3942 -0.2895  0.5874
  448MOL0     C60373  11.939  11.197   6.546 -0.3823  0.2227 -0.7573
  448MOL0     C60374  12.022  11.233   6.434 -0.0496  0.8902 -0.4801
  448MOL0     O60375  12.010  11.351   6.373 -0.2613 -0.3547 -0.1530
  448MOL0     C60376  12.083  11.380   6.259  0.9220 -0.3954 -0.1263
  448MOL0     C60377  12.053  11.307   6.148 -0.3836  0.2856 -0.8019
  448MOL0     C60378  12.092  11.335   6.012  0.0781  1.1127 -0.5951
  448MOL0     C60379  12.167  11.451   5.988 -0.5610 -0.5731 -0.9231
  448MOL0     O60380  12.206  11.496   5.866 -0.2490  0.2131 -0.0012
  448MOL0     C60381  12.311  11.430   5.793 -0.2301  0.6618 -1.5704
  448MOL0     C60382  12.364  11.523   5.686  0.1698  0.3934  0.2740
  448MOL0     C60383  12.480  11.613   5.736 -0.7640 -0.4467 -0.4142
  448MOL0     C60384  12.502  11.722   5.625 -0.1982 -0.6336 -0.3334
  448MOL0     C60385  12.581  11.846   5.689 -0.5373  0.4441  0.4961
  448MOL0     C60386  12.635  11.939   5.600 -0.0515 -0.8116 -0.0202
  448MOL0     C60387  12.721  12.052   5.670  0.7389 -0.2457 -0.0973
  448MOL0     C60388  12.846  12.088   5.590 -0.4679  0.0697  0.1228
  448MOL0    Cl60389  12.945  11.936   5.574 -0.3346 -0.1331 -0.1826
  448MOL0     C60390  12.198  11.526   6.106  0.2357  0.0895 -0.5983
  448MOL0     C60391  12.140  11.504   6.235 -0.4409 -0.0020 -0.3032
  448MOL0     O60392  12.096  11.144   6.402 -0.1434  0.1126  0.3131
  448MOL0     C60393  11.903  11.060   6.571 -0.2793 -0.0375 -0.1361
  448MOL0     C60394  11.804  11.029   6.665  0.2714 -0.6964 -0.1087
  448MOL0     N60395  11.907  10.780   7.151  0.6013  0.2086 -0.2653
  448MOL0     N60396  11.890  10.655   7.121 -0.1951 -0.4980 -0.5742
  448MOL0     C60397  10.976   9.858   7.407  1.0847 -0.2235  0.2699
  448MOL0     C60398  10.878   9.758   7.422  0.1432  0.1198 -0.5171
  448MOL0     C60399  10.466   9.546   7.307 -0.5787 -0.4473 -0.8249
  448MOL0     C60400  10.425   9.586   7.442 -0.3571  0.2390  0.4663
  448MOL0     C60401  10.311   9.555   7.502  0.7832  0.1435  0.0536
  448MOL0     C60402  10.225   9.469   7.441  0.0420  0.2562 -0.5723
  448MOL0     O60403  10.104   9.457   7.502  0.0866 -0.0133  1.0375
  448MOL0     C60404  10.055   9.321   7.504 -0.1035  0.5056 -0.8470
  448MOL0     C60405  10.132   9.237   7.604  0.1055  0.4889 -0.5980
  448MOL0     C60406  10.046   9.131   7.677  0.5346  0.0561  0.3664
  448MOL0     C60407  10.128   9.015   7.744 -0.3619  0.0392  0.6276
  448MOL0     C60408  10.238   9.072   7.825 -0.6730 -0.5272  0.1367
  448MOL0     C60409  10.317   9.135   7.897  0.2222  0.4386 -0.3788
  448MOL0     C60410  10.257   9.428   7.303  0.0452  1.0317 -0.6022
  448MOL0     C60411  10.377   9.461   7.239 -0.4603  0.1870 -0.4086
  448MOL0     C60412  10.400   9.417   7.095  0.3184 -0.1900  0.0807
  448MOL0     H60413  10.680   9.853   7.156 -1.0074 -2.0059  0.2272
  448MOL0     H60414  10.864  10.016   7.133  0.6079 -0.2850 -1.4723
  448MOL0     H60415  11.164   9.981   7.108 -1.5945 -0.9630 -1.5665
  448MOL0     H60416  11.032  10.097   7.072  1.6952  0.1955 -1.4122
  448MOL0     H60417  11.279  10.153   7.222  2.4691 -0.8441 -1.6914
  448MOL0     H60418  11.151  10.277   7.186  1.5831  1.0781  1.3292
  448MOL0     H60419  11.228  10.206   6.924 -0.6324 -0.1796  0.0880
  448MOL0     H60420  11.334  10.106   7.001 -2.8001 -1.8185 -0.5628
  448MOL0     H60421  11.332  10.420   7.033 -0.7171 -0.6178 -2.0826
  448MOL0     H60422  11.428  10.310   7.139 -0.9546 -0.4494  0.7924
  448MOL0     H60423  11.555  10.221   6.958 -0.3833 -0.9054 -0.8237
  448MOL0     H60424  11.425  10.281   6.844 -2.8502 -1.0829  1.5807
  448MOL0     H60425  11.655  10.390   6.838  0.3583 -0.8416  1.8728
  448MOL0     H60426  11.498  10.468   6.805 -2.9695 -3.9539  0.0344
  448MOL0     H60427  11.502  10.578   7.030  0.7518  4.3738 -2.1644
  448MOL0     H60428  11.624  10.624   6.923 -0.4277  0.5561  0.7459
  448MOL0     H60429  11.639  10.453   7.162  2.7003  0.6053  1.1256
  448MOL0     H60430  11.767  10.429   7.051 -0.4390 -0.2789 -2.5608
  448MOL0     H60431  11.595  10.726   7.242  0.4542 -3.6016 -1.7964
  448MOL0     H60432  11.790  10.959   7.365 -1.9827 -1.4542  0.4552
  448MOL0     H60433  11.880  11.009   7.224  0.7975 -0.5969 -1.0209
  448MOL0     H60434  11.593  11.021   7.276  0.2643 -1.9438 -0.3727
  448MOL0     H60435  11.674  11.168   7.228 -3.6647  0.8731 -1.3582
  448MOL0     H60436  11.559  11.124   7.046 -1.8829 -0.5831  2.3951
  448MOL0     H60437  11.573  10.953   7.045 -2.5753  2.8994 -1.2085
  448MOL0     H60438  11.793  10.984   6.952  0.7161  0.1349 -2.9034
  448MOL0     H60439  11.784  11.165   6.996 -0.6012  1.4129 -1.5468
  448MOL0     H60440  11.748  11.361   6.773 -0.5073 -0.3535  0.4398
  448MOL0     H60441  11.883  11.398   6.586 -2.6494  0.2577  0.7634
  448MOL0     H60442  11.999  11.213   6.156  0.7954 -0.2461  2.7457
  448MOL0     H60443  12.077  11.268   5.928 -0.2506 -1.8697  1.6925
  448MOL0     H60444  12.398  11.418   5.857 -1.6342 -1.1169  0.1167
  448MOL0     H60445  12.275  11.338   5.745  0.0339 -0.5514  0.4585
  448MOL0     H60446  12.411  11.457   5.612  1.9039  1.9139 -0.0465
  448MOL0     H60447  12.277  11.572   5.641  0.7514 -1.8648 -3.7443
  448MOL0     H60448  12.461  11.666   5.830 -0.6289 -0.2844 -0.4778
  448MOL0     H60449  12.565  11.551   5.766  1.0914  0.8400 -2.6750
  448MOL0     H60450  12.413  11.771   5.586  0.0774  0.2850  0.1710
  448MOL0     H60451  12.551  11.674   5.540 -1.9508 -1.8229 -0.7180
  448MOL0     H60452  12.665  11.802   5.743  0.6824  0.4004 -1.3395
  448MOL0     H60453  12.531  11.895   5.773 -0.6024  0.1188  0.6497
  448MOL0     H60454  12.701  11.897   5.524  0.0452  0.9257 -0.9502
  448MOL0     H60455  12.547  11.984   5.553 -1.4270 -0.8371  2.3817
  448MOL0     H60456  12.750  12.017   5.769 -2.5854 -0.7835  0.7905
  448MOL0     H60457  12.670  12.149   5.679  2.0846  0.7271 -2.0642
  448MOL0     H60458  12.826  12.126   5.489  1.3705  0.8101 -0.0028
  448MOL0     H60459  12.909  12.166   5.632  1.8088 -0.7254 -1.5965
  448MOL0     H60460  12.271  11.606   6.097 -0.7644  1.1826  0.6007
  448MOL0     H60461  12.157  11.571   6.319  1.1783 -0.8285  0.0831
  448MOL0     H60462  11.939  10.985   6.502 -1.6584  1.4203 -2.5680
  448MOL0     H60463  11.760  10.931   6.682  0.2637 -0.4451  1.4877
  448MOL0     H60464  11.053   9.853   7.483  0.6215  3.0033  1.0936
  448MOL0     H60465  10.881   9.688   7.505  0.3874  0.0485 -0.5842
  448MOL0     H60466  10.491   9.645   7.505  0.2138 -2.1867  2.3062
  448MOL0     H60467  10.288   9.599   7.598 -2.8741  0.0228 -0.6259
  448MOL0     H60468  10.049   9.282   7.402 -1.5280  0.4846 -0.7704
  448MOL0     H60469   9.950   9.317   7.534 -0.5671 -1.8566 -2.5553
  448MOL0     H60470  10.169   9.302   7.683 -1.3819 -1.5750  1.9502
  448MOL0     H60471  10.208   9.185   7.546 -0.2279  1.3415 -1.8447
  448MOL0     H60472   9.976   9.086   7.606 -1.1589 -0.3920  2.2311
  448MOL0     H60473   9.983   9.171   7.758 -0.3372 -0.8224  0.1339
  448MOL0     H60474  10.063   8.955   7.808 -0.2623  0.0620  0.7518
  448MOL0     H60475  10.175   8.961   7.661  0.2293  2.5259 -0.7741
  448MOL0     H60476  10.391   9.196   7.945 -1.3736  1.1811  1.2652
  448MOL0     H60477  10.174   9.375   7.257 -2.6026  2.2638  2.3494
  448MOL0     H60478  10.462   9.328   7.081 -0.7172 -0.8014 -0.6988
  448MOL0     H60479  10.306   9.379   7.057 -0.4620  1.7985 -0.0878
  448MOL0     H60480  10.428   9.500   7.029  0.4035 -0.1327  0.1871
  449MOL0     O60481  11.367   6.477   7.581  0.2628  0.4142 -0.5873
  449MOL0     C60482  11.371   6.355   7.588 -0.3162 -0.0467 -0.1066
  449MOL0     O60483  11.449   6.280   7.508 -0.6827 -0.2840  0.2021
  449MOL0     C60484  11.491   6.345   7.392 -0.9165 -0.0646  0.3270
  449MOL0     C60485  11.626   6.385   7.374 -0.9605 -0.1101 -0.0807
  449MOL0     C60486  11.665   6.451   7.258  0.4022  0.7283 -0.2322
  449MOL0     C60487  11.584   6.464   7.142  0.1307 -0.0175  0.2555
  449MOL0     O60488  11.619   6.527   7.024  0.0861 -0.2146 -0.1761
  449MOL0     C60489  11.719   6.615   7.030 -0.4763 -0.5408  0.9426
  449MOL0     C60490  11.741   6.696   6.904 -0.8884 -0.5842  0.5423
  449MOL0     C60491  11.751   6.598   6.781  0.3901  0.3667  0.7135
  449MOL0     C60492  11.862   6.645   6.693 -0.1509  0.2599  0.1321
  449MOL0     C60493  11.894   6.537   6.598  0.1950 -0.1363 -0.3663
  449MOL0     C60494  12.033   6.571   6.539  0.6464 -0.9186 -0.4903
  449MOL0     C60495  12.081   6.473   6.424 -0.2626  0.4357 -0.3124
  449MOL0     C60496  11.997   6.465   6.291 -0.5300  0.3362 -0.9998
  449MOL0     N60497  12.026   6.579   6.202  0.7732 -0.3139 -0.9996
  449MOL0     C60498  12.137   6.592   6.133 -0.2758  0.4386 -0.5417
  449MOL0     C60499  12.139   6.717   6.091 -0.5045 -0.7223 -0.7341
  449MOL0     C60500  12.254   6.778   6.023 -0.0234 -0.3664 -0.7656
  449MOL0     C60501  12.356   6.844   6.107 -1.5256 -0.0717  0.5740
  449MOL0     C60502  12.466   6.878   6.010  0.6267  0.0268 -1.1453
  449MOL0     C60503  12.579   6.968   6.062 -0.3641  0.3183 -0.1257
  449MOL0     O60504  12.545   7.092   6.111 -0.5617 -0.4425  0.3627
  449MOL0     C60505  12.648   7.158   6.169 -0.2266  0.0340 -0.0337
  449MOL0     C60506  12.692   7.286   6.131 -0.1328 -0.2680 -0.3103
  449MOL0     C60507  12.813   7.333   6.182  0.0055 -0.0456  0.2481
  449MOL0     C60508  12.884   7.268   6.282 -0.2135 -0.9309 -0.3115
  449MOL0     C60509  13.011   7.331   6.330  0.6219  0.9050 -0.7501
  449MOL0     O60510  13.084   7.265   6.426 -0.6573 -0.1877 -0.0335
  449MOL0     C60511  13.202   7.325   6.466  0.1713  0.5481 -0.1950
  449MOL0     C60512  13.218   7.459   6.493  0.4899 -0.6305 -0.7584
  449MOL0     C60513  13.345   7.507   6.528  0.0633  0.4618 -0.1343
  449MOL0     C60514  13.456   7.423   6.563  0.1872  0.1510 -0.0648
  449MOL0     O60515  13.579   7.488   6.593  0.3003 -0.0479  0.2395
  449MOL0     C60516  13.692   7.411   6.628 -0.0323 -0.4552  0.6409
  449MOL0     C60517  13.790   7.512   6.658  0.5948  0.4796  0.2254
  449MOL0     C60518  13.759   7.591   6.788 -0.7181  0.2101 -1.0882
  449MOL0     C60519  13.883   7.645   6.850 -0.0712  0.2457 -0.2469
  449MOL0     C60520  13.858   7.675   7.000 -0.7535  0.0326 -1.2940
  449MOL0     C60521  13.982   7.750   7.055 -0.3774  0.1432 -0.2591
  449MOL0     C60522  13.983   7.896   7.004 -0.5335 -0.2794 -0.5480
  449MOL0     C60523  14.114   7.972   7.021 -0.4367  0.1326 -0.1365
  449MOL0    Cl60524  14.248   7.952   6.891  0.1030 -0.1879 -0.2099
  449MOL0     C60525  13.437   7.284   6.546 -0.5443  0.4373 -0.2233
  449MOL0     C60526  13.320   7.241   6.495  0.6227  0.4041  0.0179
  449MOL0     O60527  13.049   7.433   6.266 -0.5689 -0.2600 -0.0605
  449MOL0     C60528  12.835   7.145   6.329  0.9432  0.4551  1.2234
  449MOL0     C60529  12.716   7.090   6.273 -0.3799  0.3673  0.3822
  449MOL0     N60530  12.024   6.782   6.137 -0.4518  0.3249 -0.6107
  449MOL0     N60531  11.949   6.700   6.203 -0.2741  0.3876  0.4214
  449MOL0     C60532  11.453   6.418   7.158 -0.0423 -0.0588  1.6263
  449MOL0     C60533  11.404   6.365   7.276  0.9390  0.8216 -1.1444
  449MOL0     C60534  11.299   6.272   7.690 -0.0950 -0.3800  0.4355
  449MOL0     C60535  11.374   6.199   7.779  0.3525  0.1136  0.6214
  449MOL0     C60536  11.317   6.109   7.860  0.4528  0.0529 -0.5411
  449MOL0     C60537  11.182   6.098   7.862  0.6595 -0.4642 -0.3326
  449MOL0     O60538  11.124   6.009   7.956 -0.3961  0.9343  0.1678
  449MOL0     C60539  11.036   5.903   7.907 -0.0512 -0.7208  0.1382
  449MOL0     C60540  10.987   5.807   8.023  0.0837  0.4138  0.0420
  449MOL0     C60541  11.100   5.732   8.101 -0.7029  0.0294 -0.0397
  449MOL0     C60542  11.066   5.595   8.154  0.8562 -0.4067 -0.0654
  449MOL0     C60543  10.951   5.604   8.247  0.0650  0.6246  0.4027
  449MOL0     C60544  10.859   5.601   8.324  0.0528 -0.3636 -0.7288
  449MOL0     C60545  11.103   6.180   7.780  0.1601  1.6869  0.0295
  449MOL0     C60546  11.156   6.269   7.699 -0.3497 -0.8996  0.0136
  449MOL0     C60547  11.068   6.360   7.612  0.5591 -0.0479  0.0667
  449MOL0     H60548  11.707   6.371   7.445  0.3041  1.8212 -1.0501
  449MOL0     H60549  11.769   6.480   7.267  0.5701  1.7026 -3.9053
  449MOL0     H60550  11.708   6.678   7.119  0.4869  0.3399  0.4655
  449MOL0     H60551  11.812   6.559   7.035 -1.3533 -2.1630 -0.2154
  449MOL0     H60552  11.827   6.762   6.921 -1.1005  0.6739 -2.5350
  449MOL0     H60553  11.661   6.769   6.890 -0.7799 -0.7749 -1.2342
  449MOL0     H60554  11.658   6.593   6.723  0.6013 -0.2139  0.4188
  449MOL0     H60555  11.773   6.495   6.810 -1.8051 -1.3019 -2.8203
  449MOL0     H60556  11.822   6.729   6.634  1.3907 -0.9099 -2.7362
  449MOL0     H60557  11.944   6.679   6.757 -2.6725  3.3808  2.0466
  449MOL0     H60558  11.895   6.438   6.645  0.8774  0.4705  0.9527
  449MOL0     H60559  11.824   6.536   6.513 -0.1940 -3.7459 -0.1817
  449MOL0     H60560  12.040   6.674   6.504 -0.9756 -0.5382  0.2666
  449MOL0     H60561  12.093   6.556   6.629  0.5606  3.2378  0.4343
  449MOL0     H60562  12.084   6.371   6.464 -1.8355  0.4005 -0.2014
  449MOL0     H60563  12.181   6.502   6.391  0.9399 -2.4555  0.5004
  449MOL0     H60564  12.023   6.370   6.244 -3.3815 -1.8777  1.5260
  449MOL0     H60565  11.890   6.474   6.314 -0.3025 -0.9870  0.7483
  449MOL0     H60566  12.229   6.536   6.137  0.5672  1.8278  0.9776
  449MOL0     H60567  12.300   6.697   5.965  3.2308 -0.9177  2.2534
  449MOL0     H60568  12.214   6.844   5.946  1.5370  1.0705 -0.3962
  449MOL0     H60569  12.309   6.925   6.162 -4.0261 -0.1751 -1.2286
  449MOL0     H60570  12.384   6.760   6.171  0.2342 -0.6157 -0.8240
  449MOL0     H60571  12.420   6.936   5.930 -2.5790 -1.9782 -0.9655
  449MOL0     H60572  12.523   6.792   5.973  0.2831 -0.1922 -1.1745
  449MOL0     H60573  12.646   6.987   5.978 -0.4149  2.7127  0.2949
  449MOL0     H60574  12.629   6.904   6.136 -2.0749 -0.5454  0.3350
  449MOL0     H60575  12.645   7.328   6.042 -1.7964  1.9744  1.4983
  449MOL0     H60576  12.844   7.431   6.148 -2.2540  0.5975 -0.1780
  449MOL0     H60577  13.136   7.530   6.483  1.4387  0.5472 -0.4784
  449MOL0     H60578  13.348   7.615   6.541  2.8622  0.2718  1.5414
  449MOL0     H60579  13.669   7.350   6.717 -1.0635 -1.8996 -0.5700
  449MOL0     H60580  13.730   7.337   6.556 -0.4195  1.1655 -1.2955
  449MOL0     H60581  13.877   7.450   6.683  0.1654  1.0531  3.6130
  449MOL0     H60582  13.819   7.571   6.571  1.4850 -3.2425 -2.2222
  449MOL0     H60583  13.692   7.675   6.766 -0.1179  1.0308  0.0630
  449MOL0     H60584  13.725   7.518   6.861  4.9964 -1.0731  0.8087
  449MOL0     H60585  13.917   7.735   6.798  0.7373  0.8422  1.2578
  449MOL0     H60586  13.973   7.584   6.838  0.2009  0.3521  1.0953
  449MOL0     H60587  13.856   7.583   7.058 -1.6551  1.0436  0.3930
  449MOL0     H60588  13.763   7.726   7.022 -1.1479 -1.1748 -0.1087
  449MOL0     H60589  13.998   7.745   7.163 -0.2034 -0.0533 -0.2920
  449MOL0     H60590  14.074   7.715   7.007  0.0966 -0.4928  1.0648
  449MOL0     H60591  13.898   7.952   7.045 -1.1567 -0.2951 -1.7679
  449MOL0     H60592  13.964   7.898   6.897 -2.1427  2.4683 -0.3020
  449MOL0     H60593  14.083   8.077   7.020 -1.4540 -0.1530 -1.2410
  449MOL0     H60594  14.144   7.943   7.122 -0.1081 -0.6051 -0.4364
  449MOL0     H60595  13.504   7.204   6.576 -1.4163 -0.5894 -0.9518
  449MOL0     H60596  13.315   7.136   6.470  2.5026  0.6226 -1.5844
  449MOL0     H60597  12.881   7.098   6.415  0.8136  1.9986  2.1579
  449MOL0     H60598  12.674   6.997   6.310  0.1782 -1.0060 -2.1873
  449MOL0     H60599  11.381   6.441   7.079  0.1218  1.9292  1.9885
  449MOL0     H60600  11.301   6.332   7.286  1.2404 -0.1467 -1.0978
  449MOL0     H60601  11.482   6.189   7.778  0.3347 -0.4704  2.2436
  449MOL0     H60602  11.392   6.046   7.908 -0.4301 -1.9136 -1.5948
  449MOL0     H60603  11.084   5.844   7.829 -1.4929  1.8997 -2.9964
  449MOL0     H60604  10.943   5.952   7.874  0.4368  0.8577  0.9657
  449MOL0     H60605  10.908   5.737   7.994 -0.0810 -0.4769  2.4633
  449MOL0     H60606  10.938   5.868   8.098  1.1894  0.1488  1.0134
  449MOL0     H60607  11.133   5.794   8.185 -0.8837 -1.9691  1.5760
  449MOL0     H60608  11.179   5.717   8.026 -2.4881 -0.2013 -1.9435
  449MOL0     H60609  11.052   5.520   8.076  2.5174 -2.4610  1.4812
  449MOL0     H60610  11.153   5.552   8.205 -0.4948 -4.8088 -1.0426
  449MOL0     H60611  10.785   5.607   8.401  0.3049  1.1676 -0.5804
  449MOL0     H60612  10.996   6.184   7.802 -0.1334  1.2609 -1.2546
  449MOL0     H60613  10.969   6.370   7.658  0.0873  3.0378 -1.3595
  449MOL0     H60614  11.098   6.465   7.616 -3.5859  1.3588  4.4672
  449MOL0     H60615  11.052   6.326   7.509  2.1717  1.8334 -0.8694
  450MOL0     O60616   4.477   6.700   9.175 -0.3554 -0.1678 -0.0128
  450MOL0     C60617   4.476   6.604   9.251 -0.1581  0.7630 -0.3541
  450MOL0     O60618   4.462   6.471   9.218  0.3682 -0.7212 -0.0880
  450MOL0     C60619   4.442   6.424   9.093 -0.4296  0.6729  0.7909
  450MOL0     C60620   4.364   6.310   9.076  0.5846  0.1067  0.0831
  450MOL0     C60621   4.354   6.249   8.948  0.0316  0.5099 -0.2129
  450MOL0     C60622   4.426   6.292   8.841 -0.1770 -0.1171 -0.6680
  450MOL0     O60623   4.424   6.234   8.726  0.1689 -0.0785  0.1040
  450MOL0     C60624   4.513   6.120   8.716 -0.2929  0.0368  0.3672
  450MOL0     C60625   4.489   6.078   8.573 -0.0592 -0.9918 -0.0780
  450MOL0     C60626   4.547   5.931   8.543  0.1013 -0.4376  0.7494
  450MOL0     C60627   4.584   5.912   8.397  0.7018 -0.2302 -0.7634
  450MOL0     C60628   4.461   5.884   8.306 -0.2065 -0.5998 -0.6907
  450MOL0     C60629   4.400   5.749   8.354 -0.4168 -0.4878  0.8283
  450MOL0     C60630   4.310   5.690   8.253 -0.3217  0.1710  0.4257
  450MOL0     C60631   4.215   5.584   8.306 -0.1092 -1.1335  0.6422
  450MOL0     N60632   4.115   5.559   8.205  0.4676  0.1360  1.0978
  450MOL0     C60633   4.109   5.456   8.107  0.4269  0.1226 -0.2977
  450MOL0     C60634   4.001   5.479   8.037 -0.0945  0.6910  0.7460
  450MOL0     C60635   3.932   5.397   7.932 -0.1667 -0.8835  0.5581
  450MOL0     C60636   3.862   5.271   7.980 -0.0581 -0.6570 -0.5699
  450MOL0     C60637   3.927   5.165   8.070  0.7695  0.0520 -0.4753
  450MOL0     C60638   4.023   5.069   8.000  0.1030 -0.1628 -0.1311
  450MOL0     O60639   3.962   4.950   7.950  0.8300  0.6175  0.4569
  450MOL0     C60640   4.053   4.861   7.900  0.3147 -0.0452 -0.1576
  450MOL0     C60641   4.115   4.761   7.982 -0.2233 -0.8785  0.4337
  450MOL0     C60642   4.179   4.653   7.924  0.4800 -0.1012 -0.2266
  450MOL0     C60643   4.199   4.647   7.787  0.0317  1.1437  0.0584
  450MOL0     C60644   4.282   4.534   7.733  0.0222  0.1856  0.9709
  450MOL0     O60645   4.247   4.409   7.773  0.7354 -0.5210  0.1578
  450MOL0     C60646   4.322   4.299   7.742 -0.6312  1.5021  0.3897
  450MOL0     C60647   4.316   4.223   7.626  0.6210  1.0876 -0.1624
  450MOL0     C60648   4.369   4.098   7.622  0.6116 -0.0686  0.5410
  450MOL0     C60649   4.440   4.038   7.731 -0.3969  0.1931  0.6062
  450MOL0     O60650   4.495   3.917   7.731  0.2958  1.1322 -0.2936
  450MOL0     C60651   4.447   3.815   7.640  0.2557  0.0372 -0.7053
  450MOL0     C60652   4.499   3.669   7.666  0.1169  0.7049  0.4873
  450MOL0     C60653   4.457   3.575   7.550 -0.5833 -0.3892 -0.2636
  450MOL0     C60654   4.483   3.431   7.571  0.7009 -0.4869  0.1305
  450MOL0     C60655   4.631   3.388   7.586 -0.0201  0.9085  0.7501
  450MOL0     C60656   4.633   3.237   7.614 -0.2721  0.1417 -0.0789
  450MOL0     C60657   4.775   3.179   7.621  1.0087 -0.1700 -0.3064
  450MOL0     C60658   4.779   3.031   7.628 -1.0018 -1.0200  0.9867
  450MOL0    Cl60659   4.730   2.950   7.482  0.5620 -0.0423 -0.0306
  450MOL0     C60660   4.438   4.113   7.844  0.5276 -0.2361 -0.9494
  450MOL0     C60661   4.391   4.243   7.850 -0.1907 -0.3499 -0.3571
  450MOL0     O60662   4.376   4.560   7.656 -0.6948  1.0140 -0.1416
  450MOL0     C60663   4.151   4.753   7.707 -0.6506 -0.4640 -0.5175
  450MOL0     C60664   4.059   4.842   7.760 -1.3037 -0.4681  0.1813
  450MOL0     N60665   3.944   5.591   8.091  0.7897  0.0243  0.5277
  450MOL0     N60666   4.013   5.644   8.185  0.3536  0.1364 -0.3240
  450MOL0     C60667   4.498   6.415   8.853 -0.2573  0.2332 -0.3221
  450MOL0     C60668   4.503   6.477   8.979  0.1275 -0.1919  0.2079
  450MOL0     C60669   4.490   6.630   9.398 -0.7945  0.5585 -0.2065
  450MOL0     C60670   4.530   6.514   9.473 -0.6727 -0.3510 -0.5663
  450MOL0     C60671   4.521   6.510   9.615 -1.1463 -1.0899 -0.9949
  450MOL0     C60672   4.503   6.637   9.691 -0.0022  0.3456 -0.0298
  450MOL0     O60673   4.489   6.628   9.826  0.8124  0.3177 -0.2868
  450MOL0     C60674   4.533   6.727   9.913  0.2155  0.3833 -0.2804
  450MOL0     C60675   4.416   6.750  10.010 -0.2284 -0.0166 -0.2338
  450MOL0     C60676   4.391   6.641  10.117  0.1240  0.1953  0.6623
  450MOL0     C60677   4.432   6.684  10.258 -0.1589  0.1383 -0.1059
  450MOL0     C60678   4.328   6.752  10.327  0.4829  0.4352 -0.6896
  450MOL0     C60679   4.227   6.785  10.384 -0.3696 -0.4317  0.2233
  450MOL0     C60680   4.474   6.750   9.618  0.8905 -1.0985 -0.6943
  450MOL0     C60681   4.469   6.746   9.476  0.2935 -0.2443 -0.0145
  450MOL0     C60682   4.439   6.872   9.406  0.1763  0.5411 -0.0051
  450MOL0     H60683   4.313   6.261   9.158 -1.5364  1.6298 -0.2461
  450MOL0     H60684   4.294   6.159   8.947  1.5551 -0.5816  1.3239
  450MOL0     H60685   4.615   6.159   8.730 -0.6120  0.7707  0.7091
  450MOL0     H60686   4.509   6.037   8.787  4.1865 -1.3175 -0.6359
  450MOL0     H60687   4.532   6.149   8.502  1.0089 -0.3145  1.1894
  450MOL0     H60688   4.382   6.076   8.548 -0.3481  3.9230 -0.0965
  450MOL0     H60689   4.474   5.862   8.585  0.6753 -0.3888  1.8510
  450MOL0     H60690   4.640   5.916   8.597  1.5526  1.3539 -1.0944
  450MOL0     H60691   4.638   5.999   8.360  3.6709 -1.6829 -0.1378
  450MOL0     H60692   4.664   5.838   8.389  2.4827  0.8638  3.8074
  450MOL0     H60693   4.392   5.967   8.318 -1.7656 -1.9740  0.3413
  450MOL0     H60694   4.489   5.900   8.201 -0.8497 -0.8418 -0.9047
  450MOL0     H60695   4.480   5.678   8.374  1.5702  1.4005 -0.0509
  450MOL0     H60696   4.337   5.758   8.443 -2.7687 -4.4392 -0.2257
  450MOL0     H60697   4.367   5.648   8.169 -0.3556 -0.6882  0.8206
  450MOL0     H60698   4.249   5.768   8.207 -0.6834 -0.4622 -0.1925
  450MOL0     H60699   4.278   5.498   8.330  2.6462  0.6593  0.2669
  450MOL0     H60700   4.166   5.624   8.395 -0.6940 -3.0710  1.2376
  450MOL0     H60701   4.174   5.371   8.091 -1.8816 -1.7736 -0.1585
  450MOL0     H60702   3.851   5.454   7.887 -0.1762 -1.5504 -0.2989
  450MOL0     H60703   4.008   5.383   7.855 -3.7858  1.9648 -4.0847
  450MOL0     H60704   3.769   5.296   8.032  0.1699  0.7955 -0.8137
  450MOL0     H60705   3.831   5.222   7.888  3.0205 -3.3381 -0.3419
  450MOL0     H60706   3.862   5.099   8.128  1.7909 -0.8043 -0.2600
  450MOL0     H60707   3.984   5.215   8.148 -0.2871 -0.1043  0.4163
  450MOL0     H60708   4.095   5.050   8.079 -1.8823  1.3048  2.1834
  450MOL0     H60709   4.081   5.115   7.919  2.9590 -1.4072  1.0732
  450MOL0     H60710   4.095   4.775   8.088 -2.5895  3.1745 -0.3273
  450MOL0     H60711   4.207   4.571   7.989 -1.0066 -1.1027 -0.7880
  450MOL0     H60712   4.256   4.262   7.544 -0.0511  0.7831  0.1741
  450MOL0     H60713   4.364   4.051   7.524 -0.3039  3.7852 -1.4512
  450MOL0     H60714   4.339   3.802   7.648  0.3625 -0.9826 -0.7735
  450MOL0     H60715   4.475   3.842   7.538  2.9395 -0.1290 -0.0926
  450MOL0     H60716   4.607   3.672   7.686 -0.2944 -0.3852  3.3192
  450MOL0     H60717   4.450   3.646   7.761 -1.2616 -0.4541 -0.4643
  450MOL0     H60718   4.350   3.592   7.533 -0.6786  0.5931  1.1479
  450MOL0     H60719   4.508   3.619   7.464 -0.5450 -2.4855 -1.3631
  450MOL0     H60720   4.435   3.373   7.491  0.5709 -1.1413  0.6664
  450MOL0     H60721   4.423   3.401   7.657  1.7689  2.1480  1.9230
  450MOL0     H60722   4.682   3.435   7.671  3.0709 -2.2325  0.8957
  450MOL0     H60723   4.685   3.403   7.492 -1.2050  0.0032 -0.1041
  450MOL0     H60724   4.572   3.209   7.700  0.8339 -1.0393  0.3578
  450MOL0     H60725   4.582   3.193   7.527  2.4972 -0.7326 -1.4007
  450MOL0     H60726   4.822   3.219   7.712 -1.4078  1.2829  0.3807
  450MOL0     H60727   4.825   3.216   7.531 -0.8338  4.1465  0.1804
  450MOL0     H60728   4.886   3.012   7.630 -0.4712  1.0331 -1.8801
  450MOL0     H60729   4.714   2.997   7.709 -2.3906 -3.5001 -1.0174
  450MOL0     H60730   4.479   4.066   7.933 -0.7093 -1.3537 -0.9469
  450MOL0     H60731   4.393   4.303   7.941 -0.3695 -3.1788  1.6446
  450MOL0     H60732   4.185   4.744   7.604 -0.1110  1.8662 -0.6025
  450MOL0     H60733   4.003   4.906   7.693 -1.1886  1.7201  2.0506
  450MOL0     H60734   4.549   6.449   8.764  1.6794 -1.3518  0.1086
  450MOL0     H60735   4.559   6.568   8.997  1.2036 -1.1165  1.7914
  450MOL0     H60736   4.551   6.419   9.425  1.9847  0.3390 -0.9184
  450MOL0     H60737   4.529   6.413   9.662  0.0315  0.4520  2.3289
  450MOL0     H60738   4.556   6.817   9.856  0.8194  1.2186  1.2389
  450MOL0     H60739   4.617   6.704   9.979  0.0909  0.0382 -0.2376
  450MOL0     H60740   4.326   6.752   9.949 -0.0771 -2.9395 -0.6658
  450MOL0     H60741   4.429   6.850  10.054  4.0848 -0.2165 -0.5913
  450MOL0     H60742   4.445   6.552  10.083 -1.4716 -0.2882 -0.7824
  450MOL0     H60743   4.288   6.602  10.119 -0.4931  1.7645  1.8333
  450MOL0     H60744   4.445   6.591  10.314 -0.8877 -0.7143 -1.2976
  450MOL0     H60745   4.524   6.741  10.267  0.5716 -0.8697 -0.8829
  450MOL0     H60746   4.139   6.827  10.428 -0.0386  1.6902 -0.9960
  450MOL0     H60747   4.432   6.834   9.673  3.2638 -1.3410  1.6982
  450MOL0     H60748   4.351   6.855   9.344  1.4850 -0.4016 -1.6986
  450MOL0     H60749   4.420   6.955   9.475  0.1587 -0.1223  0.8139
  450MOL0     H60750   4.516   6.898   9.333 -0.2288  0.4248 -0.4776
  451MOL0     O60751   8.376   9.066  10.372 -0.2426 -0.4211  0.1170
  451MOL0     C60752   8.473   9.019  10.312 -0.5606 -0.5205 -0.1129
  451MOL0     O60753   8.613   9.030  10.351  1.0756 -0.2032  0.0040
  451MOL0     C60754   8.629   9.095  10.471  0.0223  0.4203  0.3904
  451MOL0     C60755   8.617   9.236  10.479  0.6664  0.2881  0.4698
  451MOL0     C60756   8.645   9.299  10.602  0.3823 -0.5119 -0.3187
  451MOL0     C60757   8.693   9.233  10.720 -0.6044 -0.4013  0.2988
  451MOL0     O60758   8.730   9.301  10.827 -0.4747  0.2330 -0.4674
  451MOL0     C60759   8.708   9.253  10.956 -0.2283  0.1654  1.1235
  451MOL0     C60760   8.772   9.355  11.046  0.3706  0.4740  0.7266
  451MOL0     C60761   8.688   9.485  11.057 -0.1350 -1.2064  0.6502
  451MOL0     C60762   8.727   9.561  11.188 -0.1935  0.6822  0.9101
  451MOL0     C60763   8.624   9.674  11.222 -0.5333 -1.3204 -1.0095
  451MOL0     C60764   8.680   9.776  11.325 -1.3876 -0.7240 -1.1330
  451MOL0     C60765   8.600   9.908  11.330 -1.1463  0.7530 -0.6096
  451MOL0     C60766   8.639   9.999  11.213  0.3188  0.1312  0.3992
  451MOL0     N60767   8.549  10.110  11.220 -0.0749  0.0609  0.6784
  451MOL0     C60768   8.561  10.215  11.309  0.0228 -0.4943 -0.1441
  451MOL0     C60769   8.453  10.291  11.287 -0.9345 -0.3029 -0.1369
  451MOL0     C60770   8.431  10.421  11.354  0.3575 -0.1065  0.1199
  451MOL0     C60771   8.519  10.539  11.320  0.4015  0.0767  0.2387
  451MOL0     C60772   8.488  10.674  11.394  0.2715  0.5155 -0.5032
  451MOL0     C60773   8.564  10.798  11.340 -0.2298  0.0432 -0.1201
  451MOL0     O60774   8.692  10.785  11.387  0.4862  0.3571 -0.1854
  451MOL0     C60775   8.799  10.804  11.298 -0.4573 -0.3437 -1.1840
  451MOL0     C60776   8.798  10.770  11.161 -0.6064 -0.9664  1.0399
  451MOL0     C60777   8.909  10.809  11.077  0.0276  0.8957  0.1624
  451MOL0     C60778   9.025  10.873  11.130  0.1886 -0.3488  0.4619
  451MOL0     C60779   9.140  10.904  11.042 -0.9695 -0.0309  0.4993
  451MOL0     O60780   9.146  10.837  10.915  0.5165  0.4380  0.1434
  451MOL0     C60781   9.252  10.859  10.832  0.5702  0.8675  0.0553
  451MOL0     C60782   9.385  10.866  10.878 -0.3673  0.3541  0.2586
  451MOL0     C60783   9.486  10.876  10.783  0.4551 -0.0893 -0.1966
  451MOL0     C60784   9.464  10.867  10.648  0.3176 -0.2356  0.0186
  451MOL0     O60785   9.578  10.872  10.576  0.3250  0.3705  0.3847
  451MOL0     C60786   9.561  10.845  10.433 -0.0972 -0.4419  0.1463
  451MOL0     C60787   9.540  10.697  10.387  0.5628  0.4189 -0.7958
  451MOL0     C60788   9.656  10.611  10.415  0.0108 -0.9193 -0.8126
  451MOL0     C60789   9.612  10.467  10.451 -0.2033  0.1579  0.0130
  451MOL0     C60790   9.728  10.377  10.462 -0.7070 -0.6171 -0.3910
  451MOL0     C60791   9.671  10.233  10.441  0.6933 -0.0205 -0.7341
  451MOL0     C60792   9.768  10.128  10.422 -0.9612 -0.5823  0.6304
  451MOL0     C60793   9.887  10.141  10.510 -0.7107  0.1395 -0.4703
  451MOL0    Cl60794   9.999  10.015  10.490  0.5477 -0.3906 -0.2346
  451MOL0     C60795   9.336  10.844  10.600  1.9001 -0.5928 -0.6593
  451MOL0     C60796   9.228  10.837  10.692 -0.5528  0.0256 -0.6678
  451MOL0     O60797   9.227  10.979  11.090  0.4254  0.2680  0.4636
  451MOL0     C60798   9.023  10.910  11.260  0.7086  1.3187  0.0931
  451MOL0     C60799   8.915  10.880  11.348 -0.6551  0.6943  0.3855
  451MOL0     N60800   8.385  10.239  11.178 -1.4466  0.7188 -0.0409
  451MOL0     N60801   8.451  10.134  11.129  0.2202 -0.3324  0.0627
  451MOL0     C60802   8.705   9.098  10.710  0.0609 -0.1488 -0.2911
  451MOL0     C60803   8.672   9.026  10.588 -0.1270  0.1730  1.4144
  451MOL0     C60804   8.442   8.933  10.194 -0.0631  0.0838  0.0777
  451MOL0     C60805   8.538   8.915  10.096  0.8611  0.0408  0.3714
  451MOL0     C60806   8.512   8.816  10.000 -0.2751  0.7923  0.6326
  451MOL0     C60807   8.401   8.732   9.987  0.4234 -0.3467  0.3172
  451MOL0     O60808   8.403   8.640   9.891  0.1067 -0.2258 -0.5445
  451MOL0     C60809   8.297   8.538   9.879 -0.1594 -0.0044  0.7728
  451MOL0     C60810   8.358   8.402   9.899  0.0397 -0.0936 -0.6621
  451MOL0     C60811   8.257   8.286   9.922  0.0614 -1.1624 -0.5242
  451MOL0     C60812   8.140   8.272   9.820 -0.1760 -0.3200  0.1213
  451MOL0     C60813   8.183   8.236   9.683  1.2166 -0.4682  0.0633
  451MOL0     C60814   8.236   8.213   9.576  0.2434  0.2097  0.1361
  451MOL0     C60815   8.301   8.758  10.083 -0.4362  0.5265 -0.0571
  451MOL0     C60816   8.326   8.845  10.189  0.8638  0.1116  0.9530
  451MOL0     C60817   8.225   8.838  10.299 -0.3027  0.1862  0.9346
  451MOL0     H60818   8.586   9.293  10.392  1.0362 -1.2115 -0.6867
  451MOL0     H60819   8.637   9.407  10.595 -2.0379 -0.2639  3.5264
  451MOL0     H60820   8.605   9.244  10.990 -1.1486  3.7497 -0.2882
  451MOL0     H60821   8.768   9.162  10.967 -2.7632 -1.7731 -0.0487
  451MOL0     H60822   8.874   9.383  11.016 -0.7306  5.7873  0.8738
  451MOL0     H60823   8.769   9.315  11.148 -0.5301  0.4955  0.7117
  451MOL0     H60824   8.581   9.466  11.062 -1.3308  3.0534 -2.3136
  451MOL0     H60825   8.702   9.558  10.976  0.0742 -1.0902  0.7897
  451MOL0     H60826   8.736   9.492  11.273  1.4997 -1.8292 -1.1247
  451MOL0     H60827   8.823   9.607  11.165 -0.7885  0.5598 -2.2937
  451MOL0     H60828   8.603   9.729  11.129  1.5536 -0.9020 -1.2869
  451MOL0     H60829   8.526   9.642  11.258 -0.1446 -2.2474 -0.7527
  451MOL0     H60830   8.693   9.734  11.425 -1.1082  1.2776 -0.2737
  451MOL0     H60831   8.782   9.795  11.291 -1.0009  0.1260  0.4199
  451MOL0     H60832   8.625   9.970  11.417  0.4798  0.6357 -0.9618
  451MOL0     H60833   8.491   9.898  11.331 -1.2296  0.8010 -3.0937
  451MOL0     H60834   8.733  10.050  11.236 -0.0521 -0.8055  4.8918
  451MOL0     H60835   8.634   9.937  11.123 -0.5526 -2.0883  1.9031
  451MOL0     H60836   8.639  10.238  11.381 -0.6093 -0.4419  0.5397
  451MOL0     H60837   8.326  10.446  11.336 -1.0682 -2.3992  4.0746
  451MOL0     H60838   8.437  10.400  11.461 -2.7830 -2.5422 -0.0385
  451MOL0     H60839   8.624  10.510  11.330  1.0705  2.2001 -0.1997
  451MOL0     H60840   8.495  10.553  11.214  2.2222  2.4863  0.0617
  451MOL0     H60841   8.516  10.669  11.500 -0.0085 -2.0723 -0.4939
  451MOL0     H60842   8.382  10.699  11.409  0.6511  2.1390 -0.2421
  451MOL0     H60843   8.533  10.888  11.395 -0.0599 -2.0796  3.8241
  451MOL0     H60844   8.550  10.796  11.232  2.5393 -0.4920 -0.5352
  451MOL0     H60845   8.708  10.724  11.121 -1.3038 -0.0248  1.4826
  451MOL0     H60846   8.904  10.781  10.972  0.7326 -2.9740  1.0148
  451MOL0     H60847   9.405  10.853  10.984 -1.9011  1.5577  0.7433
  451MOL0     H60848   9.588  10.883  10.820  0.3840  1.0408 -0.1708
  451MOL0     H60849   9.483  10.909  10.392 -1.0984 -1.7973 -0.1423
  451MOL0     H60850   9.652  10.875  10.381 -0.0514  1.0932  1.0665
  451MOL0     H60851   9.456  10.649  10.437  0.0063 -1.5284 -3.4246
  451MOL0     H60852   9.518  10.703  10.281  0.0634 -2.6335 -0.9447
  451MOL0     H60853   9.732  10.610  10.336  1.9646  2.3295  0.8307
  451MOL0     H60854   9.702  10.655  10.505 -0.2207 -3.8319  0.8814
  451MOL0     H60855   9.557  10.438  10.361 -0.0614 -2.1102  0.6040
  451MOL0     H60856   9.555  10.472  10.544 -0.6045  0.3574 -0.2398
  451MOL0     H60857   9.766  10.387  10.564 -1.6535  1.7248 -0.2015
  451MOL0     H60858   9.806  10.404  10.389 -1.9698  4.2452 -0.2685
  451MOL0     H60859   9.622  10.208  10.535  3.2734  0.0036  0.7085
  451MOL0     H60860   9.593  10.220  10.365 -0.0313 -3.4144  0.4028
  451MOL0     H60861   9.803  10.140  10.319 -2.5586 -0.3615  0.0857
  451MOL0     H60862   9.714  10.034  10.430  0.3297 -1.1621  4.0421
  451MOL0     H60863   9.947  10.232  10.501  3.5441 -2.4889 -1.3708
  451MOL0     H60864   9.850  10.129  10.613  1.8120 -0.9814  0.3887
  451MOL0     H60865   9.313  10.848  10.494  3.1149 -0.0608 -0.9256
  451MOL0     H60866   9.127  10.817  10.657  0.9399 -2.9778 -3.8048
  451MOL0     H60867   9.093  10.980  11.304  3.1745 -1.9950  1.8755
  451MOL0     H60868   8.928  10.916  11.449  0.0824 -0.8905  0.8914
  451MOL0     H60869   8.728   9.039  10.798 -1.5535 -0.5889 -0.1394
  451MOL0     H60870   8.667   8.917  10.594  1.8049  0.0838  2.0078
  451MOL0     H60871   8.631   8.970  10.094  0.2503  1.2474  2.1862
  451MOL0     H60872   8.594   8.802   9.931  0.0438  0.5185  1.0643
  451MOL0     H60873   8.262   8.541   9.775  2.1436 -1.9851 -0.1672
  451MOL0     H60874   8.210   8.561   9.940 -0.1887  1.5541  0.1904
  451MOL0     H60875   8.433   8.406   9.979 -1.1924 -3.7022  0.8631
  451MOL0     H60876   8.413   8.374   9.809  1.9009  1.4598 -0.0752
  451MOL0     H60877   8.215   8.303  10.022  1.2219 -4.8017  0.7638
  451MOL0     H60878   8.326   8.201   9.922 -0.8355 -1.9186 -1.3399
  451MOL0     H60879   8.063   8.200   9.851  0.2167 -0.4704  0.7548
  451MOL0     H60880   8.090   8.369   9.812 -1.7792 -1.1678 -0.6313
  451MOL0     H60881   8.292   8.193   9.487  1.5146 -0.4674  1.0654
  451MOL0     H60882   8.209   8.700  10.076 -0.8006  1.1292 -0.2805
  451MOL0     H60883   8.153   8.757  10.288  1.8514 -1.6259 -0.8620
  451MOL0     H60884   8.287   8.812  10.386  1.5128 -1.8210 -0.8344
  451MOL0     H60885   8.171   8.932  10.309 -0.9481 -0.3012  2.2796
  452MOL0     O60886  10.030   9.845   9.311 -0.0918 -0.2586  0.1521
  452MOL0     C60887  10.005   9.961   9.340  0.6517  1.4396 -1.0531
  452MOL0     O60888   9.904  10.001   9.422  0.0089  0.3500 -0.2189
  452MOL0     C60889   9.825   9.896   9.478 -0.1015 -0.3994 -0.9182
  452MOL0     C60890   9.749   9.807   9.406  0.6494 -0.5128 -0.2600
  452MOL0     C60891   9.671   9.709   9.476 -0.6938  0.7501 -0.6787
  452MOL0     C60892   9.653   9.711   9.619 -0.7152 -0.5045  0.5498
  452MOL0     O60893   9.567   9.629   9.695 -1.1630  0.1416 -0.6559
  452MOL0     C60894   9.540   9.501   9.647 -0.2394 -0.0882  1.0064
  452MOL0     C60895   9.476   9.402   9.757 -0.9134 -0.4864  1.6878
  452MOL0     C60896   9.549   9.426   9.895  0.2019 -0.5616  0.6268
  452MOL0     C60897   9.501   9.318   9.982 -0.3870  0.2531 -0.7485
  452MOL0     C60898   9.553   9.323  10.133 -0.5050 -0.4421  0.1637
  452MOL0     C60899   9.497   9.207  10.220 -0.3485 -0.2147  0.6023
  452MOL0     C60900   9.545   9.201  10.374  0.4004  0.4164  0.0190
  452MOL0     C60901   9.484   9.307  10.467 -0.3824 -0.0044 -0.2356
  452MOL0     N60902   9.496   9.271  10.609  0.3231  1.2861 -1.0076
  452MOL0     C60903   9.599   9.288  10.689  0.0994  0.7778 -1.0060
  452MOL0     C60904   9.565   9.222  10.802 -0.8284  0.4726  0.2691
  452MOL0     C60905   9.663   9.183  10.913  0.8069  0.5246  0.8961
  452MOL0     C60906   9.688   9.297  11.010  1.2872 -0.3465 -0.2408
  452MOL0     C60907   9.589   9.308  11.124 -0.1096 -0.3111  0.0484
  452MOL0     C60908   9.582   9.191  11.215 -0.2119  0.2380 -0.2735
  452MOL0     O60909   9.489   9.088  11.179 -0.2724  0.0726 -0.8598
  452MOL0     C60910   9.377   9.048  11.259  0.0744 -0.4928 -0.8668
  452MOL0     C60911   9.312   8.932  11.220  0.4871 -0.3953  0.1352
  452MOL0     C60912   9.208   8.877  11.289 -0.5690  0.2881  0.0925
  452MOL0     C60913   9.172   8.935  11.410 -0.3675 -0.6815 -0.2291
  452MOL0     C60914   9.069   8.870  11.502  0.1403 -0.1956 -0.6862
  452MOL0     O60915   9.061   8.736  11.492 -0.4685  1.2444  0.2138
  452MOL0     C60916   8.972   8.657  11.553 -0.0586 -0.3667  0.6968
  452MOL0     C60917   9.025   8.558  11.635  0.7380  0.5962 -0.5040
  452MOL0     C60918   8.942   8.483  11.718 -0.1960 -0.2263 -0.3710
  452MOL0     C60919   8.801   8.503  11.709 -0.1518 -0.9341  0.7352
  452MOL0     O60920   8.702   8.445  11.782 -0.4893  1.8804 -1.0574
  452MOL0     C60921   8.719   8.322  11.861 -0.1656  0.0806 -0.3232
  452MOL0     C60922   8.754   8.199  11.777  0.8280 -0.7818  0.0511
  452MOL0     C60923   8.649   8.160  11.673 -0.4225 -0.0261  0.4639
  452MOL0     C60924   8.663   8.012  11.623  0.8873 -0.1756 -0.4253
  452MOL0     C60925   8.540   7.992  11.532 -0.9923  0.7168 -0.3586
  452MOL0     C60926   8.573   7.874  11.446 -0.4963 -1.2575 -0.5106
  452MOL0     C60927   8.459   7.870  11.336 -0.2686  0.6569 -0.3473
  452MOL0     C60928   8.317   7.851  11.380 -0.6894 -0.3269  0.0716
  452MOL0    Cl60929   8.297   7.722  11.503 -0.0310 -0.0685  0.1873
  452MOL0     C60930   8.749   8.594  11.616  0.2174 -0.9179  0.0477
  452MOL0     C60931   8.836   8.679  11.545 -0.9040  0.0772 -0.1135
  452MOL0     O60932   8.996   8.938  11.573 -0.1883  0.4755 -0.3909
  452MOL0     C60933   9.237   9.054  11.457  0.2832 -0.0619  0.4350
  452MOL0     C60934   9.344   9.107  11.385  0.1375 -0.4271  0.2395
  452MOL0     N60935   9.427   9.191  10.801  0.0603 -0.2429  0.0210
  452MOL0     N60936   9.392   9.220  10.676  0.2797 -0.5286 -0.1550
  452MOL0     C60937   9.721   9.811   9.687  0.7205  0.1243  0.0730
  452MOL0     C60938   9.805   9.900   9.614  0.6984 -0.3471  0.2432
  452MOL0     C60939  10.095  10.071   9.304  0.0061  1.0490  0.8310
  452MOL0     C60940  10.107  10.092   9.168  0.2620 -0.2072  0.3425
  452MOL0     C60941  10.187  10.196   9.122  0.6983 -0.3030  0.5960
  452MOL0     C60942  10.275  10.261   9.205  0.9976  0.6433 -0.6911
  452MOL0     O60943  10.362  10.363   9.176 -0.0013 -0.2001  0.3666
  452MOL0     C60944  10.351  10.430   9.045 -0.4185  0.0586 -0.3351
  452MOL0     C60945  10.471  10.388   8.962  0.3417 -0.6100  0.4306
  452MOL0     C60946  10.525  10.478   8.843  0.0809 -0.2652  0.4068
  452MOL0     C60947  10.410  10.507   8.750  0.5236 -0.0026  0.6147
  452MOL0     C60948  10.373  10.383   8.680  0.2810 -0.0994  0.2738
  452MOL0     C60949  10.330  10.282   8.626 -1.2604  0.5739 -0.1367
  452MOL0     C60950  10.281  10.212   9.339  0.5063 -0.0642  0.0218
  452MOL0     C60951  10.188  10.131   9.388  0.1138 -0.3552 -0.0703
  452MOL0     C60952  10.185  10.097   9.535 -0.7402 -0.6553  0.0712
  452MOL0     H60953   9.753   9.811   9.297 -0.4632  1.1388 -0.2644
  452MOL0     H60954   9.611   9.638   9.419 -0.6298 -0.1399  0.3219
  452MOL0     H60955   9.468   9.528   9.570 -1.8791 -0.3373  2.3950
  452MOL0     H60956   9.630   9.451   9.610  1.3088 -0.3539  4.6769
  452MOL0     H60957   9.482   9.302   9.714 -1.2685 -0.8584  2.4849
  452MOL0     H60958   9.367   9.412   9.765 -1.4165 -3.7775  0.5019
  452MOL0     H60959   9.526   9.527   9.932  2.3001 -0.4622  1.8135
  452MOL0     H60960   9.658   9.425   9.885  0.1586 -1.1345  0.1356
  452MOL0     H60961   9.392   9.317   9.982 -0.4094  1.5418 -0.4311
  452MOL0     H60962   9.533   9.218   9.951 -1.1548 -1.7703  3.9938
  452MOL0     H60963   9.662   9.325  10.125 -0.2178 -1.1511  2.8268
  452MOL0     H60964   9.530   9.423  10.172 -1.2296 -0.9229  1.0340
  452MOL0     H60965   9.388   9.200  10.222 -0.3912  0.5140  2.3989
  452MOL0     H60966   9.530   9.115  10.172 -0.1652 -0.0908  0.4869
  452MOL0     H60967   9.652   9.190  10.389  1.0042 -0.1816 -3.6636
  452MOL0     H60968   9.511   9.105  10.413 -1.2084  1.6463  1.8172
  452MOL0     H60969   9.534   9.403  10.451  1.8178 -0.9736  0.4877
  452MOL0     H60970   9.380   9.321  10.434  0.1637  1.7445 -1.3526
  452MOL0     H60971   9.696   9.334  10.670  1.7010 -0.7996  2.4420
  452MOL0     H60972   9.621   9.094  10.959 -0.1352  2.4022  3.9428
  452MOL0     H60973   9.762   9.149  10.881  0.9827 -2.2128  3.9054
  452MOL0     H60974   9.784   9.314  11.060  1.0256  1.1556 -0.2053
  452MOL0     H60975   9.684   9.393  10.958 -1.4006 -0.8247 -1.0359
  452MOL0     H60976   9.490   9.323  11.079 -0.7200 -2.6373  0.4928
  452MOL0     H60977   9.611   9.401  11.178 -0.6953 -1.2215  1.9268
  452MOL0     H60978   9.573   9.214  11.322 -0.0481 -1.0806  0.0400
  452MOL0     H60979   9.674   9.134  11.202 -0.5948  0.1137 -3.0112
  452MOL0     H60980   9.344   8.884  11.128  2.6156  1.2846 -0.0739
  452MOL0     H60981   9.153   8.788  11.259  1.2269 -0.6159 -0.7040
  452MOL0     H60982   9.130   8.536  11.621  0.1261 -2.1349 -1.2888
  452MOL0     H60983   8.981   8.411  11.789 -2.5498 -0.4546  0.8046
  452MOL0     H60984   8.803   8.337  11.928 -0.5342 -1.4076  0.5025
  452MOL0     H60985   8.636   8.298  11.928  0.9210  0.3649  1.1529
  452MOL0     H60986   8.841   8.231  11.720 -1.3502  2.1155 -1.9433
  452MOL0     H60987   8.782   8.113  11.839 -1.1800 -2.2484 -0.9630
  452MOL0     H60988   8.550   8.166  11.720 -1.2952  0.7276 -1.3476
  452MOL0     H60989   8.652   8.232  11.591 -0.4340  2.6204  2.6594
  452MOL0     H60990   8.660   7.946  11.710  0.4894  0.5370  0.1220
  452MOL0     H60991   8.752   8.010  11.561  0.8913 -4.5797 -0.5742
  452MOL0     H60992   8.515   8.078  11.469 -2.6347 -0.5868 -1.5729
  452MOL0     H60993   8.457   7.959  11.595 -0.6086 -0.8202 -0.6109
  452MOL0     H60994   8.667   7.898  11.395 -0.3278  2.7256  1.2994
  452MOL0     H60995   8.580   7.778  11.499 -0.4402 -0.8409  0.2558
  452MOL0     H60996   8.473   7.776  11.280 -1.2556 -0.5988  1.4105
  452MOL0     H60997   8.475   7.957  11.272 -0.2505  0.1095 -1.1046
  452MOL0     H60998   8.268   7.949  11.388 -3.1406 -1.4862  0.1456
  452MOL0     H60999   8.266   7.811  11.292  0.6442 -2.8118  0.3624
  452MOL0     H61000   8.641   8.596  11.613  0.0824 -2.9849  1.4725
  452MOL0     H61001   8.790   8.762  11.493 -0.5270 -0.3192 -1.1081
  452MOL0     H61002   9.210   9.091  11.555 -0.4417  1.0260 -0.1599
  452MOL0     H61003   9.392   9.197  11.420 -3.8636  2.4417 -0.9081
  452MOL0     H61004   9.712   9.809   9.796  0.4732  1.3093  0.0836
  452MOL0     H61005   9.865   9.974   9.666  1.5309  1.7378 -3.3012
  452MOL0     H61006  10.045  10.036   9.099  2.5723 -1.0364 -1.1843
  452MOL0     H61007  10.179  10.212   9.015 -0.7069 -0.9776  0.5782
  452MOL0     H61008  10.342  10.537   9.063 -0.0666 -0.3478  3.0316
  452MOL0     H61009  10.262  10.393   8.992 -0.7209 -0.2359  0.3553
  452MOL0     H61010  10.450  10.291   8.916 -3.0871  0.2111 -0.0057
  452MOL0     H61011  10.552  10.383   9.036 -0.4621 -0.8356  1.3161
  452MOL0     H61012  10.616  10.447   8.791  1.1935  0.3195  1.9240
  452MOL0     H61013  10.555  10.569   8.894  0.1159  0.8272 -1.4829
  452MOL0     H61014  10.321  10.546   8.803 -0.3328 -0.9644 -0.0867
  452MOL0     H61015  10.439  10.577   8.671  0.6431 -0.8918 -0.1462
  452MOL0     H61016  10.304  10.184   8.591 -0.9011 -0.1611  1.5605
  452MOL0     H61017  10.353  10.259   9.404 -1.1244 -0.1059  1.9436
  452MOL0     H61018  10.266  10.145   9.589 -1.7637  2.6136 -1.0610
  452MOL0     H61019  10.091  10.129   9.582 -3.2723 -0.3265 -4.5358
  452MOL0     H61020  10.197   9.989   9.550  1.2579 -0.6914 -1.3458
  453MOL0     O61021  10.384   0.862   7.463 -0.1116  0.1766 -0.6141
  453MOL0     C61022  10.310   0.770   7.456  0.5609  0.0634 -0.1662
  453MOL0     O61023  10.281   0.674   7.557 -0.6193  0.3258  0.6811
  453MOL0     C61024  10.314   0.687   7.686 -0.1624 -0.0964  0.4116
  453MOL0     C61025  10.240   0.602   7.775  0.2071 -0.6052 -0.4063
  453MOL0     C61026  10.264   0.597   7.914  0.1635 -0.9335 -0.0541
  453MOL0     C61027  10.372   0.665   7.970  1.1888 -0.6848 -0.5994
  453MOL0     O61028  10.405   0.632   8.097 -0.5524  0.0899 -0.1395
  453MOL0     C61029  10.543   0.660   8.138  0.2758 -0.6629  0.7163
  453MOL0     C61030  10.598   0.569   8.250 -0.1282 -0.2434 -0.3936
  453MOL0     C61031  10.494   0.554   8.359  0.1786  0.3142 -0.4037
  453MOL0     C61032  10.525   0.428   8.435  0.7499  0.9851  0.9949
  453MOL0     C61033  10.436   0.409   8.555  0.1415  0.6041 -0.5847
  453MOL0     C61034  10.471   0.273   8.629 -1.0246 -0.9327  0.2601
  453MOL0     C61035  10.402   0.266   8.767 -0.7226  0.6810 -0.8278
  453MOL0     C61036  10.418   0.120   8.830  0.8904  0.0298  0.9543
  453MOL0     N61037  10.554   0.087   8.862  0.1233 -0.4312 -0.0562
  453MOL0     C61038  10.658   0.041   8.773 -0.9238  0.0035 -0.0782
  453MOL0     C61039  10.770   0.032   8.853  0.1488  0.8093 -0.3372
  453MOL0     C61040  10.907  -0.016   8.813 -0.3718 -0.4532 -0.2928
  453MOL0     C61041  11.019   0.043   8.901  0.6126  1.3753 -0.4866
  453MOL0     C61042  11.051   0.184   8.875  0.9943 -0.2875 -0.6691
  453MOL0     C61043  11.170   0.225   8.958  0.2190  0.4219  0.0716
  453MOL0     O61044  11.155   0.181   9.091  0.0087  0.6346  1.2094
  453MOL0     C61045  11.266   0.201   9.175 -0.0291  0.6181  0.8952
  453MOL0     C61046  11.298   0.105   9.265  0.6524  0.5790  0.1049
  453MOL0     C61047  11.395   0.120   9.363 -0.6543 -0.1445 -0.3859
  453MOL0     C61048  11.473   0.234   9.366 -0.4015 -1.3364 -0.7946
  453MOL0     C61049  11.592   0.240   9.463  0.6781  0.1445 -0.0109
  453MOL0     O61050  11.694   0.320   9.441 -1.0950  0.6167  0.0491
  453MOL0     C61051  11.809   0.316   9.520 -0.8605  0.8307 -0.7691
  453MOL0     C61052  11.938   0.296   9.470  0.1057  0.0136 -0.0512
  453MOL0     C61053  12.053   0.309   9.557 -0.1864  0.3374  0.7290
  453MOL0     C61054  12.029   0.327   9.694  0.4322  0.7148 -0.6007
  453MOL0     O61055  12.136   0.325   9.780 -0.1938  0.4163  0.0253
  453MOL0     C61056  12.219   0.440   9.791  0.1922 -0.0361  0.1162
  453MOL0     C61057  12.361   0.411   9.745 -0.4302 -0.0917 -0.0508
  453MOL0     C61058  12.419   0.276   9.789 -0.9045 -0.0532  0.5493
  453MOL0     C61059  12.562   0.250   9.737 -0.8409 -0.7477 -0.3227
  453MOL0     C61060  12.667   0.338   9.817  0.2621 -1.0553  0.8060
  453MOL0     C61061  12.808   0.280   9.786 -1.4862 -0.2558 -0.8771
  453MOL0     C61062  12.910   0.361   9.863  0.5949 -0.3649  0.4653
  453MOL0     C61063  13.052   0.295   9.844  0.5154 -0.7578 -0.6990
  453MOL0    Cl61064  13.121   0.332   9.687  0.0874 -0.2736 -0.5510
  453MOL0     C61065  11.897   0.351   9.740  0.5005 -0.2567  1.0856
  453MOL0     C61066  11.795   0.353   9.650  0.3171 -0.7821  0.7977
  453MOL0     O61067  11.598   0.136   9.532 -0.1310  0.0475  0.6060
  453MOL0     C61068  11.447   0.341   9.273  0.6276  0.1479 -0.4257
  453MOL0     C61069  11.332   0.325   9.186  0.5362 -0.6357  0.9872
  453MOL0     N61070  10.735   0.076   8.982  0.1206  0.0452 -0.2927
  453MOL0     N61071  10.608   0.105   8.989 -0.2520  0.2199 -0.0516
  453MOL0     C61072  10.441   0.756   7.887  0.1911  0.4664  0.2368
  453MOL0     C61073  10.409   0.771   7.753 -0.5006  0.0791  0.9788
  453MOL0     C61074  10.227   0.755   7.335  0.8698  0.2070  0.6437
  453MOL0     C61075  10.195   0.623   7.305  0.2863 -0.1432  0.1026
  453MOL0     C61076  10.147   0.593   7.181  0.0377 -0.2481  0.0629
  453MOL0     C61077  10.112   0.687   7.083 -0.5171 -0.1076 -0.1325
  453MOL0     O61078  10.061   0.653   6.962  0.0744 -0.0491 -0.2489
  453MOL0     C61079  10.024   0.519   6.934  0.9616  0.1750 -0.1798
  453MOL0     C61080   9.982   0.494   6.782  0.0893  1.4709 -0.6330
  453MOL0     C61081  10.083   0.507   6.673  0.9708  0.7075  0.2463
  453MOL0     C61082  10.028   0.447   6.541  0.1589 -0.5426 -0.6837
  453MOL0     C61083   9.917   0.525   6.476  0.0797 -0.0606  0.5341
  453MOL0     C61084   9.832   0.594   6.425  0.0047 -0.1723  1.1549
  453MOL0     C61085  10.136   0.824   7.111  0.2446 -0.5375  0.5848
  453MOL0     C61086  10.184   0.865   7.238 -0.2135  0.9006  0.1903
  453MOL0     C61087  10.168   1.011   7.282 -0.7904 -1.0940  0.7853
  453MOL0     H61088  10.161   0.539   7.735 -0.8882  0.1662  0.4786
  453MOL0     H61089  10.203   0.534   7.978 -0.3420 -3.1144 -2.4901
  453MOL0     H61090  10.610   0.657   8.051 -1.1521  0.4533 -0.4725
  453MOL0     H61091  10.552   0.765   8.166  2.6646 -0.1899 -1.4251
  453MOL0     H61092  10.687   0.604   8.302  1.3156  1.0780 -3.5252
  453MOL0     H61093  10.635   0.476   8.205  1.8647  0.5938 -0.5741
  453MOL0     H61094  10.388   0.545   8.333 -1.1137 -1.0214  4.2887
  453MOL0     H61095  10.507   0.648   8.413  1.7092 -0.3208  0.3981
  453MOL0     H61096  10.522   0.337   8.375 -0.5697  0.9570  1.0696
  453MOL0     H61097  10.624   0.437   8.481  0.2946  2.1462  1.7891
  453MOL0     H61098  10.457   0.490   8.626  2.7504 -1.5620  1.3328
  453MOL0     H61099  10.333   0.407   8.520 -1.4338 -0.3941  3.4876
  453MOL0     H61100  10.432   0.194   8.563 -2.0122 -0.9182  0.8245
  453MOL0     H61101  10.581   0.268   8.630 -0.9224 -0.5960 -2.3885
  453MOL0     H61102  10.296   0.285   8.747 -1.0355  1.8793  1.5897
  453MOL0     H61103  10.438   0.331   8.847  2.5384 -2.5163  0.6194
  453MOL0     H61104  10.360   0.124   8.922 -3.2967  2.7863 -1.4576
  453MOL0     H61105  10.378   0.041   8.766  1.9503 -0.6039  1.0551
  453MOL0     H61106  10.644   0.021   8.667 -1.2439  1.1276 -0.2638
  453MOL0     H61107  10.914  -0.124   8.826 -2.6973 -0.5587  0.4678
  453MOL0     H61108  10.929   0.003   8.707 -0.5607 -1.8202 -0.5931
  453MOL0     H61109  10.993   0.025   9.006  2.5166  1.5396  0.0544
  453MOL0     H61110  11.113  -0.013   8.897  0.4091  0.9918 -0.0068
  453MOL0     H61111  10.966   0.251   8.894 -1.4174 -3.0066 -1.2702
  453MOL0     H61112  11.070   0.189   8.767  1.2578  0.7386 -0.5901
  453MOL0     H61113  11.176   0.334   8.952 -0.7096  0.5224  0.6639
  453MOL0     H61114  11.260   0.183   8.913  0.1105  0.6475 -0.3581
  453MOL0     H61115  11.240   0.014   9.268  0.0528  0.9788  0.8541
  453MOL0     H61116  11.408   0.043   9.438  2.3660  2.0799  1.6648
  453MOL0     H61117  11.953   0.284   9.363  0.5254  0.0463  0.0026
  453MOL0     H61118  12.154   0.289   9.525 -0.3820  2.6794 -1.6791
  453MOL0     H61119  12.184   0.529   9.739 -0.4822 -0.8887 -0.9376
  453MOL0     H61120  12.219   0.471   9.896 -1.0351 -1.3144  0.5277
  453MOL0     H61121  12.365   0.399   9.636  1.8313  0.1153 -0.0443
  453MOL0     H61122  12.417   0.504   9.746  0.4047 -0.5504 -1.2618
  453MOL0     H61123  12.424   0.280   9.898 -3.6169  3.2317  0.7177
  453MOL0     H61124  12.349   0.197   9.763 -1.7143  0.9300 -0.3663
  453MOL0     H61125  12.561   0.280   9.632  1.4426 -0.6675 -0.3669
  453MOL0     H61126  12.600   0.148   9.749  3.3918  0.6225 -0.4197
  453MOL0     H61127  12.639   0.330   9.923 -1.2781  0.6758  0.5849
  453MOL0     H61128  12.664   0.441   9.781  3.7363 -0.0758  2.8943
  453MOL0     H61129  12.817   0.180   9.830 -1.0096 -0.3832 -1.2450
  453MOL0     H61130  12.826   0.269   9.678 -1.1132  0.6857 -0.9186
  453MOL0     H61131  12.878   0.363   9.967 -0.3070  0.4372  0.1828
  453MOL0     H61132  12.922   0.462   9.823  1.7107 -0.0583  1.5039
  453MOL0     H61133  13.115   0.329   9.927  0.8311 -0.0283 -1.2228
  453MOL0     H61134  13.031   0.188   9.853 -0.5481 -0.4333  1.3317
  453MOL0     H61135  11.887   0.363   9.848  0.6029 -2.6683  1.4177
  453MOL0     H61136  11.700   0.374   9.699 -0.1174 -0.7941 -0.0194
  453MOL0     H61137  11.528   0.412   9.259  1.2913 -0.7955 -1.4939
  453MOL0     H61138  11.294   0.409   9.129  1.4986 -0.9839 -0.2023
  453MOL0     H61139  10.520   0.808   7.941  0.5324 -1.5247  1.7723
  453MOL0     H61140  10.467   0.842   7.695 -1.6664  0.6544  0.5031
  453MOL0     H61141  10.224   0.538   7.366 -0.2120 -0.2525  0.1871
  453MOL0     H61142  10.131   0.486   7.177  2.1638 -0.6559  1.0078
  453MOL0     H61143   9.942   0.494   7.002  0.6649  0.4464 -0.4320
  453MOL0     H61144  10.100   0.448   6.966 -0.6546 -1.0342  1.1974
  453MOL0     H61145   9.902   0.564   6.757 -1.3879 -0.7987 -2.7595
  453MOL0     H61146   9.955   0.388   6.770 -4.1072  2.2749  0.2458
  453MOL0     H61147  10.167   0.442   6.698  0.9958 -0.7909 -3.1888
  453MOL0     H61148  10.118   0.609   6.657 -0.2526  1.0252 -0.5507
  453MOL0     H61149  10.114   0.460   6.475  2.6885 -0.8804  2.3491
  453MOL0     H61150  10.002   0.341   6.546  1.1039 -0.7111  1.5356
  453MOL0     H61151   9.762   0.664   6.385 -0.2287 -0.7003  0.6330
  453MOL0     H61152  10.114   0.896   7.033 -1.7212 -4.3581 -2.7576
  453MOL0     H61153  10.181   1.019   7.390 -2.1967 -2.2437  1.0789
  453MOL0     H61154  10.236   1.075   7.225 -1.8226 -0.5107  0.1722
  453MOL0     H61155  10.068   1.049   7.259 -0.5181  0.5189  2.0930
  454MOL0     O61156   4.832   1.081   4.321 -0.2793  0.7458  0.1124
  454MOL0     C61157   4.751   1.029   4.248  0.4196 -0.2676  0.4477
  454MOL0     O61158   4.764   1.033   4.111 -0.0285  0.4257 -0.1662
  454MOL0     C61159   4.885   1.059   4.045  0.8731 -0.4212 -0.6411
  454MOL0     C61160   4.955   1.184   4.055 -0.3386 -1.3187  0.2021
  454MOL0     C61161   5.071   1.209   3.983  0.4293  1.4864  0.9746
  454MOL0     C61162   5.111   1.106   3.899 -0.4422 -0.5724 -1.2987
  454MOL0     O61163   5.213   1.133   3.814  0.4111  0.3641 -0.4268
  454MOL0     C61164   5.256   1.038   3.720  0.0341 -0.8138  0.6428
  454MOL0     C61165   5.383   1.074   3.635  0.7560 -0.8175  0.4591
  454MOL0     C61166   5.348   1.152   3.510 -0.8249  0.6323  0.8577
  454MOL0     C61167   5.470   1.206   3.443 -0.8565  0.4225  0.6133
  454MOL0     C61168   5.565   1.094   3.391  0.6180  0.9506  0.6485
  454MOL0     C61169   5.668   1.149   3.295 -0.2110  0.9350 -0.1088
  454MOL0     C61170   5.806   1.068   3.304 -0.1167 -0.1781 -0.6272
  454MOL0     C61171   5.808   0.916   3.324  0.1049  0.5957 -0.3017
  454MOL0     N61172   5.921   0.869   3.405 -0.2115 -1.5274 -0.6008
  454MOL0     C61173   6.047   0.935   3.411 -0.5225 -0.0321  0.2009
  454MOL0     C61174   6.121   0.864   3.503 -0.6375  0.3045  0.1102
  454MOL0     C61175   6.262   0.901   3.535 -0.5947  0.3189  0.2576
  454MOL0     C61176   6.269   1.027   3.631 -1.6395 -0.9267 -0.3638
  454MOL0     C61177   6.377   1.127   3.574  0.3528 -0.0347 -0.4103
  454MOL0     C61178   6.386   1.267   3.647 -0.0972  0.4384 -0.0123
  454MOL0     O61179   6.470   1.356   3.572  0.1665 -0.0767  0.6095
  454MOL0     C61180   6.607   1.343   3.564 -0.4478  0.8695 -0.6036
  454MOL0     C61181   6.666   1.422   3.467 -0.2101 -0.3167  0.6491
  454MOL0     C61182   6.808   1.409   3.444 -0.2345 -0.4640 -0.3820
  454MOL0     C61183   6.882   1.308   3.513  0.1659 -0.1039 -0.0087
  454MOL0     C61184   7.020   1.271   3.481 -0.2022  0.4457 -0.3446
  454MOL0     O61185   7.060   1.147   3.518  0.0521 -1.0890  0.2122
  454MOL0     C61186   7.192   1.114   3.518 -0.1818 -0.7308  0.3522
  454MOL0     C61187   7.291   1.148   3.426 -0.7213  0.1797 -0.1848
  454MOL0     C61188   7.426   1.091   3.421 -0.0090 -0.0742 -1.2979
  454MOL0     C61189   7.449   0.994   3.528  0.0961 -0.3440  0.6546
  454MOL0     O61190   7.577   0.941   3.549  0.3094 -0.6460 -0.2283
  454MOL0     C61191   7.688   1.001   3.484 -0.2076 -0.9639  0.4228
  454MOL0     C61192   7.798   0.914   3.523 -1.0306 -0.2387 -0.4700
  454MOL0     C61193   7.927   0.986   3.519  0.7947  0.2328 -0.5548
  454MOL0     C61194   8.033   0.879   3.494 -0.2684  0.0413 -0.4005
  454MOL0     C61195   8.066   0.799   3.618 -0.4831  0.2883 -0.4915
  454MOL0     C61196   8.149   0.669   3.580  0.0694 -0.0954  0.5759
  454MOL0     C61197   8.287   0.712   3.533 -0.6368 -1.8607 -0.2656
  454MOL0     C61198   8.386   0.779   3.644 -0.8841 -0.3091  1.0936
  454MOL0    Cl61199   8.544   0.796   3.567 -0.3467 -0.2807  0.2421
  454MOL0     C61200   7.347   0.966   3.624  0.4145 -0.4835  0.3224
  454MOL0     C61201   7.227   1.030   3.624  0.2208 -0.1128 -0.4878
  454MOL0     O61202   7.090   1.349   3.423  0.4749  0.0550 -0.0378
  454MOL0     C61203   6.817   1.238   3.616  0.6772 -0.5010 -0.1751
  454MOL0     C61204   6.685   1.259   3.648  0.6253 -0.0355  0.0201
  454MOL0     N61205   6.030   0.775   3.564 -0.1401  0.3077 -0.8646
  454MOL0     N61206   5.922   0.770   3.500 -0.7551 -0.2613  0.0974
  454MOL0     C61207   5.046   0.982   3.895  0.4132 -0.5072 -0.2863
  454MOL0     C61208   4.931   0.968   3.964 -1.0355 -0.3411 -0.0847
  454MOL0     C61209   4.624   0.969   4.291  0.4738 -0.2429 -0.7532
  454MOL0     C61210   4.546   0.912   4.189  0.1380  0.2284 -0.0185
  454MOL0     C61211   4.428   0.849   4.216  0.0176 -0.2557 -0.3560
  454MOL0     C61212   4.377   0.830   4.345 -1.3452  0.2695  0.0400
  454MOL0     O61213   4.250   0.775   4.354  0.4380  0.7443  0.4190
  454MOL0     C61214   4.231   0.668   4.444  0.4853  1.0313 -0.0394
  454MOL0     C61215   4.098   0.592   4.411  0.1734 -0.2911  0.5640
  454MOL0     C61216   4.102   0.542   4.269  0.6822 -0.3831  0.2244
  454MOL0     C61217   4.002   0.433   4.232  0.5590  0.4438  1.2587
  454MOL0     C61218   3.872   0.508   4.194 -1.7523  0.6920 -0.4081
  454MOL0     C61219   3.782   0.586   4.171 -1.4214  0.3603  0.3459
  454MOL0     C61220   4.446   0.897   4.443  0.8307 -0.2532  0.1800
  454MOL0     C61221   4.568   0.960   4.423 -0.9857 -0.2289 -0.2746
  454MOL0     C61222   4.638   1.019   4.538  0.0300  0.2122  0.1175
  454MOL0     H61223   4.912   1.261   4.118  1.1035  0.7048 -1.1934
  454MOL0     H61224   5.137   1.296   3.992 -0.1247  1.8855  1.2399
  454MOL0     H61225   5.281   0.945   3.772 -2.5935 -1.2450  1.2655
  454MOL0     H61226   5.168   1.004   3.665 -0.1327 -0.2310  0.5462
  454MOL0     H61227   5.438   0.982   3.612  1.6823  0.0795 -1.0541
  454MOL0     H61228   5.448   1.137   3.696 -0.3011  4.9152 -3.5955
  454MOL0     H61229   5.281   1.237   3.526  0.5072  2.1689 -1.1127
  454MOL0     H61230   5.308   1.079   3.439  1.7099  2.0356 -2.3175
  454MOL0     H61231   5.445   1.267   3.356  0.7636 -2.8758 -2.4130
  454MOL0     H61232   5.523   1.264   3.520 -1.2482 -2.2733  3.1232
  454MOL0     H61233   5.598   1.046   3.484 -1.6487 -1.5101  0.2734
  454MOL0     H61234   5.512   1.022   3.328  1.2801  2.5715 -1.8961
  454MOL0     H61235   5.623   1.149   3.196 -1.5350  1.3276  0.4630
  454MOL0     H61236   5.684   1.255   3.318 -0.1017  0.2489  3.5969
  454MOL0     H61237   5.866   1.130   3.371 -2.4111  0.6044  0.8263
  454MOL0     H61238   5.859   1.074   3.209 -2.9307 -0.9014 -2.3588
  454MOL0     H61239   5.712   0.884   3.367 -2.4774  5.8859 -1.3785
  454MOL0     H61240   5.819   0.874   3.223  3.4709  1.9052 -0.6112
  454MOL0     H61241   6.063   1.019   3.343 -1.5999 -2.8047 -3.8780
  454MOL0     H61242   6.320   0.818   3.576 -0.4989  0.6300  0.7603
  454MOL0     H61243   6.304   0.918   3.436  0.3049 -1.4681  0.2883
  454MOL0     H61244   6.177   1.082   3.653 -0.7828  1.1105 -1.5478
  454MOL0     H61245   6.316   0.987   3.721  0.8408 -2.6039 -2.2526
  454MOL0     H61246   6.347   1.150   3.472 -1.0574  0.1372  0.0248
  454MOL0     H61247   6.477   1.083   3.568  0.2715 -0.1520 -0.9465
  454MOL0     H61248   6.424   1.263   3.749  0.2311  2.2134 -0.0231
  454MOL0     H61249   6.282   1.299   3.660  0.4189  2.3497 -0.3031
  454MOL0     H61250   6.611   1.498   3.413 -0.6556  1.0987  2.9284
  454MOL0     H61251   6.862   1.478   3.380 -1.1384 -1.0199 -1.7995
  454MOL0     H61252   7.263   1.231   3.362 -2.4299 -0.2179  0.0082
  454MOL0     H61253   7.493   1.124   3.342  1.8637  0.3071  0.3759
  454MOL0     H61254   7.676   1.004   3.376  1.1970 -0.8817  0.2517
  454MOL0     H61255   7.701   1.099   3.530 -1.2831 -0.7328  0.2595
  454MOL0     H61256   7.791   0.878   3.626  1.1021 -3.7169 -1.3663
  454MOL0     H61257   7.795   0.832   3.450 -0.9645 -0.0003 -0.7438
  454MOL0     H61258   7.919   1.057   3.436  0.7270  1.8472  0.7641
  454MOL0     H61259   7.950   1.045   3.609 -1.6656 -0.8207  0.8762
  454MOL0     H61260   8.118   0.934   3.452 -1.3962 -0.5880 -3.7874
  454MOL0     H61261   7.998   0.823   3.407 -0.7292 -0.7271  0.2699
  454MOL0     H61262   7.973   0.785   3.674  1.1384 -0.1599  2.2448
  454MOL0     H61263   8.129   0.848   3.692  1.8949 -2.1527 -0.7393
  454MOL0     H61264   8.153   0.608   3.670 -0.0598  0.0286  0.6651
  454MOL0     H61265   8.099   0.611   3.502 -1.8542 -0.9452  2.3610
  454MOL0     H61266   8.279   0.791   3.457 -0.8964 -0.6655  0.9689
  454MOL0     H61267   8.353   0.635   3.492 -0.1016  0.3484 -4.0658
  454MOL0     H61268   8.348   0.878   3.671  1.2026  0.5481  1.0157
  454MOL0     H61269   8.389   0.719   3.736  0.7535 -1.6715  0.2150
  454MOL0     H61270   7.380   0.904   3.707  0.6345 -3.2344 -1.6959
  454MOL0     H61271   7.154   1.014   3.702  0.6449 -2.7580 -0.5479
  454MOL0     H61272   6.870   1.157   3.665 -0.4456 -1.5218 -0.5920
  454MOL0     H61273   6.640   1.217   3.737  1.1038  1.1544  0.8500
  454MOL0     H61274   5.070   0.898   3.830  0.0229 -1.6151  0.9664
  454MOL0     H61275   4.873   0.878   3.945  0.5579 -1.8724  1.9257
  454MOL0     H61276   4.567   0.913   4.082 -1.3542 -0.0095 -0.3285
  454MOL0     H61277   4.368   0.816   4.131 -0.3962  0.1456 -0.2226
  454MOL0     H61278   4.231   0.709   4.546 -2.1774 -2.4196  1.5825
  454MOL0     H61279   4.298   0.584   4.428 -0.5272 -0.3174  2.2749
  454MOL0     H61280   4.012   0.653   4.438  2.1053  2.8042  0.1983
  454MOL0     H61281   4.109   0.510   4.483  0.0360 -0.7337  0.0869
  454MOL0     H61282   4.196   0.496   4.236 -0.6714 -2.7895 -0.5158
  454MOL0     H61283   4.077   0.629   4.208 -2.2876 -0.6374  0.9513
  454MOL0     H61284   4.026   0.383   4.138 -4.8869  0.1071 -0.3019
  454MOL0     H61285   3.994   0.345   4.298  2.2296  0.7997  1.9765
  454MOL0     H61286   3.695   0.648   4.169 -1.5904  0.1982 -3.2787
  454MOL0     H61287   4.397   0.885   4.539 -1.4665  0.8081 -0.7756
  454MOL0     H61288   4.578   0.988   4.625  0.8105 -1.8452 -0.0201
  454MOL0     H61289   4.734   0.966   4.541  0.4141  0.8014 -1.1708
  454MOL0     H61290   4.652   1.127   4.532  3.0389  0.2772  4.0697
  455MOL0     O61291   7.479   0.363   1.639 -1.0503 -0.2311  0.3437
  455MOL0     C61292   7.405   0.290   1.579  0.3808 -0.0472  0.9801
  455MOL0     O61293   7.448   0.195   1.492  0.4266  0.3067  0.2856
  455MOL0     C61294   7.579   0.170   1.461 -0.2680 -0.2816  0.5541
  455MOL0     C61295   7.618   0.161   1.323  1.0596 -0.5610 -0.2587
  455MOL0     C61296   7.747   0.139   1.292 -0.7421 -0.2855 -0.0341
  455MOL0     C61297   7.846   0.113   1.394  0.2413 -0.6204 -0.1320
  455MOL0     O61298   7.972   0.095   1.367 -0.2891 -0.5414 -0.0342
  455MOL0     C61299   8.062   0.194   1.417 -0.4895  1.1697 -0.1210
  455MOL0     C61300   8.203   0.145   1.430 -0.2575  0.2535 -0.1137
  455MOL0     C61301   8.285   0.274   1.466 -0.0798 -0.0737  0.3831
  455MOL0     C61302   8.245   0.357   1.589  1.0204  0.4131 -0.3890
  455MOL0     C61303   8.354   0.457   1.624  0.1416  0.1465 -0.6898
  455MOL0     C61304   8.419   0.536   1.507 -0.2175  0.0299 -0.0561
  455MOL0     C61305   8.511   0.655   1.558 -0.1970 -0.3767 -0.0968
  455MOL0     C61306   8.434   0.765   1.642 -0.2514 -0.3566  0.4351
  455MOL0     N61307   8.312   0.812   1.574  0.8300 -0.0378  0.1979
  455MOL0     C61308   8.199   0.869   1.641 -0.5816 -0.9929 -0.6679
  455MOL0     C61309   8.135   0.949   1.546 -1.3095 -0.2373  0.5409
  455MOL0     C61310   8.029   1.049   1.562  0.1732  0.0306 -0.6621
  455MOL0     C61311   8.058   1.199   1.518  0.1371 -0.5159  0.4775
  455MOL0     C61312   7.983   1.301   1.610 -0.4118  0.3540  0.8501
  455MOL0     C61313   8.000   1.441   1.549  0.1342  0.0706  0.3827
  455MOL0     O61314   8.119   1.503   1.593 -0.6404 -0.0444 -0.2943
  455MOL0     C61315   8.173   1.627   1.547 -0.9702  0.2486  0.0016
  455MOL0     C61316   8.265   1.679   1.638 -0.4774 -0.0436  0.3841
  455MOL0     C61317   8.333   1.800   1.596  0.1760 -1.1500  0.2235
  455MOL0     C61318   8.296   1.862   1.477 -0.3977 -0.3940  0.5256
  455MOL0     C61319   8.356   1.994   1.442 -0.4860  0.2304 -0.2694
  455MOL0     O61320   8.373   2.003   1.302 -0.3053 -0.2563  0.2461
  455MOL0     C61321   8.389   2.137   1.261 -0.2929  1.1433 -1.2790
  455MOL0     C61322   8.521   2.191   1.259  0.3766  0.4758  0.3366
  455MOL0     C61323   8.536   2.319   1.209 -0.6120 -0.1072 -0.0409
  455MOL0     C61324   8.437   2.406   1.184  0.9404 -0.7194 -0.3311
  455MOL0     O61325   8.475   2.536   1.168 -0.0678 -0.3974 -0.0755
  455MOL0     C61326   8.387   2.642   1.215 -0.3170  0.3280  0.9182
  455MOL0     C61327   8.452   2.776   1.187 -0.2639  0.0827  1.1730
  455MOL0     C61328   8.585   2.792   1.271 -1.6349 -0.4252  0.1472
  455MOL0     C61329   8.647   2.932   1.248  0.8582 -0.7879  0.2618
  455MOL0     C61330   8.791   2.957   1.294 -0.9690 -1.0214 -1.4458
  455MOL0     C61331   8.792   2.951   1.444 -0.8103 -0.3783 -0.1685
  455MOL0     C61332   8.926   3.000   1.509  1.2318  0.8800 -0.7753
  455MOL0     C61333   8.942   3.143   1.506  0.2689 -0.0941 -0.0280
  455MOL0    Cl61334   9.105   3.190   1.564  0.1783 -0.6509  0.2739
  455MOL0     C61335   8.310   2.360   1.197  0.5747  0.3515 -0.4256
  455MOL0     C61336   8.282   2.229   1.241 -0.3639  0.0783  0.6026
  455MOL0     O61337   8.391   2.088   1.525  0.0561  0.0185  0.4196
  455MOL0     C61338   8.191   1.806   1.396  0.8740 -0.0042  0.2742
  455MOL0     C61339   8.131   1.688   1.433 -0.9206 -0.4899  0.2305
  455MOL0     N61340   8.202   0.926   1.428 -0.1313 -0.1838 -0.0507
  455MOL0     N61341   8.308   0.854   1.447 -0.7401 -0.3883  0.8503
  455MOL0     C61342   7.812   0.123   1.528  0.2296 -1.3758  0.5982
  455MOL0     C61343   7.681   0.147   1.558  0.0802 -1.0196 -0.1756
  455MOL0     C61344   7.263   0.311   1.603 -0.4656 -0.7978  0.2654
  455MOL0     C61345   7.182   0.190   1.618 -0.6541  0.5636  0.8518
  455MOL0     C61346   7.040   0.191   1.642  0.1647  0.8668  0.1432
  455MOL0     C61347   6.976   0.313   1.654  0.1020 -1.0701 -0.2851
  455MOL0     O61348   6.851   0.324   1.702 -0.0098 -0.1057 -0.5232
  455MOL0     C61349   6.765   0.407   1.623 -0.4541 -0.8335  0.1435
  455MOL0     C61350   6.625   0.417   1.689 -0.7882 -0.3432 -0.2188
  455MOL0     C61351   6.547   0.286   1.705  0.3372 -0.6692 -0.4867
  455MOL0     C61352   6.406   0.308   1.758 -0.2958  0.1829 -0.1447
  455MOL0     C61353   6.347   0.177   1.788 -1.2603 -0.4151 -0.0455
  455MOL0     C61354   6.313   0.064   1.816 -0.7465 -0.5267  0.8697
  455MOL0     C61355   7.060   0.431   1.641 -0.1228  0.7641 -0.5481
  455MOL0     C61356   7.196   0.432   1.624 -0.4257 -0.3989  0.6170
  455MOL0     C61357   7.266   0.572   1.611  0.1122  0.9733  0.2288
  455MOL0     H61358   7.544   0.177   1.246  0.8101  0.0426  0.0949
  455MOL0     H61359   7.782   0.119   1.191 -0.3951 -0.8203  0.1857
  455MOL0     H61360   8.076   0.274   1.344  2.2645 -1.5570 -2.8394
  455MOL0     H61361   8.036   0.241   1.512  2.0255  4.6356 -0.9589
  455MOL0     H61362   8.256   0.106   1.343 -0.5089 -0.9032  0.2410
  455MOL0     H61363   8.209   0.066   1.506 -1.5604  0.5674  0.3360
  455MOL0     H61364   8.289   0.335   1.375 -0.1094 -2.4612 -1.3179
  455MOL0     H61365   8.385   0.232   1.480 -1.0055 -2.6664 -0.2592
  455MOL0     H61366   8.153   0.411   1.567  0.2510 -1.4893 -2.2498
  455MOL0     H61367   8.223   0.299   1.679  0.3753  1.9739  0.4940
  455MOL0     H61368   8.312   0.538   1.686 -2.2040 -0.6442 -1.1497
  455MOL0     H61369   8.435   0.409   1.680 -1.1886 -0.7317  0.5396
  455MOL0     H61370   8.494   0.466   1.468  0.9774  1.0629  0.3363
  455MOL0     H61371   8.340   0.565   1.437 -0.2149 -1.2720 -0.6457
  455MOL0     H61372   8.572   0.700   1.479 -0.4094  1.0672  0.5411
  455MOL0     H61373   8.586   0.615   1.626  2.1625  0.7127 -1.8986
  455MOL0     H61374   8.412   0.724   1.740  1.1949  0.4843  1.1358
  455MOL0     H61375   8.515   0.836   1.658  0.5427 -1.1077 -0.1244
  455MOL0     H61376   8.168   0.856   1.744 -1.6958 -2.8540 -1.1832
  455MOL0     H61377   7.932   1.009   1.529 -0.8542  1.1933  0.8198
  455MOL0     H61378   8.020   1.044   1.671 -1.7054 -0.6338 -0.8026
  455MOL0     H61379   8.167   1.212   1.530  0.6325 -1.8723 -1.9537
  455MOL0     H61380   8.026   1.229   1.418 -1.1488  1.2659  1.3575
  455MOL0     H61381   8.007   1.292   1.717  3.1840 -3.5543  0.0209
  455MOL0     H61382   7.878   1.278   1.593  0.4271 -0.3889 -6.0295
  455MOL0     H61383   7.915   1.508   1.568  2.3698  2.3275  3.3566
  455MOL0     H61384   8.004   1.426   1.441  1.6203  1.3793  0.2274
  455MOL0     H61385   8.286   1.633   1.734  2.0386  0.9163  0.3726
  455MOL0     H61386   8.413   1.835   1.660 -0.3550 -0.8618  0.7385
  455MOL0     H61387   8.603   2.124   1.284 -0.3629 -0.5459  0.0802
  455MOL0     H61388   8.641   2.336   1.189 -0.5287  0.0942  0.5486
  455MOL0     H61389   8.288   2.644   1.169 -0.9956  1.7525  2.3693
  455MOL0     H61390   8.361   2.628   1.320 -1.2170  0.3267  0.6983
  455MOL0     H61391   8.464   2.787   1.079 -1.3807  2.8479  1.2298
  455MOL0     H61392   8.392   2.858   1.228  0.9260  0.0323  3.1387
  455MOL0     H61393   8.564   2.796   1.378  4.2057  1.9269  1.6225
  455MOL0     H61394   8.666   2.722   1.247 -0.0457  2.1573 -2.8583
  455MOL0     H61395   8.584   3.014   1.281  1.2506  1.1749 -3.3183
  455MOL0     H61396   8.656   2.947   1.140  0.7640 -0.1806  0.3374
  455MOL0     H61397   8.821   3.058   1.263  0.5370 -1.5460 -1.7910
  455MOL0     H61398   8.865   2.887   1.256 -1.3865 -1.5538 -1.2808
  455MOL0     H61399   8.712   3.015   1.484  0.8441  0.4658  1.9825
  455MOL0     H61400   8.779   2.850   1.483 -1.0770  0.2371  1.4303
  455MOL0     H61401   9.016   2.954   1.466  0.7462 -0.6665 -0.1839
  455MOL0     H61402   8.912   2.968   1.612 -2.2728 -0.4733 -1.5403
  455MOL0     H61403   8.937   3.182   1.404 -0.5348  1.8428  0.6953
  455MOL0     H61404   8.866   3.178   1.577  1.3270  0.2130  0.9881
  455MOL0     H61405   8.227   2.426   1.175  0.0458  0.5022  1.8416
  455MOL0     H61406   8.180   2.192   1.238 -0.0080 -0.8843  0.2445
  455MOL0     H61407   8.164   1.857   1.304  1.8782  3.3973  1.6948
  455MOL0     H61408   8.057   1.635   1.373  0.6703 -2.2937 -0.2523
  455MOL0     H61409   7.885   0.109   1.607  0.8231  1.8366  0.7464
  455MOL0     H61410   7.657   0.142   1.663  1.0416  0.0244  0.1069
  455MOL0     H61411   7.207   0.085   1.613 -0.4060  0.6517  0.2342
  455MOL0     H61412   6.980   0.100   1.648  1.0432  0.0270 -2.2863
  455MOL0     H61413   6.751   0.358   1.526  0.6724 -1.1825  0.1553
  455MOL0     H61414   6.804   0.509   1.616  0.5658 -1.0772  1.8879
  455MOL0     H61415   6.568   0.487   1.628 -2.3849 -0.0197  1.5449
  455MOL0     H61416   6.640   0.468   1.785 -1.5780  0.5583 -0.5515
  455MOL0     H61417   6.595   0.221   1.779  1.0060  3.2352  2.8714
  455MOL0     H61418   6.550   0.241   1.605  0.0679  0.1604 -0.8739
  455MOL0     H61419   6.404   0.371   1.848 -2.4917  2.2482 -1.5231
  455MOL0     H61420   6.343   0.350   1.680  1.8644 -0.9019 -2.6119
  455MOL0     H61421   6.280  -0.036   1.837 -0.4141 -0.7838  0.2128
  455MOL0     H61422   7.014   0.525   1.668  0.9647  1.2562 -0.3522
  455MOL0     H61423   7.326   0.565   1.519  1.1354 -0.8086  0.9734
  455MOL0     H61424   7.188   0.647   1.600 -2.1206 -1.2967 -0.4810
  455MOL0     H61425   7.337   0.597   1.690  3.6614 -0.0318 -2.3516
  456MOL0     O61426   1.722   5.620   2.051 -0.1206 -0.2762  0.0449
  456MOL0     C61427   1.803   5.700   2.109  0.0499 -0.1506 -0.5881
  456MOL0     O61428   1.851   5.689   2.242  0.5864 -0.0882 -0.4636
  456MOL0     C61429   1.787   5.604   2.327 -0.2007 -0.4240 -0.0380
  456MOL0     C61430   1.693   5.662   2.410 -0.1934  0.1292  0.1162
  456MOL0     C61431   1.614   5.588   2.492 -0.0408  0.2760 -0.6452
  456MOL0     C61432   1.622   5.448   2.499 -0.6034  0.8630 -0.1138
  456MOL0     O61433   1.550   5.368   2.584  0.1051  0.3608 -0.4980
  456MOL0     C61434   1.504   5.422   2.700 -0.2670  0.7412 -0.6080
  456MOL0     C61435   1.403   5.319   2.768 -0.7825  0.0504  0.3794
  456MOL0     C61436   1.298   5.285   2.667  0.9333 -0.0493  0.5616
  456MOL0     C61437   1.168   5.244   2.738 -0.6392 -0.6094  1.2951
  456MOL0     C61438   1.046   5.246   2.647 -0.7675  0.6733  0.2770
  456MOL0     C61439   1.075   5.190   2.510 -0.6418  0.1193 -0.2665
  456MOL0     C61440   0.964   5.132   2.435  0.3214 -0.7542 -0.1384
  456MOL0     C61441   1.006   5.099   2.294  0.5824  0.5655  0.2615
  456MOL0     N61442   0.908   5.009   2.242 -0.0344  0.0955  0.4522
  456MOL0     C61443   0.913   4.878   2.262  0.3033 -0.3453 -1.2909
  456MOL0     C61444   0.835   4.819   2.172 -0.4662 -0.0351  0.1677
  456MOL0     C61445   0.808   4.681   2.145 -0.6826 -0.5647  0.1519
  456MOL0     C61446   0.789   4.594   2.270  0.2017  0.1780  0.0948
  456MOL0     C61447   0.741   4.458   2.234  0.2149  0.7123  0.1030
  456MOL0     C61448   0.645   4.408   2.335 -0.1166  1.0110  0.3594
  456MOL0     O61449   0.527   4.497   2.335 -0.1930  0.1188  0.7508
  456MOL0     C61450   0.431   4.465   2.429 -0.8721  0.8565 -0.1887
  456MOL0     C61451   0.315   4.556   2.446  0.2879  0.1717 -0.1007
  456MOL0     C61452   0.213   4.527   2.535  1.2125  0.6161  0.1054
  456MOL0     C61453   0.209   4.413   2.617  0.1415 -0.3599  0.3071
  456MOL0     C61454   0.099   4.397   2.712 -0.2415 -0.6173  0.1524
  456MOL0     O61455   0.001   4.494   2.716 -0.0580  0.7800 -0.2253
  456MOL0     C61456  -0.084   4.513   2.824 -0.8206  0.5559 -0.5615
  456MOL0     C61457  -0.040   4.491   2.961 -1.1712 -0.6576 -0.1964
  456MOL0     C61458  -0.117   4.552   3.062 -0.7211  0.9383  0.2757
  456MOL0     C61459  -0.238   4.621   3.040 -0.2230  0.0640 -0.1446
  456MOL0     O61460  -0.304   4.664   3.144  0.5566 -0.0636  0.8253
  456MOL0     C61461  -0.445   4.716   3.118 -0.1033  0.7963 -0.0203
  456MOL0     C61462  -0.557   4.617   3.139 -0.7120 -0.2179 -0.0986
  456MOL0     C61463  -0.698   4.662   3.103  0.4478 -0.6520 -0.3047
  456MOL0     C61464  -0.763   4.778   3.186  1.0658  0.4573 -0.1357
  456MOL0     C61465  -0.886   4.827   3.108  0.5415  0.7522 -0.3714
  456MOL0     C61466  -0.995   4.912   3.182 -0.4126 -0.2568 -0.1544
  456MOL0     C61467  -1.090   4.825   3.272 -0.5127 -0.0564  0.6646
  456MOL0     C61468  -1.170   4.903   3.373  0.3704  0.6236 -0.2717
  456MOL0    Cl61469  -1.216   5.061   3.306  0.9683 -0.1663  0.6188
  456MOL0     C61470  -0.282   4.635   2.901 -0.1689  1.2466 -0.2963
  456MOL0     C61471  -0.209   4.578   2.795  1.1535 -0.1753 -0.5387
  456MOL0     O61472   0.113   4.307   2.798 -0.1486 -0.0717  0.7502
  456MOL0     C61473   0.322   4.325   2.601  0.0591  0.7782 -0.2839
  456MOL0     C61474   0.426   4.349   2.503  0.4301  0.5380 -0.2041
  456MOL0     N61475   0.774   4.917   2.100  0.0481  0.0563  0.4762
  456MOL0     N61476   0.816   5.033   2.146  1.0459 -0.6858 -0.7216
  456MOL0     C61477   1.717   5.389   2.412 -0.1769  0.2941  0.3686
  456MOL0     C61478   1.799   5.463   2.324  0.2327 -1.0387  0.5330
  456MOL0     C61479   1.877   5.803   2.022  0.2200 -0.4717 -0.8300
  456MOL0     C61480   1.984   5.867   2.079 -0.3210  0.2809 -0.1406
  456MOL0     C61481   2.061   5.974   2.024  0.9083  0.6887  0.7779
  456MOL0     C61482   2.026   6.008   1.892  0.0741 -0.3309 -0.6901
  456MOL0     O61483   2.097   6.107   1.819 -0.0968  0.8496 -0.6587
  456MOL0     C61484   2.203   6.187   1.864 -0.1987 -0.7597  0.3104
  456MOL0     C61485   2.263   6.255   1.739  0.5240  0.5717 -0.3879
  456MOL0     C61486   2.385   6.322   1.776  0.1171 -0.2681  0.0682
  456MOL0     C61487   2.450   6.365   1.645 -0.7025  0.2555  0.1936
  456MOL0     C61488   2.418   6.508   1.618 -0.0037 -0.5797 -0.0494
  456MOL0     C61489   2.394   6.627   1.637 -1.6117  0.1939 -0.0029
  456MOL0     C61490   1.919   5.946   1.826  0.0405  0.2744 -0.9492
  456MOL0     C61491   1.839   5.848   1.892 -1.0514 -0.1574  0.7452
  456MOL0     C61492   1.721   5.796   1.819 -0.4740  0.6263 -0.0001
  456MOL0     H61493   1.680   5.770   2.422  1.3225  0.2152  1.4447
  456MOL0     H61494   1.541   5.653   2.538  0.9117  0.4302  0.7081
  456MOL0     H61495   1.587   5.450   2.765 -0.3241  1.8709 -1.0041
  456MOL0     H61496   1.453   5.518   2.689  0.4969  0.9904 -2.1279
  456MOL0     H61497   1.370   5.374   2.857 -2.8873  2.4776 -1.7077
  456MOL0     H61498   1.452   5.227   2.800  0.4003  1.5114  3.1661
  456MOL0     H61499   1.326   5.193   2.616 -0.4078 -0.9987  1.4818
  456MOL0     H61500   1.285   5.376   2.607  1.1809  2.3033  3.8223
  456MOL0     H61501   1.175   5.145   2.785 -2.8943 -1.4548  0.0255
  456MOL0     H61502   1.153   5.325   2.809 -0.9215  0.5190 -0.0175
  456MOL0     H61503   0.958   5.193   2.685 -0.0439  1.3269  3.1224
  456MOL0     H61504   1.026   5.349   2.620 -2.6941 -0.1876 -1.8911
  456MOL0     H61505   1.129   5.262   2.448 -1.3160  1.4570  0.6592
  456MOL0     H61506   1.139   5.103   2.528 -0.3393  0.4119  0.0772
  456MOL0     H61507   0.876   5.197   2.433  1.9766  1.5789 -0.1858
  456MOL0     H61508   0.933   5.043   2.491 -0.4537 -1.1161 -1.1102
  456MOL0     H61509   1.030   5.193   2.245  3.5003 -0.3313 -0.2722
  456MOL0     H61510   1.101   5.043   2.295  0.9624  1.2057  0.6623
  456MOL0     H61511   0.973   4.833   2.340 -2.2808  0.9039  1.6261
  456MOL0     H61512   0.716   4.676   2.084  1.0116  0.7087 -2.7285
  456MOL0     H61513   0.884   4.637   2.081  0.7319  0.7541  0.8635
  456MOL0     H61514   0.883   4.591   2.325  2.5339  0.2333 -3.5839
  456MOL0     H61515   0.713   4.642   2.334  0.6447  0.7826  0.1735
  456MOL0     H61516   0.829   4.394   2.231 -0.9400 -1.1639  2.3770
  456MOL0     H61517   0.679   4.459   2.144 -0.0311  1.9447  0.2753
  456MOL0     H61518   0.686   4.407   2.436 -1.1842 -3.0165  0.9213
  456MOL0     H61519   0.628   4.303   2.308  0.1308  0.8196  0.9464
  456MOL0     H61520   0.324   4.646   2.386 -0.2964  0.9681  0.9738
  456MOL0     H61521   0.145   4.608   2.559  1.7413  0.3767  2.7175
  456MOL0     H61522   0.057   4.447   2.983 -1.4788 -0.6025  1.4124
  456MOL0     H61523  -0.074   4.541   3.161  3.5208 -0.8561 -1.5169
  456MOL0     H61524  -0.468   4.794   3.191 -0.7494 -0.2312  0.9164
  456MOL0     H61525  -0.456   4.758   3.018 -0.4053 -3.2127 -1.8490
  456MOL0     H61526  -0.530   4.526   3.084 -0.3850  0.5172 -1.1887
  456MOL0     H61527  -0.562   4.587   3.244 -1.0461 -5.2170 -1.2665
  456MOL0     H61528  -0.698   4.688   2.997 -2.8216 -2.4447 -0.8861
  456MOL0     H61529  -0.755   4.569   3.095  2.5174 -1.8483 -2.8484
  456MOL0     H61530  -0.691   4.859   3.198  0.0333  1.0237  3.5451
  456MOL0     H61531  -0.792   4.751   3.288 -0.6136  3.0570  0.1678
  456MOL0     H61532  -0.931   4.737   3.065  0.5609  0.7214 -0.3282
  456MOL0     H61533  -0.856   4.890   3.024  2.6831 -3.0751 -2.7543
  456MOL0     H61534  -0.938   4.985   3.241 -0.9347  1.2016 -1.3919
  456MOL0     H61535  -1.042   4.972   3.104 -0.4115  1.4974  1.1315
  456MOL0     H61536  -1.031   4.745   3.318  1.1583  0.0598 -1.1572
  456MOL0     H61537  -1.149   4.775   3.195  2.3862 -3.6846  0.5450
  456MOL0     H61538  -1.262   4.849   3.396  0.4008 -0.1132 -1.7668
  456MOL0     H61539  -1.114   4.920   3.466  0.5331 -1.0500 -0.0353
  456MOL0     H61540  -0.370   4.685   2.862 -2.0465 -1.2406  0.4927
  456MOL0     H61541  -0.250   4.589   2.695  0.7878  1.5779 -0.2421
  456MOL0     H61542   0.307   4.232   2.656  0.7174 -0.7587 -2.5316
  456MOL0     H61543   0.497   4.267   2.496 -0.8443 -0.7142  0.8280
  456MOL0     H61544   1.722   5.281   2.407 -1.5320  0.2446 -0.6653
  456MOL0     H61545   1.865   5.408   2.257 -2.6960 -3.6975 -0.4182
  456MOL0     H61546   2.019   5.839   2.178  1.5277 -4.8686 -1.9250
  456MOL0     H61547   2.143   6.021   2.077 -0.2953  1.6005  1.9088
  456MOL0     H61548   2.272   6.124   1.921 -0.5859 -2.0488 -0.6168
  456MOL0     H61549   2.159   6.269   1.923  1.0481  1.0584 -1.1513
  456MOL0     H61550   2.202   6.328   1.686 -1.2665  0.0878  0.9152
  456MOL0     H61551   2.280   6.178   1.664 -0.5822 -0.4941  0.4048
  456MOL0     H61552   2.444   6.241   1.819  0.2198  0.0677  0.5673
  456MOL0     H61553   2.351   6.406   1.838 -0.8171 -1.3832  1.1221
  456MOL0     H61554   2.559   6.359   1.647 -0.7706 -1.3689 -0.2924
  456MOL0     H61555   2.413   6.299   1.567 -3.5895 -0.9127  2.3645
  456MOL0     H61556   2.376   6.729   1.662  0.3871  1.2385 -2.4528
  456MOL0     H61557   1.903   5.991   1.729  0.7542  1.5389 -0.4964
  456MOL0     H61558   1.637   5.779   1.887  0.6999 -1.4673  1.0562
  456MOL0     H61559   1.688   5.865   1.741 -1.3465 -0.9937 -1.1341
  456MOL0     H61560   1.738   5.695   1.779  1.2710 -0.2981  2.7708
  457MOL0     O61561   4.960   5.892   0.172  0.5050  0.0414  1.1008
  457MOL0     C61562   4.968   5.985   0.249  0.7333  0.1074  0.0573
  457MOL0     O61563   4.908   5.988   0.369  0.1103 -0.2744  0.0785
  457MOL0     C61564   4.836   5.875   0.433 -0.2167  0.3200  0.3049
  457MOL0     C61565   4.825   5.891   0.574 -0.4168 -0.1356  0.2486
  457MOL0     C61566   4.756   5.801   0.654  0.2866 -0.2139 -1.1029
  457MOL0     C61567   4.684   5.696   0.596  0.3166  0.7118 -0.3170
  457MOL0     O61568   4.618   5.607   0.687 -0.1210  0.7544 -0.1130
  457MOL0     C61569   4.502   5.531   0.630  1.5545  0.8015 -0.8076
  457MOL0     C61570   4.407   5.514   0.750  0.5269 -0.3713  0.5251
  457MOL0     C61571   4.272   5.468   0.696 -0.8792  0.6129 -1.0750
  457MOL0     C61572   4.272   5.316   0.655 -0.3167  0.0183  0.0216
  457MOL0     C61573   4.142   5.270   0.599 -0.0694 -0.5462  0.1715
  457MOL0     C61574   4.127   5.302   0.445 -0.1391 -0.5005 -0.0580
  457MOL0     C61575   3.987   5.257   0.397  0.3629 -0.1727  0.6801
  457MOL0     C61576   3.986   5.269   0.247 -0.5904 -0.6413  0.7088
  457MOL0     N61577   3.851   5.258   0.190 -0.2736 -0.2188 -0.5913
  457MOL0     C61578   3.777   5.142   0.169 -1.2100 -0.3983  0.0219
  457MOL0     C61579   3.663   5.176   0.102  0.1025 -0.9527 -0.3136
  457MOL0     C61580   3.570   5.083   0.041  0.3210  0.4027 -0.1974
  457MOL0     C61581   3.468   5.035   0.143 -0.0698 -0.6432  0.0968
  457MOL0     C61582   3.349   4.972   0.076 -0.0287  0.2179  0.2807
  457MOL0     C61583   3.383   4.852  -0.019 -0.9663  0.6132 -0.3389
  457MOL0     O61584   3.441   4.738   0.060 -0.4458  0.4710 -0.2283
  457MOL0     C61585   3.555   4.673   0.014  0.0303 -0.0461 -0.0719
  457MOL0     C61586   3.650   4.713  -0.081  0.4341 -0.5678 -0.1618
  457MOL0     C61587   3.762   4.633  -0.113  0.0738  0.4692 -0.0448
  457MOL0     C61588   3.790   4.509  -0.048  0.3844 -0.4223 -0.0820
  457MOL0     C61589   3.905   4.425  -0.071  0.2878 -0.6531 -0.2507
  457MOL0     O61590   3.876   4.290  -0.082  0.4218  0.4322  0.0465
  457MOL0     C61591   3.967   4.192  -0.119  0.5965  0.4837  0.3638
  457MOL0     C61592   3.925   4.081  -0.196 -0.1379  0.7470  1.4451
  457MOL0     C61593   4.014   3.985  -0.234  0.0318 -0.2129  0.4692
  457MOL0     C61594   4.139   3.979  -0.191 -0.7637  0.7259  0.5195
  457MOL0     O61595   4.224   3.884  -0.239  0.1745  0.7683  0.2497
  457MOL0     C61596   4.190   3.761  -0.168  0.1494  0.3746  0.5610
  457MOL0     C61597   4.269   3.643  -0.223 -0.3878  0.1338  0.5066
  457MOL0     C61598   4.417   3.636  -0.193  0.1398  0.8637 -0.3409
  457MOL0     C61599   4.509   3.708  -0.287 -0.3095  0.8793  0.1571
  457MOL0     C61600   4.491   3.694  -0.440 -0.3085 -0.7550  0.1325
  457MOL0     C61601   4.611   3.763  -0.514  0.2303  0.0890  0.1781
  457MOL0     C61602   4.584   3.897  -0.586  0.2389  0.3401 -0.4768
  457MOL0     C61603   4.712   3.982  -0.632  0.7135  1.0363  0.5073
  457MOL0    Cl61604   4.826   3.897  -0.751  0.4302 -0.3961 -0.1320
  457MOL0     C61605   4.180   4.083  -0.107 -1.1574  0.0375  0.0317
  457MOL0     C61606   4.101   4.197  -0.072 -0.6070  0.2249  0.2097
  457MOL0     O61607   3.997   4.486  -0.127 -0.3977 -0.0134 -0.0949
  457MOL0     C61608   3.694   4.476   0.051  0.0203  0.0013 -0.4573
  457MOL0     C61609   3.586   4.552   0.080  0.7718  0.6981  0.0620
  457MOL0     N61610   3.666   5.317   0.087  0.4030  0.4312 -0.8556
  457MOL0     N61611   3.777   5.359   0.141 -0.5596  0.6103 -1.0349
  457MOL0     C61612   4.699   5.674   0.460  0.4861  0.2632 -0.4672
  457MOL0     C61613   4.773   5.760   0.373 -1.0217  0.1090  0.3937
  457MOL0     C61614   5.025   6.113   0.200  0.6701  0.1620  0.1421
  457MOL0     C61615   5.156   6.113   0.146  0.3391  0.2970 -0.5284
  457MOL0     C61616   5.215   6.239   0.126 -0.5922  0.4606  0.1873
  457MOL0     C61617   5.159   6.360   0.163  0.4328 -0.0951  1.1220
  457MOL0     O61618   5.211   6.487   0.157 -0.1599 -0.2541 -0.9063
  457MOL0     C61619   5.225   6.540   0.024  0.8199  0.4164 -0.2472
  457MOL0     C61620   5.369   6.572   0.008  0.0352 -0.2433  0.1042
  457MOL0     C61621   5.412   6.615  -0.122 -0.1091 -0.3314  0.1849
  457MOL0     C61622   5.415   6.510  -0.228  0.5619 -0.3822 -0.3952
  457MOL0     C61623   5.294   6.530  -0.319  0.2917 -0.5368  0.7725
  457MOL0     C61624   5.187   6.536  -0.378 -0.4482  0.4595  0.8427
  457MOL0     C61625   5.027   6.357   0.198 -0.0555  0.5633 -1.0334
  457MOL0     C61626   4.952   6.237   0.222  0.8448 -0.8012 -0.3828
  457MOL0     C61627   4.804   6.246   0.270 -0.4747 -0.1435 -0.6301
  457MOL0     H61628   4.878   5.976   0.614  0.7191  0.0295 -1.5027
  457MOL0     H61629   4.753   5.828   0.759 -2.6892 -0.6662 -0.9854
  457MOL0     H61630   4.463   5.591   0.548  1.9522  0.7616 -1.0292
  457MOL0     H61631   4.521   5.435   0.582 -1.5474  0.1799 -0.9829
  457MOL0     H61632   4.395   5.606   0.808 -0.3305 -0.0925 -0.0767
  457MOL0     H61633   4.454   5.437   0.814  0.5905 -0.5659  0.2457
  457MOL0     H61634   4.223   5.534   0.624 -0.3711  1.3009 -0.7960
  457MOL0     H61635   4.214   5.462   0.789 -1.2883  4.7776 -0.8711
  457MOL0     H61636   4.353   5.299   0.584  0.8310  0.5678  1.1615
  457MOL0     H61637   4.300   5.265   0.748 -3.2808  1.5503  1.9051
  457MOL0     H61638   4.124   5.164   0.618 -0.7025 -0.4115  0.3364
  457MOL0     H61639   4.059   5.319   0.651 -2.4556 -0.9975 -2.9501
  457MOL0     H61640   4.140   5.409   0.426 -0.9157 -0.4833 -0.5380
  457MOL0     H61641   4.205   5.249   0.390  0.2739 -0.0249  0.0563
  457MOL0     H61642   3.919   5.325   0.448  0.1475 -1.0365  1.5760
  457MOL0     H61643   3.956   5.158   0.432  1.2089 -0.5451  0.4060
  457MOL0     H61644   4.015   5.371   0.225  0.9683 -1.5180 -1.6745
  457MOL0     H61645   4.061   5.208   0.196  1.1377  0.4011  1.8883
  457MOL0     H61646   3.809   5.040   0.190  0.1736 -0.1503 -0.7449
  457MOL0     H61647   3.525   5.133  -0.046  1.5741 -2.3666 -2.6110
  457MOL0     H61648   3.627   5.007  -0.013  0.6312  0.7582 -0.3774
  457MOL0     H61649   3.513   4.966   0.214  0.3768  0.3530  0.8063
  457MOL0     H61650   3.432   5.125   0.194 -1.4036  0.8372 -3.1687
  457MOL0     H61651   3.293   5.046   0.019  1.0114  0.4513 -0.4665
  457MOL0     H61652   3.285   4.926   0.153  0.0455  0.9854  0.8120
  457MOL0     H61653   3.454   4.879  -0.098 -1.5877  1.4758 -0.6054
  457MOL0     H61654   3.295   4.810  -0.066  0.2172 -0.0888 -2.0205
  457MOL0     H61655   3.655   4.815  -0.116  0.4408  0.2025  1.9168
  457MOL0     H61656   3.842   4.658  -0.182  1.4167  1.0784  1.6509
  457MOL0     H61657   3.823   4.083  -0.234  1.3077 -0.2657 -3.1879
  457MOL0     H61658   3.983   3.910  -0.306 -0.7620  0.9167 -0.3878
  457MOL0     H61659   4.210   3.778  -0.062  3.3408 -2.5606  0.5942
  457MOL0     H61660   4.083   3.740  -0.172  0.6608 -2.8858  1.4568
  457MOL0     H61661   4.223   3.561  -0.168 -1.2977  0.4187  0.1798
  457MOL0     H61662   4.257   3.629  -0.331 -0.4130 -1.1955  0.6572
  457MOL0     H61663   4.438   3.666  -0.089 -0.6330  1.9669 -0.4867
  457MOL0     H61664   4.444   3.531  -0.201 -1.0458  0.4982  0.2141
  457MOL0     H61665   4.608   3.663  -0.274 -2.3151 -4.3602  0.0433
  457MOL0     H61666   4.507   3.814  -0.260  1.6573  1.0676 -0.2839
  457MOL0     H61667   4.405   3.752  -0.472 -0.4935  0.2980  2.3584
  457MOL0     H61668   4.482   3.588  -0.468 -1.4448 -1.0219  1.3911
  457MOL0     H61669   4.681   3.789  -0.434 -1.0692  1.4548  0.9079
  457MOL0     H61670   4.667   3.690  -0.574  1.0244 -0.1668  1.2086
  457MOL0     H61671   4.531   3.954  -0.508 -1.2943 -1.5151 -0.0955
  457MOL0     H61672   4.515   3.889  -0.671 -0.6821 -2.3800  0.4089
  457MOL0     H61673   4.666   4.056  -0.699 -0.6074 -0.4834 -0.3563
  457MOL0     H61674   4.763   4.032  -0.550 -1.8147  2.5320  1.3040
  457MOL0     H61675   4.286   4.090  -0.085 -0.5225 -1.4470 -2.1748
  457MOL0     H61676   4.143   4.270  -0.003 -1.7312 -0.7158  1.9588
  457MOL0     H61677   3.719   4.386   0.106 -2.7885 -0.2429  0.5933
  457MOL0     H61678   3.516   4.527   0.159 -3.3497  0.3033 -3.3537
  457MOL0     H61679   4.656   5.585   0.415  0.0116 -1.3022  2.8252
  457MOL0     H61680   4.798   5.730   0.272 -0.1798  1.1623  0.2672
  457MOL0     H61681   5.219   6.027   0.127 -0.1936 -0.5715  1.3519
  457MOL0     H61682   5.316   6.237   0.087 -0.4947 -0.0356  0.4524
  457MOL0     H61683   5.150   6.615  -0.003  0.4014  1.5358  3.4907
  457MOL0     H61684   5.191   6.459  -0.041  2.2706  0.4343 -1.0538
  457MOL0     H61685   5.440   6.494   0.037 -0.6156 -0.1973  2.0178
  457MOL0     H61686   5.387   6.659   0.073  0.3517 -0.8661  0.8702
  457MOL0     H61687   5.510   6.663  -0.112 -1.1931  2.2590 -0.7875
  457MOL0     H61688   5.347   6.694  -0.159  0.7795  0.2665 -0.1279
  457MOL0     H61689   5.506   6.523  -0.288 -0.0963  1.9076 -1.0254
  457MOL0     H61690   5.427   6.408  -0.193 -0.0024 -0.5446 -0.6559
  457MOL0     H61691   5.092   6.545  -0.425 -2.0424  0.2373  3.7588
  457MOL0     H61692   4.981   6.450   0.232 -0.3757  0.7387 -1.9125
  457MOL0     H61693   4.751   6.171   0.209  2.4354  0.3290 -4.0374
  457MOL0     H61694   4.788   6.248   0.378 -1.0744  0.5448 -0.7242
  457MOL0     H61695   4.765   6.335   0.219  1.8941  1.7492  0.7058
  458MOL0     O61696   3.066   0.788   9.363  0.1402 -0.4160  1.3076
  458MOL0     C61697   3.130   0.891   9.390  0.9289 -0.3665  0.3334
  458MOL0     O61698   3.199   0.965   9.302  0.4997 -0.5177  0.6138
  458MOL0     C61699   3.186   0.944   9.169  0.1463 -0.6385  0.6858
  458MOL0     C61700   3.068   0.949   9.100 -0.1943 -0.7511 -0.0368
  458MOL0     C61701   3.067   0.930   8.956  0.7768  0.6459 -0.7530
  458MOL0     C61702   3.190   0.905   8.883  1.0181  0.6554 -0.5928
  458MOL0     O61703   3.189   0.895   8.744  0.2655 -0.1400  0.0266
  458MOL0     C61704   3.310   0.839   8.686 -0.9946  0.7152  0.0652
  458MOL0     C61705   3.269   0.789   8.550  0.0843  0.0899 -0.0611
  458MOL0     C61706   3.363   0.684   8.494  0.1329  0.6886 -0.0935
  458MOL0     C61707   3.336   0.672   8.342  0.0333  0.0121  0.0466
  458MOL0     C61708   3.434   0.564   8.283 -0.3065  0.2925 -0.2876
  458MOL0     C61709   3.367   0.505   8.150  0.5315  0.2071  0.7115
  458MOL0     C61710   3.372   0.353   8.143  0.5157 -0.7650 -0.0143
  458MOL0     C61711   3.503   0.295   8.128 -0.6694 -0.1575  0.2193
  458MOL0     N61712   3.601   0.359   8.034 -0.4752  0.3857 -0.0900
  458MOL0     C61713   3.592   0.364   7.897  0.1666  0.5104  0.0158
  458MOL0     C61714   3.719   0.388   7.855  0.5858 -0.2435 -0.7101
  458MOL0     C61715   3.759   0.391   7.709  0.8131 -0.4080  0.5467
  458MOL0     C61716   3.905   0.360   7.686  0.5064 -0.4071 -0.0459
  458MOL0     C61717   3.977   0.421   7.565 -0.1143 -0.1847 -0.8245
  458MOL0     C61718   4.124   0.384   7.572  0.4464 -0.6223  0.2791
  458MOL0     O61719   4.200   0.490   7.649  0.1858 -0.4836 -0.5094
  458MOL0     C61720   4.319   0.446   7.688 -0.0479  0.9975  0.1386
  458MOL0     C61721   4.385   0.522   7.787 -0.3836  1.0686  0.0919
  458MOL0     C61722   4.507   0.486   7.830 -0.3560 -0.8484  0.6690
  458MOL0     C61723   4.575   0.371   7.783 -0.0205  0.0320 -1.3723
  458MOL0     C61724   4.702   0.319   7.841 -0.5534 -0.1967  0.3342
  458MOL0     O61725   4.768   0.398   7.928  0.4668 -0.2690  0.1531
  458MOL0     C61726   4.882   0.353   8.001  0.7764 -0.1319  0.3783
  458MOL0     C61727   5.012   0.347   7.942  0.0878  0.3431 -0.5387
  458MOL0     C61728   5.126   0.310   8.024 -0.1427  0.3360 -0.0931
  458MOL0     C61729   5.104   0.273   8.161 -0.5894  0.3035 -0.0832
  458MOL0     O61730   5.214   0.223   8.221 -0.2462  0.4131 -0.4860
  458MOL0     C61731   5.216   0.200   8.356  0.0606 -0.2247  0.2536
  458MOL0     C61732   5.261   0.325   8.430 -0.4566  0.0873 -0.4320
  458MOL0     C61733   5.399   0.382   8.392 -0.6410 -0.0254  0.1529
  458MOL0     C61734   5.422   0.515   8.455  0.3568 -0.9247 -0.2489
  458MOL0     C61735   5.556   0.580   8.443 -1.2881  0.1025 -0.0049
  458MOL0     C61736   5.660   0.511   8.538  0.6305  0.4993  0.7010
  458MOL0     C61737   5.800   0.579   8.518 -0.2881  0.2749  0.3353
  458MOL0     C61738   5.899   0.500   8.597 -1.1857  0.2018 -0.5457
  458MOL0    Cl61739   6.068   0.558   8.556  0.2905  0.2707  0.1765
  458MOL0     C61740   4.975   0.282   8.210  0.1218  0.2045  0.4606
  458MOL0     C61741   4.872   0.334   8.135  0.5109 -0.0349 -0.5649
  458MOL0     O61742   4.746   0.211   7.790  0.2229  0.3780  0.2840
  458MOL0     C61743   4.509   0.293   7.683  0.0330  0.0660 -0.3015
  458MOL0     C61744   4.388   0.338   7.630 -0.4651  0.7269  0.2249
  458MOL0     N61745   3.800   0.414   7.966  0.5941 -0.1779  0.9386
  458MOL0     N61746   3.730   0.394   8.069  0.2210 -0.3490  0.0067
  458MOL0     C61747   3.307   0.895   8.958 -0.1072  0.4219  0.0928
  458MOL0     C61748   3.301   0.913   9.094  0.3325  0.7879  0.3747
  458MOL0     C61749   3.136   0.936   9.529 -0.5330  0.1407 -0.0004
  458MOL0     C61750   3.151   1.073   9.554  0.2887 -0.4935 -0.6515
  458MOL0     C61751   3.197   1.119   9.679 -0.1675 -0.2181  0.4474
  458MOL0     C61752   3.196   1.044   9.795 -0.2731  1.4680  0.4675
  458MOL0     O61753   3.221   1.089   9.916 -0.4954  0.0311 -0.7130
  458MOL0     C61754   3.205   1.004  10.028 -0.1895  0.0306 -0.0633
  458MOL0     C61755   3.237   1.062  10.160 -0.9241 -0.9984 -0.7298
  458MOL0     C61756   3.381   1.119  10.177 -0.8085  0.2717  0.4555
  458MOL0     C61757   3.402   1.201  10.307 -1.0743  0.5978 -0.4213
  458MOL0     C61758   3.288   1.278  10.358  0.3765  0.3891 -1.0286
  458MOL0     C61759   3.206   1.353  10.419  1.4562  0.9739  0.1067
  458MOL0     C61760   3.148   0.912   9.772  0.1927 -0.0313 -0.2073
  458MOL0     C61761   3.123   0.855   9.642 -0.0973  0.3984 -0.4449
  458MOL0     C61762   3.092   0.701   9.634 -0.2404 -1.0209  0.3914
  458MOL0     H61763   2.976   0.988   9.143  0.0021  2.7210 -2.3555
  458MOL0     H61764   2.974   0.948   8.903 -0.4537 -2.5174  0.0560
  458MOL0     H61765   3.390   0.911   8.666 -0.5779  0.1830 -0.2225
  458MOL0     H61766   3.341   0.759   8.754 -0.1241  1.4034  0.4907
  458MOL0     H61767   3.264   0.875   8.482  0.6700 -0.4815 -0.8433
  458MOL0     H61768   3.173   0.737   8.556  1.8339 -3.3175  0.7364
  458MOL0     H61769   3.329   0.587   8.531 -0.8630  1.3820  0.8660
  458MOL0     H61770   3.464   0.711   8.525 -0.5669  1.0077  2.0785
  458MOL0     H61771   3.235   0.637   8.319  1.5739 -4.4281 -0.8495
  458MOL0     H61772   3.351   0.764   8.284 -1.2185 -0.2952 -0.8129
  458MOL0     H61773   3.538   0.599   8.278 -0.1698 -0.2552 -1.6127
  458MOL0     H61774   3.445   0.477   8.349  1.3518  0.5679 -0.1594
  458MOL0     H61775   3.261   0.531   8.141  0.4368 -0.8667 -2.0166
  458MOL0     H61776   3.409   0.554   8.061 -0.4388  0.1543  0.2208
  458MOL0     H61777   3.306   0.324   8.060 -0.6916  0.1702  0.5836
  458MOL0     H61778   3.327   0.301   8.229 -1.4042 -2.8252 -2.1160
  458MOL0     H61779   3.544   0.306   8.229  0.2021 -1.8781  0.0914
  458MOL0     H61780   3.500   0.188   8.108  4.2162 -0.6244  0.6776
  458MOL0     H61781   3.507   0.350   7.831 -0.6839  0.7494  1.0176
  458MOL0     H61782   3.694   0.318   7.661 -0.7276 -0.0196  1.9474
  458MOL0     H61783   3.734   0.490   7.670  1.1883 -0.2463  0.7156
  458MOL0     H61784   3.966   0.388   7.773  0.3037  1.3358 -0.4164
  458MOL0     H61785   3.902   0.251   7.677 -1.5179 -0.4053  0.1260
  458MOL0     H61786   3.966   0.529   7.573  3.4017  0.2886 -0.9757
  458MOL0     H61787   3.931   0.386   7.472  0.3106 -0.1160 -1.0613
  458MOL0     H61788   4.155   0.362   7.469 -6.1271 -2.3467 -1.8030
  458MOL0     H61789   4.136   0.283   7.611  2.7521 -0.4549  0.1732
  458MOL0     H61790   4.333   0.609   7.825 -1.3875  0.6850 -0.3818
  458MOL0     H61791   4.543   0.554   7.908  0.2937 -1.6002  1.0416
  458MOL0     H61792   5.020   0.357   7.834 -3.7084 -1.1174 -1.1075
  458MOL0     H61793   5.226   0.303   7.982  0.3240 -1.3324  1.2164
  458MOL0     H61794   5.121   0.152   8.382 -1.9550  2.1519 -2.0835
  458MOL0     H61795   5.290   0.121   8.371 -0.2273 -0.4743  0.3770
  458MOL0     H61796   5.185   0.402   8.414 -0.7518 -0.4995 -2.0565
  458MOL0     H61797   5.284   0.294   8.532  1.0838 -0.0137 -0.7785
  458MOL0     H61798   5.469   0.303   8.421  0.7854 -0.0817 -3.0066
  458MOL0     H61799   5.403   0.398   8.284 -1.0049 -0.7370  0.0276
  458MOL0     H61800   5.396   0.499   8.560 -0.8702 -0.6467 -0.4925
  458MOL0     H61801   5.350   0.581   8.405  1.1879 -0.3300 -0.7025
  458MOL0     H61802   5.553   0.689   8.457  1.8514  0.0382  2.3863
  458MOL0     H61803   5.594   0.560   8.342 -1.2024 -2.8154  0.5208
  458MOL0     H61804   5.637   0.532   8.643  2.2906 -1.2729  1.4777
  458MOL0     H61805   5.669   0.403   8.529  1.8588  0.5547  0.9693
  458MOL0     H61806   5.810   0.683   8.551  2.0116  0.2222 -0.0377
  458MOL0     H61807   5.832   0.570   8.414  2.0764  0.3606  1.0019
  458MOL0     H61808   5.879   0.509   8.704  3.5767 -4.1928  1.0988
  458MOL0     H61809   5.895   0.393   8.577 -3.2012 -0.4896  2.7962
  458MOL0     H61810   4.958   0.268   8.316  1.9371 -2.5036  0.5106
  458MOL0     H61811   4.779   0.355   8.187  1.8621  1.8251  1.2874
  458MOL0     H61812   4.567   0.214   7.636  1.5439  0.6175  0.5785
  458MOL0     H61813   4.349   0.270   7.555  0.6952  1.4485 -1.0849
  458MOL0     H61814   3.404   0.870   8.916 -0.9057 -0.2010 -1.4537
  458MOL0     H61815   3.389   0.901   9.156  1.0524  1.2395 -0.5336
  458MOL0     H61816   3.153   1.150   9.477 -2.8346  3.0328  2.4028
  458MOL0     H61817   3.218   1.225   9.690  1.5019 -0.5315  0.6666
  458MOL0     H61818   3.264   0.912  10.019 -2.5928 -1.4421 -2.2539
  458MOL0     H61819   3.100   0.974  10.031 -0.4539  0.9616  0.3974
  458MOL0     H61820   3.238   0.980  10.233  2.8190  2.4494  3.7681
  458MOL0     H61821   3.152   1.120  10.198 -0.9931  0.3711 -2.8429
  458MOL0     H61822   3.398   1.184  10.091  0.7890 -0.7798 -0.0681
  458MOL0     H61823   3.459   1.043  10.176 -2.3259 -1.3882 -1.7705
  458MOL0     H61824   3.417   1.129  10.388  2.9809  1.2682 -0.3474
  458MOL0     H61825   3.484   1.273  10.309 -0.6458  0.2011 -1.9806
  458MOL0     H61826   3.121   1.407  10.458  1.2911  1.1085 -0.4363
  458MOL0     H61827   3.131   0.844   9.855  1.0942  0.4408  0.3841
  458MOL0     H61828   2.985   0.687   9.615 -1.0778  1.3978  2.7167
  458MOL0     H61829   3.166   0.653   9.569  0.5466 -0.3733  0.7988
  458MOL0     H61830   3.112   0.652   9.729 -1.7571 -3.8732 -0.6489
  459MOL0     O61831   1.767   6.792   1.337  0.2393  0.2529 -0.7835
  459MOL0     C61832   1.694   6.825   1.431  1.0269  0.4758  0.5793
  459MOL0     O61833   1.580   6.759   1.473  0.2198 -0.3240  0.7986
  459MOL0     C61834   1.530   6.643   1.421  0.8731 -0.4992  0.8314
  459MOL0     C61835   1.423   6.584   1.483  0.3995 -0.5224 -0.8341
  459MOL0     C61836   1.371   6.459   1.450 -0.3067  0.5362 -0.0881
  459MOL0     C61837   1.438   6.374   1.353 -0.3313 -0.2502  0.0954
  459MOL0     O61838   1.418   6.241   1.333 -0.4233  0.0078  0.8808
  459MOL0     C61839   1.314   6.217   1.237  0.0648 -0.8421 -1.0477
  459MOL0     C61840   1.325   6.070   1.199 -0.4083 -0.0310  0.1329
  459MOL0     C61841   1.241   6.031   1.079  0.4359  0.8111  0.0752
  459MOL0     C61842   1.242   5.872   1.076  0.0226 -1.1314 -0.3467
  459MOL0     C61843   1.144   5.826   0.977  1.4546 -0.4088  0.4044
  459MOL0     C61844   1.157   5.857   0.827 -0.3485  0.9028  0.3144
  459MOL0     C61845   1.047   5.811   0.726  0.5330 -0.3645  0.0832
  459MOL0     C61846   1.020   5.905   0.607 -0.0942 -0.0471  0.3702
  459MOL0     N61847   0.939   5.833   0.520 -0.8985 -0.1064 -0.7778
  459MOL0     C61848   0.799   5.833   0.510 -0.1632  0.4103 -1.5944
  459MOL0     C61849   0.765   5.791   0.392 -0.1119 -0.0556  0.4738
  459MOL0     C61850   0.624   5.785   0.333  0.4041 -0.1604  0.4994
  459MOL0     C61851   0.505   5.841   0.412 -0.3173 -0.2887 -0.0981
  459MOL0     C61852   0.364   5.784   0.371 -1.4088  0.6043  0.3495
  459MOL0     C61853   0.252   5.862   0.446 -0.0274 -0.1884  0.6698
  459MOL0     O61854   0.131   5.863   0.364 -0.3518  0.1604  0.3194
  459MOL0     C61855   0.078   5.738   0.350  0.0890  0.0569  0.3552
  459MOL0     C61856   0.028   5.697   0.226  0.2037 -0.1031 -0.0467
  459MOL0     C61857  -0.029   5.570   0.206  0.0095  0.1190  0.8438
  459MOL0     C61858  -0.032   5.476   0.307 -0.8047 -0.2079 -0.2879
  459MOL0     C61859  -0.109   5.353   0.302 -0.1411  0.2597  0.8417
  459MOL0     O61860  -0.214   5.355   0.215  0.1340  0.0441  0.2116
  459MOL0     C61861  -0.265   5.226   0.192  0.4429 -0.2034  0.2556
  459MOL0     C61862  -0.405   5.221   0.164  0.0464  0.2223 -0.5974
  459MOL0     C61863  -0.462   5.111   0.107  0.3117 -0.6611 -0.0664
  459MOL0     C61864  -0.375   5.010   0.071  0.4283  0.8131  0.5742
  459MOL0     O61865  -0.418   4.897   0.001 -0.5951 -0.2857 -0.5905
  459MOL0     C61866  -0.548   4.902  -0.051 -0.1121  0.5542  0.1624
  459MOL0     C61867  -0.566   4.769  -0.143  1.0313  0.2099 -1.1549
  459MOL0     C61868  -0.604   4.652  -0.069  0.0896  0.0327 -0.6225
  459MOL0     C61869  -0.626   4.536  -0.170 -0.2351  0.4854  0.6598
  459MOL0     C61870  -0.499   4.479  -0.229  0.0991  0.6671  0.0375
  459MOL0     C61871  -0.532   4.361  -0.319  0.0565 -0.4381  0.7088
  459MOL0     C61872  -0.406   4.301  -0.384  0.3113  0.5319 -0.5571
  459MOL0     C61873  -0.421   4.160  -0.435  0.1072  0.8454  0.2796
  459MOL0    Cl61874  -0.271   4.100  -0.509 -0.0852 -0.2375  0.5023
  459MOL0     C61875  -0.242   5.007   0.100  0.5576  0.5003  0.7849
  459MOL0     C61876  -0.184   5.115   0.160  0.4981  0.9654 -0.1445
  459MOL0     O61877  -0.071   5.269   0.376 -0.5544  0.4231 -0.0395
  459MOL0     C61878   0.015   5.516   0.435  0.6154 -0.3966  0.4559
  459MOL0     C61879   0.073   5.642   0.450  0.1655  0.8443 -0.8394
  459MOL0     N61880   0.878   5.739   0.334  1.0674 -0.3432  0.0195
  459MOL0     N61881   0.982   5.765   0.409  0.0424 -0.6870  0.3095
  459MOL0     C61882   1.551   6.432   1.291 -0.9141 -0.1644  0.2193
  459MOL0     C61883   1.592   6.562   1.320 -0.5103  0.4211 -0.4887
  459MOL0     C61884   1.727   6.963   1.478 -0.5436 -1.5768  1.3473
  459MOL0     C61885   1.861   7.021   1.458 -0.3105  0.2012 -0.0103
  459MOL0     C61886   1.908   7.140   1.526  1.4054  0.9696 -0.2735
  459MOL0     C61887   1.816   7.212   1.603  0.8261 -0.1182 -0.3879
  459MOL0     O61888   1.849   7.320   1.681 -0.1441  1.0447  0.2822
  459MOL0     C61889   1.988   7.362   1.679 -0.5487  0.3321 -0.0260
  459MOL0     C61890   2.007   7.492   1.603 -0.0802  0.5549  0.6670
  459MOL0     C61891   2.154   7.542   1.612  0.5011  0.4010 -0.0062
  459MOL0     C61892   2.179   7.682   1.549  0.0833 -0.1369  0.0811
  459MOL0     C61893   2.134   7.700   1.411  0.1888 -0.0146 -0.5873
  459MOL0     C61894   2.120   7.731   1.295 -0.6786  0.1994  0.5411
  459MOL0     C61895   1.683   7.170   1.615 -0.2316  0.5789  0.3456
  459MOL0     C61896   1.635   7.048   1.562 -0.6360  0.1606  0.6280
  459MOL0     C61897   1.488   7.013   1.572  0.4495  0.0339  0.8164
  459MOL0     H61898   1.365   6.645   1.551 -1.1940 -0.7188 -1.9490
  459MOL0     H61899   1.284   6.426   1.506  0.2078 -0.7586 -0.0149
  459MOL0     H61900   1.210   6.236   1.263  0.1384  3.0373 -2.9744
  459MOL0     H61901   1.346   6.285   1.158  2.6750 -0.7844 -0.0569
  459MOL0     H61902   1.298   6.007   1.284  0.1073  1.0719  1.1450
  459MOL0     H61903   1.431   6.053   1.176 -0.2408  2.0711 -0.9478
  459MOL0     H61904   1.279   6.068   0.983  0.2671  0.8425  0.0211
  459MOL0     H61905   1.142   6.072   1.098  0.6847  0.0619  3.7654
  459MOL0     H61906   1.342   5.831   1.062  0.9859  0.6996  0.8084
  459MOL0     H61907   1.216   5.840   1.178  1.5114  2.1571  1.2118
  459MOL0     H61908   1.114   5.721   0.983  2.1817 -0.6530 -0.1215
  459MOL0     H61909   1.056   5.886   1.000  0.5748 -0.1045 -3.1624
  459MOL0     H61910   1.160   5.966   0.820 -4.9812  1.1750 -0.6630
  459MOL0     H61911   1.247   5.808   0.787 -1.1732 -1.6282  1.4160
  459MOL0     H61912   0.958   5.791   0.787 -1.7059  1.6231 -2.2576
  459MOL0     H61913   1.075   5.712   0.689 -2.5469 -1.4670  0.3699
  459MOL0     H61914   0.964   5.996   0.634  2.3769  3.3463 -4.3803
  459MOL0     H61915   1.109   5.949   0.562  1.2319 -1.1571  1.8196
  459MOL0     H61916   0.737   5.884   0.583  0.1758 -0.2314 -0.8492
  459MOL0     H61917   0.624   5.829   0.233  2.7094  1.2648  1.0498
  459MOL0     H61918   0.597   5.679   0.330 -0.4251  0.0452 -2.4294
  459MOL0     H61919   0.512   5.830   0.521  1.5383  1.7651  0.0676
  459MOL0     H61920   0.501   5.949   0.398  0.3015 -0.2081  0.3136
  459MOL0     H61921   0.370   5.680   0.405  3.2751  1.5034  3.1249
  459MOL0     H61922   0.340   5.786   0.264 -0.7684 -2.2264  0.0742
  459MOL0     H61923   0.282   5.967   0.440  1.8795 -0.6614  1.1553
  459MOL0     H61924   0.235   5.845   0.552 -3.6200  0.2277  0.2765
  459MOL0     H61925   0.013   5.771   0.148 -4.0026 -0.3240  0.3378
  459MOL0     H61926  -0.072   5.557   0.108 -4.4774  1.2178  2.4203
  459MOL0     H61927  -0.473   5.304   0.180  0.0789  0.3480 -1.0961
  459MOL0     H61928  -0.563   5.124   0.069  1.1172  2.1262 -1.6172
  459MOL0     H61929  -0.606   4.905   0.042  1.9558  1.6687  1.5177
  459MOL0     H61930  -0.573   4.983  -0.119 -0.2696 -0.6464 -1.2511
  459MOL0     H61931  -0.645   4.789  -0.216  0.8612 -2.2970 -1.7448
  459MOL0     H61932  -0.477   4.757  -0.205  1.4560 -0.1998 -0.4820
  459MOL0     H61933  -0.520   4.640   0.000 -0.6126  0.0230  0.2461
  459MOL0     H61934  -0.691   4.671  -0.006 -0.5051 -0.8069 -1.1821
  459MOL0     H61935  -0.691   4.568  -0.252 -1.6042 -4.3425 -0.5006
  459MOL0     H61936  -0.668   4.450  -0.117  0.6824 -1.2128 -1.2300
  459MOL0     H61937  -0.452   4.434  -0.140 -1.0592  0.6813  0.6723
  459MOL0     H61938  -0.433   4.548  -0.283  2.0435 -1.1245 -0.0403
  459MOL0     H61939  -0.596   4.285  -0.273 -0.5663  1.5881  3.4639
  459MOL0     H61940  -0.584   4.406  -0.404  0.3286 -1.0646  0.2060
  459MOL0     H61941  -0.327   4.296  -0.309  4.9843 -2.1014 -4.9870
  459MOL0     H61942  -0.379   4.357  -0.475 -1.1188 -0.6709 -1.7761
  459MOL0     H61943  -0.453   4.075  -0.373  1.2124 -2.0563 -2.8090
  459MOL0     H61944  -0.497   4.154  -0.514  0.5986 -3.0250 -0.0790
  459MOL0     H61945  -0.189   4.913   0.087 -1.6579 -0.8415  0.9394
  459MOL0     H61946  -0.076   5.102   0.155  0.3789  0.1894 -4.7301
  459MOL0     H61947   0.012   5.449   0.520  2.9107 -2.9589 -1.3222
  459MOL0     H61948   0.108   5.674   0.548 -1.4198 -2.3290  0.9159
  459MOL0     H61949   1.607   6.361   1.232  0.8810  1.2344  0.1561
  459MOL0     H61950   1.682   6.597   1.269  0.8739 -0.6684  1.0936
  459MOL0     H61951   1.942   6.973   1.404  0.1583  3.1807 -2.1468
  459MOL0     H61952   2.015   7.156   1.518  1.5838  2.4105  3.1693
  459MOL0     H61953   2.057   7.299   1.622 -0.7363  3.3341 -3.9672
  459MOL0     H61954   2.011   7.372   1.786  2.2901  0.5446 -0.5691
  459MOL0     H61955   1.933   7.566   1.636 -0.9049 -0.2033  0.5712
  459MOL0     H61956   1.989   7.467   1.498  2.5765  2.4678 -0.3600
  459MOL0     H61957   2.227   7.480   1.559  3.0712  3.8277 -0.8818
  459MOL0     H61958   2.188   7.533   1.715 -0.6553  0.4622  0.3912
  459MOL0     H61959   2.132   7.762   1.607  0.1405 -0.2811  0.3272
  459MOL0     H61960   2.288   7.689   1.545  0.4216 -3.4178  0.9778
  459MOL0     H61961   2.114   7.752   1.190  1.5947  1.4602  0.5940
  459MOL0     H61962   1.614   7.230   1.674  1.6946 -0.6742  4.1505
  459MOL0     H61963   1.464   6.957   1.481  2.7716 -0.6679  0.5533
  459MOL0     H61964   1.462   6.948   1.656 -0.7275  1.7200  1.8145
  459MOL0     H61965   1.420   7.098   1.564  2.3817  1.6153  0.5837
  460MOL0     O61966   5.508   2.412   0.162 -0.6527  0.2228  0.4255
  460MOL0     C61967   5.484   2.354   0.056  0.1151 -0.0780  0.8907
  460MOL0     O61968   5.411   2.246   0.048 -0.4203  0.6266 -0.3720
  460MOL0     C61969   5.353   2.193   0.152  0.0041  0.2027 -0.7065
  460MOL0     C61970   5.214   2.218   0.168  0.2780 -0.4085  0.4737
  460MOL0     C61971   5.147   2.162   0.268 -0.5740  0.0879  0.2737
  460MOL0     C61972   5.207   2.091   0.368  0.3063  0.0945 -0.5490
  460MOL0     O61973   5.134   2.044   0.475  0.4323  0.8272 -0.9372
  460MOL0     C61974   5.180   2.046   0.608 -0.2322 -0.0725  0.2115
  460MOL0     C61975   5.138   2.182   0.672  1.5016  0.1864 -1.1411
  460MOL0     C61976   4.982   2.195   0.702  0.0231 -0.3836  1.0484
  460MOL0     C61977   4.947   2.311   0.797  0.1716 -0.1858 -0.5670
  460MOL0     C61978   4.984   2.457   0.751  0.1185  0.2356  0.0305
  460MOL0     C61979   4.966   2.551   0.866  0.2140  0.3218 -0.5979
  460MOL0     C61980   4.998   2.702   0.838  0.1709 -0.1723  0.2605
  460MOL0     C61981   5.142   2.717   0.787 -0.6289  0.0980 -0.0683
  460MOL0     N61982   5.173   2.858   0.745 -1.0057  1.6627 -0.1739
  460MOL0     C61983   5.092   2.942   0.669  0.6204  0.4272  0.4473
  460MOL0     C61984   5.145   3.061   0.690 -0.5769 -0.1079 -0.3241
  460MOL0     C61985   5.090   3.189   0.633  0.0295  0.0137 -0.0448
  460MOL0     C61986   4.950   3.211   0.707  0.2015  0.9194 -0.2063
  460MOL0     C61987   4.873   3.334   0.654  0.3499  0.8940 -0.8103
  460MOL0     C61988   4.935   3.473   0.660  0.0954 -1.1199 -0.1933
  460MOL0     O61989   4.827   3.574   0.644  0.7428  0.3480  0.6143
  460MOL0     C61990   4.736   3.561   0.545 -0.4878 -0.6556  0.9807
  460MOL0     C61991   4.607   3.592   0.578 -0.4032  0.4627 -0.0719
  460MOL0     C61992   4.507   3.567   0.492  0.0398 -0.2429  0.9918
  460MOL0     C61993   4.535   3.512   0.364 -0.0350  0.4633 -0.2202
  460MOL0     C61994   4.433   3.462   0.263  0.0369  1.2317 -0.4281
  460MOL0     O61995   4.307   3.437   0.308  0.1953  0.2576 -0.4688
  460MOL0     C61996   4.200   3.425   0.215 -0.2460  0.4747 -0.2050
  460MOL0     C61997   4.088   3.508   0.221 -0.4041  0.4817  0.2463
  460MOL0     C61998   3.983   3.494   0.136 -0.1802 -0.8943  0.0066
  460MOL0     C61999   3.976   3.392   0.040  0.4250  0.0627 -0.0179
  460MOL0     O62000   3.865   3.402  -0.043 -0.1943  0.3156  0.5363
  460MOL0     C62001   3.870   3.324  -0.162  0.5501 -0.3192  0.2129
  460MOL0     C62002   3.758   3.356  -0.271  0.0950  0.3267 -0.3833
  460MOL0     C62003   3.774   3.490  -0.336  1.0223  0.0614  0.8562
  460MOL0     C62004   3.913   3.512  -0.411  0.9963  0.3304 -0.1666
  460MOL0     C62005   3.914   3.649  -0.488 -0.4330 -0.4452  0.8178
  460MOL0     C62006   4.014   3.642  -0.605 -0.5722 -0.4685  0.0248
  460MOL0     C62007   4.023   3.783  -0.656  0.2077 -0.8436  0.7202
  460MOL0     C62008   4.113   3.797  -0.777 -0.3669 -0.6739 -0.2030
  460MOL0    Cl62009   4.276   3.747  -0.715 -0.3578 -0.2054  0.3464
  460MOL0     C62010   4.089   3.302   0.031  0.1628  0.3567  0.0024
  460MOL0     C62011   4.197   3.322   0.119  0.9416  0.3358  0.2599
  460MOL0     O62012   4.464   3.455   0.147 -0.2590  0.1363 -0.8435
  460MOL0     C62013   4.671   3.512   0.327 -0.3482 -1.2156 -0.7669
  460MOL0     C62014   4.771   3.525   0.415  0.6867  0.3833  0.6420
  460MOL0     N62015   5.257   3.059   0.765  0.7947  0.5137 -0.0092
  460MOL0     N62016   5.265   2.941   0.809  0.4706  0.1783  0.4600
  460MOL0     C62017   5.339   2.057   0.356 -0.0064  0.0522  0.1814
  460MOL0     C62018   5.418   2.112   0.246  0.1541  0.3376 -0.7198
  460MOL0     C62019   5.555   2.408  -0.066  0.2269  0.6817  0.7424
  460MOL0     C62020   5.665   2.496  -0.056  0.5171 -0.5588  0.1424
  460MOL0     C62021   5.738   2.547  -0.168  0.5284  0.3256  1.0712
  460MOL0     C62022   5.710   2.492  -0.292 -0.3005  0.4268  0.9480
  460MOL0     O62023   5.786   2.545  -0.392  0.1801 -0.4177  0.2978
  460MOL0     C62024   5.772   2.509  -0.527 -0.5659  0.3191  0.0761
  460MOL0     C62025   5.676   2.602  -0.596 -0.5095  0.4056 -0.4794
  460MOL0     C62026   5.576   2.530  -0.695 -1.1623 -0.5539 -0.0746
  460MOL0     C62027   5.452   2.610  -0.725 -0.4450 -0.0087  0.2061
  460MOL0     C62028   5.498   2.699  -0.830  1.1921 -0.8313 -0.4914
  460MOL0     C62029   5.533   2.781  -0.907  0.3701  0.0293 -0.0247
  460MOL0     C62030   5.598   2.408  -0.304 -0.5130  0.1376  0.3251
  460MOL0     C62031   5.525   2.366  -0.198  0.0339  0.2450 -0.3908
  460MOL0     C62032   5.406   2.274  -0.229 -0.4496 -0.6283 -0.2737
  460MOL0     H62033   5.169   2.292   0.102  2.6712 -1.1667 -2.2110
  460MOL0     H62034   5.040   2.180   0.279 -0.8266  0.0503 -1.6648
  460MOL0     H62035   5.133   1.964   0.664  2.5811 -0.0315  2.9033
  460MOL0     H62036   5.289   2.039   0.612 -0.1082  0.2151 -1.9098
  460MOL0     H62037   5.166   2.265   0.605  2.9183  1.0006  0.3644
  460MOL0     H62038   5.200   2.199   0.760  1.0460  0.7271 -0.9174
  460MOL0     H62039   4.932   2.106   0.742 -1.2812  0.9021  2.3879
  460MOL0     H62040   4.927   2.219   0.610 -2.8124  0.4079  2.8307
  460MOL0     H62041   4.841   2.329   0.817  0.1463 -0.8453 -0.0870
  460MOL0     H62042   5.005   2.283   0.884 -1.1595 -1.6127 -0.0924
  460MOL0     H62043   5.088   2.475   0.722  0.7695 -0.4990  1.7340
  460MOL0     H62044   4.920   2.476   0.665  2.0100 -0.8553 -1.7067
  460MOL0     H62045   4.864   2.544   0.904 -0.8917  1.7737 -3.0445
  460MOL0     H62046   5.025   2.528   0.955 -0.8241  1.0910  0.3181
  460MOL0     H62047   4.991   2.769   0.925 -1.8392  1.0614 -0.7810
  460MOL0     H62048   4.936   2.753   0.764  0.0127 -0.4789  0.1824
  460MOL0     H62049   5.213   2.684   0.863  2.1561  1.2346 -2.0203
  460MOL0     H62050   5.164   2.665   0.694  0.7710  1.8331 -0.7563
  460MOL0     H62051   5.004   2.907   0.616 -0.4477  1.3991  1.5165
  460MOL0     H62052   5.159   3.269   0.660  1.5755 -0.4013 -2.5066
  460MOL0     H62053   5.076   3.181   0.525  1.9673  0.9203 -0.3961
  460MOL0     H62054   4.890   3.122   0.687  0.0055  1.1853 -0.8018
  460MOL0     H62055   4.953   3.231   0.815 -1.8881  0.7828 -0.0789
  460MOL0     H62056   4.782   3.332   0.715 -0.5641 -0.2499 -2.1242
  460MOL0     H62057   4.836   3.321   0.551  0.8392  0.6664 -0.9567
  460MOL0     H62058   5.008   3.482   0.580 -0.8185  3.2110 -0.8019
  460MOL0     H62059   4.978   3.489   0.759 -0.4883 -1.8714  0.1928
  460MOL0     H62060   4.600   3.636   0.677  0.1648 -0.9057  0.6044
  460MOL0     H62061   4.405   3.591   0.521 -0.9626  0.0089 -2.3928
  460MOL0     H62062   4.069   3.591   0.288  1.7769  1.6976 -0.5442
  460MOL0     H62063   3.914   3.577   0.137  0.8304  0.1260 -3.0232
  460MOL0     H62064   3.968   3.327  -0.211 -0.1095 -2.3126 -1.3948
  460MOL0     H62065   3.841   3.223  -0.132 -1.8395 -0.0122 -0.8245
  460MOL0     H62066   3.766   3.276  -0.345  3.1758  2.5295 -2.6723
  460MOL0     H62067   3.668   3.354  -0.209  1.0477 -3.8618  1.1187
  460MOL0     H62068   3.691   3.497  -0.407  1.8167  0.1097 -0.0877
  460MOL0     H62069   3.769   3.577  -0.268  2.5643  0.5320  0.4284
  460MOL0     H62070   3.925   3.421  -0.472 -0.8360  0.5889 -0.9756
  460MOL0     H62071   3.991   3.528  -0.336 -0.5378  0.9650  1.3443
  460MOL0     H62072   3.939   3.731  -0.420  0.4748 -1.0324  1.2265
  460MOL0     H62073   3.817   3.663  -0.535 -1.9858 -0.9217  3.6293
  460MOL0     H62074   4.109   3.600  -0.571 -1.0539  0.4469  2.7138
  460MOL0     H62075   3.984   3.578  -0.689  0.9512 -1.5911  0.3011
  460MOL0     H62076   4.059   3.848  -0.575  1.2803  1.5000 -1.4938
  460MOL0     H62077   3.924   3.817  -0.687  1.5214  1.4299 -1.2833
  460MOL0     H62078   4.079   3.727  -0.853 -0.4770  0.5888 -1.3632
  460MOL0     H62079   4.117   3.898  -0.821 -1.8211  1.4262  3.9238
  460MOL0     H62080   4.093   3.220  -0.040 -0.9236  1.4789 -1.4363
  460MOL0     H62081   4.273   3.245   0.116  2.1475  1.4917  0.3701
  460MOL0     H62082   4.692   3.487   0.224  1.6905  0.4784 -0.8251
  460MOL0     H62083   4.875   3.529   0.384  0.6823 -1.8782  0.1428
  460MOL0     H62084   5.390   1.979   0.412  2.9068  1.3551 -0.4328
  460MOL0     H62085   5.523   2.095   0.225  0.8646  1.8521  1.3782
  460MOL0     H62086   5.701   2.539   0.037  1.9412  2.7729 -1.7780
  460MOL0     H62087   5.826   2.611  -0.174 -1.3559  3.1158  1.1115
  460MOL0     H62088   5.735   2.407  -0.533  0.0368  0.1038 -0.0319
  460MOL0     H62089   5.869   2.515  -0.577 -1.4144 -1.5464 -1.9811
  460MOL0     H62090   5.727   2.689  -0.640  1.2405  0.3068  1.2422
  460MOL0     H62091   5.603   2.630  -0.520 -1.5668 -2.0984 -0.4899
  460MOL0     H62092   5.547   2.436  -0.646 -2.8231 -3.0064 -5.0946
  460MOL0     H62093   5.616   2.487  -0.787 -0.8346 -1.2281  0.3720
  460MOL0     H62094   5.363   2.558  -0.760 -0.6033  1.2163 -1.3541
  460MOL0     H62095   5.421   2.681  -0.648  2.5422  1.7013  0.0002
  460MOL0     H62096   5.582   2.856  -0.965 -0.5769 -0.2765 -1.2590
  460MOL0     H62097   5.567   2.385  -0.406 -2.0094  1.0503  0.5456
  460MOL0     H62098   5.438   2.177  -0.191  2.3740  0.2100 -0.3007
  460MOL0     H62099   5.322   2.309  -0.168 -0.5363 -3.2076  1.2082
  460MOL0     H62100   5.374   2.273  -0.334  1.6133  2.1029 -1.0523
  461MOL0     O62101   1.850   9.730   5.041 -0.2188 -0.1652  0.2548
  461MOL0     C62102   1.806   9.732   5.158 -0.2175  0.5565  0.2325
  461MOL0     O62103   1.873   9.702   5.272 -0.5679 -0.7091 -0.2809
  461MOL0     C62104   2.004   9.675   5.265  0.0508  0.3550  0.7053
  461MOL0     C62105   2.103   9.772   5.263  0.3746 -0.4840 -0.3134
  461MOL0     C62106   2.237   9.742   5.243 -0.4135  0.7781 -0.3433
  461MOL0     C62107   2.285   9.610   5.236  0.1936  0.1133  0.4954
  461MOL0     O62108   2.423   9.579   5.235  0.1830 -1.0443  0.4207
  461MOL0     C62109   2.518   9.665   5.174 -0.8103  0.2380 -0.1922
  461MOL0     C62110   2.649   9.592   5.171 -0.4472 -1.2045  0.0217
  461MOL0     C62111   2.751   9.690   5.103 -0.0402  0.1724  0.1604
  461MOL0     C62112   2.893   9.623   5.088  0.0947  0.5289  0.5249
  461MOL0     C62113   2.965   9.670   4.960 -0.4311  0.5495 -0.6607
  461MOL0     C62114   3.118   9.694   4.994 -0.5202  0.0082  0.5834
  461MOL0     C62115   3.172   9.758   4.865 -0.2159  0.0201  0.5643
  461MOL0     C62116   3.214   9.899   4.881  0.6205 -0.1225 -0.2985
  461MOL0     N62117   3.309   9.928   4.987  0.2402  0.3567  0.3143
  461MOL0     C62118   3.290  10.015   5.094 -0.2626  0.3707  0.7129
  461MOL0     C62119   3.409  10.006   5.148 -0.6139 -0.7967  0.0390
  461MOL0     C62120   3.441  10.099   5.263 -0.1969  0.8458 -0.4389
  461MOL0     C62121   3.583  10.052   5.316 -0.1916 -0.1198 -0.2126
  461MOL0     C62122   3.624  10.141   5.430 -0.4168  1.1554 -0.0820
  461MOL0     C62123   3.541  10.095   5.548 -0.2173  0.2347  0.0763
  461MOL0     O62124   3.559  10.189   5.652  0.0484  0.0576 -0.1720
  461MOL0     C62125   3.671  10.163   5.731 -0.4736 -0.1866 -0.2884
  461MOL0     C62126   3.748  10.040   5.730 -0.6224  1.4337 -0.0060
  461MOL0     C62127   3.860  10.032   5.818  0.0145 -0.0176 -0.2936
  461MOL0     C62128   3.899  10.129   5.906  0.3681 -0.0226 -1.0546
  461MOL0     C62129   4.021  10.115   5.987 -0.3993  0.8928  0.2484
  461MOL0     O62130   4.090   9.995   5.974  0.5490 -0.3757 -0.2386
  461MOL0     C62131   4.187   9.971   6.073  0.3235 -0.0875 -0.5342
  461MOL0     C62132   4.317  10.018   6.057  0.8299  0.5034 -0.3040
  461MOL0     C62133   4.419   9.967   6.131 -0.4344  0.3809 -0.2751
  461MOL0     C62134   4.399   9.876   6.237  0.1178 -0.3641 -0.1397
  461MOL0     O62135   4.510   9.833   6.302 -0.1692 -0.2258 -0.5501
  461MOL0     C62136   4.506   9.687   6.318 -0.0309 -0.0950  0.0256
  461MOL0     C62137   4.613   9.637   6.415  0.1959  0.1702  0.6789
  461MOL0     C62138   4.617   9.487   6.423  0.0186  0.7910 -0.1390
  461MOL0     C62139   4.673   9.408   6.296  0.1980  0.6632  0.4166
  461MOL0     C62140   4.672   9.262   6.316 -0.8371 -0.6090  0.6551
  461MOL0     C62141   4.795   9.211   6.400 -0.6432 -0.7359  0.3646
  461MOL0     C62142   4.782   9.056   6.425 -0.8276 -1.1395  0.9892
  461MOL0     C62143   4.893   8.998   6.505  0.9140  0.0130 -0.4678
  461MOL0    Cl62144   4.873   8.818   6.516 -0.2158  0.5921  0.0062
  461MOL0     C62145   4.262   9.848   6.271  0.3578 -0.5175 -0.2458
  461MOL0     C62146   4.161   9.882   6.179 -0.0617  0.1460 -1.1527
  461MOL0     O62147   4.055  10.202   6.066  0.3833 -0.0064 -1.0970
  461MOL0     C62148   3.824  10.251   5.903 -0.1632 -0.3782  0.0358
  461MOL0     C62149   3.712  10.260   5.819  0.4898 -0.0774 -0.5395
  461MOL0     N62150   3.498   9.952   5.054 -0.3647 -0.3678  0.0032
  461MOL0     N62151   3.436   9.911   4.955  0.1802 -0.6183  0.2777
  461MOL0     C62152   2.181   9.512   5.246 -0.8850 -0.4449 -0.0578
  461MOL0     C62153   2.048   9.548   5.248  0.4028  0.0179 -0.0558
  461MOL0     C62154   1.665   9.774   5.171  0.0799 -0.1168  0.0256
  461MOL0     C62155   1.641   9.868   5.271  0.2546 -1.1408 -1.3027
  461MOL0     C62156   1.512   9.914   5.296  0.3966  0.4395 -0.1990
  461MOL0     C62157   1.411   9.879   5.199 -0.5452 -0.7981  0.3197
  461MOL0     O62158   1.282   9.914   5.232  0.2743 -0.4313  0.6715
  461MOL0     C62159   1.269  10.035   5.302 -0.7964 -0.5049 -0.6113
  461MOL0     C62160   1.140  10.102   5.267  0.0270 -0.3843  1.0010
  461MOL0     C62161   1.060  10.154   5.381  1.2897 -0.3017 -0.9482
  461MOL0     C62162   1.137  10.250   5.473 -0.6204 -0.1311 -0.6705
  461MOL0     C62163   1.046  10.284   5.586  0.6338  0.5193  0.0620
  461MOL0     C62164   0.971  10.326   5.676  0.6284 -0.0541  0.7967
  461MOL0     C62165   1.442   9.798   5.086  0.0543  0.0348 -0.8985
  461MOL0     C62166   1.567   9.748   5.068 -0.0758  0.0197  0.2224
  461MOL0     C62167   1.583   9.651   4.945  0.4033 -0.1109 -1.0302
  461MOL0     H62168   2.075   9.876   5.279 -1.6955 -1.3840  3.0016
  461MOL0     H62169   2.313   9.819   5.255 -2.8471  3.0230  2.0959
  461MOL0     H62170   2.496   9.713   5.078  1.9699  2.5571  0.1903
  461MOL0     H62171   2.537   9.742   5.249 -0.7666 -0.1258  0.1749
  461MOL0     H62172   2.641   9.504   5.106 -0.4316 -1.5032  0.4156
  461MOL0     H62173   2.663   9.560   5.275 -1.2242  1.0558  0.8841
  461MOL0     H62174   2.762   9.785   5.157  2.5411  0.0028  0.0320
  461MOL0     H62175   2.714   9.707   5.001  0.5755  0.6246  0.0044
  461MOL0     H62176   2.954   9.627   5.178 -2.1152  0.5634  2.1028
  461MOL0     H62177   2.868   9.519   5.066  0.7428  0.3536  0.5939
  461MOL0     H62178   2.957   9.592   4.884 -1.8725 -0.5728  0.5741
  461MOL0     H62179   2.912   9.758   4.922  0.6045  0.9302 -1.2445
  461MOL0     H62180   3.123   9.760   5.081  1.1312  0.5912  0.0733
  461MOL0     H62181   3.170   9.598   5.003  0.9353  0.5707 -1.1107
  461MOL0     H62182   3.101   9.760   4.782 -0.2015  0.5840  0.5575
  461MOL0     H62183   3.245   9.688   4.823 -1.5024 -2.0409  1.6019
  461MOL0     H62184   3.254   9.930   4.784  1.1166 -2.4267 -0.8897
  461MOL0     H62185   3.126   9.960   4.903  1.5755 -0.0884  4.5061
  461MOL0     H62186   3.199  10.064   5.127 -0.0670  1.4961 -0.3430
  461MOL0     H62187   3.438  10.205   5.235 -1.4587  0.2708 -2.7433
  461MOL0     H62188   3.364  10.088   5.341  1.3599 -3.5348  0.7625
  461MOL0     H62189   3.592   9.948   5.351 -1.1634 -0.5759 -1.2605
  461MOL0     H62190   3.653  10.058   5.233  1.9377  3.4074  1.6183
  461MOL0     H62191   3.607  10.246   5.404  0.0616  1.2170 -0.1533
  461MOL0     H62192   3.725  10.112   5.463 -2.1480 -2.8266  2.5791
  461MOL0     H62193   3.580   9.994   5.564  0.0011  0.1230 -1.0957
  461MOL0     H62194   3.433  10.088   5.534 -0.4156 -0.8497  1.8545
  461MOL0     H62195   3.734   9.943   5.683  1.3075  0.8343  0.5467
  461MOL0     H62196   3.917   9.941   5.807 -2.9339 -2.0830  0.4235
  461MOL0     H62197   4.332  10.086   5.974  0.7442  0.4733 -0.3437
  461MOL0     H62198   4.522   9.975   6.097  0.4785 -2.6992  1.3978
  461MOL0     H62199   4.418   9.668   6.381 -1.0966  1.0831 -1.0470
  461MOL0     H62200   4.497   9.635   6.223  0.9747 -1.4934  0.6657
  461MOL0     H62201   4.717   9.671   6.408  0.4496  0.5617  4.2592
  461MOL0     H62202   4.574   9.671   6.511 -1.9664  3.4033 -1.1786
  461MOL0     H62203   4.680   9.459   6.508  0.3784 -1.4417 -1.0697
  461MOL0     H62204   4.520   9.440   6.441 -0.5708  1.7017 -0.8601
  461MOL0     H62205   4.775   9.446   6.279  0.3667 -0.4774 -1.4070
  461MOL0     H62206   4.609   9.424   6.210 -0.0558 -0.8599  0.2929
  461MOL0     H62207   4.682   9.208   6.222  0.6073 -3.1608  2.1675
  461MOL0     H62208   4.577   9.235   6.364 -0.9637 -0.3088  0.5788
  461MOL0     H62209   4.887   9.234   6.347  0.5809 -1.8188  1.9273
  461MOL0     H62210   4.795   9.270   6.491 -3.1265  2.5633 -1.5566
  461MOL0     H62211   4.792   9.004   6.329 -2.7556  2.7581 -1.5863
  461MOL0     H62212   4.681   9.032   6.457 -0.3448 -2.5800  1.4987
  461MOL0     H62213   4.990   9.011   6.457  1.1697 -0.1174  0.0092
  461MOL0     H62214   4.897   9.052   6.600 -3.0673  0.6601 -0.4724
  461MOL0     H62215   4.231   9.788   6.356  0.5190 -0.7672 -0.3637
  461MOL0     H62216   4.063   9.848   6.210  0.2237 -0.6812 -1.1401
  461MOL0     H62217   3.842  10.335   5.970 -2.1808  0.9063 -0.9560
  461MOL0     H62218   3.655  10.351   5.833 -2.8372 -2.2089  1.1925
  461MOL0     H62219   2.211   9.408   5.246 -3.4790 -1.2782  1.3925
  461MOL0     H62220   1.973   9.470   5.238 -1.5505  1.6348  1.0370
  461MOL0     H62221   1.715   9.904   5.342 -0.8501 -2.1259  0.4472
  461MOL0     H62222   1.489   9.977   5.381 -1.9305  0.4243 -0.7523
  461MOL0     H62223   1.355  10.102   5.289 -0.7453  0.0891  2.1803
  461MOL0     H62224   1.271  10.026   5.411  1.6224  1.2159 -0.4218
  461MOL0     H62225   1.088  10.021   5.215  3.8275 -2.0636 -0.6198
  461MOL0     H62226   1.176  10.182   5.201 -0.4038  0.5149  1.8346
  461MOL0     H62227   1.023  10.072   5.444 -1.3590  1.7334  0.3441
  461MOL0     H62228   0.973  10.206   5.339 -0.5027 -1.7076  0.7735
  461MOL0     H62229   1.232  10.207   5.507  1.9290  3.6208 -2.3207
  461MOL0     H62230   1.165  10.350   5.439  1.6709  1.5566  4.9489
  461MOL0     H62231   0.904  10.365   5.750 -0.0249 -0.7164  0.5744
  461MOL0     H62232   1.363   9.774   5.016 -1.4120  0.5564  0.5103
  461MOL0     H62233   1.495   9.590   4.925  0.4333 -1.3195  2.0823
  461MOL0     H62234   1.595   9.709   4.853 -0.6483 -0.0391 -1.1284
  461MOL0     H62235   1.663   9.580   4.971 -0.6338 -0.4308  1.5579
  462MOL0     O62236  11.016   0.664   8.045 -0.4302 -0.0925 -0.6715
  462MOL0     C62237  10.940   0.629   7.959  0.7644 -0.7686 -0.1736
  462MOL0     O62238  10.899   0.705   7.862 -0.0162  0.8613  0.2641
  462MOL0     C62239  10.933   0.834   7.858 -0.5886 -0.6003 -0.2623
  462MOL0     C62240  10.864   0.937   7.931 -0.5997  0.6203 -0.6254
  462MOL0     C62241  10.912   1.063   7.925  0.1100 -0.1599 -0.1149
  462MOL0     C62242  11.022   1.104   7.847  0.1338 -0.1862 -0.3582
  462MOL0     O62243  11.054   1.240   7.837 -0.1211 -0.2528  0.3727
  462MOL0     C62244  11.195   1.275   7.842 -0.4794 -0.3203 -0.2179
  462MOL0     C62245  11.206   1.419   7.874  0.1095 -0.7492 -1.1560
  462MOL0     C62246  11.353   1.442   7.914  0.3695 -0.9387  0.3968
  462MOL0     C62247  11.383   1.586   7.949  0.1407  0.2771 -0.0187
  462MOL0     C62248  11.528   1.613   7.976 -0.3988  0.4110  0.0894
  462MOL0     C62249  11.611   1.661   7.856  0.6914  0.2016 -0.1574
  462MOL0     C62250  11.760   1.688   7.887 -0.0331  0.6418  0.0920
  462MOL0     C62251  11.791   1.822   7.977 -0.0664  1.2068  0.2038
  462MOL0     N62252  11.750   1.939   7.907 -0.0984 -0.0909  0.7267
  462MOL0     C62253  11.647   2.021   7.931 -0.4323 -0.2874 -0.6743
  462MOL0     C62254  11.665   2.133   7.855 -0.2732  0.2179 -0.2886
  462MOL0     C62255  11.578   2.264   7.839  0.3131  0.3786  0.2623
  462MOL0     C62256  11.668   2.382   7.873  0.4363  0.3787  0.1541
  462MOL0     C62257  11.629   2.438   8.012 -1.3126 -0.0080 -0.2201
  462MOL0     C62258  11.652   2.336   8.127 -0.1151  0.7991  0.5087
  462MOL0     O62259  11.604   2.386   8.253  0.0669 -0.0999  0.4415
  462MOL0     C62260  11.609   2.305   8.363 -0.5072 -0.5407  0.0443
  462MOL0     C62261  11.682   2.190   8.379 -0.0386  0.9057 -0.0815
  462MOL0     C62262  11.684   2.108   8.490 -0.0757  0.6226  0.7176
  462MOL0     C62263  11.608   2.149   8.599 -0.1562  0.3126 -0.3720
  462MOL0     C62264  11.593   2.071   8.719 -0.0577 -0.2080 -0.1360
  462MOL0     O62265  11.694   1.976   8.740  0.4693 -0.3149 -0.2744
  462MOL0     C62266  11.702   1.911   8.869 -0.7632  0.9435 -0.3482
  462MOL0     C62267  11.717   1.981   8.990 -0.3344  0.3929 -0.3845
  462MOL0     C62268  11.748   1.916   9.108  0.5103  0.1464 -0.6673
  462MOL0     C62269  11.745   1.779   9.113  0.3012  1.1304  0.4286
  462MOL0     O62270  11.760   1.719   9.240 -1.0958  0.7706 -0.3429
  462MOL0     C62271  11.795   1.575   9.254  0.4445  0.0559  0.4447
  462MOL0     C62272  11.671   1.489   9.251  0.8415  0.2792 -0.1226
  462MOL0     C62273  11.711   1.350   9.223  0.1222  0.6656 -0.1400
  462MOL0     C62274  11.585   1.256   9.237  0.2156  0.0960 -0.2568
  462MOL0     C62275  11.641   1.113   9.249  0.5970  0.6050 -0.0798
  462MOL0     C62276  11.752   1.068   9.151 -0.7532 -0.0214  0.5849
  462MOL0     C62277  11.716   1.094   8.997  0.4710  1.0805 -0.5390
  462MOL0     C62278  11.768   0.965   8.927  0.1411 -0.7727 -0.1316
  462MOL0    Cl62279  11.780   0.997   8.750  0.2460  0.5015 -0.0077
  462MOL0     C62280  11.729   1.709   8.999 -0.6161  0.3976  2.1993
  462MOL0     C62281  11.712   1.779   8.877 -0.2346 -0.0923 -0.2179
  462MOL0     O62282  11.503   2.110   8.798 -0.2711 -0.8699  0.1982
  462MOL0     C62283  11.524   2.265   8.592 -0.0896  0.0022  0.7547
  462MOL0     C62284  11.527   2.337   8.474 -0.2780  0.3977  0.3093
  462MOL0     N62285  11.778   2.107   7.779  1.6901 -0.0383 -0.2819
  462MOL0     N62286  11.823   1.985   7.799  0.5820 -0.5126  0.2332
  462MOL0     C62287  11.088   1.008   7.770 -0.1250 -0.3704 -0.0571
  462MOL0     C62288  11.048   0.875   7.781  0.2472 -0.2649  0.3296
  462MOL0     C62289  10.892   0.488   7.957  0.2067  0.2960  0.3771
  462MOL0     C62290  10.841   0.431   7.826 -0.0465 -0.1625 -0.3448
  462MOL0     C62291  10.797   0.297   7.816  0.0341 -0.3416 -0.2131
  462MOL0     C62292  10.809   0.222   7.926 -0.9437  0.7203 -0.3265
  462MOL0     O62293  10.770   0.096   7.916 -1.1218  0.4075  0.9562
  462MOL0     C62294  10.745   0.020   8.038 -0.7500 -0.0526 -0.5486
  462MOL0     C62295  10.703  -0.129   8.009 -0.7101  0.2253  0.4631
  462MOL0     C62296  10.567  -0.152   7.943  0.9071 -0.4595  0.5896
  462MOL0     C62297  10.561  -0.304   7.903 -0.0767 -0.6046  0.4377
  462MOL0     C62298  10.426  -0.345   7.865  0.2963 -0.3875  0.5238
  462MOL0     C62299  10.310  -0.361   7.845 -0.6299 -0.2320 -0.5265
  462MOL0     C62300  10.867   0.266   8.049 -0.3347  1.2372  0.3251
  462MOL0     C62301  10.909   0.395   8.063 -0.1277 -0.3748  0.3042
  462MOL0     C62302  10.947   0.440   8.207 -0.2400 -0.2276 -0.7282
  462MOL0     H62303  10.780   0.911   7.995  0.8242  0.8599  1.4313
  462MOL0     H62304  10.860   1.147   7.972 -1.4819  0.2983 -2.5189
  462MOL0     H62305  11.238   1.219   7.926  3.3994  2.8680  0.1934
  462MOL0     H62306  11.251   1.260   7.749 -4.5663  3.2213 -3.7014
  462MOL0     H62307  11.147   1.441   7.963  2.1452 -0.8269  0.2800
  462MOL0     H62308  11.169   1.478   7.789 -0.4654  1.2759  0.4325
  462MOL0     H62309  11.415   1.420   7.826  0.1301 -1.2069  0.2953
  462MOL0     H62310  11.380   1.383   8.001 -0.3181  0.7248  1.8015
  462MOL0     H62311  11.352   1.654   7.868 -0.9448 -0.4783 -0.2543
  462MOL0     H62312  11.319   1.615   8.033  3.2951 -1.1354  3.0780
  462MOL0     H62313  11.544   1.689   8.053  1.6967  1.5851 -1.4137
  462MOL0     H62314  11.570   1.521   8.018 -1.4699  0.4235  1.2579
  462MOL0     H62315  11.597   1.595   7.770 -1.6317  0.3393  0.0427
  462MOL0     H62316  11.559   1.751   7.822 -1.2215 -1.2909 -1.4251
  462MOL0     H62317  11.826   1.678   7.801  0.7630  1.5076  0.5773
  462MOL0     H62318  11.793   1.605   7.951  0.2417 -0.6896 -1.7105
  462MOL0     H62319  11.750   1.810   8.078 -2.5457 -2.0859 -1.0037
  462MOL0     H62320  11.898   1.836   7.991  0.0906  0.1266  0.1281
  462MOL0     H62321  11.563   2.004   7.998 -1.2001 -0.5915 -1.6853
  462MOL0     H62322  11.544   2.275   7.736  0.0966 -0.1194  0.2788
  462MOL0     H62323  11.490   2.256   7.903 -0.2684  0.2296 -0.5434
  462MOL0     H62324  11.774   2.357   7.874  0.4010  0.2196  1.2188
  462MOL0     H62325  11.647   2.459   7.798 -4.4995 -0.1559  0.6326
  462MOL0     H62326  11.525   2.472   8.003 -1.3523 -0.1586 -0.3337
  462MOL0     H62327  11.693   2.524   8.033  0.9276 -0.5808 -3.8583
  462MOL0     H62328  11.759   2.312   8.132  0.1880  1.4274 -1.7466
  462MOL0     H62329  11.594   2.246   8.105  1.6628  0.1200 -1.9108
  462MOL0     H62330  11.738   2.151   8.295 -2.7407 -1.5892 -0.8789
  462MOL0     H62331  11.746   2.019   8.499 -2.5043 -1.0990  1.4741
  462MOL0     H62332  11.707   2.088   8.981 -1.1243  0.1542 -4.4116
  462MOL0     H62333  11.752   1.967   9.204 -1.5883 -0.2981 -0.3008
  462MOL0     H62334  11.865   1.550   9.174 -2.6544  0.5584 -2.6542
  462MOL0     H62335  11.849   1.553   9.347 -2.2570 -0.2436  2.0246
  462MOL0     H62336  11.630   1.496   9.352 -0.7811 -0.8146 -0.6668
  462MOL0     H62337  11.604   1.523   9.171  3.7857 -1.0143 -3.3518
  462MOL0     H62338  11.745   1.346   9.119  1.5687 -0.2704  0.3431
  462MOL0     H62339  11.786   1.314   9.294  1.0857 -1.8978 -2.2900
  462MOL0     H62340  11.529   1.275   9.146 -2.7355  3.9220  2.0474
  462MOL0     H62341  11.512   1.294   9.310  0.3688 -1.5657  0.8301
  462MOL0     H62342  11.552   1.050   9.237  0.6055  0.0232  2.3403
  462MOL0     H62343  11.670   1.099   9.354 -0.5412 -0.4043  0.1143
  462MOL0     H62344  11.838   1.134   9.170  0.1361 -0.9700 -0.0575
  462MOL0     H62345  11.765   0.961   9.169  0.9203  0.1809  0.7451
  462MOL0     H62346  11.761   1.184   8.956 -0.1958  2.3354  1.3317
  462MOL0     H62347  11.607   1.103   8.994  0.3515  0.0501  0.0974
  462MOL0     H62348  11.868   0.936   8.960  2.0659  2.0398 -2.8613
  462MOL0     H62349  11.694   0.885   8.936  0.6325 -1.6677 -2.9536
  462MOL0     H62350  11.718   1.601   9.000 -1.4356  0.2081 -2.4524
  462MOL0     H62351  11.696   1.721   8.786 -1.7053  2.8003 -1.9521
  462MOL0     H62352  11.455   2.300   8.668 -0.3380 -0.4771  0.7581
  462MOL0     H62353  11.454   2.416   8.464  0.0338  0.7161  0.5383
  462MOL0     H62354  11.173   1.029   7.707  1.6891 -2.5572  1.5173
  462MOL0     H62355  11.096   0.793   7.728  0.1868  1.3994 -2.5022
  462MOL0     H62356  10.845   0.500   7.742 -0.4976 -2.1875 -2.1116
  462MOL0     H62357  10.769   0.246   7.724 -3.1266 -0.7046  0.8387
  462MOL0     H62358  10.672   0.066   8.106  0.6537  0.7427  0.4777
  462MOL0     H62359  10.839   0.006   8.092  1.2533  1.4417 -3.3946
  462MOL0     H62360  10.724  -0.183   8.101  0.7000 -1.0839 -0.5804
  462MOL0     H62361  10.783  -0.161   7.942 -1.0212  1.2416 -0.4180
  462MOL0     H62362  10.545  -0.088   7.857  1.9509 -3.1414 -1.8312
  462MOL0     H62363  10.494  -0.143   8.025 -2.0783 -0.6987 -1.8484
  462MOL0     H62364  10.631  -0.311   7.819  1.7806 -1.4292  1.9949
  462MOL0     H62365  10.598  -0.360   7.989 -1.9576 -1.7429  0.5637
  462MOL0     H62366  10.206  -0.362   7.818 -1.2341  2.9169  1.1495
  462MOL0     H62367  10.890   0.198   8.130 -4.1832 -2.0021 -0.9758
  462MOL0     H62368  10.910   0.534   8.250  2.6696  0.2109  1.1412
  462MOL0     H62369  10.904   0.360   8.268 -1.4826  1.0341  0.1102
  462MOL0     H62370  11.057   0.439   8.210 -0.0636  3.7453  0.9538
  463MOL0     O62371   0.297   9.671   5.947  0.5603  0.3380 -0.2390
  463MOL0     C62372   0.196   9.620   5.992  0.6004 -0.5690  0.1064
  463MOL0     O62373   0.072   9.683   6.001 -0.0507 -0.2731  0.0539
  463MOL0     C62374   0.056   9.795   5.923  0.2881  0.5095 -0.0432
  463MOL0     C62375   0.077   9.925   5.969  1.6858 -0.0449 -1.0763
  463MOL0     C62376   0.044  10.036   5.898 -0.2988 -0.1323 -0.4931
  463MOL0     C62377   0.001  10.019   5.765 -0.2136 -0.4821 -0.7757
  463MOL0     O62378  -0.035  10.126   5.682 -0.6292  0.6959 -0.7709
  463MOL0     C62379  -0.149  10.204   5.724  0.1803  0.1233  0.2306
  463MOL0     C62380  -0.157  10.332   5.640  0.0154  0.1153  0.1081
  463MOL0     C62381  -0.299  10.374   5.620  0.5605 -0.5676 -0.0754
  463MOL0     C62382  -0.317  10.479   5.517 -1.0850  0.1409 -0.2031
  463MOL0     C62383  -0.457  10.502   5.458  0.6634 -0.4169 -0.1239
  463MOL0     C62384  -0.455  10.600   5.341 -0.5061 -0.4602  0.8556
  463MOL0     C62385  -0.460  10.750   5.370  0.0906 -0.0779 -0.1948
  463MOL0     C62386  -0.603  10.803   5.341 -0.1264 -1.2946  0.0866
  463MOL0     N62387  -0.625  10.928   5.420  0.1972  0.3354  0.2969
  463MOL0     C62388  -0.683  10.929   5.540 -0.6360 -0.4104  0.8814
  463MOL0     C62389  -0.689  11.056   5.573  0.4341 -0.6556 -0.6787
  463MOL0     C62390  -0.756  11.110   5.699  0.0144  0.1864 -0.4086
  463MOL0     C62391  -0.915  11.115   5.712 -0.3380 -0.8652  0.8571
  463MOL0     C62392  -0.979  11.227   5.630  0.6053 -0.3185 -0.3094
  463MOL0     C62393  -1.130  11.257   5.658  0.2973  0.1938 -0.3100
  463MOL0     O62394  -1.191  11.252   5.530 -0.6390  0.1228  0.5118
  463MOL0     C62395  -1.259  11.364   5.480  0.0739 -0.0794 -0.4978
  463MOL0     C62396  -1.342  11.438   5.568 -0.1470  0.6409  0.6136
  463MOL0     C62397  -1.400  11.562   5.551  0.2947  0.1673  0.3952
  463MOL0     C62398  -1.389  11.620   5.425 -0.8029  0.1995  0.0479
  463MOL0     C62399  -1.448  11.759   5.404 -0.7441 -0.7655  0.4330
  463MOL0     O62400  -1.479  11.831   5.518 -0.5377  0.3911 -0.8281
  463MOL0     C62401  -1.541  11.952   5.513  0.1444  0.8840  0.9370
  463MOL0     C62402  -1.664  11.982   5.445  0.0508 -0.3081  0.5398
  463MOL0     C62403  -1.726  12.108   5.436  1.2122  1.3206 -0.9094
  463MOL0     C62404  -1.678  12.209   5.522  0.6881  0.1537  0.5125
  463MOL0     O62405  -1.730  12.342   5.528 -0.7676  0.3592  0.3646
  463MOL0     C62406  -1.806  12.391   5.414 -0.5854 -0.5533 -0.8059
  463MOL0     C62407  -1.780  12.526   5.362  0.2948 -1.1281  0.4434
  463MOL0     C62408  -1.862  12.565   5.243  0.1054  0.1017  0.0292
  463MOL0     C62409  -1.813  12.685   5.178  0.4191 -0.1955 -0.4087
  463MOL0     C62410  -1.854  12.698   5.032 -0.8015 -0.5838 -0.2642
  463MOL0     C62411  -2.009  12.707   5.020  0.3697  0.7268 -0.8867
  463MOL0     C62412  -2.070  12.765   4.894  0.4749 -0.1354 -1.2608
  463MOL0     C62413  -2.220  12.759   4.908  0.7897  0.1124  0.0775
  463MOL0    Cl62414  -2.303  12.797   4.758 -0.4836 -0.0207 -0.7299
  463MOL0     C62415  -1.579  12.174   5.605 -0.2177  0.1394 -0.2789
  463MOL0     C62416  -1.514  12.049   5.611  0.4528 -0.8429 -0.0931
  463MOL0     O62417  -1.482  11.784   5.285 -0.1972 -0.2827  0.1204
  463MOL0     C62418  -1.309  11.554   5.322 -0.0630 -0.2730  0.1513
  463MOL0     C62419  -1.244  11.426   5.357  1.1944  0.7799  0.2542
  463MOL0     N62420  -0.628  11.127   5.478 -0.0647  0.9233 -0.5983
  463MOL0     N62421  -0.595  11.045   5.383 -0.0757  0.2511 -0.4248
  463MOL0     C62422  -0.028   9.890   5.710  0.6176 -0.5853  0.1824
  463MOL0     C62423   0.003   9.781   5.788 -0.2538  0.3159  0.1755
  463MOL0     C62424   0.201   9.499   6.071 -0.0699  0.5493  1.2093
  463MOL0     C62425   0.080   9.413   6.065 -0.5509  0.0432  0.1030
  463MOL0     C62426   0.069   9.309   6.148  0.9903  0.9704 -0.1013
  463MOL0     C62427   0.182   9.262   6.221 -0.6724 -0.5161  1.0065
  463MOL0     O62428   0.173   9.152   6.299  0.8802 -0.7656 -0.2858
  463MOL0     C62429   0.274   9.047   6.289  0.1779 -0.6665 -1.1200
  463MOL0     C62430   0.273   8.952   6.416  0.2469 -0.3478  0.1843
  463MOL0     C62431   0.243   9.039   6.534  0.0847  0.1408 -0.7975
  463MOL0     C62432   0.264   8.958   6.666 -0.1219  0.6520 -0.9251
  463MOL0     C62433   0.411   8.937   6.696  0.6360  0.3333  0.0758
  463MOL0     C62434   0.530   8.911   6.698  0.0987 -0.0303 -0.3726
  463MOL0     C62435   0.299   9.338   6.214  0.0583 -0.3302 -0.0490
  463MOL0     C62436   0.310   9.453   6.143 -0.2436 -0.8660  0.7342
  463MOL0     C62437   0.444   9.523   6.141 -0.1567  1.1008  1.3575
  463MOL0     H62438   0.116   9.941   6.069  2.1799 -4.5408 -0.3246
  463MOL0     H62439   0.044  10.130   5.952 -0.3718  0.2478 -1.1427
  463MOL0     H62440  -0.240  10.146   5.709 -0.4078  1.3927 -1.4377
  463MOL0     H62441  -0.143  10.237   5.828  0.7343  4.1862 -0.9093
  463MOL0     H62442  -0.113  10.316   5.541 -0.1974  3.4354 -0.6551
  463MOL0     H62443  -0.113  10.425   5.676 -1.5136  1.0509 -0.3473
  463MOL0     H62444  -0.341  10.407   5.716 -4.3550 -0.7109 -1.8467
  463MOL0     H62445  -0.368  10.291   5.600 -3.4252  2.4874 -0.3895
  463MOL0     H62446  -0.274  10.572   5.554 -0.8984 -0.9683  2.6172
  463MOL0     H62447  -0.244  10.446   5.442 -0.6036  0.8224 -0.0406
  463MOL0     H62448  -0.500  10.409   5.419 -0.9690  1.0303 -1.9716
  463MOL0     H62449  -0.525  10.543   5.533  1.2071  1.8281 -0.7787
  463MOL0     H62450  -0.356  10.579   5.299 -1.0218 -3.9532  1.0393
  463MOL0     H62451  -0.527  10.577   5.262 -0.5500 -1.8643  1.2682
  463MOL0     H62452  -0.384  10.802   5.311 -0.8903  0.1082 -1.3282
  463MOL0     H62453  -0.435  10.752   5.476  0.0384 -1.2853 -0.1469
  463MOL0     H62454  -0.626  10.831   5.238 -1.8353 -2.5797  0.0771
  463MOL0     H62455  -0.674  10.725   5.371  0.4865 -1.2235  1.8258
  463MOL0     H62456  -0.742  10.850   5.587 -3.8465  0.1229 -1.8495
  463MOL0     H62457  -0.721  11.035   5.770  0.4728  0.1694 -0.6493
  463MOL0     H62458  -0.717  11.205   5.736 -1.3112  0.4981  0.2752
  463MOL0     H62459  -0.960  11.020   5.684 -1.7165  0.3655 -1.4255
  463MOL0     H62460  -0.934  11.141   5.817  1.7544  1.9973  0.6313
  463MOL0     H62461  -0.954  11.213   5.525  0.5830  1.8075 -0.6437
  463MOL0     H62462  -0.937  11.327   5.633 -2.5473  1.1524 -0.6150
  463MOL0     H62463  -1.139  11.352   5.711 -1.2535 -0.5845  0.8815
  463MOL0     H62464  -1.166  11.182   5.729  1.3501  1.2513  1.4321
  463MOL0     H62465  -1.375  11.384   5.656 -1.5880  0.4488 -0.0094
  463MOL0     H62466  -1.460  11.610   5.628  0.4974  1.1174 -0.0245
  463MOL0     H62467  -1.706  11.904   5.383  0.7780  0.8493 -1.5244
  463MOL0     H62468  -1.806  12.119   5.365  0.9301  0.9380 -0.6561
  463MOL0     H62469  -1.799  12.319   5.332  1.8544 -0.4191 -0.7728
  463MOL0     H62470  -1.912  12.399   5.442 -1.3199  3.1888 -3.8726
  463MOL0     H62471  -1.797  12.600   5.441  1.7336 -0.5045  0.1942
  463MOL0     H62472  -1.675  12.539   5.333 -0.9089  3.0164 -3.2076
  463MOL0     H62473  -1.848  12.477   5.179 -0.2990 -1.7111  2.2634
  463MOL0     H62474  -1.967  12.572   5.274 -0.7235 -0.0586 -2.5482
  463MOL0     H62475  -1.704  12.676   5.173  0.3468 -0.3902 -2.1172
  463MOL0     H62476  -1.842  12.779   5.227  2.5099  0.4748 -0.3469
  463MOL0     H62477  -1.810  12.622   4.968  3.8803  2.3221 -0.9396
  463MOL0     H62478  -1.829  12.798   4.996 -0.7882 -0.6884 -0.5454
  463MOL0     H62479  -2.044  12.604   5.025  2.3079 -0.1482 -3.1896
  463MOL0     H62480  -2.047  12.749   5.113 -1.7944 -2.1567 -0.3392
  463MOL0     H62481  -2.045  12.702   4.808 -1.4917 -0.4781 -1.6290
  463MOL0     H62482  -2.035  12.868   4.889 -1.7095  0.8614  1.1747
  463MOL0     H62483  -2.256  12.659   4.936  2.0242  0.1508  1.9717
  463MOL0     H62484  -2.262  12.831   4.979 -1.1737  2.1898 -2.9776
  463MOL0     H62485  -1.547  12.228   5.693  0.5456 -0.8661  0.0771
  463MOL0     H62486  -1.434  12.034   5.682  2.6115  3.3667 -1.3158
  463MOL0     H62487  -1.273  11.601   5.231  2.4114  0.4629  1.4216
  463MOL0     H62488  -1.189  11.377   5.277  0.5615 -1.4669  1.1189
  463MOL0     H62489  -0.087   9.885   5.619 -1.2782  0.7424  1.2585
  463MOL0     H62490  -0.015   9.683   5.745 -0.2068  1.4268 -2.6118
  463MOL0     H62491  -0.006   9.427   6.001 -0.0581  0.6774 -0.4294
  463MOL0     H62492  -0.027   9.257   6.149  1.5602 -0.1068  0.8725
  463MOL0     H62493   0.372   9.096   6.278  1.0074 -2.0303 -0.1356
  463MOL0     H62494   0.258   8.993   6.196 -0.6705 -3.3002  0.4656
  463MOL0     H62495   0.364   8.894   6.433  1.9156  1.3491 -2.2093
  463MOL0     H62496   0.193   8.880   6.400 -0.2869  0.0373  1.0318
  463MOL0     H62497   0.143   9.083   6.527 -0.0647  0.1393  0.9611
  463MOL0     H62498   0.314   9.122   6.534  1.4132 -0.9268  1.1131
  463MOL0     H62499   0.212   9.024   6.737 -2.2082  0.7247 -2.4276
  463MOL0     H62500   0.215   8.860   6.666  0.6393  0.2620 -0.8989
  463MOL0     H62501   0.635   8.892   6.688 -0.0067 -0.0670 -1.6545
  463MOL0     H62502   0.380   9.304   6.279  0.1001  1.3745  0.8638
  463MOL0     H62503   0.527   9.452   6.148  0.2053  1.4478  0.6069
  463MOL0     H62504   0.470   9.558   6.041  1.8853 -1.6475  0.8018
  463MOL0     H62505   0.461   9.608   6.207  0.0187  0.0118  2.7799
  464MOL0     O62506   1.685   3.656   5.350 -0.0803  0.1570 -0.6558
  464MOL0     C62507   1.730   3.740   5.423  0.0429 -0.2101 -1.2040
  464MOL0     O62508   1.862   3.756   5.453  0.1569  0.2561 -0.8088
  464MOL0     C62509   1.958   3.688   5.378 -0.1686 -0.3224  0.2527
  464MOL0     C62510   1.971   3.548   5.371 -0.1237 -0.7121  0.6864
  464MOL0     C62511   2.077   3.487   5.300 -0.9947 -0.9428 -0.4602
  464MOL0     C62512   2.168   3.563   5.236 -0.3402 -0.5435 -0.0913
  464MOL0     O62513   2.268   3.524   5.149  0.9484 -0.4026 -0.9508
  464MOL0     C62514   2.290   3.388   5.106  0.6660  0.5255  0.4041
  464MOL0     C62515   2.238   3.372   4.958  0.3887  0.7769 -0.8244
  464MOL0     C62516   2.094   3.419   4.939 -0.3955  0.8617  0.3618
  464MOL0     C62517   2.094   3.553   4.884  0.1590 -1.2253 -1.0478
  464MOL0     C62518   1.965   3.628   4.926  0.5141  0.5747  0.5190
  464MOL0     C62519   1.973   3.780   4.882 -0.8308 -0.2787 -0.4347
  464MOL0     C62520   1.857   3.875   4.936 -0.0296 -0.6791 -0.0510
  464MOL0     C62521   1.867   4.014   4.893  0.2844 -0.0729 -0.6871
  464MOL0     N62522   1.810   4.032   4.747  0.0612  0.3347 -0.0091
  464MOL0     C62523   1.682   3.997   4.704  0.0229  0.2223  0.8580
  464MOL0     C62524   1.684   4.001   4.568  0.2102  0.2330  0.5693
  464MOL0     C62525   1.576   3.961   4.471  1.2184 -0.5325 -0.9125
  464MOL0     C62526   1.584   3.838   4.385 -0.2181 -1.0765 -0.4802
  464MOL0     C62527   1.457   3.832   4.293  0.1636 -0.0971  0.0066
  464MOL0     C62528   1.470   3.716   4.205  1.1085  0.3622 -0.4630
  464MOL0     O62529   1.561   3.739   4.102 -0.1437 -0.0998 -0.4918
  464MOL0     C62530   1.632   3.627   4.074 -0.2350 -0.4328 -0.3185
  464MOL0     C62531   1.571   3.509   4.012 -0.0942 -0.6899  0.3314
  464MOL0     C62532   1.646   3.396   3.971  0.4385  0.1437  0.0274
  464MOL0     C62533   1.792   3.396   3.989  0.1074  0.0069  0.0752
  464MOL0     C62534   1.877   3.290   3.936 -0.6044  0.6791 -1.0989
  464MOL0     O62535   1.831   3.212   3.834  0.2024  0.2431 -0.1385
  464MOL0     C62536   1.921   3.144   3.749  1.1026  0.8582 -0.7724
  464MOL0     C62537   1.954   3.013   3.775  0.0008  0.2352  0.7696
  464MOL0     C62538   2.042   2.948   3.686 -0.0865  0.6704  0.5214
  464MOL0     C62539   2.087   3.008   3.568 -0.2382 -0.0351 -0.8684
  464MOL0     O62540   2.179   2.963   3.478 -0.2277  0.1609 -0.3217
  464MOL0     C62541   2.257   2.856   3.540  0.3762  0.8270 -0.0693
  464MOL0     C62542   2.389   2.803   3.464  1.0080  1.1226  0.9384
  464MOL0     C62543   2.353   2.666   3.397  0.6202 -0.3140  0.8894
  464MOL0     C62544   2.229   2.675   3.307 -0.9200 -0.1300  0.3366
  464MOL0     C62545   2.246   2.778   3.179  0.3008 -0.5867  0.0695
  464MOL0     C62546   2.109   2.784   3.113 -0.2467 -0.1060  1.0781
  464MOL0     C62547   2.085   2.654   3.026 -0.4458 -0.6942 -0.4545
  464MOL0     C62548   1.940   2.641   2.973 -0.4000  0.2224  0.3132
  464MOL0    Cl62549   1.891   2.791   2.901 -0.7352  0.3693  0.5727
  464MOL0     C62550   2.027   3.125   3.534 -0.1552 -1.2736  0.1473
  464MOL0     C62551   1.951   3.201   3.623  0.0143 -0.0165 -0.3252
  464MOL0     O62552   1.992   3.288   3.984  0.7509 -0.4143 -0.6799
  464MOL0     C62553   1.840   3.515   4.040 -1.0100  0.1774  0.5665
  464MOL0     C62554   1.772   3.631   4.081  0.1040  1.3179  0.6576
  464MOL0     N62555   1.807   4.048   4.532 -0.8937 -0.5570  0.8280
  464MOL0     N62556   1.884   4.064   4.637  0.4789 -0.0965  0.1851
  464MOL0     C62557   2.172   3.702   5.260 -0.2922  0.6354 -0.6110
  464MOL0     C62558   2.066   3.757   5.332 -0.2408 -0.1079 -0.3233
  464MOL0     C62559   1.643   3.834   5.498 -0.5711 -0.1216  0.2672
  464MOL0     C62560   1.691   3.964   5.521 -0.0901 -0.4353 -0.5050
  464MOL0     C62561   1.602   4.065   5.565  0.9178  0.0828  0.1321
  464MOL0     C62562   1.471   4.036   5.598  0.4055  0.7472 -0.3252
  464MOL0     O62563   1.372   4.122   5.631  0.5706 -0.5673 -0.0044
  464MOL0     C62564   1.363   4.249   5.562  0.2386  0.0059  0.1468
  464MOL0     C62565   1.254   4.258   5.450 -0.1551 -0.6018 -0.3959
  464MOL0     C62566   1.123   4.232   5.514  0.0869  0.4860  0.3797
  464MOL0     C62567   1.003   4.228   5.415  0.6847  0.5631  0.6383
  464MOL0     C62568   0.877   4.230   5.492  0.6131 -0.2369  0.4179
  464MOL0     C62569   0.760   4.229   5.532 -0.9012  0.4304  0.4339
  464MOL0     C62570   1.422   3.909   5.585 -0.1051 -0.0194 -0.0204
  464MOL0     C62571   1.511   3.807   5.535 -0.0515  0.0189  0.4720
  464MOL0     C62572   1.449   3.668   5.532 -0.4122 -0.4773 -0.8185
  464MOL0     H62573   1.903   3.490   5.432 -0.7897 -0.7252 -0.0560
  464MOL0     H62574   2.078   3.379   5.288  3.0619 -1.3194  1.7884
  464MOL0     H62575   2.397   3.378   5.086  0.5965  4.1715 -3.1375
  464MOL0     H62576   2.250   3.314   5.176 -0.3263  1.7339  1.1598
  464MOL0     H62577   2.240   3.266   4.930 -1.2667  1.1614 -2.5583
  464MOL0     H62578   2.303   3.424   4.887 -0.6700  1.2219 -1.4773
  464MOL0     H62579   2.039   3.405   5.033 -4.6100  0.6497 -1.9027
  464MOL0     H62580   2.037   3.364   4.864  0.1706  2.6383 -1.4664
  464MOL0     H62581   2.174   3.614   4.926 -0.3051 -0.7474 -0.8502
  464MOL0     H62582   2.099   3.542   4.775 -2.1831  0.9891 -1.4735
  464MOL0     H62583   1.871   3.585   4.890  0.5895  1.6907 -1.1084
  464MOL0     H62584   1.954   3.626   5.035 -2.1348  1.1171  0.3098
  464MOL0     H62585   2.071   3.818   4.912 -0.2298 -3.1575  1.6597
  464MOL0     H62586   1.971   3.779   4.772 -2.8185  0.0583 -0.4312
  464MOL0     H62587   1.853   3.861   5.045 -0.8963 -1.1645 -0.1365
  464MOL0     H62588   1.764   3.822   4.913 -0.0524 -1.9600  2.5570
  464MOL0     H62589   1.807   4.069   4.966  0.3710 -0.2950 -0.4461
  464MOL0     H62590   1.972   4.044   4.898 -0.2116  1.5449  2.3200
  464MOL0     H62591   1.596   3.966   4.762 -0.1539  0.7259  0.8663
  464MOL0     H62592   1.486   3.948   4.532  2.6765 -5.3234  0.7002
  464MOL0     H62593   1.567   4.055   4.416 -0.9486  1.0573  1.8807
  464MOL0     H62594   1.679   3.803   4.342 -1.3066 -1.6515 -2.5585
  464MOL0     H62595   1.556   3.767   4.463 -3.6726  0.3556 -0.2651
  464MOL0     H62596   1.447   3.915   4.223  1.2332  1.2291  1.3828
  464MOL0     H62597   1.367   3.829   4.356  0.4555  0.3595  0.4505
  464MOL0     H62598   1.369   3.706   4.165 -0.6962 -0.5391  3.7971
  464MOL0     H62599   1.507   3.628   4.258  0.8829  0.1620 -0.6366
  464MOL0     H62600   1.464   3.513   3.992 -0.3469 -2.2535  1.2563
  464MOL0     H62601   1.598   3.314   3.917  0.1465 -2.1308  3.4325
  464MOL0     H62602   1.915   2.960   3.862 -2.6072  1.7062  0.6231
  464MOL0     H62603   2.081   2.852   3.719  2.7762  1.1778 -1.0013
  464MOL0     H62604   2.283   2.885   3.642 -2.0212  1.4306  0.4242
  464MOL0     H62605   2.199   2.765   3.556  2.3415 -0.6998 -1.1913
  464MOL0     H62606   2.416   2.880   3.391 -5.3120  0.1532 -3.1341
  464MOL0     H62607   2.463   2.782   3.542  2.5194  3.3529  0.2061
  464MOL0     H62608   2.433   2.619   3.339  1.2103 -2.9778  3.5988
  464MOL0     H62609   2.329   2.599   3.480 -3.1478 -1.6648 -1.0580
  464MOL0     H62610   2.160   2.724   3.377  2.5344  0.9083  3.3879
  464MOL0     H62611   2.208   2.573   3.275  0.5922 -0.1793 -0.5428
  464MOL0     H62612   2.299   2.738   3.092 -1.5223 -0.1534 -1.3277
  464MOL0     H62613   2.286   2.875   3.209 -0.3625 -0.3804  0.3193
  464MOL0     H62614   2.031   2.796   3.189 -1.8283  3.0745 -0.8693
  464MOL0     H62615   2.105   2.878   3.058 -0.8150 -0.6903  0.0892
  464MOL0     H62616   2.100   2.567   3.091 -1.6501 -0.7472 -0.2119
  464MOL0     H62617   2.160   2.653   2.946 -0.1147  2.2316 -0.2835
  464MOL0     H62618   1.934   2.554   2.907  0.4613 -0.4838  1.1355
  464MOL0     H62619   1.874   2.619   3.057 -0.4943 -0.8473 -0.0159
  464MOL0     H62620   2.051   3.167   3.437  3.1386  0.6860  1.6654
  464MOL0     H62621   1.916   3.301   3.599  0.6224  0.5615  1.0752
  464MOL0     H62622   1.945   3.543   4.046 -0.7182 -0.4846 -1.0712
  464MOL0     H62623   1.826   3.715   4.123 -0.3151  0.9112  2.0770
  464MOL0     H62624   2.247   3.768   5.217 -1.5914  1.9504 -0.9405
  464MOL0     H62625   2.060   3.863   5.354  1.2174  0.3320 -1.8201
  464MOL0     H62626   1.795   3.984   5.498  0.6014 -2.1043  0.9469
  464MOL0     H62627   1.634   4.167   5.581  0.0520  0.3622  0.1441
  464MOL0     H62628   1.453   4.283   5.511 -1.1263  0.1780 -2.2939
  464MOL0     H62629   1.356   4.336   5.628  3.7231 -0.9822  2.0252
  464MOL0     H62630   1.268   4.182   5.372 -1.5415 -2.1164  0.7674
  464MOL0     H62631   1.247   4.358   5.406 -4.3612 -0.4318  0.3033
  464MOL0     H62632   1.098   4.311   5.586 -3.9305 -0.2031  0.0052
  464MOL0     H62633   1.125   4.137   5.568  0.0562 -1.4082 -2.7416
  464MOL0     H62634   1.001   4.325   5.364  1.3210  0.6752  0.8192
  464MOL0     H62635   1.006   4.149   5.340  2.5577  2.8038 -1.8346
  464MOL0     H62636   0.659   4.231   5.567 -0.0707  0.0614  3.0167
  464MOL0     H62637   1.321   3.885   5.619 -0.8089 -1.0758 -2.6685
  464MOL0     H62638   1.517   3.591   5.494 -0.9093 -1.5152  0.3476
  464MOL0     H62639   1.432   3.631   5.633  1.7543 -2.7997 -1.2003
  464MOL0     H62640   1.357   3.656   5.473 -2.7068  0.5989  2.2768
  465MOL0     O62641   5.362   9.520   7.159 -0.5523 -0.0361  0.7660
  465MOL0     C62642   5.293   9.558   7.248 -0.5998  0.1664 -0.2518
  465MOL0     O62643   5.314   9.672   7.323 -0.1655 -0.1882  0.1612
  465MOL0     C62644   5.343   9.793   7.254  0.2703  0.0796 -0.8860
  465MOL0     C62645   5.369   9.910   7.330 -0.3269  0.2797  0.2773
  465MOL0     C62646   5.415  10.028   7.277 -0.0556 -0.3941  0.1938
  465MOL0     C62647   5.432  10.037   7.141  0.7402  0.6918  1.1895
  465MOL0     O62648   5.469  10.151   7.071  0.1992 -0.6182  0.0891
  465MOL0     C62649   5.385  10.267   7.113 -0.5979  0.5320 -0.1034
  465MOL0     C62650   5.234  10.264   7.138  0.0341  0.3282  0.4263
  465MOL0     C62651   5.153  10.211   7.026  0.7501  0.1442 -0.1087
  465MOL0     C62652   5.188  10.291   6.899 -0.9375  1.0539 -0.8757
  465MOL0     C62653   5.106  10.253   6.782 -0.4773  1.5677  0.8564
  465MOL0     C62654   5.123  10.099   6.749 -0.3889  1.0724  1.0121
  465MOL0     C62655   5.006  10.020   6.803  0.2282  0.1420  0.2274
  465MOL0     C62656   4.878  10.018   6.719  0.0500  0.2381  0.1938
  465MOL0     N62657   4.757   9.956   6.775 -0.4695  0.4342 -0.0669
  465MOL0     C62658   4.719   9.822   6.798 -0.6020  0.6582  0.0541
  465MOL0     C62659   4.580   9.820   6.809  0.2021  0.2733  0.7589
  465MOL0     C62660   4.476   9.711   6.802 -0.2026 -0.0495  0.3766
  465MOL0     C62661   4.549   9.578   6.835 -0.7017  0.5987  0.0658
  465MOL0     C62662   4.448   9.464   6.830  0.5904  0.4526 -0.1174
  465MOL0     C62663   4.510   9.323   6.805  1.0193  0.0394 -0.1118
  465MOL0     O62664   4.406   9.236   6.853  0.0465 -0.2808  0.0929
  465MOL0     C62665   4.428   9.101   6.822 -0.2664 -0.2987 -0.1057
  465MOL0     C62666   4.526   9.054   6.727  0.4000 -0.0884 -0.9198
  465MOL0     C62667   4.554   8.919   6.727  0.5798 -0.4743 -0.4114
  465MOL0     C62668   4.497   8.828   6.816  0.9506 -0.1543  0.1009
  465MOL0     C62669   4.523   8.686   6.809  0.1009 -0.2127  0.7119
  465MOL0     O62670   4.550   8.640   6.681  0.4440 -0.0733  0.2941
  465MOL0     C62671   4.541   8.504   6.646 -1.4372  0.1023 -0.0287
  465MOL0     C62672   4.661   8.454   6.598  1.1460 -0.2664 -0.4094
  465MOL0     C62673   4.662   8.325   6.544 -0.5897  0.0967 -0.3011
  465MOL0     C62674   4.550   8.237   6.556 -1.1139  0.5996 -0.4795
  465MOL0     O62675   4.565   8.111   6.500 -0.2395 -0.3581  0.3643
  465MOL0     C62676   4.485   8.009   6.553 -0.5755  0.3970  0.4082
  465MOL0     C62677   4.519   7.899   6.453  0.1216  0.7373 -0.0980
  465MOL0     C62678   4.677   7.863   6.449 -0.1509 -0.4596 -0.2367
  465MOL0     C62679   4.685   7.735   6.363  0.3082 -0.2384 -0.8206
  465MOL0     C62680   4.834   7.693   6.385  0.0038 -0.0765 -0.0517
  465MOL0     C62681   4.865   7.601   6.266  0.3150  0.2225  0.1054
  465MOL0     C62682   4.771   7.480   6.246 -0.8999  0.3055 -0.5665
  465MOL0     C62683   4.821   7.365   6.156 -0.3883 -0.7734 -0.9128
  465MOL0    Cl62684   4.921   7.429   6.017 -0.3528  0.1846 -0.1442
  465MOL0     C62685   4.431   8.281   6.610  0.3015 -0.0262 -1.3925
  465MOL0     C62686   4.424   8.415   6.656  0.3076 -0.2863  0.6093
  465MOL0     O62687   4.500   8.621   6.908 -0.2799 -0.0286  0.3876
  465MOL0     C62688   4.391   8.879   6.906  0.3909 -0.5632 -0.6807
  465MOL0     C62689   4.361   9.018   6.903 -0.1845 -1.0889  0.6071
  465MOL0     N62690   4.541   9.949   6.808 -0.2622 -0.1889  0.1185
  465MOL0     N62691   4.645  10.032   6.791  1.1596 -0.2296  0.4641
  465MOL0     C62692   5.393   9.932   7.062 -0.8531 -0.3283 -0.4870
  465MOL0     C62693   5.360   9.807   7.118 -0.1000  0.2070  0.7194
  465MOL0     C62694   5.196   9.467   7.301 -0.3729  0.9599  0.3094
  465MOL0     C62695   5.079   9.517   7.354  0.6917 -0.0792  1.0075
  465MOL0     C62696   4.973   9.436   7.401  0.6099 -1.0368  0.1129
  465MOL0     C62697   4.995   9.294   7.397 -0.1698 -0.3870 -0.1804
  465MOL0     O62698   4.909   9.211   7.449 -0.0076 -1.2879  0.3044
  465MOL0     C62699   4.778   9.214   7.392  0.3382  0.1322 -0.3300
  465MOL0     C62700   4.771   9.187   7.248  0.9251 -0.5358  0.3027
  465MOL0     C62701   4.837   9.046   7.215 -0.6175  0.7177 -0.0351
  465MOL0     C62702   4.811   8.993   7.077 -0.0900  0.9656 -0.2804
  465MOL0     C62703   4.871   9.091   6.985 -0.1592  0.1348  0.2566
  465MOL0     C62704   4.912   9.166   6.898  0.0655  0.2118 -0.0530
  465MOL0     C62705   5.112   9.248   7.338 -0.0523 -0.0405 -0.4446
  465MOL0     C62706   5.217   9.328   7.301  0.5832  0.3402 -0.3154
  465MOL0     C62707   5.337   9.256   7.234 -0.2612  0.4647  0.1583
  465MOL0     H62708   5.350   9.900   7.436  0.0165 -1.3694  0.2055
  465MOL0     H62709   5.433  10.118   7.335 -3.7511  2.7857 -2.9375
  465MOL0     H62710   5.444  10.292   7.202  1.3194 -2.5096 -0.3784
  465MOL0     H62711   5.405  10.350   7.044 -0.5489  0.7882  0.2160
  465MOL0     H62712   5.209  10.367   7.164  1.2843  1.7260 -3.3124
  465MOL0     H62713   5.212  10.223   7.237  1.6568  1.1173  1.1387
  465MOL0     H62714   5.046  10.220   7.050  0.5226  1.3155 -1.4482
  465MOL0     H62715   5.173  10.103   7.021  0.9910  0.0520  2.0932
  465MOL0     H62716   5.189  10.398   6.923  2.0835  0.6679  1.3702
  465MOL0     H62717   5.287  10.271   6.856 -0.6108  1.4027 -0.3035
  465MOL0     H62718   5.001  10.277   6.798 -1.1667 -0.7578  0.1048
  465MOL0     H62719   5.142  10.316   6.699  1.6069  2.5179  2.3858
  465MOL0     H62720   5.126  10.096   6.640  1.0981 -0.0729  1.0594
  465MOL0     H62721   5.220  10.064   6.785  0.1106  0.5480 -0.7571
  465MOL0     H62722   4.993  10.053   6.906 -3.4766 -0.5331  0.0971
  465MOL0     H62723   5.052   9.921   6.810  2.6425  1.3046  2.2150
  465MOL0     H62724   4.850  10.123   6.707  0.3794  0.5717  2.0369
  465MOL0     H62725   4.903   9.979   6.620  1.2861 -2.2705  1.3847
  465MOL0     H62726   4.793   9.743   6.789 -1.4147  0.1233 -3.4299
  465MOL0     H62727   4.393   9.729   6.871 -0.4496 -0.5292  0.2085
  465MOL0     H62728   4.441   9.695   6.700 -3.1297 -0.0023  1.2753
  465MOL0     H62729   4.627   9.557   6.762  0.8304 -0.0561  1.8045
  465MOL0     H62730   4.593   9.585   6.935 -0.5478 -0.1018  0.0544
  465MOL0     H62731   4.368   9.478   6.757 -3.0814  0.0179  3.4628
  465MOL0     H62732   4.405   9.464   6.930  2.1420  1.9296  0.5923
  465MOL0     H62733   4.596   9.324   6.874 -1.4549 -1.3442  3.3164
  465MOL0     H62734   4.536   9.309   6.700 -1.3697 -1.4934 -0.5780
  465MOL0     H62735   4.579   9.128   6.668 -0.7673  0.4213 -1.3710
  465MOL0     H62736   4.625   8.884   6.652 -1.2706 -3.5939 -0.8834
  465MOL0     H62737   4.740   8.528   6.585 -0.1223  0.9568 -1.3711
  465MOL0     H62738   4.752   8.281   6.502 -0.0684 -2.1028  2.8067
  465MOL0     H62739   4.506   7.982   6.656 -1.3564 -2.2665 -0.0553
  465MOL0     H62740   4.376   8.008   6.536 -0.2082 -2.7998 -3.1490
  465MOL0     H62741   4.466   7.818   6.505 -1.4310  2.7381  1.6268
  465MOL0     H62742   4.477   7.927   6.356 -0.3012 -0.5766 -0.3176
  465MOL0     H62743   4.741   7.933   6.394  2.5562 -0.7321  2.2757
  465MOL0     H62744   4.716   7.861   6.551  0.5129 -3.7628 -0.4517
  465MOL0     H62745   4.639   7.753   6.265 -0.8148  1.9057  0.0490
  465MOL0     H62746   4.622   7.657   6.408 -0.7884  0.7952 -0.4949
  465MOL0     H62747   4.855   7.648   6.482 -1.2633  0.5392  0.5193
  465MOL0     H62748   4.889   7.788   6.376 -2.1549  1.2796  0.4732
  465MOL0     H62749   4.849   7.667   6.180  0.5332 -1.3289 -1.1664
  465MOL0     H62750   4.969   7.569   6.274 -0.7205 -3.1303  2.2153
  465MOL0     H62751   4.681   7.526   6.204  0.2051  1.5248 -1.7097
  465MOL0     H62752   4.754   7.428   6.341  1.6864  0.4907  0.0596
  465MOL0     H62753   4.873   7.292   6.219 -0.6027  1.5920  2.3063
  465MOL0     H62754   4.734   7.317   6.110 -0.9689 -2.7264  1.9338
  465MOL0     H62755   4.342   8.222   6.630  0.7945 -0.7895 -1.4178
  465MOL0     H62756   4.336   8.461   6.700 -0.8184 -1.8380  0.0877
  465MOL0     H62757   4.347   8.821   6.986  0.8092  0.7422  0.5313
  465MOL0     H62758   4.280   9.061   6.960  0.1822 -2.8586  2.5716
  465MOL0     H62759   5.405   9.939   6.955  1.7822  4.0277 -0.1597
  465MOL0     H62760   5.342   9.725   7.049  3.1148  0.6460 -0.7796
  465MOL0     H62761   5.073   9.625   7.359  0.9162 -0.0040 -0.1134
  465MOL0     H62762   4.885   9.484   7.441  1.0327 -1.9156  2.2001
  465MOL0     H62763   4.731   9.312   7.406 -3.4961 -1.6424  0.4765
  465MOL0     H62764   4.715   9.148   7.453  1.3778  0.5677  1.2620
  465MOL0     H62765   4.811   9.267   7.185 -2.8993  2.9073  1.8443
  465MOL0     H62766   4.667   9.172   7.220  1.3318  0.3147 -1.8309
  465MOL0     H62767   4.800   8.964   7.277 -1.8651 -0.3888 -2.1507
  465MOL0     H62768   4.944   9.052   7.238 -0.3763 -2.0008 -0.1369
  465MOL0     H62769   4.867   8.902   7.055 -1.0898  0.6847 -1.8353
  465MOL0     H62770   4.704   8.980   7.062 -0.0117 -2.7567  1.3489
  465MOL0     H62771   4.967   9.226   6.828 -0.3253  3.4390  2.1918
  465MOL0     H62772   5.123   9.141   7.331 -0.7547 -0.2810  1.5980
  465MOL0     H62773   5.351   9.295   7.133 -0.4699  0.6099  0.1843
  465MOL0     H62774   5.423   9.298   7.286 -1.2567  3.2716 -0.3190
  465MOL0     H62775   5.335   9.147   7.244 -0.2624  0.5427  1.1310
  466MOL0     O62776   7.810   4.900   2.795  0.6197  0.7867  0.2804
  466MOL0     C62777   7.835   4.919   2.907 -0.1011  1.2625 -0.5837
  466MOL0     O62778   7.800   5.024   2.986  0.0980 -0.5784  0.1139
  466MOL0     C62779   7.731   5.129   2.946  0.1867 -0.4880  0.2063
  466MOL0     C62780   7.762   5.259   2.993 -0.0740  0.0343  1.0882
  466MOL0     C62781   7.706   5.372   2.939  1.5598  0.4157  0.0336
  466MOL0     C62782   7.590   5.361   2.855 -1.0595 -0.8898 -0.2510
  466MOL0     O62783   7.511   5.465   2.798 -0.2280  0.9388  0.0538
  466MOL0     C62784   7.537   5.598   2.848 -0.4528 -0.2671 -0.5374
  466MOL0     C62785   7.410   5.675   2.826 -0.3927 -0.3644  0.3070
  466MOL0     C62786   7.412   5.720   2.671 -0.7462  0.1073 -1.6550
  466MOL0     C62787   7.283   5.806   2.666  1.4818  0.4007 -0.4847
  466MOL0     C62788   7.183   5.752   2.556  0.1712 -0.7672  0.5327
  466MOL0     C62789   7.225   5.751   2.407 -0.2261 -0.1065 -0.0218
  466MOL0     C62790   7.117   5.686   2.322 -0.3475  0.0675 -1.2586
  466MOL0     C62791   7.159   5.704   2.177  0.6982 -0.2040  0.3678
  466MOL0     N62792   7.059   5.636   2.092  1.1541 -1.3029 -0.1888
  466MOL0     C62793   7.068   5.517   2.024  0.3971 -0.4307  0.3974
  466MOL0     C62794   6.954   5.517   1.943 -0.5283 -0.1221 -0.7708
  466MOL0     C62795   6.914   5.408   1.839  0.1481 -0.7754 -0.0014
  466MOL0     C62796   6.793   5.321   1.894 -1.0124 -0.5009  0.0429
  466MOL0     C62797   6.837   5.208   1.983 -0.6509  0.0615 -0.7099
  466MOL0     C62798   6.873   5.250   2.125  0.4065 -0.1032 -0.4798
  466MOL0     O62799   6.950   5.140   2.181  0.5352  0.0929  0.0903
  466MOL0     C62800   6.889   5.025   2.223 -0.5353  0.2369  0.3460
  466MOL0     C62801   6.981   4.917   2.253 -0.0599  0.2643  0.0762
  466MOL0     C62802   6.938   4.791   2.289 -0.5695 -0.3516 -0.0244
  466MOL0     C62803   6.802   4.764   2.310 -0.3844 -0.7433  0.1126
  466MOL0     C62804   6.755   4.642   2.356 -1.3248  0.1063  0.4276
  466MOL0     O62805   6.636   4.646   2.430 -0.0952  0.7477 -0.4443
  466MOL0     C62806   6.591   4.535   2.500 -1.3200 -0.5737 -0.3575
  466MOL0     C62807   6.564   4.545   2.640 -0.1960 -0.3296 -0.5762
  466MOL0     C62808   6.511   4.429   2.714 -1.9766  0.3641  0.5789
  466MOL0     C62809   6.508   4.303   2.651  0.3136 -0.1260 -0.4288
  466MOL0     O62810   6.481   4.186   2.721 -0.0776 -0.2136  0.0238
  466MOL0     C62811   6.523   4.181   2.861  0.6265 -0.8205  0.0540
  466MOL0     C62812   6.560   4.033   2.893  0.0050  0.1982  0.8332
  466MOL0     C62813   6.693   3.999   2.824  0.5210  0.0394  0.2266
  466MOL0     C62814   6.743   3.865   2.867  0.7693 -1.7661 -0.5750
  466MOL0     C62815   6.885   3.850   2.818  1.1831 -0.3846 -0.4823
  466MOL0     C62816   6.932   3.717   2.869 -0.6171  0.7696 -0.3411
  466MOL0     C62817   7.088   3.700   2.887  0.4941  0.4074 -0.1615
  466MOL0     C62818   7.169   3.820   2.936 -0.0325  0.1261  0.7086
  466MOL0    Cl62819   7.092   3.884   3.086  0.4286 -0.2327 -0.2268
  466MOL0     C62820   6.526   4.301   2.511 -0.1666 -0.3427 -0.4806
  466MOL0     C62821   6.569   4.415   2.440 -0.8785 -0.5980 -0.1871
  466MOL0     O62822   6.820   4.535   2.335  0.6857  0.0067 -0.5079
  466MOL0     C62823   6.709   4.869   2.290  0.3409  0.4790 -0.0097
  466MOL0     C62824   6.750   4.997   2.243 -0.1426  0.6367  0.1518
  466MOL0     N62825   6.892   5.640   1.946  0.1216  0.0823  0.3697
  466MOL0     N62826   6.952   5.707   2.041 -0.3161  0.4754 -0.6213
  466MOL0     C62827   7.563   5.231   2.802 -0.3401 -0.1146 -0.2907
  466MOL0     C62828   7.632   5.122   2.851 -0.5383 -0.2584 -0.2862
  466MOL0     C62829   7.925   4.813   2.974  0.5143  0.0351 -0.9335
  466MOL0     C62830   7.927   4.811   3.115 -0.0838  0.3143 -0.4528
  466MOL0     C62831   7.996   4.700   3.181  0.1403 -1.5603 -0.0021
  466MOL0     C62832   8.065   4.607   3.112 -0.5432 -0.6057  0.9088
  466MOL0     O62833   8.149   4.512   3.167  0.1592  0.3135  0.2361
  466MOL0     C62834   8.133   4.485   3.304  0.2654  0.2343 -0.4416
  466MOL0     C62835   8.211   4.354   3.334  0.9001 -0.5521  0.5099
  466MOL0     C62836   8.355   4.363   3.321  0.2912 -1.1407 -0.0062
  466MOL0     C62837   8.435   4.241   3.369 -0.2000 -0.0653 -0.6496
  466MOL0     C62838   8.442   4.128   3.281 -0.6841 -0.4533  0.6462
  466MOL0     C62839   8.467   4.031   3.214 -0.0690 -0.3195  0.0484
  466MOL0     C62840   8.074   4.616   2.976  1.0746  0.5164  0.9943
  466MOL0     C62841   7.995   4.711   2.908  0.2402  0.0647 -0.3129
  466MOL0     C62842   8.001   4.698   2.755 -0.3365 -0.3574  0.4885
  466MOL0     H62843   7.836   5.269   3.072  2.7741  4.0432 -1.7022
  466MOL0     H62844   7.727   5.469   2.982 -0.2717  0.9599 -0.2154
  466MOL0     H62845   7.550   5.587   2.956 -0.1871 -0.1683 -0.5588
  466MOL0     H62846   7.624   5.645   2.801 -0.0449 -1.3498 -0.9050
  466MOL0     H62847   7.408   5.762   2.892 -0.2100  0.9559 -1.3690
  466MOL0     H62848   7.328   5.607   2.850  1.3144 -2.7540 -0.2731
  466MOL0     H62849   7.415   5.634   2.603  2.5566 -1.8656  0.6677
  466MOL0     H62850   7.500   5.784   2.661  0.9581 -1.5322  1.3085
  466MOL0     H62851   7.232   5.807   2.762  0.2024 -1.0057 -1.1099
  466MOL0     H62852   7.303   5.911   2.642 -0.3895  0.7810 -0.5834
  466MOL0     H62853   7.157   5.653   2.596  2.3762 -1.2609  0.8375
  466MOL0     H62854   7.103   5.826   2.567  0.7336 -0.3572  1.9961
  466MOL0     H62855   7.254   5.849   2.369 -0.6589 -0.6826 -1.9683
  466MOL0     H62856   7.309   5.681   2.403 -0.6427 -0.8559  2.6194
  466MOL0     H62857   7.023   5.736   2.346  0.4356  0.2355  1.8981
  466MOL0     H62858   7.114   5.581   2.354  2.1841  0.6127  1.2022
  466MOL0     H62859   7.169   5.807   2.143  0.1536  0.8505  3.1384
  466MOL0     H62860   7.252   5.648   2.161  0.7699  0.0615 -0.1434
  466MOL0     H62861   7.131   5.431   2.047  1.3285  0.0704 -0.2096
  466MOL0     H62862   6.892   5.453   1.742 -2.8158 -1.6955  0.1262
  466MOL0     H62863   6.995   5.337   1.825 -1.1634 -2.1280 -1.0776
  466MOL0     H62864   6.710   5.367   1.949 -3.4841 -1.1165 -2.9013
  466MOL0     H62865   6.761   5.262   1.808 -2.4663 -1.5193  1.2341
  466MOL0     H62866   6.926   5.168   1.934 -0.0981  0.3122  0.0636
  466MOL0     H62867   6.755   5.136   1.990 -1.9305  1.5620  0.3884
  466MOL0     H62868   6.781   5.273   2.181  1.8011  1.8979  1.1446
  466MOL0     H62869   6.935   5.340   2.131 -3.3032  2.6282  4.6475
  466MOL0     H62870   7.088   4.933   2.244  0.0009 -0.4332 -0.5587
  466MOL0     H62871   7.013   4.718   2.317  0.2662  0.0569 -1.1319
  466MOL0     H62872   6.587   4.636   2.696  1.6661  0.9632 -3.2314
  466MOL0     H62873   6.494   4.431   2.822  1.3455  1.6502  1.2212
  466MOL0     H62874   6.615   4.239   2.867 -0.3757  0.7460  0.6565
  466MOL0     H62875   6.455   4.231   2.930  1.8894  1.3508 -0.1774
  466MOL0     H62876   6.578   4.026   3.001 -2.0276  0.1824  1.2090
  466MOL0     H62877   6.482   3.962   2.865  0.2359 -0.6468  2.2206
  466MOL0     H62878   6.686   3.998   2.715  0.3064 -2.5871  0.2063
  466MOL0     H62879   6.768   4.070   2.861 -0.9782  0.4681  2.6114
  466MOL0     H62880   6.676   3.790   2.825 -2.0321  0.1498  0.1644
  466MOL0     H62881   6.734   3.852   2.976 -1.6855  0.9059 -0.3107
  466MOL0     H62882   6.934   3.927   2.878  0.7031 -2.4673  2.7875
  466MOL0     H62883   6.889   3.875   2.711 -1.5341  0.5636 -0.4249
  466MOL0     H62884   6.894   3.692   2.968  2.1091 -0.2328  0.5408
  466MOL0     H62885   6.900   3.650   2.789  1.1095  2.8266 -2.9751
  466MOL0     H62886   7.132   3.661   2.795 -0.2550 -2.0392  0.4547
  466MOL0     H62887   7.106   3.624   2.963 -1.0058  2.0970  2.0366
  466MOL0     H62888   7.274   3.793   2.945  0.1705  0.4796 -0.4665
  466MOL0     H62889   7.171   3.894   2.855  0.4152  1.3918  1.8300
  466MOL0     H62890   6.521   4.210   2.452 -2.6524 -0.5684 -0.0478
  466MOL0     H62891   6.591   4.412   2.334 -1.6734  2.6930 -0.5640
  466MOL0     H62892   6.604   4.842   2.295  0.3920 -1.1611 -4.0552
  466MOL0     H62893   6.665   5.062   2.229 -0.6711  0.5811  2.6729
  466MOL0     H62894   7.492   5.212   2.722 -2.0529 -0.2457  1.1841
  466MOL0     H62895   7.599   5.024   2.817  1.6462 -0.9241 -0.6550
  466MOL0     H62896   7.877   4.878   3.184 -3.2724 -1.2976 -1.0359
  466MOL0     H62897   7.983   4.688   3.288 -0.5889 -1.1473 -0.0362
  466MOL0     H62898   8.026   4.462   3.315  0.4232  0.3912  1.8544
  466MOL0     H62899   8.159   4.565   3.374  1.1859 -2.1894  2.1618
  466MOL0     H62900   8.180   4.285   3.255 -1.6742 -0.8508  1.6645
  466MOL0     H62901   8.180   4.314   3.431 -1.9146  0.6235  0.1951
  466MOL0     H62902   8.382   4.454   3.375  0.0627 -1.1674  0.1548
  466MOL0     H62903   8.388   4.386   3.220 -1.3620 -1.0613 -0.5681
  466MOL0     H62904   8.537   4.278   3.383 -0.4712  0.7013 -0.6416
  466MOL0     H62905   8.407   4.206   3.469  2.6539 -2.3284 -0.5043
  466MOL0     H62906   8.497   3.941   3.165  0.3696 -1.1485  1.7524
  466MOL0     H62907   8.122   4.535   2.922 -2.5572 -0.8712 -0.4990
  466MOL0     H62908   8.005   4.798   2.710  2.2062 -1.6549 -2.5717
  466MOL0     H62909   8.093   4.649   2.721  1.4470  2.4260  0.9823
  466MOL0     H62910   7.915   4.644   2.714  0.0090 -0.4380 -0.1531
  467MOL0     O62911   5.056   8.054   5.518 -0.8316  0.0984 -0.1865
  467MOL0     C62912   5.161   8.120   5.519 -0.2106 -0.0928  0.8469
  467MOL0     O62913   5.259   8.119   5.422  0.2188 -0.0381  0.6995
  467MOL0     C62914   5.247   8.045   5.304 -0.0278  1.2455  0.2702
  467MOL0     C62915   5.296   8.104   5.192 -0.1905 -0.0060 -0.0457
  467MOL0     C62916   5.288   8.044   5.067 -0.2574  0.2283  0.3336
  467MOL0     C62917   5.241   7.912   5.045 -0.5034 -0.1969 -0.8255
  467MOL0     O62918   5.222   7.852   4.924 -0.0164  0.2423  0.5790
  467MOL0     C62919   5.239   7.928   4.797 -0.0412  0.1562  0.1373
  467MOL0     C62920   5.132   8.030   4.760 -0.1837  0.0551  0.0782
  467MOL0     C62921   5.185   8.101   4.625 -0.0514  0.5478  0.4404
  467MOL0     C62922   5.096   8.205   4.575 -0.6017 -0.1304  0.2636
  467MOL0     C62923   5.128   8.239   4.424  0.1701 -0.5056 -1.6781
  467MOL0     C62924   5.040   8.350   4.375 -0.6370 -1.0535 -1.0532
  467MOL0     C62925   5.121   8.426   4.264 -0.2731  0.6832  0.6525
  467MOL0     C62926   5.121   8.355   4.125  0.2521  0.9144  0.5974
  467MOL0     N62927   4.991   8.362   4.054  0.9660 -0.0681  0.2958
  467MOL0     C62928   4.972   8.449   3.945  0.1151  1.7437  0.5747
  467MOL0     C62929   4.865   8.392   3.876  0.1981 -0.6898  0.2179
  467MOL0     C62930   4.807   8.445   3.746 -1.0063  0.1350  0.1797
  467MOL0     C62931   4.650   8.458   3.735  0.3692  0.9679  0.3784
  467MOL0     C62932   4.604   8.462   3.589  0.2287  0.8395  0.4227
  467MOL0     C62933   4.682   8.558   3.495  0.0442 -0.5852 -0.3312
  467MOL0     O62934   4.811   8.512   3.464  0.0675  0.2059  0.3074
  467MOL0     C62935   4.887   8.602   3.392 -0.3033  0.3826  0.1719
  467MOL0     C62936   4.846   8.706   3.309 -0.6498  0.3157 -0.4592
  467MOL0     C62937   4.948   8.788   3.252  0.9687  0.1367 -0.5661
  467MOL0     C62938   5.087   8.754   3.264 -0.3339  0.1832  0.9043
  467MOL0     C62939   5.194   8.838   3.196  0.0975 -0.9175 -0.0925
  467MOL0     O62940   5.316   8.784   3.157 -0.0929  0.1464  0.3062
  467MOL0     C62941   5.407   8.878   3.103  0.5560 -0.1323  0.9569
  467MOL0     C62942   5.506   8.938   3.179 -0.2531  0.6680  1.5979
  467MOL0     C62943   5.592   9.032   3.125  0.5782  0.1191  0.0802
  467MOL0     C62944   5.591   9.049   2.984 -0.2855  0.1624  0.0656
  467MOL0     O62945   5.672   9.137   2.919  0.9443 -0.6266  0.0197
  467MOL0     C62946   5.817   9.104   2.898 -0.1057 -0.0720  0.3800
  467MOL0     C62947   5.891   9.225   2.850  0.3272 -0.3127 -0.4400
  467MOL0     C62948   6.040   9.190   2.810 -0.2764 -0.4509  0.5624
  467MOL0     C62949   6.065   9.100   2.696 -0.1306 -0.1539  0.4238
  467MOL0     C62950   6.210   9.066   2.679 -0.7957 -0.0971 -0.1947
  467MOL0     C62951   6.320   9.168   2.629  0.0506 -0.4019  0.0858
  467MOL0     C62952   6.256   9.296   2.560 -0.3519 -0.3655 -0.7276
  467MOL0     C62953   6.372   9.397   2.522 -0.1153 -0.3272 -0.2153
  467MOL0    Cl62954   6.329   9.496   2.384 -0.1977 -0.0320 -0.1210
  467MOL0     C62955   5.501   8.984   2.911 -0.6210  0.0973  0.3846
  467MOL0     C62956   5.413   8.899   2.965  0.5238 -0.3666  0.2286
  467MOL0     O62957   5.150   8.953   3.170  0.0225 -0.6331 -0.4143
  467MOL0     C62958   5.121   8.628   3.328  0.1293 -0.2452  0.2032
  467MOL0     C62959   5.020   8.560   3.395  0.1854 -0.3936 -0.6779
  467MOL0     N62960   4.815   8.284   3.950  0.3085  0.0274 -0.2824
  467MOL0     N62961   4.887   8.276   4.056 -0.5900  0.2208 -0.3197
  467MOL0     C62962   5.207   7.846   5.163  0.1864  0.1021  0.6966
  467MOL0     C62963   5.196   7.913   5.284  0.2140 -0.5045  0.4012
  467MOL0     C62964   5.179   8.211   5.633  0.2405  0.7848  0.1060
  467MOL0     C62965   5.315   8.254   5.654  0.2152 -0.0346  0.6547
  467MOL0     C62966   5.351   8.348   5.755 -0.3236 -0.3901 -0.1445
  467MOL0     C62967   5.251   8.406   5.830  0.6366  0.2886 -0.3363
  467MOL0     O62968   5.274   8.492   5.937  0.2300  0.7537  0.1044
  467MOL0     C62969   5.400   8.568   5.959 -0.1087  1.1892 -0.8545
  467MOL0     C62970   5.384   8.697   6.033  0.2233  0.2854  0.3741
  467MOL0     C62971   5.349   8.689   6.176 -0.4735 -0.1205  0.2022
  467MOL0     C62972   5.349   8.822   6.253  1.1390 -0.4202 -0.1388
  467MOL0     C62973   5.233   8.909   6.221 -0.3362  0.1003 -0.2899
  467MOL0     C62974   5.152   8.983   6.173  0.1102  0.6760 -0.8599
  467MOL0     C62975   5.119   8.366   5.810 -0.3571 -0.5899  0.7596
  467MOL0     C62976   5.080   8.273   5.712  1.4219  0.4742 -0.3273
  467MOL0     C62977   4.933   8.223   5.713  0.1979  0.4794  0.5351
  467MOL0     H62978   5.355   8.194   5.209  1.4609 -1.1761  0.6418
  467MOL0     H62979   5.330   8.099   4.983  0.3156 -3.9223 -2.3805
  467MOL0     H62980   5.342   7.965   4.791  0.1536 -0.5559 -1.6103
  467MOL0     H62981   5.250   7.850   4.720  1.7342  0.8452 -0.3612
  467MOL0     H62982   5.121   8.106   4.838  4.7508  0.1742  0.9335
  467MOL0     H62983   5.040   7.972   4.746 -1.2942  1.1669  2.2939
  467MOL0     H62984   5.185   8.022   4.548 -1.1485  1.6728 -0.7603
  467MOL0     H62985   5.287   8.137   4.640  1.3606 -1.8324 -2.3021
  467MOL0     H62986   4.994   8.166   4.589  0.1262 -1.9037  0.8547
  467MOL0     H62987   5.104   8.298   4.631  1.4352  0.1715 -0.4651
  467MOL0     H62988   5.236   8.254   4.426  0.8160 -4.0338 -2.2480
  467MOL0     H62989   5.095   8.147   4.375 -3.7731 -0.9343  1.2990
  467MOL0     H62990   4.937   8.315   4.361 -1.1935 -1.1216  2.3022
  467MOL0     H62991   5.025   8.430   4.448 -1.3210 -1.6280 -0.5431
  467MOL0     H62992   5.222   8.459   4.292 -0.1234  0.6468  0.1650
  467MOL0     H62993   5.074   8.521   4.239 -2.6734 -0.7181 -0.5110
  467MOL0     H62994   5.196   8.398   4.058  1.8643  2.2966  3.1060
  467MOL0     H62995   5.137   8.248   4.141  1.8897  1.2545  1.4621
  467MOL0     H62996   5.041   8.531   3.925  2.0642 -0.1296 -0.9700
  467MOL0     H62997   4.849   8.543   3.719 -0.0743 -0.7226 -1.6915
  467MOL0     H62998   4.853   8.371   3.679 -0.2315 -0.3067  1.1712
  467MOL0     H62999   4.593   8.380   3.787  1.0227  1.3586  1.7111
  467MOL0     H63000   4.622   8.550   3.788  2.3466  0.5828  2.2166
  467MOL0     H63001   4.498   8.488   3.587 -0.0663 -0.3012 -1.3145
  467MOL0     H63002   4.615   8.357   3.560 -1.1569 -0.2254  3.3738
  467MOL0     H63003   4.693   8.654   3.545 -1.2155  0.0056 -1.1361
  467MOL0     H63004   4.627   8.587   3.405  1.4042  5.1262  0.3212
  467MOL0     H63005   4.746   8.749   3.304 -0.2940  1.2989  0.5541
  467MOL0     H63006   4.904   8.870   3.196 -4.8417 -3.0770 -1.5392
  467MOL0     H63007   5.527   8.916   3.283  2.2850 -1.3123  0.7562
  467MOL0     H63008   5.667   9.084   3.185 -1.5462  1.9870  1.3034
  467MOL0     H63009   5.865   9.074   2.992 -1.1592 -2.6715  0.1845
  467MOL0     H63010   5.820   9.026   2.821  0.3597  2.1365 -1.9606
  467MOL0     H63011   5.843   9.285   2.773  0.2425  3.6498  2.3703
  467MOL0     H63012   5.897   9.290   2.939 -1.8212 -2.8466  1.7129
  467MOL0     H63013   6.102   9.279   2.794 -1.7083  0.9037  2.1806
  467MOL0     H63014   6.082   9.126   2.888  0.0868 -1.3786 -0.3713
  467MOL0     H63015   6.028   9.146   2.604  1.6956  1.6072  0.5093
  467MOL0     H63016   6.019   9.002   2.714  0.7285 -0.7813 -0.6753
  467MOL0     H63017   6.215   8.981   2.610  1.6808 -0.3456  0.2201
  467MOL0     H63018   6.248   9.020   2.771 -1.1959 -2.4584 -1.1452
  467MOL0     H63019   6.390   9.199   2.707 -0.4350 -0.4520  0.5433
  467MOL0     H63020   6.376   9.112   2.553 -5.0886 -1.5620 -3.3632
  467MOL0     H63021   6.182   9.347   2.622  0.8838  1.5683 -0.7618
  467MOL0     H63022   6.209   9.274   2.464  0.7763  0.5290 -1.5186
  467MOL0     H63023   6.396   9.454   2.612  1.2762  0.6174 -1.1348
  467MOL0     H63024   6.467   9.354   2.490  1.1807 -0.1665  3.0503
  467MOL0     H63025   5.501   9.007   2.805 -0.8322  2.0346  0.7628
  467MOL0     H63026   5.349   8.840   2.901  0.2387 -0.1712  0.3309
  467MOL0     H63027   5.219   8.582   3.335 -0.5404 -2.6031 -3.4148
  467MOL0     H63028   5.055   8.474   3.452  1.5201  0.2884 -0.4116
  467MOL0     H63029   5.167   7.747   5.147  0.1787 -0.3524  3.1783
  467MOL0     H63030   5.158   7.862   5.372  0.9035 -2.2970 -0.2978
  467MOL0     H63031   5.392   8.198   5.601 -0.1805 -2.5191  2.5271
  467MOL0     H63032   5.455   8.376   5.770 -0.0506 -1.1779 -0.4786
  467MOL0     H63033   5.455   8.574   5.865  0.6069 -0.6902 -0.6140
  467MOL0     H63034   5.465   8.511   6.027 -1.9887  0.4609  0.4080
  467MOL0     H63035   5.302   8.747   5.980  0.8483  0.8307 -0.0892
  467MOL0     H63036   5.479   8.749   6.021  1.0115 -1.3373 -0.8131
  467MOL0     H63037   5.427   8.628   6.222 -0.7070  0.1887  1.0226
  467MOL0     H63038   5.257   8.629   6.181 -0.3642 -0.2990  0.0831
  467MOL0     H63039   5.345   8.787   6.357 -1.2950 -0.0706 -0.0657
  467MOL0     H63040   5.434   8.891   6.248 -0.1291  1.2543  0.4877
  467MOL0     H63041   5.075   9.053   6.148 -1.9327  0.0911  3.0319
  467MOL0     H63042   5.051   8.398   5.888  0.7129 -2.3592  2.5243
  467MOL0     H63043   4.886   8.221   5.614  1.4627 -3.3051 -0.1718
  467MOL0     H63044   4.942   8.118   5.744 -1.7933  1.0629  3.4559
  467MOL0     H63045   4.867   8.277   5.781  0.7427  0.0998  1.3920
  468MOL0     O63046   4.461   2.327   4.553  0.2668  0.2855 -0.7351
  468MOL0     C63047   4.572   2.384   4.557  0.3133 -0.0081 -0.9336
  468MOL0     O63048   4.661   2.394   4.662 -0.5101  0.7961  0.7973
  468MOL0     C63049   4.636   2.331   4.786 -0.9723 -0.1802  0.2749
  468MOL0     C63050   4.726   2.232   4.834 -0.1019 -0.4288 -0.6391
  468MOL0     C63051   4.696   2.176   4.961 -0.6859 -0.2146  0.2810
  468MOL0     C63052   4.579   2.205   5.034 -0.1765 -0.4744 -0.0563
  468MOL0     O63053   4.553   2.135   5.146  0.0898  0.3224  0.1062
  468MOL0     C63054   4.430   2.157   5.221  0.3017 -0.4916 -1.0474
  468MOL0     C63055   4.444   2.111   5.363 -0.0660 -0.4672  0.1038
  468MOL0     C63056   4.452   1.962   5.383 -0.1739 -0.4499  0.4320
  468MOL0     C63057   4.454   1.917   5.533  0.0341 -0.3409 -0.4071
  468MOL0     C63058   4.469   1.770   5.548 -0.1798  0.0231  0.3700
  468MOL0     C63059   4.522   1.742   5.693 -0.6563 -1.0417 -0.0627
  468MOL0     C63060   4.555   1.597   5.719 -0.1416  0.6647 -0.0960
  468MOL0     C63061   4.592   1.544   5.860 -0.3475 -0.2878  0.3352
  468MOL0     N63062   4.680   1.638   5.933 -0.2358  0.2722  0.1670
  468MOL0     C63063   4.811   1.662   5.915 -0.6673 -0.3342  0.0310
  468MOL0     C63064   4.849   1.771   5.985 -1.3525 -0.7248  0.1731
  468MOL0     C63065   4.977   1.838   5.965 -1.0143 -0.3265 -0.2388
  468MOL0     C63066   5.087   1.748   6.012 -0.5340  0.7278 -0.8882
  468MOL0     C63067   5.070   1.715   6.164  1.0006 -0.8182  0.7412
  468MOL0     C63068   5.204   1.668   6.207  0.4349 -0.2743 -0.3716
  468MOL0     O63069   5.177   1.568   6.307 -0.3791  0.3937 -0.5928
  468MOL0     C63070   5.265   1.548   6.413 -1.5438 -0.0655 -0.9488
  468MOL0     C63071   5.214   1.523   6.538  0.1000 -0.0925  0.5037
  468MOL0     C63072   5.299   1.503   6.651  1.0621  0.3912 -0.0256
  468MOL0     C63073   5.432   1.515   6.629  0.0834  0.4036  0.0515
  468MOL0     C63074   5.538   1.480   6.736 -0.0856  0.0354  0.1536
  468MOL0     O63075   5.664   1.475   6.697 -0.1573  0.1770 -0.4293
  468MOL0     C63076   5.764   1.472   6.787  0.0929 -0.6500 -0.6007
  468MOL0     C63077   5.824   1.354   6.817 -0.3203  0.6210  0.2886
  468MOL0     C63078   5.921   1.337   6.913  0.6971 -0.7215  0.3804
  468MOL0     C63079   5.980   1.449   6.980  0.3789  0.2050  0.2711
  468MOL0     O63080   6.083   1.429   7.068  0.1331 -0.3192 -0.1175
  468MOL0     C63081   6.106   1.526   7.175 -0.2671  0.2195  0.0294
  468MOL0     C63082   6.221   1.475   7.264 -0.6225  0.5098  0.2742
  468MOL0     C63083   6.178   1.367   7.368 -0.4377 -0.8459  0.4553
  468MOL0     C63084   6.285   1.339   7.472 -0.6604 -0.5255  0.6334
  468MOL0     C63085   6.253   1.250   7.589 -0.1481 -0.0727  1.0192
  468MOL0     C63086   6.379   1.173   7.637 -0.4921 -0.2204 -0.1674
  468MOL0     C63087   6.354   1.078   7.748  0.7095  0.1375  0.1211
  468MOL0     C63088   6.496   1.030   7.798  0.4861 -0.8666 -0.0692
  468MOL0    Cl63089   6.497   0.974   7.974 -0.1289  0.2805  0.0529
  468MOL0     C63090   5.914   1.573   6.953 -0.5382  0.0072  0.0912
  468MOL0     C63091   5.808   1.588   6.857 -0.1264 -0.4416 -0.0205
  468MOL0     O63092   5.498   1.483   6.847  0.7709 -0.0422  0.4199
  468MOL0     C63093   5.481   1.557   6.502 -0.4392 -0.3608 -0.3455
  468MOL0     C63094   5.396   1.572   6.394  0.1211  0.5248 -0.8752
  468MOL0     N63095   4.744   1.811   6.056 -0.7610 -0.7369  0.0501
  468MOL0     N63096   4.637   1.735   6.018  0.5812 -0.9853  0.1548
  468MOL0     C63097   4.493   2.303   4.984  1.0653 -0.9661  0.4064
  468MOL0     C63098   4.523   2.368   4.864 -0.0160 -0.2469 -0.4847
  468MOL0     C63099   4.629   2.429   4.436  0.2150  0.7850  0.3006
  468MOL0     C63100   4.688   2.560   4.448  0.6102 -1.0324  0.8623
  468MOL0     C63101   4.739   2.625   4.334  0.5955 -1.0642  0.6291
  468MOL0     C63102   4.732   2.557   4.209  0.7868 -0.5729  0.2998
  468MOL0     O63103   4.782   2.603   4.093  0.6292 -0.2172 -0.5412
  468MOL0     C63104   4.858   2.721   4.077 -0.8838 -0.0594  0.4784
  468MOL0     C63105   4.909   2.729   3.935 -0.1409 -0.2695  0.3648
  468MOL0     C63106   5.032   2.642   3.906 -0.8529  0.3455 -0.2700
  468MOL0     C63107   5.080   2.649   3.757  0.2751 -0.5602  0.6683
  468MOL0     C63108   5.205   2.572   3.725  0.0227  0.2409 -0.2225
  468MOL0     C63109   5.312   2.514   3.698  0.8267  0.8149 -0.2256
  468MOL0     C63110   4.688   2.421   4.194 -0.6228 -0.4811 -0.3485
  468MOL0     C63111   4.639   2.360   4.309  0.4807  0.5195 -1.0521
  468MOL0     C63112   4.579   2.222   4.308  0.6431  0.1477  1.1793
  468MOL0     H63113   4.812   2.200   4.776  0.2676 -1.8501  0.6171
  468MOL0     H63114   4.759   2.089   4.980 -0.2935 -0.7844 -3.0071
  468MOL0     H63115   4.409   2.264   5.232  0.3603 -0.4811 -1.0391
  468MOL0     H63116   4.340   2.116   5.173  0.1956  1.6456 -2.8405
  468MOL0     H63117   4.354   2.150   5.411  2.2869  5.2624  0.5633
  468MOL0     H63118   4.530   2.164   5.403 -0.5380  3.2632 -3.1330
  468MOL0     H63119   4.535   1.915   5.329 -0.1748 -2.1322  1.8176
  468MOL0     H63120   4.364   1.916   5.338 -0.4027  2.3176 -2.3132
  468MOL0     H63121   4.544   1.963   5.575  0.1885 -1.8703  1.0598
  468MOL0     H63122   4.363   1.943   5.587 -0.1064 -1.5203 -0.0453
  468MOL0     H63123   4.370   1.728   5.533  0.1140 -0.3552 -0.5870
  468MOL0     H63124   4.546   1.717   5.491  0.1314  0.3067  0.5248
  468MOL0     H63125   4.610   1.806   5.706 -0.4129 -0.5653 -3.2522
  468MOL0     H63126   4.441   1.785   5.753  1.0486  0.5662  1.2030
  468MOL0     H63127   4.646   1.571   5.666 -0.2503 -0.1259  0.0883
  468MOL0     H63128   4.474   1.531   5.684 -0.1236  1.3899 -1.5765
  468MOL0     H63129   4.505   1.537   5.926 -1.2180  3.4363 -0.1672
  468MOL0     H63130   4.641   1.446   5.862 -1.6072 -0.9841  3.6247
  468MOL0     H63131   4.877   1.603   5.852 -0.4106 -1.2653  1.1368
  468MOL0     H63132   4.985   1.877   5.863 -2.3291 -0.4422 -0.3961
  468MOL0     H63133   4.979   1.916   6.041 -2.4526 -1.1113  0.6507
  468MOL0     H63134   5.085   1.649   5.965  1.7121 -1.7967  3.6236
  468MOL0     H63135   5.182   1.795   5.984  0.9656 -1.5236  0.0838
  468MOL0     H63136   4.986   1.646   6.176  0.3313  0.1363  1.8581
  468MOL0     H63137   5.047   1.806   6.222  0.8102  0.2489 -0.9382
  468MOL0     H63138   5.259   1.754   6.247 -2.1983  0.4943  1.8805
  468MOL0     H63139   5.261   1.623   6.126 -0.6377 -2.1648 -0.1209
  468MOL0     H63140   5.106   1.532   6.537 -0.1153 -1.9464  1.9258
  468MOL0     H63141   5.268   1.470   6.750  1.4347  0.6321  0.1719
  468MOL0     H63142   5.803   1.261   6.765  0.3915  1.1916 -1.0517
  468MOL0     H63143   5.971   1.242   6.928  0.6517 -0.3727  3.2393
  468MOL0     H63144   6.128   1.624   7.131  2.2332  0.5069  1.7305
  468MOL0     H63145   6.020   1.540   7.241  1.5058 -0.6591  2.6657
  468MOL0     H63146   6.302   1.440   7.199  0.2251  2.8283 -0.0248
  468MOL0     H63147   6.270   1.560   7.312  0.6893  0.3502 -0.7214
  468MOL0     H63148   6.087   1.409   7.413 -0.0285 -0.2905  0.7652
  468MOL0     H63149   6.148   1.278   7.312  2.8722 -0.6382 -1.9133
  468MOL0     H63150   6.307   1.440   7.510 -3.0267  0.1949  0.2134
  468MOL0     H63151   6.374   1.289   7.432 -1.5722 -1.1688 -0.6381
  468MOL0     H63152   6.176   1.178   7.562  0.7109 -0.0556 -1.7617
  468MOL0     H63153   6.215   1.323   7.662  2.2881  1.9721  0.3815
  468MOL0     H63154   6.419   1.109   7.558  3.4844  1.9447 -0.1666
  468MOL0     H63155   6.457   1.250   7.645 -1.3784  0.9103 -1.8193
  468MOL0     H63156   6.282   1.002   7.716  0.2157  0.0045  1.4854
  468MOL0     H63157   6.314   1.133   7.833  2.2234 -1.5404  2.0245
  468MOL0     H63158   6.526   0.946   7.735 -1.1638 -0.3271 -1.6732
  468MOL0     H63159   6.567   1.113   7.800  0.7575 -1.1023  0.6817
  468MOL0     H63160   5.951   1.662   7.003  1.2188 -1.1979  1.0744
  468MOL0     H63161   5.761   1.685   6.840 -0.3338 -0.6673 -0.7718
  468MOL0     H63162   5.589   1.568   6.493 -0.6935  1.3830 -1.6403
  468MOL0     H63163   5.427   1.628   6.307  2.1412  1.2222  0.2421
  468MOL0     H63164   4.412   2.349   5.040  0.4654 -0.9620 -0.4552
  468MOL0     H63165   4.460   2.452   4.835 -1.4999  1.0580  5.3031
  468MOL0     H63166   4.692   2.618   4.540 -1.7560 -2.7807  2.1881
  468MOL0     H63167   4.772   2.728   4.349 -2.4193  0.1783 -0.5397
  468MOL0     H63168   4.942   2.723   4.148 -0.6593  2.0754  0.2205
  468MOL0     H63169   4.804   2.816   4.085  0.2304  1.1322 -3.6211
  468MOL0     H63170   4.928   2.832   3.903  2.5812 -0.6695  0.4133
  468MOL0     H63171   4.827   2.703   3.867  0.3745  2.1878 -1.3173
  468MOL0     H63172   5.010   2.537   3.932  0.0016  0.3054  0.3640
  468MOL0     H63173   5.123   2.666   3.963  0.5925 -4.1024 -0.2286
  468MOL0     H63174   4.996   2.640   3.688  0.5905  3.0158 -0.4042
  468MOL0     H63175   5.110   2.754   3.750  0.4272 -0.6340  0.2264
  468MOL0     H63176   5.399   2.461   3.667  1.0345  1.4310 -0.7220
  468MOL0     H63177   4.689   2.389   4.090  1.3743  3.5911 -1.8129
  468MOL0     H63178   4.617   2.175   4.217 -1.3477  4.7491 -2.4794
  468MOL0     H63179   4.607   2.166   4.398 -0.6487 -4.2392 -0.9058
  468MOL0     H63180   4.470   2.224   4.304  0.6097 -1.0898  1.2571
  469MOL0     O63181   1.872   6.258   4.230  0.1440  0.0104  0.0721
  469MOL0     C63182   1.841   6.200   4.127  0.3020 -0.3098 -0.6030
  469MOL0     O63183   1.860   6.251   4.000 -0.3524 -0.2655  0.4201
  469MOL0     C63184   1.906   6.378   3.957 -0.9983  0.0885  1.0152
  469MOL0     C63185   1.941   6.406   3.825  0.8211  0.2433 -0.1943
  469MOL0     C63186   1.995   6.528   3.786  0.3959  0.3184  0.1199
  469MOL0     C63187   2.005   6.635   3.879  0.0544 -0.2323 -1.0984
  469MOL0     O63188   2.051   6.761   3.830  0.4775  0.8863  0.4653
  469MOL0     C63189   2.052   6.885   3.909  0.5721 -0.4628 -0.5976
  469MOL0     C63190   1.900   6.917   3.946  0.2784  0.7920  0.3070
  469MOL0     C63191   1.881   7.044   4.030  0.5377 -0.4581 -0.1588
  469MOL0     C63192   1.989   7.056   4.139 -0.3024  0.5423 -0.4496
  469MOL0     C63193   1.960   7.162   4.245 -0.2694  1.2869 -0.7615
  469MOL0     C63194   2.070   7.223   4.324 -0.3144  0.2077  0.2354
  469MOL0     C63195   2.136   7.121   4.425 -0.5949  0.1933 -0.1960
  469MOL0     C63196   2.277   7.148   4.458  0.6502 -0.1657  0.0339
  469MOL0     N63197   2.312   7.123   4.601  0.3920  0.5332 -0.4190
  469MOL0     C63198   2.279   7.204   4.710  0.0960  0.0624 -0.3077
  469MOL0     C63199   2.334   7.148   4.819  0.0182 -0.7098 -0.1015
  469MOL0     C63200   2.365   7.219   4.950  1.3182  0.2369 -0.5509
  469MOL0     C63201   2.238   7.223   5.047  0.9136  0.6806  0.3001
  469MOL0     C63202   2.268   7.321   5.170  0.4780  0.0185  0.2355
  469MOL0     C63203   2.276   7.471   5.139 -0.7165 -0.9625 -0.3434
  469MOL0     O63204   2.413   7.514   5.137 -0.2314  0.5043  0.1316
  469MOL0     C63205   2.464   7.639   5.184 -0.4663 -0.3227  0.4485
  469MOL0     C63206   2.382   7.751   5.192 -0.0245 -1.3488 -0.6772
  469MOL0     C63207   2.429   7.872   5.249  0.6691  0.7722 -0.2352
  469MOL0     C63208   2.559   7.876   5.299 -0.0326  0.1363  0.0143
  469MOL0     C63209   2.610   8.003   5.361  0.1606 -0.6762  0.2270
  469MOL0     O63210   2.516   8.088   5.408 -0.5421 -0.2331  0.3427
  469MOL0     C63211   2.549   8.198   5.482  0.3599 -0.4239 -0.1435
  469MOL0     C63212   2.450   8.244   5.570  0.2473  0.3333  0.3240
  469MOL0     C63213   2.471   8.363   5.648  0.6495 -0.7625 -0.1182
  469MOL0     C63214   2.589   8.441   5.635  0.0205 -0.1991 -0.1222
  469MOL0     O63215   2.621   8.538   5.725  0.3293 -0.1837  0.2513
  469MOL0     C63216   2.564   8.667   5.692  0.0546 -0.7086 -0.7436
  469MOL0     C63217   2.590   8.741   5.826 -0.6373  0.3518  0.2396
  469MOL0     C63218   2.547   8.894   5.823  0.7893  1.1290 -0.4354
  469MOL0     C63219   2.605   8.968   5.945 -0.1041  0.0021  0.9359
  469MOL0     C63220   2.538   9.101   5.967  0.0642 -1.1562 -0.1790
  469MOL0     C63221   2.614   9.192   6.065 -0.5179  0.5059 -0.1616
  469MOL0     C63222   2.528   9.307   6.097  0.2712 -0.0323  0.5715
  469MOL0     C63223   2.581   9.402   6.209  0.0313 -0.0894  0.5780
  469MOL0    Cl63224   2.454   9.531   6.223  0.5548  0.0582  0.2156
  469MOL0     C63225   2.687   8.387   5.547 -0.7723  0.3848  0.6677
  469MOL0     C63226   2.663   8.268   5.467  0.3916 -0.0598 -0.5003
  469MOL0     O63227   2.729   8.014   5.374 -1.1827 -0.0167  0.0611
  469MOL0     C63228   2.639   7.762   5.295 -0.4409  0.5171  0.1497
  469MOL0     C63229   2.596   7.643   5.237 -0.1739  0.3871 -0.1556
  469MOL0     N63230   2.388   7.030   4.776 -0.3970  0.3039 -0.3142
  469MOL0     N63231   2.365   7.012   4.652 -0.5294 -0.2211 -0.6145
  469MOL0     C63232   1.979   6.604   4.011  0.0307  0.0789  0.7712
  469MOL0     C63233   1.930   6.477   4.043  0.3228 -0.2728 -0.7845
  469MOL0     C63234   1.769   6.075   4.149  0.0303  0.4178 -0.2530
  469MOL0     C63235   1.673   6.049   4.051  0.7349  0.4361  0.0155
  469MOL0     C63236   1.600   5.931   4.054 -0.2446 -0.0860 -0.2315
  469MOL0     C63237   1.639   5.826   4.135 -0.2724 -0.2594 -0.1584
  469MOL0     O63238   1.583   5.706   4.113 -0.6016 -0.3306  0.5047
  469MOL0     C63239   1.560   5.633   4.234 -0.2107 -0.5027  0.4429
  469MOL0     C63240   1.433   5.555   4.230  0.8425  0.3298  0.9899
  469MOL0     C63241   1.379   5.520   4.365 -0.7822  1.0744 -1.6163
  469MOL0     C63242   1.264   5.413   4.372  0.6564 -0.4675 -0.2198
  469MOL0     C63243   1.222   5.404   4.514  0.8002 -0.7351 -0.1565
  469MOL0     C63244   1.185   5.398   4.627 -0.1084  0.8209  0.2722
  469MOL0     C63245   1.739   5.853   4.226  0.2431 -0.3019  0.3395
  469MOL0     C63246   1.798   5.975   4.247  0.8580 -0.1654  0.6451
  469MOL0     C63247   1.901   5.986   4.352  0.1064  0.5176  0.1996
  469MOL0     H63248   1.935   6.323   3.755  0.9126 -0.3298  0.4703
  469MOL0     H63249   2.014   6.533   3.679  0.5794 -0.6973  0.0953
  469MOL0     H63250   2.116   6.887   3.998 -0.1172 -2.0846 -0.0216
  469MOL0     H63251   2.099   6.966   3.852  0.2695 -0.9370 -1.5525
  469MOL0     H63252   1.856   6.838   4.008  3.3276  0.0660  1.7395
  469MOL0     H63253   1.845   6.939   3.854  2.2258  0.7081 -0.9341
  469MOL0     H63254   1.776   7.057   4.059 -0.4447 -2.4562 -2.4408
  469MOL0     H63255   1.893   7.138   3.974  1.7376  1.1970  2.6504
  469MOL0     H63256   1.994   6.955   4.181  0.8649  0.2984 -1.1121
  469MOL0     H63257   2.095   7.068   4.114  0.2141  0.7842  1.7041
  469MOL0     H63258   1.923   7.250   4.191 -1.1646  2.2189  1.2696
  469MOL0     H63259   1.880   7.134   4.314  0.5793  0.9250  0.1110
  469MOL0     H63260   2.143   7.266   4.255 -1.1763  0.7637 -0.3671
  469MOL0     H63261   2.025   7.300   4.388  1.2986 -0.4226  2.2137
  469MOL0     H63262   2.116   7.020   4.387 -2.7902  0.7445 -0.6588
  469MOL0     H63263   2.080   7.110   4.518 -0.2878  1.2056  0.1223
  469MOL0     H63264   2.339   7.083   4.395  2.0797  1.3337 -0.1798
  469MOL0     H63265   2.312   7.249   4.433  0.4748  0.0040  0.4501
  469MOL0     H63266   2.243   7.307   4.710  0.3345  0.1755  1.4498
  469MOL0     H63267   2.443   7.165   5.005 -1.3438 -1.3504  1.9664
  469MOL0     H63268   2.393   7.322   4.927  1.7633  0.4649  0.9511
  469MOL0     H63269   2.150   7.254   4.991  0.5198 -0.2322  0.3939
  469MOL0     H63270   2.230   7.123   5.090  1.9618  0.2727 -0.4028
  469MOL0     H63271   2.346   7.287   5.238  0.0599  2.4409  2.0809
  469MOL0     H63272   2.185   7.310   5.240  1.4062  1.5628  1.6657
  469MOL0     H63273   2.219   7.531   5.211  1.6906  0.1864  0.7326
  469MOL0     H63274   2.238   7.489   5.038 -1.5366 -0.5313  0.0329
  469MOL0     H63275   2.276   7.749   5.169 -0.1996  2.8488 -1.0760
  469MOL0     H63276   2.363   7.957   5.264  0.4463  0.7527 -1.0702
  469MOL0     H63277   2.362   8.180   5.564  2.0770 -2.1557 -2.5644
  469MOL0     H63278   2.407   8.393   5.730 -1.6925 -1.5807 -1.5522
  469MOL0     H63279   2.628   8.709   5.614  0.2830  3.1365  1.3026
  469MOL0     H63280   2.459   8.665   5.661 -0.4274 -2.1466  0.8480
  469MOL0     H63281   2.532   8.692   5.905 -1.3133  0.9298  0.1083
  469MOL0     H63282   2.696   8.730   5.851 -1.2777 -1.4272  2.6074
  469MOL0     H63283   2.578   8.936   5.727  2.2012 -0.1167 -0.5686
  469MOL0     H63284   2.438   8.903   5.832  0.7401 -0.9083  2.1325
  469MOL0     H63285   2.711   8.986   5.928 -0.5752  1.2490 -1.0609
  469MOL0     H63286   2.582   8.908   6.034 -1.3620 -1.5473 -0.3608
  469MOL0     H63287   2.447   9.072   6.021  0.5517 -3.2497 -0.3957
  469MOL0     H63288   2.510   9.159   5.879  0.7887  1.9085  1.4895
  469MOL0     H63289   2.625   9.125   6.151 -1.5093 -0.2924 -0.6449
  469MOL0     H63290   2.706   9.227   6.017 -0.6264 -2.1300 -2.5061
  469MOL0     H63291   2.431   9.274   6.135  0.5856 -0.6378  0.8634
  469MOL0     H63292   2.511   9.373   6.011  1.4808  2.0146  1.8362
  469MOL0     H63293   2.585   9.345   6.302 -0.8681  0.9452  1.2750
  469MOL0     H63294   2.678   9.449   6.194  0.2579 -0.4520  0.9076
  469MOL0     H63295   2.785   8.433   5.538  0.0882 -1.3512  0.8715
  469MOL0     H63296   2.737   8.237   5.394 -0.0729  0.0383 -1.0231
  469MOL0     H63297   2.744   7.773   5.320 -0.4886 -0.6078  0.9338
  469MOL0     H63298   2.664   7.560   5.218 -1.6259 -0.7185 -0.7432
  469MOL0     H63299   2.011   6.670   4.092  0.4673 -0.6568  1.2072
  469MOL0     H63300   1.898   6.466   4.146 -1.0943 -1.4667 -1.3191
  469MOL0     H63301   1.647   6.126   3.979  2.1031 -0.4125 -1.4363
  469MOL0     H63302   1.512   5.899   3.998 -0.3164  1.0626 -0.8001
  469MOL0     H63303   1.546   5.712   4.308  2.2464  0.7679 -0.3181
  469MOL0     H63304   1.653   5.578   4.253  1.9425  2.2756 -1.2854
  469MOL0     H63305   1.463   5.456   4.194  1.2315 -0.7785  4.0908
  469MOL0     H63306   1.350   5.599   4.175  0.4799  0.2333  1.4547
  469MOL0     H63307   1.336   5.615   4.398  3.0459  1.8908  1.8851
  469MOL0     H63308   1.459   5.487   4.433 -0.3089 -0.6662 -2.9547
  469MOL0     H63309   1.174   5.451   4.323  0.6904 -0.6781 -0.4479
  469MOL0     H63310   1.298   5.314   4.339  2.8399  1.1798 -3.4294
  469MOL0     H63311   1.165   5.391   4.732  0.7967  4.1700  0.7761
  469MOL0     H63312   1.772   5.776   4.295 -2.3100 -0.7779  1.1522
  469MOL0     H63313   1.999   6.002   4.307  0.5602  3.8133  2.0338
  469MOL0     H63314   1.892   6.066   4.426 -2.4570  0.2196  0.3068
  469MOL0     H63315   1.887   5.894   4.409 -4.0634 -0.0163 -1.3026
  470MOL0     O63316   2.124   7.046   5.363  0.4324  0.3625  0.0821
  470MOL0     C63317   2.006   7.027   5.398 -0.7644  0.9544  0.9740
  470MOL0     O63318   1.907   6.998   5.311  1.2548 -0.3481 -0.1670
  470MOL0     C63319   1.932   6.938   5.184 -0.2677  0.7702 -0.3827
  470MOL0     C63320   1.950   7.018   5.070 -1.2829  0.0567  0.8114
  470MOL0     C63321   1.983   6.968   4.944 -1.1490  0.5036  0.4504
  470MOL0     C63322   1.976   6.830   4.920  0.5624  0.6648 -0.9404
  470MOL0     O63323   1.977   6.783   4.794  0.1152  0.7500  0.2476
  470MOL0     C63324   2.089   6.822   4.712 -0.2923  1.3852 -0.5897
  470MOL0     C63325   2.132   6.693   4.642 -0.3071 -0.7641  0.1603
  470MOL0     C63326   2.021   6.646   4.547  0.3170  0.3032 -0.0652
  470MOL0     C63327   1.977   6.747   4.441  0.4995  0.7933 -0.1301
  470MOL0     C63328   1.874   6.681   4.345  0.1404 -0.2404  0.0479
  470MOL0     C63329   1.730   6.657   4.394  0.1791 -0.7490 -0.0682
  470MOL0     C63330   1.665   6.792   4.416  0.5570 -0.2860  0.2680
  470MOL0     C63331   1.515   6.786   4.459 -0.1585  0.1793  0.8255
  470MOL0     N63332   1.492   6.738   4.591  0.8389  0.3183  1.0001
  470MOL0     C63333   1.577   6.722   4.695  0.2817 -0.5047 -0.0086
  470MOL0     C63334   1.521   6.667   4.801  0.7775  1.2062 -0.9430
  470MOL0     C63335   1.580   6.634   4.937  0.1940  0.0947  0.2395
  470MOL0     C63336   1.534   6.731   5.050  0.6014 -0.0422 -0.1035
  470MOL0     C63337   1.580   6.697   5.193 -0.8390  0.1573  0.2932
  470MOL0     C63338   1.596   6.824   5.275  0.7108  1.0630 -0.0022
  470MOL0     O63339   1.491   6.918   5.259 -0.0355 -0.5046 -0.1626
  470MOL0     C63340   1.364   6.896   5.305 -1.4131 -0.3542 -0.9992
  470MOL0     C63341   1.277   7.002   5.295  0.0059 -0.9584  0.4682
  470MOL0     C63342   1.146   6.980   5.324  0.0728 -0.8967  0.5036
  470MOL0     C63343   1.089   6.858   5.360  0.9122 -0.0907 -0.7652
  470MOL0     C63344   0.942   6.832   5.401 -0.6744 -0.3706 -0.0629
  470MOL0     O63345   0.912   6.714   5.462 -0.3403  0.2230  0.0324
  470MOL0     C63346   0.781   6.687   5.492  0.5470  0.4781  0.4568
  470MOL0     C63347   0.744   6.643   5.624  0.4180  0.1409 -0.2616
  470MOL0     C63348   0.615   6.599   5.642  0.2227 -0.3550 -0.3633
  470MOL0     C63349   0.525   6.578   5.536 -1.1040 -0.3153  0.7569
  470MOL0     O63350   0.399   6.530   5.562 -0.1995 -0.0984  0.3408
  470MOL0     C63351   0.304   6.508   5.453  0.3813 -0.1692  0.6009
  470MOL0     C63352   0.222   6.638   5.416 -0.1952 -0.2697 -0.4914
  470MOL0     C63353   0.105   6.658   5.518  0.8638  0.4809 -0.4858
  470MOL0     C63354   0.039   6.798   5.517  0.8258 -0.1043 -0.1600
  470MOL0     C63355  -0.052   6.816   5.638 -0.1800 -0.7473 -0.5845
  470MOL0     C63356  -0.183   6.747   5.620 -0.0457 -0.1152 -0.3799
  470MOL0     C63357  -0.249   6.767   5.756  0.0236  0.6185  0.6397
  470MOL0     C63358  -0.364   6.659   5.769  0.3985 -0.4479 -0.2115
  470MOL0    Cl63359  -0.325   6.484   5.755  0.1276  0.1350  0.5217
  470MOL0     C63360   0.560   6.622   5.413  0.4157 -0.0062  0.1726
  470MOL0     C63361   0.680   6.686   5.389 -0.0388 -0.1664 -0.9798
  470MOL0     O63362   0.873   6.933   5.399  0.5407 -0.1757 -0.1102
  470MOL0     C63363   1.181   6.755   5.376 -0.0069  0.5165  0.0796
  470MOL0     C63364   1.317   6.778   5.353  0.3218  0.6348 -1.0346
  470MOL0     N63365   1.381   6.663   4.763  0.5317  0.1575  0.7579
  470MOL0     N63366   1.365   6.705   4.634  0.3157 -0.6217 -0.6178
  470MOL0     C63367   1.950   6.752   5.028 -0.3623  0.0413  0.2081
  470MOL0     C63368   1.941   6.803   5.162 -0.3928  0.3001  0.4905
  470MOL0     C63369   1.974   7.046   5.535  0.3206  0.0448 -0.2568
  470MOL0     C63370   1.846   7.087   5.575  0.1766 -0.3722  0.7050
  470MOL0     C63371   1.816   7.130   5.703  0.3441 -0.4378  0.3167
  470MOL0     C63372   1.915   7.112   5.804 -0.5634 -0.4935  0.3107
  470MOL0     O63373   1.880   7.165   5.927 -0.6561 -0.1774 -0.9828
  470MOL0     C63374   1.974   7.187   6.034 -0.7414  0.4690  0.5275
  470MOL0     C63375   1.905   7.292   6.133 -0.3349  0.3122  0.4321
  470MOL0     C63376   1.968   7.427   6.120 -0.3426  0.6103 -0.8311
  470MOL0     C63377   2.098   7.427   6.208 -0.8285  0.2349  0.4921
  470MOL0     C63378   2.151   7.560   6.202 -0.5378 -0.1245  0.2454
  470MOL0     C63379   2.196   7.672   6.192  0.1004  0.4839  0.6461
  470MOL0     C63380   2.036   7.064   5.767 -0.2759  0.9940  0.3504
  470MOL0     C63381   2.070   7.032   5.637 -0.2582  1.0500 -0.1312
  470MOL0     C63382   2.214   6.962   5.618  0.0579  0.1226  0.6808
  470MOL0     H63383   1.949   7.126   5.079  1.1831  0.1876  0.2085
  470MOL0     H63384   1.994   7.036   4.860 -1.8118  0.3943  0.2697
  470MOL0     H63385   2.077   6.907   4.644  0.9928  1.6163 -0.5536
  470MOL0     H63386   2.173   6.842   4.779  0.6038 -2.6069 -0.2803
  470MOL0     H63387   2.150   6.613   4.714 -0.3346 -3.0264 -2.1709
  470MOL0     H63388   2.222   6.713   4.584 -0.0516  1.3821  1.2126
  470MOL0     H63389   1.934   6.641   4.614  0.1345  0.1433 -0.3163
  470MOL0     H63390   2.039   6.550   4.500  0.0891  0.6971 -0.9690
  470MOL0     H63391   1.936   6.834   4.493  1.4099 -0.1417  2.3095
  470MOL0     H63392   2.062   6.775   4.378  3.5958 -0.7230  3.0239
  470MOL0     H63393   1.867   6.744   4.256 -1.3982  0.3997  0.5945
  470MOL0     H63394   1.907   6.588   4.296  1.5906  1.9820 -3.6486
  470MOL0     H63395   1.683   6.606   4.309  2.5273 -0.1179 -1.8458
  470MOL0     H63396   1.737   6.602   4.488 -2.6669  1.7085  1.7830
  470MOL0     H63397   1.673   6.858   4.329  0.2916  0.0283  0.4798
  470MOL0     H63398   1.725   6.847   4.490  1.5813 -3.1696  1.7246
  470MOL0     H63399   1.485   6.892   4.455 -0.0845  0.2316  1.5466
  470MOL0     H63400   1.450   6.737   4.385 -2.1650  1.5495  1.5775
  470MOL0     H63401   1.671   6.774   4.709  0.2098 -0.9469  2.6934
  470MOL0     H63402   1.548   6.536   4.976 -4.5035  1.0869 -0.4372
  470MOL0     H63403   1.689   6.643   4.940  0.0978  1.4632  0.3911
  470MOL0     H63404   1.573   6.832   5.039  3.1620 -0.7063  1.8266
  470MOL0     H63405   1.425   6.722   5.044  0.3969  1.9594  0.0360
  470MOL0     H63406   1.673   6.640   5.192  1.0580  2.9716 -2.2740
  470MOL0     H63407   1.511   6.623   5.235 -2.3435  0.9603 -0.6916
  470MOL0     H63408   1.686   6.874   5.238  1.2507 -0.4758 -0.8760
  470MOL0     H63409   1.628   6.804   5.378  2.9062 -0.5164 -0.9079
  470MOL0     H63410   1.307   7.099   5.259 -0.8625 -0.7399  0.3161
  470MOL0     H63411   1.081   7.067   5.313  0.2564 -0.3220  3.2662
  470MOL0     H63412   0.823   6.636   5.699 -1.1860 -2.1396  1.3801
  470MOL0     H63413   0.576   6.577   5.741  0.7013  0.4585  0.0157
  470MOL0     H63414   0.368   6.462   5.377  3.1322 -0.9675  3.1975
  470MOL0     H63415   0.233   6.429   5.481 -0.3229 -0.9048 -2.7165
  470MOL0     H63416   0.278   6.732   5.419 -1.1528  0.3484  3.0176
  470MOL0     H63417   0.178   6.620   5.318  0.3447 -1.7867 -0.4846
  470MOL0     H63418   0.033   6.576   5.519  0.6497  0.4772  4.2473
  470MOL0     H63419   0.156   6.633   5.611  0.1224 -2.9658 -0.8946
  470MOL0     H63420  -0.023   6.803   5.427  0.8929 -0.9744 -0.2573
  470MOL0     H63421   0.123   6.868   5.517  2.6517 -2.2041 -0.5031
  470MOL0     H63422  -0.053   6.924   5.655  2.1117 -0.5227 -1.3863
  470MOL0     H63423  -0.008   6.789   5.735 -0.6830  0.8395  0.1161
  470MOL0     H63424  -0.236   6.793   5.536 -0.6050 -1.7405 -0.9414
  470MOL0     H63425  -0.167   6.640   5.602  1.5825  0.3010 -1.6571
  470MOL0     H63426  -0.282   6.871   5.762 -0.3015  0.5379  0.2765
  470MOL0     H63427  -0.180   6.741   5.837  1.8208 -0.7086 -1.2276
  470MOL0     H63428  -0.408   6.682   5.867  1.0989  0.5916 -0.1193
  470MOL0     H63429  -0.436   6.679   5.688  0.5363 -0.7135 -0.3994
  470MOL0     H63430   0.498   6.619   5.324 -2.7839  2.1410  2.1349
  470MOL0     H63431   0.700   6.738   5.297 -0.9072  2.7447  0.3724
  470MOL0     H63432   1.149   6.663   5.423  0.1444  0.1307 -0.5585
  470MOL0     H63433   1.383   6.693   5.363  0.1905  0.5174 -1.1773
  470MOL0     H63434   1.959   6.645   5.013  0.9914  0.4384 -2.1808
  470MOL0     H63435   1.939   6.734   5.246  4.0696  0.7223  1.2277
  470MOL0     H63436   1.767   7.097   5.500  0.5800 -2.8176 -0.1348
  470MOL0     H63437   1.718   7.168   5.730 -0.0077 -1.3240  0.3361
  470MOL0     H63438   2.066   7.232   5.996 -2.2866  3.2181 -0.2786
  470MOL0     H63439   2.013   7.095   6.078  1.2533  1.2132  0.3915
  470MOL0     H63440   1.917   7.255   6.236  2.1268 -1.4693 -0.3909
  470MOL0     H63441   1.799   7.302   6.109  0.3919  0.2609 -3.3745
  470MOL0     H63442   1.895   7.499   6.157  1.2352  1.8447  0.0377
  470MOL0     H63443   1.973   7.463   6.017 -1.3995  1.2672 -0.6627
  470MOL0     H63444   2.082   7.386   6.309 -0.8640 -2.0212 -0.3567
  470MOL0     H63445   2.169   7.366   6.152  0.5623  1.3586  0.9744
  470MOL0     H63446   2.234   7.772   6.191 -2.7680  1.6484 -0.0001
  470MOL0     H63447   2.109   7.054   5.847 -0.0312  1.1943  0.1562
  470MOL0     H63448   2.263   6.932   5.711 -0.5597  0.2095  1.0412
  470MOL0     H63449   2.209   6.866   5.567  0.2163  0.5149 -0.0787
  470MOL0     H63450   2.283   7.028   5.564  0.4424 -0.9099 -0.1035
  471MOL0     O63451   3.178   0.663  10.049 -1.0418  0.2582  0.5608
  471MOL0     C63452   3.123   0.558  10.030 -0.5687 -0.5404  0.2411
  471MOL0     O63453   3.025   0.512  10.109 -0.0519 -0.0058  0.2526
  471MOL0     C63454   2.983   0.603  10.208  0.1913  0.0112 -0.2483
  471MOL0     C63455   2.848   0.649  10.202  0.2619 -0.7704  0.2127
  471MOL0     C63456   2.799   0.736  10.288 -0.0075 -0.1005 -0.1468
  471MOL0     C63457   2.875   0.778  10.391 -0.5872 -0.6247  1.0000
  471MOL0     O63458   2.815   0.862  10.483  0.0227  1.0561 -0.1735
  471MOL0     C63459   2.854   0.822  10.613 -0.0712  0.2572 -0.5367
  471MOL0     C63460   2.760   0.904  10.705 -0.2177 -0.1668 -0.0295
  471MOL0     C63461   2.783   0.915  10.867 -0.6441  0.6415 -0.2642
  471MOL0     C63462   2.671   0.855  10.949 -0.4640  0.1600 -0.7883
  471MOL0     C63463   2.740   0.836  11.088  0.2929  0.2728 -1.1254
  471MOL0     C63464   2.641   0.778  11.187  0.8022 -0.0728  0.4198
  471MOL0     C63465   2.712   0.758  11.331  0.9175  0.7770  0.5050
  471MOL0     C63466   2.761   0.607  11.351 -0.0130 -0.5528  1.2233
  471MOL0     N63467   2.838   0.559  11.234 -0.4074 -0.9273  0.2772
  471MOL0     C63468   2.795   0.502  11.120  0.7850 -0.5971  0.6084
  471MOL0     C63469   2.899   0.500  11.032  0.1558 -0.3484  0.4427
  471MOL0     C63470   2.896   0.466  10.889 -0.3637  0.6290  1.4971
  471MOL0     C63471   3.033   0.505  10.802  1.0157 -1.8745  0.3322
  471MOL0     C63472   3.129   0.391  10.819 -0.5543 -0.0506 -0.1542
  471MOL0     C63473   3.267   0.438  10.772  0.0475 -0.3216 -0.3827
  471MOL0     O63474   3.341   0.316  10.755 -0.1249 -0.4693  0.0423
  471MOL0     C63475   3.476   0.325  10.745  0.2077  0.2693 -0.3798
  471MOL0     C63476   3.545   0.211  10.735 -0.4793  0.3377  0.3493
  471MOL0     C63477   3.682   0.207  10.723 -0.7924  0.7275  0.3885
  471MOL0     C63478   3.755   0.324  10.717  0.7705  0.5639 -0.3450
  471MOL0     C63479   3.902   0.327  10.708 -0.2363 -1.3801  0.2338
  471MOL0     O63480   3.956   0.216  10.678 -0.6949  0.4872  0.5687
  471MOL0     C63481   4.083   0.226  10.636  1.0611 -0.1270 -0.3838
  471MOL0     C63482   4.122   0.270  10.500 -1.6682  0.7230  0.3926
  471MOL0     C63483   4.261   0.264  10.468 -0.1428  0.5515  0.3146
  471MOL0     C63484   4.356   0.206  10.562 -0.2207 -0.3144 -0.5664
  471MOL0     O63485   4.496   0.194  10.546  0.4443 -0.5126 -0.1926
  471MOL0     C63486   4.546   0.235  10.418 -0.8930 -0.3681  0.5875
  471MOL0     C63487   4.701   0.248  10.408  0.3130  0.6147 -0.1639
  471MOL0     C63488   4.767   0.117  10.464  0.2613 -0.2652 -0.0282
  471MOL0     C63489   4.868   0.068  10.365 -0.7297 -0.0865  0.5880
  471MOL0     C63490   4.944  -0.061  10.422  0.3837  0.2709  0.9784
  471MOL0     C63491   5.059  -0.111  10.332  0.4152 -0.0476  0.2831
  471MOL0     C63492   5.064  -0.260  10.346 -0.4207 -0.3817 -0.4036
  471MOL0     C63493   5.212  -0.293  10.324  0.0730  0.9409 -0.1867
  471MOL0    Cl63494   5.231  -0.473  10.294 -0.7880  0.1457 -0.0612
  471MOL0     C63495   4.310   0.170  10.687 -0.9014 -0.9658  0.0640
  471MOL0     C63496   4.179   0.189  10.728  0.3889  0.0276  0.0196
  471MOL0     O63497   3.960   0.442  10.706 -0.0275  0.2942  0.1552
  471MOL0     C63498   3.691   0.450  10.726  0.4032 -0.2382  0.8733
  471MOL0     C63499   3.551   0.449  10.731  0.3267 -0.2430 -0.2271
  471MOL0     N63500   3.007   0.548  11.105 -0.7152 -0.2306 -0.4058
  471MOL0     N63501   2.967   0.600  11.213 -0.6044 -0.7539 -0.3269
  471MOL0     C63502   3.006   0.728  10.401 -0.0579 -0.2690 -0.9212
  471MOL0     C63503   3.061   0.634  10.318 -0.1365 -0.1568 -0.3608
  471MOL0     C63504   3.187   0.465   9.934 -0.3370 -0.2811  0.2849
  471MOL0     C63505   3.326   0.477   9.912 -0.1258 -1.6712  0.6777
  471MOL0     C63506   3.384   0.422   9.798 -0.4650 -0.3134  0.0100
  471MOL0     C63507   3.319   0.349   9.700  0.2292 -1.2245 -0.6313
  471MOL0     O63508   3.359   0.303   9.576  0.1989  0.1362 -0.2364
  471MOL0     C63509   3.499   0.277   9.565 -0.7888  0.9191  1.2215
  471MOL0     C63510   3.552   0.228   9.421 -0.4942  0.1915  0.3766
  471MOL0     C63511   3.697   0.189   9.427  0.2890 -0.5622 -0.4350
  471MOL0     C63512   3.754   0.166   9.289  0.9391  0.3570 -0.1949
  471MOL0     C63513   3.879   0.094   9.302 -1.0161  0.0640 -0.1390
  471MOL0     C63514   3.985   0.023   9.317 -0.1393  0.1393 -1.0684
  471MOL0     C63515   3.181   0.338   9.723 -0.8512  0.5609 -0.0453
  471MOL0     C63516   3.118   0.383   9.843  0.9386 -0.3895  0.2827
  471MOL0     C63517   2.973   0.365   9.844 -0.4788 -0.8171 -0.2255
  471MOL0     H63518   2.784   0.606  10.126 -1.9318 -2.1524  2.6782
  471MOL0     H63519   2.697   0.773  10.282 -0.5395 -1.0526  2.1551
  471MOL0     H63520   2.830   0.716  10.629  0.7388 -0.1625 -1.9901
  471MOL0     H63521   2.958   0.827  10.645 -0.0877  0.5954 -0.5370
  471MOL0     H63522   2.656   0.880  10.680  0.1119  0.7800 -2.5896
  471MOL0     H63523   2.771   1.008  10.672  1.2698  0.3249  1.8457
  471MOL0     H63524   2.797   1.021  10.891  0.6040  0.4145  0.1121
  471MOL0     H63525   2.879   0.869  10.893 -0.2503  0.8289 -1.3253
  471MOL0     H63526   2.592   0.931  10.957  0.3783  1.6021 -4.2401
  471MOL0     H63527   2.634   0.758  10.915  2.0594 -1.3191  0.3598
  471MOL0     H63528   2.825   0.767  11.077  0.7102  0.1992  1.8760
  471MOL0     H63529   2.782   0.925  11.136 -2.0588  0.8308  0.0381
  471MOL0     H63530   2.549   0.837  11.195  0.5271 -0.6823  2.2475
  471MOL0     H63531   2.588   0.689  11.150 -0.6906  0.5254  1.0032
  471MOL0     H63532   2.642   0.785  11.411  1.8849  0.9597  1.3053
  471MOL0     H63533   2.789   0.835  11.339  0.2473  2.0603 -3.3015
  471MOL0     H63534   2.819   0.600  11.443  2.1338  0.1706 -0.0068
  471MOL0     H63535   2.678   0.538  11.367 -2.3398  1.4664 -1.2222
  471MOL0     H63536   2.692   0.483  11.091  1.0320  0.9000 -1.5248
  471MOL0     H63537   2.867   0.362  10.871  2.2789  0.2512 -1.4236
  471MOL0     H63538   2.817   0.517  10.834  0.5615  0.4326 -0.0729
  471MOL0     H63539   3.010   0.521  10.697 -2.1073 -1.3278  0.9946
  471MOL0     H63540   3.075   0.600  10.836  1.0351 -1.5341 -0.6387
  471MOL0     H63541   3.113   0.300  10.762  3.9554 -1.4957  0.4912
  471MOL0     H63542   3.154   0.361  10.921  1.0819  0.7041 -0.2951
  471MOL0     H63543   3.298   0.520  10.837 -2.3744 -2.6005  4.1352
  471MOL0     H63544   3.240   0.480  10.674 -1.5806 -0.2752  0.0480
  471MOL0     H63545   3.485   0.123  10.757 -0.7997  0.7722  1.2468
  471MOL0     H63546   3.734   0.112  10.722 -1.3351  0.4300 -0.1435
  471MOL0     H63547   4.057   0.307  10.422 -1.0565 -0.8155 -0.9122
  471MOL0     H63548   4.297   0.298  10.371  0.3766  2.6824  1.2171
  471MOL0     H63549   4.505   0.179  10.333 -2.6314  2.5855 -0.6757
  471MOL0     H63550   4.504   0.334  10.399 -4.2983 -1.5358  1.3130
  471MOL0     H63551   4.742   0.265  10.308  2.1943  0.4354  0.5415
  471MOL0     H63552   4.735   0.334  10.467  1.0543  0.1452  0.1115
  471MOL0     H63553   4.824   0.133  10.556  4.6662 -2.3604 -2.0913
  471MOL0     H63554   4.690   0.041  10.478  1.4634 -1.7282 -1.0113
  471MOL0     H63555   4.951   0.136  10.343  1.0138 -1.3719  2.7809
  471MOL0     H63556   4.813   0.058  10.271 -0.7596  1.6348  0.3797
  471MOL0     H63557   4.866  -0.133  10.445 -2.0654  1.4999 -2.7030
  471MOL0     H63558   4.977  -0.014  10.516 -0.0688  3.5200 -0.3480
  471MOL0     H63559   5.023  -0.087  10.231 -0.3050 -0.3315  0.4648
  471MOL0     H63560   5.154  -0.059  10.349  0.1064  0.5099  0.3087
  471MOL0     H63561   4.989  -0.306  10.281  1.0490 -0.1812 -2.3381
  471MOL0     H63562   5.042  -0.297  10.446 -1.8702  0.0216 -0.5574
  471MOL0     H63563   5.235  -0.236  10.234 -2.3125  1.7790 -0.3517
  471MOL0     H63564   5.273  -0.253  10.406 -0.8723  2.7809 -0.3279
  471MOL0     H63565   4.378   0.130  10.761  1.8284  0.4256 -1.5607
  471MOL0     H63566   4.148   0.190  10.832  1.1593  0.0383  0.2555
  471MOL0     H63567   3.746   0.543  10.723  1.7894 -1.0099 -2.6410
  471MOL0     H63568   3.505   0.547  10.733 -2.0582 -1.2186 -1.8480
  471MOL0     H63569   3.065   0.761  10.486 -1.7059 -0.9607  0.5694
  471MOL0     H63570   3.157   0.592  10.345 -0.3589  0.5419  1.7000
  471MOL0     H63571   3.391   0.527   9.984 -2.1822 -0.9042  2.0965
  471MOL0     H63572   3.490   0.441   9.788 -0.0257 -2.3409  0.2865
  471MOL0     H63573   3.515   0.193   9.633 -0.9182 -0.0983  0.0368
  471MOL0     H63574   3.564   0.361   9.595  1.2516  0.1306 -0.6642
  471MOL0     H63575   3.530   0.306   9.347 -0.6752 -0.3416 -0.1475
  471MOL0     H63576   3.502   0.133   9.400  1.1797 -0.8004  0.7242
  471MOL0     H63577   3.721   0.099   9.485 -0.9371  0.4532  1.7849
  471MOL0     H63578   3.741   0.268   9.489 -0.1765 -0.4335 -0.2692
  471MOL0     H63579   3.684   0.096   9.242  0.4005  1.7831 -1.5805
  471MOL0     H63580   3.747   0.254   9.225 -5.4353 -1.1406 -2.3448
  471MOL0     H63581   4.066  -0.047   9.324  0.8388  1.3194  0.1192
  471MOL0     H63582   3.126   0.292   9.641 -1.7918  4.8259 -2.0798
  471MOL0     H63583   2.952   0.265   9.882 -2.8431 -0.0207  0.7266
  471MOL0     H63584   2.927   0.444   9.905 -1.7780 -1.0710 -0.8519
  471MOL0     H63585   2.927   0.366   9.745  0.4688 -0.3583 -0.6710
  472MOL0     O63586   2.326   6.665   0.247 -0.9170 -0.0453 -0.3990
  472MOL0     C63587   2.260   6.569   0.205  0.7556  0.3528 -0.1605
  472MOL0     O63588   2.302   6.448   0.210 -0.2777 -0.0866 -0.0247
  472MOL0     C63589   2.422   6.410   0.268  0.5929 -0.1552  0.8821
  472MOL0     C63590   2.536   6.485   0.256 -0.2918  0.4029  0.1383
  472MOL0     C63591   2.654   6.439   0.310 -0.1570  0.9279 -0.5655
  472MOL0     C63592   2.660   6.318   0.391 -0.3590 -0.0622 -0.7432
  472MOL0     O63593   2.775   6.271   0.453 -0.1055  0.1911 -0.0183
  472MOL0     C63594   2.888   6.252   0.366 -0.7396 -0.0282 -0.0845
  472MOL0     C63595   2.982   6.376   0.398  0.3489  0.1286  0.2398
  472MOL0     C63596   3.110   6.389   0.302 -0.2221  0.3759  0.3502
  472MOL0     C63597   3.192   6.515   0.317 -0.0442 -0.0332 -0.4839
  472MOL0     C63598   3.149   6.638   0.230  0.1367  1.5396  0.2502
  472MOL0     C63599   3.224   6.764   0.273 -0.4458  0.0476  0.0863
  472MOL0     C63600   3.375   6.758   0.238 -0.1884 -0.6919  1.2118
  472MOL0     C63601   3.446   6.879   0.294  0.3004 -0.7689  0.2263
  472MOL0     N63602   3.423   6.994   0.205  0.2285  0.2196 -0.0667
  472MOL0     C63603   3.497   7.027   0.087  0.0084  0.4849  0.9667
  472MOL0     C63604   3.455   7.149   0.056 -0.5726  0.2450  0.6940
  472MOL0     C63605   3.529   7.227  -0.043  0.6443  0.7164  1.3067
  472MOL0     C63606   3.602   7.159  -0.160  0.0139 -0.3146 -0.5504
  472MOL0     C63607   3.501   7.076  -0.236 -0.3882 -0.1430 -0.0939
  472MOL0     C63608   3.568   6.959  -0.312  0.0733 -1.0236 -0.5184
  472MOL0     O63609   3.660   7.015  -0.403 -1.0802  0.6811  0.0142
  472MOL0     C63610   3.739   6.923  -0.475  1.2436 -0.7173  0.2170
  472MOL0     C63611   3.838   6.980  -0.561 -0.2420  0.4480  0.0921
  472MOL0     C63612   3.908   6.894  -0.642 -0.6217  0.1650 -0.3629
  472MOL0     C63613   3.881   6.762  -0.655 -0.1640  0.6145  0.3297
  472MOL0     C63614   3.966   6.686  -0.761  0.3561  0.3066  0.5491
  472MOL0     O63615   3.957   6.547  -0.750  0.9207 -0.5180 -0.2375
  472MOL0     C63616   4.035   6.471  -0.834 -1.0377 -0.4823  0.7543
  472MOL0     C63617   3.978   6.359  -0.878 -0.0567  0.1817  0.6550
  472MOL0     C63618   4.042   6.272  -0.971  0.2656 -0.1789  0.1036
  472MOL0     C63619   4.169   6.306  -1.028  0.2476 -0.3334 -0.8577
  472MOL0     O63620   4.227   6.222  -1.115  0.6092  0.4730  0.1751
  472MOL0     C63621   4.146   6.177  -1.229 -0.6372  0.8664 -0.0413
  472MOL0     C63622   4.096   6.292  -1.323  0.7131 -0.1149 -0.2614
  472MOL0     C63623   3.998   6.241  -1.429  1.1820 -0.5026 -0.2166
  472MOL0     C63624   3.850   6.227  -1.378 -0.7175 -0.6031 -0.0198
  472MOL0     C63625   3.753   6.171  -1.486 -0.0340  0.5771  0.0640
  472MOL0     C63626   3.700   6.284  -1.578 -0.4882 -0.2951  0.2662
  472MOL0     C63627   3.598   6.234  -1.687 -0.0306  0.0364 -0.9122
  472MOL0     C63628   3.586   6.337  -1.800  0.0409  0.9631 -1.1036
  472MOL0    Cl63629   3.542   6.508  -1.750  0.3000  0.3580  0.0248
  472MOL0     C63630   4.226   6.418  -0.975  1.0056 -0.1753 -0.2257
  472MOL0     C63631   4.166   6.498  -0.872 -0.9525 -0.4463 -0.1780
  472MOL0     O63632   4.028   6.753  -0.845  0.5162  0.6704 -0.7142
  472MOL0     C63633   3.782   6.702  -0.571  0.8201  0.7229  0.3723
  472MOL0     C63634   3.719   6.779  -0.473 -0.5492 -0.8812 -0.6039
  472MOL0     N63635   3.374   7.195   0.158 -0.8984  0.3053 -0.4344
  472MOL0     N63636   3.363   7.109   0.258 -0.1112 -0.3531  0.5138
  472MOL0     C63637   2.535   6.260   0.418 -0.3688  0.9423  0.4839
  472MOL0     C63638   2.418   6.300   0.356 -0.4903  1.0747  1.4174
  472MOL0     C63639   2.132   6.592   0.133  0.8611 -0.0348 -0.3396
  472MOL0     C63640   2.063   6.473   0.087 -0.7609  0.5776 -0.9311
  472MOL0     C63641   1.948   6.481   0.020  0.1414 -0.8466  0.4851
  472MOL0     C63642   1.894   6.610  -0.011  0.1850  0.3011  0.0477
  472MOL0     O63643   1.784   6.618  -0.084  0.0374 -0.6519  1.4349
  472MOL0     C63644   1.758   6.737  -0.170 -0.1093 -0.3881 -0.2251
  472MOL0     C63645   1.695   6.690  -0.305 -0.2329  0.3607  0.1065
  472MOL0     C63646   1.623   6.803  -0.392  0.2185  0.2707 -0.6968
  472MOL0     C63647   1.731   6.868  -0.484  0.8284  0.5278 -0.3297
  472MOL0     C63648   1.767   6.762  -0.582 -0.3708  0.0550  0.0783
  472MOL0     C63649   1.811   6.698  -0.669 -0.9469 -0.1689 -0.0402
  472MOL0     C63650   1.952   6.722   0.039 -0.9990  0.3407 -0.1353
  472MOL0     C63651   2.074   6.719   0.109  0.2815 -0.0158  0.2324
  472MOL0     C63652   2.118   6.856   0.153 -0.0923 -0.0283 -0.4689
  472MOL0     H63653   2.548   6.580   0.206  0.2282 -0.6539 -1.8316
  472MOL0     H63654   2.740   6.505   0.300  0.9838 -0.3137  0.5285
  472MOL0     H63655   2.937   6.156   0.385 -1.3358  0.0670  2.2796
  472MOL0     H63656   2.847   6.249   0.265  0.9062  0.1831 -0.7973
  472MOL0     H63657   3.001   6.384   0.506 -2.0252  0.4562  0.7106
  472MOL0     H63658   2.934   6.472   0.374 -0.6666 -0.9662 -2.5665
  472MOL0     H63659   3.076   6.377   0.199 -0.6518  0.7251  0.4485
  472MOL0     H63660   3.172   6.303   0.326 -2.9769 -1.3851  1.6103
  472MOL0     H63661   3.205   6.548   0.420  0.2061 -1.1895 -0.1285
  472MOL0     H63662   3.290   6.490   0.276 -0.8324 -0.9027 -1.9311
  472MOL0     H63663   3.165   6.600   0.128  0.3796  3.6155 -0.5181
  472MOL0     H63664   3.041   6.648   0.242 -0.4444  1.2037 -3.3296
  472MOL0     H63665   3.177   6.845   0.215 -0.0219  0.6906  0.6255
  472MOL0     H63666   3.204   6.781   0.379  2.9616  1.2518  0.6651
  472MOL0     H63667   3.390   6.749   0.130  3.4726 -1.7415  1.6530
  472MOL0     H63668   3.415   6.661   0.270 -1.0329 -1.0916  1.0789
  472MOL0     H63669   3.412   6.904   0.395 -0.6521  0.7744 -0.4332
  472MOL0     H63670   3.552   6.860   0.311  1.3516  5.2459  2.8000
  472MOL0     H63671   3.561   6.970   0.021 -0.3980  0.0291  0.9578
  472MOL0     H63672   3.458   7.299  -0.086  0.1955 -1.2192 -1.4414
  472MOL0     H63673   3.595   7.298   0.007  2.4234  0.6837 -0.8108
  472MOL0     H63674   3.633   7.242  -0.223 -0.2060 -0.9267 -1.4922
  472MOL0     H63675   3.693   7.107  -0.129  1.1177  1.2762 -0.9946
  472MOL0     H63676   3.456   7.142  -0.311 -2.8816  0.0095  1.4651
  472MOL0     H63677   3.420   7.035  -0.175  0.2889 -3.2897 -1.1112
  472MOL0     H63678   3.489   6.918  -0.375  0.3269 -0.4560 -1.2209
  472MOL0     H63679   3.596   6.874  -0.249 -2.7897 -0.3999  1.8350
  472MOL0     H63680   3.845   7.088  -0.550 -1.5924  0.5864 -0.2422
  472MOL0     H63681   3.984   6.944  -0.701 -1.7682 -0.3025 -2.3406
  472MOL0     H63682   3.880   6.328  -0.843 -0.6947 -2.6381 -3.0423
  472MOL0     H63683   3.985   6.184  -1.002 -0.3820 -0.4450  1.9257
  472MOL0     H63684   4.216   6.116  -1.287  0.0530  1.4918  0.1256
  472MOL0     H63685   4.054   6.123  -1.203  0.7790 -1.8113 -0.2609
  472MOL0     H63686   4.046   6.366  -1.261 -0.5727 -0.9023 -0.3224
  472MOL0     H63687   4.178   6.344  -1.374  0.3417 -0.4695 -1.2536
  472MOL0     H63688   3.989   6.312  -1.512  2.8725 -0.7760 -0.6789
  472MOL0     H63689   4.041   6.146  -1.461 -1.3524 -2.3033  1.3944
  472MOL0     H63690   3.820   6.327  -1.345 -1.1828 -0.6002 -0.4506
  472MOL0     H63691   3.848   6.155  -1.295 -0.8245 -1.3236 -0.6340
  472MOL0     H63692   3.672   6.112  -1.441  0.5687 -1.9348 -1.9465
  472MOL0     H63693   3.802   6.096  -1.547  1.0447  0.0385  1.5431
  472MOL0     H63694   3.650   6.362  -1.520 -1.9622 -0.4345 -0.7575
  472MOL0     H63695   3.782   6.341  -1.623  0.4001 -1.0070  0.9599
  472MOL0     H63696   3.498   6.216  -1.647  1.2867 -3.0942  1.3920
  472MOL0     H63697   3.634   6.139  -1.726 -1.0618  0.2724 -2.5816
  472MOL0     H63698   3.684   6.338  -1.847  0.6305  0.6200  0.0928
  472MOL0     H63699   3.522   6.287  -1.874  0.4122 -1.5358  0.1805
  472MOL0     H63700   4.327   6.446  -1.000  0.4586 -0.0182 -2.5052
  472MOL0     H63701   4.217   6.583  -0.828 -1.6124 -0.0418 -0.1743
  472MOL0     H63702   3.751   6.598  -0.574 -1.6338  1.3969  0.1527
  472MOL0     H63703   3.635   6.744  -0.414 -0.8032 -3.4425 -2.3049
  472MOL0     H63704   2.539   6.184   0.496 -3.5153 -0.4831 -0.5818
  472MOL0     H63705   2.326   6.242   0.356  0.2893 -0.2601  0.1491
  472MOL0     H63706   2.101   6.377   0.121 -2.1359 -0.3528 -1.9068
  472MOL0     H63707   1.899   6.389  -0.013 -0.3910 -0.7428  0.9918
  472MOL0     H63708   1.852   6.791  -0.187  1.0012 -1.5880  1.6417
  472MOL0     H63709   1.697   6.807  -0.112  2.2383  1.1197  0.6079
  472MOL0     H63710   1.612   6.623  -0.283  0.5525 -0.0472  2.0337
  472MOL0     H63711   1.771   6.645  -0.370 -0.3207  1.8763 -1.1125
  472MOL0     H63712   1.592   6.885  -0.328  3.7358  0.1587  1.3867
  472MOL0     H63713   1.545   6.766  -0.459  1.0318 -3.2037  0.0685
  472MOL0     H63714   1.704   6.959  -0.538  0.9353  0.0948 -1.1195
  472MOL0     H63715   1.814   6.905  -0.423  2.6969 -2.2589 -0.9997
  472MOL0     H63716   1.853   6.626  -0.736  2.3354  0.4637  1.1491
  472MOL0     H63717   1.912   6.823   0.039  0.1993  0.9116  2.5283
  472MOL0     H63718   2.216   6.851   0.202 -0.5363  0.6192  0.5275
  472MOL0     H63719   2.097   6.933   0.078 -1.3553  0.8125  0.7063
  472MOL0     H63720   2.049   6.880   0.234 -2.4163  0.9228 -2.6100
  473MOL0     O63721  10.329   2.999   7.744 -0.7049 -0.1160  0.4218
  473MOL0     C63722  10.373   2.968   7.858  0.2422  0.5211 -0.2369
  473MOL0     O63723  10.464   2.866   7.881 -0.0502  0.3920 -0.4572
  473MOL0     C63724  10.501   2.793   7.772 -0.2724  0.4303  0.0238
  473MOL0     C63725  10.462   2.655   7.764  0.1942 -0.7159 -0.9591
  473MOL0     C63726  10.491   2.578   7.654  0.3571  0.5448  0.2366
  473MOL0     C63727  10.564   2.625   7.545  0.1343  0.1175  0.4751
  473MOL0     O63728  10.593   2.533   7.443 -0.1224 -0.0543 -0.5064
  473MOL0     C63729  10.694   2.567   7.344  1.0738 -0.0255  0.0887
  473MOL0     C63730  10.834   2.541   7.399  1.0899  0.0332 -0.6488
  473MOL0     C63731  10.941   2.536   7.294  0.0478  0.7152  0.5747
  473MOL0     C63732  10.956   2.664   7.214  0.7071 -0.2720  0.6650
  473MOL0     C63733  11.098   2.664   7.158 -0.6807 -0.7954 -0.7518
  473MOL0     C63734  11.131   2.799   7.087 -0.2062 -0.4564 -1.1656
  473MOL0     C63735  11.287   2.802   7.069  0.3391  0.2914  0.2424
  473MOL0     C63736  11.335   2.945   7.031 -0.0250  0.5004 -0.5676
  473MOL0     N63737  11.272   2.973   6.904  0.5553  0.1206 -0.0292
  473MOL0     C63738  11.294   2.916   6.780 -0.2280  0.1413  0.1329
  473MOL0     C63739  11.218   2.969   6.683  0.0333  0.7025 -1.0732
  473MOL0     C63740  11.225   2.935   6.533 -0.7539 -0.0739 -0.1279
  473MOL0     C63741  11.094   2.880   6.476 -1.3067 -0.4718  0.0200
  473MOL0     C63742  10.995   2.994   6.473 -0.0240 -0.3004  0.2455
  473MOL0     C63743  10.879   2.985   6.372  0.0134  0.1264 -0.6959
  473MOL0     O63744  10.767   3.054   6.434 -0.3310  0.3942 -0.5311
  473MOL0     C63745  10.766   3.190   6.427  0.8495 -0.3142 -0.4772
  473MOL0     C63746  10.860   3.271   6.354  0.4586  0.3915  0.8349
  473MOL0     C63747  10.848   3.412   6.357  0.1830  0.2350 -0.0594
  473MOL0     C63748  10.745   3.475   6.434  0.4077  0.6233  0.5406
  473MOL0     C63749  10.733   3.630   6.432  0.1538  0.5115 -0.2450
  473MOL0     O63750  10.801   3.699   6.332  0.6806  0.1316  0.4628
  473MOL0     C63751  10.816   3.836   6.343 -0.2432 -0.0348 -0.3118
  473MOL0     C63752  10.760   3.924   6.253  1.1998  0.7711  0.1413
  473MOL0     C63753  10.763   4.059   6.281  0.8285  0.0264  0.1163
  473MOL0     C63754  10.831   4.123   6.388  0.7041  0.3420  0.4740
  473MOL0     O63755  10.804   4.255   6.401 -0.7091 -0.0876  0.8487
  473MOL0     C63756  10.882   4.328   6.500  0.9247 -1.5301  0.4291
  473MOL0     C63757  10.891   4.468   6.436 -0.1460 -0.2864  0.5575
  473MOL0     C63758  11.026   4.502   6.386 -0.4407 -0.3805 -0.8223
  473MOL0     C63759  11.133   4.541   6.492  0.3032  0.1794  0.2431
  473MOL0     C63760  11.269   4.545   6.411 -0.1248  0.3405 -0.1132
  473MOL0     C63761  11.390   4.624   6.479  0.5356 -0.7115  0.9669
  473MOL0     C63762  11.418   4.576   6.618  0.3035  0.5156 -0.2229
  473MOL0     C63763  11.549   4.642   6.669  0.0000 -1.0239  0.0003
  473MOL0    Cl63764  11.510   4.808   6.682 -0.4696 -0.5736  0.3946
  473MOL0     C63765  10.900   4.033   6.478  0.4656  0.3756 -0.8511
  473MOL0     C63766  10.880   3.890   6.455 -1.4227 -0.2139 -0.1210
  473MOL0     O63767  10.656   3.678   6.514 -0.2888 -0.1993 -0.5351
  473MOL0     C63768  10.646   3.391   6.506 -0.4815 -0.5528 -0.4062
  473MOL0     C63769  10.656   3.253   6.495 -0.5914  0.2256  0.0115
  473MOL0     N63770  11.136   3.057   6.757  0.0535  0.3223  0.4266
  473MOL0     N63771  11.170   3.062   6.881  0.6490 -0.3068  0.2819
  473MOL0     C63772  10.611   2.751   7.562 -0.2023  0.0876 -0.1573
  473MOL0     C63773  10.582   2.845   7.666  0.1866 -0.0457  0.3077
  473MOL0     C63774  10.319   3.036   7.983 -0.0129 -1.0203 -0.0209
  473MOL0     C63775  10.328   2.981   8.112 -1.1177 -0.1049 -0.5585
  473MOL0     C63776  10.281   3.045   8.223 -0.4661 -0.3909  0.6758
  473MOL0     C63777  10.225   3.168   8.220  0.2167 -0.0494 -0.3747
  473MOL0     O63778  10.194   3.227   8.335  0.0621  0.4350  0.0808
  473MOL0     C63779  10.119   3.348   8.340 -0.2728  0.0312 -0.4435
  473MOL0     C63780  10.050   3.360   8.476 -0.8837  0.0519  0.5623
  473MOL0     C63781   9.901   3.376   8.478 -0.2660  0.3509 -0.2461
  473MOL0     C63782   9.835   3.357   8.614 -0.0147 -0.1223 -0.2292
  473MOL0     C63783   9.872   3.453   8.720  0.2616  0.7119  1.2040
  473MOL0     C63784   9.900   3.541   8.795  0.1265  0.2165 -0.3169
  473MOL0     C63785  10.222   3.235   8.098 -0.2535 -0.3105 -0.9379
  473MOL0     C63786  10.259   3.168   7.980  0.0018 -0.3931 -0.2406
  473MOL0     C63787  10.249   3.245   7.852  0.4192  0.1490  0.3472
  473MOL0     H63788  10.395   2.617   7.840  3.5425 -2.0269  1.6284
  473MOL0     H63789  10.449   2.478   7.645  1.0264  0.3819 -1.8314
  473MOL0     H63790  10.682   2.502   7.258 -2.3230  1.6061 -0.8351
  473MOL0     H63791  10.675   2.659   7.288  0.2201  0.5765  1.3175
  473MOL0     H63792  10.832   2.441   7.443 -3.3653  0.5636  0.8380
  473MOL0     H63793  10.852   2.619   7.474 -3.5088 -1.6004  2.5858
  473MOL0     H63794  10.919   2.456   7.223 -1.0401  0.8725  0.7319
  473MOL0     H63795  11.032   2.502   7.344 -0.1445 -1.9602 -0.7122
  473MOL0     H63796  10.883   2.660   7.132  0.5435  2.9540  0.5257
  473MOL0     H63797  10.933   2.759   7.263  0.6494  0.0653  0.0028
  473MOL0     H63798  11.181   2.630   7.221 -2.0975 -1.1483  1.0062
  473MOL0     H63799  11.108   2.582   7.086 -0.2741 -1.7114  0.3119
  473MOL0     H63800  11.080   2.804   6.990  0.8000  2.4358 -1.6507
  473MOL0     H63801  11.096   2.890   7.136 -0.0997 -0.2978 -1.3832
  473MOL0     H63802  11.327   2.731   6.995  1.7547  0.2648  0.9938
  473MOL0     H63803  11.340   2.777   7.161  2.6370 -0.2785 -1.1509
  473MOL0     H63804  11.307   3.008   7.116 -1.7302  0.8045 -1.3133
  473MOL0     H63805  11.444   2.939   7.019  0.0861  1.2735 -0.0154
  473MOL0     H63806  11.348   2.822   6.766 -0.6033 -0.1333  0.5216
  473MOL0     H63807  11.252   3.027   6.481  0.5540 -1.7352 -2.6136
  473MOL0     H63808  11.305   2.863   6.514  0.8937  1.4709  0.6466
  473MOL0     H63809  11.104   2.838   6.375 -4.2234 -0.1577 -0.4808
  473MOL0     H63810  11.058   2.791   6.528 -0.4417 -1.8386 -1.5923
  473MOL0     H63811  11.055   3.082   6.447 -2.9320  2.2060  1.4053
  473MOL0     H63812  10.953   3.008   6.573 -0.9896  0.3125 -0.2387
  473MOL0     H63813  10.863   2.876   6.370  0.4935  0.0689 -2.5779
  473MOL0     H63814  10.899   3.016   6.269  0.1593  1.6572 -0.2287
  473MOL0     H63815  10.944   3.238   6.295 -1.3772  0.8995 -2.3021
  473MOL0     H63816  10.914   3.478   6.302  2.1559 -0.8959  0.8394
  473MOL0     H63817  10.714   3.890   6.161 -1.4387  0.6288  1.4237
  473MOL0     H63818  10.712   4.124   6.211  1.0114  0.8352  0.7040
  473MOL0     H63819  10.814   4.339   6.585 -1.4642  0.6970 -1.5840
  473MOL0     H63820  10.982   4.292   6.524  1.2408 -0.4442  0.7723
  473MOL0     H63821  10.826   4.481   6.349  0.8371 -0.3938 -0.2093
  473MOL0     H63822  10.872   4.544   6.513  1.0865 -1.6462  2.2815
  473MOL0     H63823  11.075   4.418   6.336  3.8800  0.1398  1.9963
  473MOL0     H63824  11.019   4.582   6.312  1.7826 -0.0933 -0.8049
  473MOL0     H63825  11.144   4.475   6.579 -2.2452  0.0332  0.5348
  473MOL0     H63826  11.105   4.637   6.537 -2.5985 -0.2596 -0.3985
  473MOL0     H63827  11.237   4.578   6.312  2.1407 -1.9661 -1.7291
  473MOL0     H63828  11.304   4.444   6.387  0.7863  1.4759 -4.5028
  473MOL0     H63829  11.482   4.618   6.421  0.5982 -0.9903  1.0938
  473MOL0     H63830  11.363   4.729   6.493  3.0862 -0.0970  1.6915
  473MOL0     H63831  11.426   4.469   6.596 -0.1314  0.3254  0.5061
  473MOL0     H63832  11.332   4.594   6.684  0.5696  0.6376  0.0888
  473MOL0     H63833  11.576   4.615   6.772 -0.8577 -1.5238  0.0989
  473MOL0     H63834  11.633   4.619   6.602  0.7955  0.0394  0.5971
  473MOL0     H63835  10.955   4.070   6.564 -1.7119 -0.6962  1.1318
  473MOL0     H63836  10.916   3.823   6.533 -1.4944  0.3020  0.3646
  473MOL0     H63837  10.570   3.457   6.547 -0.1674  1.7767 -3.2801
  473MOL0     H63838  10.570   3.208   6.543 -1.3972  0.8587 -0.8113
  473MOL0     H63839  10.674   2.805   7.492 -0.3418 -0.2545 -0.5566
  473MOL0     H63840  10.626   2.943   7.678 -2.5636  1.2740  0.3742
  473MOL0     H63841  10.378   2.886   8.131  1.2166  1.5481  2.6834
  473MOL0     H63842  10.304   3.003   8.321  0.7267 -2.7595 -0.5448
  473MOL0     H63843  10.049   3.345   8.255 -0.4528 -1.9270 -0.2748
  473MOL0     H63844  10.178   3.439   8.329  1.3024 -0.9505 -0.5123
  473MOL0     H63845  10.094   3.445   8.528  3.0613 -2.6992  2.2536
  473MOL0     H63846  10.074   3.278   8.545  2.3407 -0.7417 -1.3095
  473MOL0     H63847   9.843   3.321   8.404 -1.2229 -1.4843  1.7542
  473MOL0     H63848   9.899   3.481   8.446  0.3343 -0.0278 -1.6135
  473MOL0     H63849   9.728   3.356   8.595 -0.1653  1.5252  0.3894
  473MOL0     H63850   9.858   3.255   8.647 -0.0821  0.4971  1.8435
  473MOL0     H63851   9.934   3.621   8.858  1.0343  0.1518 -0.7048
  473MOL0     H63852  10.205   3.341   8.090  3.0380  0.5790  1.6392
  473MOL0     H63853  10.350   3.255   7.810  0.2505 -3.2881 -1.1660
  473MOL0     H63854  10.199   3.181   7.779  2.4773 -1.4298  0.2136
  473MOL0     H63855  10.207   3.346   7.863 -0.6750  0.0787 -2.3360
  474MOL0     O63856   4.227   2.615   7.814  0.4746 -0.5021  0.2805
  474MOL0     C63857   4.280   2.688   7.728  1.0698  0.1675 -0.2300
  474MOL0     O63858   4.381   2.639   7.644  0.6326 -0.4755  0.6666
  474MOL0     C63859   4.426   2.511   7.666 -1.0036  0.3108  0.6693
  474MOL0     C63860   4.369   2.400   7.606 -0.8668  0.3091 -1.1221
  474MOL0     C63861   4.430   2.273   7.612 -0.3884 -0.0845  1.0243
  474MOL0     C63862   4.548   2.257   7.672  0.3791 -0.1738 -0.9809
  474MOL0     O63863   4.619   2.143   7.686  0.7729 -0.6070  0.4252
  474MOL0     C63864   4.636   2.059   7.570 -0.1749  0.3902  0.1478
  474MOL0     C63865   4.571   1.922   7.598  0.9521 -0.5726 -0.0812
  474MOL0     C63866   4.655   1.844   7.695 -0.0849  0.7513 -0.1036
  474MOL0     C63867   4.597   1.697   7.716 -0.1783  0.7524  0.0338
  474MOL0     C63868   4.582   1.606   7.598 -0.0683 -0.2121 -0.4860
  474MOL0     C63869   4.519   1.478   7.648 -0.4525 -1.0582  0.2060
  474MOL0     C63870   4.563   1.365   7.544  1.5699 -0.1036 -0.1420
  474MOL0     C63871   4.486   1.234   7.580 -0.7370  0.3303  0.2884
  474MOL0     N63872   4.544   1.145   7.690 -0.9132 -0.3931  0.6772
  474MOL0     C63873   4.609   1.020   7.676 -0.7158  0.4518 -0.7633
  474MOL0     C63874   4.635   0.982   7.811  0.3194  0.6751  0.1548
  474MOL0     C63875   4.703   0.859   7.850 -0.0600  0.2210  1.3511
  474MOL0     C63876   4.756   0.856   7.989  0.3205 -1.1866  0.4777
  474MOL0     C63877   4.803   0.711   8.026 -0.5107  0.1470 -0.9084
  474MOL0     C63878   4.893   0.712   8.152 -1.0099 -0.1175 -0.4654
  474MOL0     O63879   4.993   0.819   8.151  0.1846 -0.3462  0.6348
  474MOL0     C63880   5.075   0.852   8.258 -0.6827 -0.0295 -0.4289
  474MOL0     C63881   5.171   0.957   8.239  0.2458 -0.3443  0.3367
  474MOL0     C63882   5.270   0.979   8.336  0.1807 -0.4017  0.2865
  474MOL0     C63883   5.286   0.903   8.451 -0.6134  0.5207 -0.3044
  474MOL0     C63884   5.391   0.920   8.542 -0.8086 -0.1932  0.6724
  474MOL0     O63885   5.386   0.840   8.654 -0.3849  0.3874  0.3057
  474MOL0     C63886   5.471   0.839   8.758  0.8102  0.0483 -0.3140
  474MOL0     C63887   5.490   0.719   8.828 -0.1527 -0.2228 -0.3447
  474MOL0     C63888   5.570   0.718   8.943  0.1574  0.1363  0.7692
  474MOL0     C63889   5.627   0.834   8.994 -0.4261  0.3820  0.7247
  474MOL0     O63890   5.709   0.827   9.101  0.0518 -0.5913 -0.3344
  474MOL0     C63891   5.673   0.927   9.198 -0.4673 -0.0177  0.0581
  474MOL0     C63892   5.583   0.888   9.313  0.4100  0.8947  0.4990
  474MOL0     C63893   5.628   0.941   9.455 -0.7939 -0.1424  0.4747
  474MOL0     C63894   5.551   0.867   9.565  0.5580  0.0753  0.3674
  474MOL0     C63895   5.553   0.950   9.694 -0.3951  1.6971 -0.6953
  474MOL0     C63896   5.508   0.867   9.817 -0.0909 -0.0629 -1.1491
  474MOL0     C63897   5.603   0.750   9.865 -1.0492 -0.8814 -0.0255
  474MOL0     C63898   5.593   0.706  10.017 -0.0098  0.2360 -0.0293
  474MOL0    Cl63899   5.730   0.608  10.063  0.3457  0.1165  0.1103
  474MOL0     C63900   5.645   0.946   8.901 -0.1581  0.1114 -0.6492
  474MOL0     C63901   5.551   0.948   8.796  0.4048  0.0097  0.3686
  474MOL0     O63902   5.484   0.994   8.518 -0.6387 -0.3730  0.1982
  474MOL0     C63903   5.193   0.795   8.466  0.0033 -0.2482 -0.5313
  474MOL0     C63904   5.098   0.767   8.365  0.4481  0.2565 -0.8502
  474MOL0     N63905   4.556   1.061   7.891  0.7127 -0.5288 -0.1277
  474MOL0     N63906   4.504   1.158   7.816  0.3421 -0.5515  0.5067
  474MOL0     C63907   4.608   2.373   7.736  0.5796 -0.3017  0.2164
  474MOL0     C63908   4.550   2.497   7.719 -0.6104  0.8797 -0.7826
  474MOL0     C63909   4.219   2.813   7.687 -0.3027  0.7845 -0.2781
  474MOL0     C63910   4.084   2.832   7.715  0.4472  0.0441 -0.5109
  474MOL0     C63911   4.014   2.943   7.677  0.1921 -0.3596 -0.3759
  474MOL0     C63912   4.079   3.050   7.614  0.0528  0.8972 -0.1670
  474MOL0     O63913   4.013   3.156   7.562 -0.2624 -0.4658  0.2738
  474MOL0     C63914   3.868   3.147   7.533 -0.1280  0.1101  0.6745
  474MOL0     C63915   3.825   3.253   7.431  0.1496  0.0990 -0.0327
  474MOL0     C63916   3.848   3.393   7.479  0.7823 -0.6979  0.1580
  474MOL0     C63917   3.784   3.500   7.384 -0.3676 -0.5378  0.0404
  474MOL0     C63918   3.818   3.631   7.437  0.5929  0.8404 -1.0336
  474MOL0     C63919   3.866   3.737   7.482  0.4439  0.0471  0.0020
  474MOL0     C63920   4.215   3.045   7.587 -0.3580 -0.7436 -0.4935
  474MOL0     C63921   4.283   2.930   7.632 -0.3228 -0.4696  0.1890
  474MOL0     C63922   4.436   2.926   7.602 -0.3085 -0.0693  0.8372
  474MOL0     H63923   4.268   2.403   7.566 -0.8924 -2.3893 -1.4062
  474MOL0     H63924   4.385   2.188   7.561  3.2226 -1.6132  0.0720
  474MOL0     H63925   4.581   2.090   7.481 -0.1795 -0.9173 -0.3296
  474MOL0     H63926   4.745   2.058   7.556 -0.3885  0.0042 -1.8666
  474MOL0     H63927   4.563   1.874   7.500  0.6267  0.4091 -0.5479
  474MOL0     H63928   4.473   1.944   7.641  1.5538  2.3586  0.0251
  474MOL0     H63929   4.670   1.890   7.793  1.0920  2.2586 -0.9595
  474MOL0     H63930   4.757   1.832   7.658  0.3688 -0.3169  1.3716
  474MOL0     H63931   4.668   1.648   7.782  1.0774 -0.0949 -1.8595
  474MOL0     H63932   4.494   1.701   7.753  0.1862 -2.3234  1.7110
  474MOL0     H63933   4.528   1.652   7.514 -0.1733  1.5191  0.4961
  474MOL0     H63934   4.683   1.591   7.560  0.3344 -0.3645  0.6081
  474MOL0     H63935   4.542   1.456   7.752 -1.5139  0.4783  0.8121
  474MOL0     H63936   4.411   1.493   7.652 -0.4179 -1.0811  1.2793
  474MOL0     H63937   4.670   1.347   7.561  1.3776  1.2622  3.3767
  474MOL0     H63938   4.539   1.388   7.439 -0.6359 -2.8778 -0.3683
  474MOL0     H63939   4.396   1.273   7.629 -1.0048  0.4983 -0.3298
  474MOL0     H63940   4.454   1.181   7.490 -0.8460  0.1587  0.4262
  474MOL0     H63941   4.650   0.971   7.588  0.0577  2.1100 -1.3624
  474MOL0     H63942   4.630   0.778   7.842 -1.0076  1.2432 -1.4852
  474MOL0     H63943   4.773   0.829   7.772 -1.0199 -1.3867  1.0584
  474MOL0     H63944   4.830   0.936   7.993 -1.7465  0.8050  1.6157
  474MOL0     H63945   4.682   0.883   8.065  0.1311 -1.7032  0.4860
  474MOL0     H63946   4.852   0.667   7.939 -1.6223 -1.3418 -0.8328
  474MOL0     H63947   4.719   0.644   8.049 -0.1613  0.7124  2.5837
  474MOL0     H63948   4.953   0.620   8.159 -1.5450 -0.4673 -0.4201
  474MOL0     H63949   4.833   0.719   8.243  2.7664  3.0171  2.1550
  474MOL0     H63950   5.152   1.015   8.150 -0.6891 -0.6498  0.3270
  474MOL0     H63951   5.348   1.055   8.328  1.3811 -1.2789  2.7764
  474MOL0     H63952   5.449   0.629   8.783 -2.4014  0.6677 -0.2084
  474MOL0     H63953   5.603   0.628   8.995 -0.3958  0.2094  1.2486
  474MOL0     H63954   5.767   0.960   9.243  0.2564 -2.5210  0.5723
  474MOL0     H63955   5.619   1.014   9.160  0.6296 -0.3826 -2.5936
  474MOL0     H63956   5.481   0.916   9.285  0.9310  3.4356  0.8875
  474MOL0     H63957   5.589   0.779   9.323 -2.9072  0.5646  0.1524
  474MOL0     H63958   5.735   0.932   9.477 -0.2829  2.9094 -0.3974
  474MOL0     H63959   5.613   1.047   9.473  3.4183  0.1434  3.6805
  474MOL0     H63960   5.594   0.769   9.585 -1.8717 -1.5142 -1.7356
  474MOL0     H63961   5.445   0.859   9.542  0.3887  1.5689  0.4783
  474MOL0     H63962   5.485   1.035   9.687 -2.1143  0.3130 -1.4109
  474MOL0     H63963   5.650   0.998   9.713 -0.2236  3.0042 -4.2181
  474MOL0     H63964   5.521   0.935   9.902 -0.7502 -1.7343  0.3829
  474MOL0     H63965   5.400   0.851   9.814 -0.9091  3.6182  1.5763
  474MOL0     H63966   5.700   0.800   9.858  0.5915 -3.8964 -0.9235
  474MOL0     H63967   5.599   0.660   9.802 -0.1071 -1.3779  0.5902
  474MOL0     H63968   5.598   0.796  10.079 -3.0008  2.6164 -2.8591
  474MOL0     H63969   5.501   0.653  10.045 -1.3847  1.8448 -1.3232
  474MOL0     H63970   5.707   1.033   8.919 -1.3242  0.3627  2.9689
  474MOL0     H63971   5.546   1.037   8.734 -1.3845 -3.0178 -4.3938
  474MOL0     H63972   5.206   0.721   8.544  1.2652 -0.1306 -0.5958
  474MOL0     H63973   5.051   0.669   8.368  1.1180 -0.1740  3.9250
  474MOL0     H63974   4.697   2.371   7.799  1.2133 -1.2414 -0.6670
  474MOL0     H63975   4.596   2.591   7.746  0.3253  0.3406 -0.4860
  474MOL0     H63976   4.021   2.754   7.755  0.2130  1.1636  1.4570
  474MOL0     H63977   3.915   2.964   7.715  1.3990 -1.0265  3.6480
  474MOL0     H63978   3.809   3.146   7.625 -1.8357 -0.3385 -0.3808
  474MOL0     H63979   3.849   3.049   7.488  3.7510  0.6526 -2.7204
  474MOL0     H63980   3.717   3.251   7.412  0.3762  2.3561 -2.0140
  474MOL0     H63981   3.873   3.245   7.333 -1.8265  3.6480 -1.4701
  474MOL0     H63982   3.956   3.414   7.479  0.4983  0.8831  0.0876
  474MOL0     H63983   3.805   3.401   7.579  1.3642  1.0763  0.2991
  474MOL0     H63984   3.830   3.498   7.285  0.1232 -0.4731  0.2635
  474MOL0     H63985   3.677   3.487   7.367 -0.0585 -0.3998 -2.3952
  474MOL0     H63986   3.925   3.818   7.520  1.2928 -0.8870  0.7178
  474MOL0     H63987   4.262   3.118   7.523 -1.1094 -0.9925 -1.3429
  474MOL0     H63988   4.457   2.883   7.504 -1.0762  0.5481  0.3897
  474MOL0     H63989   4.483   3.025   7.596  2.6553 -1.4429 -0.5257
  474MOL0     H63990   4.504   2.865   7.662  4.2962 -0.4462 -4.0925
  475MOL0     O63991   2.648   0.991   3.418 -0.0718 -0.2898  0.3300
  475MOL0     C63992   2.525   1.010   3.425 -0.2498 -0.6988  0.9663
  475MOL0     O63993   2.442   1.020   3.314  0.5324 -0.5197 -0.1975
  475MOL0     C63994   2.487   1.047   3.180  0.3292 -0.3101 -0.2983
  475MOL0     C63995   2.389   1.115   3.108  0.2958  0.1156  0.0766
  475MOL0     C63996   2.407   1.148   2.970  1.2036  0.8034 -0.2950
  475MOL0     C63997   2.523   1.102   2.900  0.1170  0.7863  0.3112
  475MOL0     O63998   2.526   1.142   2.768 -0.3842  0.0446 -0.0736
  475MOL0     C63999   2.575   1.056   2.671  0.1071 -0.6502 -1.0183
  475MOL0     C64000   2.436   1.013   2.606 -0.2799  0.8326 -0.4318
  475MOL0     C64001   2.442   0.924   2.484 -0.3393  0.7966 -0.6248
  475MOL0     C64002   2.465   0.777   2.517  0.7430  0.9997 -0.0197
  475MOL0     C64003   2.618   0.736   2.516  0.0113  0.6667 -0.0820
  475MOL0     C64004   2.632   0.584   2.500 -0.1916 -0.3198  0.7607
  475MOL0     C64005   2.636   0.529   2.643  0.1247 -0.3817 -0.2782
  475MOL0     C64006   2.632   0.376   2.627 -1.0151  0.3923 -0.4189
  475MOL0     N64007   2.584   0.304   2.747  0.4683 -0.4007  0.0009
  475MOL0     C64008   2.451   0.295   2.764  0.1409 -0.4075 -0.7204
  475MOL0     C64009   2.437   0.211   2.870 -0.2722 -0.2057 -0.4072
  475MOL0     C64010   2.305   0.169   2.922  1.2570 -1.0113 -0.3594
  475MOL0     C64011   2.296   0.077   3.046 -0.7037 -1.2614 -0.0644
  475MOL0     C64012   2.350   0.157   3.167  0.1614  0.3585 -0.9630
  475MOL0     C64013   2.369   0.073   3.296 -0.3827  0.1734  0.5807
  475MOL0     O64014   2.242   0.014   3.320  0.3513  0.4143 -1.2351
  475MOL0     C64015   2.220  -0.027   3.450 -0.2616 -0.3959 -0.1937
  475MOL0     C64016   2.192   0.066   3.551  0.2231  0.8108  0.5008
  475MOL0     C64017   2.162   0.024   3.676  0.9197 -0.8219 -0.4528
  475MOL0     C64018   2.168  -0.107   3.717 -0.2294 -0.7118  0.6071
  475MOL0     C64019   2.147  -0.134   3.860  0.2144  0.0646 -0.1339
  475MOL0     O64020   2.156  -0.036   3.960  0.3324  0.3096 -0.2408
  475MOL0     C64021   2.116  -0.053   4.090  0.6095 -0.6293 -0.8723
  475MOL0     C64022   1.992  -0.065   4.136  0.8032 -0.0051 -0.1552
  475MOL0     C64023   1.976  -0.073   4.275 -0.0565 -0.1790  0.3122
  475MOL0     C64024   2.091  -0.063   4.363  0.8750  0.7906 -0.3315
  475MOL0     O64025   2.093  -0.058   4.504  0.7129 -0.2365  1.2974
  475MOL0     C64026   1.963  -0.044   4.559 -0.3047 -1.0276  0.3758
  475MOL0     C64027   1.917   0.099   4.578  0.0168 -0.0760  0.1984
  475MOL0     C64028   1.984   0.196   4.676 -0.1491 -0.0958 -1.2086
  475MOL0     C64029   2.005   0.149   4.818 -0.2303  0.4566  0.6975
  475MOL0     C64030   2.057   0.249   4.928 -0.6014 -0.6122 -0.4104
  475MOL0     C64031   2.156   0.196   5.031  0.4828  0.2275  0.5940
  475MOL0     C64032   2.179   0.304   5.147  0.5970  0.2386  0.6422
  475MOL0     C64033   2.306   0.276   5.225  0.1219 -0.1950  0.1919
  475MOL0    Cl64034   2.437   0.299   5.113 -0.1418  0.0639 -0.2500
  475MOL0     C64035   2.213  -0.040   4.310 -0.4405 -0.9651  0.2357
  475MOL0     C64036   2.230  -0.041   4.169 -0.5387 -0.7919  0.2709
  475MOL0     O64037   2.093  -0.237   3.883  0.7966 -0.3792 -0.7686
  475MOL0     C64038   2.201  -0.198   3.613 -1.0509  0.2546 -0.0334
  475MOL0     C64039   2.227  -0.154   3.481 -0.1438  0.2292  1.0577
  475MOL0     N64040   2.569   0.186   2.913  1.1635  0.3625 -0.2806
  475MOL0     N64041   2.657   0.246   2.843  0.0225  0.2594  0.6366
  475MOL0     C64042   2.622   1.035   2.978 -0.0407  0.1490  0.6780
  475MOL0     C64043   2.606   1.015   3.115 -0.1296 -0.3651 -1.3321
  475MOL0     C64044   2.464   1.009   3.560 -0.9082 -0.4870 -0.4340
  475MOL0     C64045   2.328   1.066   3.581  0.3974  0.4374 -0.4032
  475MOL0     C64046   2.267   1.084   3.705  0.8409  0.6102  0.1736
  475MOL0     C64047   2.339   1.042   3.815 -0.0215  0.2071 -0.5667
  475MOL0     O64048   2.278   1.063   3.941 -0.9750  0.2906 -0.5418
  475MOL0     C64049   2.272   0.964   4.041 -0.4655 -0.0490 -0.0682
  475MOL0     C64050   2.166   0.852   4.012  0.2044 -0.7014  0.1260
  475MOL0     C64051   2.235   0.719   3.975 -0.5290  0.9146 -0.5726
  475MOL0     C64052   2.124   0.620   3.981  0.0620 -0.5320  0.1644
  475MOL0     C64053   2.161   0.484   3.944 -0.2598 -0.1802  0.2093
  475MOL0     C64054   2.206   0.372   3.922  0.4342 -0.2509  0.6615
  475MOL0     C64055   2.472   1.004   3.806 -1.0845 -0.0463 -0.0748
  475MOL0     C64056   2.533   0.965   3.681 -0.0333 -0.6746 -0.0061
  475MOL0     C64057   2.658   0.890   3.685  0.3084  0.2811  0.1124
  475MOL0     H64058   2.300   1.157   3.153  1.8417  0.5039  3.0089
  475MOL0     H64059   2.335   1.201   2.909  0.0977  2.7730  2.4818
  475MOL0     H64060   2.635   1.108   2.595 -1.6594  1.3485 -1.1557
  475MOL0     H64061   2.628   0.978   2.725  0.0016 -0.1095 -0.1150
  475MOL0     H64062   2.391   1.106   2.572 -0.2804  1.1326  0.3763
  475MOL0     H64063   2.370   0.967   2.680  1.5195  1.1704  1.4800
  475MOL0     H64064   2.519   0.960   2.415  0.9864 -4.2952 -2.2435
  475MOL0     H64065   2.347   0.934   2.431 -1.4010  0.2452  1.0956
  475MOL0     H64066   2.421   0.743   2.611 -0.6830 -0.6272 -1.2266
  475MOL0     H64067   2.411   0.720   2.441  1.3575  0.7007 -0.2408
  475MOL0     H64068   2.664   0.780   2.427 -0.6162 -2.8451 -2.3559
  475MOL0     H64069   2.663   0.771   2.609 -0.8955 -2.5636  1.7421
  475MOL0     H64070   2.548   0.539   2.445  0.4322  0.4502 -0.9088
  475MOL0     H64071   2.724   0.554   2.448 -0.4428 -0.3714  0.3353
  475MOL0     H64072   2.552   0.561   2.706  1.7368  0.4367  1.5455
  475MOL0     H64073   2.724   0.557   2.701 -2.1898  4.6928  1.3884
  475MOL0     H64074   2.560   0.362   2.546 -2.9381  1.6408  0.9919
  475MOL0     H64075   2.726   0.333   2.592 -0.9292  1.2429 -1.2585
  475MOL0     H64076   2.366   0.344   2.717  0.1921  2.7953  2.0659
  475MOL0     H64077   2.245   0.257   2.949 -1.4982 -3.1006  0.7635
  475MOL0     H64078   2.243   0.133   2.840  0.6815  1.3211 -1.0460
  475MOL0     H64079   2.191   0.058   3.071 -1.7104  2.7926 -0.5466
  475MOL0     H64080   2.346  -0.019   3.033  1.0689 -0.2299 -1.4089
  475MOL0     H64081   2.281   0.240   3.183  2.3047  1.7301  2.1305
  475MOL0     H64082   2.447   0.203   3.145 -0.3474  1.1627 -1.5460
  475MOL0     H64083   2.398   0.151   3.367  0.6239  0.6344 -0.3193
  475MOL0     H64084   2.445  -0.003   3.276  0.6208  1.4501 -0.6566
  475MOL0     H64085   2.176   0.166   3.512 -2.8819 -0.2108 -1.1528
  475MOL0     H64086   2.134   0.101   3.747  3.1926 -2.0042  1.9003
  475MOL0     H64087   1.908  -0.086   4.071  1.4317 -2.7972 -0.1827
  475MOL0     H64088   1.871  -0.081   4.301 -0.1631  2.0012  0.7370
  475MOL0     H64089   1.891  -0.098   4.497 -2.3770 -0.9902  2.5690
  475MOL0     H64090   1.961  -0.089   4.659 -0.9819 -3.4197 -0.6640
  475MOL0     H64091   1.913   0.157   4.485  0.0387  0.2982  0.4249
  475MOL0     H64092   1.818   0.090   4.624 -0.3807 -0.0820 -0.6239
  475MOL0     H64093   2.082   0.223   4.635 -0.1645  3.9617  0.9091
  475MOL0     H64094   1.924   0.288   4.674 -0.9579 -0.5961 -0.5556
  475MOL0     H64095   2.079   0.069   4.814  0.0010  0.7101 -1.4038
  475MOL0     H64096   1.913   0.095   4.843 -1.2046  1.1145 -1.1971
  475MOL0     H64097   1.967   0.287   4.977 -0.3572 -1.0522  0.3995
  475MOL0     H64098   2.110   0.336   4.889  0.3284  0.9443  3.7581
  475MOL0     H64099   2.115   0.103   5.069 -0.6649 -0.2994 -1.7083
  475MOL0     H64100   2.250   0.162   4.986 -0.1192 -0.9597  0.2014
  475MOL0     H64101   2.100   0.280   5.218 -0.5337 -1.6753 -1.1326
  475MOL0     H64102   2.166   0.408   5.117 -2.5334 -0.8922 -2.7281
  475MOL0     H64103   2.326   0.351   5.302  1.3981 -1.7226  1.4160
  475MOL0     H64104   2.310   0.177   5.271 -1.8289 -0.8631 -0.9342
  475MOL0     H64105   2.296  -0.034   4.380 -1.6083 -1.0748  1.7003
  475MOL0     H64106   2.319  -0.024   4.109  0.4262  0.4718  2.0086
  475MOL0     H64107   2.214  -0.301   3.644 -0.1738  1.0367  2.4290
  475MOL0     H64108   2.237  -0.224   3.399  1.7473  2.2636 -0.5752
  475MOL0     H64109   2.719   1.006   2.941 -0.1999 -0.3798  0.6692
  475MOL0     H64110   2.696   0.980   3.165  0.5953  2.0149 -0.8473
  475MOL0     H64111   2.261   1.085   3.498 -0.7429 -0.7934  0.1961
  475MOL0     H64112   2.168   1.129   3.703  0.9444  0.8365  0.1337
  475MOL0     H64113   2.255   1.019   4.134  1.1011  0.2441  0.0838
  475MOL0     H64114   2.369   0.914   4.051 -0.7097 -0.3137  1.0940
  475MOL0     H64115   2.112   0.888   3.924  0.4912 -0.3482  0.0899
  475MOL0     H64116   2.105   0.837   4.102 -1.9270 -0.0853 -1.1431
  475MOL0     H64117   2.314   0.682   4.042 -0.1627  1.9797 -0.3898
  475MOL0     H64118   2.280   0.723   3.875 -0.3471  0.4463 -0.5151
  475MOL0     H64119   2.078   0.626   4.080  2.2049  1.4496  1.1151
  475MOL0     H64120   2.044   0.656   3.914 -0.8503 -0.5817  1.1928
  475MOL0     H64121   2.252   0.277   3.903  0.9944 -0.0405  0.9271
  475MOL0     H64122   2.536   1.002   3.893 -1.5709  0.4419  0.3028
  475MOL0     H64123   2.663   0.834   3.779 -0.3252  1.1538  0.6829
  475MOL0     H64124   2.648   0.808   3.614  0.9032  0.2068  0.1109
  475MOL0     H64125   2.746   0.955   3.684  2.7185 -2.7124  1.4917
  476MOL0     O64126   8.513   0.209   6.495 -0.0615  0.1936 -0.1439
  476MOL0     C64127   8.596   0.294   6.516  0.3072  0.0074 -0.4415
  476MOL0     O64128   8.610   0.355   6.631 -0.7347 -0.1336 -0.0962
  476MOL0     C64129   8.529   0.337   6.742  0.8054 -0.4686 -1.0578
  476MOL0     C64130   8.388   0.299   6.731  0.5027  0.0772 -0.4924
  476MOL0     C64131   8.315   0.267   6.845  0.3238  0.5352  0.3954
  476MOL0     C64132   8.369   0.285   6.977  0.3012  0.0971 -0.1599
  476MOL0     O64133   8.304   0.266   7.094  0.1393 -0.2325 -0.1401
  476MOL0     C64134   8.166   0.232   7.083  0.3460  0.0053  0.6319
  476MOL0     C64135   8.118   0.242   7.231  0.8251 -0.5313  0.4897
  476MOL0     C64136   8.168   0.119   7.309  0.1969 -0.6742  0.3745
  476MOL0     C64137   8.154   0.128   7.458 -0.2642 -0.7536 -0.4089
  476MOL0     C64138   8.175  -0.000   7.533 -0.1901  0.1439  0.8000
  476MOL0     C64139   8.065  -0.107   7.518 -0.0734 -0.8202  0.6190
  476MOL0     C64140   8.124  -0.243   7.571  0.3072 -0.5580  0.3133
  476MOL0     C64141   8.031  -0.362   7.542 -0.1507 -0.3282 -0.5891
  476MOL0     N64142   8.114  -0.484   7.528 -0.2739 -0.0758 -0.6651
  476MOL0     C64143   8.221  -0.510   7.449 -1.4792  0.8567  0.1464
  476MOL0     C64144   8.254  -0.642   7.478 -0.9218  1.3557  0.2468
  476MOL0     C64145   8.350  -0.731   7.399 -0.2348  1.7827 -0.1003
  476MOL0     C64146   8.492  -0.666   7.374 -0.4602  0.3229  0.4998
  476MOL0     C64147   8.475  -0.595   7.233 -0.5334 -0.3761 -0.1123
  476MOL0     C64148   8.604  -0.523   7.217 -0.3232  0.0213 -0.2945
  476MOL0     O64149   8.606  -0.468   7.085 -0.1230 -0.6968  0.1822
  476MOL0     C64150   8.495  -0.395   7.033  0.0485 -0.2974 -0.7820
  476MOL0     C64151   8.473  -0.408   6.898 -0.0384  0.8588 -0.7848
  476MOL0     C64152   8.372  -0.340   6.834  1.0230  0.6460  0.0316
  476MOL0     C64153   8.297  -0.241   6.909 -0.8115 -0.4927  1.3504
  476MOL0     C64154   8.188  -0.157   6.848 -0.9909  0.4159 -0.4296
  476MOL0     O64155   8.167  -0.179   6.717 -0.9103 -0.1593 -0.0801
  476MOL0     C64156   8.076  -0.095   6.661  0.0846 -0.5631  0.9517
  476MOL0     C64157   7.947  -0.141   6.637 -0.0763  0.0544 -0.2492
  476MOL0     C64158   7.846  -0.060   6.578 -0.2040 -0.9281  0.2196
  476MOL0     C64159   7.890   0.074   6.544 -0.0892 -0.5415  0.8028
  476MOL0     O64160   7.805   0.169   6.479 -0.7492  1.0845 -0.1541
  476MOL0     C64161   7.687   0.129   6.406 -0.3926 -0.0806 -0.3087
  476MOL0     C64162   7.656   0.238   6.307  0.0617 -0.6194 -0.0076
  476MOL0     C64163   7.511   0.241   6.257 -0.8799 -0.0223 -0.4399
  476MOL0     C64164   7.460   0.107   6.197  0.1623  0.3579  1.2878
  476MOL0     C64165   7.546   0.060   6.078 -0.5410 -0.4128 -0.1577
  476MOL0     C64166   7.482  -0.067   6.018 -0.6710  0.3528  0.1854
  476MOL0     C64167   7.348  -0.057   5.936  0.3653 -0.3986  0.2790
  476MOL0     C64168   7.247  -0.178   5.952  0.4159 -0.0093 -0.6189
  476MOL0    Cl64169   7.306  -0.344   5.908  0.0557  0.6021 -0.0056
  476MOL0     C64170   8.019   0.114   6.566  1.0623 -0.2510 -0.4062
  476MOL0     C64171   8.109   0.038   6.621 -0.3353  0.8568 -0.3880
  476MOL0     O64172   8.139  -0.068   6.916 -0.1893 -0.8034 -0.5897
  476MOL0     C64173   8.330  -0.223   7.045  0.4378  0.2118  0.2989
  476MOL0     C64174   8.422  -0.299   7.107 -0.0180 -0.4359 -0.5446
  476MOL0     N64175   8.166  -0.695   7.568 -0.6887  0.0407 -0.4628
  476MOL0     N64176   8.076  -0.607   7.591  0.6816 -0.2571 -0.8834
  476MOL0     C64177   8.508   0.331   6.982  0.1308  0.3705  0.5225
  476MOL0     C64178   8.584   0.361   6.872 -0.8496 -0.0967  0.1432
  476MOL0     C64179   8.685   0.321   6.405 -0.6439  0.2017  1.1227
  476MOL0     C64180   8.641   0.321   6.268  0.9214 -0.0992 -0.1205
  476MOL0     C64181   8.722   0.365   6.161 -0.0668  0.1831 -0.2826
  476MOL0     C64182   8.845   0.416   6.179 -0.0909 -0.3598 -0.0880
  476MOL0     O64183   8.910   0.458   6.065  0.0530 -0.6978 -0.3141
  476MOL0     C64184   9.049   0.488   6.068 -0.0241 -0.4019  0.2538
  476MOL0     C64185   9.105   0.480   5.930 -0.6397  1.2658  1.2250
  476MOL0     C64186   9.014   0.565   5.837 -0.4924  0.1843 -0.2913
  476MOL0     C64187   9.074   0.581   5.694  0.3315  0.3467  0.2374
  476MOL0     C64188   9.194   0.665   5.695 -0.0524  0.8027  0.3388
  476MOL0     C64189   9.289   0.731   5.715 -0.0193 -0.0734  0.1765
  476MOL0     C64190   8.899   0.404   6.305 -0.0413 -1.4896 -0.7446
  476MOL0     C64191   8.823   0.363   6.419  0.9912 -0.5219  0.0405
  476MOL0     C64192   8.872   0.356   6.556  0.3450 -0.0768 -1.0572
  476MOL0     H64193   8.334   0.303   6.637  0.0225 -3.4913 -0.5095
  476MOL0     H64194   8.213   0.229   6.840  0.7730 -0.6155 -0.5604
  476MOL0     H64195   8.117   0.307   7.020  2.0917  0.6290 -0.0335
  476MOL0     H64196   8.145   0.139   7.029 -1.8667  1.2200 -0.7157
  476MOL0     H64197   8.008   0.243   7.237  0.5486  4.0253 -0.9384
  476MOL0     H64198   8.161   0.332   7.276  0.8371  1.3365 -2.9056
  476MOL0     H64199   8.274   0.110   7.281  0.2923  2.1973 -0.5449
  476MOL0     H64200   8.124   0.028   7.267 -0.1624  0.6241 -2.2398
  476MOL0     H64201   8.226   0.198   7.501 -0.7815 -0.5229  0.0976
  476MOL0     H64202   8.057   0.171   7.484  0.0480 -0.4257  0.2331
  476MOL0     H64203   8.273  -0.041   7.504  0.5794  0.0423  3.3254
  476MOL0     H64204   8.195   0.024   7.637  2.7894 -0.0428  0.3559
  476MOL0     H64205   7.972  -0.083   7.571  2.1226  3.2016  3.2042
  476MOL0     H64206   8.031  -0.111   7.414  0.2233  2.0626  0.3261
  476MOL0     H64207   8.148  -0.223   7.676 -1.0588 -1.4474  0.8171
  476MOL0     H64208   8.219  -0.262   7.521  0.0711  1.1818 -0.8865
  476MOL0     H64209   7.962  -0.377   7.625  2.1475 -0.6391  1.3544
  476MOL0     H64210   7.977  -0.344   7.449  0.4790  0.0519 -0.8927
  476MOL0     H64211   8.270  -0.441   7.380  0.3584 -0.6809 -0.1513
  476MOL0     H64212   8.370  -0.820   7.461 -0.6818  2.7095  1.4329
  476MOL0     H64213   8.306  -0.772   7.308 -1.3173  1.8809  0.3602
  476MOL0     H64214   8.515  -0.599   7.457  1.4855 -0.1027  0.3755
  476MOL0     H64215   8.571  -0.742   7.377  1.4230  2.0493 -1.7105
  476MOL0     H64216   8.388  -0.529   7.238 -1.8585 -2.1196  0.7742
  476MOL0     H64217   8.458  -0.665   7.150  1.2953 -0.5431 -0.3943
  476MOL0     H64218   8.682  -0.598   7.230  1.3148  2.1105  3.5414
  476MOL0     H64219   8.619  -0.449   7.295  1.5892  0.5203 -1.0734
  476MOL0     H64220   8.534  -0.480   6.845 -2.9665 -2.1074 -0.4945
  476MOL0     H64221   8.351  -0.341   6.727  2.9372  0.6150 -0.3718
  476MOL0     H64222   7.919  -0.242   6.666 -1.2613 -0.5062 -3.0003
  476MOL0     H64223   7.747  -0.084   6.542  0.0499 -1.4429 -0.1422
  476MOL0     H64224   7.706   0.035   6.353  0.2684 -0.7978  1.1405
  476MOL0     H64225   7.604   0.126   6.476  1.3321  2.7053  2.1104
  476MOL0     H64226   7.678   0.338   6.346 -2.2854  1.7426 -4.0433
  476MOL0     H64227   7.714   0.222   6.215  1.3908 -0.2033  0.7286
  476MOL0     H64228   7.444   0.284   6.332  0.6109  2.3957 -0.3737
  476MOL0     H64229   7.513   0.318   6.180 -1.8744  1.3691  0.8514
  476MOL0     H64230   7.358   0.121   6.161 -0.9087 -1.5844  3.2957
  476MOL0     H64231   7.454   0.023   6.266  0.7349 -2.0439 -1.4162
  476MOL0     H64232   7.646   0.040   6.116 -0.7325  0.2537  0.7246
  476MOL0     H64233   7.548   0.141   6.004 -0.8595  0.5730  0.8855
  476MOL0     H64234   7.549  -0.122   5.952 -0.0238 -1.0144  1.8901
  476MOL0     H64235   7.462  -0.136   6.101 -3.2894 -3.3400 -3.1503
  476MOL0     H64236   7.371  -0.053   5.829 -0.5475 -1.4613  0.0150
  476MOL0     H64237   7.288   0.033   5.954 -1.5823 -1.1843 -1.7653
  476MOL0     H64238   7.227  -0.186   6.059  1.5392 -0.0899 -0.4022
  476MOL0     H64239   7.151  -0.156   5.904  0.1653 -1.2237 -0.6975
  476MOL0     H64240   8.046   0.206   6.516 -1.2913  0.3586 -0.6736
  476MOL0     H64241   8.214   0.064   6.625  0.4485 -1.9433 -0.5657
  476MOL0     H64242   8.268  -0.162   7.110 -0.0154  0.2934 -0.2001
  476MOL0     H64243   8.449  -0.278   7.210  0.0090 -0.5553 -0.5269
  476MOL0     H64244   8.567   0.329   7.073  0.5694  0.0126  0.2350
  476MOL0     H64245   8.682   0.405   6.888 -0.0074 -1.5407 -0.7699
  476MOL0     H64246   8.544   0.281   6.241  1.3855 -4.2958  3.3182
  476MOL0     H64247   8.678   0.371   6.063  0.3269  3.1564 -0.3666
  476MOL0     H64248   9.109   0.416   6.123 -0.8115 -1.7847 -0.6292
  476MOL0     H64249   9.067   0.591   6.102  0.6840 -1.4293  3.2288
  476MOL0     H64250   9.092   0.380   5.888 -1.6837  1.3872  1.2319
  476MOL0     H64251   9.207   0.519   5.928 -0.0497 -0.1811  1.3074
  476MOL0     H64252   8.970   0.661   5.866 -3.1524 -1.1698  0.4310
  476MOL0     H64253   8.919   0.511   5.831 -1.5107  1.8716 -0.0255
  476MOL0     H64254   9.093   0.482   5.653  2.0109  0.1283  1.4451
  476MOL0     H64255   9.006   0.635   5.627  0.6418  2.7875  1.7494
  476MOL0     H64256   9.370   0.784   5.760 -0.9338  1.8076 -0.2997
  476MOL0     H64257   8.992   0.449   6.338 -0.4636  0.3107 -1.8960
  476MOL0     H64258   8.981   0.350   6.549  0.9576  0.9462  4.0243
  476MOL0     H64259   8.842   0.446   6.611  0.4195 -0.5087 -0.2977
  476MOL0     H64260   8.841   0.269   6.614  1.1857 -0.1441 -0.6927
  477MOL0     O64261   0.776   9.130   7.865 -1.8235 -0.4940 -0.1837
  477MOL0     C64262   0.854   9.085   7.776 -0.5848 -0.0296 -0.4284
  477MOL0     O64263   0.918   8.961   7.789 -0.5221 -0.0480 -0.4471
  477MOL0     C64264   0.930   8.896   7.911 -0.3972 -0.4650  0.8005
  477MOL0     C64265   0.944   8.757   7.912  0.0013 -0.0131  0.1646
  477MOL0     C64266   0.967   8.679   8.027 -0.4452 -0.1133 -0.4675
  477MOL0     C64267   0.962   8.737   8.149 -0.2743  0.1741  0.5828
  477MOL0     O64268   0.964   8.648   8.251 -0.2738  0.4457 -0.8573
  477MOL0     C64269   1.054   8.677   8.367  0.4542  0.4859 -0.0818
  477MOL0     C64270   1.074   8.544   8.443  0.1826 -0.6252  0.5038
  477MOL0     C64271   1.124   8.573   8.587 -0.0062  0.5783  0.2105
  477MOL0     C64272   1.116   8.452   8.683 -0.5142 -0.3563  0.5168
  477MOL0     C64273   1.221   8.454   8.791 -0.4993  0.5898  0.8476
  477MOL0     C64274   1.223   8.318   8.864 -0.1561  0.0565  0.7664
  477MOL0     C64275   1.333   8.296   8.964  0.3871 -0.2169 -0.1434
  477MOL0     C64276   1.323   8.403   9.075 -1.1435 -0.9072 -0.7988
  477MOL0     N64277   1.422   8.370   9.172  0.1167 -0.5622 -0.1439
  477MOL0     C64278   1.556   8.396   9.153 -0.1775 -0.7659  0.8098
  477MOL0     C64279   1.613   8.386   9.277  0.8090 -0.4556 -0.2971
  477MOL0     C64280   1.755   8.399   9.295 -0.0195 -0.3665  0.5434
  477MOL0     C64281   1.828   8.279   9.237  0.0484  0.4819 -0.9235
  477MOL0     C64282   1.978   8.313   9.231  0.3296 -0.1803 -0.0612
  477MOL0     C64283   2.067   8.223   9.141 -0.9960 -0.3928 -0.2337
  477MOL0     O64284   1.997   8.218   9.016 -0.2763  0.3473  0.8203
  477MOL0     C64285   2.055   8.149   8.911 -0.7381  0.2189  1.3669
  477MOL0     C64286   1.992   8.156   8.783  0.6953  0.0100  0.0824
  477MOL0     C64287   2.036   8.082   8.678 -0.3131 -0.1532  0.3233
  477MOL0     C64288   2.154   8.007   8.683  0.6830  0.3186  0.0108
  477MOL0     C64289   2.210   7.916   8.581 -0.1900 -0.8278  0.3641
  477MOL0     O64290   2.153   7.915   8.459 -0.2834  0.1795 -0.1769
  477MOL0     C64291   2.192   7.810   8.374  0.9773 -0.1628 -0.2002
  477MOL0     C64292   2.196   7.679   8.416  0.3710  0.0782  0.7819
  477MOL0     C64293   2.222   7.572   8.325 -0.3370 -0.6101  0.5722
  477MOL0     C64294   2.242   7.602   8.192 -0.6712  0.4563  0.8827
  477MOL0     O64295   2.291   7.497   8.117  0.1290  0.8083 -0.2014
  477MOL0     C64296   2.301   7.495   7.977  0.9887  0.0068 -0.2870
  477MOL0     C64297   2.314   7.347   7.925  0.3658 -0.5902  0.1551
  477MOL0     C64298   2.397   7.349   7.795 -0.0887 -0.0048  0.1903
  477MOL0     C64299   2.546   7.338   7.835 -1.1248  0.5513  0.2293
  477MOL0     C64300   2.645   7.331   7.712 -0.1558 -0.5471 -0.1909
  477MOL0     C64301   2.797   7.348   7.756  0.4054  0.0942 -0.0537
  477MOL0     C64302   2.887   7.302   7.637 -0.1152 -0.8587  0.1982
  477MOL0     C64303   3.038   7.322   7.682  1.4286  0.0014  0.3809
  477MOL0    Cl64304   3.124   7.355   7.530 -0.3021  0.3775 -0.0847
  477MOL0     C64305   2.228   7.730   8.149  0.8572 -0.4973  0.2100
  477MOL0     C64306   2.205   7.838   8.234  0.1016  0.7252 -0.4765
  477MOL0     O64307   2.304   7.842   8.615 -0.1899 -0.6864 -0.1122
  477MOL0     C64308   2.223   8.002   8.807  0.1994  0.2977 -0.4577
  477MOL0     C64309   2.170   8.073   8.919 -0.7086 -0.5763 -0.7206
  477MOL0     N64310   1.506   8.368   9.372 -0.1846  0.3694 -0.4439
  477MOL0     N64311   1.391   8.356   9.305  0.5655  0.2657 -0.3609
  477MOL0     C64312   0.955   8.883   8.157  0.1506  1.2439 -0.0345
  477MOL0     C64313   0.938   8.961   8.043  0.1898  0.0544  0.9554
  477MOL0     C64314   0.877   9.161   7.655  0.1154 -0.0441  0.0344
  477MOL0     C64315   1.000   9.133   7.583 -0.8083 -0.4276 -0.7077
  477MOL0     C64316   1.040   9.207   7.467 -0.5025  0.9358 -1.7199
  477MOL0     C64317   0.958   9.310   7.427 -0.0129 -0.7261 -0.0802
  477MOL0     O64318   1.016   9.388   7.329  0.7432  0.3348 -0.4249
  477MOL0     C64319   0.915   9.468   7.252  0.4814  0.3802  0.5164
  477MOL0     C64320   0.968   9.488   7.107 -0.2784 -0.1223  0.7212
  477MOL0     C64321   1.067   9.604   7.100 -0.5874  0.6215 -0.7529
  477MOL0     C64322   1.015   9.742   7.123  0.2639  0.1700 -0.1741
  477MOL0     C64323   0.888   9.768   7.062  0.3554  0.0866 -0.2006
  477MOL0     C64324   0.775   9.783   7.013  0.6709 -0.9215 -0.1251
  477MOL0     C64325   0.831   9.330   7.492 -0.7783  0.9257 -1.1530
  477MOL0     C64326   0.785   9.256   7.600  0.3459 -0.0663  0.1808
  477MOL0     C64327   0.643   9.285   7.650 -0.4987 -0.2878 -0.6413
  477MOL0     H64328   0.943   8.701   7.819  0.8366  1.3114 -0.6878
  477MOL0     H64329   0.982   8.572   8.021  1.9727  0.2059 -1.0809
  477MOL0     H64330   1.151   8.715   8.334  1.6239 -1.2024  1.2562
  477MOL0     H64331   1.011   8.757   8.428  1.7494 -0.1092  1.6933
  477MOL0     H64332   1.157   8.488   8.399  1.8345  0.8027  1.6589
  477MOL0     H64333   0.980   8.487   8.446  0.1497 -0.5907  0.1786
  477MOL0     H64334   1.074   8.658   8.636  0.5148  1.1186 -0.1787
  477MOL0     H64335   1.227   8.605   8.571  0.0256  0.4794  0.2177
  477MOL0     H64336   1.023   8.464   8.740  1.0893 -0.0918  3.2634
  477MOL0     H64337   1.122   8.357   8.629 -3.9161 -0.3253 -0.1153
  477MOL0     H64338   1.317   8.454   8.739 -1.8120 -1.4309 -1.8236
  477MOL0     H64339   1.207   8.543   8.853 -1.6565  2.3949 -1.8109
  477MOL0     H64340   1.132   8.308   8.925 -1.3640  0.0580 -0.9783
  477MOL0     H64341   1.218   8.235   8.794  5.5717 -0.6864  0.7885
  477MOL0     H64342   1.429   8.289   8.912 -0.0011  3.7168 -1.7510
  477MOL0     H64343   1.320   8.194   9.001 -0.6666  0.6492  2.0249
  477MOL0     H64344   1.344   8.506   9.044 -0.0320 -0.7859  0.3187
  477MOL0     H64345   1.221   8.406   9.114 -0.7489  0.1647  0.1931
  477MOL0     H64346   1.595   8.427   9.057 -4.4522  1.7214 -0.4011
  477MOL0     H64347   1.783   8.490   9.240  1.5577 -3.1601 -3.7988
  477MOL0     H64348   1.783   8.397   9.401  0.5302 -0.2876  0.4035
  477MOL0     H64349   1.797   8.193   9.297  2.9031  0.1959  0.2636
  477MOL0     H64350   1.799   8.276   9.131 -3.6481 -3.2212 -0.0859
  477MOL0     H64351   2.016   8.320   9.333  0.0548 -0.3878  0.0564
  477MOL0     H64352   1.984   8.412   9.186  3.1721 -0.2570 -0.0439
  477MOL0     H64353   2.095   8.129   9.190 -1.0894 -1.6328 -2.4673
  477MOL0     H64354   2.154   8.282   9.111 -2.2165  1.5328 -0.1885
  477MOL0     H64355   1.903   8.213   8.759 -0.1019 -1.7095 -1.3035
  477MOL0     H64356   1.990   8.075   8.580 -0.4918 -1.2573  0.4771
  477MOL0     H64357   2.185   7.658   8.521 -2.3717  1.3236  0.8288
  477MOL0     H64358   2.235   7.470   8.361  0.1089 -1.1162 -0.9548
  477MOL0     H64359   2.213   7.549   7.939  0.4186 -0.4502  0.3636
  477MOL0     H64360   2.391   7.548   7.944  1.2047  0.5139  1.0582
  477MOL0     H64361   2.357   7.284   8.004  2.4675  0.1051 -0.3557
  477MOL0     H64362   2.214   7.309   7.903  0.5480 -0.5996 -0.7198
  477MOL0     H64363   2.365   7.263   7.735  5.2103 -1.9719 -0.3184
  477MOL0     H64364   2.377   7.445   7.747 -1.5481 -0.3571  0.0303
  477MOL0     H64365   2.552   7.238   7.879 -0.2780  0.5738  0.1876
  477MOL0     H64366   2.579   7.405   7.915 -4.8381  0.8786  1.6808
  477MOL0     H64367   2.624   7.406   7.634  2.0203  1.1093  0.7042
  477MOL0     H64368   2.635   7.233   7.666  1.4765  0.0192 -1.8901
  477MOL0     H64369   2.816   7.452   7.785 -1.5067  1.6182 -3.6036
  477MOL0     H64370   2.822   7.280   7.838  0.3556  0.3743  0.1953
  477MOL0     H64371   2.867   7.365   7.550 -3.3599 -1.2230  0.5930
  477MOL0     H64372   2.861   7.204   7.598 -0.3924 -0.4246 -0.7448
  477MOL0     H64373   3.055   7.411   7.744 -0.7106  3.0845 -2.9822
  477MOL0     H64374   3.071   7.225   7.720  0.7446 -0.2308  0.4012
  477MOL0     H64375   2.234   7.747   8.042  3.3903 -0.5311  0.2845
  477MOL0     H64376   2.178   7.936   8.196 -0.0551  1.5454  1.6117
  477MOL0     H64377   2.308   7.936   8.822 -0.1073  0.3604  1.9098
  477MOL0     H64378   2.212   8.058   9.018  0.3341 -0.7083 -1.1726
  477MOL0     H64379   0.971   8.936   8.251 -0.2402  1.5595 -0.1423
  477MOL0     H64380   0.931   9.069   8.051  0.1572  0.3756 -2.1323
  477MOL0     H64381   1.072   9.065   7.626 -1.1976 -0.9389 -0.8519
  477MOL0     H64382   1.144   9.203   7.437 -0.1630  1.1477 -0.6195
  477MOL0     H64383   0.898   9.555   7.316  1.7515 -0.1394  1.6241
  477MOL0     H64384   0.828   9.402   7.244  0.5687  0.4449 -1.3817
  477MOL0     H64385   0.876   9.505   7.052 -1.5953 -0.2440  2.7858
  477MOL0     H64386   1.011   9.397   7.065  1.8947  1.9066 -1.8333
  477MOL0     H64387   1.126   9.602   7.008  0.0835 -0.1961 -0.3242
  477MOL0     H64388   1.141   9.593   7.181 -2.7686 -2.1986  1.0451
  477MOL0     H64389   1.003   9.755   7.231 -1.5353 -0.2858 -0.2915
  477MOL0     H64390   1.086   9.823   7.103 -2.2122  2.6763  0.6545
  477MOL0     H64391   0.678   9.796   6.971  0.0138 -2.4896  0.7991
  477MOL0     H64392   0.761   9.406   7.458  0.6056  2.4363 -0.7380
  477MOL0     H64393   0.592   9.189   7.663 -1.1061  0.0508 -0.5246
  477MOL0     H64394   0.646   9.351   7.737 -2.2631 -1.0903  0.0684
  477MOL0     H64395   0.588   9.328   7.566  1.0331  2.1268 -0.4940
  478MOL0     O64396   3.961   5.839   1.457 -0.0865 -0.0142  0.2065
  478MOL0     C64397   3.845   5.843   1.413  0.4112 -0.3249  0.1233
  478MOL0     O64398   3.796   5.951   1.347 -0.7270 -0.5589 -0.1153
  478MOL0     C64399   3.881   6.048   1.300  0.5376 -0.5953  1.1355
  478MOL0     C64400   3.908   6.167   1.365 -1.0287 -0.5708  0.0657
  478MOL0     C64401   3.995   6.261   1.296 -1.1735 -0.4925 -0.5824
  478MOL0     C64402   4.061   6.224   1.176  0.7455 -0.6262 -0.6482
  478MOL0     O64403   4.156   6.314   1.136  0.5302  0.5725 -0.3702
  478MOL0     C64404   4.223   6.299   1.008  0.8178  0.5936 -0.0694
  478MOL0     C64405   4.314   6.425   0.999 -0.1558  0.9358 -0.2419
  478MOL0     C64406   4.410   6.425   1.123  0.9079 -0.9226 -0.6945
  478MOL0     C64407   4.519   6.520   1.110 -0.3584 -0.7816 -0.2510
  478MOL0     C64408   4.630   6.491   1.214 -0.5034 -0.6565 -0.1429
  478MOL0     C64409   4.759   6.545   1.154 -0.5469  0.4316  0.3337
  478MOL0     C64410   4.770   6.696   1.175 -0.4989 -0.1819 -0.8846
  478MOL0     C64411   4.914   6.760   1.174 -0.8349  0.9225  0.3431
  478MOL0     N64412   4.909   6.913   1.182 -0.3240 -0.3354 -0.3725
  478MOL0     C64413   4.936   6.977   1.300 -0.6909  0.0184 -0.2755
  478MOL0     C64414   4.920   7.117   1.274 -0.1057 -0.6351 -0.8474
  478MOL0     C64415   4.913   7.226   1.375  0.0632  0.3680  0.0546
  478MOL0     C64416   4.824   7.340   1.338  1.0003  0.8426 -0.0505
  478MOL0     C64417   4.666   7.306   1.340  0.3827 -1.7864 -0.0649
  478MOL0     C64418   4.604   7.308   1.477  0.9999 -0.4506 -0.6649
  478MOL0     O64419   4.600   7.168   1.508 -0.4103  0.0675  0.9163
  478MOL0     C64420   4.568   7.138   1.632 -0.0376  0.1907  0.6517
  478MOL0     C64421   4.593   7.003   1.662 -0.6783 -0.1258 -1.3594
  478MOL0     C64422   4.579   6.961   1.801 -0.0009  0.0403  0.0081
  478MOL0     C64423   4.541   7.054   1.902  0.4995  1.1892  0.5627
  478MOL0     C64424   4.538   7.003   2.041  0.1531  0.2963  0.2752
  478MOL0     O64425   4.454   7.065   2.128  0.8975  0.3454 -0.1038
  478MOL0     C64426   4.460   7.006   2.252 -0.6179 -0.3548 -0.6746
  478MOL0     C64427   4.362   6.916   2.290 -0.2513 -0.6256  0.1463
  478MOL0     C64428   4.374   6.841   2.409 -0.1204  0.8904 -0.1576
  478MOL0     C64429   4.482   6.868   2.502  0.7357  0.4507  0.9175
  478MOL0     O64430   4.484   6.794   2.615 -0.0158  1.2518  0.0731
  478MOL0     C64431   4.602   6.774   2.691 -0.3379 -0.2365  0.4239
  478MOL0     C64432   4.565   6.727   2.836  1.5055 -0.1164 -0.2161
  478MOL0     C64433   4.516   6.582   2.855 -0.0699  0.1689  0.2841
  478MOL0     C64434   4.555   6.535   3.000 -0.4155  0.1202  0.3955
  478MOL0     C64435   4.509   6.394   3.023 -0.1380 -0.0385  0.2384
  478MOL0     C64436   4.521   6.351   3.163 -0.3836  0.6904  0.0227
  478MOL0     C64437   4.473   6.203   3.172 -0.0312 -0.7258 -0.5895
  478MOL0     C64438   4.567   6.108   3.241  0.3042 -0.2189  0.2318
  478MOL0    Cl64439   4.480   5.955   3.269 -0.1754 -0.1591  0.3742
  478MOL0     C64440   4.585   6.956   2.455 -1.0321 -0.0319  0.0666
  478MOL0     C64441   4.574   7.026   2.337  0.8221  0.2257  0.2605
  478MOL0     O64442   4.609   6.908   2.061 -0.0677 -0.1625  0.2694
  478MOL0     C64443   4.511   7.184   1.864  0.2609 -0.2934  0.3370
  478MOL0     C64444   4.526   7.231   1.735 -0.1979  0.4111 -0.4821
  478MOL0     N64445   4.899   7.125   1.144 -0.3965 -0.1497  0.3327
  478MOL0     N64446   4.894   7.006   1.084 -0.9321  0.3406  0.0786
  478MOL0     C64447   4.015   6.112   1.107 -0.4379 -0.1149 -0.1636
  478MOL0     C64448   3.915   6.033   1.165 -1.1438  0.3792  0.6127
  478MOL0     C64449   3.741   5.729   1.427  0.9824 -0.6166  1.0784
  478MOL0     C64450   3.613   5.755   1.376 -0.0627  0.3932 -0.0185
  478MOL0     C64451   3.516   5.657   1.384 -0.1017  0.1706 -0.5756
  478MOL0     C64452   3.533   5.538   1.455 -0.1330  0.7749  1.0449
  478MOL0     O64453   3.427   5.455   1.475 -0.0214  0.1303 -0.5757
  478MOL0     C64454   3.442   5.343   1.563  0.5486 -0.5143  0.0388
  478MOL0     C64455   3.320   5.256   1.588 -0.4226 -0.2299 -0.0601
  478MOL0     C64456   3.249   5.199   1.454  0.2118 -0.4641 -0.3363
  478MOL0     C64457   3.305   5.057   1.419 -0.4407 -0.1697 -0.5435
  478MOL0     C64458   3.224   4.955   1.479  0.5250 -0.8945  0.7652
  478MOL0     C64459   3.142   4.878   1.540  0.1904 -0.1608  0.2860
  478MOL0     C64460   3.657   5.519   1.513 -0.1907 -0.5958 -0.2536
  478MOL0     C64461   3.766   5.611   1.511  0.6677  0.3234  1.5287
  478MOL0     C64462   3.899   5.582   1.575 -0.1739 -0.1350  0.5484
  478MOL0     H64463   3.881   6.201   1.465 -0.0716  0.3993  0.0270
  478MOL0     H64464   4.032   6.348   1.348 -2.3321  0.5141 -1.3772
  478MOL0     H64465   4.290   6.213   1.010  0.0167 -0.0264  2.3825
  478MOL0     H64466   4.155   6.299   0.922  1.1613  0.6963 -0.3433
  478MOL0     H64467   4.257   6.518   0.994  0.2836  1.1625 -3.1842
  478MOL0     H64468   4.367   6.424   0.903 -0.6642  0.9688 -0.5285
  478MOL0     H64469   4.463   6.330   1.132  2.2119 -0.8542 -5.0565
  478MOL0     H64470   4.355   6.440   1.216 -0.0274 -2.3119 -0.9901
  478MOL0     H64471   4.561   6.519   1.009  1.1155  1.5660  0.2532
  478MOL0     H64472   4.486   6.623   1.131 -1.5372 -0.7564 -1.9886
  478MOL0     H64473   4.609   6.534   1.312 -0.5978 -2.4964  0.6842
  478MOL0     H64474   4.625   6.382   1.220  1.9140 -0.7283  1.9865
  478MOL0     H64475   4.843   6.508   1.212  0.8225  0.9326 -1.2435
  478MOL0     H64476   4.773   6.519   1.048 -0.2697  1.7541  0.0318
  478MOL0     H64477   4.722   6.729   1.268  0.2882  3.1396 -1.5245
  478MOL0     H64478   4.711   6.744   1.096 -1.4801 -1.9683 -1.2986
  478MOL0     H64479   4.973   6.721   1.258 -0.6395 -0.1892 -0.2850
  478MOL0     H64480   4.972   6.727   1.087 -0.4131  0.9084  0.6276
  478MOL0     H64481   4.948   6.917   1.390  1.2813  2.0008  0.8768
  478MOL0     H64482   4.873   7.186   1.469  2.5089 -2.0550  0.1477
  478MOL0     H64483   5.009   7.275   1.390 -1.1744  3.1851 -0.5234
  478MOL0     H64484   4.842   7.428   1.400  3.7321  0.6881 -0.5042
  478MOL0     H64485   4.844   7.359   1.232  0.5772  1.2979 -0.0503
  478MOL0     H64486   4.635   7.218   1.284  4.0093 -1.7697 -2.4354
  478MOL0     H64487   4.622   7.392   1.288  0.4805  0.9409  3.9445
  478MOL0     H64488   4.510   7.363   1.470  1.1482  0.3220  2.1983
  478MOL0     H64489   4.657   7.379   1.540 -2.5429  2.0120 -0.1528
  478MOL0     H64490   4.625   6.928   1.591 -0.6295 -2.3088  0.8313
  478MOL0     H64491   4.601   6.857   1.822  2.3935  1.0259  3.1250
  478MOL0     H64492   4.283   6.907   2.216 -2.2524  0.1913  2.0847
  478MOL0     H64493   4.297   6.776   2.449  1.0856 -0.4083  0.1507
  478MOL0     H64494   4.678   6.711   2.644 -1.6735 -1.5575 -0.0573
  478MOL0     H64495   4.647   6.873   2.705 -1.3414  0.1478  1.0719
  478MOL0     H64496   4.657   6.739   2.895  1.4130  2.2220 -0.4434
  478MOL0     H64497   4.483   6.794   2.865 -0.6693  0.2406 -5.9428
  478MOL0     H64498   4.411   6.570   2.826  0.0099  0.9835 -0.3721
  478MOL0     H64499   4.570   6.524   2.780 -1.5378  0.9410 -1.4494
  478MOL0     H64500   4.516   6.598   3.081 -1.2351  1.5245 -1.0273
  478MOL0     H64501   4.663   6.541   3.009  0.0302 -2.2384 -2.2759
  478MOL0     H64502   4.564   6.323   2.960  1.7083  2.7057 -1.4084
  478MOL0     H64503   4.403   6.391   2.996  0.2323  2.7745 -1.9744
  478MOL0     H64504   4.625   6.350   3.196 -0.5436 -1.1967  0.6176
  478MOL0     H64505   4.458   6.420   3.220  1.0094  2.8882 -0.9790
  478MOL0     H64506   4.448   6.167   3.072  2.9510 -0.5806 -1.4777
  478MOL0     H64507   4.381   6.213   3.230  2.5756  3.8202  3.5443
  478MOL0     H64508   4.641   6.080   3.165 -0.2651  0.3309 -0.5449
  478MOL0     H64509   4.613   6.160   3.326 -0.4078 -0.5028  0.8000
  478MOL0     H64510   4.684   6.961   2.501 -1.6337 -0.2809  1.4422
  478MOL0     H64511   4.643   7.106   2.313 -0.5190  0.7964 -1.9960
  478MOL0     H64512   4.477   7.247   1.945 -2.4148 -2.3852  0.9836
  478MOL0     H64513   4.495   7.332   1.713  0.4521  1.1526  1.7403
  478MOL0     H64514   4.068   6.094   1.014  1.8297 -0.6944  1.1724
  478MOL0     H64515   3.880   5.943   1.116  1.3714 -0.9782  1.1395
  478MOL0     H64516   3.597   5.842   1.314 -1.5393  1.3109  1.5748
  478MOL0     H64517   3.420   5.666   1.334  0.4251 -0.4076 -1.7522
  478MOL0     H64518   3.471   5.386   1.660 -0.0045 -1.3419  0.5864
  478MOL0     H64519   3.512   5.268   1.526 -1.3221 -0.8886 -3.0649
  478MOL0     H64520   3.249   5.310   1.651 -1.2919 -1.2854 -0.1044
  478MOL0     H64521   3.348   5.173   1.653 -0.4152 -0.2541 -0.0942
  478MOL0     H64522   3.249   5.267   1.369  0.6928 -0.4722 -0.3418
  478MOL0     H64523   3.142   5.198   1.479  0.1163 -1.8318 -0.7053
  478MOL0     H64524   3.316   5.049   1.311 -0.2063 -4.5614 -0.3903
  478MOL0     H64525   3.400   5.035   1.469 -1.6018  0.3917  2.0876
  478MOL0     H64526   3.083   4.814   1.601 -1.9447  2.2594  0.8999
  478MOL0     H64527   3.679   5.424   1.561  2.0856 -1.1645 -2.1902
  478MOL0     H64528   3.933   5.660   1.644 -2.2096  4.1615 -2.8079
  478MOL0     H64529   3.889   5.490   1.633  0.7577 -0.0353  0.8919
  478MOL0     H64530   3.979   5.560   1.504 -0.7778  0.3679 -0.3085
  479MOL0     O64531   6.857  11.083  11.361 -0.5637  0.2537  0.4363
  479MOL0     C64532   6.806  10.975  11.347  0.5638  0.3312  0.4482
  479MOL0     O64533   6.799  10.903  11.231 -0.3406 -0.7118 -0.1790
  479MOL0     C64534   6.742  10.777  11.236 -0.4279 -0.0074  0.3137
  479MOL0     C64535   6.823  10.670  11.285 -0.2085  0.0588 -0.5024
  479MOL0     C64536   6.757  10.553  11.285  0.0159  0.1906 -0.3033
  479MOL0     C64537   6.625  10.524  11.251  0.0969 -0.5407  0.0970
  479MOL0     O64538   6.572  10.401  11.251 -0.3894 -0.4658  0.4325
  479MOL0     C64539   6.618  10.303  11.354 -0.0440 -0.5897  0.2531
  479MOL0     C64540   6.561  10.340  11.488  0.2355  0.0983  0.4842
  479MOL0     C64541   6.561  10.223  11.587 -0.2410 -0.4387 -0.2473
  479MOL0     C64542   6.507  10.278  11.721  0.7010 -0.8246  0.4656
  479MOL0     C64543   6.511  10.168  11.819 -0.4108  0.2836  0.4045
  479MOL0     C64544   6.480  10.203  11.963  0.2604  0.1848  0.4045
  479MOL0     C64545   6.483  10.078  12.056  0.4116 -0.2430  0.3301
  479MOL0     C64546   6.484  10.125  12.202  0.6539  0.1475 -0.6344
  479MOL0     N64547   6.619  10.161  12.242 -0.1507 -0.2287 -0.0947
  479MOL0     C64548   6.721  10.073  12.251  0.0714 -0.1016  0.6749
  479MOL0     C64549   6.807  10.149  12.325 -0.5114 -0.3043  0.5359
  479MOL0     C64550   6.941  10.099  12.364 -0.0985 -1.0071  0.2206
  479MOL0     C64551   6.934  10.089  12.517 -0.9914  0.9947  0.0978
  479MOL0     C64552   7.031   9.973  12.561 -0.9086 -0.2527  0.3629
  479MOL0     C64553   7.027   9.974  12.711 -0.5027  0.5895 -1.3773
  479MOL0     O64554   6.896   9.934  12.767 -0.2875  0.5982  0.3381
  479MOL0     C64555   6.889   9.808  12.806 -0.2323  0.7025 -0.7343
  479MOL0     C64556   6.953   9.693  12.753 -0.0174  0.3173 -0.4864
  479MOL0     C64557   6.945   9.568  12.819  0.4782  0.2677 -0.1873
  479MOL0     C64558   6.874   9.547  12.934 -1.1936  0.1271  0.0226
  479MOL0     C64559   6.860   9.411  13.001  0.4995  0.6282 -0.1314
  479MOL0     O64560   6.821   9.415  13.132 -0.4789  0.3292 -0.0872
  479MOL0     C64561   6.819   9.295  13.193  0.6553 -0.2687  0.1225
  479MOL0     C64562   6.699   9.222  13.186  0.3084 -0.4362 -1.5303
  479MOL0     C64563   6.686   9.097  13.253 -0.6949  0.7592  0.8328
  479MOL0     C64564   6.790   9.041  13.322  0.3000 -0.2737  0.0712
  479MOL0     O64565   6.790   8.910  13.354 -1.3048  0.0643 -0.0244
  479MOL0     C64566   6.908   8.857  13.419 -0.5152 -0.4115  0.0707
  479MOL0     C64567   6.878   8.713  13.425 -0.0099 -0.1488 -0.0105
  479MOL0     C64568   6.908   8.653  13.282  0.4909  0.2863 -0.2390
  479MOL0     C64569   6.773   8.595  13.242  0.2209 -0.1573  0.5985
  479MOL0     C64570   6.769   8.545  13.095  1.0839  0.0209  0.1968
  479MOL0     C64571   6.756   8.670  12.999 -0.6328  0.5616  0.6998
  479MOL0     C64572   6.648   8.663  12.898 -0.3012  0.4733 -0.3158
  479MOL0     C64573   6.501   8.640  12.928  0.6030 -0.7311 -0.5259
  479MOL0    Cl64574   6.444   8.724  13.079 -0.1943  0.1632  0.1768
  479MOL0     C64575   6.901   9.124  13.351  0.3763 -0.0516  0.5895
  479MOL0     C64576   6.916   9.246  13.283 -0.5438 -0.6409 -0.1942
  479MOL0     O64577   6.879   9.309  12.935 -0.3163 -0.1112  0.3949
  479MOL0     C64578   6.818   9.659  12.999 -0.3528  0.1659  1.0979
  479MOL0     C64579   6.818   9.786  12.931  0.4177  0.4381 -0.0484
  479MOL0     N64580   6.751  10.256  12.378 -0.6853 -0.1738 -0.4250
  479MOL0     N64581   6.636  10.270  12.328 -0.6434  0.4877  0.0645
  479MOL0     C64582   6.554  10.635  11.199  0.0625  0.0004 -0.8183
  479MOL0     C64583   6.609  10.764  11.196  0.3031  0.5227  0.5527
  479MOL0     C64584   6.735  10.924  11.466 -0.5405 -0.5411  0.1010
  479MOL0     C64585   6.600  10.943  11.475  0.7427  0.5396  0.6370
  479MOL0     C64586   6.530  10.893  11.586 -0.2220  0.0405  0.5880
  479MOL0     C64587   6.593  10.841  11.704  0.1152 -0.6012 -0.4839
  479MOL0     O64588   6.533  10.803  11.822 -0.1683  0.1130 -0.7668
  479MOL0     C64589   6.389  10.785  11.827  0.0531 -0.0799 -0.0468
  479MOL0     C64590   6.349  10.754  11.966  1.0479 -0.7482 -0.8525
  479MOL0     C64591   6.397  10.614  12.008 -0.1947 -0.5334  0.0578
  479MOL0     C64592   6.377  10.591  12.161 -0.6821  0.1196  0.2095
  479MOL0     C64593   6.237  10.531  12.177  0.0002 -0.0597 -0.3504
  479MOL0     C64594   6.130  10.480  12.192  0.2257  0.1358  0.5997
  479MOL0     C64595   6.737  10.826  11.695 -0.9786  0.3671  0.8678
  479MOL0     C64596   6.809  10.868  11.577 -0.6506 -0.7915  0.2531
  479MOL0     C64597   6.961  10.869  11.591  0.2171  0.3845 -0.0605
  479MOL0     H64598   6.925  10.693  11.313  0.4907  1.0148 -3.4791
  479MOL0     H64599   6.816  10.474  11.329 -2.1545 -1.5166 -0.2480
  479MOL0     H64600   6.584  10.207  11.314  3.5940 -0.8497 -2.8896
  479MOL0     H64601   6.727  10.310  11.366  0.3172  0.5843 -2.7209
  479MOL0     H64602   6.457  10.371  11.469 -1.0273 -3.9518 -0.2317
  479MOL0     H64603   6.623  10.423  11.521 -1.3442  1.0678  1.1035
  479MOL0     H64604   6.665  10.194  11.602  0.8251  2.2142 -1.8017
  479MOL0     H64605   6.499  10.139  11.554  0.4026 -1.4370  0.9827
  479MOL0     H64606   6.564  10.365  11.755 -1.4903  0.1036  2.0472
  479MOL0     H64607   6.403  10.310  11.707  0.4255 -2.7170 -2.7514
  479MOL0     H64608   6.448  10.085  11.783 -0.3697 -0.2382  1.4846
  479MOL0     H64609   6.616  10.139  11.815  0.2893  2.3261  2.2868
  479MOL0     H64610   6.553  10.280  11.989  3.0584 -2.6544  1.7650
  479MOL0     H64611   6.380  10.246  11.961  0.0538 -0.0260  2.9589
  479MOL0     H64612   6.568  10.014  12.031  0.9025  0.6919 -0.4536
  479MOL0     H64613   6.394  10.014  12.055 -1.6631  2.4905 -0.1925
  479MOL0     H64614   6.416  10.211  12.210 -0.9741 -1.0529 -1.1394
  479MOL0     H64615   6.438  10.041  12.253 -0.8487  0.4164 -1.4743
  479MOL0     H64616   6.739   9.979  12.200  2.9973  0.8373 -0.2375
  479MOL0     H64617   6.964   9.998  12.328  0.5372 -0.5388 -0.7155
  479MOL0     H64618   7.020  10.172  12.345  0.1451 -1.2291  0.3766
  479MOL0     H64619   6.962  10.184  12.565 -1.1452  0.6694  0.8445
  479MOL0     H64620   6.830  10.068  12.543 -0.6919 -1.1975 -0.2642
  479MOL0     H64621   7.136   9.989  12.535 -1.0751 -2.5877 -2.1658
  479MOL0     H64622   7.002   9.881  12.510  0.0541 -1.0567  1.2332
  479MOL0     H64623   7.058  10.071  12.750 -0.3653 -0.3367  1.0242
  479MOL0     H64624   7.111   9.913  12.745 -0.0135  1.6657 -0.5924
  479MOL0     H64625   7.005   9.680  12.658 -0.2157 -0.8319 -0.4607
  479MOL0     H64626   6.994   9.482  12.775  2.4639  0.4399  1.5251
  479MOL0     H64627   6.625   9.257  13.115  1.5242  3.8965 -0.9908
  479MOL0     H64628   6.600   9.032  13.240  1.0940 -1.4433 -0.7649
  479MOL0     H64629   6.999   8.887  13.368 -0.1759 -0.4352  0.6519
  479MOL0     H64630   6.930   8.896  13.519 -3.0055 -1.0969  0.9809
  479MOL0     H64631   6.951   8.665  13.491  1.8705  2.8221  0.2842
  479MOL0     H64632   6.777   8.699  13.465  0.6361  1.3009  2.3528
  479MOL0     H64633   6.946   8.725  13.208  0.4621 -0.7131 -1.2510
  479MOL0     H64634   6.971   8.565  13.299  2.0923  1.6806  1.6392
  479MOL0     H64635   6.692   8.669  13.248 -1.3281 -1.2902 -3.3566
  479MOL0     H64636   6.731   8.514  13.301 -1.4181 -1.3215 -1.9719
  479MOL0     H64637   6.679   8.485  13.084  0.4965  0.7503  0.9439
  479MOL0     H64638   6.845   8.469  13.073 -0.3925 -2.0520  1.8786
  479MOL0     H64639   6.745   8.764  13.054 -1.6193  0.1140  1.2824
  479MOL0     H64640   6.854   8.671  12.949 -0.7515 -5.0558 -0.2295
  479MOL0     H64641   6.669   8.583  12.826  2.4218 -1.9926  2.8982
  479MOL0     H64642   6.653   8.759  12.845  2.7952  0.4208 -0.3014
  479MOL0     H64643   6.440   8.677  12.845  0.6371 -3.2169 -1.7693
  479MOL0     H64644   6.488   8.532  12.932  0.6653 -0.6930  0.9165
  479MOL0     H64645   6.986   9.099  13.413  3.6508  2.0144 -2.5872
  479MOL0     H64646   7.008   9.300  13.305 -0.1591 -1.0957 -0.6719
  479MOL0     H64647   6.767   9.649  13.094 -1.0267  1.3256  0.8797
  479MOL0     H64648   6.770   9.872  12.977  1.2255  0.5097  0.6810
  479MOL0     H64649   6.450  10.632  11.168 -0.6893 -1.1123  1.5876
  479MOL0     H64650   6.562  10.855  11.160 -2.1948 -0.7910  0.2669
  479MOL0     H64651   6.543  10.998  11.401 -0.8615 -0.5300  1.0168
  479MOL0     H64652   6.422  10.898  11.572  0.1402 -0.4622 -3.2729
  479MOL0     H64653   6.346  10.702  11.770  0.3822 -0.8072  0.7542
  479MOL0     H64654   6.342  10.868  11.773  2.4849  0.9537 -0.7346
  479MOL0     H64655   6.240  10.751  11.961  0.8389  2.7034 -5.6057
  479MOL0     H64656   6.373  10.840  12.030 -0.8375 -0.6477 -0.2191
  479MOL0     H64657   6.504  10.609  11.985 -0.4344 -0.4199 -1.1023
  479MOL0     H64658   6.344  10.541  11.947 -0.7874 -0.0193 -0.0484
  479MOL0     H64659   6.451  10.515  12.185  1.4848  2.4132  1.3059
  479MOL0     H64660   6.399  10.678  12.224  1.1455 -0.4958  0.4830
  479MOL0     H64661   6.030  10.442  12.199 -0.9298  3.0164  1.5566
  479MOL0     H64662   6.791  10.780  11.777  0.7966 -1.9262 -1.4261
  479MOL0     H64663   7.010  10.957  11.547 -0.5653  0.3119 -1.1222
  479MOL0     H64664   6.990  10.876  11.696  0.9642  1.2649 -0.3097
  479MOL0     H64665   6.991  10.772  11.551 -2.9182 -1.1049  0.9163
  480MOL0     O64666   6.222   3.333   3.525 -0.0929 -0.6182 -0.0846
  480MOL0     C64667   6.161   3.436   3.561 -0.6367  0.5917  0.5666
  480MOL0     O64668   6.086   3.447   3.675  0.4506 -0.6954  1.4137
  480MOL0     C64669   6.086   3.328   3.750  0.2777 -0.2573  0.9741
  480MOL0     C64670   6.018   3.212   3.713 -0.7482 -0.0364  0.0996
  480MOL0     C64671   6.007   3.107   3.793 -0.7554 -0.4592  0.1703
  480MOL0     C64672   6.048   3.103   3.928  0.4875  0.6063  0.8644
  480MOL0     O64673   6.036   3.011   4.027 -0.1225  0.7250  0.0772
  480MOL0     C64674   5.944   2.900   4.021  0.3996 -0.6313  0.4586
  480MOL0     C64675   5.960   2.813   4.141  0.7634  0.1744 -0.0806
  480MOL0     C64676   5.908   2.679   4.132 -0.5404  0.7038  0.5381
  480MOL0     C64677   5.952   2.612   4.263  0.4989  0.4912 -0.0853
  480MOL0     C64678   5.839   2.514   4.293  0.3972 -0.2066 -0.5121
  480MOL0     C64679   5.881   2.412   4.402  0.3830  0.5159  1.3476
  480MOL0     C64680   5.796   2.285   4.379 -0.5252  0.1919 -0.2578
  480MOL0     C64681   5.820   2.167   4.482 -0.7095 -0.1572  0.3213
  480MOL0     N64682   5.733   2.049   4.446  0.7808  1.2871  0.7795
  480MOL0     C64683   5.598   2.042   4.446 -0.4682 -1.3927  0.5138
  480MOL0     C64684   5.559   1.914   4.416 -0.2456 -0.0745 -0.0489
  480MOL0     C64685   5.418   1.871   4.401  0.0130 -0.3039 -0.4666
  480MOL0     C64686   5.337   1.942   4.292  0.6683  0.2596 -0.0252
  480MOL0     C64687   5.201   1.885   4.261 -0.1625 -0.0087  1.0045
  480MOL0     C64688   5.136   1.942   4.141  0.2660 -0.2069 -0.6724
  480MOL0     O64689   5.127   2.087   4.141  0.0379 -0.1831  0.4364
  480MOL0     C64690   5.058   2.130   4.036  0.4458  0.2249  0.1819
  480MOL0     C64691   5.112   2.200   3.924 -0.8112 -0.6490 -0.0003
  480MOL0     C64692   5.037   2.276   3.834  0.4397  0.0014  0.2441
  480MOL0     C64693   4.894   2.265   3.838 -0.7059  0.1989 -0.1159
  480MOL0     C64694   4.800   2.336   3.745 -1.1467  1.2959 -0.2017
  480MOL0     O64695   4.667   2.356   3.777  0.0847 -0.0396  0.0027
  480MOL0     C64696   4.610   2.453   3.701  0.0569  0.3785 -0.6640
  480MOL0     C64697   4.593   2.570   3.777 -0.3299 -0.2681 -0.1040
  480MOL0     C64698   4.534   2.685   3.730  0.3462  0.4725 -0.0236
  480MOL0     C64699   4.514   2.694   3.599  0.7406  1.4607 -0.7848
  480MOL0     O64700   4.451   2.815   3.572 -0.5936 -0.2021  0.0182
  480MOL0     C64701   4.455   2.853   3.440  0.5757  0.4178  0.5096
  480MOL0     C64702   4.423   3.000   3.437  0.1846 -0.5678  0.1458
  480MOL0     C64703   4.470   3.075   3.303 -0.2527 -0.4868 -0.8817
  480MOL0     C64704   4.529   3.209   3.321 -0.1222  0.4231  0.3549
  480MOL0     C64705   4.562   3.274   3.186  0.2498  0.1696  0.1998
  480MOL0     C64706   4.438   3.332   3.121 -0.3499  1.7565 -0.1433
  480MOL0     C64707   4.483   3.428   3.014 -0.0667 -0.0307 -0.4957
  480MOL0     C64708   4.545   3.372   2.896 -0.1229 -0.6602  0.0906
  480MOL0    Cl64709   4.626   3.497   2.781  0.2682 -0.3154 -0.0142
  480MOL0     C64710   4.511   2.576   3.517  0.0079 -0.1988 -0.1695
  480MOL0     C64711   4.581   2.462   3.565 -0.1667  0.2482 -0.4192
  480MOL0     O64712   4.853   2.385   3.644 -0.0840 -0.3115 -0.4952
  480MOL0     C64713   4.831   2.181   3.941 -0.7555 -0.4408  0.5633
  480MOL0     C64714   4.913   2.125   4.045 -0.0564  0.0197 -0.6383
  480MOL0     N64715   5.671   1.854   4.392 -0.7659 -0.0620 -0.3777
  480MOL0     N64716   5.779   1.930   4.404  0.5548  0.5660  0.0576
  480MOL0     C64717   6.119   3.221   3.971  0.2684  0.0715 -0.1551
  480MOL0     C64718   6.136   3.331   3.879 -1.2471  0.0756  0.0843
  480MOL0     C64719   6.170   3.558   3.476  0.1400  0.2540 -0.2591
  480MOL0     C64720   6.050   3.620   3.447 -0.0080 -0.4244  0.2732
  480MOL0     C64721   6.052   3.741   3.357  0.6672  0.4390 -0.0219
  480MOL0     C64722   6.171   3.803   3.329 -0.3540 -0.6348  0.9210
  480MOL0     O64723   6.181   3.912   3.245  0.3668 -0.3429  0.3726
  480MOL0     C64724   6.070   3.988   3.202  0.2557  0.3506  0.2578
  480MOL0     C64725   6.032   3.950   3.054  0.5918  0.4234 -0.4979
  480MOL0     C64726   6.009   3.809   3.021 -0.1608 -0.2707  0.4884
  480MOL0     C64727   5.980   3.802   2.869 -0.1800  0.0258  1.2083
  480MOL0     C64728   5.929   3.664   2.842  0.2549 -0.2835  0.1569
  480MOL0     C64729   5.892   3.553   2.818  0.8129  0.8424  0.6913
  480MOL0     C64730   6.285   3.737   3.363 -0.2264 -0.1510 -0.1069
  480MOL0     C64731   6.290   3.613   3.427 -0.1255 -0.6575 -1.0139
  480MOL0     C64732   6.421   3.551   3.454 -0.1917  0.2778 -0.7852
  480MOL0     H64733   5.986   3.191   3.611  1.5496 -0.6746 -0.5546
  480MOL0     H64734   5.957   3.016   3.762 -0.7356  0.3755 -2.5409
  480MOL0     H64735   5.840   2.931   4.012  0.3135 -1.5345 -4.0291
  480MOL0     H64736   5.948   2.857   3.921  0.3876  2.1146 -0.8146
  480MOL0     H64737   5.919   2.869   4.226 -2.2116 -0.2783 -1.0867
  480MOL0     H64738   6.068   2.803   4.150  0.6904 -1.9063 -1.0187
  480MOL0     H64739   5.952   2.636   4.041 -3.2593 -0.8462 -0.1693
  480MOL0     H64740   5.802   2.670   4.106 -0.0747  1.0487 -1.6959
  480MOL0     H64741   6.052   2.571   4.252  0.5551  1.2284 -3.2608
  480MOL0     H64742   5.962   2.687   4.342 -2.4909 -1.6282  2.6145
  480MOL0     H64743   5.757   2.569   4.340  0.8375 -0.2107  0.2800
  480MOL0     H64744   5.804   2.467   4.200 -0.7349  1.1217 -0.7956
  480MOL0     H64745   5.987   2.394   4.381 -0.8629 -2.8061 -4.5230
  480MOL0     H64746   5.866   2.432   4.508 -1.2462  0.3763  1.1673
  480MOL0     H64747   5.821   2.235   4.285 -3.0105 -2.1112  0.1713
  480MOL0     H64748   5.691   2.317   4.376 -0.0651  2.0307  1.0644
  480MOL0     H64749   5.927   2.145   4.473 -0.4793  0.6356  0.9856
  480MOL0     H64750   5.787   2.200   4.580  0.5734 -0.0458  0.7351
  480MOL0     H64751   5.517   2.111   4.468 -0.8538 -1.2828 -1.1246
  480MOL0     H64752   5.424   1.766   4.371  2.2545 -0.2370 -0.4877
  480MOL0     H64753   5.371   1.880   4.499  1.1328  0.7930  0.0126
  480MOL0     H64754   5.325   2.047   4.319 -1.2340  0.2371 -0.6238
  480MOL0     H64755   5.403   1.944   4.206 -1.1593  0.6032 -1.4766
  480MOL0     H64756   5.128   1.908   4.339 -0.2184  0.3803  0.8396
  480MOL0     H64757   5.219   1.779   4.241  2.0424  0.5273 -0.0863
  480MOL0     H64758   5.038   1.896   4.123  1.3905 -1.4958 -4.5939
  480MOL0     H64759   5.185   1.896   4.055  0.2561 -3.3129  0.8808
  480MOL0     H64760   5.218   2.224   3.924 -0.4782 -1.9073  2.1658
  480MOL0     H64761   5.085   2.345   3.765 -3.5724  0.3343 -2.5633
  480MOL0     H64762   4.609   2.563   3.884  0.3654  1.2969 -0.0787
  480MOL0     H64763   4.520   2.770   3.796  1.5071 -1.0663  2.3706
  480MOL0     H64764   4.547   2.820   3.392  0.4540  2.8094 -1.5491
  480MOL0     H64765   4.374   2.798   3.390  1.2882 -1.0392  0.8988
  480MOL0     H64766   4.317   3.025   3.442 -0.0783 -1.6612  0.2312
  480MOL0     H64767   4.475   3.037   3.526  1.2219  0.5834 -0.8951
  480MOL0     H64768   4.546   3.012   3.253  1.5371 -0.1696  1.2818
  480MOL0     H64769   4.381   3.078   3.239 -0.5202  3.0285 -0.5225
  480MOL0     H64770   4.628   3.196   3.366  0.3950  3.4867  0.3359
  480MOL0     H64771   4.463   3.270   3.383 -2.1528 -1.9359  0.6732
  480MOL0     H64772   4.614   3.201   3.122  2.8436  2.7302 -0.8078
  480MOL0     H64773   4.627   3.361   3.194 -1.9552  1.7713  2.0599
  480MOL0     H64774   4.371   3.251   3.091  2.2967 -0.8249  0.5587
  480MOL0     H64775   4.373   3.390   3.188 -2.2473  5.6655 -4.7937
  480MOL0     H64776   4.553   3.502   3.056  1.5788 -1.7012 -0.1607
  480MOL0     H64777   4.396   3.487   2.983  1.3647  1.9069 -1.0506
  480MOL0     H64778   4.626   3.302   2.920  0.6960  1.1934  3.5559
  480MOL0     H64779   4.462   3.317   2.851 -0.8045 -0.8165  1.4840
  480MOL0     H64780   4.468   2.573   3.417  0.6671 -2.5979 -0.4570
  480MOL0     H64781   4.604   2.383   3.495 -2.4737 -0.4773 -0.4467
  480MOL0     H64782   4.723   2.188   3.945 -0.8247  0.2232 -1.2435
  480MOL0     H64783   4.867   2.077   4.131  1.3759  0.4788  0.4043
  480MOL0     H64784   6.143   3.241   4.075 -1.8972  2.6326 -0.0302
  480MOL0     H64785   6.185   3.422   3.911  1.4953 -0.6242 -1.7771
  480MOL0     H64786   5.960   3.578   3.490  1.6933 -2.3320  2.2004
  480MOL0     H64787   5.948   3.766   3.336 -0.2180  0.0583  3.1900
  480MOL0     H64788   6.107   4.091   3.202  1.4650 -0.0607 -0.6584
  480MOL0     H64789   5.982   3.979   3.266 -0.8278  0.9167 -1.0795
  480MOL0     H64790   6.110   3.993   2.990 -2.0073  1.5810 -3.1392
  480MOL0     H64791   5.952   4.011   3.011  1.3516  0.3674 -2.0691
  480MOL0     H64792   5.928   3.762   3.078 -0.6620  0.0711  0.0693
  480MOL0     H64793   6.092   3.741   3.040 -0.2460 -0.0574  1.7035
  480MOL0     H64794   5.907   3.874   2.830 -1.5996 -2.1895 -0.4598
  480MOL0     H64795   6.077   3.809   2.818  0.7925  1.2681  3.0949
  480MOL0     H64796   5.857   3.455   2.790  4.1848 -0.4499  0.5883
  480MOL0     H64797   6.375   3.787   3.328  1.6872 -3.3160 -0.1292
  480MOL0     H64798   6.434   3.537   3.562  0.4697  0.1470 -0.8790
  480MOL0     H64799   6.405   3.447   3.424  1.1951 -0.6260  1.3254
  480MOL0     H64800   6.515   3.586   3.410 -0.4501  0.6098 -1.0746
  481MOL0     O64801   6.048   0.419  10.675 -0.0833 -0.0276 -0.6594
  481MOL0     C64802   6.104   0.365  10.772  0.4020 -0.7304  0.1671
  481MOL0     O64803   6.113   0.228  10.794  0.5370  0.2762  0.7663
  481MOL0     C64804   6.028   0.141  10.723 -1.0905  0.5052  0.2154
  481MOL0     C64805   5.893   0.155  10.692 -0.3459  0.0601 -0.5103
  481MOL0     C64806   5.826   0.037  10.639 -0.2522 -0.9613 -0.2509
  481MOL0     C64807   5.894  -0.080  10.599  1.1418 -1.2656  0.1704
  481MOL0     O64808   5.829  -0.185  10.541 -0.0468  0.5717  0.0000
  481MOL0     C64809   5.797  -0.156  10.404  0.7031 -0.6110  0.3747
  481MOL0     C64810   5.828  -0.275  10.319 -0.8003  0.1426 -0.2910
  481MOL0     C64811   5.803  -0.420  10.377 -0.3206 -0.4772  0.1278
  481MOL0     C64812   5.909  -0.516  10.339  0.6633  0.1781  0.0365
  481MOL0     C64813   5.914  -0.535  10.184 -1.1319  0.6614 -0.9745
  481MOL0     C64814   6.014  -0.632  10.122 -0.7215  0.4865  0.5038
  481MOL0     C64815   6.009  -0.778  10.179  0.7166  0.5406 -0.2574
  481MOL0     C64816   5.878  -0.853  10.169  0.1466  0.1907  0.2328
  481MOL0     N64817   5.887  -0.987  10.108 -0.0407 -0.4440  0.5746
  481MOL0     C64818   5.918  -1.098  10.172 -0.4382  0.0122  0.0430
  481MOL0     C64819   5.914  -1.191  10.075 -0.3990 -1.1863  0.0736
  481MOL0     C64820   5.955  -1.338  10.096  0.2988 -0.0338  0.2433
  481MOL0     C64821   5.820  -1.429  10.111  0.8233  0.4035  1.1967
  481MOL0     C64822   5.767  -1.446  10.254 -0.1861 -1.0257 -0.9710
  481MOL0     C64823   5.873  -1.499  10.344 -1.4982  0.9236  0.7727
  481MOL0     O64824   5.935  -1.614  10.273 -0.5215  0.8585 -0.5102
  481MOL0     C64825   6.045  -1.657  10.334 -0.0368 -0.2996 -1.0792
  481MOL0     C64826   6.164  -1.648  10.267  0.6348  1.0152 -0.2485
  481MOL0     C64827   6.286  -1.673  10.331  0.0199 -0.6314  0.1567
  481MOL0     C64828   6.285  -1.717  10.466  0.4328 -1.0856  1.0015
  481MOL0     C64829   6.413  -1.745  10.547 -0.2800  0.0529 -0.4918
  481MOL0     O64830   6.537  -1.709  10.493  0.3102  0.1976 -0.0179
  481MOL0     C64831   6.651  -1.759  10.546 -0.4514  0.8494 -0.8213
  481MOL0     C64832   6.725  -1.705  10.648 -0.3218 -0.3842 -0.1680
  481MOL0     C64833   6.839  -1.766  10.699 -0.3471  0.4460  0.6073
  481MOL0     C64834   6.887  -1.876  10.629 -0.0682 -0.0893 -0.5420
  481MOL0     O64835   7.011  -1.919  10.677 -0.1693  0.3938  0.4501
  481MOL0     C64836   7.088  -2.043  10.626 -0.1866 -0.3322 -0.0942
  481MOL0     C64837   7.232  -2.006  10.582 -0.3902 -0.3772  0.5777
  481MOL0     C64838   7.243  -1.890  10.481 -0.2936 -1.3573  0.5087
  481MOL0     C64839   7.150  -1.901  10.353 -0.7277  0.3321  0.2551
  481MOL0     C64840   7.150  -1.765  10.268 -0.5228  0.8433  0.2877
  481MOL0     C64841   7.076  -1.759  10.135 -0.4166  0.6269  0.3960
  481MOL0     C64842   6.928  -1.801  10.147  0.9844 -0.4410 -0.7889
  481MOL0     C64843   6.849  -1.702  10.236 -0.3325  0.6858  0.4291
  481MOL0    Cl64844   6.682  -1.718  10.197 -0.0842 -0.2899  0.2027
  481MOL0     C64845   6.814  -1.940  10.529  0.3753 -0.5240  0.4585
  481MOL0     C64846   6.695  -1.871  10.483 -0.2107  0.5466 -1.2818
  481MOL0     O64847   6.403  -1.787  10.667  0.4146  0.5295 -0.6133
  481MOL0     C64848   6.159  -1.745  10.527 -0.4976 -0.0823  0.0132
  481MOL0     C64849   6.043  -1.706  10.467  0.2996  0.3651  0.3359
  481MOL0     N64850   5.867  -1.138   9.957 -0.9244 -0.6379 -0.4746
  481MOL0     N64851   5.875  -1.012   9.974  0.0479  0.6141 -0.5435
  481MOL0     C64852   6.029  -0.088  10.612 -0.3249  1.0250 -0.6269
  481MOL0     C64853   6.102   0.016  10.685  0.7283 -0.5471  0.1116
  481MOL0     C64854   6.159   0.469  10.855  1.0858  0.2889  0.0753
  481MOL0     C64855   6.176   0.601  10.806 -0.5909  0.5082  0.7139
  481MOL0     C64856   6.245   0.697  10.886  0.4761 -0.3608  0.0199
  481MOL0     C64857   6.281   0.669  11.018  0.3877 -0.1865  0.1452
  481MOL0     O64858   6.349   0.752  11.095  0.2801  0.2565  0.3946
  481MOL0     C64859   6.320   0.895  11.084  0.6172  0.3415  1.1047
  481MOL0     C64860   6.372   0.962  11.206  0.0850  0.5128  0.6272
  481MOL0     C64861   6.352   1.112  11.184  0.0470  2.1827 -0.0196
  481MOL0     C64862   6.396   1.207  11.300 -0.1504 -0.0139 -0.4905
  481MOL0     C64863   6.436   1.335  11.235 -0.5535 -0.6934  0.3149
  481MOL0     C64864   6.481   1.436  11.180  0.2971  0.2550  0.1421
  481MOL0     C64865   6.254   0.542  11.063 -0.8966  0.6639 -0.0375
  481MOL0     C64866   6.202   0.440  10.982 -0.3038 -1.2606  0.2427
  481MOL0     C64867   6.166   0.309  11.051  0.4562 -0.6245  0.5754
  481MOL0     H64868   5.837   0.240  10.727  1.3156  0.4768  1.2697
  481MOL0     H64869   5.718   0.039  10.634 -0.2058 -0.1433 -1.1505
  481MOL0     H64870   5.688  -0.154  10.407  0.6762 -1.1867 -0.0283
  481MOL0     H64871   5.817  -0.056  10.364 -0.7080 -0.6323 -0.4554
  481MOL0     H64872   5.936  -0.262  10.302 -0.3846 -0.7175  1.4605
  481MOL0     H64873   5.773  -0.266  10.225  1.2038 -0.6477 -1.6208
  481MOL0     H64874   5.707  -0.461  10.343 -0.0637 -1.1389  0.1866
  481MOL0     H64875   5.804  -0.421  10.486  0.2787  1.9032  0.2002
  481MOL0     H64876   6.002  -0.480  10.386  0.9417  0.1779 -0.5112
  481MOL0     H64877   5.899  -0.610  10.395 -2.3426  0.3373 -0.1065
  481MOL0     H64878   5.809  -0.560  10.166 -0.8061 -2.1626  0.4497
  481MOL0     H64879   5.931  -0.448  10.120 -0.2026  0.4904 -0.9858
  481MOL0     H64880   5.998  -0.643  10.015  4.5777 -5.4444 -0.2605
  481MOL0     H64881   6.117  -0.596  10.125 -0.7001  0.4097  0.8168
  481MOL0     H64882   6.046  -0.779  10.282  0.1435  0.6175 -0.0480
  481MOL0     H64883   6.084  -0.842  10.131  0.1792 -1.2658  1.2146
  481MOL0     H64884   5.832  -0.862  10.268 -0.6260  0.3870 -0.1012
  481MOL0     H64885   5.803  -0.803  10.107  0.0989 -0.4874 -0.2766
  481MOL0     H64886   5.938  -1.103  10.278 -1.2877  5.0125  0.6605
  481MOL0     H64887   6.007  -1.357  10.001 -0.1844  3.3533 -0.8377
  481MOL0     H64888   6.026  -1.351  10.178 -0.7826  1.1459  1.4172
  481MOL0     H64889   5.743  -1.382  10.049 -0.0752  1.2082  2.8620
  481MOL0     H64890   5.830  -1.527  10.063  0.4931  1.5292 -1.3753
  481MOL0     H64891   5.674  -1.503  10.259 -0.4278 -0.6865 -1.4665
  481MOL0     H64892   5.720  -1.352  10.285  0.0595 -1.1735 -0.1269
  481MOL0     H64893   5.840  -1.520  10.446 -1.4232 -0.2438  0.5664
  481MOL0     H64894   5.945  -1.418  10.362  0.7605 -1.2909  2.4048
  481MOL0     H64895   6.164  -1.632  10.160  1.4216 -1.5109 -0.7097
  481MOL0     H64896   6.381  -1.670  10.280  0.8780 -0.0947  1.7193
  481MOL0     H64897   6.700  -1.608  10.688  0.8144 -0.0816 -0.1377
  481MOL0     H64898   6.881  -1.731  10.793  0.9485 -0.1287  0.2622
  481MOL0     H64899   7.087  -2.118  10.705  0.4447 -0.9591 -0.6653
  481MOL0     H64900   7.024  -2.087  10.549 -2.4605 -1.3153  2.2392
  481MOL0     H64901   7.286  -1.974  10.672  0.1715  1.0707 -0.2392
  481MOL0     H64902   7.285  -2.087  10.532  0.4507  1.4430 -1.6536
  481MOL0     H64903   7.228  -1.790  10.524 -0.0614 -0.6425 -0.9904
  481MOL0     H64904   7.344  -1.901  10.441 -1.6423 -0.2772 -3.8100
  481MOL0     H64905   7.046  -1.904  10.389 -0.5325  2.3163  1.1365
  481MOL0     H64906   7.187  -1.983  10.290 -0.5162 -0.2348  1.1054
  481MOL0     H64907   7.257  -1.751  10.248  0.1095 -1.8344  1.3059
  481MOL0     H64908   7.107  -1.685  10.330 -2.9377  1.7536 -2.3704
  481MOL0     H64909   7.076  -1.660  10.089 -2.4024 -0.3464 -1.9031
  481MOL0     H64910   7.138  -1.818  10.068  2.7661  0.6644  3.0683
  481MOL0     H64911   6.915  -1.899  10.196 -0.8645 -1.0746 -2.4433
  481MOL0     H64912   6.902  -1.801  10.041 -1.7876  0.1786 -0.1964
  481MOL0     H64913   6.858  -1.742  10.337  2.6268  1.5523  0.5894
  481MOL0     H64914   6.884  -1.599  10.225  1.1510  0.0222 -1.7837
  481MOL0     H64915   6.852  -2.030  10.482 -1.7967 -0.6914 -1.1018
  481MOL0     H64916   6.634  -1.908  10.401  0.1466 -3.1065 -0.0733
  481MOL0     H64917   6.160  -1.785  10.628  0.0661 -1.7464 -0.6214
  481MOL0     H64918   5.954  -1.725  10.526  0.4993  0.1752  0.5792
  481MOL0     H64919   6.081  -0.182  10.592  2.4757  2.4463 -0.5142
  481MOL0     H64920   6.202  -0.008  10.721 -0.2656 -2.9655  1.5266
  481MOL0     H64921   6.137   0.632  10.710  0.5778  3.5102  1.1016
  481MOL0     H64922   6.260   0.795  10.841 -0.0194 -0.2930 -0.0017
  481MOL0     H64923   6.211   0.901  11.074  0.0460 -2.1233  4.4093
  481MOL0     H64924   6.360   0.942  10.993  1.0787  0.3464  1.3072
  481MOL0     H64925   6.479   0.939  11.208  0.3846  0.8777 -3.1978
  481MOL0     H64926   6.323   0.926  11.297  2.1333 -1.0288  1.1940
  481MOL0     H64927   6.249   1.132  11.155 -0.8778  2.0901  2.9245
  481MOL0     H64928   6.403   1.138  11.090  1.5907  2.8920  0.9714
  481MOL0     H64929   6.318   1.218  11.376  0.4994  2.3753 -0.0929
  481MOL0     H64930   6.480   1.162  11.354 -1.6081 -2.2042  0.1178
  481MOL0     H64931   6.537   1.523  11.152  0.2143 -0.1340 -1.3173
  481MOL0     H64932   6.277   0.515  11.166 -1.0953  2.3094  0.4699
  481MOL0     H64933   6.177   0.328  11.158 -1.3358  1.2883  0.4994
  481MOL0     H64934   6.061   0.285  11.032  1.0424 -2.1814 -0.9474
  481MOL0     H64935   6.228   0.231  11.007 -1.0075 -2.0121  0.8979
  482MOL0     O64936   1.296  11.135   0.866 -0.2036 -0.7198 -0.7424
  482MOL0     C64937   1.196  11.065   0.866 -0.1367  0.3229  0.5048
  482MOL0     O64938   1.135  11.026   0.747  0.4043 -0.3689 -0.1762
  482MOL0     C64939   1.158  11.113   0.645 -0.1391  0.5794 -1.2548
  482MOL0     C64940   1.223  11.071   0.529  0.2107  0.2494 -0.6764
  482MOL0     C64941   1.249  11.154   0.420 -0.3320  0.5164  0.2633
  482MOL0     C64942   1.200  11.287   0.422 -0.6618  0.7365 -0.3725
  482MOL0     O64943   1.244  11.376   0.323  0.4718 -0.0463 -0.1937
  482MOL0     C64944   1.383  11.369   0.278 -0.3133  0.7436 -0.9634
  482MOL0     C64945   1.418  11.518   0.227 -0.3805 -0.3025 -0.5561
  482MOL0     C64946   1.474  11.606   0.335  0.2118 -0.2389 -0.5382
  482MOL0     C64947   1.604  11.548   0.372 -0.3100 -1.0381 -0.4779
  482MOL0     C64948   1.721  11.645   0.362 -0.4045  1.1643  0.3505
  482MOL0     C64949   1.707  11.759   0.472  0.2620 -0.6898  0.8857
  482MOL0     C64950   1.803  11.876   0.456  0.0383  0.2764 -0.5462
  482MOL0     C64951   1.956  11.842   0.459  0.2103  0.3740  0.1837
  482MOL0     N64952   2.047  11.956   0.489 -0.2347  0.6107 -0.2771
  482MOL0     C64953   2.110  12.029   0.394  0.4546  0.8512  0.4068
  482MOL0     C64954   2.168  12.137   0.460 -0.6541  0.5405 -0.1156
  482MOL0     C64955   2.246  12.251   0.403  0.4568 -0.0848  0.7961
  482MOL0     C64956   2.171  12.387   0.413 -0.7425  0.2140 -0.5356
  482MOL0     C64957   2.257  12.493   0.343  0.1116 -0.3870  0.2056
  482MOL0     C64958   2.207  12.643   0.353  0.0979  0.6032 -0.4513
  482MOL0     O64959   2.110  12.640   0.254  0.4805  0.6268  0.1033
  482MOL0     C64960   2.008  12.733   0.274  0.2472  0.4298  0.4765
  482MOL0     C64961   1.875  12.698   0.242  0.4672 -0.4913  0.4911
  482MOL0     C64962   1.769  12.780   0.270  0.6011 -0.5611  0.5051
  482MOL0     C64963   1.792  12.902   0.337  0.7923 -0.2545 -0.2387
  482MOL0     C64964   1.683  12.982   0.390  0.4889 -0.2393  0.0202
  482MOL0     O64965   1.721  13.080   0.476  0.0135  0.1161  0.1239
  482MOL0     C64966   1.618  13.163   0.504 -0.5056 -0.2350  0.2423
  482MOL0     C64967   1.536  13.165   0.617 -0.7467 -0.0537  0.1931
  482MOL0     C64968   1.455  13.266   0.638  0.9078 -0.1003 -1.0038
  482MOL0     C64969   1.431  13.370   0.539  0.0366 -0.1519 -0.8880
  482MOL0     O64970   1.354  13.474   0.571 -0.1562 -0.1505  0.1151
  482MOL0     C64971   1.352  13.600   0.505  0.2719  0.0816 -1.1255
  482MOL0     C64972   1.245  13.691   0.561  0.8580 -0.1115 -0.4526
  482MOL0     C64973   1.278  13.743   0.701  0.1914  0.1572  0.7826
  482MOL0     C64974   1.145  13.787   0.765  0.4897  0.6918  0.5061
  482MOL0     C64975   1.087  13.698   0.880  0.1567  0.1163  0.4172
  482MOL0     C64976   1.166  13.692   1.003 -0.3581  0.3030 -0.1084
  482MOL0     C64977   1.146  13.558   1.078  0.0929 -0.5391  0.3705
  482MOL0     C64978   1.240  13.461   1.018  0.3897  0.3160 -0.2861
  482MOL0    Cl64979   1.167  13.323   1.095  0.4612  0.2810  0.3366
  482MOL0     C64980   1.495  13.360   0.419 -0.2761 -0.2253 -0.4115
  482MOL0     C64981   1.598  13.260   0.407  0.4091 -0.5522  0.3760
  482MOL0     O64982   1.569  12.952   0.351  0.0799 -0.4288 -0.0717
  482MOL0     C64983   1.926  12.943   0.355 -0.6490 -0.1076  0.2648
  482MOL0     C64984   2.028  12.859   0.318  0.4697 -0.3744  1.1998
  482MOL0     N64985   2.142  12.116   0.589  0.3434  0.0351  0.2168
  482MOL0     N64986   2.084  12.002   0.608 -0.2904 -0.1252 -1.2557
  482MOL0     C64987   1.127  11.327   0.535 -0.2458  0.2091 -0.7820
  482MOL0     C64988   1.103  11.245   0.646 -0.3854  0.1786 -0.7887
  482MOL0     C64989   1.138  11.010   0.987  0.2169  0.2124  0.6900
  482MOL0     C64990   1.012  10.944   0.980  0.4999  0.1112 -0.2568
  482MOL0     C64991   0.966  10.865   1.094  0.5977 -0.2939  0.6923
  482MOL0     C64992   1.032  10.867   1.219 -0.0350 -0.1429  0.0859
  482MOL0     O64993   0.980  10.821   1.338 -0.0958 -0.0101 -0.1029
  482MOL0     C64994   1.063  10.829   1.457 -0.2267  0.3409  0.3148
  482MOL0     C64995   1.006  10.747   1.578 -0.4321  0.0941  0.2761
  482MOL0     C64996   0.944  10.610   1.543  0.3800 -0.2454 -1.0485
  482MOL0     C64997   0.877  10.537   1.661 -0.7710 -0.4591 -0.3524
  482MOL0     C64998   0.752  10.469   1.629 -0.0943  0.9644 -0.9009
  482MOL0     C64999   0.673  10.373   1.611 -0.3212  0.3198  0.2255
  482MOL0     C65000   1.156  10.931   1.218  0.4581  1.6098  0.4402
  482MOL0     C65001   1.207  11.003   1.106 -0.6855 -0.0313 -0.4428
  482MOL0     C65002   1.354  11.058   1.128  1.0760 -0.8242  0.3285
  482MOL0     H65003   1.258  10.970   0.516 -1.1774 -0.2812 -0.5123
  482MOL0     H65004   1.298  11.123   0.329 -1.6836  0.9544 -0.6335
  482MOL0     H65005   1.446  11.333   0.360 -0.1907  0.8537 -1.0095
  482MOL0     H65006   1.393  11.301   0.193  0.3980 -0.5194  0.0910
  482MOL0     H65007   1.325  11.562   0.189 -1.6038 -1.3241  1.1402
  482MOL0     H65008   1.486  11.507   0.142 -2.1871 -0.5111 -2.0353
  482MOL0     H65009   1.396  11.609   0.412 -1.2133  1.1727 -1.9548
  482MOL0     H65010   1.489  11.708   0.298 -2.1472  0.9797  1.5186
  482MOL0     H65011   1.598  11.502   0.472 -0.0975 -1.2066 -0.5409
  482MOL0     H65012   1.632  11.470   0.301  0.7116 -0.7636 -0.3983
  482MOL0     H65013   1.808  11.580   0.373 -2.0899 -1.6091 -1.4227
  482MOL0     H65014   1.716  11.680   0.258 -3.9917 -2.2676 -0.8576
  482MOL0     H65015   1.611  11.811   0.467 -0.0962 -1.4210 -0.0326
  482MOL0     H65016   1.718  11.711   0.570 -1.2018  0.7051  1.7784
  482MOL0     H65017   1.792  11.955   0.531 -0.9169 -2.0781  2.0069
  482MOL0     H65018   1.786  11.927   0.361  0.7729 -0.0928 -0.8817
  482MOL0     H65019   1.972  11.766   0.536  2.5824  0.0670 -0.5399
  482MOL0     H65020   1.990  11.792   0.368 -0.4306  0.8088 -0.3036
  482MOL0     H65021   2.094  12.022   0.287 -0.2012  0.7586  0.5063
  482MOL0     H65022   2.341  12.266   0.455  3.2674 -2.1310 -3.2829
  482MOL0     H65023   2.273  12.233   0.299  2.1671 -0.2582  1.2476
  482MOL0     H65024   2.078  12.365   0.359 -0.5813 -1.7890 -0.0785
  482MOL0     H65025   2.160  12.410   0.520 -0.1249 -0.3224 -0.3550
  482MOL0     H65026   2.280  12.459   0.242 -4.6381  1.7171 -1.9072
  482MOL0     H65027   2.353  12.494   0.394  0.1531  0.8235  0.1389
  482MOL0     H65028   2.288  12.710   0.323 -0.6188  1.1782 -1.1263
  482MOL0     H65029   2.178  12.658   0.458  3.3474  1.0348  0.4930
  482MOL0     H65030   1.870  12.602   0.192  0.0576  0.8186 -2.1377
  482MOL0     H65031   1.668  12.740   0.270  0.6006 -0.5617  0.8900
  482MOL0     H65032   1.538  13.089   0.695 -0.7664  0.6223  0.8662
  482MOL0     H65033   1.404  13.262   0.733  1.5080 -0.5103 -0.6889
  482MOL0     H65034   1.449  13.649   0.507  1.3834 -1.9807 -1.3616
  482MOL0     H65035   1.321  13.590   0.401  0.0463 -0.7204 -0.9933
  482MOL0     H65036   1.234  13.778   0.495  5.7631  1.3579  0.3228
  482MOL0     H65037   1.152  13.632   0.566  0.9139 -0.1636  4.3428
  482MOL0     H65038   1.324  13.663   0.759 -0.1415  0.5674  1.6260
  482MOL0     H65039   1.341  13.830   0.682 -0.1502  0.4015  0.7472
  482MOL0     H65040   1.066  13.787   0.690  0.3129  2.2722  0.6651
  482MOL0     H65041   1.151  13.892   0.795 -1.4575  1.7615 -2.4159
  482MOL0     H65042   1.051  13.599   0.849  0.0921  0.0586  0.6703
  482MOL0     H65043   0.990  13.742   0.904 -0.9316 -2.0117  0.2233
  482MOL0     H65044   1.274  13.701   0.986 -0.3636 -0.4363 -0.5911
  482MOL0     H65045   1.138  13.779   1.063  2.8208  1.3887  0.0176
  482MOL0     H65046   1.039  13.535   1.084 -0.4963  1.6371 -0.7339
  482MOL0     H65047   1.175  13.574   1.182 -2.9698 -0.0513  1.2511
  482MOL0     H65048   1.241  13.438   0.911 -1.2185 -0.8817 -0.0666
  482MOL0     H65049   1.339  13.496   1.051  1.2445 -0.8127 -1.5562
  482MOL0     H65050   1.469  13.427   0.338 -0.6801  3.2415  2.3685
  482MOL0     H65051   1.664  13.259   0.321  0.2669  0.8852  0.2336
  482MOL0     H65052   1.950  13.039   0.400  3.6132 -1.1024  0.5209
  482MOL0     H65053   2.134  12.880   0.329  0.8452 -1.1957 -0.5485
  482MOL0     H65054   1.091  11.430   0.539  0.8115  0.5421  1.3845
  482MOL0     H65055   1.049  11.282   0.733  0.9400 -0.9958  0.6016
  482MOL0     H65056   0.952  10.929   0.891 -0.7228 -1.4387  0.7625
  482MOL0     H65057   0.870  10.814   1.090  0.6632 -0.3642 -3.2949
  482MOL0     H65058   1.075  10.932   1.494 -0.2323 -0.0853  1.5288
  482MOL0     H65059   1.161  10.789   1.432 -0.0518  0.2302  1.1377
  482MOL0     H65060   0.932  10.819   1.616 -1.2015  1.0342 -2.7574
  482MOL0     H65061   1.093  10.728   1.642 -1.0026 -0.7383  0.8268
  482MOL0     H65062   1.006  10.541   1.487 -1.1160 -1.7616 -0.9154
  482MOL0     H65063   0.860  10.640   1.478  0.0647  2.2522  0.3741
  482MOL0     H65064   0.952  10.462   1.688 -0.7183 -1.3746 -2.7419
  482MOL0     H65065   0.855  10.606   1.743  1.5912 -2.9200  2.5895
  482MOL0     H65066   0.615  10.283   1.607 -0.4127  0.4278 -2.3169
  482MOL0     H65067   1.217  10.932   1.307  0.7714 -0.5352  0.2934
  482MOL0     H65068   1.390  11.049   1.231 -1.1641  4.1906  1.8383
  482MOL0     H65069   1.429  11.010   1.065  2.7745 -1.1710  2.4659
  482MOL0     H65070   1.336  11.166   1.123 -0.7100 -1.1473 -1.8178
  483MOL0     O65071   3.152   9.712   7.534  0.3817 -0.3070  0.4828
  483MOL0     C65072   3.232   9.771   7.617 -0.3804  0.1481  1.7480
  483MOL0     O65073   3.369   9.773   7.606 -0.3746  0.7642  0.1582
  483MOL0     C65074   3.426   9.742   7.478 -1.4588  0.7850  0.3774
  483MOL0     C65075   3.462   9.612   7.439  0.1839  0.5271 -0.2936
  483MOL0     C65076   3.520   9.583   7.307  0.6706  0.9609  0.4459
  483MOL0     C65077   3.539   9.692   7.219  0.5978  0.6818 -0.4347
  483MOL0     O65078   3.605   9.666   7.097  0.1471  0.3079 -0.4132
  483MOL0     C65079   3.747   9.625   7.118  0.3574  0.3534  0.3628
  483MOL0     C65080   3.832   9.682   6.999  0.1508  0.7015 -0.7688
  483MOL0     C65081   3.794   9.832   6.985  0.3115  0.3315 -0.5758
  483MOL0     C65082   3.903   9.900   6.902 -0.9479 -0.2566  0.1637
  483MOL0     C65083   3.876  10.050   6.894 -1.0008  0.3038  0.9296
  483MOL0     C65084   3.990  10.128   6.843 -0.1578 -0.1521 -0.1785
  483MOL0     C65085   3.958  10.274   6.861  0.3410  0.4457  0.2741
  483MOL0     C65086   4.077  10.356   6.809 -0.8022  0.3552  0.0737
  483MOL0     N65087   4.186  10.368   6.902 -0.9856  0.6886  0.3825
  483MOL0     C65088   4.308  10.390   6.860  0.7115  0.2440  0.5220
  483MOL0     C65089   4.384  10.431   6.968  0.1395  0.5463  0.7765
  483MOL0     C65090   4.530  10.469   6.967 -0.3913  0.6030  0.1233
  483MOL0     C65091   4.602  10.344   6.940  0.0303  0.0560 -0.5323
  483MOL0     C65092   4.747  10.345   6.986  0.0084  0.4990 -0.1912
  483MOL0     C65093   4.826  10.470   6.956 -0.4647  0.3191 -0.1664
  483MOL0     O65094   4.950  10.456   7.030 -0.0903  0.3289  0.7475
  483MOL0     C65095   4.963  10.532   7.137 -0.7356 -0.2016  0.1670
  483MOL0     C65096   5.083  10.607   7.139  0.6295 -0.2056 -0.5748
  483MOL0     C65097   5.115  10.678   7.255  0.3908 -0.3322  1.0193
  483MOL0     C65098   5.024  10.696   7.357  0.7011 -0.2270 -0.0423
  483MOL0     C65099   5.057  10.785   7.477  0.1389 -0.3711 -0.5943
  483MOL0     O65100   5.176  10.862   7.472 -0.2453  0.9001  0.1018
  483MOL0     C65101   5.199  10.947   7.578  0.4311  0.6531  0.0957
  483MOL0     C65102   5.184  11.082   7.566  0.7168 -0.1553  0.3556
  483MOL0     C65103   5.195  11.169   7.669 -0.2634 -0.3197 -0.7672
  483MOL0     C65104   5.232  11.122   7.800  0.2611 -0.1007  0.7238
  483MOL0     O65105   5.242  11.207   7.917 -0.1326  0.4530 -0.0465
  483MOL0     C65106   5.206  11.348   7.903 -0.4455  0.1274 -0.0153
  483MOL0     C65107   5.253  11.435   8.031  0.1936  0.2904  0.4401
  483MOL0     C65108   5.405  11.424   8.030 -0.8985 -0.2356  0.1356
  483MOL0     C65109   5.464  11.513   8.135 -0.7554  0.7415  0.1195
  483MOL0     C65110   5.613  11.494   8.125  0.4316 -0.4536 -0.2027
  483MOL0     C65111   5.696  11.601   8.195  0.0021 -0.1797  0.2690
  483MOL0     C65112   5.845  11.569   8.212 -0.2308  0.4793  0.0748
  483MOL0     C65113   5.922  11.670   8.298 -0.0029 -0.1701  0.2706
  483MOL0    Cl65114   5.836  11.670   8.455 -0.2104 -0.1721  0.0884
  483MOL0     C65115   5.266  10.984   7.811  0.1156  0.1434 -0.8030
  483MOL0     C65116   5.248  10.898   7.700 -0.0358  0.1913  0.0834
  483MOL0     O65117   4.980  10.788   7.572  0.1442 -0.8423 -0.2341
  483MOL0     C65118   4.902  10.630   7.351  0.3831 -0.5116 -1.1730
  483MOL0     C65119   4.874  10.541   7.250 -0.6739  1.1125 -0.2032
  483MOL0     N65120   4.291  10.451   7.068 -0.0978  0.8527 -0.5634
  483MOL0     N65121   4.175  10.412   7.027  0.2728  0.1198 -0.3954
  483MOL0     C65122   3.493   9.826   7.261 -0.6512 -0.1057  0.3600
  483MOL0     C65123   3.452   9.857   7.392  0.1428  0.5737  0.2550
  483MOL0     C65124   3.170   9.843   7.732  0.1838 -0.5373  0.3261
  483MOL0     C65125   3.241   9.959   7.772 -0.4047 -0.1730  0.1051
  483MOL0     C65126   3.199  10.058   7.869  0.8748  1.0116 -0.0286
  483MOL0     C65127   3.076  10.029   7.938 -0.1759  0.0392  0.1015
  483MOL0     O65128   3.039  10.115   8.042  0.2457  0.3636  0.2416
  483MOL0     C65129   2.924  10.088   8.117  0.3422 -0.2502 -0.9336
  483MOL0     C65130   2.921   9.958   8.204  0.3768 -0.3345  0.5565
  483MOL0     C65131   2.775   9.904   8.212  0.0345 -0.2174 -0.3097
  483MOL0     C65132   2.750   9.794   8.322 -0.4049 -0.1747 -0.5851
  483MOL0     C65133   2.751   9.841   8.457 -0.0951  0.4270  0.1645
  483MOL0     C65134   2.743   9.888   8.575 -0.9125  0.1366  1.6546
  483MOL0     C65135   2.998   9.920   7.899 -0.6490  0.1327 -0.5268
  483MOL0     C65136   3.043   9.825   7.795  0.1861  0.7293  0.3868
  483MOL0     C65137   2.958   9.708   7.759 -0.6156 -0.7365  0.1117
  483MOL0     H65138   3.436   9.525   7.498 -0.9872 -0.8393 -2.6556
  483MOL0     H65139   3.547   9.482   7.277  0.2112 -0.1409  3.4071
  483MOL0     H65140   3.791   9.662   7.211  0.3571  5.3088 -1.3171
  483MOL0     H65141   3.753   9.516   7.123 -1.2464  0.2677  1.1146
  483MOL0     H65142   3.789   9.633   6.910 -1.0226  0.8036 -0.2810
  483MOL0     H65143   3.938   9.661   7.011 -0.3123 -0.7498  1.2520
  483MOL0     H65144   3.776   9.884   7.080 -3.8496  0.2616 -1.1197
  483MOL0     H65145   3.693   9.844   6.943  0.2578 -0.2760 -0.6257
  483MOL0     H65146   3.998   9.877   6.951 -1.4352 -1.0848  0.7406
  483MOL0     H65147   3.907   9.853   6.804  1.1313 -2.1646  1.0800
  483MOL0     H65148   3.785  10.075   6.838 -2.1670 -1.3486  1.9710
  483MOL0     H65149   3.870  10.081   6.998  2.6867  0.2156  1.2797
  483MOL0     H65150   4.072  10.100   6.911  0.0581 -1.7831 -1.0809
  483MOL0     H65151   4.006  10.116   6.736  0.0105 -0.2826 -0.1393
  483MOL0     H65152   3.938  10.295   6.967  0.7147  0.2157  0.3907
  483MOL0     H65153   3.864  10.295   6.809 -0.6709  0.3968  1.9957
  483MOL0     H65154   4.123  10.307   6.722  1.1907  1.6539  0.3208
  483MOL0     H65155   4.045  10.456   6.780  1.3473  1.2266  0.4814
  483MOL0     H65156   4.359  10.379   6.765  4.0441 -1.5330  2.3734
  483MOL0     H65157   4.558  10.549   6.898 -1.4963 -1.7102 -3.2831
  483MOL0     H65158   4.553  10.508   7.067 -2.6511  1.4156  0.3634
  483MOL0     H65159   4.548  10.262   6.990 -1.4743  1.7901  0.7962
  483MOL0     H65160   4.594  10.339   6.831 -2.5794  2.5164 -0.5688
  483MOL0     H65161   4.801  10.268   6.931 -2.2222 -0.2095 -1.5225
  483MOL0     H65162   4.756  10.331   7.094  2.3475 -1.5891 -0.5429
  483MOL0     H65163   4.772  10.561   6.981 -3.2438 -0.9537 -1.1159
  483MOL0     H65164   4.863  10.465   6.853 -0.3518 -1.1229 -0.0886
  483MOL0     H65165   5.161  10.605   7.064 -0.6450 -5.4820 -2.1712
  483MOL0     H65166   5.213  10.724   7.263 -0.3426  1.1033  2.3535
  483MOL0     H65167   5.157  11.130   7.472 -4.3430 -0.0804  1.5780
  483MOL0     H65168   5.189  11.275   7.648 -2.4250  0.1494  1.7134
  483MOL0     H65169   5.258  11.394   7.819  1.5723  0.8019  1.5342
  483MOL0     H65170   5.097  11.358   7.897 -0.7509 -2.3406  0.5193
  483MOL0     H65171   5.226  11.541   8.028  0.3656  0.3189 -0.3572
  483MOL0     H65172   5.206  11.388   8.118  0.5136  0.5649  0.7637
  483MOL0     H65173   5.434  11.319   8.037  0.9673  0.0903 -1.6269
  483MOL0     H65174   5.444  11.444   7.930  1.4165 -2.6118  0.4506
  483MOL0     H65175   5.427  11.495   8.236  3.1295 -2.0137  1.2637
  483MOL0     H65176   5.442  11.617   8.108  0.6305  1.1690  0.5690
  483MOL0     H65177   5.643  11.489   8.020 -3.2803  0.2786 -1.4294
  483MOL0     H65178   5.648  11.403   8.175 -4.1540 -2.7085 -0.6012
  483MOL0     H65179   5.680  11.697   8.145  0.7597  0.5566  1.3677
  483MOL0     H65180   5.654  11.610   8.296  3.4618 -1.3567  1.9839
  483MOL0     H65181   5.883  11.568   8.109 -0.7693 -1.8382 -0.1451
  483MOL0     H65182   5.860  11.469   8.254  0.6473 -0.5239 -2.4403
  483MOL0     H65183   6.020  11.628   8.319  0.4313  1.2518  1.3062
  483MOL0     H65184   5.927  11.772   8.259 -3.2591 -0.6993 -1.9341
  483MOL0     H65185   5.298  10.932   7.901  1.1976 -1.7302 -2.2039
  483MOL0     H65186   5.275  10.793   7.697  0.1932  0.2627 -2.1545
  483MOL0     H65187   4.837  10.638   7.438 -1.9429  1.0908 -2.8993
  483MOL0     H65188   4.788  10.475   7.250 -0.8931  1.3766  0.8267
  483MOL0     H65189   3.526   9.900   7.188 -3.0160  0.1858 -0.5023
  483MOL0     H65190   3.427   9.957   7.426 -1.3329  0.1103  0.5987
  483MOL0     H65191   3.339   9.990   7.739 -0.4457  1.0016  1.0067
  483MOL0     H65192   3.254  10.146   7.900 -0.4506  2.1594 -0.7817
  483MOL0     H65193   2.845  10.062   8.046  0.5258 -3.5956 -0.0456
  483MOL0     H65194   2.894  10.175   8.177 -4.6388 -1.5497 -1.1040
  483MOL0     H65195   2.960   9.985   8.303  2.7561  2.7434 -1.0262
  483MOL0     H65196   2.985   9.884   8.156  2.1414  2.5980 -2.0401
  483MOL0     H65197   2.751   9.856   8.116 -0.4090  1.1629 -0.9030
  483MOL0     H65198   2.713   9.992   8.229 -0.1953 -0.2587 -0.9030
  483MOL0     H65199   2.657   9.745   8.294  0.6461 -0.6380 -3.5652
  483MOL0     H65200   2.821   9.715   8.298 -1.7449 -1.3534 -0.7807
  483MOL0     H65201   2.736   9.939   8.669  2.8239 -0.5481  2.4436
  483MOL0     H65202   2.911   9.886   7.953 -0.4914 -0.9648 -0.9258
  483MOL0     H65203   2.893   9.737   7.675 -0.2869 -0.0259  0.1005
  483MOL0     H65204   3.009   9.621   7.716  0.4558  1.4755 -3.5033
  483MOL0     H65205   2.901   9.681   7.848 -1.7250 -1.3630 -0.7569
  484MOL0     O65206   2.033   3.589   3.568  0.2285  0.6727 -0.4605
  484MOL0     C65207   2.142   3.590   3.521 -1.0185 -0.0064  0.6418
  484MOL0     O65208   2.163   3.583   3.388 -0.1325  0.6136  0.6797
  484MOL0     C65209   2.071   3.540   3.301 -0.1874 -0.3938  0.2890
  484MOL0     C65210   2.098   3.432   3.205 -1.0728 -0.4421 -0.5268
  484MOL0     C65211   1.996   3.382   3.121  0.4710 -0.7719 -0.0625
  484MOL0     C65212   1.868   3.442   3.124  0.0488  0.0745  0.7536
  484MOL0     O65213   1.766   3.395   3.040  0.4201  0.1666 -0.5915
  484MOL0     C65214   1.810   3.354   2.908  0.3177 -0.2580 -0.1318
  484MOL0     C65215   1.704   3.334   2.800 -0.0865  0.2866  0.5280
  484MOL0     C65216   1.591   3.230   2.839 -0.2303 -0.4016 -0.0672
  484MOL0     C65217   1.617   3.095   2.785  0.0369  0.0839 -0.0301
  484MOL0     C65218   1.510   2.998   2.833 -0.1989  0.4549  0.3858
  484MOL0     C65219   1.524   2.863   2.767 -0.0267  0.0731  0.0542
  484MOL0     C65220   1.424   2.761   2.824 -0.1474 -0.2962 -0.1428
  484MOL0     C65221   1.410   2.651   2.728  0.3816 -0.5450 -0.3061
  484MOL0     N65222   1.317   2.557   2.779 -0.1431  0.1105 -0.0028
  484MOL0     C65223   1.190   2.550   2.754 -0.0683 -0.1395 -0.4549
  484MOL0     C65224   1.133   2.447   2.816  1.0144  1.1164 -0.3589
  484MOL0     C65225   0.990   2.411   2.831 -0.0689  0.0012  0.3573
  484MOL0     C65226   0.957   2.311   2.726  0.3867  1.3891  0.3271
  484MOL0     C65227   0.804   2.277   2.719 -0.3917 -0.4237  0.6299
  484MOL0     C65228   0.720   2.392   2.667  0.1396 -0.4435  0.9851
  484MOL0     O65229   0.582   2.355   2.678  0.0786  0.1845 -0.4589
  484MOL0     C65230   0.526   2.427   2.777  1.7874 -0.8604  0.4081
  484MOL0     C65231   0.460   2.551   2.757 -0.4261 -0.2112  0.0828
  484MOL0     C65232   0.403   2.620   2.872 -0.2473 -0.8356  0.0978
  484MOL0     C65233   0.421   2.566   2.997 -0.2913 -0.1627  0.3948
  484MOL0     C65234   0.369   2.637   3.120 -0.3239  0.2020 -0.1390
  484MOL0     O65235   0.320   2.763   3.106 -0.5508  0.3665  0.4152
  484MOL0     C65236   0.302   2.853   3.203 -0.3170 -0.5019 -0.3289
  484MOL0     C65237   0.346   2.844   3.338 -0.0965 -0.1007 -0.8529
  484MOL0     C65238   0.328   2.947   3.435  0.2221  0.0835  0.0801
  484MOL0     C65239   0.264   3.065   3.395  0.6687 -0.3521 -0.8590
  484MOL0     O65240   0.237   3.161   3.499 -0.8406 -0.3659 -0.3451
  484MOL0     C65241   0.142   3.264   3.478  0.0741  0.0798  0.4477
  484MOL0     C65242   0.139   3.366   3.586 -1.4243  0.6364 -1.9939
  484MOL0     C65243   0.060   3.497   3.550 -0.6578 -0.9471  0.0022
  484MOL0     C65244  -0.007   3.546   3.678  1.2299 -0.4772  0.4747
  484MOL0     C65245  -0.060   3.693   3.679 -0.2080  0.0424 -0.2539
  484MOL0     C65246  -0.150   3.719   3.564  0.2856 -0.6670  0.3458
  484MOL0     C65247  -0.220   3.845   3.603  0.0955 -0.6154  0.7438
  484MOL0     C65248  -0.269   3.912   3.484  1.1886  0.2513  0.8320
  484MOL0    Cl65249  -0.396   3.807   3.405  0.1936  0.2359  0.1723
  484MOL0     C65250   0.206   3.069   3.269  0.6706 -0.4991 -0.4020
  484MOL0     C65251   0.225   2.964   3.171 -0.3509  0.2806 -0.3602
  484MOL0     O65252   0.333   2.560   3.211 -0.1631 -0.2273  0.4504
  484MOL0     C65253   0.482   2.444   3.016 -0.3279  0.7458 -0.0483
  484MOL0     C65254   0.527   2.378   2.908 -0.2573 -0.0043  0.4023
  484MOL0     N65255   1.233   2.383   2.876 -0.5855 -0.1430 -0.3609
  484MOL0     N65256   1.343   2.447   2.854  0.1340 -1.2140 -0.1770
  484MOL0     C65257   1.846   3.558   3.196 -1.0295 -0.2701 -0.5737
  484MOL0     C65258   1.941   3.601   3.293 -0.5800  0.0973 -0.2272
  484MOL0     C65259   2.267   3.586   3.601 -0.7864 -0.2061  0.1976
  484MOL0     C65260   2.392   3.588   3.530 -0.3631  0.3774 -0.1202
  484MOL0     C65261   2.514   3.620   3.593  0.5022  0.5523 -0.6964
  484MOL0     C65262   2.524   3.610   3.731  0.8837 -0.1133 -0.0697
  484MOL0     O65263   2.628   3.639   3.813 -0.4799  0.3354 -0.5999
  484MOL0     C65264   2.746   3.712   3.758 -0.2685  1.0123 -0.4876
  484MOL0     C65265   2.704   3.852   3.724  0.0444  0.2643  0.1546
  484MOL0     C65266   2.823   3.952   3.753  0.1672 -0.6267  0.6302
  484MOL0     C65267   2.781   4.096   3.774 -0.5963 -0.4459 -0.2329
  484MOL0     C65268   2.752   4.125   3.914 -0.8582  0.6230  0.7290
  484MOL0     C65269   2.735   4.134   4.032  1.4964 -0.7112  0.6673
  484MOL0     C65270   2.405   3.583   3.801  0.2438  0.4601 -0.4268
  484MOL0     C65271   2.281   3.584   3.737  0.4596  0.7281 -0.1412
  484MOL0     C65272   2.157   3.564   3.824 -0.3475 -0.6600  0.9212
  484MOL0     H65273   2.193   3.381   3.206  0.9030  2.9212 -0.7618
  484MOL0     H65274   2.024   3.299   3.056  3.7026  2.5966 -3.5265
  484MOL0     H65275   1.888   3.418   2.865  2.8198 -1.6037  2.1341
  484MOL0     H65276   1.846   3.252   2.919 -1.1342 -0.7036  0.7907
  484MOL0     H65277   1.735   3.322   2.696 -2.1437 -0.4553 -0.0580
  484MOL0     H65278   1.647   3.427   2.791 -1.4042 -0.6632 -1.8844
  484MOL0     H65279   1.487   3.255   2.815 -1.2024 -0.8602  3.1420
  484MOL0     H65280   1.590   3.218   2.948  2.2326 -2.3283 -0.1914
  484MOL0     H65281   1.627   3.098   2.677 -0.5558 -2.0706 -0.1780
  484MOL0     H65282   1.715   3.056   2.815 -0.5294 -1.1145  0.3286
  484MOL0     H65283   1.516   2.990   2.942  2.2941  0.3291  0.2970
  484MOL0     H65284   1.412   3.044   2.814  0.3494  2.3398  1.7920
  484MOL0     H65285   1.512   2.873   2.659 -1.9711  2.6390  0.4291
  484MOL0     H65286   1.620   2.817   2.793 -0.5022 -0.3962  1.0596
  484MOL0     H65287   1.322   2.799   2.836 -0.4789 -1.7398  2.3415
  484MOL0     H65288   1.456   2.737   2.926 -1.0351  1.5932  0.6298
  484MOL0     H65289   1.372   2.680   2.630  1.1390 -0.8945 -0.7124
  484MOL0     H65290   1.509   2.604   2.722  2.2704  2.4044  3.1953
  484MOL0     H65291   1.143   2.622   2.687 -1.6781 -1.8470 -1.2276
  484MOL0     H65292   0.975   2.359   2.926 -1.4443 -0.0405  0.1324
  484MOL0     H65293   0.928   2.501   2.829 -0.3738 -0.1944  0.9654
  484MOL0     H65294   0.987   2.347   2.627  2.7469 -1.2309 -0.0669
  484MOL0     H65295   1.006   2.216   2.752  3.0397  1.8069 -2.4997
  484MOL0     H65296   0.766   2.234   2.811 -2.7059  1.7534  0.7933
  484MOL0     H65297   0.779   2.206   2.639 -3.8239  0.8569  0.3913
  484MOL0     H65298   0.740   2.407   2.560  0.6602 -0.4226  1.0793
  484MOL0     H65299   0.738   2.488   2.716  1.8529 -0.8121  1.1586
  484MOL0     H65300   0.437   2.596   2.660  0.2523  0.0743  0.0452
  484MOL0     H65301   0.341   2.710   2.875  0.5760 -0.2747  2.2295
  484MOL0     H65302   0.414   2.766   3.371  2.1534  2.6114  1.4374
  484MOL0     H65303   0.364   2.940   3.537  0.7550 -3.0769 -0.2192
  484MOL0     H65304   0.166   3.318   3.385 -1.1692 -2.1517 -1.2725
  484MOL0     H65305   0.044   3.216   3.472  0.8297 -1.9753  2.9958
  484MOL0     H65306   0.095   3.317   3.674 -1.2177 -1.6699 -3.1051
  484MOL0     H65307   0.239   3.401   3.613 -0.8557 -1.6386 -0.8972
  484MOL0     H65308   0.133   3.574   3.524  2.4252 -3.4001  0.8230
  484MOL0     H65309  -0.021   3.488   3.477  0.6201  0.8415 -1.7342
  484MOL0     H65310   0.068   3.542   3.757 -0.4441 -2.1657  2.0669
  484MOL0     H65311  -0.076   3.470   3.717  0.8072 -1.3921 -1.9091
  484MOL0     H65312   0.022   3.764   3.671  1.1280 -1.5611 -1.4583
  484MOL0     H65313  -0.103   3.713   3.777  3.0147 -0.7285  1.4192
  484MOL0     H65314  -0.089   3.713   3.473 -1.6586 -4.0105 -0.9054
  484MOL0     H65315  -0.230   3.645   3.552 -1.5971  0.9758  2.0279
  484MOL0     H65316  -0.152   3.915   3.652 -1.1462  2.9757 -2.1356
  484MOL0     H65317  -0.301   3.836   3.676 -2.5215  2.8436 -1.3805
  484MOL0     H65318  -0.321   4.005   3.510  0.5821  0.4420 -0.8965
  484MOL0     H65319  -0.195   3.928   3.404 -0.7252  0.3659 -1.0027
  484MOL0     H65320   0.136   3.146   3.240  0.0913 -0.2663  1.5024
  484MOL0     H65321   0.179   2.978   3.074  0.2473  1.6934 -0.4598
  484MOL0     H65322   0.500   2.387   3.106  4.1290 -1.5279 -2.0349
  484MOL0     H65323   0.578   2.285   2.928  0.9316  0.7839  1.1980
  484MOL0     H65324   1.759   3.619   3.174 -0.9985  0.7233  1.7639
  484MOL0     H65325   1.936   3.690   3.355  1.6991  1.3128 -1.6792
  484MOL0     H65326   2.392   3.599   3.422  0.5437  2.6481  0.0450
  484MOL0     H65327   2.600   3.632   3.528  1.2799 -3.6305 -0.7167
  484MOL0     H65328   2.779   3.661   3.667 -1.1807 -0.5164 -0.0131
  484MOL0     H65329   2.829   3.695   3.827  1.0814 -2.2068 -2.6432
  484MOL0     H65330   2.614   3.878   3.780 -0.0919  0.2492 -0.0555
  484MOL0     H65331   2.694   3.857   3.615  0.5275  2.8499  0.1776
  484MOL0     H65332   2.894   3.948   3.670 -1.1333  1.6913 -0.6935
  484MOL0     H65333   2.873   3.911   3.841  1.0724  2.2644  1.5705
  484MOL0     H65334   2.862   4.166   3.750 -1.3414  0.1177 -1.2034
  484MOL0     H65335   2.692   4.128   3.718 -0.9245 -1.7092 -0.4685
  484MOL0     H65336   2.711   4.138   4.137  2.7867  1.9124  0.9533
  484MOL0     H65337   2.408   3.565   3.908  1.1838 -1.0847 -0.6876
  484MOL0     H65338   2.095   3.479   3.795  1.2692 -1.1862 -1.3166
  484MOL0     H65339   2.188   3.574   3.928  1.9319 -0.2390  0.2583
  484MOL0     H65340   2.090   3.647   3.799  3.8684  2.4278 -1.5593
  485MOL0     O65341   9.588   2.567   5.881  0.4814 -0.6590 -0.1927
  485MOL0     C65342   9.604   2.659   5.961  0.0272 -0.4104 -0.8960
  485MOL0     O65343   9.654   2.640   6.089  0.4375  0.5104 -0.5234
  485MOL0     C65344   9.738   2.537   6.122 -0.1338  0.2029 -0.4277
  485MOL0     C65345   9.804   2.453   6.029 -0.0843 -0.4481  0.2992
  485MOL0     C65346   9.908   2.363   6.076  0.2050  0.7394  0.7843
  485MOL0     C65347   9.939   2.351   6.206 -0.0255 -0.0060 -1.1295
  485MOL0     O65348  10.028   2.251   6.246 -0.6222  1.0268  0.2455
  485MOL0     C65349  10.164   2.303   6.250 -0.2846 -0.0490  0.5266
  485MOL0     C65350  10.272   2.189   6.233 -0.4767 -0.4740  0.4458
  485MOL0     C65351  10.237   2.065   6.297 -0.0360  0.2339 -0.3784
  485MOL0     C65352  10.349   1.961   6.269  0.1627  0.2911 -0.6417
  485MOL0     C65353  10.323   1.826   6.346  0.6633  0.0096  0.2122
  485MOL0     C65354  10.415   1.718   6.286  0.0726 -0.4299 -0.2885
  485MOL0     C65355  10.566   1.742   6.320  0.1212  0.5095 -0.0122
  485MOL0     C65356  10.603   1.676   6.455  0.2265  0.0236  0.0697
  485MOL0     N65357  10.589   1.531   6.442 -0.1895 -0.7648 -0.0125
  485MOL0     C65358  10.691   1.437   6.420  0.4700 -0.2287  0.6099
  485MOL0     C65359  10.635   1.323   6.452  1.1381  0.1484  0.4596
  485MOL0     C65360  10.709   1.202   6.437 -0.0046  0.6616  0.8549
  485MOL0     C65361  10.648   1.109   6.333  0.9657  0.4378 -0.1842
  485MOL0     C65362  10.674   1.162   6.188  1.2315 -0.6432 -0.3084
  485MOL0     C65363  10.587   1.089   6.091 -0.0375  0.1704  1.0662
  485MOL0     O65364  10.562   1.163   5.970 -0.2928 -0.2411  0.5426
  485MOL0     C65365  10.481   1.272   5.969  0.4242 -0.1566 -0.0803
  485MOL0     C65366  10.479   1.358   5.860 -0.1026 -0.0451  0.7431
  485MOL0     C65367  10.387   1.470   5.861  1.4090 -0.0161 -0.1330
  485MOL0     C65368  10.297   1.494   5.966  0.3512 -0.0013  0.2209
  485MOL0     C65369  10.204   1.605   5.963  1.2166  0.0026  1.0027
  485MOL0     O65370  10.109   1.611   6.058 -0.4811 -0.6134  0.7047
  485MOL0     C65371  10.012   1.709   6.039 -1.1505  0.2868 -0.4111
  485MOL0     C65372  10.048   1.846   6.018 -0.8711  0.4986 -0.9027
  485MOL0     C65373   9.947   1.944   5.986 -0.5986  0.0469  0.0269
  485MOL0     C65374   9.818   1.911   5.979 -0.2006 -0.2696 -0.1580
  485MOL0     O65375   9.733   2.009   5.945 -0.3181 -0.5461 -0.2991
  485MOL0     C65376   9.596   2.018   5.996 -0.7220 -0.2999  0.2801
  485MOL0     C65377   9.543   2.159   5.964  0.2839  0.2487  0.0438
  485MOL0     C65378   9.486   2.189   5.827  0.7246  0.0543  1.0503
  485MOL0     C65379   9.384   2.085   5.777  0.7183  0.0922  0.0711
  485MOL0     C65380   9.273   2.142   5.689  0.4482  0.5396  0.3379
  485MOL0     C65381   9.171   2.221   5.773 -1.1539 -0.1430 -0.8249
  485MOL0     C65382   9.136   2.349   5.707  0.0230 -0.0647  0.0857
  485MOL0     C65383   8.984   2.359   5.676 -0.0271  0.0179  0.3679
  485MOL0    Cl65384   8.935   2.525   5.637 -0.2062  0.1607 -0.0878
  485MOL0     C65385   9.784   1.782   6.005 -0.2185  0.0190  0.1890
  485MOL0     C65386   9.879   1.677   6.026  1.1203  0.3047  0.9349
  485MOL0     O65387  10.207   1.677   5.855  1.0202  0.4571  0.1732
  485MOL0     C65388  10.307   1.406   6.074  0.0968 -0.2225  0.3034
  485MOL0     C65389  10.398   1.301   6.075  0.4888  0.4086 -0.7759
  485MOL0     N65390  10.510   1.344   6.502  0.8332 -0.0464 -0.9934
  485MOL0     N65391  10.475   1.466   6.483 -0.6292  0.1620  0.8795
  485MOL0     C65392   9.862   2.424   6.299 -0.8614  0.4169 -0.7621
  485MOL0     C65393   9.768   2.509   6.261 -0.2035 -0.4969  0.5057
  485MOL0     C65394   9.554   2.794   5.928  0.7405  0.1285 -0.3106
  485MOL0     C65395   9.548   2.828   5.794 -0.4897 -0.6701  0.3848
  485MOL0     C65396   9.507   2.955   5.747 -0.3458  0.2550  0.5590
  485MOL0     C65397   9.497   3.060   5.838 -0.3249 -0.6835 -0.0065
  485MOL0     O65398   9.473   3.186   5.793 -0.2143 -0.1408 -0.1417
  485MOL0     C65399   9.345   3.238   5.823 -0.3844  0.3957  0.6687
  485MOL0     C65400   9.283   3.298   5.701 -0.3923  0.2836 -0.2639
  485MOL0     C65401   9.290   3.449   5.691 -0.5900  0.2412 -0.5592
  485MOL0     C65402   9.242   3.490   5.552  0.3412 -0.4966  1.3062
  485MOL0     C65403   9.231   3.639   5.562 -0.0442 -0.4648  0.9428
  485MOL0     C65404   9.201   3.755   5.559 -0.3979  0.0778  0.1850
  485MOL0     C65405   9.501   3.042   5.980 -0.4970  0.4199  0.2094
  485MOL0     C65406   9.521   2.902   6.026  0.2281  0.0660  0.6766
  485MOL0     C65407   9.532   2.878   6.177 -0.0327 -1.6497  0.0896
  485MOL0     H65408   9.786   2.443   5.923 -0.2590  1.0843  0.1687
  485MOL0     H65409   9.970   2.306   6.007  0.6679 -0.6175  2.2520
  485MOL0     H65410  10.181   2.390   6.185 -2.7681 -0.7289 -1.1923
  485MOL0     H65411  10.187   2.339   6.351 -0.9704 -0.0895  0.6992
  485MOL0     H65412  10.369   2.223   6.270 -2.4014  3.0369  2.8753
  485MOL0     H65413  10.296   2.175   6.127 -0.0214 -1.1787  0.6372
  485MOL0     H65414  10.140   2.021   6.273  0.6063 -1.3043 -0.2465
  485MOL0     H65415  10.235   2.083   6.405 -0.8259 -1.8098 -0.0252
  485MOL0     H65416  10.345   1.942   6.161  1.1969  2.7521 -1.1735
  485MOL0     H65417  10.445   2.000   6.302 -0.4113 -0.2640  1.9256
  485MOL0     H65418  10.354   1.844   6.449  3.9986  2.9792 -1.1074
  485MOL0     H65419  10.216   1.803   6.343  0.2924  1.4138  1.4654
  485MOL0     H65420  10.373   1.623   6.321 -2.3996  1.1345  1.3404
  485MOL0     H65421  10.397   1.726   6.178 -2.5902 -1.2801  0.0116
  485MOL0     H65422  10.599   1.846   6.328  0.9181  0.1872  1.1762
  485MOL0     H65423  10.622   1.694   6.239  0.1615  1.9985 -0.9063
  485MOL0     H65424  10.702   1.700   6.494 -0.2168  2.0175  0.0625
  485MOL0     H65425  10.532   1.707   6.532  1.3067  0.2817  0.9930
  485MOL0     H65426  10.797   1.442   6.395  1.2297 -0.4521  3.4047
  485MOL0     H65427  10.813   1.216   6.405 -1.6872  3.3732 -4.3954
  485MOL0     H65428  10.709   1.151   6.534  3.3460 -0.5999  0.3393
  485MOL0     H65429  10.680   1.006   6.350 -4.4390 -1.6030 -0.4772
  485MOL0     H65430  10.541   1.096   6.350  0.9862 -2.2077 -1.5760
  485MOL0     H65431  10.779   1.139   6.168  1.0400 -1.4788 -0.3795
  485MOL0     H65432  10.652   1.268   6.173 -2.6983 -1.4352 -1.2588
  485MOL0     H65433  10.489   1.068   6.135  0.1102  0.8008  1.7128
  485MOL0     H65434  10.624   0.989   6.069  0.9438  0.1734  2.5742
  485MOL0     H65435  10.546   1.326   5.781 -1.2358  1.1487 -0.7793
  485MOL0     H65436  10.382   1.535   5.775 -0.1820  0.2838  0.1531
  485MOL0     H65437  10.153   1.870   6.034 -0.3410 -3.0573  2.6974
  485MOL0     H65438   9.999   2.038   5.968 -0.2288  0.6567  3.6107
  485MOL0     H65439   9.528   1.938   5.965 -0.2109 -0.5623 -0.1832
  485MOL0     H65440   9.608   2.018   6.105  2.9862 -1.1764  0.0126
  485MOL0     H65441   9.452   2.165   6.025 -0.5404 -2.2806 -0.7997
  485MOL0     H65442   9.620   2.236   5.975  1.0149 -0.4661  0.0321
  485MOL0     H65443   9.443   2.289   5.834 -2.0474 -0.7590 -1.7104
  485MOL0     H65444   9.566   2.200   5.754  1.5351 -1.0339  1.7417
  485MOL0     H65445   9.342   2.045   5.870  0.3990  3.7480  1.6752
  485MOL0     H65446   9.446   2.009   5.730  0.9955  0.1810  0.2924
  485MOL0     H65447   9.221   2.056   5.645 -2.9502  2.4976  0.1933
  485MOL0     H65448   9.321   2.193   5.605  1.2737  2.9841  2.1947
  485MOL0     H65449   9.084   2.155   5.786  0.7990 -2.5836  0.7678
  485MOL0     H65450   9.198   2.251   5.874 -2.3390  1.0975 -0.8477
  485MOL0     H65451   9.207   2.377   5.628 -1.5631  1.8654 -0.7454
  485MOL0     H65452   9.154   2.423   5.785  1.0175  1.5541 -1.6121
  485MOL0     H65453   8.964   2.293   5.592  1.6070 -3.1588  2.2626
  485MOL0     H65454   8.932   2.318   5.763  1.1665  0.9447  1.5585
  485MOL0     H65455   9.682   1.750   5.985  0.4873 -1.5222 -1.0757
  485MOL0     H65456   9.849   1.572   6.022  0.9791  0.3852 -0.6804
  485MOL0     H65457  10.259   1.416   6.171 -1.6915 -2.5373 -0.2561
  485MOL0     H65458  10.397   1.235   6.161  0.5533  0.6452 -0.5935
  485MOL0     H65459   9.884   2.399   6.402 -1.6366 -1.4669 -1.0061
  485MOL0     H65460   9.728   2.572   6.340  0.9037  2.8668 -1.4083
  485MOL0     H65461   9.586   2.755   5.724  0.0992  2.9443 -3.4848
  485MOL0     H65462   9.485   2.969   5.642  0.9379 -3.7814 -0.4589
  485MOL0     H65463   9.342   3.312   5.904 -0.2508  0.7459  0.3525
  485MOL0     H65464   9.273   3.163   5.858  0.4459  0.8744  3.7468
  485MOL0     H65465   9.183   3.255   5.694  0.4682 -1.4649 -3.1630
  485MOL0     H65466   9.337   3.267   5.611  1.0487  2.6415 -0.2862
  485MOL0     H65467   9.388   3.489   5.720 -0.9070  0.6283 -0.0147
  485MOL0     H65468   9.223   3.490   5.767 -0.1784  0.4616 -0.3105
  485MOL0     H65469   9.312   3.447   5.480 -1.9944 -0.4849 -1.1430
  485MOL0     H65470   9.146   3.440   5.537  1.5419 -2.4679 -0.3561
  485MOL0     H65471   9.185   3.861   5.559  3.7844  0.8869  1.7035
  485MOL0     H65472   9.490   3.129   6.044 -0.9012  1.0346 -0.6747
  485MOL0     H65473   9.451   2.809   6.201  0.1454 -1.9278 -0.1014
  485MOL0     H65474   9.627   2.843   6.219  0.6041 -0.0059  0.1230
  485MOL0     H65475   9.512   2.968   6.236 -2.4235 -2.0750  0.0311
  486MOL0     O65476  10.438   7.960  10.103  0.9148 -0.5306  0.0308
  486MOL0     C65477  10.551   7.912  10.083 -1.0292 -1.2108 -0.4266
  486MOL0     O65478  10.636   7.940   9.973  0.3350  0.5585  0.2440
  486MOL0     C65479  10.610   8.037   9.879  0.4540 -0.6998  1.1590
  486MOL0     C65480  10.568   8.167   9.904 -0.3838 -0.1218  0.3424
  486MOL0     C65481  10.532   8.262   9.811  0.2876  0.7650 -0.2384
  486MOL0     C65482  10.543   8.222   9.675 -0.0005  0.4111 -0.8482
  486MOL0     O65483  10.503   8.305   9.574  0.6814 -0.1106  0.3332
  486MOL0     C65484  10.608   8.327   9.474  0.2987  0.3485 -0.5044
  486MOL0     C65485  10.561   8.301   9.328 -0.8685 -0.2973 -0.3719
  486MOL0     C65486  10.688   8.291   9.246 -0.0057  0.0480 -0.3746
  486MOL0     C65487  10.656   8.280   9.100 -1.9303  0.4779  0.0799
  486MOL0     C65488  10.785   8.258   9.004  0.7788  0.1190  0.5288
  486MOL0     C65489  10.870   8.136   9.041 -0.4354  0.1220 -0.3207
  486MOL0     C65490  10.957   8.087   8.921  0.0587  1.0212 -1.0709
  486MOL0     C65491  11.066   7.983   8.956 -0.2938 -0.1604  0.5232
  486MOL0     N65492  11.183   8.061   9.015  1.5111 -0.4610  0.6754
  486MOL0     C65493  11.281   8.108   8.939 -0.0018 -0.3917 -1.0090
  486MOL0     C65494  11.352   8.187   9.024  0.4710  0.1691 -0.0789
  486MOL0     C65495  11.479   8.263   8.980  0.6530  0.1234  0.1788
  486MOL0     C65496  11.496   8.399   9.063 -0.4197  0.6941 -0.6351
  486MOL0     C65497  11.604   8.501   8.996 -0.5549  0.1366 -1.2136
  486MOL0     C65498  11.593   8.641   9.056 -1.0957  0.2097  0.7972
  486MOL0     O65499  11.646   8.737   8.961 -0.0217 -0.5156 -0.4526
  486MOL0     C65500  11.560   8.781   8.859 -0.0268 -0.1029 -0.1294
  486MOL0     C65501  11.438   8.725   8.830 -0.1243 -0.4579 -1.0301
  486MOL0     C65502  11.361   8.768   8.729 -0.4228 -0.7919  0.3554
  486MOL0     C65503  11.404   8.877   8.650 -0.1010 -0.4117 -0.6407
  486MOL0     C65504  11.332   8.919   8.530  0.3305  0.0558 -0.8110
  486MOL0     O65505  11.382   9.027   8.472 -0.3535  0.3631 -0.0244
  486MOL0     C65506  11.329   9.083   8.364  0.2247 -0.2836 -1.1070
  486MOL0     C65507  11.191   9.102   8.341  0.8715 -0.2744  0.8432
  486MOL0     C65508  11.160   9.181   8.226 -0.4114  0.3172 -0.4460
  486MOL0     C65509  11.258   9.226   8.137 -0.0572  0.1876 -0.3991
  486MOL0     O65510  11.258   9.308   8.024 -0.5744 -0.0426  0.6141
  486MOL0     C65511  11.133   9.374   7.981 -0.7239 -0.9624 -0.1019
  486MOL0     C65512  11.136   9.520   7.997 -0.0935 -0.1060 -1.0222
  486MOL0     C65513  11.128   9.564   8.152  1.1024  1.7368 -0.7797
  486MOL0     C65514  11.098   9.707   8.171  0.6153  0.1660 -0.4075
  486MOL0     C65515  11.068   9.755   8.312 -0.2583 -0.2329 -0.0210
  486MOL0     C65516  11.040   9.906   8.309  0.5609 -0.6699  0.6447
  486MOL0     C65517  10.999   9.971   8.438  0.0587 -0.1163  0.2241
  486MOL0     C65518  11.100   9.984   8.554 -1.0929  0.5940 -0.4323
  486MOL0    Cl65519  11.054  10.138   8.636  0.0110  0.2351  0.1060
  486MOL0     C65520  11.393   9.208   8.171  0.9158 -0.3343  0.7830
  486MOL0     C65521  11.425   9.142   8.285 -0.0752  0.2737  0.9261
  486MOL0     O65522  11.232   8.852   8.498  0.0564 -0.7146  0.2127
  486MOL0     C65523  11.525   8.940   8.677 -0.3923  0.0475 -1.2105
  486MOL0     C65524  11.594   8.885   8.784  0.1428 -0.4971  0.8139
  486MOL0     N65525  11.314   8.167   9.157  0.8025 -0.1618  0.5318
  486MOL0     N65526  11.200   8.095   9.147 -0.3650  0.4883  0.4901
  486MOL0     C65527  10.577   8.094   9.644 -0.0858 -0.0677  0.3563
  486MOL0     C65528  10.621   8.011   9.747 -0.3213  0.6486  0.3459
  486MOL0     C65529  10.609   7.814  10.174 -0.3804  0.4059  1.3092
  486MOL0     C65530  10.745   7.776  10.168  0.5471 -0.0565  0.1143
  486MOL0     C65531  10.798   7.704  10.269  0.0074  0.2410  0.0324
  486MOL0     C65532  10.734   7.662  10.389  1.5468 -0.3122  0.2969
  486MOL0     O65533  10.801   7.590  10.490 -0.3923 -0.7587 -0.0196
  486MOL0     C65534  10.946   7.584  10.480  0.3034 -0.8478 -1.4050
  486MOL0     C65535  11.005   7.516  10.608 -0.5106 -0.7929  0.4887
  486MOL0     C65536  11.152   7.546  10.628 -0.4405 -0.9462 -0.6091
  486MOL0     C65537  11.254   7.484  10.531  0.1612  0.4180 -0.0889
  486MOL0     C65538  11.390   7.529  10.558 -1.2728 -0.3261  0.3663
  486MOL0     C65539  11.502   7.564  10.588 -0.9649 -0.3727 -0.3130
  486MOL0     C65540  10.601   7.703  10.396 -0.5259 -1.2386  0.6474
  486MOL0     C65541  10.537   7.769  10.289  0.1904  0.1563 -0.5477
  486MOL0     C65542  10.383   7.773  10.309  0.4787  0.2100  0.5331
  486MOL0     H65543  10.565   8.200  10.007 -1.2315 -0.3469  0.3979
  486MOL0     H65544  10.492   8.355   9.849 -0.4387  0.8451 -1.1436
  486MOL0     H65545  10.645   8.426   9.500 -2.0790  1.6097 -1.5937
  486MOL0     H65546  10.694   8.261   9.490 -0.9279 -1.2962 -0.4462
  486MOL0     H65547  10.500   8.375   9.276 -1.1507 -1.6364 -2.0391
  486MOL0     H65548  10.508   8.207   9.311 -3.2220  1.0449 -0.7499
  486MOL0     H65549  10.752   8.211   9.285 -0.7724  0.3090  1.4911
  486MOL0     H65550  10.739   8.385   9.266 -0.5786  0.7096 -1.8679
  486MOL0     H65551  10.596   8.190   9.083 -0.8038 -0.2542 -0.1063
  486MOL0     H65552  10.598   8.367   9.067 -2.2148  1.6423  3.2445
  486MOL0     H65553  10.739   8.245   8.906 -0.6780  0.5363  1.1382
  486MOL0     H65554  10.841   8.352   9.013  1.4267 -0.1786 -0.2669
  486MOL0     H65555  10.931   8.163   9.128 -0.9229  0.3865 -0.0528
  486MOL0     H65556  10.809   8.056   9.084 -1.1772  0.9582  0.2013
  486MOL0     H65557  10.992   8.178   8.872 -1.8489  0.3779 -3.8839
  486MOL0     H65558  10.883   8.044   8.853 -3.1207 -0.1491  2.7569
  486MOL0     H65559  11.032   7.902   9.021 -2.0419  0.4267  0.3959
  486MOL0     H65560  11.092   7.932   8.863 -2.7693 -0.7241  0.0726
  486MOL0     H65561  11.290   8.106   8.831 -3.9553  0.9456 -1.5240
  486MOL0     H65562  11.567   8.204   9.008  0.1637 -0.9763 -0.5118
  486MOL0     H65563  11.474   8.289   8.874  2.5344  2.3531  0.5560
  486MOL0     H65564  11.395   8.441   9.075  0.0703  1.1920  2.8112
  486MOL0     H65565  11.523   8.380   9.167 -2.0740  0.7664 -0.1580
  486MOL0     H65566  11.606   8.507   8.887  1.1560 -0.0303 -1.2119
  486MOL0     H65567  11.704   8.467   9.023 -1.0936  0.9829  2.4948
  486MOL0     H65568  11.641   8.655   9.153 -1.8190 -1.0772  1.3801
  486MOL0     H65569  11.490   8.678   9.060 -0.9673  1.1367 -2.1575
  486MOL0     H65570  11.411   8.642   8.894  3.3442 -1.2664 -0.4392
  486MOL0     H65571  11.265   8.724   8.705 -0.9063  0.7528 -0.6965
  486MOL0     H65572  11.101   9.066   8.391 -1.3852  3.7775  0.1453
  486MOL0     H65573  11.055   9.202   8.205  0.0357  0.8021 -2.3172
  486MOL0     H65574  11.111   9.356   7.876 -4.0022  0.5778  0.1800
  486MOL0     H65575  11.049   9.335   8.040  0.6674 -0.0708  2.6717
  486MOL0     H65576  11.228   9.568   7.964  2.1694 -4.5958 -1.9885
  486MOL0     H65577  11.047   9.562   7.950  0.1417  1.4204 -0.1646
  486MOL0     H65578  11.059   9.492   8.197  1.8523  1.7997  0.5453
  486MOL0     H65579  11.219   9.546   8.210 -1.0640 -1.1839  2.0789
  486MOL0     H65580  11.004   9.709   8.116  0.9589  1.3726 -0.9929
  486MOL0     H65581  11.170   9.774   8.123  1.7363 -0.4953  0.2996
  486MOL0     H65582  11.153   9.729   8.376  1.1880  1.5430 -1.1285
  486MOL0     H65583  10.978   9.707   8.350 -1.3951  1.7021 -0.1517
  486MOL0     H65584  11.125   9.960   8.267 -1.4561  1.3088 -1.1235
  486MOL0     H65585  10.963   9.924   8.234 -0.3665  0.6603  1.8547
  486MOL0     H65586  10.904   9.921   8.463 -0.2392  1.2603  2.0465
  486MOL0     H65587  10.983  10.072   8.400  3.0494 -1.3574 -5.2795
  486MOL0     H65588  11.088   9.896   8.618 -1.1732  0.2112 -0.9652
  486MOL0     H65589  11.203   9.992   8.519 -0.8251  2.4267  0.6252
  486MOL0     H65590  11.464   9.251   8.101  0.6891 -1.6219 -0.2765
  486MOL0     H65591  11.532   9.133   8.304  0.3738  1.0832 -0.9590
  486MOL0     H65592  11.564   9.024   8.619 -0.1496  0.0328 -1.0708
  486MOL0     H65593  11.684   8.937   8.818 -1.5213  3.2277  0.0355
  486MOL0     H65594  10.577   8.058   9.541 -4.3771 -4.0637  1.4080
  486MOL0     H65595  10.664   7.916   9.718  1.0420  1.4818 -0.4432
  486MOL0     H65596  10.805   7.806  10.083 -0.0442  1.7148  0.2763
  486MOL0     H65597  10.904   7.686  10.252  0.4255 -0.5910  2.9736
  486MOL0     H65598  10.991   7.683  10.472 -1.5292  0.0906 -0.6596
  486MOL0     H65599  10.981   7.536  10.387  1.4149 -3.9171  0.4572
  486MOL0     H65600  10.986   7.409  10.596  0.9772 -1.1932  1.4674
  486MOL0     H65601  10.949   7.551  10.695 -0.0418 -1.3256  1.0127
  486MOL0     H65602  11.177   7.508  10.728  1.4334  2.5883  0.4383
  486MOL0     H65603  11.153   7.655  10.622 -1.4825 -0.9595 -1.2975
  486MOL0     H65604  11.254   7.375  10.542  0.7026  0.1811 -2.0120
  486MOL0     H65605  11.226   7.513  10.430 -2.5625  0.0633  0.4820
  486MOL0     H65606  11.584   7.628  10.614  0.1222  0.6274 -5.2447
  486MOL0     H65607  10.547   7.693  10.489 -1.2457 -1.9191  0.1673
  486MOL0     H65608  10.348   7.853  10.375  2.2282 -0.7295  2.7340
  486MOL0     H65609  10.319   7.780  10.221  1.6897 -0.6690 -0.4630
  486MOL0     H65610  10.352   7.675  10.348 -1.9985  0.3121 -0.9565
  487MOL0     O65611   8.449  10.660   2.443 -0.0437  0.2155 -0.0323
  487MOL0     C65612   8.500  10.721   2.536 -0.4646  0.3498  0.3087
  487MOL0     O65613   8.614  10.799   2.523 -0.2996 -0.0233 -0.3746
  487MOL0     C65614   8.653  10.829   2.392  0.2581 -0.2150 -0.7035
  487MOL0     C65615   8.654  10.961   2.354 -0.3260  0.2665  0.1826
  487MOL0     C65616   8.696  10.996   2.225 -0.1426 -0.3584 -0.6671
  487MOL0     C65617   8.751  10.893   2.139  0.7510 -0.0250  0.1638
  487MOL0     O65618   8.810  10.906   2.016 -0.0465 -0.4143 -0.1962
  487MOL0     C65619   8.766  11.012   1.929 -0.1385 -0.1264 -0.4991
  487MOL0     C65620   8.769  10.945   1.794  0.1823 -0.4570 -0.3393
  487MOL0     C65621   8.702  11.023   1.678 -0.2017  0.2021 -0.2653
  487MOL0     C65622   8.773  11.160   1.660 -0.1914 -0.0887  1.2277
  487MOL0     C65623   8.724  11.220   1.523  0.0792 -0.5151 -0.0224
  487MOL0     C65624   8.794  11.351   1.481 -1.3072  0.3302  0.7603
  487MOL0     C65625   8.730  11.439   1.376 -0.3380 -0.5080 -0.5508
  487MOL0     C65626   8.616  11.530   1.427 -0.1248 -0.2145  0.1167
  487MOL0     N65627   8.604  11.652   1.344 -0.1439 -0.0095 -0.3132
  487MOL0     C65628   8.574  11.649   1.211  0.4241  0.9577 -0.2775
  487MOL0     C65629   8.597  11.777   1.186  0.0501  0.6138  0.6974
  487MOL0     C65630   8.563  11.845   1.059  0.5201  0.5113  0.6684
  487MOL0     C65631   8.448  11.779   0.984  0.2478 -0.3161  0.5095
  487MOL0     C65632   8.312  11.780   1.052 -0.2306 -0.0963  0.3897
  487MOL0     C65633   8.206  11.693   0.990  0.2945 -1.0753 -0.0172
  487MOL0     O65634   8.180  11.576   1.066 -0.9348  0.3566 -0.5130
  487MOL0     C65635   8.117  11.475   1.011  0.0949 -0.1584  0.6852
  487MOL0     C65636   8.103  11.363   1.105  0.5021 -0.2882  0.0214
  487MOL0     C65637   8.040  11.246   1.056 -0.0701 -0.0937  0.3834
  487MOL0     C65638   7.993  11.233   0.915 -1.3595  0.7260  0.5611
  487MOL0     C65639   7.931  11.101   0.869  0.1890 -0.3214  0.1070
  487MOL0     O65640   7.861  11.106   0.754 -0.0554  0.4602 -0.2739
  487MOL0     C65641   7.796  10.992   0.715  0.0202 -0.6497 -0.0510
  487MOL0     C65642   7.864  10.920   0.614  0.5723 -0.5608 -0.1608
  487MOL0     C65643   7.814  10.796   0.573 -0.8903 -1.2703 -0.4044
  487MOL0     C65644   7.700  10.730   0.629 -0.4035 -0.8269  0.5199
  487MOL0     O65645   7.641  10.615   0.583  0.1101  0.0880  0.3336
  487MOL0     C65646   7.715  10.512   0.516  0.1865 -0.0433  0.7350
  487MOL0     C65647   7.647  10.381   0.500  0.4737  0.9530 -0.0723
  487MOL0     C65648   7.681  10.283   0.603 -0.7867 -0.3710  0.2433
  487MOL0     C65649   7.612  10.154   0.576  0.1821  0.4423 -0.7986
  487MOL0     C65650   7.638  10.047   0.684 -0.4243 -0.6227  1.4742
  487MOL0     C65651   7.537   9.925   0.664 -0.0075  0.3792  0.2626
  487MOL0     C65652   7.571   9.822   0.775  0.0580 -0.3168 -0.1905
  487MOL0     C65653   7.490   9.697   0.760 -0.2502  0.0455 -0.3193
  487MOL0    Cl65654   7.322   9.755   0.792 -0.7877  0.2812  0.6980
  487MOL0     C65655   7.631  10.809   0.721 -0.2632 -0.3227 -0.6112
  487MOL0     C65656   7.678  10.933   0.768 -0.2563  0.0338 -0.5913
  487MOL0     O65657   7.973  10.997   0.922 -0.3586  0.1411  0.3570
  487MOL0     C65658   8.007  11.349   0.834  0.5017 -0.3757 -0.2172
  487MOL0     C65659   8.069  11.466   0.881 -0.6329 -0.0278  0.9968
  487MOL0     N65660   8.646  11.851   1.288 -0.1936  0.0756 -0.7425
  487MOL0     N65661   8.648  11.772   1.389  0.1715 -0.5466  0.1588
  487MOL0     C65662   8.756  10.759   2.184  0.0368 -0.0430  0.2066
  487MOL0     C65663   8.697  10.730   2.305  0.1615 -0.2967  0.6171
  487MOL0     C65664   8.422  10.711   2.664 -0.4329  0.2369  0.8106
  487MOL0     C65665   8.479  10.755   2.783 -0.4503  0.4281  0.6653
  487MOL0     C65666   8.422  10.776   2.903  0.9858 -0.2375 -0.3596
  487MOL0     C65667   8.289  10.735   2.918  0.5240 -0.5759 -0.1065
  487MOL0     O65668   8.220  10.765   3.040 -0.0423  0.6618 -0.7758
  487MOL0     C65669   8.082  10.720   3.061  0.0678 -0.4782  0.2360
  487MOL0     C65670   8.040  10.767   3.202 -0.3366 -0.1560 -0.7923
  487MOL0     C65671   8.079  10.670   3.307 -0.0716 -0.1077  0.2974
  487MOL0     C65672   8.081  10.736   3.455 -0.0192  0.9106  0.2421
  487MOL0     C65673   7.979  10.839   3.476 -0.3634  0.5584 -0.8295
  487MOL0     C65674   7.898  10.924   3.483 -0.1951 -0.8312  0.1495
  487MOL0     C65675   8.229  10.676   2.809  0.2819 -1.3791  0.5501
  487MOL0     C65676   8.295  10.663   2.685 -0.0864  0.7143 -0.8442
  487MOL0     C65677   8.216  10.591   2.584 -0.6942  0.1763 -0.0765
  487MOL0     H65678   8.610  11.035   2.420 -3.6199 -1.4239  0.1170
  487MOL0     H65679   8.703  11.099   2.191 -1.0050  1.3366  3.7042
  487MOL0     H65680   8.662  11.041   1.948  0.5112  1.9873  0.1524
  487MOL0     H65681   8.832  11.100   1.926  0.5638 -0.6544 -3.2089
  487MOL0     H65682   8.715  10.851   1.808  1.9137 -1.2641  1.3901
  487MOL0     H65683   8.871  10.927   1.759  0.1887  3.1890 -2.7249
  487MOL0     H65684   8.598  11.041   1.708  0.2840 -0.2914  1.9128
  487MOL0     H65685   8.702  10.973   1.582 -0.7571  1.3684 -0.9015
  487MOL0     H65686   8.766  11.235   1.739 -1.0274  2.9107 -1.4813
  487MOL0     H65687   8.879  11.147   1.637 -0.8402  1.3326 -3.5575
  487MOL0     H65688   8.758  11.150   1.446  1.7026  0.6111 -0.3799
  487MOL0     H65689   8.616  11.237   1.514  0.3960  1.2430 -0.9465
  487MOL0     H65690   8.830  11.400   1.571 -1.5014 -0.5291  1.3258
  487MOL0     H65691   8.888  11.315   1.438 -2.9296 -1.6362 -1.4141
  487MOL0     H65692   8.708  11.378   1.287 -0.9370  1.3839 -1.7760
  487MOL0     H65693   8.805  11.502   1.328 -0.6036 -1.5465 -2.4258
  487MOL0     H65694   8.518  11.482   1.421 -0.1246 -0.1950 -0.0533
  487MOL0     H65695   8.628  11.558   1.532  0.4614  0.0006 -0.0042
  487MOL0     H65696   8.540  11.569   1.147 -1.3918  1.9908 -0.7010
  487MOL0     H65697   8.532  11.948   1.075 -4.1558 -0.5948  0.1810
  487MOL0     H65698   8.653  11.835   0.998 -0.0997 -3.2362  0.1074
  487MOL0     H65699   8.433  11.842   0.896  2.6268 -0.6350 -0.1844
  487MOL0     H65700   8.481  11.684   0.940  1.9782  1.0671 -1.3395
  487MOL0     H65701   8.273  11.882   1.058  0.8526  0.2834  1.5415
  487MOL0     H65702   8.332  11.754   1.157 -3.8182 -0.1776  1.1758
  487MOL0     H65703   8.243  11.673   0.890  1.4279 -1.9041  0.5414
  487MOL0     H65704   8.115  11.752   0.978  1.3697  0.6606 -0.0232
  487MOL0     H65705   8.131  11.370   1.210  1.1211  0.1347 -0.1687
  487MOL0     H65706   8.046  11.156   1.116 -1.5907 -3.3841 -3.8923
  487MOL0     H65707   7.936  10.987   0.570  1.9160 -0.8685  1.4843
  487MOL0     H65708   7.859  10.749   0.486 -1.6655 -1.1318 -0.8904
  487MOL0     H65709   7.745  10.556   0.421  2.7745 -2.4339  0.2993
  487MOL0     H65710   7.811  10.504   0.568 -1.0126  2.8034  3.7374
  487MOL0     H65711   7.538  10.390   0.492  0.2570 -1.6671 -0.9738
  487MOL0     H65712   7.672  10.339   0.402 -0.4595  2.6949 -1.1038
  487MOL0     H65713   7.788  10.263   0.601 -1.1606 -2.5478 -0.7598
  487MOL0     H65714   7.651  10.334   0.695 -1.0175  0.9264 -0.5287
  487MOL0     H65715   7.646  10.123   0.477  2.4017  1.7774 -0.5276
  487MOL0     H65716   7.507  10.184   0.568 -0.4983 -1.8459 -0.9740
  487MOL0     H65717   7.633  10.078   0.789 -0.9336 -2.8001  2.1494
  487MOL0     H65718   7.740  10.014   0.664 -0.5544  0.5369 -1.6055
  487MOL0     H65719   7.435   9.963   0.673  0.6527  2.0354  1.1529
  487MOL0     H65720   7.567   9.881   0.568  3.0295  1.1977  0.7400
  487MOL0     H65721   7.540   9.875   0.866 -0.9574  1.5933 -1.5782
  487MOL0     H65722   7.677   9.796   0.775  1.2710  3.7528  1.6484
  487MOL0     H65723   7.492   9.658   0.658  1.1402 -1.5665  0.2826
  487MOL0     H65724   7.515   9.610   0.822  0.9978 -0.7369 -1.8670
  487MOL0     H65725   7.541  10.765   0.762 -0.0516  0.2358  0.4898
  487MOL0     H65726   7.620  10.981   0.847  3.0811  0.4466  1.8220
  487MOL0     H65727   7.965  11.346   0.734 -3.0246 -1.6425  1.1436
  487MOL0     H65728   8.089  11.542   0.806  0.4966  0.4406  1.7361
  487MOL0     H65729   8.794  10.682   2.118 -0.9063 -1.4184  1.2262
  487MOL0     H65730   8.683  10.629   2.342  1.6200 -0.4493  0.8104
  487MOL0     H65731   8.580  10.793   2.774 -1.0450  1.9030 -0.1778
  487MOL0     H65732   8.466  10.819   2.992 -4.2426  1.4593  1.8171
  487MOL0     H65733   8.078  10.612   3.048  0.1329 -0.3897 -0.6148
  487MOL0     H65734   8.019  10.771   2.987  2.8158  0.2730 -1.7509
  487MOL0     H65735   7.931  10.776   3.205 -0.3928 -0.0224 -2.4861
  487MOL0     H65736   8.082  10.867   3.215  0.9634 -0.4403 -2.4318
  487MOL0     H65737   8.173  10.616   3.291  0.0652 -0.3816  1.8186
  487MOL0     H65738   7.997  10.597   3.295 -2.6848  2.9543 -2.4181
  487MOL0     H65739   8.066  10.666   3.538  2.4010 -0.7575 -0.6298
  487MOL0     H65740   8.175  10.790   3.464  0.7584 -0.4577  0.5396
  487MOL0     H65741   7.818  10.994   3.490 -1.1772 -2.0772  3.2915
  487MOL0     H65742   8.124  10.653   2.820  0.6530 -4.2150 -1.0799
  487MOL0     H65743   8.184  10.642   2.493 -1.5747 -2.1919 -1.1607
  487MOL0     H65744   8.266  10.502   2.546  1.8953  0.1493  2.9276
  487MOL0     H65745   8.127  10.553   2.636 -0.6440  2.7951  2.1905
  488MOL0     O65746   1.989   8.179  10.642  0.4295 -0.0126  0.3927
  488MOL0     C65747   2.001   8.305  10.624  0.1830  0.5732  0.5740
  488MOL0     O65748   1.895   8.382  10.578  0.0849 -0.4705  0.0447
  488MOL0     C65749   1.789   8.318  10.515  0.9482  0.1994  0.6239
  488MOL0     C65750   1.767   8.195  10.452 -0.3547 -0.8686  0.5171
  488MOL0     C65751   1.660   8.174  10.372 -0.6743 -0.2730  0.7627
  488MOL0     C65752   1.550   8.258  10.375 -1.4187  0.9173  0.2641
  488MOL0     O65753   1.439   8.229  10.310  0.5680 -0.8109  0.1088
  488MOL0     C65754   1.332   8.186  10.393  0.3701  0.3471  0.0286
  488MOL0     C65755   1.209   8.134  10.307 -0.0903 -0.4308  0.0897
  488MOL0     C65756   1.256   8.027  10.214  0.5849 -0.0781  0.3405
  488MOL0     C65757   1.129   7.947  10.165 -0.9932 -0.2678 -0.4586
  488MOL0     C65758   1.037   8.036  10.083  0.0708  0.6348  0.1275
  488MOL0     C65759   0.958   7.962   9.980 -0.0356  0.2230  0.4851
  488MOL0     C65760   0.874   8.053   9.903 -0.1903  0.3692 -0.3556
  488MOL0     C65761   0.811   8.007   9.774 -0.9816  0.8207  0.4913
  488MOL0     N65762   0.695   7.911   9.776  0.2230 -1.1497 -0.6142
  488MOL0     C65763   0.651   7.841   9.889  0.5275  0.3590 -0.5738
  488MOL0     C65764   0.548   7.763   9.844 -0.1116  0.0184 -0.6264
  488MOL0     C65765   0.456   7.679   9.927  0.0250 -0.1991 -0.5414
  488MOL0     C65766   0.464   7.524   9.936  0.2738 -0.1609  0.1178
  488MOL0     C65767   0.396   7.459   9.818  0.5663 -1.0609  0.2203
  488MOL0     C65768   0.350   7.314   9.855  0.0246 -0.1213  0.3190
  488MOL0     O65769   0.459   7.248   9.924 -0.4846  0.3155  0.0458
  488MOL0     C65770   0.454   7.113   9.928 -0.2540 -0.1633  0.3701
  488MOL0     C65771   0.381   7.052  10.032 -0.2053  0.1385  0.8806
  488MOL0     C65772   0.369   6.909  10.035 -0.9180  0.3743  0.5876
  488MOL0     C65773   0.441   6.831   9.936  1.0103  0.2673 -0.4656
  488MOL0     C65774   0.437   6.683   9.943 -1.2990 -0.4310 -0.1089
  488MOL0     O65775   0.476   6.608   9.837  0.2595 -0.0086  0.7183
  488MOL0     C65776   0.473   6.478   9.845 -0.3599  0.8757 -1.2712
  488MOL0     C65777   0.364   6.402   9.888  0.7498  0.2985  0.5812
  488MOL0     C65778   0.369   6.263   9.871 -0.3492 -0.0733 -0.5790
  488MOL0     C65779   0.492   6.188   9.835  0.9901 -0.1003  0.4614
  488MOL0     O65780   0.510   6.059   9.850 -0.5533  0.4236 -0.0850
  488MOL0     C65781   0.404   5.968   9.803 -0.1599 -0.6391 -0.6932
  488MOL0     C65782   0.460   5.824   9.773 -0.1256 -0.3833  0.2540
  488MOL0     C65783   0.511   5.739   9.899  1.1502  0.4498  0.2431
  488MOL0     C65784   0.389   5.697   9.994  0.3114  0.5951 -0.0218
  488MOL0     C65785   0.426   5.579  10.092 -0.0673  0.5738 -0.3294
  488MOL0     C65786   0.304   5.533  10.164 -0.7011  0.5630  0.2490
  488MOL0     C65787   0.356   5.464  10.287 -0.3289  0.4153  0.4869
  488MOL0     C65788   0.394   5.567  10.397 -0.1723  1.1848 -0.0995
  488MOL0    Cl65789   0.488   5.459  10.507  0.4588 -0.1024 -0.0875
  488MOL0     C65790   0.603   6.268   9.800  0.2609  0.5568 -0.1128
  488MOL0     C65791   0.592   6.411   9.806  0.7225  1.5182  0.8122
  488MOL0     O65792   0.429   6.651  10.059  0.1522  0.0867  0.5902
  488MOL0     C65793   0.497   6.893   9.826 -0.0008  1.3106  0.1687
  488MOL0     C65794   0.504   7.033   9.820  0.2958 -0.3336  0.0369
  488MOL0     N65795   0.531   7.790   9.712 -0.6081 -0.2221 -0.1833
  488MOL0     N65796   0.617   7.879   9.672  0.3030 -0.3127  0.3516
  488MOL0     C65797   1.554   8.377  10.451 -0.1923 -0.7927  0.5124
  488MOL0     C65798   1.677   8.400  10.521  0.1288  0.0224  0.2266
  488MOL0     C65799   2.121   8.364  10.681  2.1283  0.2984 -0.2353
  488MOL0     C65800   2.164   8.313  10.807 -0.3510 -0.7607  0.9532
  488MOL0     C65801   2.279   8.366  10.865  0.2516  0.1317  0.0738
  488MOL0     C65802   2.339   8.482  10.820 -0.0893  0.6798 -1.1526
  488MOL0     O65803   2.437   8.537  10.904 -0.7342  0.9583 -0.2782
  488MOL0     C65804   2.513   8.647  10.853  0.9295 -0.2175  0.4890
  488MOL0     C65805   2.631   8.683  10.946 -0.2661 -0.2223 -0.1252
  488MOL0     C65806   2.579   8.680  11.088  0.6856  0.6747  0.1106
  488MOL0     C65807   2.685   8.712  11.194  0.4690 -0.6935  0.4121
  488MOL0     C65808   2.625   8.730  11.331 -0.5777 -0.0104  0.5020
  488MOL0     C65809   2.578   8.742  11.440  0.6211 -0.2354  0.4885
  488MOL0     C65810   2.290   8.543  10.708  0.3970  1.2637  0.6348
  488MOL0     C65811   2.184   8.481  10.634 -0.4141 -0.0360  0.4592
  488MOL0     C65812   2.147   8.560  10.507  0.2879  0.3282 -0.4577
  488MOL0     H65813   1.855   8.132  10.440  2.7214  3.0747  0.2023
  488MOL0     H65814   1.660   8.090  10.303  3.0352 -0.2788  0.5594
  488MOL0     H65815   1.362   8.099  10.453 -0.8011 -0.5698 -0.6720
  488MOL0     H65816   1.286   8.259  10.460  1.0135 -1.3529  2.4745
  488MOL0     H65817   1.170   8.223  10.256  1.1094 -0.8740 -1.6936
  488MOL0     H65818   1.139   8.094  10.380  0.2919  1.3229  1.4820
  488MOL0     H65819   1.327   7.964  10.269  0.7242  1.4612  2.0179
  488MOL0     H65820   1.304   8.063  10.122 -0.8006 -1.8483 -1.1638
  488MOL0     H65821   1.162   7.864  10.101 -0.2530 -0.3621  0.0281
  488MOL0     H65822   1.070   7.894  10.240 -2.6379 -1.8871 -2.7505
  488MOL0     H65823   0.984   8.099  10.154 -0.6241 -0.1948  0.3672
  488MOL0     H65824   1.109   8.101  10.032 -0.2037  1.6564  1.0271
  488MOL0     H65825   1.028   7.920   9.907  2.6644  1.3049  2.2874
  488MOL0     H65826   0.887   7.890  10.023 -1.2632  1.3539  0.4207
  488MOL0     H65827   0.939   8.139   9.881 -0.0086  0.4626  0.4821
  488MOL0     H65828   0.791   8.098   9.959  0.7231 -0.6395  1.9637
  488MOL0     H65829   0.772   8.094   9.720  2.3459  1.3297 -1.3677
  488MOL0     H65830   0.880   7.957   9.705 -1.7754  2.5869 -1.7034
  488MOL0     H65831   0.662   7.865   9.995 -1.6171  0.0871 -0.2534
  488MOL0     H65832   0.460   7.720  10.028  0.4639 -0.4018 -0.4743
  488MOL0     H65833   0.354   7.697   9.891  0.2013  1.7191 -0.1908
  488MOL0     H65834   0.569   7.495   9.931  1.3613  3.3148 -0.4447
  488MOL0     H65835   0.407   7.495  10.025 -0.5230 -0.1245 -0.3689
  488MOL0     H65836   0.468   7.453   9.737 -0.2469 -0.9862 -0.5219
  488MOL0     H65837   0.314   7.513   9.769  0.5789 -3.4857 -2.7552
  488MOL0     H65838   0.320   7.274   9.757  0.7332 -2.1985  0.9161
  488MOL0     H65839   0.261   7.323   9.916 -2.3131  1.9022 -3.0268
  488MOL0     H65840   0.354   7.115  10.116  1.3051  0.9809  0.7848
  488MOL0     H65841   0.326   6.860  10.122 -0.2332  0.3739  0.9297
  488MOL0     H65842   0.276   6.449   9.931 -0.4420 -0.4614 -0.9526
  488MOL0     H65843   0.288   6.205   9.913  1.4202 -1.6924  0.7740
  488MOL0     H65844   0.328   5.980   9.880  0.1747  0.8522 -0.5525
  488MOL0     H65845   0.371   6.006   9.705 -0.4680  0.5996 -0.1284
  488MOL0     H65846   0.380   5.782   9.712 -1.9515  2.6663  0.3553
  488MOL0     H65847   0.541   5.832   9.699  0.2137 -2.0509  0.3995
  488MOL0     H65848   0.569   5.652   9.866 -0.1903 -0.3693 -0.0252
  488MOL0     H65849   0.576   5.792   9.969  1.0558  2.1152 -0.8709
  488MOL0     H65850   0.306   5.669   9.928  0.8168 -0.3086 -0.2939
  488MOL0     H65851   0.356   5.780  10.056  3.5950 -0.2966  3.2455
  488MOL0     H65852   0.497   5.617  10.166 -0.1354 -0.6373  0.3872
  488MOL0     H65853   0.469   5.493  10.039  0.8915  0.6388  0.3170
  488MOL0     H65854   0.233   5.606  10.204 -0.9766  0.1134  0.5893
  488MOL0     H65855   0.239   5.477  10.096  0.2010 -0.9535  0.5851
  488MOL0     H65856   0.424   5.382  10.259 -4.3168 -3.4577  1.1356
  488MOL0     H65857   0.282   5.396  10.329  0.0994 -0.2371  0.2192
  488MOL0     H65858   0.454   5.650  10.359  0.2816  0.8350 -0.1560
  488MOL0     H65859   0.302   5.604  10.444  0.1217  2.3720 -0.4280
  488MOL0     H65860   0.694   6.217   9.772  0.0067  0.7127 -1.2874
  488MOL0     H65861   0.684   6.465   9.784  1.6947 -0.5163 -0.4264
  488MOL0     H65862   0.543   6.848   9.739  2.0538  0.5497  1.5489
  488MOL0     H65863   0.555   7.085   9.740 -1.8427 -1.9162 -2.5463
  488MOL0     H65864   1.468   8.442  10.463  1.3878  1.1488  2.2378
  488MOL0     H65865   1.692   8.494  10.574  0.9888 -1.7205  3.3000
  488MOL0     H65866   2.120   8.229  10.860 -0.2895 -2.7732 -1.9445
  488MOL0     H65867   2.314   8.320  10.957 -2.9572  0.8927  1.8316
  488MOL0     H65868   2.458   8.742  10.848 -1.1538 -1.4029  0.0058
  488MOL0     H65869   2.544   8.628  10.750  0.7378 -0.6065  0.5030
  488MOL0     H65870   2.666   8.785  10.927 -0.7224  0.0073  0.2691
  488MOL0     H65871   2.720   8.621  10.931  1.8379  2.3845  0.8532
  488MOL0     H65872   2.554   8.576  11.110  2.1596  0.0323 -1.0423
  488MOL0     H65873   2.484   8.731  11.103 -0.2214 -0.5574 -1.2473
  488MOL0     H65874   2.750   8.625  11.198 -0.0231 -1.0389  1.3279
  488MOL0     H65875   2.736   8.808  11.178 -3.1018  1.1295 -1.2302
  488MOL0     H65876   2.536   8.751  11.538 -1.3094 -4.2594  0.2576
  488MOL0     H65877   2.324   8.640  10.675 -2.1264  2.1261  0.3049
  488MOL0     H65878   2.073   8.518  10.438  1.6308  3.1870 -3.9362
  488MOL0     H65879   2.107   8.656  10.542 -0.4549 -0.3398  0.5906
  488MOL0     H65880   2.243   8.578  10.457  1.3202 -1.8148  0.6069
  489MOL0     O65881   7.419   2.297   9.262 -0.2780 -0.5918 -0.1757
  489MOL0     C65882   7.349   2.383   9.320 -0.1364 -0.7785  0.8020
  489MOL0     O65883   7.283   2.372   9.439 -0.1610  0.2707 -0.1499
  489MOL0     C65884   7.252   2.252   9.484  0.0431  0.1025 -1.1530
  489MOL0     C65885   7.301   2.120   9.455 -0.3639 -0.7404  0.0788
  489MOL0     C65886   7.261   2.004   9.523  0.0218  0.5713  0.4396
  489MOL0     C65887   7.163   2.010   9.621 -0.2429  1.0160  0.8821
  489MOL0     O65888   7.101   1.897   9.664  0.0208  0.4419  0.4208
  489MOL0     C65889   7.112   1.767   9.610  1.0647  0.3865  0.0817
  489MOL0     C65890   6.982   1.677   9.617  0.2047 -1.0009  0.6603
  489MOL0     C65891   6.970   1.631   9.757  0.8478  0.0555 -0.4996
  489MOL0     C65892   7.025   1.483   9.780 -0.3129  1.0003 -0.2120
  489MOL0     C65893   7.054   1.447   9.928  0.2573  0.1843  0.3259
  489MOL0     C65894   7.162   1.333   9.937 -0.5638  0.4126  0.8653
  489MOL0     C65895   7.168   1.271  10.071  0.0608  0.3922 -0.2941
  489MOL0     C65896   7.231   1.130  10.068  0.6339 -0.3855 -0.6587
  489MOL0     N65897   7.369   1.141  10.036  0.1439  0.8639  0.7333
  489MOL0     C65898   7.425   1.096   9.914 -0.1731  1.1086  0.3128
  489MOL0     C65899   7.552   1.063   9.951 -0.5300  0.5809  0.0617
  489MOL0     C65900   7.668   1.020   9.865 -0.8488  0.4598  0.8373
  489MOL0     C65901   7.785   1.121   9.863  0.7836  0.4789  0.8028
  489MOL0     C65902   7.789   1.248   9.768 -0.2516  0.5984 -0.3222
  489MOL0     C65903   7.789   1.211   9.614 -0.6117 -0.0743 -0.6558
  489MOL0     O65904   7.925   1.225   9.564  0.1849  0.0900 -0.3004
  489MOL0     C65905   7.972   1.356   9.554  0.4303 -0.3130  0.1253
  489MOL0     C65906   7.908   1.477   9.573  0.0356 -0.6595  0.1362
  489MOL0     C65907   7.971   1.602   9.548  1.0617  0.1690 -0.9722
  489MOL0     C65908   8.106   1.615   9.503 -0.6384 -0.4060 -0.7926
  489MOL0     C65909   8.172   1.737   9.485  0.3959 -0.5431 -0.5618
  489MOL0     O65910   8.111   1.840   9.549  0.0729 -0.4894  0.7834
  489MOL0     C65911   8.161   1.960   9.515  0.5026  0.8802  0.2510
  489MOL0     C65912   8.071   2.066   9.508 -0.3253  0.4115  1.2922
  489MOL0     C65913   8.109   2.202   9.499  0.3590 -0.5453 -0.0754
  489MOL0     C65914   8.249   2.238   9.490 -0.2467 -0.7862  0.2859
  489MOL0     O65915   8.289   2.372   9.464  0.5380  0.2578 -0.2073
  489MOL0     C65916   8.190   2.462   9.405 -0.0142 -0.9362 -0.3878
  489MOL0     C65917   8.268   2.586   9.356 -0.7132  1.0466 -0.7232
  489MOL0     C65918   8.189   2.719   9.363  0.5842  0.4277 -0.1055
  489MOL0     C65919   8.242   2.839   9.275  0.1920  0.1671 -0.1511
  489MOL0     C65920   8.139   2.946   9.277 -0.8818 -0.7496 -0.3679
  489MOL0     C65921   8.160   3.048   9.165 -0.0877 -0.2520 -0.0802
  489MOL0     C65922   8.040   3.144   9.151  0.0651  0.4895 -0.8691
  489MOL0     C65923   8.067   3.249   9.040 -0.3716  0.4462 -0.3219
  489MOL0    Cl65924   8.209   3.359   9.079 -0.0756 -0.3278 -0.5298
  489MOL0     C65925   8.334   2.132   9.519  0.0782 -0.9071 -0.4115
  489MOL0     C65926   8.294   2.002   9.535  0.5070 -0.1618 -0.2009
  489MOL0     O65927   8.272   1.744   9.417 -0.0338  0.5690 -0.2614
  489MOL0     C65928   8.171   1.488   9.488  0.3617 -0.2462 -0.0084
  489MOL0     C65929   8.107   1.363   9.519  0.0955 -0.5524  0.0331
  489MOL0     N65930   7.575   1.081  10.084  1.2347  0.1203 -0.2352
  489MOL0     N65931   7.461   1.124  10.132 -0.2080 -0.6902  0.5191
  489MOL0     C65932   7.107   2.128   9.659  0.4424 -0.6816  0.4877
  489MOL0     C65933   7.152   2.248   9.590  0.2734 -0.7033 -0.9824
  489MOL0     C65934   7.330   2.512   9.250 -0.8023 -0.0890  0.0482
  489MOL0     C65935   7.430   2.568   9.170  0.3776 -1.1213  0.3795
  489MOL0     C65936   7.413   2.681   9.101  1.0096 -0.6872  0.6000
  489MOL0     C65937   7.290   2.751   9.102 -0.4081  1.1849 -0.1589
  489MOL0     O65938   7.293   2.870   9.032 -0.8286 -0.5055 -0.5417
  489MOL0     C65939   7.175   2.936   9.015  0.4512  0.2949 -0.4630
  489MOL0     C65940   7.209   3.076   8.999 -0.9321  0.0779  0.1473
  489MOL0     C65941   7.272   3.094   8.863 -0.1834 -0.7412  0.6625
  489MOL0     C65942   7.296   3.239   8.834 -0.0266 -0.5505 -0.0162
  489MOL0     C65943   7.375   3.251   8.713  0.3665 -0.7309  0.3002
  489MOL0     C65944   7.441   3.255   8.605  0.4337 -0.3853  0.1815
  489MOL0     C65945   7.186   2.696   9.177 -0.3391  0.2229  1.2240
  489MOL0     C65946   7.201   2.574   9.244 -0.5408  0.7683  0.1501
  489MOL0     C65947   7.083   2.523   9.319  0.8095 -0.1640 -0.1730
  489MOL0     H65948   7.365   2.095   9.371 -0.3318 -1.5101  0.3222
  489MOL0     H65949   7.320   1.915   9.501 -1.4772  0.1139 -2.1459
  489MOL0     H65950   7.145   1.772   9.506  4.7731 -4.7233  0.6259
  489MOL0     H65951   7.192   1.711   9.659 -0.1395 -1.6335 -0.1750
  489MOL0     H65952   7.001   1.596   9.546  1.4791  0.8378 -1.2354
  489MOL0     H65953   6.903   1.744   9.583  0.7660 -1.3332 -1.4611
  489MOL0     H65954   6.868   1.624   9.794  0.1140 -2.1127 -2.6781
  489MOL0     H65955   7.029   1.695   9.824  0.6747  1.9850 -2.0805
  489MOL0     H65956   6.958   1.405   9.743 -1.7063  1.9213  0.3112
  489MOL0     H65957   7.122   1.478   9.731 -0.5316 -4.5277 -0.7505
  489MOL0     H65958   7.080   1.535   9.988  0.1152  0.0442  0.5958
  489MOL0     H65959   6.959   1.415   9.972 -0.6577  1.2551 -0.7877
  489MOL0     H65960   7.121   1.261   9.866 -1.2714  2.0478 -0.4214
  489MOL0     H65961   7.260   1.367   9.901 -0.4896  2.0087  2.4507
  489MOL0     H65962   7.068   1.255  10.110  0.0513  0.3477 -0.3356
  489MOL0     H65963   7.221   1.332  10.144  0.1127 -1.7160  1.5407
  489MOL0     H65964   7.225   1.086  10.168  2.4587  1.8906  0.5497
  489MOL0     H65965   7.184   1.060   9.998 -0.1398 -0.1852 -0.3574
  489MOL0     H65966   7.373   1.099   9.819  2.3005  1.6250 -1.1183
  489MOL0     H65967   7.711   0.931   9.910  2.7471  1.8685  0.4765
  489MOL0     H65968   7.634   0.989   9.765 -1.9118  2.4631  0.5271
  489MOL0     H65969   7.800   1.166   9.962  0.9653  0.5675  0.7353
  489MOL0     H65970   7.873   1.061   9.838  0.9859  0.8595  0.5910
  489MOL0     H65971   7.868   1.318   9.797  2.5309 -2.2342 -0.6065
  489MOL0     H65972   7.687   1.282   9.791 -0.4515  0.6942 -1.3000
  489MOL0     H65973   7.730   1.281   9.554 -0.2943 -2.2985 -3.8196
  489MOL0     H65974   7.745   1.110   9.612 -0.0951 -0.2923 -1.7821
  489MOL0     H65975   7.803   1.490   9.599 -0.3196 -0.7125 -1.1912
  489MOL0     H65976   7.914   1.694   9.557  0.8843 -0.0862  1.3192
  489MOL0     H65977   7.965   2.048   9.506 -0.4012  0.7474 -1.1387
  489MOL0     H65978   8.025   2.271   9.488  0.1055 -0.8943 -0.3586
  489MOL0     H65979   8.141   2.409   9.323 -0.4893 -3.0094  1.1701
  489MOL0     H65980   8.115   2.500   9.475 -0.4601 -2.8345  0.2279
  489MOL0     H65981   8.356   2.590   9.420 -0.7083 -3.0946 -0.1840
  489MOL0     H65982   8.297   2.563   9.253  1.7002  0.9905 -0.0919
  489MOL0     H65983   8.086   2.690   9.339  1.1392 -1.9956  0.1958
  489MOL0     H65984   8.199   2.751   9.467 -0.8096  0.3099  0.0866
  489MOL0     H65985   8.263   2.805   9.173 -1.8718 -0.8268 -0.2986
  489MOL0     H65986   8.337   2.882   9.308 -0.3077 -0.2220  1.9227
  489MOL0     H65987   8.144   3.010   9.366  1.2903  1.7970 -2.1678
  489MOL0     H65988   8.039   2.902   9.273 -1.4768  0.4498  0.6418
  489MOL0     H65989   8.253   3.099   9.191 -1.2147  0.0971  4.0219
  489MOL0     H65990   8.178   2.996   9.071 -0.9890 -1.8575  0.5899
  489MOL0     H65991   8.018   3.195   9.245 -2.2723 -1.4315 -0.2974
  489MOL0     H65992   7.948   3.090   9.130  0.1216  0.2120 -0.3940
  489MOL0     H65993   8.089   3.199   8.945 -0.0801  0.2220 -0.1376
  489MOL0     H65994   7.979   3.313   9.026 -0.1634  0.7327 -0.3452
  489MOL0     H65995   8.440   2.157   9.525 -0.0291 -0.3717 -0.6661
  489MOL0     H65996   8.368   1.935   9.577  2.7265  0.1169 -3.3007
  489MOL0     H65997   8.271   1.478   9.445 -1.0562  0.3238 -3.8493
  489MOL0     H65998   8.146   1.267   9.489  0.1882  0.0746 -2.0205
  489MOL0     H65999   7.035   2.131   9.740 -0.1579 -0.0516 -0.0636
  489MOL0     H66000   7.105   2.332   9.639  2.2131 -1.3120  2.1490
  489MOL0     H66001   7.523   2.512   9.164 -1.5181 -4.7095  1.4023
  489MOL0     H66002   7.496   2.732   9.053 -0.9200  2.0450 -0.0663
  489MOL0     H66003   7.110   2.939   9.103  1.6847  1.6614  0.4537
  489MOL0     H66004   7.117   2.903   8.929 -1.0721 -0.4716  0.8064
  489MOL0     H66005   7.288   3.099   9.071 -0.9949  2.1869 -0.3711
  489MOL0     H66006   7.127   3.148   9.013 -1.0770 -0.0324 -0.1347
  489MOL0     H66007   7.209   3.056   8.782 -1.9078 -4.3239  3.4304
  489MOL0     H66008   7.372   3.050   8.867 -0.5697 -1.5856  1.3344
  489MOL0     H66009   7.209   3.305   8.821  0.0640  0.0600  2.1224
  489MOL0     H66010   7.344   3.292   8.917  0.4466 -2.2651  0.8548
  489MOL0     H66011   7.501   3.254   8.516 -0.2263 -0.2029 -0.2766
  489MOL0     H66012   7.090   2.746   9.177 -0.5931 -0.2582  1.8345
  489MOL0     H66013   7.075   2.416   9.299  1.7888 -0.0691 -1.1685
  489MOL0     H66014   7.086   2.535   9.428  3.9920 -1.1681 -0.0665
  489MOL0     H66015   6.997   2.573   9.272  1.5487  1.8326  0.4920
  490MOL0     O66016   1.268   9.566   2.550  0.1124 -0.0028 -0.2967
  490MOL0     C66017   1.227   9.579   2.667 -0.8268  1.4364 -0.0793
  490MOL0     O66018   1.302   9.629   2.774  0.5104 -0.3717  0.8695
  490MOL0     C66019   1.420   9.691   2.751  0.5599 -0.1907 -0.2812
  490MOL0     C66020   1.448   9.818   2.796 -0.6751 -0.0628 -0.0063
  490MOL0     C66021   1.575   9.882   2.791  0.7474  0.5591 -0.0315
  490MOL0     C66022   1.689   9.805   2.749 -0.2821 -0.3561 -0.5615
  490MOL0     O66023   1.806   9.873   2.756  0.0761 -0.1124  0.5840
  490MOL0     C66024   1.931   9.808   2.723  0.2217 -0.4297  0.4642
  490MOL0     C66025   2.028   9.806   2.839 -0.5273 -0.1607 -0.2823
  490MOL0     C66026   2.071   9.944   2.888  0.3573 -0.7513 -0.4335
  490MOL0     C66027   2.152   9.946   3.014  0.6178 -0.3612 -0.4196
  490MOL0     C66028   2.265  10.051   3.012 -0.0194  0.4583  0.6222
  490MOL0     C66029   2.201  10.183   3.003 -0.0920 -0.7184 -0.2658
  490MOL0     C66030   2.309  10.301   2.983  0.0149 -0.2230  0.4004
  490MOL0     C66031   2.407  10.320   3.106 -0.1085 -0.5823 -0.1483
  490MOL0     N66032   2.344  10.395   3.218  0.2566 -0.1955 -0.5782
  490MOL0     C66033   2.322  10.529   3.238  0.1865  0.7583  0.7455
  490MOL0     C66034   2.263  10.538   3.362 -0.3121 -0.3460 -0.7585
  490MOL0     C66035   2.231  10.678   3.413  0.4299  0.6455 -1.1498
  490MOL0     C66036   2.322  10.716   3.528  0.6247 -0.2135 -0.3668
  490MOL0     C66037   2.350  10.868   3.538  0.5298 -0.2811 -0.4865
  490MOL0     C66038   2.404  10.910   3.669 -0.4094  0.4778  0.3208
  490MOL0     O66039   2.443  11.041   3.674 -0.7816 -0.7494  0.4219
  490MOL0     C66040   2.585  11.062   3.660 -0.0703 -0.2721  0.3656
  490MOL0     C66041   2.692  10.974   3.643 -0.4912  0.4048 -1.0112
  490MOL0     C66042   2.829  11.011   3.619  0.3589  0.7233  0.2436
  490MOL0     C66043   2.864  11.143   3.606 -1.0168  0.0205  0.7265
  490MOL0     C66044   3.003  11.180   3.577 -0.6067  0.4627  0.3113
  490MOL0     O66045   3.101  11.076   3.572  0.5676 -0.5006  0.3225
  490MOL0     C66046   3.235  11.106   3.557 -0.5840 -0.6073 -0.1788
  490MOL0     C66047   3.286  11.170   3.440  0.1358 -0.2946 -0.2768
  490MOL0     C66048   3.427  11.166   3.421 -0.1413  0.2463 -0.1240
  490MOL0     C66049   3.515  11.096   3.505  0.5912 -0.7305  0.2145
  490MOL0     O66050   3.652  11.083   3.474  0.5933 -0.1715 -0.2744
  490MOL0     C66051   3.744  11.148   3.562  0.6087 -0.2261  0.0968
  490MOL0     C66052   3.816  11.250   3.476 -0.2048 -0.1771 -0.5993
  490MOL0     C66053   3.900  11.365   3.544 -0.4248  0.4668  0.8061
  490MOL0     C66054   4.001  11.324   3.656  0.1366 -0.3866  0.1246
  490MOL0     C66055   4.013  11.457   3.743 -0.3036 -0.1269 -0.3784
  490MOL0     C66056   4.131  11.443   3.842 -0.2321 -0.4850 -0.2521
  490MOL0     C66057   4.120  11.560   3.959 -0.1385 -0.3108  0.8112
  490MOL0     C66058   3.999  11.536   4.065 -0.0033 -0.1726  0.0818
  490MOL0    Cl66059   3.866  11.638   4.031 -0.2275 -0.0376  0.5370
  490MOL0     C66060   3.462  11.039   3.620 -0.5055 -0.0122  0.9362
  490MOL0     C66061   3.326  11.051   3.651  0.0412 -0.4000 -0.1152
  490MOL0     O66062   3.021  11.299   3.572 -0.5275  0.0200  0.7769
  490MOL0     C66063   2.758  11.236   3.621 -0.4446  0.3233  0.0204
  490MOL0     C66064   2.624  11.196   3.653 -0.5414 -1.0075  0.3247
  490MOL0     N66065   2.271  10.411   3.419 -0.6964 -0.3987  0.2937
  490MOL0     N66066   2.316  10.332   3.331  0.0219  0.3558 -0.2736
  490MOL0     C66067   1.657   9.695   2.675  0.6264  0.9680  0.3439
  490MOL0     C66068   1.529   9.634   2.685 -0.3747 -0.6005  0.4023
  490MOL0     C66069   1.119   9.496   2.708  0.7127 -0.2953 -0.4567
  490MOL0     C66070   1.118   9.432   2.837 -0.6632 -0.4956 -0.3245
  490MOL0     C66071   1.014   9.350   2.887 -0.7792 -0.3204 -0.3483
  490MOL0     C66072   0.909   9.328   2.803  0.0695 -0.6774 -0.5091
  490MOL0     O66073   0.813   9.244   2.852  0.7205 -1.1406  0.5095
  490MOL0     C66074   0.710   9.211   2.759 -0.4482 -0.4829  0.0604
  490MOL0     C66075   0.632   9.088   2.793 -0.6931 -0.4697 -0.4623
  490MOL0     C66076   0.499   9.109   2.859 -0.9488  0.8901  0.1061
  490MOL0     C66077   0.427   8.981   2.878  0.2795  0.4322  0.1789
  490MOL0     C66078   0.285   9.015   2.921  0.0642 -0.9344  0.6070
  490MOL0     C66079   0.181   9.032   2.975 -0.1974 -0.0838  0.7993
  490MOL0     C66080   0.900   9.395   2.677 -0.6762  0.4210 -0.2420
  490MOL0     C66081   0.998   9.486   2.630  0.0141 -0.0014  0.1150
  490MOL0     C66082   0.987   9.555   2.497  0.5453  0.0217  0.0470
  490MOL0     H66083   1.376   9.878   2.851  0.0471  2.2911 -1.4614
  490MOL0     H66084   1.588   9.978   2.840 -4.4319  1.1392  0.7429
  490MOL0     H66085   1.922   9.708   2.679 -2.2837 -0.4089  0.7599
  490MOL0     H66086   1.973   9.870   2.643 -0.0642 -0.0318  0.6230
  490MOL0     H66087   2.120   9.747   2.828 -0.8361 -0.9200  1.0148
  490MOL0     H66088   1.977   9.771   2.929 -2.2414  2.2849 -0.2068
  490MOL0     H66089   1.979   9.999   2.911  2.0109  1.0845  2.4755
  490MOL0     H66090   2.123   9.999   2.809 -1.2197  1.1147 -0.2453
  490MOL0     H66091   2.094   9.967   3.105  1.8813 -0.7829  0.5211
  490MOL0     H66092   2.198   9.853   3.048  0.0442  0.4494  2.9573
  490MOL0     H66093   2.313  10.029   3.108 -2.5355 -0.0446  1.8546
  490MOL0     H66094   2.330  10.036   2.925  0.6523 -0.7544  1.3143
  490MOL0     H66095   2.120  10.201   2.933 -0.2037  1.2491  0.3040
  490MOL0     H66096   2.150  10.210   3.096 -1.0008  1.3188 -1.2931
  490MOL0     H66097   2.254  10.395   2.967  1.5108  0.8694  1.4072
  490MOL0     H66098   2.364  10.278   2.892 -0.6243  0.8734 -0.2930
  490MOL0     H66099   2.448  10.224   3.139 -0.1315 -0.9951 -1.2692
  490MOL0     H66100   2.488  10.379   3.063 -0.6581  1.4493  1.4362
  490MOL0     H66101   2.340  10.608   3.166  0.6887  1.8942  2.0663
  490MOL0     H66102   2.235  10.740   3.323  0.9300  0.1957 -1.4430
  490MOL0     H66103   2.136  10.692   3.465  0.8867 -2.9375  0.9411
  490MOL0     H66104   2.272  10.678   3.617 -0.3218  0.1974 -0.7048
  490MOL0     H66105   2.415  10.660   3.518  0.9871  0.1029  1.0441
  490MOL0     H66106   2.257  10.919   3.510 -0.8234 -2.3636 -0.0368
  490MOL0     H66107   2.432  10.895   3.471  2.1318  0.5437  1.6958
  490MOL0     H66108   2.480  10.838   3.700 -0.8702  0.2681  0.9976
  490MOL0     H66109   2.332  10.896   3.750  2.2056  0.5736  2.8073
  490MOL0     H66110   2.686  10.866   3.634  0.7111  0.3873 -1.8472
  490MOL0     H66111   2.900  10.930   3.628  0.6202  1.1397  2.5423
  490MOL0     H66112   3.219  11.207   3.364  1.0189 -3.8162 -3.0277
  490MOL0     H66113   3.461  11.213   3.329  1.1295  1.9350  1.1446
  490MOL0     H66114   3.682  11.204   3.633  1.7614  0.0412  0.9207
  490MOL0     H66115   3.813  11.084   3.618  0.5206  0.6126  1.2055
  490MOL0     H66116   3.886  11.192   3.414  0.9373 -1.2325  1.5580
  490MOL0     H66117   3.746  11.305   3.414  1.2312  2.1440 -0.2737
  490MOL0     H66118   3.944  11.425   3.464 -0.4782 -0.9148 -0.2967
  490MOL0     H66119   3.820  11.429   3.585 -2.8651 -0.6238 -1.9063
  490MOL0     H66120   4.099  11.302   3.614  0.5713 -2.7638  2.1229
  490MOL0     H66121   3.977  11.235   3.716  4.7494 -1.6555  0.4404
  490MOL0     H66122   3.922  11.480   3.798 -0.7058  2.5974 -2.0603
  490MOL0     H66123   4.033  11.543   3.679  0.0910  0.4457  0.4846
  490MOL0     H66124   4.115  11.347   3.893 -0.0148 -1.1429 -1.4062
  490MOL0     H66125   4.227  11.456   3.792  0.2478  0.1013  0.7874
  490MOL0     H66126   4.111  11.657   3.910  0.1239 -0.1038  1.1695
  490MOL0     H66127   4.211  11.563   4.018 -1.0311  5.3349  2.4763
  490MOL0     H66128   3.964  11.432   4.068 -2.1936  0.5392  1.7665
  490MOL0     H66129   4.038  11.557   4.165 -2.0413 -1.8393  1.3267
  490MOL0     H66130   3.521  10.989   3.696 -0.1081 -0.0129  0.6281
  490MOL0     H66131   3.284  11.010   3.742 -2.2920  0.1321 -0.8871
  490MOL0     H66132   2.777  11.341   3.602  1.1892 -0.0981 -0.8648
  490MOL0     H66133   2.546  11.272   3.654  1.3586  1.0594  2.3491
  490MOL0     H66134   1.725   9.631   2.618  0.4985 -2.4287  3.6176
  490MOL0     H66135   1.517   9.538   2.636 -0.1095 -0.9700  1.0549
  490MOL0     H66136   1.200   9.450   2.906  0.4588 -0.0679 -1.7203
  490MOL0     H66137   1.024   9.299   2.982  2.3914 -1.4620 -1.1602
  490MOL0     H66138   0.756   9.181   2.664  1.5989 -0.7200  1.0685
  490MOL0     H66139   0.644   9.293   2.729 -2.3510 -2.1961 -0.6938
  490MOL0     H66140   0.681   9.025   2.868 -0.8508 -1.5322 -1.2288
  490MOL0     H66141   0.613   9.029   2.703 -1.9214 -3.3541  1.5360
  490MOL0     H66142   0.439   9.162   2.785 -0.0060  2.0405  0.1315
  490MOL0     H66143   0.514   9.172   2.948 -2.3510  1.6039 -0.1246
  490MOL0     H66144   0.430   8.915   2.791  2.6975 -1.0212  1.2612
  490MOL0     H66145   0.487   8.921   2.948  0.1382 -1.8099 -1.5116
  490MOL0     H66146   0.087   9.050   3.023 -0.6375  0.9171 -0.3576
  490MOL0     H66147   0.815   9.386   2.609  0.7518 -1.7458 -1.8737
  490MOL0     H66148   1.044   9.648   2.489 -1.0206  1.1941  1.7316
  490MOL0     H66149   1.012   9.493   2.410 -4.0948 -1.4881 -0.4577
  490MOL0     H66150   0.880   9.565   2.479  0.2554  0.1572  1.6993
  491MOL0     O66151  11.216   6.057   3.323 -0.3265 -1.4110  0.7015
  491MOL0     C66152  11.276   6.128   3.244  1.4391  0.9127  0.6681
  491MOL0     O66153  11.336   6.245   3.267  0.0681 -0.0721 -0.0819
  491MOL0     C66154  11.307   6.307   3.386 -0.5188 -0.2119  0.0801
  491MOL0     C66155  11.201   6.393   3.410  0.1938 -1.0213 -0.4487
  491MOL0     C66156  11.176   6.447   3.541  0.6392  0.0832 -0.0732
  491MOL0     C66157  11.268   6.410   3.645 -0.1877  0.5273  0.0586
  491MOL0     O66158  11.253   6.456   3.767 -0.6788  0.8022 -0.1922
  491MOL0     C66159  11.164   6.377   3.847 -0.5122  0.0901 -0.9723
  491MOL0     C66160  11.173   6.412   3.995 -0.4599  0.7210  0.2966
  491MOL0     C66161  11.317   6.439   4.043 -0.5280 -0.3314 -0.7318
  491MOL0     C66162  11.401   6.315   4.033 -0.2807  0.2444  0.0042
  491MOL0     C66163  11.524   6.331   4.112 -0.5993 -0.3832 -0.6614
  491MOL0     C66164  11.632   6.248   4.053 -0.7693 -0.6735 -0.4594
  491MOL0     C66165  11.764   6.277   4.120 -0.4323 -0.7355  1.0463
  491MOL0     C66166  11.863   6.162   4.101  0.0078  0.3152 -0.5622
  491MOL0     N66167  11.806   6.046   4.162  0.0442  0.6573  0.1696
  491MOL0     C66168  11.747   6.051   4.289  0.3829 -0.2914 -0.6595
  491MOL0     C66169  11.720   5.917   4.315 -0.2335 -0.4131 -0.6354
  491MOL0     C66170  11.645   5.870   4.437 -0.1162 -0.3200  0.8221
  491MOL0     C66171  11.704   5.915   4.570  0.4117  0.2869  1.5522
  491MOL0     C66172  11.658   5.836   4.694  0.1944  0.4042 -0.1430
  491MOL0     C66173  11.554   5.912   4.776 -0.3167 -0.2118  0.0457
  491MOL0     O66174  11.594   6.050   4.809  0.0961 -0.3079 -0.3788
  491MOL0     C66175  11.480   6.131   4.836  0.0705  0.1705  0.0416
  491MOL0     C66176  11.370   6.082   4.906  0.5560 -0.6547  0.2436
  491MOL0     C66177  11.256   6.160   4.933 -0.8280 -0.3319 -0.0243
  491MOL0     C66178  11.252   6.295   4.891 -0.1595  0.1800 -0.2606
  491MOL0     C66179  11.119   6.370   4.905  0.0066 -0.2302  0.2679
  491MOL0     O66180  11.138   6.507   4.928 -0.0231 -0.2025 -0.0300
  491MOL0     C66181  11.028   6.582   4.889  0.9255 -0.9521  0.4075
  491MOL0     C66182  11.043   6.657   4.771  0.2453 -0.2343 -0.2005
  491MOL0     C66183  10.932   6.735   4.726 -0.6170 -0.4587  0.8998
  491MOL0     C66184  10.813   6.722   4.788  0.1269 -0.3832 -0.1829
  491MOL0     O66185  10.702   6.792   4.751 -0.0265  0.2186 -0.2021
  491MOL0     C66186  10.606   6.710   4.689 -0.0645  0.6369  0.7687
  491MOL0     C66187  10.493   6.670   4.782 -0.0854 -0.1016 -0.2085
  491MOL0     C66188  10.458   6.789   4.872 -0.4564 -0.9782 -0.6347
  491MOL0     C66189  10.360   6.737   4.986 -0.7673 -0.8690  0.4436
  491MOL0     C66190  10.324   6.846   5.087  0.0234 -0.2459  0.4667
  491MOL0     C66191  10.266   6.776   5.205 -0.3881 -0.0772  0.6348
  491MOL0     C66192  10.134   6.703   5.173  0.2166  0.0819 -0.4791
  491MOL0     C66193  10.062   6.664   5.307 -0.4075  0.7196  0.2862
  491MOL0    Cl66194   9.991   6.803   5.380 -0.0841  0.0668  0.1163
  491MOL0     C66195  10.798   6.654   4.911 -1.3892 -0.0136 -0.6265
  491MOL0     C66196  10.904   6.585   4.958  0.0309  0.6767 -0.3361
  491MOL0     O66197  11.020   6.310   4.875  0.3810 -0.6379 -0.0078
  491MOL0     C66198  11.358   6.349   4.826 -0.4854 -0.5306  0.4354
  491MOL0     C66199  11.470   6.270   4.803 -1.1787  0.6325 -0.7339
  491MOL0     N66200  11.771   5.845   4.206  0.3487 -0.8421 -0.3533
  491MOL0     N66201  11.821   5.921   4.106  0.6756 -0.3989 -0.4520
  491MOL0     C66202  11.370   6.325   3.618 -0.1347  0.2583 -0.8105
  491MOL0     C66203  11.384   6.270   3.489  0.4209 -0.5909 -0.0656
  491MOL0     C66204  11.276   6.089   3.098 -0.2353  0.0866  0.8180
  491MOL0     C66205  11.383   6.127   3.010  0.8773 -0.7405  0.9931
  491MOL0     C66206  11.397   6.074   2.879 -0.1406 -0.2492 -0.3242
  491MOL0     C66207  11.289   6.012   2.824 -0.0037  0.0926  0.8881
  491MOL0     O66208  11.286   5.962   2.693  0.7333 -0.0119  0.1702
  491MOL0     C66209  11.399   5.990   2.609 -0.1740  1.6294  0.0136
  491MOL0     C66210  11.383   5.912   2.476  0.1866  0.2328  0.2394
  491MOL0     C66211  11.511   5.904   2.395 -0.4725 -0.1352  2.1247
  491MOL0     C66212  11.557   6.040   2.344 -0.7743  0.5822 -0.1149
  491MOL0     C66213  11.663   6.031   2.248 -0.1759  0.6489  0.5856
  491MOL0     C66214  11.766   6.025   2.190  0.1711 -0.6017 -0.8327
  491MOL0     C66215  11.178   5.985   2.895  0.0231  0.6784 -0.1079
  491MOL0     C66216  11.164   6.020   3.037 -1.2255 -0.3075 -0.8727
  491MOL0     C66217  11.043   5.979   3.115  0.9472 -0.9148  0.1111
  491MOL0     H66218  11.125   6.413   3.336  0.5083 -2.2146 -1.1087
  491MOL0     H66219  11.085   6.501   3.565 -1.6043 -3.2408 -0.4823
  491MOL0     H66220  11.060   6.379   3.814 -0.7458 -4.5744 -1.1764
  491MOL0     H66221  11.207   6.277   3.843  2.7968  1.2160  1.6639
  491MOL0     H66222  11.136   6.327   4.053  2.2739 -0.1536  0.8745
  491MOL0     H66223  11.118   6.503   4.022 -1.3089 -0.2213  1.8773
  491MOL0     H66224  11.312   6.473   4.147 -2.7970  0.2564 -0.9712
  491MOL0     H66225  11.357   6.526   3.990  0.3589  0.9219  1.8387
  491MOL0     H66226  11.351   6.228   4.076  2.3940 -0.7089  1.4423
  491MOL0     H66227  11.414   6.289   3.928  0.6476 -2.6558  0.7656
  491MOL0     H66228  11.553   6.437   4.105 -1.3178 -0.0180  1.2157
  491MOL0     H66229  11.517   6.306   4.219  1.1695  1.3177 -0.0700
  491MOL0     H66230  11.593   6.146   4.067 -4.2922  0.8581  2.3077
  491MOL0     H66231  11.657   6.274   3.949  2.6582  4.7572  1.3011
  491MOL0     H66232  11.747   6.301   4.226  1.3755  2.6231  0.7195
  491MOL0     H66233  11.812   6.361   4.070 -0.6964 -0.8948  0.5205
  491MOL0     H66234  11.898   6.134   4.001 -0.1282  0.3855 -0.6295
  491MOL0     H66235  11.955   6.172   4.160 -0.9836  1.6076  0.8404
  491MOL0     H66236  11.722   6.134   4.354  3.8116  0.9881 -0.7445
  491MOL0     H66237  11.542   5.907   4.431  0.3063  0.8568  0.5040
  491MOL0     H66238  11.658   5.762   4.427  4.0631  0.1915 -2.5452
  491MOL0     H66239  11.811   5.893   4.578  0.4898  0.4830  1.0504
  491MOL0     H66240  11.672   6.019   4.583 -1.5035 -0.5061  3.9691
  491MOL0     H66241  11.745   5.798   4.748 -0.1327 -1.5840 -0.9289
  491MOL0     H66242  11.607   5.748   4.653 -1.2668  1.6375 -1.0464
  491MOL0     H66243  11.547   5.850   4.866 -0.2711 -2.6969 -1.5844
  491MOL0     H66244  11.462   5.910   4.718  1.5949  1.1380 -3.3428
  491MOL0     H66245  11.361   5.982   4.947  0.3017 -0.9700 -0.5500
  491MOL0     H66246  11.169   6.120   4.984 -1.2239  1.7296  1.0370
  491MOL0     H66247  11.136   6.644   4.718  0.4906 -0.9045  0.3897
  491MOL0     H66248  10.936   6.805   4.643  0.4949  2.0953  2.9610
  491MOL0     H66249  10.569   6.766   4.602  1.1148  0.0797 -0.1147
  491MOL0     H66250  10.644   6.617   4.646 -5.0176 -3.4737  4.0322
  491MOL0     H66251  10.403   6.648   4.724  0.2683 -2.3861  0.0088
  491MOL0     H66252  10.535   6.591   4.845 -0.2185  0.8072  1.0476
  491MOL0     H66253  10.538   6.848   4.917 -2.5334  2.6683 -1.3855
  491MOL0     H66254  10.402   6.862   4.814  0.5956  1.2538  1.0196
  491MOL0     H66255  10.396   6.649   5.041 -0.4261 -0.8767  0.2097
  491MOL0     H66256  10.263   6.713   4.941 -0.9738  2.2686 -1.0027
  491MOL0     H66257  10.251   6.918   5.047 -0.9788  0.1152  2.7981
  491MOL0     H66258  10.423   6.886   5.110 -0.2201  1.2347 -0.8607
  491MOL0     H66259  10.338   6.703   5.244 -1.5415 -0.5895  1.8820
  491MOL0     H66260  10.256   6.851   5.285  0.3645  1.6031 -0.7850
  491MOL0     H66261  10.166   6.617   5.113 -0.3623  0.5327 -1.4603
  491MOL0     H66262  10.074   6.770   5.111  2.1296  2.2229 -0.1068
  491MOL0     H66263   9.989   6.584   5.291  1.2562 -0.6970 -0.4901
  491MOL0     H66264  10.126   6.629   5.388 -0.6163 -0.5986 -0.1026
  491MOL0     H66265  10.706   6.650   4.967 -1.0920 -0.6686 -0.1772
  491MOL0     H66266  10.883   6.519   5.042 -1.8736  0.8402 -0.6376
  491MOL0     H66267  11.353   6.450   4.788 -0.8819 -0.5672  0.3814
  491MOL0     H66268  11.550   6.322   4.752  0.2490 -1.9256 -1.2400
  491MOL0     H66269  11.431   6.285   3.699 -0.8208  0.3398 -0.2457
  491MOL0     H66270  11.455   6.191   3.469  0.9540 -0.3701  0.8848
  491MOL0     H66271  11.458   6.198   3.043  0.5706 -0.0451  0.2250
  491MOL0     H66272  11.489   6.096   2.826 -0.5098  0.8399 -0.5437
  491MOL0     H66273  11.490   5.963   2.663 -0.6309  3.2138  1.6601
  491MOL0     H66274  11.402   6.097   2.588  1.1139  1.2582 -1.9472
  491MOL0     H66275  11.301   5.963   2.425 -0.8957  1.4679  3.0253
  491MOL0     H66276  11.341   5.813   2.496  0.9959 -0.6654 -2.2189
  491MOL0     H66277  11.499   5.846   2.303 -2.1653  1.9004  0.9753
  491MOL0     H66278  11.586   5.855   2.458 -0.3027 -2.3833  0.3025
  491MOL0     H66279  11.475   6.092   2.292 -0.2429 -0.5469 -2.1710
  491MOL0     H66280  11.589   6.104   2.427  0.5332  0.7294 -0.7151
  491MOL0     H66281  11.858   6.026   2.134 -0.0912  2.0237 -1.3604
  491MOL0     H66282  11.089   5.937   2.854 -0.6094  2.6554 -1.1824
  491MOL0     H66283  10.996   6.073   3.145  4.2292  1.4695 -1.5784
  491MOL0     H66284  10.972   5.925   3.053  1.4966 -1.2411 -0.2436
  491MOL0     H66285  11.053   5.907   3.197 -1.6988 -1.4672  0.0288
  492MOL0     O66286   7.964  10.175   3.430  0.4565 -0.4877 -0.0049
  492MOL0     C66287   8.040  10.089   3.384 -0.5474 -0.1673 -1.0691
  492MOL0     O66288   8.174  10.074   3.420 -0.0230 -0.1857  0.7724
  492MOL0     C66289   8.229  10.177   3.494  0.3312 -0.6425  0.0053
  492MOL0     C66290   8.262  10.145   3.622 -0.8615  0.4971  0.2410
  492MOL0     C66291   8.303  10.244   3.724  0.0055  0.6277 -0.2242
  492MOL0     C66292   8.306  10.377   3.688  0.2882  0.1737 -0.5024
  492MOL0     O66293   8.375  10.466   3.775  1.1103 -0.5822 -0.2190
  492MOL0     C66294   8.375  10.444   3.913 -0.7349 -0.2743 -0.8138
  492MOL0     C66295   8.406  10.567   4.010  0.1294  0.3707 -0.4151
  492MOL0     C66296   8.535  10.647   3.978 -0.7797  0.2754 -0.0697
  492MOL0     C66297   8.518  10.796   4.025 -0.5678  0.0768 -0.3778
  492MOL0     C66298   8.637  10.886   4.002 -0.9104  1.0380  0.3114
  492MOL0     C66299   8.626  11.030   4.044 -0.2208  0.7317 -0.2147
  492MOL0     C66300   8.507  11.099   3.985  0.0449 -0.3089 -0.1185
  492MOL0     C66301   8.509  11.251   3.986  1.0710  0.3349 -0.2203
  492MOL0     N66302   8.597  11.308   3.883 -0.3252  0.3595 -0.0032
  492MOL0     C66303   8.727  11.275   3.852 -1.2607 -0.6596 -0.1360
  492MOL0     C66304   8.778  11.370   3.776  0.6317 -0.2516  0.4193
  492MOL0     C66305   8.920  11.383   3.737 -0.4368  0.4222 -0.8117
  492MOL0     C66306   9.004  11.364   3.863  0.6403  0.4579 -0.4643
  492MOL0     C66307   9.142  11.356   3.839 -0.0479  0.1169  1.1163
  492MOL0     C66308   9.208  11.486   3.781 -0.4819 -1.0600  0.7088
  492MOL0     O66309   9.348  11.455   3.764 -0.2044 -0.6532  0.1970
  492MOL0     C66310   9.405  11.535   3.667 -0.5982  0.8913 -0.7858
  492MOL0     C66311   9.414  11.670   3.676  0.0397 -0.5890  0.4107
  492MOL0     C66312   9.490  11.741   3.586 -0.7138  0.4275  0.1401
  492MOL0     C66313   9.563  11.674   3.486  0.6583 -1.1914  0.1167
  492MOL0     C66314   9.665  11.748   3.399 -0.3723  0.2943  0.5167
  492MOL0     O66315   9.735  11.850   3.454  0.3296  0.0896  0.1451
  492MOL0     C66316   9.848  11.882   3.381 -0.2284  1.2003 -0.8242
  492MOL0     C66317   9.842  11.952   3.267 -0.5987 -0.2570  0.5616
  492MOL0     C66318   9.954  11.972   3.175  0.1170 -0.2402 -0.3414
  492MOL0     C66319  10.076  11.898   3.204  0.0997  0.2712 -0.5187
  492MOL0     O66320  10.181  11.899   3.110 -0.3639 -0.1068  0.6225
  492MOL0     C66321  10.256  11.775   3.093  0.0132 -0.6167 -0.2643
  492MOL0     C66322  10.326  11.783   2.964 -1.0879 -0.3819  0.4123
  492MOL0     C66323  10.400  11.658   2.930 -0.8326 -0.0271  0.5041
  492MOL0     C66324  10.327  11.528   2.896  0.2206 -0.0374 -0.6972
  492MOL0     C66325  10.428  11.420   2.865  0.5278  0.4397 -1.1250
  492MOL0     C66326  10.502  11.371   2.994  0.5746  0.2045  0.5546
  492MOL0     C66327  10.567  11.234   2.983  0.0183 -0.0370 -0.5745
  492MOL0     C66328  10.608  11.177   3.112 -0.3317 -0.3029 -0.1855
  492MOL0    Cl66329  10.468  11.105   3.197  0.6433 -0.7691 -0.0743
  492MOL0     C66330  10.086  11.837   3.328  0.3079  0.5483  0.6684
  492MOL0     C66331   9.976  11.827   3.410 -0.6561 -0.1766 -0.3034
  492MOL0     O66332   9.686  11.696   3.288  0.4695 -0.2517  0.0631
  492MOL0     C66333   9.546  11.533   3.476 -0.6945  0.6862  0.6339
  492MOL0     C66334   9.472  11.464   3.572 -0.1188 -0.1782  1.0652
  492MOL0     N66335   8.668  11.459   3.747  0.3962  0.7027 -0.6106
  492MOL0     N66336   8.571  11.423   3.820  1.3225  0.0170  0.1438
  492MOL0     C66337   8.279  10.405   3.557  0.7610 -0.3795  0.2355
  492MOL0     C66338   8.234  10.314   3.467 -0.1494  0.2641 -0.1528
  492MOL0     C66339   7.995   9.977   3.302 -0.1473 -0.5378 -0.5062
  492MOL0     C66340   8.093   9.891   3.242  0.2443 -0.1994 -0.2068
  492MOL0     C66341   8.054   9.782   3.171  0.8403  0.5298  0.7793
  492MOL0     C66342   7.921   9.768   3.130 -0.7206  0.8472  0.4973
  492MOL0     O66343   7.877   9.650   3.069  0.0644 -0.1280  0.6807
  492MOL0     C66344   7.957   9.588   2.966 -1.5159 -0.3052 -0.2995
  492MOL0     C66345   7.960   9.674   2.838  0.4807 -0.3444  0.4572
  492MOL0     C66346   7.812   9.678   2.776  0.2969  0.2558  1.0660
  492MOL0     C66347   7.798   9.580   2.660 -0.6810 -0.1350  0.5944
  492MOL0     C66348   7.906   9.595   2.563 -0.4074 -0.3890 -0.2094
  492MOL0     C66349   7.992   9.594   2.477  0.6235 -0.3384  0.5130
  492MOL0     C66350   7.823   9.863   3.163 -0.6716  0.5472  0.0434
  492MOL0     C66351   7.858   9.963   3.256  0.2710  0.7371 -0.1594
  492MOL0     C66352   7.734  10.048   3.298 -0.1630  0.1521 -0.6752
  492MOL0     H66353   8.265  10.043   3.659 -0.6305  0.1288 -0.7504
  492MOL0     H66354   8.329  10.202   3.821 -0.7151 -2.9081 -1.4141
  492MOL0     H66355   8.285  10.396   3.952 -0.1111 -0.3031  0.6335
  492MOL0     H66356   8.461  10.382   3.942  0.3844  1.5518  0.0219
  492MOL0     H66357   8.405  10.531   4.113  0.0180  5.0547  1.4513
  492MOL0     H66358   8.320  10.633   4.004 -0.2039  0.0417  0.5134
  492MOL0     H66359   8.538  10.666   3.871 -0.3130 -0.6301 -0.2213
  492MOL0     H66360   8.614  10.594   4.032 -1.3208 -0.2867  0.1836
  492MOL0     H66361   8.427  10.832   3.975 -0.6300  2.5614  1.3290
  492MOL0     H66362   8.508  10.806   4.134 -0.1851  1.6296 -0.4579
  492MOL0     H66363   8.722  10.838   4.051  0.3315 -0.3101 -2.8931
  492MOL0     H66364   8.651  10.878   3.894 -0.1065 -0.9600  0.5152
  492MOL0     H66365   8.602  11.030   4.151 -0.4683 -1.5625 -0.2133
  492MOL0     H66366   8.720  11.085   4.031 -0.6547  1.6895  0.5446
  492MOL0     H66367   8.408  11.067   4.018 -0.9184  0.6032 -1.9534
  492MOL0     H66368   8.499  11.072   3.879 -0.1365  3.9202 -1.3979
  492MOL0     H66369   8.407  11.280   3.961  1.9543  2.0155 -2.1864
  492MOL0     H66370   8.527  11.294   4.085 -2.8283 -2.0428  1.7512
  492MOL0     H66371   8.791  11.192   3.880 -0.7613 -0.2227  0.0233
  492MOL0     H66372   8.958  11.308   3.667 -0.1954 -0.3553  0.1313
  492MOL0     H66373   8.936  11.487   3.709 -0.8874  0.1267 -2.2645
  492MOL0     H66374   8.973  11.444   3.931 -1.0311 -2.9408  3.1519
  492MOL0     H66375   8.973  11.276   3.920  2.2861 -0.4275 -0.8651
  492MOL0     H66376   9.156  11.273   3.770 -1.4777  1.1511 -0.5208
  492MOL0     H66377   9.187  11.328   3.934  2.0196 -3.6715 -0.7818
  492MOL0     H66378   9.193  11.570   3.849  2.1001  0.1201 -0.0514
  492MOL0     H66379   9.173  11.524   3.684  3.0972 -0.6888 -0.5855
  492MOL0     H66380   9.353  11.716   3.753 -1.0386 -1.0692 -0.1319
  492MOL0     H66381   9.499  11.848   3.596  0.4316  0.4176 -0.5447
  492MOL0     H66382   9.742  11.989   3.249 -0.1341  0.1869 -1.3609
  492MOL0     H66383   9.931  12.024   3.083 -3.5682 -1.2842 -0.1705
  492MOL0     H66384  10.330  11.761   3.172  0.1305 -0.8184 -0.4106
  492MOL0     H66385  10.183  11.694   3.105 -0.1095 -0.2411  1.8501
  492MOL0     H66386  10.259  11.820   2.886  1.1622  3.3297 -0.0395
  492MOL0     H66387  10.406  11.858   2.962 -2.3807  1.0379  0.0608
  492MOL0     H66388  10.463  11.686   2.845 -1.6052  0.3325  0.0335
  492MOL0     H66389  10.471  11.641   3.011 -1.0365 -0.5156  0.5829
  492MOL0     H66390  10.253  11.541   2.816 -1.4066 -1.8447  0.4192
  492MOL0     H66391  10.268  11.497   2.982  0.1785  0.1860 -0.6473
  492MOL0     H66392  10.503  11.454   2.793 -1.3803  4.8551 -1.3282
  492MOL0     H66393  10.371  11.342   2.815  0.4991 -0.5571  0.3913
  492MOL0     H66394  10.580  11.442   3.023  0.5787  0.1354  0.7108
  492MOL0     H66395  10.427  11.357   3.072 -1.2016 -1.0000 -1.2590
  492MOL0     H66396  10.650  11.246   2.913 -0.3571 -0.0734 -1.0334
  492MOL0     H66397  10.492  11.170   2.937 -0.4267  2.1511 -3.1281
  492MOL0     H66398  10.683  11.103   3.086 -0.1130  0.4824 -1.9079
  492MOL0     H66399  10.645  11.263   3.168  0.6214 -0.1346 -1.0638
  492MOL0     H66400  10.180  11.796   3.364  1.0145  0.4856 -1.1550
  492MOL0     H66401   9.983  11.787   3.511 -2.9706  0.3552  0.1384
  492MOL0     H66402   9.606  11.479   3.403  0.9471 -0.1765  2.5223
  492MOL0     H66403   9.443  11.359   3.570  2.0021 -0.8523  2.9266
  492MOL0     H66404   8.302  10.501   3.513  1.5383 -1.0020 -0.7681
  492MOL0     H66405   8.205  10.345   3.366 -3.7466  0.7526  0.8776
  492MOL0     H66406   8.201   9.901   3.254  0.2686  0.9705 -1.2297
  492MOL0     H66407   8.130   9.709   3.146  2.9072  2.0978  2.1061
  492MOL0     H66408   7.908   9.497   2.930  1.5427 -1.4175 -2.0439
  492MOL0     H66409   8.059   9.570   3.002 -1.1920  1.0655 -0.4666
  492MOL0     H66410   8.033   9.632   2.769 -0.0378  1.9753 -1.6291
  492MOL0     H66411   7.991   9.776   2.866 -2.0447 -0.0906  2.7907
  492MOL0     H66412   7.795   9.775   2.729  1.7328 -0.8398 -1.9851
  492MOL0     H66413   7.734   9.662   2.851 -0.1908  2.2984  1.0611
  492MOL0     H66414   7.814   9.479   2.698 -1.4739 -0.9106 -1.0508
  492MOL0     H66415   7.696   9.597   2.625 -0.0197 -1.6695 -2.3510
  492MOL0     H66416   8.054   9.589   2.389 -3.2466  1.6895 -2.7138
  492MOL0     H66417   7.718   9.859   3.133 -0.3860  0.3659 -0.9670
  492MOL0     H66418   7.739  10.073   3.405  2.8287  2.1212 -1.1598
  492MOL0     H66419   7.728  10.146   3.250 -3.3415  0.7789  0.7464
  492MOL0     H66420   7.639  10.000   3.276  1.2878 -2.7828 -0.9501
  493MOL0     O66421   3.892  10.637   7.680  0.2411  0.3276 -0.0317
  493MOL0     C66422   3.960  10.539   7.667  0.0116 -0.3592  0.2313
  493MOL0     O66423   4.052  10.523   7.564  0.0885  0.7444  0.0143
  493MOL0     C66424   4.031  10.602   7.449 -0.0686 -0.2683 -0.3636
  493MOL0     C66425   3.905  10.622   7.384  0.0730  0.4941  0.0787
  493MOL0     C66426   3.906  10.702   7.272 -0.2649  0.6879  0.9048
  493MOL0     C66427   4.018  10.746   7.202  0.4872 -0.6409  0.7526
  493MOL0     O66428   4.001  10.821   7.089  0.5572 -0.3349 -0.0835
  493MOL0     C66429   4.101  10.788   6.992 -0.1823  0.0564  0.2694
  493MOL0     C66430   4.046  10.809   6.852 -0.0464  0.9686  0.2315
  493MOL0     C66431   3.967  10.938   6.836  0.1597 -0.4618  0.9965
  493MOL0     C66432   3.816  10.916   6.848 -1.5621 -0.3150 -0.2669
  493MOL0     C66433   3.739  11.040   6.795  0.1046 -0.3657 -0.8720
  493MOL0     C66434   3.747  11.165   6.880 -0.5469 -0.2706  0.1710
  493MOL0     C66435   3.621  11.258   6.852 -0.2401  1.1308 -0.1633
  493MOL0     C66436   3.495  11.190   6.908  0.1080 -0.0017 -0.4782
  493MOL0     N66437   3.386  11.207   6.806 -0.3605 -0.0933  0.0605
  493MOL0     C66438   3.398  11.162   6.679 -0.8393 -1.3281 -0.0773
  493MOL0     C66439   3.281  11.171   6.632  0.1394  0.1645  0.0319
  493MOL0     C66440   3.225  11.144   6.491 -0.1948  0.8405 -0.4411
  493MOL0     C66441   3.092  11.063   6.494 -0.6478  0.4464 -0.8328
  493MOL0     C66442   3.133  10.915   6.466  0.3442  0.0522  0.2862
  493MOL0     C66443   3.018  10.809   6.466  0.6247 -0.3048  0.2017
  493MOL0     O66444   2.912  10.867   6.390  0.4823 -0.5356 -0.4238
  493MOL0     C66445   2.805  10.786   6.363  1.2693  0.2307  0.1790
  493MOL0     C66446   2.713  10.844   6.278  0.2571 -0.4794  0.3199
  493MOL0     C66447   2.586  10.784   6.247 -0.7110 -0.5902  0.4979
  493MOL0     C66448   2.553  10.650   6.296 -0.0825  0.1157  0.2344
  493MOL0     C66449   2.418  10.592   6.267 -0.1484  0.0905 -0.3926
  493MOL0     O66450   2.333  10.655   6.181  0.4070  0.2938 -0.5322
  493MOL0     C66451   2.202  10.611   6.189 -0.4212 -0.1491 -1.3021
  493MOL0     C66452   2.106  10.687   6.269 -1.1830  0.4108 -0.1632
  493MOL0     C66453   1.968  10.648   6.267 -0.5866  0.1521 -0.0298
  493MOL0     C66454   1.932  10.531   6.195 -0.6341  0.4520 -0.0689
  493MOL0     O66455   1.805  10.489   6.202 -0.6416 -0.4962 -0.0887
  493MOL0     C66456   1.768  10.348   6.243  0.0740 -0.6710  0.2740
  493MOL0     C66457   1.627  10.328   6.186  0.9113 -0.3960  0.0708
  493MOL0     C66458   1.570  10.195   6.245  0.1938  0.3084  0.0630
  493MOL0     C66459   1.470  10.123   6.152 -0.0598 -0.5088  0.1179
  493MOL0     C66460   1.392  10.016   6.219 -0.4485 -0.1005  0.9080
  493MOL0     C66461   1.496   9.906   6.272  0.5266 -0.3471  0.3199
  493MOL0     C66462   1.426   9.772   6.303  0.6480  0.5483 -0.6268
  493MOL0     C66463   1.524   9.660   6.363 -0.0738  0.1682 -0.1233
  493MOL0    Cl66464   1.498   9.494   6.285  0.3228  0.2759  0.0659
  493MOL0     C66465   2.024  10.463   6.115  0.3434  0.7815  0.1617
  493MOL0     C66466   2.153  10.504   6.114  0.2532  0.5802 -0.2806
  493MOL0     O66467   2.388  10.496   6.339  0.2577 -0.6604 -0.3140
  493MOL0     C66468   2.644  10.593   6.391  0.4293 -0.4138 -0.0105
  493MOL0     C66469   2.767  10.666   6.429 -1.2167  0.2727  0.7445
  493MOL0     N66470   3.202  11.228   6.730 -0.0760 -0.2544 -0.2933
  493MOL0     N66471   3.268  11.241   6.836 -0.3935  0.1733  0.2287
  493MOL0     C66472   4.134  10.736   7.280 -1.3459  0.0274 -0.7623
  493MOL0     C66473   4.141  10.674   7.406 -0.1970 -0.3532  0.0058
  493MOL0     C66474   3.968  10.437   7.774 -0.2973  0.2386  0.7012
  493MOL0     C66475   4.032  10.323   7.732  0.0438  0.4738 -0.1145
  493MOL0     C66476   4.044  10.212   7.814 -0.1089  1.1284  0.2109
  493MOL0     C66477   4.002  10.211   7.947  0.2885  0.4148  0.2012
  493MOL0     O66478   3.997  10.093   8.007  0.3908 -0.4799  0.5200
  493MOL0     C66479   3.968  10.099   8.145 -0.8988 -0.6610  0.3267
  493MOL0     C66480   3.981   9.953   8.209  0.4226 -0.7520  0.0132
  493MOL0     C66481   3.982   9.839   8.111  0.3713  0.0979 -0.5864
  493MOL0     C66482   3.929   9.722   8.185  0.8648  1.0026  0.1296
  493MOL0     C66483   3.942   9.607   8.101  0.3227  0.3296 -0.7459
  493MOL0     C66484   3.951   9.512   8.023  0.2127 -0.0387 -0.9764
  493MOL0     C66485   3.932  10.331   7.988 -0.9368 -0.8736 -1.3818
  493MOL0     C66486   3.930  10.450   7.909 -0.3899  0.6561 -0.8450
  493MOL0     C66487   3.879  10.562   7.975  0.1394 -0.7186  0.9392
  493MOL0     H66488   3.818  10.573   7.427 -0.5302  0.2072 -1.3974
  493MOL0     H66489   3.818  10.723   7.212  0.7273  0.3387 -0.7468
  493MOL0     H66490   4.183  10.857   7.013  1.8481 -2.0732 -0.1760
  493MOL0     H66491   4.138  10.685   6.990  0.6574  0.3635 -0.7505
  493MOL0     H66492   3.976  10.728   6.830  0.6583  0.1818  0.8094
  493MOL0     H66493   4.132  10.800   6.784 -0.3025 -2.2274  0.1748
  493MOL0     H66494   3.994  10.972   6.735 -0.4061 -1.7360  0.3876
  493MOL0     H66495   4.006  11.005   6.913  3.8654 -3.5230  2.1466
  493MOL0     H66496   3.785  10.833   6.783  1.6991  0.0683 -2.5655
  493MOL0     H66497   3.787  10.893   6.951  0.6736 -2.0513  0.0421
  493MOL0     H66498   3.771  11.053   6.691 -1.5464 -0.6368 -1.4541
  493MOL0     H66499   3.637  11.002   6.783  1.0731 -3.4057 -0.1303
  493MOL0     H66500   3.748  11.143   6.988 -3.7100 -0.2211  0.3068
  493MOL0     H66501   3.833  11.227   6.853 -0.3427 -1.5701 -2.4820
  493MOL0     H66502   3.623  11.278   6.745 -2.3129 -1.1803 -0.7213
  493MOL0     H66503   3.626  11.354   6.905  0.8206  0.5558  0.8163
  493MOL0     H66504   3.508  11.084   6.932 -1.4047  0.2061  1.4896
  493MOL0     H66505   3.472  11.241   7.002 -0.8881  0.1935 -0.8132
  493MOL0     H66506   3.489  11.143   6.623 -1.1285 -2.8335 -0.0818
  493MOL0     H66507   3.217  11.231   6.425  1.6650  0.7611 -0.8200
  493MOL0     H66508   3.295  11.082   6.435 -0.6924 -0.4496  0.3317
  493MOL0     H66509   3.044  11.080   6.591  1.9292  1.9043  0.2956
  493MOL0     H66510   3.032  11.103   6.411 -0.8132 -1.1223 -1.4926
  493MOL0     H66511   3.213  10.890   6.536  0.9977  3.7909  1.0848
  493MOL0     H66512   3.172  10.918   6.364  1.4582  0.5319  0.7125
  493MOL0     H66513   2.970  10.801   6.564  1.2200 -0.0722  0.5164
  493MOL0     H66514   3.044  10.711   6.425 -1.8713  0.2751 -3.1498
  493MOL0     H66515   2.722  10.951   6.259 -3.1505 -0.2876 -1.0119
  493MOL0     H66516   2.513  10.835   6.186  0.2285 -0.2653 -0.3883
  493MOL0     H66517   2.138  10.784   6.306  3.2293 -0.3308 -1.4935
  493MOL0     H66518   1.883  10.702   6.308 -2.1906 -1.4862 -1.0198
  493MOL0     H66519   1.844  10.282   6.201 -0.4230 -0.7485 -0.5289
  493MOL0     H66520   1.779  10.324   6.349 -1.4359 -3.3746 -0.0928
  493MOL0     H66521   1.559  10.411   6.207 -1.3116 -1.6676 -1.6402
  493MOL0     H66522   1.641  10.327   6.077 -2.6634 -1.3246 -0.5319
  493MOL0     H66523   1.658  10.132   6.256 -0.5528 -0.6713  0.5912
  493MOL0     H66524   1.533  10.218   6.345  0.7606  0.1628  0.3051
  493MOL0     H66525   1.532  10.067   6.080 -0.3368  0.6032 -1.0174
  493MOL0     H66526   1.396  10.193   6.112 -0.1810 -2.7149 -4.1713
  493MOL0     H66527   1.321   9.970   6.150 -3.2045  2.3654  1.8331
  493MOL0     H66528   1.330  10.056   6.300 -1.5011  3.2297 -1.3174
  493MOL0     H66529   1.578   9.899   6.200 -1.2355  0.2902 -1.8727
  493MOL0     H66530   1.545   9.930   6.367 -0.6703 -3.1313  1.7842
  493MOL0     H66531   1.370   9.723   6.222 -0.7433  2.3216 -0.7804
  493MOL0     H66532   1.356   9.795   6.383  1.1296  0.3952 -0.1483
  493MOL0     H66533   1.629   9.688   6.351 -0.2378  0.9598  0.1821
  493MOL0     H66534   1.507   9.646   6.471  2.3448  2.1157  0.6063
  493MOL0     H66535   1.977  10.389   6.050 -1.2842  1.1280  0.8778
  493MOL0     H66536   2.232  10.464   6.050 -1.3303 -2.8209 -0.3048
  493MOL0     H66537   2.619  10.494   6.425  2.3991 -1.0783 -0.3294
  493MOL0     H66538   2.839  10.623   6.498  2.9746  0.5670 -2.9992
  493MOL0     H66539   4.233  10.769   7.251 -1.8356  1.5736 -0.7856
  493MOL0     H66540   4.236  10.653   7.454 -1.2222 -1.4236  1.6743
  493MOL0     H66541   4.071  10.305   7.632 -0.2876 -0.9837 -0.0050
  493MOL0     H66542   4.081  10.123   7.765 -2.4529 -0.7715  1.6271
  493MOL0     H66543   3.867  10.132   8.173 -2.2788 -3.7539 -0.5744
  493MOL0     H66544   4.041  10.166   8.192 -1.5358 -0.2019  0.6846
  493MOL0     H66545   3.897   9.945   8.279  1.5377  2.1338  1.8441
  493MOL0     H66546   4.076   9.942   8.260  2.5051 -1.3082 -3.6522
  493MOL0     H66547   4.081   9.820   8.071  1.4188  3.5531  0.0566
  493MOL0     H66548   3.921   9.868   8.025 -1.1716 -2.0207 -0.3012
  493MOL0     H66549   3.983   9.715   8.280  1.0727 -0.3707 -0.0646
  493MOL0     H66550   3.824   9.736   8.212  0.7781  0.8507 -0.1229
  493MOL0     H66551   3.933   9.430   7.957  0.1690 -2.1411  1.4671
  493MOL0     H66552   3.884  10.330   8.085  0.3863 -2.4323 -0.6891
  493MOL0     H66553   3.925  10.650   7.930 -0.7141  0.1771  1.7691
  493MOL0     H66554   3.770  10.567   7.960  0.1241 -2.1519  0.3470
  493MOL0     H66555   3.899  10.553   8.082  0.4437  0.5369  0.9967
  494MOL0     O66556   4.290   0.201   3.737 -0.6273  0.2839 -0.1846
  494MOL0     C66557   4.236   0.312   3.721 -0.5010  0.3275  0.5671
  494MOL0     O66558   4.282   0.426   3.767  0.0226 -0.4505 -0.3183
  494MOL0     C66559   4.377   0.427   3.868  0.6021  0.4849  0.0182
  494MOL0     C66560   4.510   0.387   3.844  0.0652 -0.3219  0.7514
  494MOL0     C66561   4.601   0.389   3.947 -0.3832  0.4216 -0.8398
  494MOL0     C66562   4.569   0.450   4.068  0.1900 -0.5949  0.4183
  494MOL0     O66563   4.667   0.457   4.165  0.0815 -0.1777 -0.4701
  494MOL0     C66564   4.648   0.531   4.282 -0.4192 -0.3890 -0.7813
  494MOL0     C66565   4.767   0.506   4.376 -0.1676  1.1047 -0.1995
  494MOL0     C66566   4.893   0.571   4.323 -0.2541 -0.2955  0.5091
  494MOL0     C66567   4.900   0.721   4.308  0.5289  0.2930 -0.4615
  494MOL0     C66568   5.043   0.784   4.291 -0.0905  0.5964  0.2623
  494MOL0     C66569   5.146   0.690   4.217  0.3440  0.1900  0.1960
  494MOL0     C66570   5.288   0.753   4.211 -0.5023 -0.5961 -0.2899
  494MOL0     C66571   5.290   0.864   4.103 -0.0755  0.2614 -0.3688
  494MOL0     N66572   5.411   0.918   4.048  0.6262  0.6864  0.6979
  494MOL0     C66573   5.504   0.836   3.985 -0.7594  0.3579  0.5032
  494MOL0     C66574   5.593   0.924   3.937 -0.4784 -0.9429  0.4574
  494MOL0     C66575   5.714   0.910   3.854  0.1760  0.4762 -0.7901
  494MOL0     C66576   5.826   0.843   3.935 -0.2689 -0.7043 -0.3153
  494MOL0     C66577   5.879   0.956   4.034 -0.5283  1.0963 -0.5823
  494MOL0     C66578   5.925   0.882   4.160 -0.1483 -0.4854 -0.4833
  494MOL0     O66579   6.010   0.968   4.227 -0.3567  0.5673  0.0806
  494MOL0     C66580   6.142   0.986   4.184 -0.2434 -0.4528  0.3942
  494MOL0     C66581   6.205   0.920   4.072  0.3307 -0.1123  0.0202
  494MOL0     C66582   6.338   0.944   4.046 -0.4754 -0.2674  0.1505
  494MOL0     C66583   6.416   1.052   4.098  0.3529 -0.5491 -0.0657
  494MOL0     C66584   6.539   1.100   4.039  0.0999  0.1164 -0.1719
  494MOL0     O66585   6.581   1.222   4.083 -0.3181 -0.0021 -0.0328
  494MOL0     C66586   6.705   1.279   4.040 -0.3904 -0.6884 -0.0476
  494MOL0     C66587   6.722   1.406   3.982  0.3207  0.0231  0.0086
  494MOL0     C66588   6.849   1.443   3.944  0.1889 -0.3066 -0.4327
  494MOL0     C66589   6.966   1.365   3.961  0.1317 -0.1166 -1.1287
  494MOL0     O66590   7.098   1.405   3.943 -0.2017  0.7487  0.9246
  494MOL0     C66591   7.122   1.454   3.813 -0.1134  0.3218  0.2991
  494MOL0     C66592   7.248   1.387   3.737  0.3293 -0.6641 -0.0234
  494MOL0     C66593   7.324   1.485   3.662 -0.7716 -0.7911 -0.0439
  494MOL0     C66594   7.440   1.416   3.603  0.3151 -0.1973  0.4048
  494MOL0     C66595   7.537   1.512   3.544  0.8118 -0.6173  0.0606
  494MOL0     C66596   7.679   1.466   3.548  0.1763 -0.4843 -0.0394
  494MOL0     C66597   7.795   1.543   3.488  0.6742  0.3864  0.4326
  494MOL0     C66598   7.925   1.467   3.491 -0.5528  0.2992  0.2465
  494MOL0    Cl66599   7.911   1.311   3.417  0.5567 -0.5695 -0.5355
  494MOL0     C66600   6.949   1.241   4.017 -0.1789  0.2105  0.4940
  494MOL0     C66601   6.824   1.196   4.062  0.0462  0.3835 -0.1575
  494MOL0     O66602   6.590   1.033   3.951 -0.5690 -0.3607 -0.2001
  494MOL0     C66603   6.349   1.124   4.200 -0.8372 -0.3042  0.4520
  494MOL0     C66604   6.223   1.079   4.255 -0.7660 -0.1174 -0.2295
  494MOL0     N66605   5.551   1.056   3.973  0.5775 -0.1323  0.2461
  494MOL0     N66606   5.450   1.050   4.049  0.1409 -0.3075  0.7531
  494MOL0     C66607   4.441   0.507   4.082  0.8500 -0.1013  0.1258
  494MOL0     C66608   4.350   0.501   3.979 -0.0163  0.4521 -0.3647
  494MOL0     C66609   4.132   0.325   3.616 -0.6315  0.3356 -0.6157
  494MOL0     C66610   4.131   0.225   3.516  0.7411  0.2151 -0.2350
  494MOL0     C66611   4.051   0.237   3.406 -0.0639 -0.7438 -0.3284
  494MOL0     C66612   3.966   0.355   3.392  0.5807  1.1283 -0.0946
  494MOL0     O66613   3.893   0.375   3.283 -0.5195 -0.4977 -0.9684
  494MOL0     C66614   3.854   0.255   3.210 -0.1886  0.7149 -0.3778
  494MOL0     C66615   3.734   0.301   3.134 -0.1688  0.1123 -0.5379
  494MOL0     C66616   3.713   0.196   3.025  0.2777  0.3458  0.1412
  494MOL0     C66617   3.755   0.244   2.888 -0.4503 -0.8805 -1.1645
  494MOL0     C66618   3.694   0.370   2.836  0.1020  0.5151 -0.4954
  494MOL0     C66619   3.660   0.482   2.810 -0.1154 -0.7422  0.5213
  494MOL0     C66620   3.962   0.449   3.499 -1.0407 -0.2832 -1.1091
  494MOL0     C66621   4.042   0.436   3.613 -0.1825  1.3481 -0.4547
  494MOL0     C66622   4.013   0.529   3.725 -0.0525 -1.0346 -0.7307
  494MOL0     H66623   4.534   0.342   3.748  1.4941  1.5085  0.1878
  494MOL0     H66624   4.699   0.343   3.936 -0.4921  0.1452 -0.6735
  494MOL0     H66625   4.641   0.638   4.260  3.7655  0.2661  0.1369
  494MOL0     H66626   4.568   0.479   4.337 -1.1008  0.5906 -0.8266
  494MOL0     H66627   4.771   0.397   4.392  0.7372  1.2332  0.5878
  494MOL0     H66628   4.739   0.541   4.476 -1.9682 -1.1457  0.1744
  494MOL0     H66629   4.922   0.519   4.231  1.1344  0.3872  0.5476
  494MOL0     H66630   4.968   0.535   4.394  1.0426  0.6445 -0.3462
  494MOL0     H66631   4.840   0.740   4.219 -0.2339 -4.7641 -1.3029
  494MOL0     H66632   4.850   0.773   4.391  1.0543  0.8478 -0.4824
  494MOL0     H66633   5.051   0.886   4.251  1.8580  2.8505  5.4579
  494MOL0     H66634   5.087   0.793   4.391  2.4029 -0.3594 -0.6739
  494MOL0     H66635   5.137   0.588   4.254 -4.0026  0.1246 -0.5678
  494MOL0     H66636   5.108   0.674   4.116 -2.7121  0.3472  1.2327
  494MOL0     H66637   5.359   0.673   4.188  0.7485  0.1286  0.9316
  494MOL0     H66638   5.315   0.797   4.307 -0.3331  0.1099 -0.6553
  494MOL0     H66639   5.239   0.818   4.018  0.1723 -1.0966  0.1831
  494MOL0     H66640   5.239   0.958   4.128 -0.2448  0.6959 -2.2442
  494MOL0     H66641   5.515   0.729   3.975  1.1062  0.4867  0.7997
  494MOL0     H66642   5.689   0.848   3.767 -0.8792  0.0769 -0.2257
  494MOL0     H66643   5.751   1.009   3.829  0.2531  1.3627  2.3514
  494MOL0     H66644   5.798   0.750   3.984  0.2272  0.3282  2.0488
  494MOL0     H66645   5.907   0.826   3.864  1.4491  0.8646  1.1572
  494MOL0     H66646   5.816   1.043   4.053  0.3440  1.6022  0.0891
  494MOL0     H66647   5.962   1.012   3.989  0.4163  0.8500  0.7840
  494MOL0     H66648   5.973   0.791   4.123 -1.8624 -1.3622 -0.6943
  494MOL0     H66649   5.834   0.853   4.214  0.7161  2.5030  3.0189
  494MOL0     H66650   6.152   0.855   4.002 -0.4373  0.8811 -0.3440
  494MOL0     H66651   6.380   0.890   3.962 -1.1419  0.1300 -0.4454
  494MOL0     H66652   6.633   1.459   3.950 -1.8248 -1.5122  2.8770
  494MOL0     H66653   6.862   1.543   3.903  1.2728 -0.7462 -1.1843
  494MOL0     H66654   7.042   1.431   3.742 -0.5217  0.4446  0.7148
  494MOL0     H66655   7.136   1.562   3.820  1.4298  0.2290 -0.8240
  494MOL0     H66656   7.303   1.345   3.821  2.3197  0.0339 -0.9195
  494MOL0     H66657   7.215   1.308   3.669 -2.6123  0.7311 -0.3855
  494MOL0     H66658   7.264   1.534   3.584  0.5088  2.1142  0.6653
  494MOL0     H66659   7.344   1.570   3.728 -1.6248  0.5821 -1.4611
  494MOL0     H66660   7.420   1.336   3.532  2.1272 -1.4735  1.2353
  494MOL0     H66661   7.488   1.368   3.689  0.4950 -0.3005  0.2467
  494MOL0     H66662   7.525   1.612   3.587  1.5143 -0.2513 -0.5797
  494MOL0     H66663   7.502   1.516   3.440  2.9630  0.6717 -0.6758
  494MOL0     H66664   7.708   1.445   3.652  2.7230 -5.6920 -1.4583
  494MOL0     H66665   7.678   1.361   3.516 -2.4185 -0.9349  1.1589
  494MOL0     H66666   7.817   1.640   3.533  0.8387  0.8218 -0.5492
  494MOL0     H66667   7.758   1.576   3.390  0.1256  1.4607  0.9851
  494MOL0     H66668   8.008   1.520   3.443 -0.9186 -0.5561 -1.4077
  494MOL0     H66669   7.954   1.453   3.595 -1.9384  0.2097  0.6527
  494MOL0     H66670   7.042   1.185   4.026  1.0434  1.5123 -2.5315
  494MOL0     H66671   6.829   1.101   4.114 -3.3459  0.6481  0.8843
  494MOL0     H66672   6.411   1.203   4.242  0.1745  0.6475 -2.5506
  494MOL0     H66673   6.182   1.128   4.343 -2.9929 -3.1561  0.6148
  494MOL0     H66674   4.412   0.555   4.174  1.7035  1.2559 -0.2836
  494MOL0     H66675   4.253   0.549   3.987 -1.5055 -1.9952 -2.2666
  494MOL0     H66676   4.175   0.126   3.528 -0.0534 -0.1385 -0.1881
  494MOL0     H66677   4.052   0.155   3.335 -2.7324 -2.4084  1.3646
  494MOL0     H66678   3.832   0.169   3.275  0.0613 -0.0034 -1.2193
  494MOL0     H66679   3.932   0.226   3.139 -0.5937 -1.0205 -0.1516
  494MOL0     H66680   3.737   0.402   3.094 -1.4753  1.1445  1.7728
  494MOL0     H66681   3.660   0.297   3.215  1.7153 -2.7595  1.2670
  494MOL0     H66682   3.608   0.167   3.009  0.1163  1.3794 -0.8622
  494MOL0     H66683   3.763   0.104   3.055 -1.8143 -0.5092  1.2196
  494MOL0     H66684   3.864   0.251   2.886 -0.4021 -0.9790  0.4502
  494MOL0     H66685   3.736   0.165   2.814  0.0574 -0.2055 -2.0322
  494MOL0     H66686   3.651   0.588   2.808 -0.0632 -0.7506 -0.2880
  494MOL0     H66687   3.886   0.527   3.496 -0.1807  0.6107 -0.5226
  494MOL0     H66688   4.102   0.589   3.748 -1.2982 -0.1221  2.2030
  494MOL0     H66689   3.940   0.608   3.706 -0.4393 -1.4692 -1.0636
  494MOL0     H66690   3.985   0.475   3.816  0.0040 -0.2150 -0.2196
  495MOL0     O66691   3.414   3.037   6.808  0.0069  0.3979  0.7649
  495MOL0     C66692   3.427   2.979   6.699 -0.2561 -0.3884  0.3484
  495MOL0     O66693   3.445   3.039   6.574  0.1267  0.3613  0.3471
  495MOL0     C66694   3.440   3.179   6.569 -0.0649  0.1555  0.2352
  495MOL0     C66695   3.555   3.250   6.597  0.8640 -0.1405 -0.2736
  495MOL0     C66696   3.551   3.392   6.590  0.1542  1.1690  0.5092
  495MOL0     C66697   3.433   3.456   6.552  0.1020 -0.1078  0.1239
  495MOL0     O66698   3.425   3.595   6.523  0.0868  0.1529 -0.4484
  495MOL0     C66699   3.312   3.654   6.453 -0.0709 -0.5902 -0.5500
  495MOL0     C66700   3.353   3.806   6.462 -0.4336  0.2674  0.1631
  495MOL0     C66701   3.445   3.857   6.356  0.3929  0.7556  0.1548
  495MOL0     C66702   3.455   4.000   6.336  0.0194 -0.3523  0.6686
  495MOL0     C66703   3.546   4.034   6.221  0.0190 -0.1261  0.7016
  495MOL0     C66704   3.573   4.182   6.218  1.2772 -0.1759  0.2005
  495MOL0     C66705   3.618   4.237   6.075  0.3573  0.0289 -0.3865
  495MOL0     C66706   3.521   4.332   6.012 -1.3103  0.0877 -0.4488
  495MOL0     N66707   3.392   4.266   5.978  0.0334 -0.2076 -0.1395
  495MOL0     C66708   3.388   4.160   5.894 -0.2315  0.4408  0.6370
  495MOL0     C66709   3.267   4.098   5.920 -0.1071 -0.7103 -0.1067
  495MOL0     C66710   3.194   3.997   5.846 -0.1567  0.5671  0.0784
  495MOL0     C66711   3.227   3.863   5.905 -0.2491  0.3642 -1.0414
  495MOL0     C66712   3.144   3.834   6.027 -0.2104  0.4242 -0.1791
  495MOL0     C66713   3.091   3.697   6.064 -0.1056 -0.4267  0.6343
  495MOL0     O66714   3.012   3.686   6.184 -0.0238  1.0950 -0.0093
  495MOL0     C66715   2.870   3.698   6.173 -0.6063 -0.6021 -0.2205
  495MOL0     C66716   2.806   3.729   6.051  1.0424 -0.2059  1.0077
  495MOL0     C66717   2.663   3.742   6.050 -0.2286 -0.5131  0.9246
  495MOL0     C66718   2.589   3.717   6.164  0.2015 -0.0351  1.1008
  495MOL0     C66719   2.446   3.714   6.163 -0.5078  0.2028  0.3461
  495MOL0     O66720   2.378   3.783   6.059  0.2547 -0.6127  0.3458
  495MOL0     C66721   2.249   3.823   6.059  0.5633  0.4634  0.2236
  495MOL0     C66722   2.203   3.937   5.999  0.0387  0.3734  0.0451
  495MOL0     C66723   2.065   3.975   5.995 -0.8506 -0.6580  0.4640
  495MOL0     C66724   1.979   3.881   6.058 -0.7118 -1.2223  0.1832
  495MOL0     O66725   1.854   3.907   6.070  0.9146  0.0786 -0.4294
  495MOL0     C66726   1.792   3.991   5.970 -0.0204 -0.5005  0.7414
  495MOL0     C66727   1.641   3.996   5.970  0.4235 -1.1583  0.0596
  495MOL0     C66728   1.568   3.868   5.943  0.9638 -0.0561  0.2200
  495MOL0     C66729   1.565   3.767   6.063 -0.1119 -0.5665 -0.3815
  495MOL0     C66730   1.423   3.697   6.084  0.0404 -0.5406  1.3094
  495MOL0     C66731   1.389   3.591   5.969  1.4230 -0.3035 -0.3523
  495MOL0     C66732   1.237   3.558   5.946  0.0419 -0.5757  0.0603
  495MOL0     C66733   1.228   3.473   5.820 -0.6559  0.1075  0.4338
  495MOL0    Cl66734   1.084   3.386   5.795  0.0096  0.2570  0.2167
  495MOL0     C66735   2.019   3.766   6.104  0.4678 -0.0722 -0.2537
  495MOL0     C66736   2.155   3.724   6.109  0.2301 -0.2938  0.1617
  495MOL0     O66737   2.392   3.646   6.252  0.3306  0.7576 -0.6787
  495MOL0     C66738   2.663   3.691   6.287 -0.3051 -0.8419  0.1721
  495MOL0     C66739   2.799   3.674   6.290 -0.3698 -0.0195  0.2894
  495MOL0     N66740   3.204   4.168   6.027 -1.0713  0.0854  0.2516
  495MOL0     N66741   3.277   4.270   6.051  0.8458 -0.8216 -0.3841
  495MOL0     C66742   3.317   3.383   6.532 -0.4805  0.7690  0.0504
  495MOL0     C66743   3.328   3.246   6.546 -0.2473  0.4059  0.0747
  495MOL0     C66744   3.430   2.836   6.695 -0.3359 -0.2163  0.1437
  495MOL0     C66745   3.531   2.771   6.780  0.0329 -0.6227 -0.6443
  495MOL0     C66746   3.549   2.633   6.773 -0.3919 -0.4099 -0.7438
  495MOL0     C66747   3.480   2.553   6.684 -1.6144  0.4962  1.3472
  495MOL0     O66748   3.513   2.416   6.678 -0.4030  0.0915  0.2908
  495MOL0     C66749   3.470   2.336   6.569 -0.1872 -0.2978  0.4011
  495MOL0     C66750   3.516   2.189   6.590  0.6028  0.4710 -0.0352
  495MOL0     C66751   3.670   2.171   6.584  0.1578  0.8617 -0.5257
  495MOL0     C66752   3.713   2.023   6.572  0.8106  1.2234 -0.2403
  495MOL0     C66753   3.655   1.917   6.660 -0.8558 -0.7645 -0.0442
  495MOL0     C66754   3.598   1.828   6.717  1.1502 -0.7327  0.1138
  495MOL0     C66755   3.394   2.616   6.602  0.8767  0.0883  0.8057
  495MOL0     C66756   3.353   2.751   6.611 -0.4897 -0.3127 -0.2422
  495MOL0     C66757   3.258   2.806   6.502 -0.3972  0.4592 -0.8172
  495MOL0     H66758   3.651   3.208   6.626  0.1561 -0.9335  1.0500
  495MOL0     H66759   3.634   3.457   6.614  2.6378 -2.3182  2.3586
  495MOL0     H66760   3.286   3.611   6.356 -0.5598  1.9357 -1.6190
  495MOL0     H66761   3.222   3.657   6.516  1.3776  1.0578  1.6351
  495MOL0     H66762   3.398   3.822   6.561 -3.6801  0.8071  1.6969
  495MOL0     H66763   3.256   3.854   6.448 -0.5082 -0.0767 -0.4992
  495MOL0     H66764   3.402   3.806   6.270 -2.0635 -1.4134  2.5035
  495MOL0     H66765   3.541   3.808   6.377  0.0677 -0.3385 -0.8168
  495MOL0     H66766   3.358   4.041   6.307  0.9212 -0.0485 -2.3038
  495MOL0     H66767   3.494   4.046   6.427  0.5593  0.2647  0.1381
  495MOL0     H66768   3.644   3.986   6.228  1.2032  2.3741  4.1822
  495MOL0     H66769   3.493   4.004   6.130 -1.6761  0.6132  1.4055
  495MOL0     H66770   3.488   4.231   6.265  0.2668 -1.4355 -0.2637
  495MOL0     H66771   3.658   4.195   6.287  3.2085 -0.4033 -2.0209
  495MOL0     H66772   3.637   4.147   6.016 -0.8973 -0.8579  0.5245
  495MOL0     H66773   3.718   4.282   6.081  0.0388  1.4554 -3.5414
  495MOL0     H66774   3.502   4.419   6.076 -1.1907  2.1201 -2.9893
  495MOL0     H66775   3.566   4.369   5.919 -0.1240 -2.0365 -0.7792
  495MOL0     H66776   3.452   4.132   5.810 -0.2409  1.1797  0.3760
  495MOL0     H66777   3.086   4.008   5.841 -0.3193 -1.1641 -1.0392
  495MOL0     H66778   3.236   3.994   5.745 -0.9743  0.2346 -0.2572
  495MOL0     H66779   3.201   3.783   5.836  1.6442 -1.4243  0.2032
  495MOL0     H66780   3.333   3.846   5.921 -0.1012  2.6171  0.9896
  495MOL0     H66781   3.057   3.900   6.035 -0.3325  0.2086  0.3088
  495MOL0     H66782   3.214   3.865   6.104 -2.5997  3.0473  1.1462
  495MOL0     H66783   3.172   3.625   6.053  0.4968  0.2000  0.8884
  495MOL0     H66784   3.030   3.664   5.980 -1.4383 -2.5299  2.3165
  495MOL0     H66785   2.852   3.740   5.953 -2.0625 -2.8216 -0.9400
  495MOL0     H66786   2.622   3.760   5.951  2.6109 -2.3608 -0.7285
  495MOL0     H66787   2.283   3.999   5.960 -0.4717  0.1522 -1.4354
  495MOL0     H66788   2.026   4.068   5.955 -1.9212 -2.2144 -2.3837
  495MOL0     H66789   1.827   4.092   5.989 -0.6930 -0.1342  0.0729
  495MOL0     H66790   1.835   3.965   5.873  1.3128  0.9811  0.9125
  495MOL0     H66791   1.615   4.024   6.072  0.0040 -2.0681  0.2169
  495MOL0     H66792   1.608   4.071   5.897 -1.8143 -0.1128  2.0368
  495MOL0     H66793   1.473   3.899   5.900  0.7268  0.0546  0.8121
  495MOL0     H66794   1.627   3.821   5.864 -0.5930 -0.9440 -0.4475
  495MOL0     H66795   1.582   3.817   6.159 -1.7304 -0.5470 -0.0724
  495MOL0     H66796   1.652   3.700   6.062  0.9794  0.8170 -0.9987
  495MOL0     H66797   1.347   3.776   6.089 -1.4754 -1.8333 -0.2558
  495MOL0     H66798   1.435   3.639   6.175 -2.2526 -4.0358 -0.4016
  495MOL0     H66799   1.414   3.634   5.872 -1.8611  1.0853 -0.7338
  495MOL0     H66800   1.434   3.494   5.992  1.0214  0.2863  3.6335
  495MOL0     H66801   1.182   3.652   5.944 -0.8834 -1.0714  1.1166
  495MOL0     H66802   1.201   3.490   6.024 -0.1563  0.4755  0.9111
  495MOL0     H66803   1.247   3.547   5.740  3.2405  0.1194  1.1448
  495MOL0     H66804   1.308   3.399   5.807  1.4777  1.8666  2.4748
  495MOL0     H66805   1.948   3.692   6.141 -0.0132 -0.6592 -2.1922
  495MOL0     H66806   2.181   3.628   6.153 -1.7626 -0.9863 -0.0489
  495MOL0     H66807   2.607   3.670   6.377 -3.3011 -0.1692 -1.4163
  495MOL0     H66808   2.862   3.657   6.378  1.7562  0.6030 -1.0334
  495MOL0     H66809   3.215   3.421   6.531 -0.3822  1.0529  0.5636
  495MOL0     H66810   3.241   3.184   6.529  1.2395 -1.9201  0.4916
  495MOL0     H66811   3.596   2.820   6.852 -0.6595 -1.3013  0.4603
  495MOL0     H66812   3.617   2.585   6.841  0.1790 -1.0948 -1.7746
  495MOL0     H66813   3.506   2.382   6.477 -1.2691 -0.6353 -0.2176
  495MOL0     H66814   3.361   2.332   6.560 -0.0512 -3.2662 -1.6458
  495MOL0     H66815   3.453   2.140   6.515 -1.9634  2.4751  0.6841
  495MOL0     H66816   3.481   2.153   6.687  0.1893  2.8812  0.7764
  495MOL0     H66817   3.710   2.205   6.680  0.0827  0.9555 -0.5279
  495MOL0     H66818   3.718   2.233   6.508  2.0033 -2.2592 -2.0933
  495MOL0     H66819   3.688   1.990   6.471 -0.1877 -3.6165  1.3128
  495MOL0     H66820   3.820   2.004   6.589 -0.1201 -2.7417  2.4763
  495MOL0     H66821   3.552   1.742   6.763 -0.3256 -1.7092 -2.9076
  495MOL0     H66822   3.357   2.560   6.517  1.4477 -0.2608  0.7795
  495MOL0     H66823   3.201   2.890   6.543 -2.1021 -1.2657  0.5665
  495MOL0     H66824   3.322   2.824   6.415 -1.6292 -3.6791 -2.8577
  495MOL0     H66825   3.179   2.738   6.468 -0.3957 -0.0147  0.1090
  496MOL0     O66826   2.020   9.710   9.640 -0.0702  0.1313 -0.1086
  496MOL0     C66827   2.056   9.595   9.669  0.1284  0.0942  0.1796
  496MOL0     O66828   2.023   9.525   9.778  0.3367  0.2776 -0.6802
  496MOL0     C66829   1.919   9.565   9.853  0.2100  1.1156 -0.4060
  496MOL0     C66830   1.830   9.462   9.905  0.0437  0.5028 -0.8926
  496MOL0     C66831   1.731   9.493  10.000 -0.4589 -1.7322  0.3964
  496MOL0     C66832   1.721   9.628  10.053  0.6776  0.0841  0.8714
  496MOL0     O66833   1.627   9.654  10.150  0.1206 -0.3270  0.5382
  496MOL0     C66834   1.522   9.557  10.198 -0.3662  0.2837  0.0299
  496MOL0     C66835   1.582   9.470  10.304 -0.2584  0.7201 -0.0363
  496MOL0     C66836   1.476   9.362  10.348 -0.0185 -0.3729  0.4490
  496MOL0     C66837   1.521   9.278  10.466  0.1004  0.1855  0.7567
  496MOL0     C66838   1.441   9.280  10.593  0.1863  0.3762 -0.0449
  496MOL0     C66839   1.469   9.414  10.662 -0.2072 -0.4595 -0.2034
  496MOL0     C66840   1.588   9.414  10.754  0.8908  0.2350 -0.6038
  496MOL0     C66841   1.602   9.561  10.809 -0.4884  0.2453  1.3398
  496MOL0     N66842   1.729   9.561  10.875  0.8102  0.0575  0.5902
  496MOL0     C66843   1.751   9.518  11.004 -0.0946 -0.0014 -0.5935
  496MOL0     C66844   1.882   9.503  11.020  0.1540 -0.8641 -0.6711
  496MOL0     C66845   1.960   9.442  11.130  0.4179 -0.8175 -0.0951
  496MOL0     C66846   1.877   9.410  11.255 -0.0931 -0.1749 -0.3160
  496MOL0     C66847   1.971   9.368  11.367 -0.5387  0.7371 -0.3263
  496MOL0     C66848   1.913   9.382  11.498  0.9688  0.1671  0.2009
  496MOL0     O66849   1.813   9.286  11.508  0.7167  0.1103 -0.0229
  496MOL0     C66850   1.755   9.241  11.623 -0.6897  0.4526 -1.4870
  496MOL0     C66851   1.632   9.180  11.612  0.3563 -0.0883 -0.2848
  496MOL0     C66852   1.558   9.137  11.723 -0.0634  0.3799  0.4800
  496MOL0     C66853   1.614   9.156  11.851  0.2706 -0.0016 -0.1556
  496MOL0     C66854   1.546   9.123  11.981 -0.2362 -0.9964  1.1075
  496MOL0     O66855   1.404   9.129  11.980  0.0661 -0.0871  0.0726
  496MOL0     C66856   1.349   9.100  12.101 -0.4487  0.1746 -0.4636
  496MOL0     C66857   1.269   9.212  12.154  0.2254  0.3717  0.3670
  496MOL0     C66858   1.188   9.194  12.263  0.0815  0.0820  0.3065
  496MOL0     C66859   1.178   9.063  12.323  0.9551  0.5224  1.7830
  496MOL0     O66860   1.100   9.028  12.431  1.1710 -0.0754 -0.0273
  496MOL0     C66861   0.995   9.114  12.476 -0.1032 -0.8137 -0.1064
  496MOL0     C66862   0.887   9.035  12.547 -0.2693  0.2651 -0.6098
  496MOL0     C66863   0.760   9.122  12.564 -0.5479 -0.4393 -0.1612
  496MOL0     C66864   0.656   9.041  12.643  0.1774  0.0352  0.3429
  496MOL0     C66865   0.514   9.089  12.619 -0.0995  0.1540 -0.7008
  496MOL0     C66866   0.466   9.217  12.685  0.5391 -0.6619 -0.1597
  496MOL0     C66867   0.551   9.344  12.670  0.6395  0.0326 -0.1795
  496MOL0     C66868   0.468   9.474  12.708 -0.0816 -0.6365 -0.1723
  496MOL0    Cl66869   0.426   9.472  12.878  0.1987  0.4157 -0.4104
  496MOL0     C66870   1.249   8.954  12.263 -0.4018  0.0183  0.5620
  496MOL0     C66871   1.341   8.972  12.152  0.1327  0.6046 -0.0755
  496MOL0     O66872   1.619   9.103  12.078  0.2099  0.1114  0.2764
  496MOL0     C66873   1.735   9.214  11.862 -0.4137  1.0027  0.6306
  496MOL0     C66874   1.811   9.248  11.750 -0.4697  0.9703  0.8911
  496MOL0     N66875   1.934   9.532  10.900  0.4252  1.1375  0.9669
  496MOL0     N66876   1.845   9.566  10.813  0.6545 -0.3913  0.1821
  496MOL0     C66877   1.816   9.721  10.004  0.3161 -0.0964  0.8167
  496MOL0     C66878   1.914   9.689   9.913  0.1227  0.2888 -0.0552
  496MOL0     C66879   2.165   9.548   9.589 -1.0060 -0.5044 -0.1128
  496MOL0     C66880   2.233   9.640   9.502 -0.0920 -0.3726 -0.7645
  496MOL0     C66881   2.327   9.602   9.409  0.0150  0.3020 -0.0472
  496MOL0     C66882   2.365   9.466   9.393 -0.4833  0.3933  0.0694
  496MOL0     O66883   2.449   9.432   9.293  0.8193  0.1400  0.4257
  496MOL0     C66884   2.462   9.293   9.260  0.3202 -0.2155 -0.4759
  496MOL0     C66885   2.557   9.274   9.146  0.3074 -0.5239  0.0410
  496MOL0     C66886   2.699   9.243   9.200  1.4254 -0.3878 -0.3062
  496MOL0     C66887   2.799   9.179   9.099 -0.0495  0.2846 -0.6141
  496MOL0     C66888   2.843   9.285   9.011  0.2578 -1.0399  0.5795
  496MOL0     C66889   2.876   9.370   8.927  0.3652  1.0382  0.8224
  496MOL0     C66890   2.305   9.370   9.478 -0.0808 -0.0494 -0.2301
  496MOL0     C66891   2.204   9.409   9.565 -0.2008  0.2934 -0.3271
  496MOL0     C66892   2.121   9.291   9.626  0.1711 -0.2476  0.3763
  496MOL0     H66893   1.852   9.360   9.874  5.3762  1.9728 -3.0389
  496MOL0     H66894   1.659   9.417  10.029 -4.3834  0.7819 -1.8483
  496MOL0     H66895   1.446   9.622  10.241 -1.5805 -1.1627  0.1410
  496MOL0     H66896   1.473   9.497  10.121 -0.7643 -0.9991  1.2410
  496MOL0     H66897   1.604   9.537  10.387 -2.3698  2.0186 -0.4611
  496MOL0     H66898   1.675   9.429  10.262 -0.8451  1.3345 -2.0366
  496MOL0     H66899   1.454   9.298  10.262 -0.6981 -1.1912  1.2151
  496MOL0     H66900   1.387   9.422  10.371  0.8274  2.1874 -2.3554
  496MOL0     H66901   1.520   9.175  10.429 -0.5644 -0.0391  1.3739
  496MOL0     H66902   1.620   9.314  10.493 -0.2026  0.8399  0.9927
  496MOL0     H66903   1.338   9.247  10.578  0.6223 -1.0564 -0.0940
  496MOL0     H66904   1.480   9.205  10.663  2.1024  1.5158  0.1704
  496MOL0     H66905   1.479   9.491  10.584 -1.9639 -1.7545 -1.8028
  496MOL0     H66906   1.385   9.444  10.725 -1.5676 -1.3902 -1.4930
  496MOL0     H66907   1.677   9.395  10.695  0.5762  1.9640 -1.7141
  496MOL0     H66908   1.570   9.347  10.839 -2.0846 -1.2579 -2.2364
  496MOL0     H66909   1.606   9.646  10.740 -0.7152  0.4796  1.6109
  496MOL0     H66910   1.515   9.588  10.869 -0.4118  0.6465  1.2766
  496MOL0     H66911   1.683   9.508  11.088 -0.3441 -2.2754 -1.0019
  496MOL0     H66912   2.012   9.352  11.094  1.5854  0.7186 -2.4573
  496MOL0     H66913   2.040   9.510  11.160  0.9672 -1.5301  0.0956
  496MOL0     H66914   1.829   9.503  11.287 -0.1152  0.4635 -2.0965
  496MOL0     H66915   1.815   9.323  11.233  0.5826 -0.5014 -0.9512
  496MOL0     H66916   2.059   9.433  11.363 -0.4883  0.6492 -0.6525
  496MOL0     H66917   1.991   9.263  11.345 -1.8982  1.0711 -3.7296
  496MOL0     H66918   1.872   9.483  11.508 -0.5276 -0.5302  1.5656
  496MOL0     H66919   1.977   9.367  11.585 -0.4344 -0.8405  1.0975
  496MOL0     H66920   1.618   9.169  11.505  0.4867  0.0453 -0.3160
  496MOL0     H66921   1.476   9.069  11.703  1.2476 -1.5846  1.5341
  496MOL0     H66922   1.256   9.304  12.097 -0.8873 -0.1826 -0.3115
  496MOL0     H66923   1.123   9.274  12.300  0.9412  1.2368 -0.6003
  496MOL0     H66924   1.040   9.195  12.535  0.0322 -0.4353 -0.7122
  496MOL0     H66925   0.947   9.157  12.388  3.3266  3.2683 -0.3335
  496MOL0     H66926   0.861   8.951  12.482 -2.1954  0.4499 -0.1360
  496MOL0     H66927   0.916   8.998  12.646  0.7513 -1.5022 -1.5320
  496MOL0     H66928   0.780   9.211  12.624 -0.1316 -2.4799  2.9224
  496MOL0     H66929   0.736   9.151  12.461  6.6947  2.1423 -1.7612
  496MOL0     H66930   0.692   9.039  12.746  1.0652  1.3192  0.0691
  496MOL0     H66931   0.670   8.940  12.603  0.0463 -0.1320  0.7089
  496MOL0     H66932   0.448   9.005  12.642 -2.0253  1.2899 -1.7720
  496MOL0     H66933   0.500   9.089  12.511  1.9107 -3.2358 -1.1134
  496MOL0     H66934   0.365   9.229  12.645  0.2236 -0.0048  0.8131
  496MOL0     H66935   0.461   9.203  12.793 -3.1809 -0.2300 -0.1330
  496MOL0     H66936   0.580   9.337  12.565 -1.9316  0.1182 -0.9813
  496MOL0     H66937   0.631   9.346  12.744 -1.4339 -1.1508  2.2560
  496MOL0     H66938   0.545   9.551  12.695 -1.5832  0.9275 -0.2358
  496MOL0     H66939   0.390   9.475  12.631  1.4630  1.7244 -1.8630
  496MOL0     H66940   1.248   8.858  12.312  0.4613 -0.1223  0.3218
  496MOL0     H66941   1.398   8.893  12.104 -0.0972 -0.0082  0.6505
  496MOL0     H66942   1.782   9.232  11.958  1.3787 -2.4861  0.5687
  496MOL0     H66943   1.904   9.299  11.771  0.2025  1.1998 -2.1114
  496MOL0     H66944   1.795   9.825  10.027 -3.2140  0.1460 -2.4855
  496MOL0     H66945   1.986   9.766   9.888  3.5385 -2.5103  0.3820
  496MOL0     H66946   2.207   9.745   9.501 -0.6567 -0.4728  0.7965
  496MOL0     H66947   2.356   9.663   9.324 -0.3550 -1.5052 -1.5132
  496MOL0     H66948   2.364   9.250   9.237 -0.2291  1.7706 -2.1638
  496MOL0     H66949   2.501   9.240   9.348 -0.4127  0.3309  0.1872
  496MOL0     H66950   2.555   9.365   9.086 -0.7069 -2.3254 -2.8383
  496MOL0     H66951   2.520   9.187   9.091  3.1096 -3.2893  2.1030
  496MOL0     H66952   2.701   9.165   9.276  0.1170 -2.4893 -2.2876
  496MOL0     H66953   2.735   9.338   9.241 -3.2664  0.4946  2.5314
  496MOL0     H66954   2.891   9.142   9.146  1.4025  2.4634 -1.5675
  496MOL0     H66955   2.739   9.108   9.043 -0.7927  1.2061 -1.0102
  496MOL0     H66956   2.903   9.440   8.851 -0.7959  1.3382  0.6653
  496MOL0     H66957   2.323   9.264   9.467  1.9009  0.2278 -0.1754
  496MOL0     H66958   2.148   9.302   9.732  2.0210  0.9030 -0.1655
  496MOL0     H66959   2.015   9.302   9.603  0.6725 -0.0899 -2.1332
  496MOL0     H66960   2.147   9.190   9.592 -0.9305 -0.5134  0.2845
  497MOL0     O66961  10.160   1.478   1.287  0.0878  0.0318  0.0004
  497MOL0     C66962  10.149   1.374   1.354  0.3090 -1.2880 -0.5271
  497MOL0     O66963  10.246   1.323   1.435 -0.4332  0.0180 -0.2263
  497MOL0     C66964  10.354   1.404   1.465 -0.4133 -1.4052 -0.0589
  497MOL0     C66965  10.477   1.413   1.405  0.6676 -0.4091  0.6933
  497MOL0     C66966  10.579   1.494   1.458  0.3860 -0.3032 -0.0404
  497MOL0     C66967  10.571   1.552   1.585 -0.3927 -0.1249 -0.0484
  497MOL0     O66968  10.667   1.625   1.651  0.5210  0.0932 -0.0546
  497MOL0     C66969  10.777   1.687   1.581 -0.4959  0.1647 -0.0393
  497MOL0     C66970  10.859   1.776   1.662 -0.1592  0.2082  0.4427
  497MOL0     C66971  10.774   1.892   1.711 -0.4451 -0.1409  0.7601
  497MOL0     C66972  10.834   2.032   1.684  0.0984  0.6589 -0.2610
  497MOL0     C66973  10.764   2.154   1.749 -0.9800 -0.2863 -0.5992
  497MOL0     C66974  10.767   2.147   1.908 -1.1618  0.0503  0.4403
  497MOL0     C66975  10.704   2.274   1.962  0.2940 -0.1776 -0.2049
  497MOL0     C66976  10.744   2.306   2.103 -1.9236  0.1106  0.1250
  497MOL0     N66977  10.643   2.398   2.161  0.8563  1.0181 -0.2709
  497MOL0     C66978  10.515   2.368   2.200 -0.0265 -1.0516 -0.5893
  497MOL0     C66979  10.485   2.465   2.282 -0.3962 -0.8052 -1.0584
  497MOL0     C66980  10.341   2.474   2.343 -0.6647  0.8046 -0.6344
  497MOL0     C66981  10.277   2.613   2.331  0.5999 -0.1101  0.0305
  497MOL0     C66982  10.344   2.732   2.398  0.0675  0.0627  0.4426
  497MOL0     C66983  10.341   2.697   2.541  0.2478 -0.1375 -0.4146
  497MOL0     O66984  10.405   2.803   2.621 -0.3011  0.6428 -0.3082
  497MOL0     C66985  10.379   2.795   2.755  0.8433  0.8793 -0.0764
  497MOL0     C66986  10.335   2.678   2.822 -0.6097 -0.1692 -0.1165
  497MOL0     C66987  10.320   2.679   2.956  0.1389 -0.3442 -0.8201
  497MOL0     C66988  10.366   2.792   3.025 -1.1055  0.2485 -0.2663
  497MOL0     C66989  10.368   2.785   3.174  1.4239  0.8042 -0.9442
  497MOL0     O66990  10.441   2.867   3.245 -0.4339  0.3111  0.7154
  497MOL0     C66991  10.429   2.849   3.374 -0.3166 -0.3226  0.6942
  497MOL0     C66992  10.400   2.963   3.449  0.6368  0.3607 -0.0286
  497MOL0     C66993  10.408   2.961   3.588 -0.1267  0.2003 -0.6500
  497MOL0     C66994  10.431   2.839   3.651 -0.2033 -0.0814 -1.1576
  497MOL0     O66995  10.437   2.821   3.791 -0.1011 -0.3663 -0.2823
  497MOL0     C66996  10.414   2.939   3.871 -0.2332  0.3503 -0.2745
  497MOL0     C66997  10.401   2.911   4.025 -0.2443 -0.8583 -0.0531
  497MOL0     C66998  10.273   2.842   4.062  0.5947  0.6491 -0.2802
  497MOL0     C66999  10.246   2.805   4.208 -0.6116  0.2386  0.2333
  497MOL0     C67000  10.167   2.683   4.219  0.0471  0.1785  0.6817
  497MOL0     C67001  10.144   2.644   4.359  0.6408 -0.7622  0.2404
  497MOL0     C67002  10.026   2.550   4.364 -0.1513  0.1502  0.1942
  497MOL0     C67003  10.004   2.494   4.508  0.7166 -0.1987 -0.2988
  497MOL0    Cl67004   9.840   2.413   4.506  0.0531 -0.4478 -0.1507
  497MOL0     C67005  10.461   2.725   3.579  0.4510  1.2051  0.1494
  497MOL0     C67006  10.465   2.736   3.442 -0.6849 -0.0263  0.1578
  497MOL0     O67007  10.292   2.701   3.220  0.7283  0.2668 -0.1292
  497MOL0     C67008  10.429   2.907   2.960  0.4484  0.5921 -0.0314
  497MOL0     C67009  10.422   2.910   2.823  0.0928  0.1808 -0.8226
  497MOL0     N67010  10.595   2.563   2.306  0.2441 -0.2274 -0.3911
  497MOL0     N67011  10.689   2.513   2.228 -0.3206 -1.0886  0.2183
  497MOL0     C67012  10.454   1.536   1.652 -0.4168  0.5859 -0.8271
  497MOL0     C67013  10.345   1.473   1.584  0.3499 -0.1557 -0.6092
  497MOL0     C67014  10.011   1.318   1.351  0.9350  0.0254  0.4017
  497MOL0     C67015   9.961   1.246   1.460 -0.1007  0.2769  0.2578
  497MOL0     C67016   9.836   1.195   1.457 -0.1580 -0.1335  0.4069
  497MOL0     C67017   9.756   1.193   1.346 -0.9358 -0.5672  0.4651
  497MOL0     O67018   9.642   1.136   1.356  0.7508  0.3846  0.2624
  497MOL0     C67019   9.548   1.143   1.252 -0.3788  0.4789 -0.6361
  497MOL0     C67020   9.417   1.065   1.280 -0.1039  0.0250 -0.1644
  497MOL0     C67021   9.307   1.108   1.182 -0.0432 -0.9769 -0.4287
  497MOL0     C67022   9.161   1.069   1.220 -0.0180  0.3861  1.2977
  497MOL0     C67023   9.062   1.126   1.122 -0.3465  0.2889 -0.4129
  497MOL0     C67024   8.973   1.196   1.082  0.0205  0.3788 -0.2005
  497MOL0     C67025   9.806   1.255   1.231  0.0849 -0.0546  0.5448
  497MOL0     C67026   9.937   1.310   1.230  0.6860 -0.0622 -0.0673
  497MOL0     C67027   9.987   1.354   1.098 -0.4861  0.7594  0.5685
  497MOL0     H67028  10.490   1.355   1.314 -1.2583  0.3545 -0.1276
  497MOL0     H67029  10.680   1.499   1.419 -0.3145 -0.6870 -2.0156
  497MOL0     H67030  10.846   1.607   1.553  2.1846  2.3796 -0.1579
  497MOL0     H67031  10.751   1.731   1.484  1.8783 -2.1331 -1.8966
  497MOL0     H67032  10.937   1.824   1.603  0.3073  1.7523  2.2095
  497MOL0     H67033  10.900   1.723   1.749  3.5162  1.3310 -0.4358
  497MOL0     H67034  10.741   1.884   1.815 -0.9015  1.8327  0.8065
  497MOL0     H67035  10.680   1.903   1.657 -1.1986 -0.0179  2.0447
  497MOL0     H67036  10.939   2.037   1.714  0.1653  0.1600 -0.3998
  497MOL0     H67037  10.836   2.051   1.576  4.3943  3.1358  0.0081
  497MOL0     H67038  10.832   2.231   1.713  0.5135  0.5540  3.4797
  497MOL0     H67039  10.663   2.157   1.706 -0.1846 -0.7576 -2.5878
  497MOL0     H67040  10.716   2.061   1.952 -0.7766  0.2099  1.2242
  497MOL0     H67041  10.874   2.142   1.933 -0.8792 -1.3943 -0.8818
  497MOL0     H67042  10.596   2.257   1.961  0.3159 -0.4000  0.5186
  497MOL0     H67043  10.717   2.357   1.892  0.0194 -1.0897 -1.3768
  497MOL0     H67044  10.764   2.217   2.162  5.7444  3.1840  3.4506
  497MOL0     H67045  10.848   2.338   2.115 -1.7860 -1.0157  2.3794
  497MOL0     H67046  10.441   2.291   2.177  0.2365 -1.7044  0.6133
  497MOL0     H67047  10.271   2.412   2.286 -0.5332  1.1392 -1.1639
  497MOL0     H67048  10.331   2.432   2.443 -1.7593 -2.7935 -2.0824
  497MOL0     H67049  10.273   2.642   2.225 -1.7593 -2.2667 -0.5839
  497MOL0     H67050  10.171   2.611   2.357  1.0752 -1.1791  2.0917
  497MOL0     H67051  10.280   2.818   2.376 -0.2550  0.0696  1.3504
  497MOL0     H67052  10.449   2.743   2.369  0.3289 -1.6248  0.6527
  497MOL0     H67053  10.396   2.603   2.554  1.3317  0.1741 -2.2658
  497MOL0     H67054  10.240   2.697   2.582  1.6743  3.5034  3.8963
  497MOL0     H67055  10.306   2.587   2.770  3.2499 -1.8564  0.3083
  497MOL0     H67056  10.289   2.588   3.007 -1.3275 -0.4993 -1.9130
  497MOL0     H67057  10.361   3.049   3.396 -2.8648  0.4017  2.2981
  497MOL0     H67058  10.384   3.047   3.649  1.7638  0.0594  0.3761
  497MOL0     H67059  10.498   3.008   3.858 -0.8144  0.9202 -1.0231
  497MOL0     H67060  10.325   2.987   3.832  0.8785  1.8246 -1.0868
  497MOL0     H67061  10.485   2.846   4.053 -0.3911 -1.5891 -1.2410
  497MOL0     H67062  10.410   3.001   4.087  3.4275 -0.4012 -1.0163
  497MOL0     H67063  10.182   2.895   4.034 -1.2327 -0.7116  2.6823
  497MOL0     H67064  10.288   2.748   4.007  0.8947  0.0511  0.7932
  497MOL0     H67065  10.201   2.882   4.271  0.8423  0.1863  1.3930
  497MOL0     H67066  10.342   2.786   4.258 -1.3043 -1.6603  0.9612
  497MOL0     H67067  10.227   2.604   4.174  1.7507  3.3149 -3.1376
  497MOL0     H67068  10.072   2.694   4.165  1.6670 -2.4529 -3.1667
  497MOL0     H67069  10.225   2.578   4.393  0.2733 -0.1413  2.4958
  497MOL0     H67070  10.123   2.728   4.426 -2.7866 -0.7528 -0.6604
  497MOL0     H67071  10.048   2.475   4.287 -2.0651 -0.2293 -0.0262
  497MOL0     H67072   9.939   2.606   4.331  0.2998  0.9397  0.3236
  497MOL0     H67073  10.085   2.424   4.532  0.7540 -0.2628 -0.6038
  497MOL0     H67074   9.994   2.570   4.586 -2.8591  0.5924 -1.3742
  497MOL0     H67075  10.481   2.636   3.638  1.0590  1.6612  0.6513
  497MOL0     H67076  10.518   2.650   3.402  0.5514 -0.1868  2.0434
  497MOL0     H67077  10.467   2.995   3.009  0.3880  0.6284 -0.0496
  497MOL0     H67078  10.460   2.999   2.774  2.6435  2.3885  4.3783
  497MOL0     H67079  10.454   1.575   1.753  2.1450  1.2232 -1.0101
  497MOL0     H67080  10.251   1.456   1.637 -0.1338 -0.3429 -1.5021
  497MOL0     H67081  10.021   1.234   1.550 -1.5682 -1.0110  1.0967
  497MOL0     H67082   9.793   1.152   1.547 -3.3237 -0.4130 -1.0995
  497MOL0     H67083   9.584   1.096   1.161 -0.0999  0.1802 -0.3738
  497MOL0     H67084   9.524   1.248   1.230  1.7424  1.3216  0.7348
  497MOL0     H67085   9.395   1.090   1.385  0.6400 -0.7534  0.1912
  497MOL0     H67086   9.433   0.958   1.265 -2.9277 -0.2740 -1.6118
  497MOL0     H67087   9.335   1.058   1.088 -1.4794  0.8327 -1.8880
  497MOL0     H67088   9.318   1.216   1.165  1.4825 -0.7719  1.6045
  497MOL0     H67089   9.151   0.961   1.217  3.6683 -0.0852 -1.9314
  497MOL0     H67090   9.140   1.119   1.315 -1.5386 -0.3515  1.3744
  497MOL0     H67091   8.886   1.259   1.070 -0.5923 -0.3580  0.2605
  497MOL0     H67092   9.747   1.268   1.141 -0.8109  2.3852  1.3925
  497MOL0     H67093  10.086   1.318   1.069  0.0213  0.0404  3.0271
  497MOL0     H67094   9.923   1.322   1.015 -0.6221  4.3281 -0.8774
  497MOL0     H67095   9.973   1.462   1.092  0.1189  0.8676  1.0146
  498MOL0     O67096   8.941   7.843   5.670 -0.5287  0.6210 -0.0912
  498MOL0     C67097   8.999   7.913   5.578 -0.0356 -0.2609 -0.8589
  498MOL0     O67098   9.118   7.972   5.583 -0.7323  0.3276  0.2302
  498MOL0     C67099   9.193   7.969   5.706  0.6429 -0.2531  0.4394
  498MOL0     C67100   9.324   7.937   5.700 -0.4543  0.1124  0.1968
  498MOL0     C67101   9.395   7.940   5.813 -0.9295  0.0815 -0.2077
  498MOL0     C67102   9.346   7.961   5.934  0.2936  0.7843 -0.8318
  498MOL0     O67103   9.436   7.943   6.038 -0.3126  0.2594 -0.0126
  498MOL0     C67104   9.384   7.903   6.171 -0.2110 -0.2735 -0.0516
  498MOL0     C67105   9.485   7.927   6.289  0.8050 -0.6625  0.2126
  498MOL0     C67106   9.619   7.851   6.286  0.0024 -0.7317 -0.0668
  498MOL0     C67107   9.606   7.713   6.356  0.3013 -0.0386  0.3786
  498MOL0     C67108   9.734   7.635   6.365  0.4448  0.0970 -0.0554
  498MOL0     C67109   9.703   7.495   6.424  1.0779  0.8024 -0.2289
  498MOL0     C67110   9.828   7.412   6.466 -0.0322 -1.2081 -0.1265
  498MOL0     C67111   9.889   7.450   6.607  0.2137  0.1059 -0.0552
  498MOL0     N67112  10.017   7.402   6.661  0.6167  0.7641  0.1484
  498MOL0     C67113  10.122   7.383   6.582  0.3955  0.0492 -0.0381
  498MOL0     C67114  10.218   7.365   6.667 -0.5961 -0.4313 -0.0243
  498MOL0     C67115  10.363   7.329   6.623 -0.6359 -0.4698 -0.4389
  498MOL0     C67116  10.457   7.447   6.615  0.8951  0.3635  0.1731
  498MOL0     C67117  10.571   7.405   6.527  0.0869 -0.4170  0.1751
  498MOL0     C67118  10.659   7.297   6.577 -0.6062 -0.3714  0.2315
  498MOL0     O67119  10.733   7.341   6.693  0.0691 -0.4603  0.9337
  498MOL0     C67120  10.800   7.236   6.739 -0.3092  0.9606  1.2542
  498MOL0     C67121  10.744   7.136   6.820 -0.7787 -0.0428 -0.3057
  498MOL0     C67122  10.829   7.025   6.836 -0.5103 -0.5135 -0.6140
  498MOL0     C67123  10.946   6.997   6.757 -0.2336  0.1152 -0.3464
  498MOL0     C67124  11.013   6.865   6.770  0.6207  0.6908 -0.7195
  498MOL0     O67125  11.136   6.850   6.735 -0.4283  0.1035  0.1912
  498MOL0     C67126  11.185   6.723   6.722  0.2506 -0.2423  0.0340
  498MOL0     C67127  11.287   6.686   6.813  0.0225  0.1705  0.6317
  498MOL0     C67128  11.352   6.563   6.802 -0.0643 -0.7966  0.2421
  498MOL0     C67129  11.316   6.473   6.702 -1.0553 -0.6865  0.3438
  498MOL0     O67130  11.379   6.350   6.688 -0.3550  0.5113 -0.0438
  498MOL0     C67131  11.348   6.251   6.785 -0.9160 -0.6864 -0.0591
  498MOL0     C67132  11.446   6.134   6.785 -0.4472  0.2161 -0.0789
  498MOL0     C67133  11.587   6.187   6.811  0.0656 -1.1568  0.3733
  498MOL0     C67134  11.677   6.066   6.798 -0.4718 -0.3939 -0.5108
  498MOL0     C67135  11.820   6.095   6.750 -0.6400  0.3093 -0.6364
  498MOL0     C67136  11.890   6.186   6.862  0.9212 -0.7552 -0.6237
  498MOL0     C67137  12.040   6.197   6.866 -0.2588  0.6828  0.5029
  498MOL0     C67138  12.096   6.307   6.955 -0.4294  0.2332  0.3162
  498MOL0    Cl67139  12.050   6.471   6.894  0.5182 -0.2016  0.7383
  498MOL0     C67140  11.222   6.518   6.606  0.0229  0.9015  0.6418
  498MOL0     C67141  11.150   6.633   6.616  0.2607 -0.1589 -0.0372
  498MOL0     O67142  10.932   6.777   6.804 -0.2828  0.7778  0.2001
  498MOL0     C67143  10.995   7.096   6.671  0.5735 -0.5259 -0.0379
  498MOL0     C67144  10.922   7.222   6.664 -0.3237  0.2146  0.6469
  498MOL0     N67145  10.175   7.366   6.793 -0.1148  0.3386  0.1737
  498MOL0     N67146  10.050   7.392   6.790  0.1210 -0.2429 -0.1126
  498MOL0     C67147   9.209   8.003   5.948  0.5542  0.8971 -0.0794
  498MOL0     C67148   9.131   8.001   5.828 -0.3470 -0.1409  0.2178
  498MOL0     C67149   8.925   7.933   5.452 -0.6205  0.7736 -0.5160
  498MOL0     C67150   8.987   7.885   5.341 -0.3603  0.8462  1.2354
  498MOL0     C67151   8.915   7.876   5.225 -0.1707  1.0613 -0.6368
  498MOL0     C67152   8.779   7.915   5.218  0.3939 -0.4768 -0.6579
  498MOL0     O67153   8.686   7.905   5.112 -0.1219 -0.2523  0.2418
  498MOL0     C67154   8.725   7.891   4.983  0.5162 -0.9739  0.5252
  498MOL0     C67155   8.773   8.026   4.922 -0.9320 -0.0178 -1.3551
  498MOL0     C67156   8.899   8.007   4.838 -0.0161 -1.2121  0.6001
  498MOL0     C67157   8.865   7.948   4.695  0.6463 -1.0348  0.1377
  498MOL0     C67158   8.797   8.050   4.608 -0.0577  0.1673 -0.0989
  498MOL0     C67159   8.757   8.132   4.524 -0.3742  0.5807 -0.5838
  498MOL0     C67160   8.723   7.963   5.333 -1.0270  0.0374 -0.2651
  498MOL0     C67161   8.793   7.980   5.457 -0.4816  0.9298  0.6342
  498MOL0     C67162   8.728   8.044   5.576 -0.9837 -1.0092 -0.4122
  498MOL0     H67163   9.365   7.904   5.605  1.5296  3.0859 -0.1201
  498MOL0     H67164   9.491   7.887   5.814 -1.2229 -0.4624 -0.3606
  498MOL0     H67165   9.299   7.965   6.201  1.5604  1.5865  1.3566
  498MOL0     H67166   9.350   7.799   6.165 -4.2437  0.9406 -1.9333
  498MOL0     H67167   9.423   7.903   6.376 -0.4058 -2.2907 -1.0361
  498MOL0     H67168   9.506   8.035   6.292 -1.4659 -0.1226  4.2727
  498MOL0     H67169   9.686   7.932   6.317 -0.9727  1.2046 -2.6868
  498MOL0     H67170   9.639   7.827   6.182 -4.5878 -4.3016 -0.4061
  498MOL0     H67171   9.557   7.708   6.454 -2.4633 -4.1366 -0.9726
  498MOL0     H67172   9.523   7.660   6.309  1.2024 -1.0256 -0.1488
  498MOL0     H67173   9.779   7.623   6.266  0.3362 -1.8638  0.0900
  498MOL0     H67174   9.805   7.687   6.430  2.1786 -0.9313 -1.0491
  498MOL0     H67175   9.651   7.511   6.519 -0.0962  3.5309 -1.2175
  498MOL0     H67176   9.640   7.443   6.351  0.2716 -2.4227  2.5543
  498MOL0     H67177   9.896   7.407   6.380 -0.0992 -1.1196 -0.1844
  498MOL0     H67178   9.788   7.311   6.481 -1.9214 -0.5647 -0.5641
  498MOL0     H67179   9.905   7.558   6.595 -0.6975  0.0892 -1.8139
  498MOL0     H67180   9.807   7.435   6.678 -1.2734 -1.5078 -1.9691
  498MOL0     H67181  10.116   7.378   6.474 -2.4984 -0.2180  0.0553
  498MOL0     H67182  10.399   7.256   6.697 -0.3072 -0.2029 -0.3352
  498MOL0     H67183  10.364   7.281   6.525  2.0082 -0.1464 -0.6308
  498MOL0     H67184  10.410   7.534   6.569  0.1067  0.6237  1.4283
  498MOL0     H67185  10.493   7.466   6.717  1.3014 -2.8702  0.7378
  498MOL0     H67186  10.641   7.488   6.512  1.3819 -0.7557  3.3694
  498MOL0     H67187  10.544   7.391   6.422  0.7077 -1.5003  0.1411
  498MOL0     H67188  10.729   7.280   6.496  0.5244  0.0792  1.0846
  498MOL0     H67189  10.610   7.202   6.602  3.1223 -1.4112  5.1460
  498MOL0     H67190  10.644   7.141   6.862 -1.0953  0.1171 -1.0699
  498MOL0     H67191  10.797   6.946   6.904  5.9624 -1.4474  2.1186
  498MOL0     H67192  11.311   6.752   6.896  1.1255  0.8634 -0.2232
  498MOL0     H67193  11.420   6.535   6.882 -0.1235 -2.1212 -0.1437
  498MOL0     H67194  11.335   6.295   6.885  1.2492  1.6190 -0.7047
  498MOL0     H67195  11.251   6.205   6.765 -0.2701 -1.7483 -0.8521
  498MOL0     H67196  11.426   6.064   6.867  3.4716  1.5335  2.2683
  498MOL0     H67197  11.435   6.076   6.693 -1.3742 -0.6459  0.5575
  498MOL0     H67198  11.617   6.262   6.737  2.5349  1.5667  3.8437
  498MOL0     H67199  11.593   6.237   6.908 -1.0589 -1.0681  0.3989
  498MOL0     H67200  11.641   6.001   6.718 -1.3562  0.4076 -0.7968
  498MOL0     H67201  11.682   6.010   6.892 -1.8200 -1.7181 -1.1945
  498MOL0     H67202  11.811   6.157   6.661  2.6129  2.9289  0.6730
  498MOL0     H67203  11.868   5.999   6.727  1.8023  1.0320  1.0592
  498MOL0     H67204  11.848   6.286   6.844  0.4776 -1.2316 -2.5217
  498MOL0     H67205  11.865   6.165   6.966 -0.1048 -1.5786 -1.0232
  498MOL0     H67206  12.091   6.221   6.772  0.8112  0.4714  1.0154
  498MOL0     H67207  12.073   6.103   6.912  1.1047  0.6087 -0.5305
  498MOL0     H67208  12.079   6.287   7.062  0.0827 -1.3419  0.1274
  498MOL0     H67209  12.202   6.290   6.934 -0.3528  0.9362  0.1277
  498MOL0     H67210  11.205   6.468   6.511 -1.0377  0.2555  1.1490
  498MOL0     H67211  11.082   6.667   6.538 -0.2275 -3.6749 -1.3448
  498MOL0     H67212  11.078   7.070   6.606  0.1006  1.1049 -1.3725
  498MOL0     H67213  10.954   7.297   6.593  0.6363  0.8973  1.7687
  498MOL0     H67214   9.147   8.036   6.031 -0.0408  0.9049 -0.5191
  498MOL0     H67215   9.030   8.039   5.828 -0.3228  0.2874  3.6163
  498MOL0     H67216   9.083   7.833   5.342 -1.2646 -0.8955  2.3070
  498MOL0     H67217   8.964   7.836   5.137 -3.7630 -1.9803 -1.5247
  498MOL0     H67218   8.636   7.867   4.924 -0.7601  0.6296  1.6823
  498MOL0     H67219   8.796   7.809   4.976 -0.6676 -2.1282  1.5801
  498MOL0     H67220   8.799   8.097   5.001 -4.4905 -0.0905  0.0833
  498MOL0     H67221   8.697   8.070   4.857 -4.5840 -4.1863 -0.3853
  498MOL0     H67222   8.965   7.937   4.889 -0.7530 -0.9070  2.0071
  498MOL0     H67223   8.945   8.106   4.838  0.6002 -1.4749 -0.5506
  498MOL0     H67224   8.953   7.913   4.641  2.3418  2.5415  0.2779
  498MOL0     H67225   8.790   7.869   4.706 -0.0762 -0.1263  2.7286
  498MOL0     H67226   8.717   8.214   4.469 -1.8095  1.3987  1.5416
  498MOL0     H67227   8.617   7.981   5.323 -1.5854 -1.7248  1.9156
  498MOL0     H67228   8.630   7.997   5.584 -0.2207 -2.6303 -0.1701
  498MOL0     H67229   8.794   8.043   5.664  0.4562 -0.4475 -1.4468
  498MOL0     H67230   8.706   8.148   5.552  3.5849  0.0466 -0.8856
  499MOL0     O67231   2.315   8.536   9.998 -0.2451 -0.0977  0.3577
  499MOL0     C67232   2.263   8.602  10.083 -0.4950 -0.1313 -0.0277
  499MOL0     O67233   2.332   8.672  10.182  0.6819 -0.3847 -0.5597
  499MOL0     C67234   2.461   8.708  10.169 -0.1418  0.2919 -1.2156
  499MOL0     C67235   2.532   8.699  10.289  0.1194 -1.0564 -0.5401
  499MOL0     C67236   2.659   8.760  10.301 -0.5819  0.4293 -0.4117
  499MOL0     C67237   2.722   8.816  10.191  0.0003  0.1698  0.0953
  499MOL0     O67238   2.848   8.880  10.197  0.1974  0.0613 -0.3432
  499MOL0     C67239   2.969   8.801  10.208  0.8205 -0.5738  0.1761
  499MOL0     C67240   2.995   8.727  10.078  0.7264 -0.3953  0.8048
  499MOL0     C67241   3.029   8.818   9.955 -0.6721 -0.4720  0.4070
  499MOL0     C67242   3.056   8.727   9.829 -0.5214  0.7148  1.0655
  499MOL0     C67243   3.186   8.657   9.826  0.6408 -0.4681 -0.1991
  499MOL0     C67244   3.228   8.603   9.690 -0.1975 -0.1680 -0.2498
  499MOL0     C67245   3.383   8.597   9.656  0.3357  0.0433  0.1258
  499MOL0     C67246   3.404   8.518   9.534  0.1361 -0.3106  1.1529
  499MOL0     N67247   3.546   8.539   9.500  0.1781  0.8599 -0.1639
  499MOL0     C67248   3.641   8.450   9.543 -0.4696 -0.4708  1.1702
  499MOL0     C67249   3.751   8.490   9.478  0.4120 -0.1702  0.4522
  499MOL0     C67250   3.893   8.444   9.488 -0.2999 -0.7146 -0.0779
  499MOL0     C67251   3.924   8.332   9.381 -1.1654  0.0959 -0.7693
  499MOL0     C67252   3.944   8.401   9.241  0.0033  0.2785  0.2565
  499MOL0     C67253   4.086   8.457   9.226  0.0344 -0.4615 -1.3358
  499MOL0     O67254   4.082   8.575   9.144  0.4258 -0.4392  0.1399
  499MOL0     C67255   4.207   8.634   9.126  0.9866 -0.2147 -0.6987
  499MOL0     C67256   4.277   8.673   9.237  0.5274  0.0123  0.4751
  499MOL0     C67257   4.404   8.736   9.228  0.7009 -0.0866 -1.3235
  499MOL0     C67258   4.466   8.745   9.103  0.7190 -0.4272 -0.1981
  499MOL0     C67259   4.597   8.810   9.077 -0.7220  0.2553 -0.5221
  499MOL0     O67260   4.683   8.780   8.965  0.0437 -0.2787 -0.2379
  499MOL0     C67261   4.799   8.852   8.975  0.2866 -0.8002  0.0120
  499MOL0     C67262   4.905   8.803   9.048 -0.5822 -0.4059 -0.0372
  499MOL0     C67263   5.035   8.857   9.033  0.5921 -0.2936 -0.8636
  499MOL0     C67264   5.059   8.969   8.944  0.1149  1.0716 -0.5540
  499MOL0     O67265   5.190   9.015   8.945 -0.1139 -0.0353 -0.7408
  499MOL0     C67266   5.217   9.130   8.867  0.2441 -0.6469 -0.3328
  499MOL0     C67267   5.275   9.081   8.737  0.7706  0.4197  0.3193
  499MOL0     C67268   5.276   9.201   8.648  0.4763 -0.6658 -0.2363
  499MOL0     C67269   5.386   9.196   8.542 -0.4969 -0.1566  0.1657
  499MOL0     C67270   5.403   9.335   8.485  0.0749  0.4125  0.6005
  499MOL0     C67271   5.480   9.323   8.358  0.7281 -0.3293  0.9729
  499MOL0     C67272   5.602   9.237   8.347  0.4114 -0.0376 -0.3558
  499MOL0     C67273   5.683   9.246   8.222  1.2679  0.3766  0.3170
  499MOL0    Cl67274   5.633   9.128   8.100 -0.0834  0.6581  0.4332
  499MOL0     C67275   4.948   9.017   8.861 -0.0121  0.5181  0.1060
  499MOL0     C67276   4.822   8.951   8.885  0.1713  0.1898 -0.1239
  499MOL0     O67277   4.621   8.887   9.167  0.1307  0.5615 -0.3004
  499MOL0     C67278   4.389   8.707   8.988 -0.6513 -0.3310  0.6432
  499MOL0     C67279   4.261   8.652   8.997  0.7373 -0.7186  1.0952
  499MOL0     N67280   3.709   8.598   9.396  0.7541 -0.4877  0.7899
  499MOL0     N67281   3.587   8.625   9.412  0.0276  0.0892 -0.4073
  499MOL0     C67282   2.656   8.813  10.065 -0.0001  0.9094  0.5928
  499MOL0     C67283   2.523   8.762  10.059 -0.8149  0.5444  0.0422
  499MOL0     C67284   2.112   8.601  10.107  0.0266  0.1166  0.1246
  499MOL0     C67285   2.069   8.680  10.220  0.2906 -0.0511  0.5114
  499MOL0     C67286   1.942   8.669  10.256 -0.5921 -0.5668 -0.3549
  499MOL0     C67287   1.842   8.608  10.170  0.4980  0.7660 -0.6962
  499MOL0     O67288   1.716   8.619  10.227  0.1545  0.8543  0.1264
  499MOL0     C67289   1.608   8.550  10.168  1.0227 -0.7543  0.1589
  499MOL0     C67290   1.555   8.626  10.048 -0.7938  0.3826  0.4102
  499MOL0     C67291   1.441   8.551   9.980 -0.6702 -0.5320 -0.3041
  499MOL0     C67292   1.360   8.464  10.070 -0.2172 -0.9872  0.0001
  499MOL0     C67293   1.248   8.413   9.994  0.0767  0.7561 -0.2159
  499MOL0     C67294   1.173   8.371   9.915 -0.0197 -0.0918 -0.1460
  499MOL0     C67295   1.883   8.542  10.060  0.8264  0.2449 -1.0794
  499MOL0     C67296   2.022   8.540  10.021  0.0772  1.7969  0.3456
  499MOL0     C67297   2.064   8.472   9.892  0.6195  0.1927 -0.5679
  499MOL0     H67298   2.482   8.648  10.370 -0.2085 -1.9118 -1.2768
  499MOL0     H67299   2.709   8.759  10.397 -2.6082 -0.7750  0.7173
  499MOL0     H67300   3.057   8.865  10.215  0.4377 -0.1684  1.7882
  499MOL0     H67301   2.969   8.747  10.303 -0.6394 -2.5195 -0.8668
  499MOL0     H67302   2.899   8.677  10.059 -0.2093  1.0702  1.4323
  499MOL0     H67303   3.077   8.658  10.097  0.1518 -2.1204 -2.2833
  499MOL0     H67304   3.108   8.892   9.968 -1.1873  0.3321 -0.8012
  499MOL0     H67305   2.940   8.877   9.931 -0.1256 -0.0163 -0.5630
  499MOL0     H67306   2.977   8.652   9.829 -0.1715  0.3055 -0.6740
  499MOL0     H67307   3.045   8.784   9.737  1.3248  1.6922  1.4015
  499MOL0     H67308   3.260   8.733   9.852 -1.2112  1.3074  0.1240
  499MOL0     H67309   3.183   8.570   9.893  1.6333 -3.2398 -3.4786
  499MOL0     H67310   3.189   8.501   9.680  1.1521 -0.7720  0.4251
  499MOL0     H67311   3.191   8.665   9.608  1.4551 -0.1227 -1.0011
  499MOL0     H67312   3.435   8.557   9.743 -1.3026 -0.6936  0.8019
  499MOL0     H67313   3.399   8.706   9.652 -2.5886  0.5302 -0.3645
  499MOL0     H67314   3.375   8.415   9.556  4.3888 -1.5263  2.0301
  499MOL0     H67315   3.346   8.547   9.446  1.4215 -4.2530 -1.2805
  499MOL0     H67316   3.626   8.369   9.614  0.2538 -1.8549 -0.2132
  499MOL0     H67317   3.957   8.532   9.480  0.8882 -1.5253  0.1527
  499MOL0     H67318   3.898   8.404   9.590 -1.5184  0.3843  0.4325
  499MOL0     H67319   4.007   8.268   9.411 -2.3979 -1.7510 -1.1539
  499MOL0     H67320   3.838   8.265   9.381  1.0183 -2.9266 -0.6153
  499MOL0     H67321   3.868   8.472   9.211 -1.4919 -1.3559  0.0153
  499MOL0     H67322   3.927   8.323   9.166 -0.5116  0.2509  0.4035
  499MOL0     H67323   4.159   8.389   9.180  1.0342 -0.2889 -0.0584
  499MOL0     H67324   4.131   8.491   9.320 -1.6120  0.7035 -0.9325
  499MOL0     H67325   4.238   8.671   9.338  1.5365 -0.3035  0.8650
  499MOL0     H67326   4.452   8.783   9.313  1.3977  1.0815 -2.3301
  499MOL0     H67327   4.893   8.704   9.091  1.7126  0.0570  1.8823
  499MOL0     H67328   5.116   8.803   9.081 -0.7954 -1.1026  0.6922
  499MOL0     H67329   5.129   9.196   8.868 -1.3330 -2.6251  1.2172
  499MOL0     H67330   5.293   9.186   8.922 -0.0499  0.5583 -1.1158
  499MOL0     H67331   5.378   9.046   8.747  1.9644  2.7456 -2.3394
  499MOL0     H67332   5.204   9.010   8.693  0.3857  0.5782  0.6798
  499MOL0     H67333   5.176   9.234   8.618  1.1475 -0.3575 -2.3532
  499MOL0     H67334   5.304   9.292   8.703 -2.0277  1.4479 -2.1921
  499MOL0     H67335   5.358   9.124   8.465  1.2534  0.6433 -1.3115
  499MOL0     H67336   5.484   9.167   8.582  0.8367  2.8192 -0.6339
  499MOL0     H67337   5.447   9.407   8.555  1.3673  0.1986  0.0399
  499MOL0     H67338   5.302   9.365   8.453  0.6237  2.3198  0.5243
  499MOL0     H67339   5.414   9.269   8.290 -0.7605 -0.1398  2.2154
  499MOL0     H67340   5.490   9.425   8.322 -0.2779 -0.9026 -1.0575
  499MOL0     H67341   5.563   9.136   8.359 -1.0914  0.6544  0.9800
  499MOL0     H67342   5.663   9.264   8.434 -0.9162 -0.2549  0.6678
  499MOL0     H67343   5.701   9.350   8.197  0.0210  0.6300  0.3970
  499MOL0     H67344   5.782   9.208   8.249  2.0426  1.6439 -0.6377
  499MOL0     H67345   4.960   9.088   8.780 -1.8678  3.7137  2.4104
  499MOL0     H67346   4.732   8.994   8.843  1.7377  2.4784 -1.3693
  499MOL0     H67347   4.436   8.734   8.894  0.0568  0.3177  1.1726
  499MOL0     H67348   4.190   8.629   8.919  1.2478  0.6085  0.2012
  499MOL0     H67349   2.709   8.861   9.983 -1.5218  1.8634  0.1112
  499MOL0     H67350   2.464   8.769   9.968  0.3133  2.9608 -0.6082
  499MOL0     H67351   2.127   8.751  10.278 -0.6815  1.4678 -0.2953
  499MOL0     H67352   1.911   8.723  10.345 -0.6290 -0.9851 -0.1107
  499MOL0     H67353   1.529   8.563  10.242  2.5283  0.3061  1.6423
  499MOL0     H67354   1.629   8.443  10.157  2.6867 -0.6815  2.1159
  499MOL0     H67355   1.641   8.640   9.981  1.1129 -0.5148  2.5275
  499MOL0     H67356   1.518   8.726  10.073 -5.2496  0.5357 -4.8689
  499MOL0     H67357   1.486   8.495   9.898 -1.9534  2.1452 -3.0779
  499MOL0     H67358   1.377   8.624   9.928  1.1360 -0.1182 -2.0737
  499MOL0     H67359   1.412   8.380  10.115  3.7778  0.2138 -1.9733
  499MOL0     H67360   1.327   8.534  10.147  1.5649  0.3014 -0.3597
  499MOL0     H67361   1.118   8.336   9.830 -0.7031  1.7768 -0.5156
  499MOL0     H67362   1.809   8.493   9.998  1.0514  0.6645 -1.7002
  499MOL0     H67363   1.979   8.420   9.846  1.5574  0.0147 -2.1965
  499MOL0     H67364   2.101   8.554   9.831 -2.5299 -1.0135 -4.5874
  499MOL0     H67365   2.141   8.399   9.917 -1.0507 -1.5888 -0.3277
  500MOL0     O67366   6.908   5.465   5.514 -0.5765 -0.0300 -0.3467
  500MOL0     C67367   6.839   5.378   5.572  0.4942 -0.0285  0.6296
  500MOL0     O67368   6.850   5.343   5.695  0.8633 -0.1373  1.2684
  500MOL0     C67369   6.877   5.438   5.791  0.6677  0.0877 -0.9662
  500MOL0     C67370   6.900   5.396   5.919  0.6039  1.2310  0.4285
  500MOL0     C67371   6.908   5.499   6.026 -0.0864  0.3749  0.4398
  500MOL0     C67372   6.895   5.639   6.009 -0.1150 -1.7991 -0.2247
  500MOL0     O67373   6.907   5.727   6.113  0.1804  0.8007  0.4420
  500MOL0     C67374   6.944   5.866   6.085  0.9452 -0.2416 -0.3761
  500MOL0     C67375   7.003   5.921   6.216  0.3001 -0.2604 -0.9052
  500MOL0     C67376   7.086   6.045   6.193  0.1588  1.2589 -0.5793
  500MOL0     C67377   7.020   6.172   6.237 -0.3297 -1.0578  0.2206
  500MOL0     C67378   7.104   6.289   6.192 -0.4696 -0.1295  0.8661
  500MOL0     C67379   7.057   6.416   6.273 -0.5946  1.0091 -0.6632
  500MOL0     C67380   7.165   6.525   6.301 -0.2856 -0.0533 -0.2837
  500MOL0     C67381   7.128   6.632   6.406 -0.1253 -0.5733  0.0321
  500MOL0     N67382   7.018   6.714   6.360 -0.5906  1.2044 -0.0950
  500MOL0     C67383   6.888   6.686   6.371  0.7920  0.3168  0.0064
  500MOL0     C67384   6.821   6.777   6.294  0.1832  0.5581 -0.3656
  500MOL0     C67385   6.668   6.772   6.267 -0.9710 -0.4936  0.4167
  500MOL0     C67386   6.646   6.670   6.159  0.0292 -0.7501 -0.0278
  500MOL0     C67387   6.744   6.680   6.034 -0.0933 -1.0575 -0.7856
  500MOL0     C67388   6.689   6.607   5.916  0.0126 -0.4262 -0.1670
  500MOL0     O67389   6.795   6.592   5.827  0.0162  0.1566 -0.1036
  500MOL0     C67390   6.842   6.464   5.804  0.2540  0.5750  0.0277
  500MOL0     C67391   6.874   6.442   5.670  0.9110 -0.5098 -0.1669
  500MOL0     C67392   6.906   6.314   5.624 -0.3048  0.0075 -0.1405
  500MOL0     C67393   6.886   6.202   5.705 -0.8664  0.4524 -0.0865
  500MOL0     C67394   6.897   6.066   5.644  0.0895  0.8564 -0.3647
  500MOL0     O67395   6.887   6.071   5.501 -0.8782 -0.5072 -0.0041
  500MOL0     C67396   6.926   5.977   5.412 -0.5212  0.7539 -0.5904
  500MOL0     C67397   6.969   5.845   5.446 -0.4465 -0.5229  0.5302
  500MOL0     C67398   6.978   5.753   5.337  0.0239 -0.0599 -0.4767
  500MOL0     C67399   6.952   5.792   5.207  0.0390 -0.6580 -0.0228
  500MOL0     O67400   6.976   5.694   5.115  0.0451 -0.7704  0.1002
  500MOL0     C67401   6.879   5.601   5.089  0.4532  1.1640  0.3233
  500MOL0     C67402   6.880   5.564   4.931  0.3600 -0.7860  0.0806
  500MOL0     C67403   6.743   5.491   4.903 -0.8445  0.2134 -0.1170
  500MOL0     C67404   6.741   5.439   4.766 -0.4224  0.1147 -0.3653
  500MOL0     C67405   6.592   5.390   4.734 -0.0589 -0.5723 -0.6582
  500MOL0     C67406   6.596   5.327   4.590 -0.6474  0.7479 -0.3765
  500MOL0     C67407   6.468   5.250   4.559  0.4462 -0.6171 -0.8963
  500MOL0     C67408   6.479   5.180   4.423 -1.0954 -0.3613  1.1419
  500MOL0    Cl67409   6.315   5.159   4.367  0.7987 -0.1588 -0.2735
  500MOL0     C67410   6.906   5.919   5.178 -0.1095  1.2926  0.7674
  500MOL0     C67411   6.904   6.016   5.275 -0.6528  0.3037 -1.3156
  500MOL0     O67412   6.916   5.968   5.714 -0.1821 -0.8093 -1.1813
  500MOL0     C67413   6.869   6.224   5.839  0.0415  0.4839 -0.0512
  500MOL0     C67414   6.841   6.356   5.883 -0.5983  0.0078 -0.6175
  500MOL0     N67415   6.926   6.856   6.244  0.0239  0.6240  0.6490
  500MOL0     N67416   7.042   6.817   6.279 -0.0929  0.3205  0.2760
  500MOL0     C67417   6.880   5.680   5.872 -0.4716 -0.5728 -0.1991
  500MOL0     C67418   6.868   5.581   5.768 -0.5184 -0.7448 -1.4930
  500MOL0     C67419   6.763   5.288   5.486 -0.2149  0.6776  0.2977
  500MOL0     C67420   6.765   5.151   5.507 -0.7647 -0.6950  0.2347
  500MOL0     C67421   6.686   5.067   5.434 -0.9294 -0.0281 -0.1525
  500MOL0     C67422   6.612   5.112   5.329  0.5629  0.2495 -1.0508
  500MOL0     O67423   6.531   5.020   5.265 -0.0835  0.5137  0.4764
  500MOL0     C67424   6.527   5.029   5.122 -0.5993 -0.1876 -0.7561
  500MOL0     C67425   6.445   4.915   5.066  0.1867  0.6173  0.0841
  500MOL0     C67426   6.447   4.906   4.910  0.4400 -0.3052  0.2576
  500MOL0     C67427   6.363   4.795   4.847 -0.0419  0.3331 -0.4340
  500MOL0     C67428   6.416   4.659   4.875 -0.0850 -0.5712 -0.0081
  500MOL0     C67429   6.451   4.547   4.912 -0.6601 -0.8298 -0.3157
  500MOL0     C67430   6.607   5.250   5.312 -0.2265 -0.0076 -0.6240
  500MOL0     C67431   6.673   5.347   5.389 -0.9793  0.9856  0.0203
  500MOL0     C67432   6.649   5.490   5.348 -0.2982  0.5494  0.1328
  500MOL0     H67433   6.924   5.292   5.936  1.1990  1.6191  2.1828
  500MOL0     H67434   6.919   5.470   6.130 -2.6690  0.5879  0.8220
  500MOL0     H67435   7.006   5.873   5.995 -1.0204 -2.6107 -2.0220
  500MOL0     H67436   6.850   5.914   6.055  0.7107 -0.0088  0.6681
  500MOL0     H67437   7.074   5.846   6.253  4.2753  2.6561 -1.9198
  500MOL0     H67438   6.916   5.937   6.279  0.9839  0.6883 -0.1775
  500MOL0     H67439   7.122   6.043   6.090  0.9196  1.6906 -0.3298
  500MOL0     H67440   7.172   6.030   6.258 -0.7748  3.9059  1.4953
  500MOL0     H67441   6.928   6.179   6.177  0.0325  3.2862 -0.1600
  500MOL0     H67442   6.989   6.170   6.342  0.5103 -1.6683  0.4685
  500MOL0     H67443   7.206   6.268   6.227 -0.2631 -0.5513  0.0360
  500MOL0     H67444   7.101   6.299   6.083 -1.0167 -0.7277  0.8262
  500MOL0     H67445   6.990   6.470   6.204  0.5363 -0.6162 -3.1988
  500MOL0     H67446   7.006   6.379   6.362  0.9661 -1.3185 -0.6450
  500MOL0     H67447   7.185   6.576   6.206  1.1783 -3.0145 -1.6853
  500MOL0     H67448   7.256   6.474   6.334 -0.9938 -1.8492 -1.0275
  500MOL0     H67449   7.102   6.599   6.507  2.1657  0.7074  1.1254
  500MOL0     H67450   7.213   6.698   6.424 -1.5035  1.3526 -0.3059
  500MOL0     H67451   6.837   6.595   6.402  0.9653  0.5056  0.8743
  500MOL0     H67452   6.620   6.754   6.363  0.5551 -2.3685  0.8930
  500MOL0     H67453   6.641   6.868   6.222  0.2494  0.6601  2.0506
  500MOL0     H67454   6.653   6.575   6.212  2.8233  0.4699  2.0689
  500MOL0     H67455   6.543   6.681   6.125 -0.5245 -0.9809  1.5069
  500MOL0     H67456   6.841   6.638   6.061 -1.2299 -0.8720  4.6194
  500MOL0     H67457   6.760   6.785   6.005 -1.5347 -1.0149 -1.5531
  500MOL0     H67458   6.611   6.669   5.870  0.8183  1.9282  1.4513
  500MOL0     H67459   6.649   6.512   5.954 -2.4365  1.1659  1.5500
  500MOL0     H67460   6.875   6.525   5.600 -3.7072  0.6378  0.7966
  500MOL0     H67461   6.935   6.302   5.520 -2.3101 -1.6387 -0.5753
  500MOL0     H67462   6.972   5.819   5.551 -1.3472 -0.8123  0.4997
  500MOL0     H67463   6.990   5.649   5.364  3.1471  0.5310  0.9185
  500MOL0     H67464   6.898   5.514   5.152 -1.3148  0.4148 -0.1248
  500MOL0     H67465   6.778   5.638   5.110 -0.3722  0.2668 -1.8125
  500MOL0     H67466   6.904   5.650   4.868  1.8756 -0.6276  0.8253
  500MOL0     H67467   6.966   5.497   4.926  1.6252  0.8680 -3.0300
  500MOL0     H67468   6.725   5.411   4.974  0.8781  0.3856  0.5621
  500MOL0     H67469   6.661   5.562   4.920  0.3530  1.5600  0.2936
  500MOL0     H67470   6.805   5.352   4.776 -0.1747  0.2169 -1.0092
  500MOL0     H67471   6.781   5.514   4.697 -1.2985  2.3436  1.4178
  500MOL0     H67472   6.522   5.475   4.738  1.0303  0.3210 -0.0975
  500MOL0     H67473   6.563   5.321   4.813  1.5641 -0.8713 -0.2865
  500MOL0     H67474   6.619   5.411   4.524 -1.4216  1.9095  0.7807
  500MOL0     H67475   6.677   5.253   4.586 -1.0521  0.2562  0.2108
  500MOL0     H67476   6.391   5.326   4.573 -0.0543 -1.7273  4.7961
  500MOL0     H67477   6.452   5.172   4.633  1.8534 -0.4839 -0.4128
  500MOL0     H67478   6.524   5.248   4.349 -2.3335  0.7848  1.3847
  500MOL0     H67479   6.535   5.087   4.419 -0.1650  0.2100  0.2544
  500MOL0     H67480   6.892   5.947   5.074  0.4494 -2.6414 -0.5578
  500MOL0     H67481   6.893   6.122   5.255  1.2852  0.5704 -1.1447
  500MOL0     H67482   6.860   6.140   5.907 -1.2463  1.3073  0.8676
  500MOL0     H67483   6.808   6.351   5.986 -3.8339 -3.3195 -1.5991
  500MOL0     H67484   6.873   5.787   5.851 -1.5760 -0.5755  0.1261
  500MOL0     H67485   6.829   5.628   5.678 -0.8637 -0.2213 -1.0787
  500MOL0     H67486   6.827   5.114   5.588  0.3764  1.4107  0.3841
  500MOL0     H67487   6.686   4.962   5.460  0.0778  0.4074  1.7615
  500MOL0     H67488   6.630   5.034   5.085 -0.1779 -1.7490  0.0953
  500MOL0     H67489   6.473   5.119   5.093  1.0862  0.9996 -0.3615
  500MOL0     H67490   6.341   4.922   5.100  0.4713  1.3441  0.8458
  500MOL0     H67491   6.483   4.819   5.101 -1.5085 -1.0015 -2.2109
  500MOL0     H67492   6.550   4.883   4.883 -0.1284 -2.9587  0.0475
  500MOL0     H67493   6.433   5.007   4.870  1.2925  0.8132  2.5662
  500MOL0     H67494   6.259   4.796   4.883  0.3110  0.8497  0.6084
  500MOL0     H67495   6.358   4.812   4.740  1.3871 -0.0946 -0.5787
  500MOL0     H67496   6.471   4.449   4.951 -1.2391  0.5026  3.7611
  500MOL0     H67497   6.547   5.287   5.229 -0.9959  0.2973  0.0490
  500MOL0     H67498   6.559   5.545   5.377 -2.4006 -2.1425 -0.8601
  500MOL0     H67499   6.727   5.557   5.386  0.5797 -1.4276  2.0100
  500MOL0     H67500   6.648   5.488   5.238  4.5316  0.0044 -0.1091
  501MOL0     O67501   9.558   8.091   9.490  0.2912 -0.4083 -0.1531
  501MOL0     C67502   9.561   8.162   9.587 -0.6086 -0.1426  0.7184
  501MOL0     O67503   9.607   8.294   9.591  0.1746  1.6060  0.0190
  501MOL0     C67504   9.634   8.374   9.483 -0.1460  0.3283 -0.2401
  501MOL0     C67505   9.757   8.420   9.452  0.6151  1.1085  1.5254
  501MOL0     C67506   9.793   8.512   9.348  0.8814 -0.1727 -0.2456
  501MOL0     C67507   9.684   8.553   9.265  0.9872 -0.6215  0.0867
  501MOL0     O67508   9.706   8.628   9.149  0.1066 -0.3027 -0.7769
  501MOL0     C67509   9.632   8.753   9.154  0.3663 -0.1075 -0.1445
  501MOL0     C67510   9.724   8.855   9.084  0.6461 -0.4527 -0.1363
  501MOL0     C67511   9.724   8.857   8.925  0.6023  0.0489  0.6569
  501MOL0     C67512   9.829   8.943   8.868 -0.3656  0.1044  0.4955
  501MOL0     C67513   9.824   8.939   8.713  0.1468 -0.2079 -1.1115
  501MOL0     C67514   9.913   9.046   8.656  0.5455 -0.0006 -1.2130
  501MOL0     C67515   9.895   9.079   8.510 -0.1121  0.1927  0.2145
  501MOL0     C67516   9.975   9.208   8.453  0.0594  0.2991 -0.4716
  501MOL0     N67517   9.966   9.222   8.307  0.5029  0.3919 -0.2399
  501MOL0     C67518  10.011   9.336   8.256 -0.6448  0.0297 -0.2108
  501MOL0     C67519  10.036   9.303   8.123  0.7233 -0.0397 -0.4950
  501MOL0     C67520  10.079   9.417   8.028 -0.1477 -0.2592 -0.4655
  501MOL0     C67521   9.973   9.526   8.001  0.2715 -0.1519 -0.4014
  501MOL0     C67522   9.833   9.482   7.975 -0.5180 -0.5573 -0.6854
  501MOL0     C67523   9.822   9.393   7.848  0.2781 -0.9530 -0.7224
  501MOL0     O67524   9.868   9.469   7.735  0.5536 -0.0746 -0.2444
  501MOL0     C67525   9.780   9.567   7.689  0.2855 -0.5917 -0.1165
  501MOL0     C67526   9.650   9.609   7.728  0.9958  0.6670  0.2065
  501MOL0     C67527   9.606   9.737   7.687  1.3553 -0.5378 -0.5381
  501MOL0     C67528   9.685   9.819   7.602  0.5702 -0.3374  0.2894
  501MOL0     C67529   9.626   9.945   7.535  0.1618  0.1183  0.3849
  501MOL0     O67530   9.501   9.992   7.569 -0.0414 -0.3537 -0.1595
  501MOL0     C67531   9.453  10.106   7.504  0.2298 -0.1666  0.7487
  501MOL0     C67532   9.320  10.102   7.469  0.1302  0.8741 -0.4300
  501MOL0     C67533   9.262  10.204   7.405  0.2183  0.6766 -0.1439
  501MOL0     C67534   9.337  10.310   7.365  0.0112 -0.2918 -0.1593
  501MOL0     O67535   9.278  10.405   7.293  0.5867  0.5323  0.9894
  501MOL0     C67536   9.278  10.538   7.347  0.1048 -0.4180  0.3154
  501MOL0     C67537   9.159  10.569   7.443  0.7510  0.2664  0.5993
  501MOL0     C67538   9.174  10.705   7.507 -0.8529 -0.9689  0.0734
  501MOL0     C67539   9.044  10.740   7.580  0.2069  0.4027 -0.2742
  501MOL0     C67540   9.064  10.855   7.678 -1.1310  0.6437  0.6696
  501MOL0     C67541   8.928  10.882   7.756 -0.5737  0.1490  0.8706
  501MOL0     C67542   8.961  10.964   7.887 -0.0338  0.6851 -0.0043
  501MOL0     C67543   8.954  11.113   7.867  0.7076 -0.6014  0.6366
  501MOL0    Cl67544   9.070  11.166   7.731  0.0059  0.0330 -0.6370
  501MOL0     C67545   9.471  10.325   7.407 -0.4393 -0.6285  0.4591
  501MOL0     C67546   9.530  10.222   7.482 -0.5745 -0.9488  0.4257
  501MOL0     O67547   9.701   9.994   7.450 -0.1813 -0.0479 -0.3953
  501MOL0     C67548   9.802   9.772   7.554 -0.0159  0.0769  0.2682
  501MOL0     C67549   9.847   9.645   7.605 -0.0986 -0.4168  0.3770
  501MOL0     N67550  10.004   9.176   8.103  0.5692  0.6771 -0.4340
  501MOL0     N67551   9.956   9.127   8.209  0.5166  0.3889 -0.6622
  501MOL0     C67552   9.555   8.503   9.281 -0.7260 -0.1460  0.3935
  501MOL0     C67553   9.530   8.427   9.400  0.0153  0.2085 -0.3833
  501MOL0     C67554   9.507   8.094   9.713 -1.1103  0.0240 -0.4471
  501MOL0     C67555   9.372   8.080   9.707  0.0594  0.8341 -0.2535
  501MOL0     C67556   9.302   8.033   9.818  0.3268 -0.8030  0.1183
  501MOL0     C67557   9.368   7.973   9.928 -0.6419 -0.4349 -0.5823
  501MOL0     O67558   9.286   7.951  10.033  0.5943 -0.5375 -0.1764
  501MOL0     C67559   9.345   7.909  10.157  0.0092 -0.8299 -0.8647
  501MOL0     C67560   9.244   7.896  10.270  0.1468  0.8636  0.4547
  501MOL0     C67561   9.207   7.749  10.296  0.8414  0.3710 -0.5372
  501MOL0     C67562   9.070   7.705  10.232  0.2157  0.3757  0.0997
  501MOL0     C67563   8.948   7.741  10.308  0.3406 -0.3685  1.0701
  501MOL0     C67564   8.848   7.779  10.352 -0.5451 -0.4220 -0.9200
  501MOL0     C67565   9.503   7.979   9.921 -0.7125  0.9986 -0.2329
  501MOL0     C67566   9.579   8.044   9.823 -0.1497 -0.6808  0.2903
  501MOL0     C67567   9.733   8.059   9.831 -1.0143  0.0396 -0.3354
  501MOL0     H67568   9.842   8.373   9.501  0.2510 -1.6636 -0.2924
  501MOL0     H67569   9.880   8.575   9.335 -0.0230  1.6419  1.7677
  501MOL0     H67570   9.533   8.738   9.110 -0.1960 -1.5053  1.4480
  501MOL0     H67571   9.614   8.785   9.257  3.4326  4.0384 -0.6532
  501MOL0     H67572   9.824   8.842   9.127  0.7943 -0.3950 -0.4620
  501MOL0     H67573   9.689   8.957   9.103 -0.4650 -0.8285 -0.1258
  501MOL0     H67574   9.627   8.870   8.876  0.5399  1.5771  1.1326
  501MOL0     H67575   9.742   8.753   8.895 -2.0409  0.2182 -1.9471
  501MOL0     H67576   9.811   9.046   8.899 -0.1092 -0.4336  2.6103
  501MOL0     H67577   9.925   8.915   8.911  0.6378  0.3939 -1.4448
  501MOL0     H67578   9.859   8.843   8.674  1.3161 -0.6425  0.8711
  501MOL0     H67579   9.722   8.959   8.678  0.9453 -0.7968 -4.0617
  501MOL0     H67580   9.885   9.137   8.710 -1.8332 -0.9728 -0.6569
  501MOL0     H67581  10.014   9.011   8.679 -0.6082 -1.8415  1.8100
  501MOL0     H67582   9.792   9.111   8.493  0.1795  1.2183  0.2658
  501MOL0     H67583   9.920   8.987   8.457 -1.3309  0.1693 -0.3420
  501MOL0     H67584   9.927   9.295   8.497 -0.0525  0.4043 -0.7999
  501MOL0     H67585  10.079   9.189   8.481 -0.3194  1.6753  2.1129
  501MOL0     H67586  10.034   9.432   8.302  0.2219  1.3690 -3.2176
  501MOL0     H67587  10.162   9.470   8.075  0.1490 -0.4888 -0.7277
  501MOL0     H67588  10.101   9.380   7.927 -0.2243  0.2092 -0.6598
  501MOL0     H67589   9.976   9.600   8.082 -2.0020  1.5938 -1.8009
  501MOL0     H67590  10.007   9.587   7.917  1.8267  0.1999  0.4455
  501MOL0     H67591   9.768   9.570   7.967 -1.9257 -1.3182  1.4214
  501MOL0     H67592   9.807   9.418   8.060 -0.1673  0.9243  0.5777
  501MOL0     H67593   9.720   9.359   7.827 -0.1175 -0.3566  0.1757
  501MOL0     H67594   9.889   9.310   7.873  3.6846  2.4358  2.8874
  501MOL0     H67595   9.598   9.552   7.805  0.9554  1.9571  1.1623
  501MOL0     H67596   9.518   9.792   7.720 -0.0020 -1.6450 -2.1585
  501MOL0     H67597   9.255  10.019   7.497  1.8797 -0.4735 -0.1391
  501MOL0     H67598   9.157  10.202   7.375  0.5035 -0.7642 -1.1694
  501MOL0     H67599   9.374  10.560   7.394 -1.3559  2.5594  2.2316
  501MOL0     H67600   9.257  10.605   7.262 -4.6532  0.3938  1.8077
  501MOL0     H67601   9.059  10.561   7.398  0.5409 -0.0075  1.1099
  501MOL0     H67602   9.161  10.491   7.519 -0.3974  0.2233  0.6129
  501MOL0     H67603   9.265  10.705   7.568  1.3915  0.6436 -2.9352
  501MOL0     H67604   9.199  10.781   7.432  0.3198 -2.8046 -1.4922
  501MOL0     H67605   9.023  10.651   7.640 -2.0587  1.1996  0.1826
  501MOL0     H67606   8.971  10.762   7.502  2.2334 -1.4420 -2.8924
  501MOL0     H67607   9.094  10.947   7.626 -0.2712 -1.5620 -3.1071
  501MOL0     H67608   9.143  10.841   7.752 -0.6152  1.7591  0.3512
  501MOL0     H67609   8.860  10.918   7.679 -1.7710 -1.3124  1.1929
  501MOL0     H67610   8.877  10.788   7.780 -0.7499 -0.4118 -1.4025
  501MOL0     H67611   9.063  10.947   7.924 -0.6619  0.3421  1.6516
  501MOL0     H67612   8.889  10.931   7.963  0.2901  0.1572  0.0752
  501MOL0     H67613   8.854  11.152   7.846  2.9928  5.6611 -0.8174
  501MOL0     H67614   8.981  11.167   7.958  1.1845  0.4503 -0.0984
  501MOL0     H67615   9.523  10.407   7.358  1.1380 -2.0059 -0.2476
  501MOL0     H67616   9.630  10.237   7.522 -0.4397 -1.2633  0.2152
  501MOL0     H67617   9.859   9.817   7.473 -2.0013  2.7272  0.2126
  501MOL0     H67618   9.947   9.615   7.575 -0.2366  1.2455 -2.1663
  501MOL0     H67619   9.486   8.537   9.205  2.1446  1.5361 -1.6749
  501MOL0     H67620   9.426   8.409   9.424  0.7155 -1.6428  1.5146
  501MOL0     H67621   9.299   8.116   9.635 -0.5260 -4.5553 -2.8855
  501MOL0     H67622   9.193   8.028   9.810  0.4518 -2.3752 -1.2440
  501MOL0     H67623   9.422   7.973  10.201  2.3619 -3.4536 -0.8852
  501MOL0     H67624   9.386   7.808  10.147  1.8110 -0.3256  0.7121
  501MOL0     H67625   9.152   7.953  10.257 -1.1347  0.0194  4.4841
  501MOL0     H67626   9.304   7.919  10.359  0.2482  1.8972  0.1325
  501MOL0     H67627   9.201   7.738  10.405  0.8582  2.8134 -0.2326
  501MOL0     H67628   9.285   7.681  10.261  2.3902  2.1066 -0.5964
  501MOL0     H67629   9.049   7.764  10.142 -3.3801 -1.0045 -0.1256
  501MOL0     H67630   9.079   7.596  10.219 -0.9041  0.2551  0.2716
  501MOL0     H67631   8.761   7.821  10.398  2.3913  1.1908  3.8376
  501MOL0     H67632   9.566   7.932   9.996 -0.0638  1.6130 -0.3773
  501MOL0     H67633   9.759   8.047   9.936  2.7964 -1.2164 -1.2978
  501MOL0     H67634   9.789   7.983   9.777 -0.3900  0.1912  0.0985
  501MOL0     H67635   9.763   8.155   9.788  1.5422 -0.6489 -0.2101
  502MOL0     O67636   6.046   7.420   8.814 -0.2502 -0.1496  0.8623
  502MOL0     C67637   6.056   7.426   8.934 -0.3641  0.7765 -1.0962
  502MOL0     O67638   6.140   7.350   9.000  0.6605 -0.3726  0.0257
  502MOL0     C67639   6.187   7.241   8.938 -0.2233 -0.0049 -0.1308
  502MOL0     C67640   6.112   7.126   8.915  0.2630  0.0282 -0.4841
  502MOL0     C67641   6.175   7.016   8.843 -0.2576 -0.1461 -1.2940
  502MOL0     C67642   6.309   7.037   8.799  0.7542 -0.2803  0.2114
  502MOL0     O67643   6.381   6.934   8.736 -0.3691  0.4310 -0.5643
  502MOL0     C67644   6.305   6.852   8.643  1.0268  0.4347  0.7599
  502MOL0     C67645   6.277   6.719   8.701  1.6394 -0.4836  0.0268
  502MOL0     C67646   6.230   6.613   8.603  0.0688  0.6519  0.4548
  502MOL0     C67647   6.267   6.467   8.653 -0.3082 -0.0304 -0.3095
  502MOL0     C67648   6.220   6.353   8.560  0.4857  0.6160 -0.8490
  502MOL0     C67649   6.298   6.325   8.440  0.1914 -0.6406  0.4290
  502MOL0     C67650   6.251   6.232   8.327 -0.4880  0.1417  0.0412
  502MOL0     C67651   6.187   6.095   8.364 -0.1910 -1.0447  0.9772
  502MOL0     N67652   6.144   6.016   8.241  0.1767 -0.4649  0.3677
  502MOL0     C67653   6.166   5.879   8.243 -0.3936 -1.1338 -0.2345
  502MOL0     C67654   6.113   5.839   8.130  1.0393  0.7200 -0.2454
  502MOL0     C67655   6.063   5.701   8.100  0.1279  0.0907 -0.9178
  502MOL0     C67656   6.165   5.585   8.096 -0.1483  0.4489 -0.0620
  502MOL0     C67657   6.273   5.606   7.991 -1.3002  0.2065 -0.2104
  502MOL0     C67658   6.213   5.577   7.855  0.1873  0.1932 -0.2652
  502MOL0     O67659   6.305   5.578   7.746 -0.2537 -0.8013 -0.6964
  502MOL0     C67660   6.361   5.447   7.712  0.6802  0.7804 -0.2387
  502MOL0     C67661   6.424   5.444   7.585  0.2706  0.7924 -0.4012
  502MOL0     C67662   6.478   5.326   7.535  0.8250  0.3282  0.3900
  502MOL0     C67663   6.499   5.216   7.620 -0.4882 -0.6074 -0.8170
  502MOL0     C67664   6.560   5.095   7.570 -0.1469  0.5714  0.4409
  502MOL0     O67665   6.607   5.108   7.442 -0.0182 -0.6366 -0.5482
  502MOL0     C67666   6.667   5.018   7.372  0.4647 -0.9307  0.6602
  502MOL0     C67667   6.644   4.885   7.379  0.5735 -0.0078  0.7650
  502MOL0     C67668   6.728   4.788   7.312  0.2049  0.4235 -0.0990
  502MOL0     C67669   6.825   4.818   7.221 -0.1817 -1.3020 -0.0722
  502MOL0     O67670   6.914   4.755   7.148  0.0404  0.1576 -1.0072
  502MOL0     C67671   6.958   4.626   7.207 -0.4211 -0.6556  0.7746
  502MOL0     C67672   7.014   4.531   7.102 -0.4967  0.5967 -0.3271
  502MOL0     C67673   7.026   4.382   7.137 -0.0095 -1.3382 -0.0934
  502MOL0     C67674   7.117   4.300   7.052 -0.5653 -0.5021 -0.6922
  502MOL0     C67675   7.261   4.299   7.100 -0.1910  0.2567  0.0785
  502MOL0     C67676   7.343   4.187   7.014 -1.5043 -0.0959 -0.8557
  502MOL0     C67677   7.337   4.225   6.861 -0.5225 -0.1785 -0.7328
  502MOL0     C67678   7.446   4.149   6.780 -0.8422 -0.3613  0.1841
  502MOL0    Cl67679   7.373   3.984   6.726  0.2960  0.1684 -0.2446
  502MOL0     C67680   6.852   4.961   7.225 -0.1565  1.1285  0.3469
  502MOL0     C67681   6.773   5.055   7.292  0.4889 -0.5136 -0.5284
  502MOL0     O67682   6.560   4.991   7.636 -0.1186  0.6371 -0.3946
  502MOL0     C67683   6.437   5.221   7.746 -0.7282  0.5839 -0.5229
  502MOL0     C67684   6.372   5.333   7.798  0.1802 -0.4853 -0.1724
  502MOL0     N67685   6.054   5.955   8.067  0.3939 -0.0087 -0.5526
  502MOL0     N67686   6.076   6.062   8.139 -0.3312  0.7745  0.0617
  502MOL0     C67687   6.384   7.142   8.843  0.2394 -0.2719  0.0635
  502MOL0     C67688   6.321   7.250   8.898 -0.1267 -0.1265 -0.6101
  502MOL0     C67689   5.982   7.528   9.011  0.8094  0.7842  0.1111
  502MOL0     C67690   6.010   7.537   9.154 -0.2991  0.1008 -0.6046
  502MOL0     C67691   5.963   7.647   9.229  0.0505  0.5559  0.4411
  502MOL0     C67692   5.881   7.736   9.165 -0.0244 -0.4100 -0.2909
  502MOL0     O67693   5.823   7.818   9.261  0.1746  0.3549 -0.3563
  502MOL0     C67694   5.759   7.936   9.222  0.1960  0.5414  0.7661
  502MOL0     C67695   5.708   8.008   9.350 -0.5271 -0.2465  0.0648
  502MOL0     C67696   5.595   7.931   9.411 -0.6834  0.1440  0.1773
  502MOL0     C67697   5.560   8.001   9.536 -0.3220  0.7578  0.1325
  502MOL0     C67698   5.435   7.942   9.589  0.1629  0.3691 -1.0433
  502MOL0     C67699   5.338   7.910   9.648 -1.0386 -0.9817 -0.2979
  502MOL0     C67700   5.853   7.730   9.027 -0.8708 -0.5544 -0.1399
  502MOL0     C67701   5.903   7.621   8.948 -0.4414  0.2035  0.1620
  502MOL0     C67702   5.854   7.612   8.802  0.4463  0.2251  0.0401
  502MOL0     H67703   6.005   7.124   8.936 -0.0149 -2.0741 -1.8476
  502MOL0     H67704   6.116   6.927   8.820  2.1835 -1.8972 -1.1869
  502MOL0     H67705   6.205   6.890   8.622  0.9603  1.5381  2.7956
  502MOL0     H67706   6.367   6.844   8.552  1.0975 -0.8451  0.9015
  502MOL0     H67707   6.209   6.718   8.786  2.5217 -2.2446  0.7664
  502MOL0     H67708   6.369   6.692   8.755  1.8636  3.3647  1.9225
  502MOL0     H67709   6.298   6.623   8.519 -0.6321 -2.0320 -0.5297
  502MOL0     H67710   6.122   6.614   8.582 -0.0731 -1.5458  0.8385
  502MOL0     H67711   6.376   6.463   8.665 -0.0462  0.6139 -2.0576
  502MOL0     H67712   6.212   6.459   8.747 -1.9130 -0.3751 -1.2293
  502MOL0     H67713   6.209   6.261   8.618 -4.5668 -1.7812 -4.7720
  502MOL0     H67714   6.115   6.366   8.530 -0.7433 -1.8425  1.8772
  502MOL0     H67715   6.328   6.421   8.395 -1.1752  0.0901  1.0321
  502MOL0     H67716   6.394   6.284   8.473  0.2314 -2.2590 -1.5154
  502MOL0     H67717   6.335   6.204   8.262 -2.2339 -1.6542 -1.5703
  502MOL0     H67718   6.173   6.288   8.274  0.8405  2.0228 -0.0482
  502MOL0     H67719   6.259   6.042   8.428 -0.7002 -1.4325  1.2390
  502MOL0     H67720   6.094   6.098   8.422 -1.1788 -0.8813 -0.5653
  502MOL0     H67721   6.189   5.820   8.332  0.4706  0.9061  0.9693
  502MOL0     H67722   5.971   5.673   8.152 -1.1556 -0.2370 -3.2591
  502MOL0     H67723   6.020   5.700   8.000 -2.3812 -1.3837  0.0756
  502MOL0     H67724   6.214   5.582   8.194  1.3881  3.2337 -0.6556
  502MOL0     H67725   6.102   5.499   8.072  0.9849  0.6148 -4.5064
  502MOL0     H67726   6.365   5.553   8.016 -2.6377 -1.3256  1.8529
  502MOL0     H67727   6.293   5.713   7.987 -0.1095 -0.0083 -0.3382
  502MOL0     H67728   6.131   5.647   7.835  0.0604  0.1093 -0.0405
  502MOL0     H67729   6.159   5.481   7.857  0.8669 -0.2203  2.5438
  502MOL0     H67730   6.424   5.537   7.528 -0.4154  2.1062  1.6510
  502MOL0     H67731   6.506   5.320   7.430  1.4636  1.7200  0.4636
  502MOL0     H67732   6.555   4.843   7.425 -1.8726  0.6104 -2.8999
  502MOL0     H67733   6.699   4.684   7.326 -1.1211  0.6652 -0.9214
  502MOL0     H67734   7.034   4.651   7.282 -1.3868  3.0369  0.7201
  502MOL0     H67735   6.869   4.581   7.251 -1.3124  0.6359  0.3409
  502MOL0     H67736   6.967   4.545   7.004  2.7254  0.3938 -2.0526
  502MOL0     H67737   7.121   4.550   7.090 -0.3013  0.1238  0.5932
  502MOL0     H67738   7.052   4.384   7.244 -3.9668 -1.3293  1.0048
  502MOL0     H67739   6.935   4.324   7.155 -0.7937  0.1446  0.9443
  502MOL0     H67740   7.113   4.333   6.947 -0.1913 -1.7160 -1.0999
  502MOL0     H67741   7.081   4.197   7.055  1.3982 -1.2573 -1.6219
  502MOL0     H67742   7.263   4.266   7.204 -1.5133  1.6727  0.5967
  502MOL0     H67743   7.309   4.396   7.081  3.4669 -1.0389  1.7311
  502MOL0     H67744   7.446   4.178   7.049 -2.1430 -4.2283  0.4252
  502MOL0     H67745   7.309   4.086   7.037  0.4708 -0.7715 -0.7180
  502MOL0     H67746   7.341   4.333   6.844  2.2623 -0.4652 -2.5770
  502MOL0     H67747   7.246   4.199   6.808  0.7449 -3.9709 -1.3239
  502MOL0     H67748   7.462   4.200   6.685 -2.5609 -2.7310 -1.5084
  502MOL0     H67749   7.544   4.154   6.829  1.3155 -2.4620 -3.4994
  502MOL0     H67750   6.946   4.981   7.175 -1.2026 -1.7324 -3.2195
  502MOL0     H67751   6.800   5.160   7.280 -0.5529 -0.1956 -0.1817
  502MOL0     H67752   6.450   5.130   7.804 -0.6192  0.7625 -0.2661
  502MOL0     H67753   6.344   5.335   7.902 -0.9525 -0.1184 -0.4691
  502MOL0     H67754   6.482   7.158   8.801 -0.4289  0.2274 -1.3557
  502MOL0     H67755   6.368   7.345   8.921  2.3390 -1.4432  0.1738
  502MOL0     H67756   6.078   7.475   9.211  1.1624  1.1516 -1.1420
  502MOL0     H67757   5.970   7.658   9.336 -1.1122  1.0505  0.4859
  502MOL0     H67758   5.678   7.914   9.152  2.4690 -1.2161 -1.5047
  502MOL0     H67759   5.834   7.992   9.165  0.5852 -0.2630  0.4740
  502MOL0     H67760   5.672   8.110   9.331 -2.2907 -0.8056  0.2147
  502MOL0     H67761   5.796   8.004   9.415 -1.0245  1.1073  0.8661
  502MOL0     H67762   5.616   7.826   9.431  1.1674 -0.1697 -2.7745
  502MOL0     H67763   5.508   7.931   9.343 -0.8609 -1.0494  0.3847
  502MOL0     H67764   5.640   7.990   9.610  0.3125 -0.7695 -0.7454
  502MOL0     H67765   5.549   8.109   9.527  2.2426  0.8922 -2.6504
  502MOL0     H67766   5.262   7.883   9.719 -1.3319 -0.8700 -0.5651
  502MOL0     H67767   5.787   7.806   8.987 -3.1733 -1.2049  2.1812
  502MOL0     H67768   5.919   7.648   8.721 -1.8742 -0.5639 -2.3357
  502MOL0     H67769   5.835   7.508   8.772  4.2578 -0.4306 -0.5656
  502MOL0     H67770   5.765   7.672   8.781  0.5077 -0.1926 -1.5792
  503MOL0     O67771   2.949   2.815   7.875 -0.2951 -0.1383  0.1582
  503MOL0     C67772   3.046   2.785   7.795 -0.0935  0.7303 -0.1436
  503MOL0     O67773   3.166   2.755   7.837 -0.1085  0.2604 -0.4837
  503MOL0     C67774   3.205   2.771   7.967  0.3194 -0.2647  0.2203
  503MOL0     C67775   3.329   2.834   7.993  0.8818  0.3559  0.3230
  503MOL0     C67776   3.375   2.832   8.122 -1.1976 -0.9812  0.5181
  503MOL0     C67777   3.313   2.763   8.224  0.4397  0.7778  0.2614
  503MOL0     O67778   3.349   2.759   8.353  0.2658  0.2815  0.0508
  503MOL0     C67779   3.475   2.816   8.392 -0.1239 -0.2107 -0.2100
  503MOL0     C67780   3.543   2.712   8.483  0.6107 -0.4366 -0.2837
  503MOL0     C67781   3.444   2.628   8.564 -0.0846 -0.0058 -0.3327
  503MOL0     C67782   3.508   2.541   8.670  0.0310  1.0482 -0.2571
  503MOL0     C67783   3.597   2.427   8.609 -0.8569 -0.7169  0.2361
  503MOL0     C67784   3.680   2.356   8.716 -0.7559  0.4689 -0.6163
  503MOL0     C67785   3.728   2.206   8.696 -0.0537 -0.7269  0.6206
  503MOL0     C67786   3.613   2.114   8.690 -0.5035 -0.5023  0.8853
  503MOL0     N67787   3.654   1.976   8.659  0.2585  0.8682 -1.2792
  503MOL0     C67788   3.672   1.934   8.533  0.1024  0.9590 -0.4191
  503MOL0     C67789   3.742   1.818   8.541  0.3381  1.1376 -0.4908
  503MOL0     C67790   3.787   1.731   8.424  0.5170  0.4423  0.6611
  503MOL0     C67791   3.685   1.633   8.365  0.5264  1.2010 -0.4872
  503MOL0     C67792   3.729   1.537   8.262 -0.0041 -0.3650  0.5988
  503MOL0     C67793   3.758   1.601   8.119  0.4388  0.5853 -0.3608
  503MOL0     O67794   3.899   1.639   8.104  0.0779 -0.1324 -0.1062
  503MOL0     C67795   3.945   1.697   7.986 -0.5683 -0.4996 -0.1948
  503MOL0     C67796   3.864   1.711   7.873 -0.1756 -0.2673  0.2048
  503MOL0     C67797   3.906   1.783   7.763  0.1259 -0.0596  0.9190
  503MOL0     C67798   4.030   1.849   7.762  0.3785  0.8833  0.2501
  503MOL0     C67799   4.056   1.953   7.653  0.2408  0.1406 -0.5155
  503MOL0     O67800   3.950   1.980   7.574 -0.3844  0.2746  0.2032
  503MOL0     C67801   3.972   2.048   7.458 -0.1773  0.1573 -0.2700
  503MOL0     C67802   3.931   2.000   7.341  0.0711 -0.1509  0.9721
  503MOL0     C67803   3.954   2.078   7.223 -0.3919 -0.5439 -0.1320
  503MOL0     C67804   3.996   2.211   7.229  1.0641  0.4395  0.2524
  503MOL0     O67805   4.009   2.301   7.121  0.7597 -0.2839  0.5415
  503MOL0     C67806   3.932   2.267   7.003 -0.3038 -0.7753 -0.0817
  503MOL0     C67807   3.980   2.369   6.901  0.4658 -0.4626 -0.5408
  503MOL0     C67808   3.948   2.511   6.929  0.2429 -0.8153  0.2007
  503MOL0     C67809   3.974   2.601   6.815  0.4777 -0.8567  0.4007
  503MOL0     C67810   3.963   2.757   6.836  0.1554 -0.3338  0.9199
  503MOL0     C67811   3.948   2.836   6.702  0.4052  0.2205 -0.8542
  503MOL0     C67812   3.916   2.986   6.724 -0.0844 -0.7890  0.0345
  503MOL0     C67813   3.922   3.067   6.592 -0.8383 -0.0133  0.5421
  503MOL0    Cl67814   3.820   2.982   6.470  0.4028 -0.0088  0.0522
  503MOL0     C67815   4.032   2.259   7.355 -0.2172  0.6734 -0.3459
  503MOL0     C67816   4.016   2.179   7.462 -0.0415  1.4873 -0.6679
  503MOL0     O67817   4.163   1.995   7.649 -0.0264 -0.2334  1.0955
  503MOL0     C67818   4.103   1.832   7.874 -0.6684  0.7541 -0.0202
  503MOL0     C67819   4.073   1.757   7.986 -0.2047  0.4164  0.0782
  503MOL0     N67820   3.751   1.785   8.675  0.8154  1.3048  0.9128
  503MOL0     N67821   3.701   1.880   8.742 -0.2425 -0.1827 -0.2612
  503MOL0     C67822   3.193   2.694   8.190  0.1745 -0.4530  0.0107
  503MOL0     C67823   3.138   2.697   8.066  0.2836 -0.2483 -0.3944
  503MOL0     C67824   3.006   2.808   7.657 -1.1557 -0.3218 -0.4517
  503MOL0     C67825   3.113   2.849   7.570  0.0875 -1.3196  0.5316
  503MOL0     C67826   3.090   2.875   7.435 -0.3140 -0.2719 -0.4312
  503MOL0     C67827   2.963   2.859   7.382  0.1526 -0.0908  0.1349
  503MOL0     O67828   2.918   2.898   7.251  0.0067 -0.2212 -0.2896
  503MOL0     C67829   3.015   2.971   7.184 -0.4736 -0.7366 -0.1937
  503MOL0     C67830   2.977   2.994   7.043  0.4760  1.2498  0.4430
  503MOL0     C67831   3.088   3.019   6.945  0.4381  0.7079  0.0206
  503MOL0     C67832   3.063   2.974   6.792 -0.6092  0.1752 -1.3596
  503MOL0     C67833   3.049   2.831   6.792  1.0054  0.3097 -0.9302
  503MOL0     C67834   3.039   2.714   6.829  0.8275  0.0837 -0.4036
  503MOL0     C67835   2.865   2.806   7.465  0.1594  0.4595  0.1975
  503MOL0     C67836   2.878   2.784   7.598 -0.2195  0.3465  0.2299
  503MOL0     C67837   2.748   2.732   7.669  1.6259 -0.4784  0.5293
  503MOL0     H67838   3.379   2.901   7.924  0.3818  1.1612  0.7229
  503MOL0     H67839   3.461   2.896   8.137 -0.2227 -1.4058 -2.5057
  503MOL0     H67840   3.532   2.841   8.303 -1.3160  1.0835 -0.6512
  503MOL0     H67841   3.457   2.906   8.452 -1.5148 -0.5963 -0.0068
  503MOL0     H67842   3.619   2.755   8.549  0.6280  1.0316 -1.2267
  503MOL0     H67843   3.591   2.653   8.404  1.3213 -0.5517  0.2231
  503MOL0     H67844   3.375   2.563   8.508 -2.3332 -0.9415  3.1932
  503MOL0     H67845   3.380   2.694   8.622  0.3447  2.3645 -2.3969
  503MOL0     H67846   3.563   2.605   8.738 -1.5347 -0.0258  2.1582
  503MOL0     H67847   3.439   2.479   8.728  2.2411 -3.7461 -2.1625
  503MOL0     H67848   3.531   2.361   8.554  0.6604 -0.8917 -1.4596
  503MOL0     H67849   3.664   2.468   8.533 -0.7469 -1.2297  0.0563
  503MOL0     H67850   3.777   2.405   8.716  0.4820 -1.7859 -2.6541
  503MOL0     H67851   3.609   2.366   8.799 -1.3516  2.5622 -1.3167
  503MOL0     H67852   3.785   2.168   8.781 -0.7556 -1.2239  0.8779
  503MOL0     H67853   3.789   2.196   8.605 -1.4294 -3.2835 -0.1187
  503MOL0     H67854   3.553   2.114   8.782 -0.5808  2.5668  0.9467
  503MOL0     H67855   3.552   2.159   8.611  3.4864  3.5413 -0.3293
  503MOL0     H67856   3.632   1.989   8.448 -1.7743 -2.4657 -1.9819
  503MOL0     H67857   3.819   1.805   8.351 -2.9667  1.2371 -0.2076
  503MOL0     H67858   3.867   1.660   8.448  0.6201 -0.7851 -2.7827
  503MOL0     H67859   3.652   1.563   8.443 -1.5077 -0.6297 -2.8102
  503MOL0     H67860   3.590   1.678   8.333 -1.6722 -3.6649 -1.7802
  503MOL0     H67861   3.644   1.469   8.249 -0.4044  0.1861  0.3239
  503MOL0     H67862   3.822   1.485   8.288 -0.0602 -0.6134  0.3124
  503MOL0     H67863   3.690   1.686   8.117  3.1335  2.9348  0.2852
  503MOL0     H67864   3.748   1.526   8.040  1.1293 -0.0895  0.1804
  503MOL0     H67865   3.765   1.667   7.874  0.2502 -1.2765  0.2225
  503MOL0     H67866   3.834   1.791   7.682  0.1694 -1.1798  0.7652
  503MOL0     H67867   3.892   1.899   7.342 -3.2847  1.0416  1.5541
  503MOL0     H67868   3.932   2.032   7.127 -0.2083 -0.5705 -0.1603
  503MOL0     H67869   3.972   2.170   6.971  0.6164 -0.9090  1.3799
  503MOL0     H67870   3.824   2.260   7.021  0.0303 -0.5734  2.2810
  503MOL0     H67871   4.085   2.361   6.870  0.3122 -0.2055 -1.1441
  503MOL0     H67872   3.923   2.353   6.809  1.2209  0.3875 -1.1766
  503MOL0     H67873   3.843   2.506   6.961  0.3115 -2.2952  0.2915
  503MOL0     H67874   4.004   2.557   7.010  2.1285  0.3414 -1.6744
  503MOL0     H67875   3.916   2.566   6.729 -0.9075 -0.8147  1.2811
  503MOL0     H67876   4.079   2.585   6.791  0.7344  1.2195 -0.1055
  503MOL0     H67877   4.054   2.787   6.888  2.3555 -0.5262 -2.4580
  503MOL0     H67878   3.870   2.764   6.894 -0.3796  3.6634 -0.0706
  503MOL0     H67879   4.036   2.832   6.638 -0.1588 -1.1618 -1.5821
  503MOL0     H67880   3.867   2.779   6.656  1.7485 -1.5918 -1.0598
  503MOL0     H67881   3.989   3.037   6.788 -1.4978  0.5874  0.6414
  503MOL0     H67882   3.815   2.992   6.766 -0.3587  0.2159 -0.7213
  503MOL0     H67883   3.905   3.174   6.609 -0.3286  0.4120 -1.4082
  503MOL0     H67884   4.025   3.069   6.556 -0.6317  0.6763  1.1336
  503MOL0     H67885   4.071   2.358   7.376 -2.7767  2.2186 -2.2193
  503MOL0     H67886   4.046   2.207   7.563 -1.2968 -1.3315  0.6136
  503MOL0     H67887   4.195   1.891   7.872 -1.5199  2.1710  0.7884
  503MOL0     H67888   4.148   1.768   8.064  1.1442  4.0107 -1.4953
  503MOL0     H67889   3.146   2.641   8.272 -1.4856 -0.9939 -1.2469
  503MOL0     H67890   3.042   2.647   8.055 -0.4795  1.5728 -2.7511
  503MOL0     H67891   3.207   2.865   7.622 -0.0406  1.6122 -0.0125
  503MOL0     H67892   3.175   2.905   7.374 -0.9557 -2.1716 -2.3680
  503MOL0     H67893   3.111   2.919   7.183 -1.5182 -2.7640 -2.0751
  503MOL0     H67894   3.015   3.069   7.234 -1.2547 -0.0045 -1.5476
  503MOL0     H67895   2.898   3.069   7.035  1.4787  2.1740 -1.5144
  503MOL0     H67896   2.935   2.894   7.026 -0.0188  1.4992  0.1894
  503MOL0     H67897   3.181   2.972   6.978  0.3912  0.9591  0.5219
  503MOL0     H67898   3.111   3.126   6.948  1.1284  0.6146  3.7477
  503MOL0     H67899   2.983   3.038   6.754 -0.3012 -0.6385 -3.4992
  503MOL0     H67900   3.155   2.998   6.738  0.9074  1.1975  1.4739
  503MOL0     H67901   3.053   2.612   6.859  2.2389  0.1345 -0.7990
  503MOL0     H67902   2.777   2.778   7.408  0.2810 -0.2138  0.3331
  503MOL0     H67903   2.700   2.643   7.625  2.3980 -0.7026  0.1267
  503MOL0     H67904   2.762   2.720   7.777  1.7455  3.5418  1.0861
  503MOL0     H67905   2.678   2.815   7.659 -0.5372 -2.1892  0.6217
  504MOL0     O67906   6.018   7.786   8.293  0.5415  0.4526  0.0814
  504MOL0     C67907   6.008   7.737   8.180  0.1782  0.1320 -0.5546
  504MOL0     O67908   5.902   7.664   8.139  0.8223 -0.9408  0.0693
  504MOL0     C67909   5.787   7.634   8.221  0.3054  0.6906  0.2137
  504MOL0     C67910   5.807   7.572   8.342 -1.1362 -0.0766 -0.1450
  504MOL0     C67911   5.695   7.507   8.403 -0.7985 -0.5551 -0.2267
  504MOL0     C67912   5.566   7.507   8.347 -0.0658 -0.0307  0.7465
  504MOL0     O67913   5.466   7.437   8.409 -0.4046 -0.2499 -0.1030
  504MOL0     C67914   5.333   7.502   8.434  0.2968  0.6672  0.3455
  504MOL0     C67915   5.322   7.525   8.588  0.1177 -0.4826  1.5648
  504MOL0     C67916   5.409   7.631   8.638  0.4846  0.0424 -0.1904
  504MOL0     C67917   5.376   7.676   8.791 -0.6065  0.1767  0.2021
  504MOL0     C67918   5.459   7.796   8.845  0.0239  0.4867  0.4206
  504MOL0     C67919   5.412   7.937   8.804 -0.6969  0.0852 -0.1883
  504MOL0     C67920   5.514   8.037   8.869  0.3529 -0.7611  0.8341
  504MOL0     C67921   5.477   8.182   8.843  0.0143 -0.5092  0.0960
  504MOL0     N67922   5.569   8.284   8.906  0.5558  0.2223  0.5315
  504MOL0     C67923   5.673   8.351   8.843 -0.8392  0.7763  0.0925
  504MOL0     C67924   5.732   8.419   8.947  0.9723 -0.7788 -0.0496
  504MOL0     C67925   5.848   8.519   8.941 -0.6191 -0.9813  0.6040
  504MOL0     C67926   5.881   8.560   8.798  0.3433 -0.1783  0.8184
  504MOL0     C67927   5.947   8.706   8.803 -0.3185  0.2383 -0.4640
  504MOL0     C67928   6.074   8.714   8.887 -0.4565  0.7578 -0.6784
  504MOL0     O67929   6.179   8.757   8.800 -0.2685  0.0261 -0.1666
  504MOL0     C67930   6.306   8.756   8.848 -0.2662  0.2650 -0.1784
  504MOL0     C67931   6.352   8.745   8.986 -0.2324  1.1587 -0.3614
  504MOL0     C67932   6.490   8.737   9.023  1.1219  0.0849 -0.1906
  504MOL0     C67933   6.588   8.750   8.928  0.7818  0.2232  0.0221
  504MOL0     C67934   6.728   8.767   8.966  0.1811 -0.4659 -0.6563
  504MOL0     O67935   6.827   8.743   8.867  0.4923  1.2690 -0.0900
  504MOL0     C67936   6.955   8.716   8.897  0.0669  0.2676  0.3837
  504MOL0     C67937   7.010   8.653   9.011  0.7713 -0.0174 -0.6563
  504MOL0     C67938   7.141   8.609   9.020 -0.1714  0.2968  0.0183
  504MOL0     C67939   7.230   8.614   8.907  0.4078  0.6356  0.0323
  504MOL0     O67940   7.366   8.577   8.905 -0.2539 -0.0891  0.3229
  504MOL0     C67941   7.411   8.487   9.002  0.0540  0.1919 -0.5675
  504MOL0     C67942   7.505   8.388   8.939 -0.8587 -0.5894 -0.6763
  504MOL0     C67943   7.498   8.255   9.004 -0.7404 -0.1697  0.7041
  504MOL0     C67944   7.617   8.153   8.973 -0.2178  0.2310  0.9067
  504MOL0     C67945   7.576   8.005   9.005 -0.4416 -0.3344  1.1063
  504MOL0     C67946   7.687   7.897   8.966  0.4860 -0.4881  0.0482
  504MOL0     C67947   7.736   7.892   8.811  0.2237 -0.1461 -0.1925
  504MOL0     C67948   7.823   7.770   8.785 -0.5388 -0.7488  0.2147
  504MOL0    Cl67949   7.969   7.787   8.867 -0.0342 -0.1522 -0.0322
  504MOL0     C67950   7.166   8.661   8.793  0.1167 -0.6597  0.1023
  504MOL0     C67951   7.040   8.709   8.787  0.7359  0.2068  0.1743
  504MOL0     O67952   6.752   8.798   9.085 -0.3396 -1.1270  0.3828
  504MOL0     C67953   6.541   8.752   8.799  1.0607 -0.6018  0.7716
  504MOL0     C67954   6.404   8.750   8.757  0.7314  0.5506 -0.7487
  504MOL0     N67955   5.658   8.397   9.067  0.4052 -0.1002 -0.0968
  504MOL0     N67956   5.566   8.311   9.037 -0.6775  0.8043 -0.0577
  504MOL0     C67957   5.551   7.586   8.233 -0.4379 -0.0060 -0.9060
  504MOL0     C67958   5.661   7.651   8.163  0.5726  0.3218 -1.2100
  504MOL0     C67959   6.134   7.729   8.116 -0.5263 -0.0629 -0.5285
  504MOL0     C67960   6.136   7.651   8.002 -0.2337 -0.0447 -0.7501
  504MOL0     C67961   6.258   7.632   7.929 -0.0506 -0.3618  0.0407
  504MOL0     C67962   6.376   7.689   7.966  0.2575 -0.7320 -0.1036
  504MOL0     O67963   6.496   7.684   7.901  0.8776 -0.3588 -0.1510
  504MOL0     C67964   6.529   7.576   7.815 -0.2562 -0.3784  0.1679
  504MOL0     C67965   6.642   7.620   7.715  0.5455 -0.0565  0.1869
  504MOL0     C67966   6.692   7.492   7.657  0.6390 -0.8003 -0.0432
  504MOL0     C67967   6.785   7.416   7.757  0.3669 -0.6797 -0.9844
  504MOL0     C67968   6.922   7.382   7.722 -0.4264  0.3755  0.2490
  504MOL0     C67969   7.037   7.343   7.715 -0.2005  0.4102  0.0107
  504MOL0     C67970   6.376   7.761   8.079  0.4798 -0.0611 -0.4391
  504MOL0     C67971   6.261   7.785   8.153 -0.4819  0.8206 -0.2076
  504MOL0     C67972   6.288   7.896   8.270  0.0357  0.5828 -0.2460
  504MOL0     H67973   5.908   7.570   8.380 -0.7542  1.3108 -1.0403
  504MOL0     H67974   5.713   7.445   8.490 -0.1762 -2.3135 -1.5271
  504MOL0     H67975   5.324   7.586   8.365  0.4982 -0.9522 -1.7511
  504MOL0     H67976   5.252   7.430   8.419  2.5522 -1.6452 -1.8655
  504MOL0     H67977   5.335   7.426   8.632  0.0743 -1.7746 -1.1338
  504MOL0     H67978   5.226   7.572   8.612  1.5185  3.3523  0.4062
  504MOL0     H67979   5.385   7.709   8.565  0.5773 -2.5860 -3.2879
  504MOL0     H67980   5.512   7.600   8.618  1.2669  1.4417  1.5261
  504MOL0     H67981   5.272   7.707   8.807 -0.7041 -1.5533  3.8908
  504MOL0     H67982   5.401   7.595   8.860  0.9241  0.1381 -0.3483
  504MOL0     H67983   5.456   7.783   8.954 -1.9652  0.6173  0.4206
  504MOL0     H67984   5.564   7.780   8.821  0.2065  3.2580 -0.9478
  504MOL0     H67985   5.397   7.957   8.698  0.0814  0.3363 -0.2552
  504MOL0     H67986   5.309   7.948   8.840 -0.9324 -3.1574  0.4555
  504MOL0     H67987   5.609   8.020   8.817 -0.4685 -1.0082 -0.6335
  504MOL0     H67988   5.513   7.995   8.970 -2.7190 -1.7859  0.4602
  504MOL0     H67989   5.478   8.204   8.736 -1.0449  0.9003  0.3386
  504MOL0     H67990   5.377   8.199   8.883  0.2288  1.0173  0.0742
  504MOL0     H67991   5.702   8.344   8.738 -0.2405 -0.7977  0.3405
  504MOL0     H67992   5.818   8.605   9.001 -1.3488 -0.6080 -0.2698
  504MOL0     H67993   5.938   8.475   8.985 -0.5888 -0.0466  1.5168
  504MOL0     H67994   5.942   8.482   8.750  0.1767 -1.1709  2.1526
  504MOL0     H67995   5.793   8.568   8.733  2.5660 -0.4295 -2.5131
  504MOL0     H67996   5.867   8.776   8.827 -1.5168 -0.8875 -1.0461
  504MOL0     H67997   5.986   8.739   8.706  0.5170  0.2569 -0.1268
  504MOL0     H67998   6.105   8.619   8.931 -0.8619  0.9655  0.0810
  504MOL0     H67999   6.060   8.779   8.975  0.5933 -1.6689  1.4014
  504MOL0     H68000   6.280   8.749   9.067  0.0835  0.9422 -0.0590
  504MOL0     H68001   6.532   8.729   9.122  0.9084 -1.4681 -0.1910
  504MOL0     H68002   6.944   8.616   9.090  0.9788  1.2283  0.1290
  504MOL0     H68003   7.173   8.575   9.118  1.6668 -0.5462 -0.8261
  504MOL0     H68004   7.470   8.530   9.083 -1.1543  0.2750  0.3007
  504MOL0     H68005   7.320   8.444   9.045 -0.4536  1.2108 -0.6094
  504MOL0     H68006   7.484   8.380   8.832  1.4345  1.2158 -1.3458
  504MOL0     H68007   7.610   8.419   8.946 -1.6943  2.4179  0.2438
  504MOL0     H68008   7.479   8.263   9.112 -2.2618  0.9205  0.3864
  504MOL0     H68009   7.400   8.221   8.971  0.0854 -1.2929 -0.7251
  504MOL0     H68010   7.704   8.186   9.029  0.9756 -0.8781 -0.2319
  504MOL0     H68011   7.647   8.153   8.868  0.3281  0.5277  1.0611
  504MOL0     H68012   7.481   7.991   8.954  0.3944  0.2347 -0.7042
  504MOL0     H68013   7.564   7.986   9.112 -0.7305  1.1006  1.3523
  504MOL0     H68014   7.771   7.905   9.036 -0.6998  0.0074  1.4474
  504MOL0     H68015   7.641   7.799   8.982 -1.5476 -0.1921 -3.1344
  504MOL0     H68016   7.804   7.973   8.784 -0.5949 -0.3116 -3.1343
  504MOL0     H68017   7.639   7.888   8.760 -1.1608  1.4707  2.1424
  504MOL0     H68018   7.779   7.674   8.814  0.6174 -1.0818  0.9458
  504MOL0     H68019   7.860   7.767   8.682  0.0182  2.6293  0.2060
  504MOL0     H68020   7.227   8.672   8.704  0.6598  5.6495  0.8014
  504MOL0     H68021   7.012   8.750   8.690 -2.2975 -1.0561  0.4125
  504MOL0     H68022   6.619   8.746   8.723 -2.7574 -0.0564 -3.6373
  504MOL0     H68023   6.386   8.752   8.650  0.5917  2.8067 -0.7311
  504MOL0     H68024   5.458   7.619   8.188  0.2232  2.8202 -0.3916
  504MOL0     H68025   5.648   7.707   8.071  2.3058 -0.4077 -1.9350
  504MOL0     H68026   6.044   7.596   7.984 -1.7188  2.9429 -3.3462
  504MOL0     H68027   6.259   7.562   7.846 -1.8989  1.8316 -1.9623
  504MOL0     H68028   6.448   7.537   7.752  0.4010 -0.6737 -0.5109
  504MOL0     H68029   6.563   7.500   7.886 -0.6974  0.0823  0.8806
  504MOL0     H68030   6.716   7.681   7.767 -1.2627  3.2345 -0.7979
  504MOL0     H68031   6.595   7.685   7.640 -1.6433 -1.9543 -0.2286
  504MOL0     H68032   6.745   7.512   7.563  1.7587 -1.7020  0.3776
  504MOL0     H68033   6.606   7.429   7.634  1.2157 -1.3355 -0.7991
  504MOL0     H68034   6.793   7.485   7.841 -0.4488 -3.4370  1.5406
  504MOL0     H68035   6.742   7.324   7.797 -0.8187 -0.2676 -1.2713
  504MOL0     H68036   7.135   7.317   7.679 -0.2278 -0.8803  0.7972
  504MOL0     H68037   6.471   7.797   8.117  0.6933 -0.1849 -0.8529
  504MOL0     H68038   6.378   7.955   8.252  1.0607 -0.5093  1.0557
  504MOL0     H68039   6.197   7.955   8.281  0.7403  1.5610  0.4751
  504MOL0     H68040   6.301   7.850   8.369 -2.9605  0.6395  0.2487
  505MOL0     O68041   7.385   0.191   9.907  0.2337  0.3363  0.5162
  505MOL0     C68042   7.451   0.281   9.848  0.4201  0.7585  0.3573
  505MOL0     O68043   7.395   0.387   9.791 -0.2190 -0.4026 -0.7858
  505MOL0     C68044   7.258   0.400   9.796  0.1323 -0.2049 -0.0742
  505MOL0     C68045   7.169   0.378   9.686 -0.2360  0.7454 -0.1473
  505MOL0     C68046   7.033   0.390   9.693  0.0086 -0.5890  0.4264
  505MOL0     C68047   6.980   0.429   9.818  0.3221  0.2317 -0.0682
  505MOL0     O68048   6.843   0.433   9.851 -0.2300  0.1301  0.7266
  505MOL0     C68049   6.753   0.339   9.793 -0.4540 -0.0778 -0.4382
  505MOL0     C68050   6.604   0.398   9.791 -0.3723 -0.3934  0.3469
  505MOL0     C68051   6.501   0.290   9.762  0.6911 -0.0006  0.3386
  505MOL0     C68052   6.519   0.212   9.627  0.2612  0.7618  0.1326
  505MOL0     C68053   6.474   0.289   9.504 -0.3259  0.5807  0.5331
  505MOL0     C68054   6.320   0.321   9.501  0.1117 -0.6630  0.8715
  505MOL0     C68055   6.232   0.198   9.528  0.1475  0.7000  0.3559
  505MOL0     C68056   6.085   0.245   9.524  0.3348 -0.0291  0.0943
  505MOL0     N68057   5.984   0.141   9.549 -0.1564  0.6212  0.4619
  505MOL0     C68058   5.926   0.065   9.456  0.5741 -1.2061  0.4397
  505MOL0     C68059   5.855  -0.023   9.521 -0.4981  0.3631 -0.6216
  505MOL0     C68060   5.783  -0.143   9.453 -0.7196 -0.5066 -0.7162
  505MOL0     C68061   5.876  -0.246   9.388 -0.2510 -1.0242  0.4903
  505MOL0     C68062   5.812  -0.358   9.311 -0.1801  0.4836 -0.6848
  505MOL0     C68063   5.909  -0.458   9.254 -0.8843 -0.7385  0.0914
  505MOL0     O68064   5.851  -0.561   9.165  0.1556 -0.5185 -0.2822
  505MOL0     C68065   5.783  -0.662   9.221 -0.3101  0.5142 -0.2493
  505MOL0     C68066   5.836  -0.740   9.334 -0.0406  0.1814  0.3416
  505MOL0     C68067   5.790  -0.859   9.380  0.1429  0.1111 -0.2869
  505MOL0     C68068   5.680  -0.910   9.311 -0.2402  0.6327  0.0186
  505MOL0     C68069   5.615  -1.035   9.354  0.1585  0.0596 -0.8781
  505MOL0     O68070   5.676  -1.083   9.466 -0.0447 -0.3281 -0.2647
  505MOL0     C68071   5.622  -1.184   9.542  0.8945  0.7668  0.8716
  505MOL0     C68072   5.543  -1.293   9.491 -1.2737 -0.3740  0.6446
  505MOL0     C68073   5.489  -1.378   9.581 -0.0715  0.9074  0.0037
  505MOL0     C68074   5.520  -1.372   9.713 -1.0317 -0.4899 -1.2476
  505MOL0     O68075   5.462  -1.480   9.772  0.0041 -1.0920  0.1539
  505MOL0     C68076   5.509  -1.513   9.901  0.4182  0.5568  0.1525
  505MOL0     C68077   5.466  -1.654   9.936  0.5775  0.1408  0.7047
  505MOL0     C68078   5.497  -1.671  10.083 -0.9812  1.6779 -0.1017
  505MOL0     C68079   5.460  -1.811  10.151 -0.4629  0.3563 -0.6316
  505MOL0     C68080   5.496  -1.789  10.300  0.2945  0.7026 -0.5806
  505MOL0     C68081   5.570  -1.909  10.362 -0.5079 -0.2300 -0.2490
  505MOL0     C68082   5.714  -1.945  10.302  0.7154  0.5275 -0.5445
  505MOL0     C68083   5.750  -2.095  10.329  1.0201  0.0978 -0.3458
  505MOL0    Cl68084   5.731  -2.113  10.509 -0.1739  0.2248  0.2985
  505MOL0     C68085   5.598  -1.266   9.767  0.6586  0.5019  0.6135
  505MOL0     C68086   5.646  -1.169   9.683 -0.7299  0.2496  0.2335
  505MOL0     O68087   5.499  -1.065   9.312  0.7363 -0.6579 -0.4811
  505MOL0     C68088   5.620  -0.849   9.201 -0.7170 -0.8125 -0.0195
  505MOL0     C68089   5.673  -0.724   9.159 -1.1750  0.6124  0.1770
  505MOL0     N68090   5.869  -0.001   9.661 -0.4022 -0.9703  0.9473
  505MOL0     N68091   5.942   0.105   9.670 -0.5941 -1.2615 -0.3985
  505MOL0     C68092   7.067   0.453   9.926 -0.2862  0.0790 -0.2219
  505MOL0     C68093   7.204   0.439   9.914  0.0925  0.9744 -0.9114
  505MOL0     C68094   7.593   0.284   9.864 -0.5070 -0.4515  0.0029
  505MOL0     C68095   7.653   0.412   9.867 -0.2811  1.0894  0.0415
  505MOL0     C68096   7.793   0.429   9.864 -0.3970 -0.1206  0.2697
  505MOL0     C68097   7.876   0.318   9.850  0.0271  0.7824  0.7046
  505MOL0     O68098   8.010   0.340   9.849  0.0222  0.1554  0.4414
  505MOL0     C68099   8.109   0.266   9.780 -0.0637  0.0308  0.0359
  505MOL0     C68100   8.113   0.311   9.634  0.1816 -0.0716  0.7363
  505MOL0     C68101   7.996   0.285   9.540  0.1394 -0.5419  0.0959
  505MOL0     C68102   8.018   0.152   9.473 -0.2717 -0.2739  0.5408
  505MOL0     C68103   7.899   0.113   9.389  0.5905  1.1026  0.5960
  505MOL0     C68104   7.813   0.084   9.312  0.5069 -0.0254 -0.0648
  505MOL0     C68105   7.819   0.190   9.851  0.3447  0.4594 -0.1147
  505MOL0     C68106   7.678   0.174   9.867 -0.2816 -0.4021  0.4705
  505MOL0     C68107   7.628   0.038   9.862  0.1037 -0.0954  0.0048
  505MOL0     H68108   7.211   0.339   9.593 -0.0539 -0.9465  0.6200
  505MOL0     H68109   6.977   0.369   9.602  0.1343 -0.0784  0.2308
  505MOL0     H68110   6.783   0.328   9.688 -0.6415  2.8110 -0.8754
  505MOL0     H68111   6.764   0.245   9.848  0.3108  0.0296 -0.3987
  505MOL0     H68112   6.607   0.475   9.713  0.3206 -2.1731 -1.4841
  505MOL0     H68113   6.578   0.439   9.888  0.2076 -4.0200  2.2266
  505MOL0     H68114   6.400   0.333   9.767  0.5254 -0.4286  0.7122
  505MOL0     H68115   6.517   0.219   9.844  0.9176  0.9299  1.1174
  505MOL0     H68116   6.623   0.179   9.626 -0.3129 -1.1554  0.4122
  505MOL0     H68117   6.459   0.121   9.630  0.4996  0.6126  3.1025
  505MOL0     H68118   6.529   0.384   9.496  0.3535  0.0332 -4.0847
  505MOL0     H68119   6.496   0.245   9.406  0.4867  2.0462  0.0097
  505MOL0     H68120   6.307   0.405   9.571  0.5581 -0.0446  0.2341
  505MOL0     H68121   6.299   0.359   9.401  0.2813 -2.2091  0.2257
  505MOL0     H68122   6.254   0.154   9.625  1.2793  0.0340 -0.1834
  505MOL0     H68123   6.240   0.125   9.447  1.1880  1.7326 -0.5058
  505MOL0     H68124   6.063   0.326   9.594 -1.1838  0.1358 -0.5459
  505MOL0     H68125   6.064   0.289   9.426 -1.0410 -0.7746  0.0416
  505MOL0     H68126   5.927   0.085   9.349 -0.0393  2.1473  0.9517
  505MOL0     H68127   5.727  -0.192   9.532  0.9847 -2.9176 -0.8903
  505MOL0     H68128   5.709  -0.104   9.383  2.1926 -0.0018 -3.7961
  505MOL0     H68129   5.933  -0.189   9.315 -0.1622  1.0394  2.0865
  505MOL0     H68130   5.938  -0.285   9.470 -2.6474 -1.8077  2.0327
  505MOL0     H68131   5.742  -0.322   9.235 -2.9533 -2.8993  0.0488
  505MOL0     H68132   5.753  -0.420   9.379  3.2918 -2.3810 -0.0089
  505MOL0     H68133   5.967  -0.503   9.334  2.1049 -2.0812 -2.6273
  505MOL0     H68134   5.981  -0.407   9.189 -3.7653 -0.8256 -3.4825
  505MOL0     H68135   5.911  -0.703   9.404 -2.0633 -0.0373  2.7369
  505MOL0     H68136   5.816  -0.881   9.483 -0.3260  0.6737 -0.0428
  505MOL0     H68137   5.532  -1.290   9.383 -3.1174 -0.3839  0.7984
  505MOL0     H68138   5.417  -1.452   9.548 -3.8538  3.2470  2.2251
  505MOL0     H68139   5.617  -1.506   9.886  0.3473  1.0976 -0.1324
  505MOL0     H68140   5.473  -1.437   9.971  1.1355  1.2055 -0.1667
  505MOL0     H68141   5.360  -1.669   9.913  0.8013 -1.0979  0.4262
  505MOL0     H68142   5.511  -1.734   9.877 -0.2333  0.1782  0.0071
  505MOL0     H68143   5.606  -1.662  10.088 -0.9608  0.8998  3.4754
  505MOL0     H68144   5.452  -1.589  10.141 -0.2474  1.8644  0.2087
  505MOL0     H68145   5.520  -1.891  10.107 -1.6565 -0.5206 -0.7119
  505MOL0     H68146   5.354  -1.834  10.141 -0.9130  1.2055  1.6969
  505MOL0     H68147   5.407  -1.756  10.356  2.1010  1.6302  1.9497
  505MOL0     H68148   5.561  -1.704  10.324  0.0809  0.9263 -0.7803
  505MOL0     H68149   5.576  -1.891  10.470 -0.1541 -1.4702 -0.0392
  505MOL0     H68150   5.518  -2.005  10.367 -0.6224 -0.1223  1.3225
  505MOL0     H68151   5.783  -1.892  10.368 -0.6254 -0.7886  2.0714
  505MOL0     H68152   5.726  -1.912  10.198 -1.4621 -2.8718 -2.0689
  505MOL0     H68153   5.680  -2.162  10.278  2.0992 -0.8431 -0.6200
  505MOL0     H68154   5.846  -2.139  10.303  2.0379  1.6909  0.5754
  505MOL0     H68155   5.608  -1.253   9.874 -3.0198 -5.6076  2.1472
  505MOL0     H68156   5.705  -1.088   9.724  2.4904 -3.1616  3.0895
  505MOL0     H68157   5.533  -0.892   9.152 -0.9376 -1.6079  1.0261
  505MOL0     H68158   5.624  -0.682   9.072  0.1793  1.3688 -0.2442
  505MOL0     H68159   7.023   0.491  10.018  0.6262  0.2250  0.1566
  505MOL0     H68160   7.260   0.460  10.005  1.2877 -2.5527 -0.6939
  505MOL0     H68161   7.586   0.498   9.865 -2.1341 -0.2606  0.9710
  505MOL0     H68162   7.821   0.533   9.857  0.0004 -0.1539  1.2187
  505MOL0     H68163   8.076   0.162   9.775  0.0818  0.0045 -0.4076
  505MOL0     H68164   8.201   0.271   9.839 -0.3863  0.2481  0.5253
  505MOL0     H68165   8.199   0.274   9.576  0.2615 -3.0749  2.5602
  505MOL0     H68166   8.123   0.419   9.636  2.2557 -0.1571 -1.1285
  505MOL0     H68167   8.018   0.358   9.461  0.1687 -0.4561  0.1840
  505MOL0     H68168   7.895   0.303   9.578  0.0856  0.1121 -0.3273
  505MOL0     H68169   8.098   0.150   9.399  0.5026  1.3993  1.2949
  505MOL0     H68170   8.049   0.082   9.552  0.9915  0.8566  1.0822
  505MOL0     H68171   7.724   0.065   9.255  0.2518 -0.4352  0.4606
  505MOL0     H68172   7.897   0.114   9.845  0.2063 -0.0549  3.1982
  505MOL0     H68173   7.714  -0.029   9.871  1.8182  1.8973 -0.8759
  505MOL0     H68174   7.557   0.016   9.943 -2.8738 -0.9681 -2.6169
  505MOL0     H68175   7.589   0.020   9.762  3.3347 -2.7135 -0.9545
  506MOL0     O68176   7.382   8.015   3.258 -0.1892  0.4737  0.1207
  506MOL0     C68177   7.504   8.016   3.282 -0.1775  0.5002 -0.0811
  506MOL0     O68178   7.600   8.107   3.229  0.0257  0.0705 -0.3426
  506MOL0     C68179   7.571   8.209   3.134  0.1515  0.1415 -0.5550
  506MOL0     C68180   7.679   8.282   3.085  0.4868  0.3240 -0.7131
  506MOL0     C68181   7.660   8.397   3.012 -0.9187 -0.1562 -0.1653
  506MOL0     C68182   7.539   8.443   2.975 -0.2109 -0.2789 -0.8996
  506MOL0     O68183   7.538   8.547   2.885  0.0002  0.2325  0.5816
  506MOL0     C68184   7.414   8.614   2.900 -0.0472 -0.1547  0.6962
  506MOL0     C68185   7.411   8.741   2.814 -0.5120 -0.2496 -0.1904
  506MOL0     C68186   7.431   8.710   2.659  0.6013  0.0633  0.2910
  506MOL0     C68187   7.317   8.639   2.592  0.1611 -0.8573  0.0926
  506MOL0     C68188   7.354   8.630   2.438 -0.3390 -0.6117  0.1711
  506MOL0     C68189   7.277   8.752   2.382  0.3810 -0.1487 -0.3002
  506MOL0     C68190   7.326   8.790   2.245 -1.0934  0.1690  0.7742
  506MOL0     C68191   7.304   8.691   2.132 -0.2920 -0.3071 -0.6968
  506MOL0     N68192   7.349   8.744   2.001 -0.1853 -0.1791 -0.5618
  506MOL0     C68193   7.479   8.760   1.956 -0.2033 -0.3294  0.4231
  506MOL0     C68194   7.470   8.845   1.847 -0.2343 -0.0504 -0.2913
  506MOL0     C68195   7.577   8.896   1.751 -0.4375 -0.2278 -0.0354
  506MOL0     C68196   7.681   8.990   1.815 -0.2736 -0.4262  0.4032
  506MOL0     C68197   7.616   9.108   1.884 -0.0167  0.5277  0.5461
  506MOL0     C68198   7.723   9.221   1.895 -0.4033 -0.1554 -0.8790
  506MOL0     O68199   7.829   9.182   1.980 -0.2541  0.1804 -0.2486
  506MOL0     C68200   7.944   9.264   1.976 -0.8472  0.1506 -0.2459
  506MOL0     C68201   8.029   9.259   1.860  0.3152 -0.1929 -0.4864
  506MOL0     C68202   8.143   9.340   1.837  1.2579  0.2026  0.3706
  506MOL0     C68203   8.172   9.429   1.944  0.3790  0.0222  0.7041
  506MOL0     C68204   8.282   9.527   1.930 -0.6882 -0.7684 -0.1217
  506MOL0     O68205   8.382   9.508   1.831  0.6342  0.2922 -0.8183
  506MOL0     C68206   8.441   9.617   1.780  0.4898  1.1068 -0.1327
  506MOL0     C68207   8.574   9.615   1.754 -0.5607 -0.6794  0.7683
  506MOL0     C68208   8.641   9.733   1.705 -0.4618 -0.5462 -0.4364
  506MOL0     C68209   8.566   9.847   1.664 -0.3647  0.5111  0.3071
  506MOL0     O68210   8.613   9.971   1.622 -0.2748  0.2171  0.4901
  506MOL0     C68211   8.743  10.010   1.677  0.0686  0.0659 -0.6698
  506MOL0     C68212   8.761  10.162   1.652  0.3869  0.4337  0.4478
  506MOL0     C68213   8.883  10.230   1.724  0.1869 -0.9767 -0.2872
  506MOL0     C68214   8.857  10.267   1.870 -0.0254 -0.5558 -0.2252
  506MOL0     C68215   8.972  10.361   1.924 -0.2942 -0.1995 -1.8029
  506MOL0     C68216   8.959  10.392   2.071  0.5119  0.1638  0.7252
  506MOL0     C68217   9.078  10.480   2.113 -0.3377  0.7465 -0.9978
  506MOL0     C68218   9.211  10.408   2.099 -0.4174 -0.2229  0.0795
  506MOL0    Cl68219   9.217  10.256   2.205 -0.4340 -0.2425 -0.2849
  506MOL0     C68220   8.427   9.830   1.666 -0.0736  0.7148 -0.6773
  506MOL0     C68221   8.365   9.727   1.741  0.5297  0.8879 -0.0133
  506MOL0     O68222   8.273   9.636   1.990 -0.9931 -0.0961 -0.5442
  506MOL0     C68223   8.082   9.440   2.058  0.2734  0.1983 -0.0918
  506MOL0     C68224   7.971   9.359   2.077  0.4750 -0.3847  0.2029
  506MOL0     N68225   7.341   8.879   1.835 -0.1007 -0.5236  1.2496
  506MOL0     N68226   7.271   8.820   1.919  0.6586 -0.4206  0.4617
  506MOL0     C68227   7.430   8.361   3.006  0.1947 -0.6413 -0.5237
  506MOL0     C68228   7.444   8.239   3.079  0.6414 -1.0503  0.7589
  506MOL0     C68229   7.555   7.902   3.353 -0.7555 -0.9045 -0.2911
  506MOL0     C68230   7.492   7.774   3.347 -0.2697 -0.8465  0.5944
  506MOL0     C68231   7.545   7.670   3.413  0.6022 -0.2104  0.1367
  506MOL0     C68232   7.667   7.678   3.484  0.0590 -0.1532  0.4329
  506MOL0     O68233   7.715   7.583   3.564  0.1402  0.6858 -0.5826
  506MOL0     C68234   7.653   7.454   3.549 -0.2057 -0.2127  0.2231
  506MOL0     C68235   7.721   7.366   3.653 -0.2872 -0.6971 -0.0308
  506MOL0     C68236   7.663   7.218   3.635  1.0207  0.3856 -0.3233
  506MOL0     C68237   7.693   7.147   3.769  0.6043 -0.3688  0.4100
  506MOL0     C68238   7.826   7.086   3.783  1.0125 -0.0792 -0.7966
  506MOL0     C68239   7.939   7.055   3.779 -1.1199 -0.5937  0.4045
  506MOL0     C68240   7.737   7.794   3.464  0.0441  0.3068  0.3136
  506MOL0     C68241   7.682   7.910   3.414  0.3961  0.3638  0.0829
  506MOL0     C68242   7.758   8.041   3.440 -0.8949  0.1693  0.4427
  506MOL0     H68243   7.773   8.250   3.128 -0.0865  0.2677  0.5395
  506MOL0     H68244   7.746   8.455   2.979  2.1164 -4.3216 -0.5422
  506MOL0     H68245   7.326   8.559   2.866 -0.5781  1.6337 -1.0174
  506MOL0     H68246   7.394   8.640   3.004 -1.1618 -2.5798  1.1534
  506MOL0     H68247   7.489   8.809   2.849 -1.4954  2.5735 -3.0024
  506MOL0     H68248   7.318   8.797   2.828 -0.7161 -0.5845 -0.1928
  506MOL0     H68249   7.525   8.659   2.636  2.1464  2.6694  0.4785
  506MOL0     H68250   7.431   8.808   2.609  3.1220 -0.6074 -1.2045
  506MOL0     H68251   7.294   8.544   2.639 -1.9451 -0.0089  0.8918
  506MOL0     H68252   7.226   8.696   2.612  0.0935 -1.1601  0.6682
  506MOL0     H68253   7.462   8.630   2.418 -0.3902 -0.9085 -0.1087
  506MOL0     H68254   7.321   8.540   2.385  1.5270  0.3399 -2.8858
  506MOL0     H68255   7.171   8.726   2.378  0.4002 -0.2485 -0.1643
  506MOL0     H68256   7.273   8.833   2.455 -3.1753 -0.3382 -0.1469
  506MOL0     H68257   7.431   8.815   2.260 -1.8044  1.7669  4.3054
  506MOL0     H68258   7.276   8.884   2.216 -0.1427  1.1928  2.3042
  506MOL0     H68259   7.365   8.601   2.143 -0.7700 -1.1632 -3.8543
  506MOL0     H68260   7.197   8.668   2.127 -0.1528 -1.7086  1.4658
  506MOL0     H68261   7.570   8.713   1.993  0.2800 -0.7203 -1.1789
  506MOL0     H68262   7.628   8.806   1.714  0.8822  0.3494  0.3259
  506MOL0     H68263   7.535   8.946   1.664 -1.0177 -0.8336 -0.1134
  506MOL0     H68264   7.730   8.932   1.894 -1.2432 -0.8171  0.7305
  506MOL0     H68265   7.759   9.018   1.744  1.1389  2.4111  2.8541
  506MOL0     H68266   7.588   9.072   1.983  1.3338 -1.9361  0.1176
  506MOL0     H68267   7.539   9.158   1.824  2.4120  0.5842 -2.8173
  506MOL0     H68268   7.683   9.313   1.939 -1.4784 -2.0729  2.5685
  506MOL0     H68269   7.774   9.246   1.802  0.3790  2.4768  0.1746
  506MOL0     H68270   8.005   9.185   1.785  0.2173  0.0244 -0.6709
  506MOL0     H68271   8.184   9.341   1.737 -0.2479 -0.0308 -0.2646
  506MOL0     H68272   8.628   9.522   1.772  1.8608  0.5427  0.1917
  506MOL0     H68273   8.746   9.730   1.678 -0.1948 -1.5761  0.6438
  506MOL0     H68274   8.748   9.995   1.786  1.5604 -2.4875 -1.0203
  506MOL0     H68275   8.826   9.958   1.629 -0.7094 -0.3348 -1.6160
  506MOL0     H68276   8.778  10.166   1.544 -1.7929  0.4011  0.0593
  506MOL0     H68277   8.663  10.206   1.676 -0.4312 -2.3541  2.8210
  506MOL0     H68278   8.963  10.156   1.731 -0.8371 -2.1655 -0.6582
  506MOL0     H68279   8.908  10.310   1.654  2.3559 -0.6252  0.7951
  506MOL0     H68280   8.828  10.179   1.928 -0.8448 -0.3105 -0.2545
  506MOL0     H68281   8.763  10.321   1.863 -0.7609 -1.6501  0.7756
  506MOL0     H68282   8.978  10.450   1.861  1.2196 -0.2452 -1.7684
  506MOL0     H68283   9.065  10.303   1.912 -0.9072 -1.2641 -1.5165
  506MOL0     H68284   8.871  10.456   2.088  1.1399  2.2219 -2.6726
  506MOL0     H68285   8.957  10.300   2.129  0.6526 -0.0394  0.4160
  506MOL0     H68286   9.071  10.486   2.222  0.1478  1.1071 -0.9818
  506MOL0     H68287   9.079  10.584   2.079  1.3926  1.0949 -0.0038
  506MOL0     H68288   9.231  10.397   1.992  0.7833  4.0155 -0.3313
  506MOL0     H68289   9.284  10.484   2.128 -1.1660  0.7438 -0.5061
  506MOL0     H68290   8.372   9.920   1.640 -2.0070  0.1981  1.2948
  506MOL0     H68291   8.257   9.738   1.744  0.2533 -1.4367  0.9371
  506MOL0     H68292   8.099   9.530   2.115 -1.5500  0.2451  0.4308
  506MOL0     H68293   7.908   9.366   2.165  0.3061 -0.7944  0.1167
  506MOL0     H68294   7.327   8.370   2.975  0.7813  0.0607 -2.4313
  506MOL0     H68295   7.354   8.180   3.093 -0.9820  1.4672  1.7434
  506MOL0     H68296   7.392   7.759   3.307  0.8711  0.1623 -3.0590
  506MOL0     H68297   7.496   7.573   3.415 -1.2991  0.7037  1.3965
  506MOL0     H68298   7.665   7.423   3.445  5.9589  0.3420  0.3999
  506MOL0     H68299   7.547   7.452   3.575 -0.4572  1.6440 -0.5182
  506MOL0     H68300   7.708   7.402   3.756 -0.7196  0.6742 -0.5460
  506MOL0     H68301   7.829   7.365   3.633 -0.2046  1.6961  0.0260
  506MOL0     H68302   7.714   7.182   3.545 -0.0605  1.3236 -1.3521
  506MOL0     H68303   7.556   7.221   3.614  0.4081 -0.7516  2.2911
  506MOL0     H68304   7.671   7.207   3.858  0.7831 -1.4577  1.2192
  506MOL0     H68305   7.630   7.058   3.774  3.8913 -2.8256  2.8531
  506MOL0     H68306   8.040   7.028   3.758 -1.2899 -0.2664 -0.8773
  506MOL0     H68307   7.838   7.806   3.503  0.2834 -0.4969 -0.0303
  506MOL0     H68308   7.820   8.055   3.351  1.3128  2.7260  2.2291
  506MOL0     H68309   7.698   8.131   3.452  0.5349  1.7139 -2.7569
  506MOL0     H68310   7.823   8.025   3.526  1.5525 -3.6482 -1.8083
  507MOL0     O68311   1.609   5.618   5.512 -0.1390 -0.6359 -0.2841
  507MOL0     C68312   1.587   5.690   5.415 -1.4541 -0.0868 -0.5415
  507MOL0     O68313   1.562   5.816   5.414  0.2258  0.2842 -1.0834
  507MOL0     C68314   1.565   5.898   5.526 -0.4085 -0.9562 -0.0218
  507MOL0     C68315   1.585   5.863   5.661 -0.5629 -0.2249 -0.7505
  507MOL0     C68316   1.587   5.960   5.758  0.7004  0.0086 -0.6460
  507MOL0     C68317   1.578   6.096   5.736  0.0336 -0.5202 -0.7051
  507MOL0     O68318   1.597   6.197   5.837  0.1190 -0.5098 -1.0011
  507MOL0     C68319   1.699   6.285   5.809  0.1905  0.5986 -0.5412
  507MOL0     C68320   1.740   6.356   5.937  0.4837  0.1045 -0.3493
  507MOL0     C68321   1.826   6.476   5.898 -0.3958 -0.9074 -0.5111
  507MOL0     C68322   1.879   6.555   6.024  0.6255  0.8161 -0.5002
  507MOL0     C68323   1.938   6.696   5.990 -0.1028 -0.1997  0.7078
  507MOL0     C68324   1.986   6.781   6.123  0.0494  0.5662  0.7228
  507MOL0     C68325   2.103   6.709   6.195 -0.0979  0.6124 -0.4910
  507MOL0     C68326   2.126   6.753   6.345 -0.6682 -1.0689 -0.3642
  507MOL0     N68327   2.180   6.889   6.356  0.0694  0.0933 -0.3244
  507MOL0     C68328   2.301   6.944   6.318  0.0117  0.1818  0.1453
  507MOL0     C68329   2.306   7.065   6.384  0.2662  0.5450  0.4178
  507MOL0     C68330   2.421   7.159   6.383 -0.6311  0.0328  0.2010
  507MOL0     C68331   2.546   7.121   6.469 -0.1519  1.2072  0.6150
  507MOL0     C68332   2.493   7.131   6.615  0.0286 -0.7091  0.4532
  507MOL0     C68333   2.461   7.004   6.676  0.4857  0.4802  0.0507
  507MOL0     O68334   2.409   7.007   6.806 -0.5790  0.3176 -0.5300
  507MOL0     C68335   2.279   7.025   6.812  0.0415  0.4859  0.4776
  507MOL0     C68336   2.224   7.084   6.926 -0.4853  0.3952 -0.9026
  507MOL0     C68337   2.086   7.085   6.950 -0.9328  0.2039 -0.8330
  507MOL0     C68338   2.002   7.019   6.863 -0.0424  0.9444  0.8100
  507MOL0     C68339   1.857   7.027   6.878 -0.6408  0.0055  0.3682
  507MOL0     O68340   1.776   6.961   6.794 -0.7581  1.0173 -0.0059
  507MOL0     C68341   1.640   6.989   6.804 -0.6190 -0.1360 -0.1209
  507MOL0     C68342   1.582   7.078   6.718  0.4964  0.7289  0.5259
  507MOL0     C68343   1.451   7.133   6.737 -0.6592  0.2087 -0.4705
  507MOL0     C68344   1.368   7.086   6.834 -0.4296 -0.5048 -0.6639
  507MOL0     O68345   1.237   7.138   6.828  0.4687  0.9385 -1.2958
  507MOL0     C68346   1.133   7.038   6.870  0.2001  0.9917  0.2230
  507MOL0     C68347   1.004   7.057   6.794  0.0803  0.5936 -0.0750
  507MOL0     C68348   1.025   7.020   6.646 -0.0943  0.9306 -0.3121
  507MOL0     C68349   0.905   6.981   6.565  0.2898 -0.7162  1.1283
  507MOL0     C68350   0.818   7.111   6.551  0.1521  0.5289 -0.3704
  507MOL0     C68351   0.706   7.099   6.445 -0.8794 -0.0620 -0.8504
  507MOL0     C68352   0.580   7.020   6.496 -0.3506  0.0563  0.2581
  507MOL0     C68353   0.463   7.047   6.398 -0.5985  0.1331 -0.0788
  507MOL0    Cl68354   0.323   6.970   6.461  0.3268  0.4938  0.1297
  507MOL0     C68355   1.427   6.990   6.928  0.4235 -0.7791  0.2412
  507MOL0     C68356   1.560   6.945   6.909 -0.7546  0.4214  0.3091
  507MOL0     O68357   1.824   7.096   6.975  0.8410 -0.8794  0.5143
  507MOL0     C68358   2.051   6.967   6.743 -0.4681 -0.9441  0.7478
  507MOL0     C68359   2.186   6.963   6.724  0.0887  0.6636  0.8628
  507MOL0     N68360   2.189   7.088   6.450 -0.3878  0.1153  0.5321
  507MOL0     N68361   2.114   6.984   6.424 -0.4921  0.1948  0.2669
  507MOL0     C68362   1.560   6.128   5.602  0.2881  0.8769 -0.0484
  507MOL0     C68363   1.547   6.041   5.497  0.2029  0.9250 -0.2703
  507MOL0     C68364   1.578   5.617   5.288  0.1900  0.2148  0.2533
  507MOL0     C68365   1.459   5.612   5.223  0.7239 -0.5248  0.4386
  507MOL0     C68366   1.443   5.538   5.111  0.1208 -0.7013 -0.8273
  507MOL0     C68367   1.552   5.474   5.059 -0.8533 -0.1215  0.0290
  507MOL0     O68368   1.530   5.409   4.943  0.3486  0.3563  0.0129
  507MOL0     C68369   1.639   5.380   4.846  0.0843  0.0060 -0.2646
  507MOL0     C68370   1.732   5.489   4.800 -0.2287 -1.0962  0.1892
  507MOL0     C68371   1.680   5.581   4.679  0.1274 -0.9834  0.5611
  507MOL0     C68372   1.770   5.701   4.640  0.0758 -0.2434 -1.3246
  507MOL0     C68373   1.894   5.649   4.581  0.5231  0.2015  1.0377
  507MOL0     C68374   1.999   5.615   4.531  0.1185  0.6677 -1.3029
  507MOL0     C68375   1.680   5.484   5.113 -0.8300  0.4054 -0.0183
  507MOL0     C68376   1.694   5.553   5.235  0.3565  0.6348  0.7454
  507MOL0     C68377   1.835   5.571   5.296 -0.1691  0.6248 -0.1531
  507MOL0     H68378   1.593   5.764   5.704  0.4560  0.4773  0.7647
  507MOL0     H68379   1.595   5.938   5.863  0.9906  0.9490 -0.4564
  507MOL0     H68380   1.787   6.234   5.769  1.0394  1.6053  0.0269
  507MOL0     H68381   1.683   6.357   5.728  3.8783  0.3892 -1.6304
  507MOL0     H68382   1.801   6.294   6.004 -0.1436 -1.9412 -1.5838
  507MOL0     H68383   1.651   6.386   5.995  1.9901  1.9971  1.1448
  507MOL0     H68384   1.767   6.544   5.835 -1.4458 -1.6407 -0.3487
  507MOL0     H68385   1.914   6.456   5.836 -1.5617 -1.7446 -1.9443
  507MOL0     H68386   1.795   6.575   6.091 -0.2812  0.9326 -1.6353
  507MOL0     H68387   1.962   6.500   6.068  1.0197  1.8362  0.0574
  507MOL0     H68388   2.021   6.684   5.919 -2.6760  3.5794 -3.5037
  507MOL0     H68389   1.868   6.761   5.937  1.4470 -0.8651 -2.4205
  507MOL0     H68390   2.028   6.878   6.096  5.3619 -1.3806  0.7483
  507MOL0     H68391   1.900   6.792   6.189 -0.3808  0.8763  0.1222
  507MOL0     H68392   2.201   6.713   6.147  0.9575  0.8348  1.5522
  507MOL0     H68393   2.087   6.602   6.214  0.5727  0.4385 -0.8601
  507MOL0     H68394   2.030   6.746   6.397 -0.0383 -4.2567  0.5587
  507MOL0     H68395   2.197   6.686   6.395  0.7876  2.0141  2.0478
  507MOL0     H68396   2.385   6.907   6.260  2.2132  3.1362  1.1851
  507MOL0     H68397   2.472   7.162   6.287 -0.4049  0.3351  0.3296
  507MOL0     H68398   2.392   7.261   6.407 -2.1031 -0.5743  1.1535
  507MOL0     H68399   2.578   7.021   6.438 -2.3620  0.7179 -0.3056
  507MOL0     H68400   2.625   7.193   6.450  0.8251 -0.0080 -0.1304
  507MOL0     H68401   2.407   7.198   6.621 -1.4629 -2.6628  3.1765
  507MOL0     H68402   2.569   7.187   6.670  0.6878 -1.3461  0.2105
  507MOL0     H68403   2.551   6.942   6.676 -1.1980 -2.1185 -0.4611
  507MOL0     H68404   2.396   6.960   6.600 -0.4350  1.3584  0.3054
  507MOL0     H68405   2.300   7.097   7.002 -1.4923 -2.2295  0.7072
  507MOL0     H68406   2.051   7.129   7.043 -0.4977 -1.0170 -0.0726
  507MOL0     H68407   1.636   7.123   6.635 -0.6228  0.2850 -0.4748
  507MOL0     H68408   1.424   7.219   6.676 -0.3353  0.6297 -0.0206
  507MOL0     H68409   1.160   6.932   6.869 -5.1103 -0.7268  1.9819
  507MOL0     H68410   1.099   7.055   6.972  0.0441  0.4095  0.2724
  507MOL0     H68411   0.928   6.995   6.842  0.9725 -1.2479 -0.9771
  507MOL0     H68412   0.977   7.164   6.792 -1.2793  0.2594 -1.7578
  507MOL0     H68413   1.068   7.105   6.592 -1.8148  1.2874 -1.1878
  507MOL0     H68414   1.102   6.942   6.641  0.3940  0.9930  3.4375
  507MOL0     H68415   0.845   6.909   6.620 -2.8954  0.0952 -1.0436
  507MOL0     H68416   0.939   6.942   6.469  1.7941  0.5623  1.0892
  507MOL0     H68417   0.877   7.197   6.517  1.1373  1.1434  2.5899
  507MOL0     H68418   0.788   7.140   6.652  0.7133 -2.2071  0.6603
  507MOL0     H68419   0.668   7.194   6.407 -0.4935 -0.0040 -1.0932
  507MOL0     H68420   0.748   7.036   6.366  0.5883 -0.1677 -0.0251
  507MOL0     H68421   0.542   7.068   6.587  0.0839 -1.3059  1.1843
  507MOL0     H68422   0.597   6.914   6.513 -1.1073 -0.3987 -1.6323
  507MOL0     H68423   0.436   7.153   6.400  0.7675  0.5228 -1.0482
  507MOL0     H68424   0.482   7.018   6.294 -0.4452 -2.4199  0.6101
  507MOL0     H68425   1.359   6.959   7.006 -1.7356 -1.0854 -1.6593
  507MOL0     H68426   1.622   6.886   6.975  0.4049 -0.1186 -1.1834
  507MOL0     H68427   1.975   6.922   6.680 -2.9733  2.5233  0.9765
  507MOL0     H68428   2.226   6.891   6.653  2.0932 -1.1665  3.6034
  507MOL0     H68429   1.555   6.236   5.593  3.1094  0.9972 -1.1063
  507MOL0     H68430   1.535   6.076   5.395  1.4743  2.4954  0.0769
  507MOL0     H68431   1.376   5.664   5.269  1.5840 -0.4995  2.0317
  507MOL0     H68432   1.349   5.520   5.059  0.5744 -1.3922 -1.4290
  507MOL0     H68433   1.587   5.338   4.761 -2.5998  1.5786  0.4832
  507MOL0     H68434   1.707   5.308   4.893 -0.1381 -1.9023 -2.6643
  507MOL0     H68435   1.817   5.431   4.762 -2.6310 -4.4182 -0.5669
  507MOL0     H68436   1.767   5.561   4.874 -1.2058 -0.2594 -0.1441
  507MOL0     H68437   1.578   5.618   4.696 -1.1378 -2.7041 -2.5027
  507MOL0     H68438   1.654   5.520   4.593 -1.6243  1.4706 -0.7663
  507MOL0     H68439   1.718   5.775   4.579  1.0499  0.5559 -1.2065
  507MOL0     H68440   1.801   5.759   4.728  3.6621 -2.3736 -0.9954
  507MOL0     H68441   2.099   5.606   4.494  0.3093  2.3938 -1.3005
  507MOL0     H68442   1.770   5.437   5.076  0.2674  0.1524  2.7092
  507MOL0     H68443   1.849   5.517   5.390 -0.1149  1.5031  0.3511
  507MOL0     H68444   1.911   5.533   5.226 -1.4656 -1.3060 -0.5960
  507MOL0     H68445   1.861   5.676   5.313  0.5781  0.8476 -2.3105
  508MOL0     O68446   4.377   4.971   1.785  0.7512 -0.3204  0.2729
  508MOL0     C68447   4.334   4.863   1.755  0.0760 -0.0746  0.2484
  508MOL0     O68448   4.316   4.763   1.834  0.7018 -0.1538  0.1610
  508MOL0     C68449   4.347   4.774   1.967 -0.4442 -0.6510 -0.4967
  508MOL0     C68450   4.458   4.840   2.019  0.5041  1.0829  1.6253
  508MOL0     C68451   4.480   4.837   2.155 -0.1291  0.9129 -0.5096
  508MOL0     C68452   4.384   4.773   2.244 -0.1423 -0.3364  0.0174
  508MOL0     O68453   4.381   4.790   2.378  0.1436 -0.0191  0.0674
  508MOL0     C68454   4.481   4.871   2.438  0.4153  0.0199  0.3918
  508MOL0     C68455   4.423   4.897   2.575  0.3994  0.4383 -1.1610
  508MOL0     C68456   4.485   5.016   2.646 -0.1684 -0.9138 -0.9457
  508MOL0     C68457   4.622   4.977   2.695 -0.6559  0.2432  0.3738
  508MOL0     C68458   4.664   5.063   2.820  0.4712 -0.7203 -0.2193
  508MOL0     C68459   4.689   5.207   2.768 -0.3732 -0.2414 -0.3969
  508MOL0     C68460   4.761   5.297   2.874 -0.6843 -0.3925 -1.0311
  508MOL0     C68461   4.670   5.364   2.984 -0.4708  0.4056  0.4197
  508MOL0     N68462   4.758   5.434   3.087  0.5244 -0.5097  0.1798
  508MOL0     C68463   4.780   5.569   3.082  0.6212  0.1730 -0.4418
  508MOL0     C68464   4.839   5.599   3.197  1.3680  0.4273  0.1284
  508MOL0     C68465   4.897   5.724   3.246  0.3592 -0.7161 -0.2660
  508MOL0     C68466   4.953   5.709   3.390  0.0506 -0.2974 -0.1291
  508MOL0     C68467   5.003   5.837   3.458  0.0007 -0.0469  0.1962
  508MOL0     C68468   5.104   5.811   3.560 -0.5119 -0.0704  0.1882
  508MOL0     O68469   5.139   5.937   3.620 -0.3317  0.5756 -0.8508
  508MOL0     C68470   5.234   5.930   3.724 -0.9454  0.3324  0.4778
  508MOL0     C68471   5.276   6.048   3.780  0.8329  0.6245  0.1688
  508MOL0     C68472   5.372   6.048   3.884 -0.5681  0.1447 -0.1037
  508MOL0     C68473   5.426   5.929   3.940 -0.4820  0.7558  0.4201
  508MOL0     C68474   5.543   5.940   4.034  0.2891  0.2972 -0.0857
  508MOL0     O68475   5.566   6.066   4.091 -0.0382  0.1471  0.0163
  508MOL0     C68476   5.680   6.080   4.166  0.0748  0.0399 -0.8291
  508MOL0     C68477   5.759   6.185   4.131 -0.9993  0.3150 -0.1265
  508MOL0     C68478   5.861   6.236   4.215  1.0965 -0.6697 -0.6542
  508MOL0     C68479   5.891   6.169   4.337 -0.5647  0.0428  0.1942
  508MOL0     O68480   5.997   6.209   4.417 -0.7498  0.5120 -0.1318
  508MOL0     C68481   5.996   6.349   4.456  0.3148  0.2398  0.8847
  508MOL0     C68482   5.879   6.381   4.553 -0.1944 -0.2386  0.4507
  508MOL0     C68483   5.858   6.527   4.582  0.0779  0.5011 -0.6304
  508MOL0     C68484   5.980   6.581   4.657 -0.3351 -0.2112 -0.1258
  508MOL0     C68485   5.951   6.712   4.725 -0.5807  0.4426  0.1351
  508MOL0     C68486   6.075   6.773   4.808 -0.3267 -0.5040 -0.4219
  508MOL0     C68487   6.025   6.875   4.914 -0.8279  0.1621 -1.0039
  508MOL0     C68488   6.140   6.942   4.992  0.3206 -0.5607 -0.2250
  508MOL0    Cl68489   6.082   7.054   5.118 -0.1652 -0.0472  0.5576
  508MOL0     C68490   5.821   6.049   4.363 -0.0025  0.2673 -0.2334
  508MOL0     C68491   5.712   6.011   4.287 -0.4846  0.1963 -0.0998
  508MOL0     O68492   5.601   5.837   4.070  0.5580 -0.0599 -0.3785
  508MOL0     C68493   5.378   5.803   3.880 -0.7175  0.2873 -0.0754
  508MOL0     C68494   5.288   5.808   3.778 -0.0879  0.1186 -1.0398
  508MOL0     N68495   4.837   5.483   3.280 -0.0948  0.5356  0.7557
  508MOL0     N68496   4.787   5.384   3.206  0.3558 -0.0762  0.3688
  508MOL0     C68497   4.287   4.701   2.185 -0.0250  0.4228  1.0705
  508MOL0     C68498   4.271   4.697   2.054  0.6521  0.7170  0.7162
  508MOL0     C68499   4.298   4.866   1.611  0.1118  0.3248  0.4522
  508MOL0     C68500   4.386   4.938   1.524  0.0665  0.0152  0.7353
  508MOL0     C68501   4.384   4.921   1.388 -0.4468  0.3693 -0.2571
  508MOL0     C68502   4.287   4.844   1.323 -0.4514 -0.5846 -0.1801
  508MOL0     O68503   4.282   4.836   1.182 -0.1612  0.3625 -0.1719
  508MOL0     C68504   4.215   4.719   1.120 -0.4212  0.3438 -1.0640
  508MOL0     C68505   4.286   4.586   1.164  1.2358  0.6074 -0.3715
  508MOL0     C68506   4.237   4.456   1.099  0.3280 -0.0602  0.4871
  508MOL0     C68507   4.237   4.454   0.948 -0.4472  0.5180  0.5100
  508MOL0     C68508   4.361   4.500   0.892  0.8020  0.7056  0.6621
  508MOL0     C68509   4.445   4.565   0.829  0.3904 -0.5941  0.1327
  508MOL0     C68510   4.188   4.781   1.408  0.6470  0.7781  0.0106
  508MOL0     C68511   4.198   4.786   1.543  0.3373  0.5750 -0.4959
  508MOL0     C68512   4.114   4.683   1.623  0.7785 -0.6472 -0.0506
  508MOL0     H68513   4.536   4.893   1.966  0.6545  0.8231  1.5907
  508MOL0     H68514   4.555   4.903   2.197 -1.4494  1.6322  0.8160
  508MOL0     H68515   4.581   4.829   2.446 -0.0252 -0.9002  1.2093
  508MOL0     H68516   4.482   4.969   2.388  0.6383 -0.2880 -0.2143
  508MOL0     H68517   4.431   4.808   2.638  1.5584  1.7869  0.6819
  508MOL0     H68518   4.319   4.930   2.570  0.9894  2.2543 -2.1345
  508MOL0     H68519   4.425   5.031   2.736  1.0881 -0.3963 -0.1657
  508MOL0     H68520   4.479   5.104   2.582 -3.4481 -0.0529  0.3493
  508MOL0     H68521   4.626   4.874   2.731 -4.2593 -0.0914  0.1537
  508MOL0     H68522   4.693   4.996   2.614 -2.6299  3.0849 -0.8450
  508MOL0     H68523   4.583   5.075   2.892  0.3912 -0.1361 -0.4036
  508MOL0     H68524   4.755   5.016   2.858  1.0572  1.6019  1.4754
  508MOL0     H68525   4.758   5.202   2.684  2.4089 -1.1243  1.7904
  508MOL0     H68526   4.595   5.254   2.735  1.3042  1.2430 -3.4443
  508MOL0     H68527   4.823   5.378   2.833  0.8823  0.0793  2.0278
  508MOL0     H68528   4.814   5.222   2.932 -0.3870  0.7551  0.2300
  508MOL0     H68529   4.621   5.440   2.924  1.2003 -0.9635 -2.9096
  508MOL0     H68530   4.601   5.285   3.015 -0.1230  0.3836  1.1851
  508MOL0     H68531   4.784   5.627   2.991 -2.2429 -0.0815 -0.8123
  508MOL0     H68532   4.973   5.758   3.175  1.5536 -0.8121  0.9126
  508MOL0     H68533   4.823   5.804   3.253  1.2248 -0.0327  2.5000
  508MOL0     H68534   4.879   5.679   3.465  0.0836  0.1469  0.0824
  508MOL0     H68535   5.035   5.637   3.402  0.6119  0.6527  2.1599
  508MOL0     H68536   4.918   5.880   3.511 -0.2144 -1.7573  1.3368
  508MOL0     H68537   5.047   5.908   3.387 -0.2693  0.7535  0.8159
  508MOL0     H68538   5.195   5.770   3.517 -1.7664  1.2156 -4.2227
  508MOL0     H68539   5.072   5.751   3.646  0.1842  0.5808  0.9210
  508MOL0     H68540   5.251   6.141   3.731  0.9410  1.1412  1.0678
  508MOL0     H68541   5.401   6.143   3.928  0.8520  0.3894 -1.4714
  508MOL0     H68542   5.736   6.236   4.038  0.8693  0.9802 -0.2621
  508MOL0     H68543   5.910   6.328   4.183  2.3435 -0.9405  0.3861
  508MOL0     H68544   6.086   6.373   4.514  1.2605  1.8083 -1.1013
  508MOL0     H68545   5.990   6.426   4.377  0.2777  1.4721  2.0482
  508MOL0     H68546   5.785   6.335   4.521 -0.1339  2.1263 -3.9654
  508MOL0     H68547   5.899   6.331   4.648 -1.9347 -1.4819  0.2176
  508MOL0     H68548   5.848   6.579   4.486  0.3757 -1.1190 -1.5636
  508MOL0     H68549   5.763   6.538   4.634  1.7086  3.3247  2.0535
  508MOL0     H68550   6.063   6.597   4.588  1.1665 -1.1482  1.4014
  508MOL0     H68551   6.028   6.512   4.728  1.2246 -2.2438 -2.9594
  508MOL0     H68552   5.871   6.693   4.797 -1.7119 -0.0991 -1.2156
  508MOL0     H68553   5.915   6.783   4.650 -3.5090 -1.0308  0.0314
  508MOL0     H68554   6.132   6.693   4.856  2.1551  2.3444  1.7864
  508MOL0     H68555   6.143   6.824   4.739 -0.3046 -2.1252 -1.6755
  508MOL0     H68556   5.949   6.831   4.979 -2.0094 -0.4423 -2.6984
  508MOL0     H68557   5.969   6.950   4.856  1.7689  2.1837 -1.0979
  508MOL0     H68558   6.200   6.871   5.049  0.8157  0.6761  0.8388
  508MOL0     H68559   6.195   6.997   4.914 -1.2519  0.6532 -0.5296
  508MOL0     H68560   5.846   5.987   4.449  0.1557  0.3899 -0.1894
  508MOL0     H68561   5.656   5.927   4.327  2.7451 -1.6812  0.7835
  508MOL0     H68562   5.408   5.704   3.913  0.9987 -1.0785 -4.8982
  508MOL0     H68563   5.268   5.710   3.737 -1.2178  1.2293 -3.3553
  508MOL0     H68564   4.223   4.643   2.251  1.3383  0.7416  2.7496
  508MOL0     H68565   4.206   4.631   1.998  3.0677  0.4172 -1.9496
  508MOL0     H68566   4.466   5.001   1.562 -0.2896 -0.6568  2.7020
  508MOL0     H68567   4.453   4.976   1.325 -2.5809  1.3304 -1.8848
  508MOL0     H68568   4.227   4.725   1.012 -0.7032 -0.7002 -1.1720
  508MOL0     H68569   4.108   4.722   1.145 -0.1352 -0.5592  0.4505
  508MOL0     H68570   4.277   4.580   1.272 -1.8030 -1.3813 -0.6068
  508MOL0     H68571   4.391   4.585   1.131  0.8010 -1.7041 -1.9585
  508MOL0     H68572   4.146   4.412   1.141  0.6465  0.2738  1.5695
  508MOL0     H68573   4.296   4.369   1.131 -0.3966 -0.7843 -0.1269
  508MOL0     H68574   4.223   4.350   0.916  1.2631  0.1693  0.7919
  508MOL0     H68575   4.157   4.510   0.900  0.4022  2.9757  1.8113
  508MOL0     H68576   4.517   4.623   0.775  0.6776 -1.5070 -0.4856
  508MOL0     H68577   4.103   4.725   1.369 -0.4936  1.7255  1.0874
  508MOL0     H68578   4.081   4.732   1.715  0.8253 -1.3243  0.3363
  508MOL0     H68579   4.023   4.661   1.565 -0.0335  1.7549  0.2024
  508MOL0     H68580   4.167   4.596   1.662  1.5388 -0.2593 -0.2126
  509MOL0     O68581   2.457  11.033   1.284 -0.2632  0.3634 -1.2083
  509MOL0     C68582   2.495  11.106   1.187 -0.3488  0.8685  0.6867
  509MOL0     O68583   2.579  11.209   1.197 -0.1754 -0.0373 -0.4055
  509MOL0     C68584   2.608  11.251   1.316  0.9531 -0.1336 -0.4352
  509MOL0     C68585   2.539  11.355   1.377 -0.3126  0.2457  0.9007
  509MOL0     C68586   2.550  11.392   1.512 -0.0200  1.1518  0.3975
  509MOL0     C68587   2.642  11.321   1.588 -0.6645  0.8261 -0.0173
  509MOL0     O68588   2.658  11.351   1.720  0.0953 -0.5472 -0.0884
  509MOL0     C68589   2.788  11.318   1.774 -1.1931 -0.1349 -0.2663
  509MOL0     C68590   2.825  11.396   1.903  0.1544 -0.6647 -0.1332
  509MOL0     C68591   2.918  11.313   1.988  0.3893  0.1006 -0.3166
  509MOL0     C68592   2.967  11.400   2.101 -0.6498 -0.1440 -0.8698
  509MOL0     C68593   3.073  11.325   2.191 -0.0230  1.0389 -1.4940
  509MOL0     C68594   3.104  11.404   2.319  1.0939 -0.7406 -0.0867
  509MOL0     C68595   3.179  11.530   2.290 -0.5215  0.2761 -1.0225
  509MOL0     C68596   3.318  11.505   2.218  0.0479  0.1108 -0.4284
  509MOL0     N68597   3.429  11.452   2.305  0.2066  0.5615  0.4005
  509MOL0     C68598   3.440  11.488   2.436 -0.7375 -0.0948 -0.0480
  509MOL0     C68599   3.568  11.455   2.463 -0.0025  0.0009 -0.0127
  509MOL0     C68600   3.623  11.448   2.610  0.9332  0.3627  0.3159
  509MOL0     C68601   3.586  11.336   2.705  1.0617  0.0967  1.0280
  509MOL0     C68602   3.566  11.374   2.861 -0.3862  0.2521 -0.5193
  509MOL0     C68603   3.533  11.259   2.958 -0.1728 -0.3081  0.7172
  509MOL0     O68604   3.640  11.165   2.959 -0.4321  0.6471  0.5843
  509MOL0     C68605   3.756  11.204   3.019 -0.8708 -0.4264 -0.4515
  509MOL0     C68606   3.763  11.308   3.121 -1.0273 -0.1771  0.7985
  509MOL0     C68607   3.891  11.349   3.167  0.0576  0.0009  1.0346
  509MOL0     C68608   4.008  11.282   3.122 -0.6967 -1.3250  0.4496
  509MOL0     C68609   4.148  11.337   3.163 -0.5315  0.0865 -0.0075
  509MOL0     O68610   4.149  11.434   3.259 -0.1137  0.1935  0.2893
  509MOL0     C68611   4.273  11.491   3.284 -0.2754 -0.0520 -0.1322
  509MOL0     C68612   4.354  11.463   3.395 -0.1573  0.3353 -0.2083
  509MOL0     C68613   4.479  11.528   3.428 -0.3834  1.2340  0.9718
  509MOL0     C68614   4.536  11.626   3.342  0.2161  0.0205  0.6435
  509MOL0     O68615   4.654  11.686   3.380  0.0411  0.4719 -0.0842
  509MOL0     C68616   4.700  11.785   3.296 -0.0455 -0.3375  0.1782
  509MOL0     C68617   4.833  11.837   3.356 -0.0392  0.3410  0.2033
  509MOL0     C68618   4.896  11.967   3.284  0.9441 -0.5065 -0.0595
  509MOL0     C68619   4.955  11.942   3.144 -0.0646 -0.9523  0.4278
  509MOL0     C68620   4.993  12.070   3.067 -0.0751  0.0495  0.9687
  509MOL0     C68621   5.066  12.047   2.929  0.2396  0.1334  0.0237
  509MOL0     C68622   5.205  12.126   2.924  0.2941  0.3815  0.3472
  509MOL0     C68623   5.325  12.041   2.959  0.1390 -0.1955 -0.4133
  509MOL0    Cl68624   5.356  11.915   2.849  0.4423  0.0176 -0.1633
  509MOL0     C68625   4.451  11.661   3.231  0.1180  0.5658  0.4106
  509MOL0     C68626   4.325  11.594   3.209 -1.1088 -0.0979 -0.3598
  509MOL0     O68627   4.241  11.296   3.097 -0.3925 -0.0250 -0.2647
  509MOL0     C68628   3.996  11.170   3.040 -0.6198  0.4724 -0.5003
  509MOL0     C68629   3.873  11.137   2.986  0.0321 -0.3901  0.7075
  509MOL0     N68630   3.624  11.398   2.355 -0.4847  0.1646 -0.6039
  509MOL0     N68631   3.546  11.393   2.260  0.3113 -0.5135  0.4228
  509MOL0     C68632   2.714  11.218   1.531  0.8233  0.5202  0.6300
  509MOL0     C68633   2.701  11.179   1.389 -0.1715 -0.0215 -0.4208
  509MOL0     C68634   2.444  11.072   1.051  0.1799  0.3381 -0.4299
  509MOL0     C68635   2.361  10.960   1.040  0.7690  0.1051 -0.5519
  509MOL0     C68636   2.300  10.930   0.922 -0.6401  0.0060  0.1394
  509MOL0     C68637   2.320  11.012   0.808 -0.5512  0.1403 -0.8439
  509MOL0     O68638   2.243  10.979   0.699  0.3957 -0.2364 -0.5164
  509MOL0     C68639   2.115  11.045   0.694  0.2665  0.1390  0.4154
  509MOL0     C68640   2.007  10.968   0.766 -0.4065  0.2803  0.3930
  509MOL0     C68641   1.876  11.039   0.758 -0.5266 -0.4800  0.2858
  509MOL0     C68642   1.784  10.994   0.650  0.5842  0.1316  0.1003
  509MOL0     C68643   1.669  11.077   0.656  0.0025 -0.9506  0.8152
  509MOL0     C68644   1.571  11.152   0.661 -0.3922  0.6497 -0.4616
  509MOL0     C68645   2.406  11.124   0.814  0.3468 -0.0743  0.2326
  509MOL0     C68646   2.468  11.155   0.938  0.6770 -0.5553  0.0480
  509MOL0     C68647   2.570  11.278   0.916 -0.8191  0.1443 -0.8535
  509MOL0     H68648   2.469  11.401   1.308  0.1737 -0.4198 -0.0595
  509MOL0     H68649   2.489  11.471   1.554 -3.8763 -1.2357 -0.2875
  509MOL0     H68650   2.790  11.212   1.802  1.8306  0.5939  2.8812
  509MOL0     H68651   2.870  11.331   1.703 -1.8092  0.2679 -0.9255
  509MOL0     H68652   2.732  11.402   1.959  0.9587 -2.6810  1.5663
  509MOL0     H68653   2.851  11.498   1.876 -0.2404 -0.1180  1.4346
  509MOL0     H68654   3.002  11.278   1.927  0.4397  2.3778 -1.6519
  509MOL0     H68655   2.863  11.225   2.025  0.3458  0.7349  1.1946
  509MOL0     H68656   3.005  11.497   2.069 -1.7894  0.3429 -0.7566
  509MOL0     H68657   2.885  11.416   2.171  0.0044  1.1156 -0.3630
  509MOL0     H68658   3.027  11.228   2.211  1.1153  0.7083 -0.3463
  509MOL0     H68659   3.162  11.299   2.132  0.1980  1.6521 -1.4416
  509MOL0     H68660   3.010  11.437   2.365  1.1987  2.2601 -1.7578
  509MOL0     H68661   3.166  11.338   2.381  1.7629 -1.0363 -1.0477
  509MOL0     H68662   3.197  11.598   2.374  3.3670 -2.6073  0.7837
  509MOL0     H68663   3.113  11.587   2.224 -1.6915  0.4313  0.2317
  509MOL0     H68664   3.296  11.449   2.127 -1.5960 -1.1944  0.7375
  509MOL0     H68665   3.359  11.604   2.194 -1.0933  1.0941  1.5290
  509MOL0     H68666   3.364  11.515   2.508 -1.0926 -1.9021  0.3102
  509MOL0     H68667   3.732  11.453   2.610  1.0378  0.6942 -3.0477
  509MOL0     H68668   3.573  11.531   2.661 -4.5235 -3.5363  2.2645
  509MOL0     H68669   3.491  11.292   2.674  1.3443 -0.9837  1.6736
  509MOL0     H68670   3.661  11.257   2.695 -0.8452 -1.7197  0.4373
  509MOL0     H68671   3.471  11.427   2.862  0.5118  2.2850  4.1071
  509MOL0     H68672   3.641  11.440   2.905  2.3094 -3.0499  0.2871
  509MOL0     H68673   3.448  11.200   2.922  0.1402 -0.8063  0.7862
  509MOL0     H68674   3.507  11.305   3.054  0.0837 -2.2438  1.7749
  509MOL0     H68675   3.677  11.370   3.145 -1.1869 -0.2616  0.4474
  509MOL0     H68676   3.901  11.433   3.235 -1.7432 -0.4113  1.8537
  509MOL0     H68677   4.320  11.396   3.474  0.8971  1.7065  1.4873
  509MOL0     H68678   4.545  11.514   3.513 -0.6991  0.6695  1.1249
  509MOL0     H68679   4.711  11.755   3.192 -0.5352  0.7383 -0.1902
  509MOL0     H68680   4.625  11.864   3.289 -1.3480 -1.4768  0.7182
  509MOL0     H68681   4.818  11.857   3.462  3.2915 -0.3010  0.9105
  509MOL0     H68682   4.910  11.759   3.354 -1.6925 -1.3626 -1.5740
  509MOL0     H68683   4.820  12.044   3.267  1.2141 -0.1410  0.3816
  509MOL0     H68684   4.974  12.007   3.348 -0.7390  2.9586  0.0554
  509MOL0     H68685   4.874  11.889   3.093  1.8686  0.8158 -5.2912
  509MOL0     H68686   5.042  11.876   3.154 -0.3106 -1.9971 -2.9863
  509MOL0     H68687   5.064  12.117   3.135 -0.3332 -1.0171  2.0249
  509MOL0     H68688   4.901  12.129   3.058  1.7673  3.0502  0.7724
  509MOL0     H68689   5.077  11.940   2.913 -2.8396 -0.1282 -0.9189
  509MOL0     H68690   5.003  12.083   2.847  1.9210 -0.3219 -1.5365
  509MOL0     H68691   5.201  12.216   2.985  2.7567  1.7084 -1.2938
  509MOL0     H68692   5.219  12.159   2.821 -3.7277 -1.9912 -1.1828
  509MOL0     H68693   5.417  12.100   2.962 -0.2724  0.8250 -3.6834
  509MOL0     H68694   5.293  11.993   3.052  2.6902  3.2588  2.5665
  509MOL0     H68695   4.476  11.746   3.168 -3.6536  1.2961 -0.3423
  509MOL0     H68696   4.273  11.623   3.119  0.7575  4.7595 -0.2144
  509MOL0     H68697   4.078  11.107   3.008 -0.0865  0.7379  0.3212
  509MOL0     H68698   3.873  11.057   2.913 -0.8319 -0.8626  1.2095
  509MOL0     H68699   2.793  11.154   1.569  3.2863  2.5816 -0.7433
  509MOL0     H68700   2.763  11.104   1.343 -1.0496 -0.0267 -1.6449
  509MOL0     H68701   2.344  10.899   1.128  3.4619  0.1195  0.0708
  509MOL0     H68702   2.232  10.845   0.925 -0.8744  0.2091  2.2925
  509MOL0     H68703   2.088  11.063   0.589 -1.1171  0.8248  0.8719
  509MOL0     H68704   2.117  11.136   0.755 -2.2243  0.9129 -0.5095
  509MOL0     H68705   2.043  10.938   0.865  1.4715 -2.7113 -1.0339
  509MOL0     H68706   1.989  10.869   0.722 -1.2820  1.1589 -1.3280
  509MOL0     H68707   1.895  11.147   0.755 -0.8861 -0.1774  4.0707
  509MOL0     H68708   1.819  11.021   0.850 -1.7803  2.9809  0.3485
  509MOL0     H68709   1.830  11.010   0.551 -0.6353 -4.6514 -1.5171
  509MOL0     H68710   1.782  10.885   0.637  2.3690  0.0075  0.6078
  509MOL0     H68711   1.477  11.203   0.654  0.1714  1.5699 -1.9004
  509MOL0     H68712   2.427  11.170   0.718  1.9282  0.9147  1.0160
  509MOL0     H68713   2.674  11.244   0.911 -1.2518 -1.1594 -1.7203
  509MOL0     H68714   2.547  11.326   0.820  0.6691  2.1089 -0.2854
  509MOL0     H68715   2.566  11.347   1.000  2.8399  1.0258 -1.2267
  510MOL0     O68716   1.615   1.412   5.416  0.0415  0.6657 -0.5854
  510MOL0     C68717   1.565   1.487   5.334  1.1329  0.3949  1.0934
  510MOL0     O68718   1.469   1.580   5.359 -0.1849 -0.0520  0.4162
  510MOL0     C68719   1.380   1.561   5.465 -0.4497  0.1182  0.8287
  510MOL0     C68720   1.257   1.533   5.435  0.6424 -0.2620  0.2123
  510MOL0     C68721   1.162   1.522   5.538  0.1407 -0.5165 -0.0775
  510MOL0     C68722   1.203   1.541   5.675 -0.4480  0.2022 -1.2841
  510MOL0     O68723   1.139   1.517   5.801  0.4966 -0.6082 -0.5117
  510MOL0     C68724   0.998   1.489   5.796  0.5003 -0.5940 -0.3178
  510MOL0     C68725   0.915   1.616   5.763  0.0782  0.4609 -0.1546
  510MOL0     C68726   0.775   1.574   5.747 -0.7369  0.5975  0.7895
  510MOL0     C68727   0.683   1.702   5.714 -0.4807 -0.3647  0.0028
  510MOL0     C68728   0.543   1.678   5.751  1.0577 -0.3564  0.3631
  510MOL0     C68729   0.451   1.776   5.675 -0.6098 -0.5144  0.5290
  510MOL0     C68730   0.408   1.736   5.529 -0.3385  0.0038 -0.5574
  510MOL0     C68731   0.506   1.794   5.427  0.2277  0.2531 -0.2824
  510MOL0     N68732   0.457   1.774   5.287 -0.3585 -0.5881 -1.2351
  510MOL0     C68733   0.495   1.671   5.210 -0.3375  0.4019  0.0442
  510MOL0     C68734   0.441   1.690   5.091 -0.0262 -0.0339  0.7652
  510MOL0     C68735   0.449   1.607   4.969  0.4115 -0.3382  1.3054
  510MOL0     C68736   0.319   1.520   4.951  0.0908 -1.0542 -0.2168
  510MOL0     C68737   0.299   1.467   4.804  0.3734 -0.4916 -0.2316
  510MOL0     C68738   0.204   1.345   4.803 -0.8315 -1.2871 -0.2777
  510MOL0     O68739   0.189   1.304   4.663 -0.5630  0.1092  0.7871
  510MOL0     C68740   0.293   1.234   4.597 -0.1612  0.0557  0.4763
  510MOL0     C68741   0.284   1.226   4.458 -0.4391 -0.1148  0.3395
  510MOL0     C68742   0.382   1.153   4.385 -0.0892 -0.3911  0.4683
  510MOL0     C68743   0.500   1.092   4.448  1.1223 -0.3510  0.1968
  510MOL0     C68744   0.604   1.018   4.371  0.7050  0.5657 -0.2073
  510MOL0     O68745   0.571   0.998   4.240  0.0388 -0.0382 -0.1394
  510MOL0     C68746   0.667   0.922   4.172 -0.3117  0.8604 -0.2240
  510MOL0     C68747   0.723   0.798   4.210 -0.1535  0.1113 -0.8223
  510MOL0     C68748   0.784   0.723   4.118 -0.2996 -0.0764  0.5648
  510MOL0     C68749   0.791   0.757   3.984 -0.9150 -0.4933 -0.3618
  510MOL0     O68750   0.834   0.665   3.897 -0.6045 -0.3072  0.5113
  510MOL0     C68751   0.862   0.700   3.757 -0.2497  0.3166  0.3339
  510MOL0     C68752   0.855   0.573   3.683 -0.3397  0.8798  0.4232
  510MOL0     C68753   0.990   0.492   3.709 -0.1944  0.6417 -0.3248
  510MOL0     C68754   0.993   0.370   3.620 -0.5083 -0.1544  0.1157
  510MOL0     C68755   0.887   0.264   3.659 -0.1953  0.3403 -0.1725
  510MOL0     C68756   0.870   0.152   3.548 -0.0119  0.0243  0.4637
  510MOL0     C68757   0.848   0.005   3.608 -0.2189  0.1987  0.1803
  510MOL0     C68758   0.969  -0.064   3.664  0.2333  0.4744  0.4564
  510MOL0    Cl68759   0.915  -0.231   3.715  0.1026 -0.0041 -0.2351
  510MOL0     C68760   0.740   0.887   3.944 -0.4678 -0.2043  0.8815
  510MOL0     C68761   0.680   0.959   4.046  0.6304  0.8810  0.1656
  510MOL0     O68762   0.714   0.993   4.417 -1.8105 -0.8007 -0.7166
  510MOL0     C68763   0.511   1.114   4.583  0.6194  0.2957  0.4011
  510MOL0     C68764   0.415   1.184   4.653  0.0248  0.4767  0.2568
  510MOL0     N68765   0.374   1.810   5.096 -0.1182 -0.1887  0.0183
  510MOL0     N68766   0.375   1.861   5.212 -0.1790 -0.0409 -0.8573
  510MOL0     C68767   1.331   1.580   5.702 -0.0282  0.2319 -0.1251
  510MOL0     C68768   1.425   1.584   5.594  0.9660 -0.3105 -0.7889
  510MOL0     C68769   1.618   1.481   5.192  0.1813  0.0199 -0.1764
  510MOL0     C68770   1.701   1.372   5.149  0.6452 -0.1399  0.1469
  510MOL0     C68771   1.766   1.364   5.021  0.2021 -0.5558  0.0830
  510MOL0     C68772   1.744   1.466   4.933  0.3468  0.2198  0.1465
  510MOL0     O68773   1.809   1.466   4.810 -0.3564 -0.3511  0.3162
  510MOL0     C68774   1.844   1.341   4.734 -0.4978 -0.5245 -0.0140
  510MOL0     C68775   1.875   1.381   4.587 -0.2864  0.9731 -0.2806
  510MOL0     C68776   1.978   1.487   4.592 -0.9512 -0.6352  0.1079
  510MOL0     C68777   2.001   1.549   4.448  1.0550 -0.0826  0.0618
  510MOL0     C68778   2.058   1.448   4.366  0.4872  0.4261 -0.2278
  510MOL0     C68779   2.117   1.359   4.304 -0.1025  0.1238 -0.1912
  510MOL0     C68780   1.661   1.573   4.972 -0.1620 -0.1652  0.4264
  510MOL0     C68781   1.604   1.581   5.096 -0.4527 -0.4548  0.1808
  510MOL0     C68782   1.537   1.709   5.118 -0.9605  0.5231  0.2830
  510MOL0     H68783   1.218   1.515   5.335  0.3049  3.6697 -0.5536
  510MOL0     H68784   1.057   1.507   5.512 -0.7762 -0.8589  3.3179
  510MOL0     H68785   0.992   1.416   5.715  0.1498 -0.1091 -0.7422
  510MOL0     H68786   0.957   1.442   5.886  2.0388 -4.1758 -1.3379
  510MOL0     H68787   0.952   1.659   5.669  0.6781 -3.2074 -1.7847
  510MOL0     H68788   0.930   1.686   5.846  2.4769 -0.7005  0.4618
  510MOL0     H68789   0.739   1.532   5.842 -3.1094  0.6545 -0.0201
  510MOL0     H68790   0.766   1.503   5.665  2.7557  1.1125 -0.1944
  510MOL0     H68791   0.712   1.790   5.773 -1.0453  0.1702 -0.4967
  510MOL0     H68792   0.700   1.741   5.613  0.5792  2.8619  1.3021
  510MOL0     H68793   0.504   1.578   5.731 -3.1224  0.7746  1.8882
  510MOL0     H68794   0.531   1.698   5.858  1.1788 -2.0298  0.7199
  510MOL0     H68795   0.362   1.792   5.736 -0.9283 -1.4020  0.3173
  510MOL0     H68796   0.500   1.874   5.669 -2.1737  0.3691  1.4852
  510MOL0     H68797   0.308   1.774   5.508 -0.6942 -0.6759 -0.1190
  510MOL0     H68798   0.410   1.627   5.536  1.6319  0.0873  3.7190
  510MOL0     H68799   0.537   1.896   5.451  2.2744  0.3840 -3.0859
  510MOL0     H68800   0.595   1.731   5.437  0.6940  0.6432 -1.8453
  510MOL0     H68801   0.548   1.577   5.219 -0.2894  0.5289  1.1147
  510MOL0     H68802   0.462   1.677   4.886  0.4828 -2.5323 -0.6113
  510MOL0     H68803   0.529   1.534   4.984 -0.3988 -1.3998  0.5775
  510MOL0     H68804   0.335   1.433   5.015 -3.1644 -1.5206  0.1432
  510MOL0     H68805   0.225   1.566   4.981 -1.3530 -3.6683 -0.4393
  510MOL0     H68806   0.394   1.441   4.757 -0.7078 -1.5525 -1.8961
  510MOL0     H68807   0.246   1.546   4.749 -0.0895  0.7367  1.8559
  510MOL0     H68808   0.114   1.391   4.846  0.3733  0.9710 -0.0458
  510MOL0     H68809   0.250   1.268   4.866 -1.1641 -1.1696  0.1137
  510MOL0     H68810   0.202   1.267   4.401 -1.1570 -2.7642 -0.6673
  510MOL0     H68811   0.371   1.143   4.278 -0.4473 -2.3188  0.6402
  510MOL0     H68812   0.709   0.757   4.309  1.1111  2.1188  0.2364
  510MOL0     H68813   0.832   0.628   4.138  1.0132 -0.5234 -3.7642
  510MOL0     H68814   0.784   0.759   3.708  0.1459 -0.1884 -0.9440
  510MOL0     H68815   0.961   0.745   3.743  0.3730 -1.0079  0.2884
  510MOL0     H68816   0.761   0.526   3.712 -0.4563 -0.7333 -2.1978
  510MOL0     H68817   0.858   0.600   3.577 -3.6045 -1.1415 -0.3209
  510MOL0     H68818   1.079   0.554   3.698 -0.8791  1.6383 -0.4011
  510MOL0     H68819   1.000   0.467   3.815  3.3886  1.7760 -0.2751
  510MOL0     H68820   1.090   0.325   3.642 -0.4824  1.0567  2.7950
  510MOL0     H68821   0.984   0.389   3.512 -2.6568 -0.3589  0.2207
  510MOL0     H68822   0.789   0.309   3.676 -1.4653 -1.4963 -2.1511
  510MOL0     H68823   0.928   0.213   3.746 -0.7618 -0.8769 -0.5955
  510MOL0     H68824   0.777   0.171   3.492 -1.4615  0.4963  2.8943
  510MOL0     H68825   0.947   0.154   3.470 -0.4390 -0.3744  0.0244
  510MOL0     H68826   0.808  -0.049   3.522  1.7819 -0.0850 -0.6438
  510MOL0     H68827   0.776   0.031   3.686  1.9059 -0.3682  2.4643
  510MOL0     H68828   1.043  -0.072   3.585 -0.0258 -0.3496  0.2834
  510MOL0     H68829   1.013  -0.014   3.751  0.6186  3.7899 -1.5127
  510MOL0     H68830   0.728   0.927   3.844 -2.2898 -1.5788  0.4800
  510MOL0     H68831   0.620   1.047   4.024 -0.0909  0.6503  1.1556
  510MOL0     H68832   0.603   1.079   4.627  0.0532 -0.7269  0.8094
  510MOL0     H68833   0.425   1.185   4.761  1.1265 -4.1541  0.4007
  510MOL0     H68834   1.359   1.588   5.807  0.6231 -0.0502 -0.2707
  510MOL0     H68835   1.526   1.610   5.623 -0.4942  2.8019  2.2878
  510MOL0     H68836   1.711   1.290   5.219 -1.3537 -1.9513 -1.5329
  510MOL0     H68837   1.840   1.287   5.002 -0.4212 -2.2966  3.7813
  510MOL0     H68838   1.764   1.267   4.720  0.2251 -1.2657 -0.2847
  510MOL0     H68839   1.922   1.291   4.791 -0.1212  1.1037  0.9825
  510MOL0     H68840   1.787   1.411   4.531 -0.6125 -0.3376 -0.5049
  510MOL0     H68841   1.918   1.294   4.536 -1.9344  0.0073 -0.0784
  510MOL0     H68842   2.068   1.459   4.647 -1.3717 -1.0004  0.6214
  510MOL0     H68843   1.932   1.573   4.642 -1.8905 -0.3262 -1.2131
  510MOL0     H68844   1.907   1.574   4.397  1.2854 -0.4009 -0.5290
  510MOL0     H68845   2.064   1.638   4.454  0.4352  0.5693 -1.9728
  510MOL0     H68846   2.173   1.288   4.247 -2.6852 -2.2367 -0.0428
  510MOL0     H68847   1.646   1.654   4.901  2.6379  2.2525  2.3184
  510MOL0     H68848   1.544   1.796   5.052  1.4239  1.2793  1.4622
  510MOL0     H68849   1.431   1.681   5.129 -0.1056 -3.4350  0.1622
  510MOL0     H68850   1.578   1.731   5.216  1.1800 -1.6954 -0.0138
  511MOL0     O68851  10.802   0.273   1.589  0.3922 -0.2622 -0.2089
  511MOL0     C68852  10.850   0.251   1.481 -0.2438  0.5083 -0.1895
  511MOL0     O68853  10.984   0.235   1.450 -0.2657  0.3326  0.4834
  511MOL0     C68854  11.085   0.264   1.547  0.2267  0.3112  0.2294
  511MOL0     C68855  11.064   0.348   1.656 -0.6460 -0.8193 -0.8140
  511MOL0     C68856  11.157   0.360   1.758  0.0837  0.2007  0.2681
  511MOL0     C68857  11.285   0.308   1.742 -0.5527 -0.0858 -0.1179
  511MOL0     O68858  11.386   0.335   1.837 -0.2625  0.1051  0.4366
  511MOL0     C68859  11.353   0.316   1.976  0.2391  0.0221 -0.0691
  511MOL0     C68860  11.490   0.280   2.048 -0.9568 -0.2946  0.9035
  511MOL0     C68861  11.620   0.349   2.000  0.2942 -0.4747  0.2223
  511MOL0     C68862  11.724   0.349   2.114  0.1745  0.9072  1.1048
  511MOL0     C68863  11.752   0.479   2.179 -0.3713  0.1860 -0.1815
  511MOL0     C68864  11.869   0.554   2.121  0.7492 -0.4979  0.8940
  511MOL0     C68865  11.893   0.688   2.197  0.4607  0.9005 -0.3388
  511MOL0     C68866  12.039   0.739   2.173  0.7722  0.7809  0.4929
  511MOL0     N68867  12.060   0.874   2.233  0.3392  0.2337 -0.0726
  511MOL0     C68868  12.081   0.896   2.367 -0.8761  0.3308 -0.4411
  511MOL0     C68869  12.105   1.029   2.370 -0.0600 -0.5509 -0.4359
  511MOL0     C68870  12.168   1.096   2.491 -0.3925 -0.3484 -0.1704
  511MOL0     C68871  12.083   1.092   2.624 -0.2530 -0.6564  0.9157
  511MOL0     C68872  12.112   1.216   2.709 -1.0725 -0.6643 -0.3562
  511MOL0     C68873  12.042   1.224   2.840  0.7324 -0.0795  0.2521
  511MOL0     O68874  12.084   1.125   2.937  0.2033 -0.0539  0.4972
  511MOL0     C68875  12.209   1.140   2.989  0.7904  0.1723 -1.5506
  511MOL0     C68876  12.256   1.021   3.046 -0.3752  0.9904  0.1975
  511MOL0     C68877  12.375   1.032   3.124  0.3146  0.5352  0.0433
  511MOL0     C68878  12.446   1.156   3.138  0.1487 -0.1482  0.2955
  511MOL0     C68879  12.578   1.171   3.211  0.1355  0.3020  0.2074
  511MOL0     O68880  12.610   1.067   3.282 -0.1427  0.2926  0.1303
  511MOL0     C68881  12.741   1.049   3.330  0.7099 -0.9379 -0.1996
  511MOL0     C68882  12.855   1.082   3.251  0.2048  0.5265  0.1778
  511MOL0     C68883  12.989   1.064   3.299  1.7081  0.2397  0.0943
  511MOL0     C68884  13.012   1.029   3.432 -0.6951 -0.5709 -0.3083
  511MOL0     O68885  13.130   1.025   3.486  0.1348 -0.7885 -0.5947
  511MOL0     C68886  13.202   1.150   3.476 -0.5317 -0.2819  0.1955
  511MOL0     C68887  13.308   1.131   3.584  0.2416  0.5093  0.3071
  511MOL0     C68888  13.254   1.080   3.711 -0.5700  0.2390  0.1096
  511MOL0     C68889  13.363   1.080   3.822  0.0111  0.6466 -0.2376
  511MOL0     C68890  13.312   1.001   3.940 -0.4906  0.7278  0.2715
  511MOL0     C68891  13.228   1.096   4.036  0.3286  0.4595 -0.1230
  511MOL0     C68892  13.221   1.036   4.181 -0.7399  0.5162 -0.1006
  511MOL0     C68893  13.186   1.126   4.295 -0.4373 -0.4134 -0.2936
  511MOL0    Cl68894  13.010   1.105   4.314  0.1899  0.0757  0.4685
  511MOL0     C68895  12.894   0.992   3.509  0.2535  0.7265  0.3057
  511MOL0     C68896  12.765   0.987   3.454 -0.0234 -0.4911 -0.6986
  511MOL0     O68897  12.632   1.282   3.208  0.5258 -0.5308 -0.3840
  511MOL0     C68898  12.392   1.275   3.080  0.0772  0.2499 -0.6740
  511MOL0     C68899  12.266   1.266   3.014  0.8292  0.4174 -0.5148
  511MOL0     N68900  12.087   1.090   2.245 -0.4230 -0.4173 -0.5312
  511MOL0     N68901  12.056   0.992   2.166 -0.1318  0.7333 -0.0650
  511MOL0     C68902  11.315   0.243   1.622  0.7336 -0.3693 -0.1276
  511MOL0     C68903  11.209   0.206   1.530  0.4609 -1.3155  0.0302
  511MOL0     C68904  10.764   0.232   1.365  0.1324  0.0602  0.4093
  511MOL0     C68905  10.830   0.241   1.237 -0.0220  0.2859  0.2503
  511MOL0     C68906  10.759   0.221   1.116 -0.4202  0.6475 -0.1788
  511MOL0     C68907  10.619   0.199   1.112 -0.0195  0.3530 -0.5832
  511MOL0     O68908  10.559   0.188   0.990 -0.5775 -0.3193  0.0826
  511MOL0     C68909  10.460   0.087   0.979  0.2857 -0.1978  0.7280
  511MOL0     C68910  10.406   0.092   0.827  0.6132  0.0915  0.4999
  511MOL0     C68911  10.284   0.174   0.811  1.9318  0.1169  0.7743
  511MOL0     C68912  10.235   0.172   0.663 -0.2044 -0.7046  0.6258
  511MOL0     C68913  10.217   0.312   0.621  0.8082  0.3176  0.0921
  511MOL0     C68914  10.214   0.422   0.588  0.7842 -0.7416 -0.7359
  511MOL0     C68915  10.556   0.198   1.237  0.7158  0.2782  0.2227
  511MOL0     C68916  10.622   0.212   1.357  0.7643  0.6465 -0.2897
  511MOL0     C68917  10.530   0.232   1.484 -0.3273  0.4569  0.0008
  511MOL0     H68918  10.981   0.418   1.658 -0.7229 -0.7370 -3.2534
  511MOL0     H68919  11.116   0.420   1.838 -2.1924 -1.3015  0.3037
  511MOL0     H68920  11.315   0.408   2.021  2.0777  1.0155 -0.4688
  511MOL0     H68921  11.280   0.236   1.992  1.1498 -1.1961 -1.6506
  511MOL0     H68922  11.509   0.173   2.035  2.2671  0.5184 -2.9167
  511MOL0     H68923  11.471   0.300   2.154  0.6139  2.4657  0.7529
  511MOL0     H68924  11.604   0.450   1.961  0.5976  0.2271  1.8545
  511MOL0     H68925  11.661   0.285   1.920  0.8576 -0.5005  0.5237
  511MOL0     H68926  11.699   0.279   2.195  0.2562  0.3309  0.6397
  511MOL0     H68927  11.811   0.311   2.058 -1.4103 -1.4488  0.0764
  511MOL0     H68928  11.665   0.545   2.168 -0.1479  0.4741 -0.2102
  511MOL0     H68929  11.772   0.475   2.286  0.0600 -0.8020 -0.2839
  511MOL0     H68930  11.960   0.496   2.138  2.0181  1.1478 -0.0161
  511MOL0     H68931  11.867   0.573   2.013 -0.5812 -0.2543  0.9383
  511MOL0     H68932  11.882   0.674   2.305  0.3654 -1.7391 -0.6303
  511MOL0     H68933  11.835   0.773   2.160 -2.0553 -0.6424 -0.1588
  511MOL0     H68934  12.115   0.670   2.211 -0.4743 -0.2164  1.2357
  511MOL0     H68935  12.041   0.739   2.064  0.0524  1.5229  0.4692
  511MOL0     H68936  12.082   0.827   2.450  0.1110  3.7714  2.6787
  511MOL0     H68937  12.272   1.068   2.505 -0.4556 -1.1595 -1.2061
  511MOL0     H68938  12.161   1.201   2.462 -0.4683 -0.1551  0.5279
  511MOL0     H68939  11.980   1.099   2.588 -1.0082  0.8058  3.1755
  511MOL0     H68940  12.095   0.998   2.677  0.9551 -2.0726 -1.6767
  511MOL0     H68941  12.088   1.313   2.664 -1.2155  0.6366  2.3273
  511MOL0     H68942  12.220   1.224   2.728 -1.0062 -1.1074 -0.5306
  511MOL0     H68943  11.939   1.192   2.822 -1.3780  4.0834  3.0169
  511MOL0     H68944  12.029   1.323   2.886  0.1688 -0.6474  1.3638
  511MOL0     H68945  12.202   0.927   3.045  1.9484 -0.4479 -2.0492
  511MOL0     H68946  12.415   0.942   3.171 -2.1006 -0.3125  0.6091
  511MOL0     H68947  12.840   1.126   3.153 -0.5462  1.5955  0.7521
  511MOL0     H68948  13.079   1.072   3.239  0.8203 -0.4854 -1.3923
  511MOL0     H68949  13.260   1.164   3.384 -0.1511  0.0491  0.4791
  511MOL0     H68950  13.153   1.247   3.488 -1.0536 -0.8804  4.6628
  511MOL0     H68951  13.375   1.055   3.541  2.6494  2.2428  0.7820
  511MOL0     H68952  13.355   1.228   3.603  0.1352  0.2850  1.8711
  511MOL0     H68953  13.172   1.149   3.732 -0.9399 -0.4702  1.0790
  511MOL0     H68954  13.216   0.979   3.692 -0.6389  0.4226 -0.7392
  511MOL0     H68955  13.389   1.184   3.843  1.8269  0.0543  0.7153
  511MOL0     H68956  13.448   1.027   3.776 -0.3725 -0.2556  0.0591
  511MOL0     H68957  13.401   0.963   3.992 -1.2543 -0.7961  0.5182
  511MOL0     H68958  13.255   0.917   3.903 -2.7516  2.2482  0.0999
  511MOL0     H68959  13.283   1.188   4.060  2.6092 -1.5206  3.0436
  511MOL0     H68960  13.127   1.116   3.997 -1.5460 -2.5911  2.6553
  511MOL0     H68961  13.326   1.009   4.195 -0.1854  2.0193 -1.0737
  511MOL0     H68962  13.154   0.950   4.177 -1.7836  1.2939 -3.7421
  511MOL0     H68963  13.243   1.094   4.382 -1.1462  1.7006  1.0287
  511MOL0     H68964  13.208   1.233   4.282 -1.3808 -0.0396  0.9883
  511MOL0     H68965  12.899   0.958   3.612 -1.9834 -0.0495  0.2161
  511MOL0     H68966  12.683   0.946   3.512  3.6973 -4.5573  2.4845
  511MOL0     H68967  12.435   1.370   3.109  2.6498 -0.0553 -2.9888
  511MOL0     H68968  12.227   1.355   2.966  0.7838 -0.4957 -2.2287
  511MOL0     H68969  11.409   0.192   1.605  0.6968 -0.2113 -0.8185
  511MOL0     H68970  11.230   0.147   1.441  1.0507 -0.3975 -0.4446
  511MOL0     H68971  10.936   0.262   1.222 -0.3873  1.2512 -1.2125
  511MOL0     H68972  10.806   0.224   1.018  0.0852  3.7560  0.0539
  511MOL0     H68973  10.376   0.094   1.049 -4.2746 -4.4715 -3.4795
  511MOL0     H68974  10.512  -0.008   0.989 -0.6301 -1.2091 -2.6156
  511MOL0     H68975  10.390  -0.012   0.795  3.5683 -0.2416 -0.2623
  511MOL0     H68976  10.493   0.128   0.771  1.3310 -3.6580 -1.1341
  511MOL0     H68977  10.291   0.276   0.849 -1.7383 -0.1961  2.8163
  511MOL0     H68978  10.201   0.124   0.862  1.1335 -1.6257 -1.9822
  511MOL0     H68979  10.313   0.132   0.598 -1.5024 -1.7248 -0.3502
  511MOL0     H68980  10.142   0.117   0.650 -0.6709  0.4528 -1.3339
  511MOL0     H68981  10.205   0.528   0.577  0.3714 -0.4754  1.5862
  511MOL0     H68982  10.449   0.180   1.240  0.7987 -0.2904 -0.1158
  511MOL0     H68983  10.547   0.155   1.560 -0.8193  0.3774  0.0328
  511MOL0     H68984  10.528   0.329   1.534 -1.5507 -0.5597  2.0546
  511MOL0     H68985  10.430   0.221   1.442 -0.1753 -0.6825 -0.1018
  512MOL0     O68986   9.164   4.989   7.457 -0.8576 -0.5779 -0.1419
  512MOL0     C68987   9.258   5.038   7.408  0.4477 -0.0430 -0.3380
  512MOL0     O68988   9.267   5.174   7.380  0.3665  0.4512 -0.3121
  512MOL0     C68989   9.197   5.268   7.464 -0.1021 -0.1607  0.4402
  512MOL0     C68990   9.058   5.257   7.483 -0.1878 -0.1076  0.0904
  512MOL0     C68991   8.985   5.342   7.570  0.1730  0.5921 -0.0259
  512MOL0     C68992   9.057   5.449   7.623  0.3581  0.1770  0.1200
  512MOL0     O68993   9.008   5.527   7.725  0.4610 -0.0880  0.1164
  512MOL0     C68994   8.864   5.512   7.768 -0.6271  0.4640  0.6459
  512MOL0     C68995   8.810   5.615   7.863 -0.0897  0.2294 -1.2292
  512MOL0     C68996   8.660   5.596   7.875 -0.4458 -0.2473  0.1647
  512MOL0     C68997   8.596   5.719   7.949 -0.6203  0.6888  0.0926
  512MOL0     C68998   8.442   5.721   7.964 -0.2206  0.4844  1.0839
  512MOL0     C68999   8.411   5.835   8.059  0.4430  0.2059  0.1035
  512MOL0     C69000   8.269   5.888   8.080 -0.9153  0.1601  0.1588
  512MOL0     C69001   8.176   5.770   8.105 -0.2017 -0.8062  0.3262
  512MOL0     N69002   8.043   5.813   8.155 -0.1024 -0.3434 -0.7779
  512MOL0     C69003   8.017   5.853   8.284  0.0240 -0.6543 -0.8688
  512MOL0     C69004   7.883   5.823   8.308 -0.5657 -0.1712 -0.7936
  512MOL0     C69005   7.809   5.822   8.435 -0.1415 -0.4220 -0.0225
  512MOL0     C69006   7.853   5.717   8.545  1.2134 -0.1164 -0.5667
  512MOL0     C69007   7.968   5.773   8.636  0.2208 -0.9527  0.2866
  512MOL0     C69008   8.110   5.736   8.607 -0.5288 -0.2637  0.1068
  512MOL0     O69009   8.207   5.844   8.636 -0.0141  0.2021  0.0595
  512MOL0     C69010   8.322   5.840   8.564  0.6851 -0.3187 -0.5372
  512MOL0     C69011   8.420   5.740   8.582  0.4468 -0.1546  0.8416
  512MOL0     C69012   8.542   5.735   8.515  0.2002 -0.2015 -0.5430
  512MOL0     C69013   8.576   5.847   8.438 -0.4344  0.5442  0.1477
  512MOL0     C69014   8.715   5.855   8.370  0.1503 -0.2832 -0.0856
  512MOL0     O69015   8.760   5.979   8.326  0.1837  0.1264  0.0669
  512MOL0     C69016   8.881   5.982   8.259  0.9659  1.0959 -0.2823
  512MOL0     C69017   8.999   5.996   8.326  0.3260 -0.4271  0.9766
  512MOL0     C69018   9.119   6.000   8.253 -0.7823 -0.2936  0.5303
  512MOL0     C69019   9.114   6.002   8.108 -0.1384  0.6760 -0.4179
  512MOL0     O69020   9.237   6.014   8.049  0.0496 -0.5355  0.1594
  512MOL0     C69021   9.258   5.924   7.934 -0.6902 -0.8482 -1.1564
  512MOL0     C69022   9.407   5.897   7.932 -0.3167 -0.4310  0.3908
  512MOL0     C69023   9.421   5.777   7.835  0.5142 -0.5778  0.6593
  512MOL0     C69024   9.570   5.751   7.792 -0.0602 -0.9175 -0.0608
  512MOL0     C69025   9.563   5.639   7.690 -1.6362 -0.2833 -0.1376
  512MOL0     C69026   9.689   5.596   7.625  0.3953  0.4219  0.0514
  512MOL0     C69027   9.790   5.524   7.718  0.0877 -0.4341  1.0015
  512MOL0     C69028   9.901   5.464   7.620 -0.5412 -0.2989 -0.0186
  512MOL0    Cl69029  10.039   5.391   7.714 -0.0278  0.0567 -0.2345
  512MOL0     C69030   8.984   5.986   8.044  0.1053  0.0129  0.5768
  512MOL0     C69031   8.867   5.979   8.122 -0.4443  0.4022 -0.9219
  512MOL0     O69032   8.780   5.753   8.355 -0.8994  1.0173 -0.2747
  512MOL0     C69033   8.482   5.946   8.417  0.1386 -0.0768  0.1528
  512MOL0     C69034   8.357   5.943   8.487  0.3767 -0.6281  1.0237
  512MOL0     N69035   7.840   5.754   8.199  0.1388 -1.0376  1.0119
  512MOL0     N69036   7.929   5.748   8.104  0.7693 -0.1454  0.4240
  512MOL0     C69037   9.189   5.468   7.595 -0.1800  0.0168  0.2874
  512MOL0     C69038   9.261   5.380   7.508  0.3560  0.2391 -0.3727
  512MOL0     C69039   9.376   4.964   7.359 -0.6004 -0.1695  0.3671
  512MOL0     C69040   9.463   5.022   7.256  1.5631  1.2050 -0.7069
  512MOL0     C69041   9.572   4.951   7.213 -0.5673  0.4224 -0.3818
  512MOL0     C69042   9.598   4.818   7.247  0.4329  0.9342  0.1262
  512MOL0     O69043   9.693   4.746   7.188 -0.3603  0.1555 -0.2221
  512MOL0     C69044   9.736   4.772   7.056  0.0845 -0.2920  0.3113
  512MOL0     C69045   9.864   4.696   7.027  0.2208 -0.3392 -0.2881
  512MOL0     C69046   9.842   4.547   6.996  1.0555  0.3571 -0.3324
  512MOL0     C69047   9.843   4.512   6.842  0.4320  0.6890  0.2254
  512MOL0     C69048   9.830   4.368   6.816  0.4482 -0.4230  0.1276
  512MOL0     C69049   9.825   4.249   6.787 -0.5606 -0.2830  0.4482
  512MOL0     C69050   9.521   4.763   7.351  1.0083  0.1084  0.4988
  512MOL0     C69051   9.416   4.835   7.404  0.5527  0.1837 -0.6378
  512MOL0     C69052   9.345   4.767   7.523  0.2690  0.6933  1.0774
  512MOL0     H69053   9.012   5.178   7.425  1.0938 -1.6728  1.1224
  512MOL0     H69054   8.880   5.324   7.594  0.3836 -0.6907 -0.0204
  512MOL0     H69055   8.805   5.531   7.678  0.0476  0.3039  0.1635
  512MOL0     H69056   8.826   5.420   7.812  0.3216 -0.0470  0.4361
  512MOL0     H69057   8.829   5.715   7.824 -3.9107  1.5452 -0.0896
  512MOL0     H69058   8.846   5.615   7.967 -1.2248  2.6688 -0.7684
  512MOL0     H69059   8.639   5.505   7.931  1.7359 -0.7575  0.2413
  512MOL0     H69060   8.620   5.582   7.774  3.0371  1.1222 -1.5784
  512MOL0     H69061   8.650   5.733   8.043 -0.3387 -0.8680  0.1736
  512MOL0     H69062   8.633   5.806   7.893  0.5280  1.5381  2.0606
  512MOL0     H69063   8.413   5.743   7.861  0.5203  0.4238  0.8547
  512MOL0     H69064   8.393   5.630   8.000  0.3012  0.4426  1.6969
  512MOL0     H69065   8.448   5.806   8.158  0.5380  0.9808  0.3084
  512MOL0     H69066   8.473   5.923   8.035  0.6179 -0.2354 -1.0868
  512MOL0     H69067   8.241   5.957   8.000  1.4950  0.8994 -0.1275
  512MOL0     H69068   8.287   5.946   8.171  0.1453 -1.5791  1.1154
  512MOL0     H69069   8.174   5.721   8.007 -1.4976  0.7552 -0.4704
  512MOL0     H69070   8.216   5.701   8.180  0.3684 -1.4947 -0.5906
  512MOL0     H69071   8.090   5.892   8.355 -1.6734  0.6812  0.2322
  512MOL0     H69072   7.829   5.925   8.467 -0.7534  0.1309 -1.3263
  512MOL0     H69073   7.703   5.803   8.416 -0.7016  2.4478 -0.2828
  512MOL0     H69074   7.765   5.696   8.606  3.0118 -0.0816  2.2713
  512MOL0     H69075   7.886   5.616   8.517  1.2728 -1.1251  2.6724
  512MOL0     H69076   7.946   5.735   8.736  1.8942  1.5535  1.7196
  512MOL0     H69077   7.953   5.881   8.644  1.1475 -0.9750  3.8198
  512MOL0     H69078   8.118   5.715   8.500 -2.0796  0.4658 -0.1814
  512MOL0     H69079   8.128   5.654   8.678 -1.1391  1.0200  1.8195
  512MOL0     H69080   8.381   5.653   8.634 -0.4423 -0.3048 -0.0364
  512MOL0     H69081   8.612   5.652   8.521  0.5250  0.1596  0.7779
  512MOL0     H69082   8.982   6.014   8.432  0.1894 -0.7248  1.0070
  512MOL0     H69083   9.217   6.001   8.298  0.1309 -2.7344 -1.2160
  512MOL0     H69084   9.209   5.827   7.941 -0.3987 -0.9012  0.8027
  512MOL0     H69085   9.231   5.984   7.847 -1.0896  0.5584 -0.1090
  512MOL0     H69086   9.474   5.974   7.893  2.0106 -2.8186 -0.5826
  512MOL0     H69087   9.438   5.871   8.034 -1.4905 -1.3001  0.5491
  512MOL0     H69088   9.377   5.690   7.886  2.1550 -0.9445  1.4997
  512MOL0     H69089   9.361   5.791   7.745 -2.8414  0.3465  2.8323
  512MOL0     H69090   9.637   5.721   7.874 -0.3662 -0.6912  0.2785
  512MOL0     H69091   9.613   5.833   7.733 -1.6728  1.0419  1.3255
  512MOL0     H69092   9.494   5.665   7.609  0.2789  0.9161 -1.4806
  512MOL0     H69093   9.529   5.548   7.741  0.5196 -1.7254 -1.0998
  512MOL0     H69094   9.647   5.529   7.550 -1.4028  0.7467  0.7191
  512MOL0     H69095   9.737   5.683   7.580  0.5247 -0.0226 -0.6806
  512MOL0     H69096   9.750   5.439   7.773  4.2506 -3.6797 -0.4163
  512MOL0     H69097   9.848   5.584   7.789  0.5957  2.5405 -1.6712
  512MOL0     H69098   9.854   5.378   7.572  1.3921 -2.2590  1.4190
  512MOL0     H69099   9.955   5.532   7.554  2.8393 -0.0784  2.6536
  512MOL0     H69100   8.968   5.976   7.937 -2.6383 -0.9385  0.9846
  512MOL0     H69101   8.773   5.975   8.067  1.1427 -0.5985 -3.7343
  512MOL0     H69102   8.503   6.039   8.364  1.8529 -1.3505 -1.5442
  512MOL0     H69103   8.286   6.022   8.461 -0.6618 -2.2407 -1.4963
  512MOL0     H69104   9.241   5.559   7.624 -2.3204  1.5640 -0.5095
  512MOL0     H69105   9.366   5.393   7.485  0.1162 -3.2381 -4.6193
  512MOL0     H69106   9.442   5.127   7.237 -1.1414  0.3635 -3.0875
  512MOL0     H69107   9.638   5.008   7.148 -1.6555  3.1590  0.7607
  512MOL0     H69108   9.758   4.879   7.043 -0.7644 -0.3196 -1.7440
  512MOL0     H69109   9.654   4.749   6.988 -0.0408  0.9014  0.0338
  512MOL0     H69110   9.929   4.704   7.116  0.0193  0.6504 -0.2229
  512MOL0     H69111   9.907   4.751   6.943 -2.3370  1.7677 -0.3315
  512MOL0     H69112   9.746   4.516   7.038 -0.4790  1.2473 -2.9270
  512MOL0     H69113   9.924   4.487   7.035  0.0145 -1.6588 -1.0893
  512MOL0     H69114   9.762   4.562   6.787  1.4497  1.4052 -0.6654
  512MOL0     H69115   9.934   4.550   6.796 -0.3407  2.4457  0.0737
  512MOL0     H69116   9.819   4.148   6.750 -1.9053 -0.3233  0.7323
  512MOL0     H69117   9.544   4.662   7.382 -1.6464 -0.4728  0.7765
  512MOL0     H69118   9.362   4.659   7.525 -2.3342  0.1883 -0.1464
  512MOL0     H69119   9.358   4.811   7.622 -1.2516 -1.7813  2.4668
  512MOL0     H69120   9.237   4.767   7.504  0.1389 -0.0176  1.7709
  513MOL0     O69121  11.504   4.290   3.728 -0.5496  0.2173  0.5271
  513MOL0     C69122  11.517   4.228   3.617  0.3166 -0.8651 -0.0088
  513MOL0     O69123  11.431   4.227   3.510 -0.1359 -0.3469 -0.4409
  513MOL0     C69124  11.325   4.302   3.519 -0.8518 -0.3598  0.5682
  513MOL0     C69125  11.204   4.267   3.579 -0.2400  0.1533  0.0893
  513MOL0     C69126  11.092   4.350   3.581  0.2964  0.5602 -0.5790
  513MOL0     C69127  11.111   4.480   3.530 -0.7307 -0.2287 -0.2636
  513MOL0     O69128  11.023   4.576   3.550  0.6253  0.0216 -0.4093
  513MOL0     C69129  10.885   4.532   3.532 -0.3060 -0.0756  0.1783
  513MOL0     C69130  10.789   4.648   3.541  0.1738 -0.0543  0.8745
  513MOL0     C69131  10.787   4.714   3.675 -0.1234  0.0125 -0.2777
  513MOL0     C69132  10.685   4.833   3.656 -0.3781  0.5387  0.4246
  513MOL0     C69133  10.667   4.914   3.787  0.3425  0.7665  0.9608
  513MOL0     C69134  10.793   4.971   3.862 -0.4929 -0.4657  0.8238
  513MOL0     C69135  10.876   5.084   3.786  0.1225  0.6440 -0.2210
  513MOL0     C69136  10.984   5.145   3.875 -0.1707  0.1489 -0.8698
  513MOL0     N69137  11.095   5.051   3.894 -0.6499  1.0503 -0.0316
  513MOL0     C69138  11.131   4.955   3.807 -0.4215 -0.0842  0.1715
  513MOL0     C69139  11.199   4.864   3.876  0.8723 -0.1355 -0.1091
  513MOL0     C69140  11.255   4.740   3.814  0.1053 -0.2329  0.1185
  513MOL0     C69141  11.396   4.698   3.842 -0.1167  0.6180  0.6927
  513MOL0     C69142  11.494   4.781   3.754  0.1878 -0.5665 -0.3274
  513MOL0     C69143  11.640   4.759   3.788 -0.7011  0.1844  0.5270
  513MOL0     O69144  11.719   4.834   3.686  0.7600 -0.1927  0.2000
  513MOL0     C69145  11.847   4.803   3.646  0.9579 -0.5407 -0.7556
  513MOL0     C69146  11.903   4.679   3.674  0.0821 -0.2350  0.5713
  513MOL0     C69147  12.027   4.641   3.616  0.9098  0.2590 -0.6262
  513MOL0     C69148  12.093   4.726   3.522  0.6882  0.6500  0.4168
  513MOL0     C69149  12.217   4.686   3.465 -0.9812 -0.7622  0.4798
  513MOL0     O69150  12.263   4.754   3.355 -0.0059 -0.3169  0.7634
  513MOL0     C69151  12.393   4.722   3.328 -0.1745  0.2317  0.2580
  513MOL0     C69152  12.506   4.781   3.400 -1.0266 -0.1240  0.8446
  513MOL0     C69153  12.639   4.747   3.361 -0.6218  0.7405 -0.5234
  513MOL0     C69154  12.662   4.656   3.247 -0.6809  0.7952  0.8718
  513MOL0     O69155  12.784   4.607   3.215 -0.4405 -0.1873 -0.0788
  513MOL0     C69156  12.876   4.572   3.314 -0.3389 -0.5613  0.4045
  513MOL0     C69157  12.958   4.450   3.276  0.0427 -0.4296  0.3777
  513MOL0     C69158  12.879   4.314   3.301  0.1046 -0.0434  0.3307
  513MOL0     C69159  12.778   4.279   3.192  0.1289 -0.3716 -0.2924
  513MOL0     C69160  12.724   4.139   3.223  0.2916  0.7669  0.3884
  513MOL0     C69161  12.696   4.056   3.096 -0.3235 -0.4898 -0.2650
  513MOL0     C69162  12.567   4.098   3.032 -0.9641 -0.4399 -0.0839
  513MOL0     C69163  12.569   4.027   2.894  0.1486  0.9588 -0.4824
  513MOL0    Cl69164  12.692   4.098   2.777 -0.0243  0.5141 -0.2896
  513MOL0     C69165  12.551   4.592   3.183 -0.1674  0.6157  0.6122
  513MOL0     C69166  12.421   4.622   3.225 -0.1099  0.2670  0.1499
  513MOL0     O69167  12.282   4.596   3.522  0.4489  0.3829  0.5102
  513MOL0     C69168  12.026   4.848   3.482 -0.5581 -0.3000  0.0340
  513MOL0     C69169  11.909   4.887   3.550 -0.9303  0.2489  0.4711
  513MOL0     N69170  11.214   4.907   4.003 -0.3303 -1.0037  0.3443
  513MOL0     N69171  11.152   5.024   4.016  0.6623  0.2101  0.3972
  513MOL0     C69172  11.229   4.517   3.481 -0.6658  0.7609 -0.2902
  513MOL0     C69173  11.337   4.429   3.472  0.4893 -0.7677  1.3185
  513MOL0     C69174  11.622   4.128   3.615 -0.9518  0.7588  0.2342
  513MOL0     C69175  11.625   4.024   3.512  0.8624 -1.3522 -0.4921
  513MOL0     C69176  11.722   3.926   3.508 -0.8212  0.2328 -0.0805
  513MOL0     C69177  11.823   3.920   3.596  0.1515  0.6019 -0.7573
  513MOL0     O69178  11.934   3.844   3.581 -0.1381  0.2625 -0.1077
  513MOL0     C69179  11.973   3.777   3.704 -0.1131 -0.2312 -0.2190
  513MOL0     C69180  11.957   3.626   3.691  0.0179 -0.4391  0.1777
  513MOL0     C69181  12.052   3.557   3.584 -0.4141 -0.0047 -0.4168
  513MOL0     C69182  12.056   3.403   3.590 -0.3839  0.1753 -0.2588
  513MOL0     C69183  12.142   3.336   3.694 -0.6133 -0.7683 -0.4561
  513MOL0     C69184  12.229   3.288   3.759  0.1240 -0.6071 -0.8944
  513MOL0     C69185  11.835   4.030   3.681 -0.0369  0.2609 -0.8984
  513MOL0     C69186  11.736   4.134   3.694  0.0184 -0.4117  0.1631
  513MOL0     C69187  11.783   4.259   3.771  0.4695 -0.0078 -0.1673
  513MOL0     H69188  11.201   4.171   3.628  1.6476  0.9714  1.9278
  513MOL0     H69189  11.000   4.324   3.633  0.9228 -3.3306 -1.1147
  513MOL0     H69190  10.871   4.484   3.435  0.1188 -0.0770  0.1148
  513MOL0     H69191  10.859   4.464   3.614  3.0367  1.0562  2.4082
  513MOL0     H69192  10.692   4.600   3.522  1.4400 -2.8307  0.8973
  513MOL0     H69193  10.828   4.717   3.466 -2.4832 -0.6981 -1.2498
  513MOL0     H69194  10.888   4.743   3.707  0.6780  0.1937 -2.7397
  513MOL0     H69195  10.747   4.661   3.762 -1.0301  3.8953  1.9111
  513MOL0     H69196  10.736   4.900   3.586  1.5308 -1.1244  0.1318
  513MOL0     H69197  10.586   4.802   3.622  0.0844  0.4256 -0.8935
  513MOL0     H69198  10.608   5.003   3.764  0.7879  1.2797  1.7487
  513MOL0     H69199  10.613   4.853   3.859  0.0552  1.0887  1.0207
  513MOL0     H69200  10.765   5.013   3.959  0.6332  1.1032  0.5142
  513MOL0     H69201  10.859   4.885   3.877 -2.2049 -1.6781  1.7197
  513MOL0     H69202  10.811   5.169   3.765  1.0408  1.7991  1.4020
  513MOL0     H69203  10.901   5.051   3.684  1.0394 -0.9006  0.4680
  513MOL0     H69204  11.028   5.232   3.826 -1.6759  1.1083 -0.5792
  513MOL0     H69205  10.932   5.170   3.968  0.9764 -0.8387  0.0670
  513MOL0     H69206  11.109   4.950   3.701  4.0614 -0.2144 -0.9500
  513MOL0     H69207  11.187   4.656   3.835 -4.9702  2.7197 -2.6238
  513MOL0     H69208  11.255   4.744   3.705 -0.4393 -0.0608  0.1242
  513MOL0     H69209  11.412   4.707   3.950 -1.9177  1.0686  0.9616
  513MOL0     H69210  11.403   4.589   3.832 -2.1699 -0.0322  4.3998
  513MOL0     H69211  11.471   4.885   3.782  3.2664  0.1527 -0.1058
  513MOL0     H69212  11.479   4.753   3.650  0.4550 -0.2165 -0.4617
  513MOL0     H69213  11.651   4.651   3.781 -1.6246 -0.1232  2.8764
  513MOL0     H69214  11.669   4.787   3.890 -2.2493  1.5715  0.6350
  513MOL0     H69215  11.850   4.606   3.735 -0.4185 -0.7205 -0.4113
  513MOL0     H69216  12.071   4.543   3.634  0.2032  0.3615  2.0338
  513MOL0     H69217  12.503   4.850   3.484  0.2999 -0.7844  1.4641
  513MOL0     H69218  12.723   4.775   3.424 -2.6141  0.9622  2.2288
  513MOL0     H69219  12.946   4.655   3.328 -0.3053 -0.5854  0.3771
  513MOL0     H69220  12.830   4.542   3.408  1.4925  0.1122  1.5638
  513MOL0     H69221  12.990   4.457   3.171  0.4411 -0.1223  0.5167
  513MOL0     H69222  13.043   4.461   3.344 -1.4540 -0.1721  2.2712
  513MOL0     H69223  12.964   4.245   3.304  0.8599  0.8752  0.3582
  513MOL0     H69224  12.827   4.300   3.396 -1.7625  1.8552 -0.3080
  513MOL0     H69225  12.832   4.279   3.096  1.6072  3.7757  0.3413
  513MOL0     H69226  12.706   4.356   3.164 -0.9247 -0.7726  1.2601
  513MOL0     H69227  12.629   4.152   3.277  1.8598  1.3604  3.1770
  513MOL0     H69228  12.779   4.077   3.293 -2.0734 -2.6566 -0.5332
  513MOL0     H69229  12.779   4.081   3.029  0.3758  0.7755  1.0124
  513MOL0     H69230  12.701   3.949   3.120 -0.7744 -0.1229  1.7020
  513MOL0     H69231  12.565   4.200   2.993  2.0236 -1.0242 -2.0423
  513MOL0     H69232  12.474   4.076   3.086  0.2008  1.3123  2.9000
  513MOL0     H69233  12.577   3.922   2.925  1.2756  1.1067 -0.2513
  513MOL0     H69234  12.471   4.029   2.845  0.0075 -2.5731 -0.6167
  513MOL0     H69235  12.561   4.517   3.106 -0.8986  0.9686  0.1711
  513MOL0     H69236  12.338   4.567   3.183 -1.5619 -0.9669  4.2357
  513MOL0     H69237  12.055   4.905   3.394  3.0558  0.1147  1.3255
  513MOL0     H69238  11.853   4.971   3.510  0.3628  2.0290  2.1868
  513MOL0     H69239  11.227   4.614   3.432 -0.4436  1.1623  0.4663
  513MOL0     H69240  11.433   4.470   3.440 -0.4296  1.8020  1.6022
  513MOL0     H69241  11.549   4.027   3.434  0.6711  0.2884 -0.2862
  513MOL0     H69242  11.714   3.850   3.431 -0.2136  0.2960 -0.2129
  513MOL0     H69243  11.902   3.806   3.782 -1.2394 -2.0092 -0.5393
  513MOL0     H69244  12.068   3.812   3.746 -1.0205 -0.4642  2.1695
  513MOL0     H69245  11.854   3.605   3.658  0.0057 -2.8690  1.5390
  513MOL0     H69246  11.981   3.572   3.783 -1.2727 -4.5502 -1.6699
  513MOL0     H69247  12.150   3.605   3.591  1.7775 -4.2565  1.4926
  513MOL0     H69248  12.008   3.590   3.489  1.7574  4.3684 -0.1769
  513MOL0     H69249  11.954   3.368   3.609 -1.4050  1.8032 -2.3289
  513MOL0     H69250  12.075   3.370   3.487  0.2219  4.1938 -1.6110
  513MOL0     H69251  12.315   3.247   3.809 -0.3747 -0.3345  0.2232
  513MOL0     H69252  11.936   4.041   3.722  0.0067  2.3053 -1.4899
  513MOL0     H69253  11.891   4.273   3.778  0.0972  3.9932 -0.2227
  513MOL0     H69254  11.752   4.353   3.724  1.3861  0.5928  0.3935
  513MOL0     H69255  11.746   4.253   3.873 -0.4682 -2.0319 -0.5817
  514MOL0     O69256   8.776   3.634   1.955 -0.5714 -0.3855 -0.3850
  514MOL0     C69257   8.680   3.656   2.030  0.1473  0.4711  0.3359
  514MOL0     O69258   8.591   3.754   2.016  0.6462 -0.7230 -0.0055
  514MOL0     C69259   8.552   3.814   1.901  0.6314 -0.5102 -0.1886
  514MOL0     C69260   8.578   3.777   1.769  0.6308 -0.2271 -0.2388
  514MOL0     C69261   8.510   3.840   1.670 -0.6634  0.0787  0.4163
  514MOL0     C69262   8.402   3.919   1.685  0.5757  0.1420  0.4139
  514MOL0     O69263   8.338   3.958   1.572 -0.1317  0.5299  0.0639
  514MOL0     C69264   8.291   4.096   1.569  0.8949  0.0700  0.0052
  514MOL0     C69265   8.138   4.122   1.596  0.1284  0.6241 -0.8536
  514MOL0     C69266   8.119   4.276   1.620  0.1663  0.5762 -0.8216
  514MOL0     C69267   8.172   4.327   1.749 -0.2213  0.3537 -0.4467
  514MOL0     C69268   8.106   4.461   1.812 -1.5118  1.1927 -0.6696
  514MOL0     C69269   8.124   4.575   1.720 -0.3160 -0.9584  0.6326
  514MOL0     C69270   8.038   4.698   1.729  0.4483 -0.0184  1.2659
  514MOL0     C69271   8.068   4.781   1.855  0.4439 -0.6145 -0.1821
  514MOL0     N69272   8.187   4.863   1.832  0.2893 -0.1001  0.7972
  514MOL0     C69273   8.306   4.829   1.887 -0.0381 -0.0716 -0.0868
  514MOL0     C69274   8.379   4.944   1.897  0.1652 -0.1244  0.0467
  514MOL0     C69275   8.519   4.956   1.946  0.1355  0.6087  0.0696
  514MOL0     C69276   8.564   5.093   1.996  0.3058 -0.3681 -0.2153
  514MOL0     C69277   8.500   5.131   2.128  1.0804  0.2068 -0.7166
  514MOL0     C69278   8.540   5.276   2.167 -0.2173  0.0634  0.7466
  514MOL0     O69279   8.457   5.368   2.088  0.0533 -0.0789  0.7903
  514MOL0     C69280   8.485   5.502   2.102  0.9416  0.1193 -0.0268
  514MOL0     C69281   8.604   5.554   2.145  0.6313 -0.5787  0.4421
  514MOL0     C69282   8.608   5.697   2.157 -0.2158 -0.2868 -0.4927
  514MOL0     C69283   8.514   5.785   2.104  0.8726 -0.6195  0.1347
  514MOL0     C69284   8.538   5.940   2.091  1.0502  0.5968 -0.1498
  514MOL0     O69285   8.444   6.013   2.029  0.6535  0.1939  0.2205
  514MOL0     C69286   8.470   6.149   1.992 -1.3985  1.1040  0.7648
  514MOL0     C69287   8.596   6.208   1.997  1.1785 -0.0164 -0.9064
  514MOL0     C69288   8.612   6.330   1.928 -0.5458  1.3458 -0.1839
  514MOL0     C69289   8.496   6.394   1.883  0.0582  0.2031 -0.1586
  514MOL0     O69290   8.508   6.525   1.845 -0.4740  1.0092 -0.1602
  514MOL0     C69291   8.435   6.571   1.729 -0.1505  0.2739 -0.0952
  514MOL0     C69292   8.524   6.539   1.610 -0.2984  0.6405  0.2943
  514MOL0     C69293   8.649   6.629   1.618 -0.2476  0.6188  0.7272
  514MOL0     C69294   8.767   6.590   1.519 -1.1579  0.7458  0.1986
  514MOL0     C69295   8.888   6.690   1.533  0.1296  0.4549 -0.3190
  514MOL0     C69296   8.861   6.841   1.508  0.3205 -0.5778  0.4573
  514MOL0     C69297   8.791   6.862   1.369  0.1358 -0.2535 -0.3583
  514MOL0     C69298   8.799   7.007   1.336  0.7795  0.2122 -0.8834
  514MOL0    Cl69299   8.960   7.067   1.295  0.0616  0.0423 -0.1308
  514MOL0     C69300   8.368   6.337   1.886 -0.4288  0.4236  0.4291
  514MOL0     C69301   8.363   6.204   1.939  0.4712 -0.5497 -0.0505
  514MOL0     O69302   8.633   5.984   2.161 -0.1138 -0.2098 -0.1329
  514MOL0     C69303   8.405   5.725   2.050  0.9506  0.4670 -0.2371
  514MOL0     C69304   8.390   5.586   2.058 -0.2125 -0.3457  0.2195
  514MOL0     N69305   8.306   5.049   1.858  0.3008  0.7568  0.7210
  514MOL0     N69306   8.189   5.003   1.833 -0.5488 -0.0555 -0.6195
  514MOL0     C69307   8.365   3.953   1.815  1.0786  0.2488  0.0678
  514MOL0     C69308   8.443   3.906   1.925  0.0011 -0.4646  0.0337
  514MOL0     C69309   8.670   3.572   2.160  0.6808 -0.9214 -0.6773
  514MOL0     C69310   8.595   3.636   2.262 -0.5485  0.3620  0.0002
  514MOL0     C69311   8.579   3.576   2.389 -0.0188 -0.2505 -0.3908
  514MOL0     C69312   8.625   3.446   2.420  1.8681 -0.7413  0.2490
  514MOL0     O69313   8.596   3.398   2.540 -0.2008 -1.1040 -0.0812
  514MOL0     C69314   8.670   3.287   2.589 -0.1184  1.3243  0.1157
  514MOL0     C69315   8.672   3.245   2.732  0.1250 -0.3369  0.0001
  514MOL0     C69316   8.521   3.248   2.777  0.2667  0.0466 -0.2056
  514MOL0     C69317   8.528   3.203   2.928  0.1048  0.1985  0.6104
  514MOL0     C69318   8.553   3.060   2.956  0.3543  0.0924 -0.5258
  514MOL0     C69319   8.567   2.947   2.992  0.1645 -0.0396 -0.5067
  514MOL0     C69320   8.682   3.377   2.315 -0.4553 -1.0507  0.1081
  514MOL0     C69321   8.710   3.436   2.186 -0.8299 -0.3102  0.2910
  514MOL0     C69322   8.784   3.357   2.086 -0.4641 -0.3553 -0.6010
  514MOL0     H69323   8.645   3.697   1.738 -2.2837 -2.4513 -1.3382
  514MOL0     H69324   8.542   3.806   1.572 -2.8122  0.3358 -0.4438
  514MOL0     H69325   8.353   4.158   1.634  0.0198 -1.0279  1.9902
  514MOL0     H69326   8.324   4.130   1.471 -0.8881 -1.4080 -1.1845
  514MOL0     H69327   8.110   4.074   1.690 -0.6112  1.5263 -0.6015
  514MOL0     H69328   8.071   4.086   1.517  1.6456 -1.3205 -1.3506
  514MOL0     H69329   8.013   4.302   1.620 -0.2028 -0.7991  0.3566
  514MOL0     H69330   8.174   4.331   1.544  2.2752  1.7714  1.4371
  514MOL0     H69331   8.149   4.246   1.817  0.9196  0.5991  0.2634
  514MOL0     H69332   8.282   4.335   1.752 -0.0283 -1.5917 -1.1526
  514MOL0     H69333   7.999   4.441   1.816 -1.2436 -0.9647  4.6575
  514MOL0     H69334   8.151   4.475   1.911 -0.1204 -3.7649 -0.3126
  514MOL0     H69335   8.225   4.607   1.743 -0.2890 -0.9612  0.5223
  514MOL0     H69336   8.121   4.543   1.615 -2.7764 -2.6607  1.1315
  514MOL0     H69337   7.934   4.671   1.712  0.8678 -1.6029  1.1132
  514MOL0     H69338   8.047   4.758   1.638 -1.5184 -0.6179  0.6263
  514MOL0     H69339   7.985   4.844   1.888 -1.3952 -1.2801 -3.1456
  514MOL0     H69340   8.088   4.706   1.932 -2.3579 -1.6208 -0.3213
  514MOL0     H69341   8.337   4.728   1.912 -0.6357 -0.1624  0.3233
  514MOL0     H69342   8.538   4.894   2.035 -0.6644  1.7592  1.0786
  514MOL0     H69343   8.591   4.928   1.869 -0.1579  2.7376 -1.0328
  514MOL0     H69344   8.673   5.088   2.005  0.2563 -2.5668 -0.3224
  514MOL0     H69345   8.519   5.147   1.913  0.5167  1.3185  0.7222
  514MOL0     H69346   8.529   5.066   2.211 -0.9098  0.5988  0.3539
  514MOL0     H69347   8.391   5.125   2.130  1.0478  0.7494  1.1871
  514MOL0     H69348   8.645   5.288   2.136 -0.9860  2.8196 -1.1465
  514MOL0     H69349   8.550   5.288   2.275 -0.2483  2.9500  0.5101
  514MOL0     H69350   8.686   5.491   2.178  0.8970  0.1913  1.2962
  514MOL0     H69351   8.694   5.735   2.212 -2.2806  1.1447  1.9808
  514MOL0     H69352   8.685   6.167   2.044  1.6309  0.3520 -1.4279
  514MOL0     H69353   8.697   6.396   1.915 -0.9761  2.3113  1.5672
  514MOL0     H69354   8.335   6.529   1.717 -0.9585  2.2911 -0.9117
  514MOL0     H69355   8.415   6.678   1.735 -0.5174  0.2022 -0.0655
  514MOL0     H69356   8.538   6.431   1.610 -0.3615  0.6311  0.6498
  514MOL0     H69357   8.466   6.555   1.519  0.6833  1.1795 -0.2544
  514MOL0     H69358   8.626   6.735   1.624 -1.7915  0.3759 -0.1906
  514MOL0     H69359   8.691   6.600   1.715  1.6973 -2.2058 -0.8039
  514MOL0     H69360   8.728   6.589   1.417  1.0598 -1.7550 -0.7424
  514MOL0     H69361   8.799   6.486   1.520  0.6175  1.1343 -2.9842
  514MOL0     H69362   8.965   6.661   1.461  2.0164  0.4177  1.6192
  514MOL0     H69363   8.936   6.689   1.631 -0.7847  0.5898  0.1433
  514MOL0     H69364   8.795   6.877   1.588  1.2685 -1.6424  1.7484
  514MOL0     H69365   8.957   6.892   1.515 -0.5830  1.7258 -2.0000
  514MOL0     H69366   8.684   6.840   1.381 -0.6801  2.1355 -2.4225
  514MOL0     H69367   8.841   6.805   1.290  2.8455  2.0326 -0.4025
  514MOL0     H69368   8.740   7.023   1.246  0.8966  0.8316 -0.8530
  514MOL0     H69369   8.744   7.061   1.414  2.7076 -1.5206  1.8645
  514MOL0     H69370   8.270   6.370   1.853  0.1463  0.4107 -1.3916
  514MOL0     H69371   8.267   6.154   1.939  0.3598 -0.4783 -2.5578
  514MOL0     H69372   8.322   5.784   2.011  1.5279 -0.4947 -3.1868
  514MOL0     H69373   8.297   5.547   2.017  1.0070 -2.5965 -0.5401
  514MOL0     H69374   8.275   4.010   1.838  1.0079  0.0903  0.1898
  514MOL0     H69375   8.415   3.917   2.030  3.7524  0.7882  1.0612
  514MOL0     H69376   8.560   3.738   2.248 -0.7802  0.0171 -2.3085
  514MOL0     H69377   8.534   3.632   2.471 -0.6525 -3.2817  1.5283
  514MOL0     H69378   8.774   3.306   2.564  0.6130 -0.4739  1.5440
  514MOL0     H69379   8.636   3.199   2.534  1.0201  1.6360 -1.1372
  514MOL0     H69380   8.719   3.326   2.789  0.9572 -0.8115  0.0012
  514MOL0     H69381   8.731   3.155   2.748  2.0694  0.0879 -3.8358
  514MOL0     H69382   8.459   3.180   2.719 -0.1222 -0.1529  0.4342
  514MOL0     H69383   8.474   3.346   2.761 -0.6795 -0.8781 -4.0744
  514MOL0     H69384   8.612   3.254   2.975  2.0484  0.2317 -2.5784
  514MOL0     H69385   8.427   3.221   2.966  0.0906  1.7797 -0.1051
  514MOL0     H69386   8.573   2.851   3.040  4.1761  0.6048  0.6757
  514MOL0     H69387   8.710   3.273   2.333 -0.0900 -0.5791  2.5798
  514MOL0     H69388   8.874   3.406   2.047  0.3458 -0.1356  1.4355
  514MOL0     H69389   8.824   3.280   2.152 -4.8397 -1.2353  1.3844
  514MOL0     H69390   8.740   3.321   1.992 -1.4495  0.7279 -0.5776
  515MOL0     O69391   7.818  10.266   5.915 -0.0682  0.1565  0.3854
  515MOL0     C69392   7.719  10.200   5.885  0.0302  0.2279  0.2782
  515MOL0     O69393   7.611  10.172   5.964  0.1989 -0.5585 -0.2658
  515MOL0     C69394   7.586  10.270   6.063  0.3648  0.3065  0.2718
  515MOL0     C69395   7.621  10.255   6.199 -1.2632  0.0424 -0.2469
  515MOL0     C69396   7.567  10.347   6.295 -0.3092 -0.3359  0.7482
  515MOL0     C69397   7.493  10.461   6.247  0.1092  0.3534 -0.6484
  515MOL0     O69398   7.441  10.556   6.333  0.5636  0.1332 -0.3246
  515MOL0     C69399   7.537  10.604   6.429 -0.1235 -0.5054  0.4597
  515MOL0     C69400   7.494  10.737   6.505  0.2514  0.0314  0.0353
  515MOL0     C69401   7.343  10.736   6.551 -0.5289 -0.2912 -0.0753
  515MOL0     C69402   7.303  10.656   6.675 -0.5619  0.2447  0.6832
  515MOL0     C69403   7.151  10.623   6.673 -0.4936  0.1480 -0.3974
  515MOL0     C69404   7.112  10.523   6.783  1.1283  0.3829  0.2049
  515MOL0     C69405   6.974  10.474   6.760  0.1030 -0.2781 -1.0243
  515MOL0     C69406   6.904  10.401   6.881 -0.4664 -0.0057 -0.2566
  515MOL0     N69407   6.781  10.349   6.825  0.1613  0.1197 -0.2457
  515MOL0     C69408   6.765  10.275   6.713  0.2056 -0.1598  0.2437
  515MOL0     C69409   6.629  10.262   6.685 -0.3903 -0.2497 -0.7437
  515MOL0     C69410   6.566  10.188   6.570  0.4348  0.5137 -0.9186
  515MOL0     C69411   6.507  10.046   6.615 -0.3077 -0.1128  0.4383
  515MOL0     C69412   6.492   9.938   6.509  0.5134 -0.0022 -0.2624
  515MOL0     C69413   6.633   9.902   6.447 -0.2277 -0.2909  0.4377
  515MOL0     O69414   6.714   9.851   6.550 -0.0822 -0.1762  0.2726
  515MOL0     C69415   6.849   9.829   6.519  0.2698 -0.4755  0.2289
  515MOL0     C69416   6.926   9.783   6.620 -0.3520 -0.6890 -0.3006
  515MOL0     C69417   7.064   9.752   6.596  0.7223 -0.7289 -0.3427
  515MOL0     C69418   7.114   9.760   6.474 -0.6964  0.5487  1.5358
  515MOL0     C69419   7.255   9.730   6.449 -1.2259 -0.1714 -0.0631
  515MOL0     O69420   7.310   9.784   6.335 -0.6065  0.0472 -0.0335
  515MOL0     C69421   7.446   9.777   6.329 -0.6420 -0.9695  1.4476
  515MOL0     C69422   7.514   9.655   6.331 -0.6583  0.6199  1.2215
  515MOL0     C69423   7.652   9.645   6.324 -0.0642 -0.0388  0.9939
  515MOL0     C69424   7.731   9.763   6.317 -0.2003  0.1197  0.5809
  515MOL0     O69425   7.868   9.769   6.286  0.1315  0.3291 -0.7517
  515MOL0     C69426   7.924   9.657   6.221 -0.8996 -0.0969  0.1843
  515MOL0     C69427   8.045   9.712   6.164 -0.6175  0.0727  0.3704
  515MOL0     C69428   8.141   9.615   6.105 -0.1192  0.0698 -0.6170
  515MOL0     C69429   8.274   9.684   6.065 -0.1121  0.3316  1.5034
  515MOL0     C69430   8.387   9.602   6.014 -0.0007 -0.2284 -0.6820
  515MOL0     C69431   8.434   9.507   6.133 -0.2732  0.3790  0.2362
  515MOL0     C69432   8.563   9.439   6.087 -0.4495  1.3419  0.5603
  515MOL0     C69433   8.612   9.354   6.209 -0.2346  0.8097  0.5084
  515MOL0    Cl69434   8.712   9.224   6.144  0.2011  0.4213  0.1184
  515MOL0     C69435   7.654   9.881   6.300  0.2591  0.0932  0.2477
  515MOL0     C69436   7.516   9.890   6.312  0.5039  0.0558  0.3266
  515MOL0     O69437   7.314   9.649   6.523  0.0167  0.8153  0.3144
  515MOL0     C69438   7.034   9.798   6.367 -0.3279 -0.1128  0.5904
  515MOL0     C69439   6.903   9.831   6.391  0.2227  0.0139 -0.2689
  515MOL0     N69440   6.560  10.338   6.783  0.4830  0.1365 -0.1901
  515MOL0     N69441   6.647  10.383   6.864 -0.8074  0.5127 -0.0592
  515MOL0     C69442   7.459  10.471   6.111  0.1642 -0.2572 -0.2800
  515MOL0     C69443   7.515  10.380   6.021 -0.1080 -0.3876  0.2457
  515MOL0     C69444   7.721  10.126   5.763  0.0505 -0.3683  0.3223
  515MOL0     C69445   7.692  10.192   5.643  0.7244  0.0447  1.0060
  515MOL0     C69446   7.683  10.126   5.522  0.6779  0.1827 -0.2078
  515MOL0     C69447   7.700   9.984   5.518 -0.2682 -0.4584  0.0281
  515MOL0     O69448   7.692   9.925   5.394 -1.2766 -0.2539  0.3852
  515MOL0     C69449   7.708   9.782   5.384  0.7455  0.5445 -0.8203
  515MOL0     C69450   7.588   9.709   5.319 -0.2455 -0.2170  0.2804
  515MOL0     C69451   7.606   9.562   5.283  0.5414 -0.0929 -0.6556
  515MOL0     C69452   7.722   9.538   5.182  0.7269 -0.1710 -0.7479
  515MOL0     C69453   7.669   9.452   5.078 -0.4590  0.9483  0.4370
  515MOL0     C69454   7.617   9.388   4.989  0.2615  0.0405 -0.2136
  515MOL0     C69455   7.728   9.921   5.642 -0.3331  0.2952 -0.1458
  515MOL0     C69456   7.740   9.989   5.765  0.7325  0.6828 -0.2810
  515MOL0     C69457   7.770   9.913   5.892  0.2379 -0.4066  0.2172
  515MOL0     H69458   7.683  10.168   6.219  1.3877  1.1461 -2.8656
  515MOL0     H69459   7.584  10.339   6.402  0.7923  2.0496  0.7950
  515MOL0     H69460   7.558  10.526   6.502  1.6736  1.4159  2.1476
  515MOL0     H69461   7.628  10.635   6.377 -0.2271  0.8439  1.0445
  515MOL0     H69462   7.502  10.816   6.429 -1.8263 -0.4412 -0.7277
  515MOL0     H69463   7.553  10.769   6.592 -0.6718 -2.5895  1.7396
  515MOL0     H69464   7.289  10.704   6.461  2.5302 -0.7924 -1.8985
  515MOL0     H69465   7.315  10.838   6.577 -0.2731 -0.2252 -0.0605
  515MOL0     H69466   7.359  10.562   6.683  0.5752  1.0366  2.8153
  515MOL0     H69467   7.339  10.713   6.761 -2.8938  3.0562 -0.0530
  515MOL0     H69468   7.110  10.723   6.689  1.6717  0.5403  4.6215
  515MOL0     H69469   7.124  10.587   6.574  0.5606  2.9875 -1.8286
  515MOL0     H69470   7.196  10.454   6.786  1.6995  1.0588  0.0565
  515MOL0     H69471   7.111  10.580   6.877 -1.5685  2.5688 -0.9897
  515MOL0     H69472   6.974  10.410   6.671 -1.8683  0.7951 -1.8587
  515MOL0     H69473   6.916  10.563   6.731 -1.2662 -0.6194  0.5176
  515MOL0     H69474   6.976  10.323   6.909  1.2310  1.8181  0.7575
  515MOL0     H69475   6.900  10.480   6.957  2.2538  3.6769 -3.5216
  515MOL0     H69476   6.836  10.221   6.652 -0.8644 -0.6880 -0.5736
  515MOL0     H69477   6.470  10.236   6.544 -0.5212 -0.2551  1.0284
  515MOL0     H69478   6.638  10.176   6.488  0.9913 -1.5838 -0.1758
  515MOL0     H69479   6.577  10.003   6.686 -0.4560 -3.5312 -1.2687
  515MOL0     H69480   6.406  10.045   6.657  0.5345 -0.5560  2.5462
  515MOL0     H69481   6.420   9.953   6.428  0.8570 -0.7235 -0.7093
  515MOL0     H69482   6.447   9.853   6.562  0.7586  1.4058  2.3744
  515MOL0     H69483   6.678   9.984   6.391 -2.5421 -0.3858 -1.7271
  515MOL0     H69484   6.620   9.820   6.376  2.2112  0.9298 -1.5742
  515MOL0     H69485   6.875   9.774   6.715 -2.6573  0.4907 -1.3648
  515MOL0     H69486   7.127   9.717   6.677 -0.1651  2.0236  1.7070
  515MOL0     H69487   7.463   9.559   6.338 -0.0771  0.1087 -0.8106
  515MOL0     H69488   7.702   9.552   6.300  0.0807  0.5499 -1.1875
  515MOL0     H69489   7.951   9.588   6.301 -1.6576  1.8320  2.2289
  515MOL0     H69490   7.863   9.607   6.145  0.3722  0.1742 -1.0487
  515MOL0     H69491   8.026   9.791   6.090  2.7105 -0.6640 -1.4672
  515MOL0     H69492   8.111   9.770   6.229  1.5492 -0.7864 -0.9480
  515MOL0     H69493   8.159   9.543   6.185 -0.2251 -0.5537 -1.1512
  515MOL0     H69494   8.096   9.565   6.020  2.9644 -0.9146 -1.8044
  515MOL0     H69495   8.304   9.741   6.153 -0.7183 -0.4353  2.2195
  515MOL0     H69496   8.250   9.746   5.978 -1.7977 -0.9911  0.9565
  515MOL0     H69497   8.466   9.673   5.988 -1.5823  2.3904  1.2087
  515MOL0     H69498   8.350   9.546   5.927 -0.0850 -0.3651 -0.5594
  515MOL0     H69499   8.460   9.570   6.219 -1.4757  0.7445  0.3426
  515MOL0     H69500   8.357   9.432   6.152 -0.0052  0.0280 -0.0371
  515MOL0     H69501   8.637   9.511   6.053 -2.4385  2.5394 -1.5154
  515MOL0     H69502   8.546   9.363   6.011 -2.0666  0.0783  2.0893
  515MOL0     H69503   8.666   9.408   6.288  0.4008 -0.0370  0.6661
  515MOL0     H69504   8.530   9.307   6.264  0.0571  0.7388  0.8924
  515MOL0     H69505   7.704   9.971   6.267  0.7988  0.2060  1.3635
  515MOL0     H69506   7.452   9.975   6.290 -2.2100 -1.6091  1.2539
  515MOL0     H69507   7.074   9.799   6.266  0.3627 -0.9710  0.8387
  515MOL0     H69508   6.843   9.864   6.307 -1.6480  1.6972  1.5729
  515MOL0     H69509   7.402  10.558   6.080 -0.6508 -0.5701  0.3235
  515MOL0     H69510   7.506  10.381   5.913  3.5672 -0.8032 -0.2201
  515MOL0     H69511   7.674  10.299   5.650 -1.7750 -0.3964  2.7332
  515MOL0     H69512   7.665  10.192   5.438  1.0367  5.0361  3.1058
  515MOL0     H69513   7.731   9.723   5.473  1.5039  2.0934  0.0520
  515MOL0     H69514   7.791   9.755   5.317  2.0115  0.4325  0.7346
  515MOL0     H69515   7.565   9.761   5.226  0.5700  2.2702  1.3778
  515MOL0     H69516   7.504   9.718   5.389  0.1730 -1.0311  0.9090
  515MOL0     H69517   7.517   9.505   5.255  0.2248  0.9786 -1.9007
  515MOL0     H69518   7.628   9.512   5.378  0.2784 -0.2675 -0.6856
  515MOL0     H69519   7.767   9.628   5.139  1.1865 -1.4266 -3.0313
  515MOL0     H69520   7.798   9.474   5.227 -0.1199  0.3114  1.5099
  515MOL0     H69521   7.560   9.346   4.909 -1.7516  3.1108 -0.5684
  515MOL0     H69522   7.765   9.819   5.648  0.1335  0.3666 -1.5892
  515MOL0     H69523   7.836   9.964   5.962 -2.8088  0.9606  2.3062
  515MOL0     H69524   7.678   9.886   5.945  0.0730  3.6485  2.3411
  515MOL0     H69525   7.817   9.817   5.870  1.4220  0.4277 -1.0579
  516MOL0     O69526   8.624   4.648   5.951 -0.2498 -0.3689 -0.1925
  516MOL0     C69527   8.727   4.682   6.014  0.0202 -0.1372  0.2903
  516MOL0     O69528   8.850   4.688   5.965 -0.3973 -0.8321  0.0692
  516MOL0     C69529   8.870   4.624   5.845 -0.1966  0.3007  0.1888
  516MOL0     C69530   8.881   4.704   5.733  0.0916  0.0614  0.2123
  516MOL0     C69531   8.883   4.641   5.609  0.3857  0.1433  0.5159
  516MOL0     C69532   8.885   4.503   5.594 -0.9262 -0.7795 -0.7631
  516MOL0     O69533   8.896   4.433   5.473 -0.1558 -0.1342  0.0797
  516MOL0     C69534   8.875   4.498   5.348  0.1832 -1.0078  0.1747
  516MOL0     C69535   8.821   4.388   5.250 -0.0668 -0.4042 -0.2779
  516MOL0     C69536   8.931   4.294   5.202 -0.1562  0.6907  0.3956
  516MOL0     C69537   8.887   4.176   5.115  0.6655 -0.0107 -0.6823
  516MOL0     C69538   9.003   4.113   5.030 -0.6159 -0.4855  0.3764
  516MOL0     C69539   8.958   4.008   4.929 -0.1200  0.2378 -0.0761
  516MOL0     C69540   9.048   3.896   4.876 -0.2435 -0.0160  1.0913
  516MOL0     C69541   9.129   3.924   4.746 -0.4515  1.6345 -0.8033
  516MOL0     N69542   9.046   3.931   4.622 -0.0968  0.3180 -0.8342
  516MOL0     C69543   9.116   3.972   4.513  0.1783  0.0316 -1.0502
  516MOL0     C69544   9.033   3.938   4.419 -1.4108  0.1239  0.3656
  516MOL0     C69545   9.068   3.951   4.274 -0.7970  0.6241  0.3638
  516MOL0     C69546   9.195   3.885   4.227 -0.2372 -0.2946 -0.3010
  516MOL0     C69547   9.234   3.904   4.080 -0.3079 -0.9790 -0.0730
  516MOL0     C69548   9.265   4.049   4.042 -0.1956  0.6749 -0.6354
  516MOL0     O69549   9.399   4.078   4.085  0.6519  0.4677  0.3997
  516MOL0     C69550   9.485   4.163   4.016  0.2442 -0.3041  1.0241
  516MOL0     C69551   9.623   4.165   4.044  0.1290  1.2702 -0.3141
  516MOL0     C69552   9.707   4.250   3.974 -0.0175 -0.2732 -0.4949
  516MOL0     C69553   9.659   4.341   3.881  0.0920  0.0084  0.2473
  516MOL0     C69554   9.750   4.447   3.822 -0.1665 -0.1078  0.0926
  516MOL0     O69555   9.700   4.519   3.711  0.3679 -0.4498 -0.5006
  516MOL0     C69556   9.778   4.622   3.655 -0.6382 -0.2994  0.5844
  516MOL0     C69557   9.879   4.702   3.719  0.2034 -0.4152 -0.8099
  516MOL0     C69558   9.926   4.821   3.657  0.0861 -0.6675  0.1098
  516MOL0     C69559   9.886   4.860   3.532  0.4383 -0.6041 -0.0275
  516MOL0     O69560   9.951   4.969   3.488 -0.1727 -0.6003  0.0485
  516MOL0     C69561   9.920   5.007   3.349  0.6575  0.8309  0.5840
  516MOL0     C69562   9.974   4.912   3.240 -0.8602 -0.2466 -0.5095
  516MOL0     C69563  10.028   4.989   3.115 -0.1486  0.6472 -1.2155
  516MOL0     C69564  10.089   4.887   3.019 -0.0233 -0.6678 -0.2266
  516MOL0     C69565  10.127   4.943   2.888  0.2909  0.5733  0.5111
  516MOL0     C69566  10.214   5.064   2.895 -0.5938  0.6570  0.0476
  516MOL0     C69567  10.216   5.128   2.753 -1.0466  0.3817  0.7255
  516MOL0     C69568  10.293   5.262   2.749 -0.0777  0.2137 -0.6437
  516MOL0    Cl69569  10.464   5.263   2.801  0.2947 -0.0812 -0.0978
  516MOL0     C69570   9.786   4.782   3.467 -0.4874 -0.3578  0.4466
  516MOL0     C69571   9.742   4.660   3.521  0.5639  0.2647  0.3318
  516MOL0     O69572   9.867   4.442   3.866  0.1097  0.4796 -1.0467
  516MOL0     C69573   9.520   4.331   3.849 -0.3532  0.6266  0.2112
  516MOL0     C69574   9.433   4.249   3.916  0.0884 -0.1533 -0.5555
  516MOL0     N69575   8.915   3.895   4.460  0.3993 -0.6013 -0.2456
  516MOL0     N69576   8.920   3.892   4.594  0.2441 -0.1033 -0.1173
  516MOL0     C69577   8.877   4.422   5.717  0.1521 -1.5006  0.6200
  516MOL0     C69578   8.865   4.484   5.842 -0.2271 -0.3896  1.0028
  516MOL0     C69579   8.702   4.698   6.159  0.5398 -0.1537 -0.0384
  516MOL0     C69580   8.587   4.638   6.223  0.5120  0.2243 -0.3553
  516MOL0     C69581   8.557   4.664   6.357 -0.0850  1.1540 -0.6295
  516MOL0     C69582   8.654   4.718   6.452 -0.7574  0.3497 -0.2678
  516MOL0     O69583   8.638   4.730   6.588 -0.2882  0.2314  0.1322
  516MOL0     C69584   8.541   4.638   6.641 -0.6934  0.0366 -0.0192
  516MOL0     C69585   8.409   4.719   6.640 -0.2589  0.0011  0.1293
  516MOL0     C69586   8.387   4.773   6.783 -0.4969  0.1490  0.5755
  516MOL0     C69587   8.473   4.905   6.809  0.0073 -0.2994  0.7112
  516MOL0     C69588   8.453   4.946   6.949 -0.1759  0.0142 -0.9558
  516MOL0     C69589   8.414   4.995   7.046  0.1744 -0.0950  0.0171
  516MOL0     C69590   8.769   4.770   6.389  0.5304 -0.8134 -0.7824
  516MOL0     C69591   8.788   4.766   6.248 -0.3394 -0.6729 -1.3903
  516MOL0     C69592   8.919   4.837   6.205 -0.0539  0.2420  0.6472
  516MOL0     H69593   8.875   4.813   5.735 -1.3796 -0.0040  2.0254
  516MOL0     H69594   8.892   4.692   5.513 -0.4268 -0.9367 -0.1602
  516MOL0     H69595   8.807   4.583   5.341  1.3847 -0.1456 -2.0168
  516MOL0     H69596   8.975   4.537   5.326  0.3338  0.0840  2.5204
  516MOL0     H69597   8.774   4.434   5.162 -0.3648 -3.0089 -1.5750
  516MOL0     H69598   8.740   4.331   5.297  0.1396 -0.1722  0.3654
  516MOL0     H69599   8.994   4.263   5.286  1.0186  1.8332 -0.0319
  516MOL0     H69600   8.992   4.356   5.136 -0.3608 -0.8831 -1.3524
  516MOL0     H69601   8.842   4.108   5.189  1.4329 -2.3115 -2.2442
  516MOL0     H69602   8.803   4.206   5.051 -0.4394 -0.4731  0.4968
  516MOL0     H69603   9.068   4.185   4.979  1.1356 -1.0015  1.7743
  516MOL0     H69604   9.069   4.065   5.102  0.5354  2.8265  1.7614
  516MOL0     H69605   8.869   3.964   4.975 -0.2918 -1.9180 -2.2983
  516MOL0     H69606   8.912   4.052   4.840 -0.8107  2.1339  1.1462
  516MOL0     H69607   8.980   3.813   4.856 -2.9081  1.8310  1.7902
  516MOL0     H69608   9.121   3.869   4.953  0.7147  1.5091  0.7575
  516MOL0     H69609   9.204   4.002   4.767  4.0162 -1.6613 -2.9346
  516MOL0     H69610   9.184   3.832   4.726  2.5756  3.6336 -2.6447
  516MOL0     H69611   9.220   3.998   4.495 -0.2380  2.2993 -0.4389
  516MOL0     H69612   8.987   3.920   4.208 -1.5722  3.7650 -0.3522
  516MOL0     H69613   9.070   4.059   4.257 -1.7421  0.4024 -1.4192
  516MOL0     H69614   9.281   3.901   4.293 -0.1527 -1.0725 -0.2124
  516MOL0     H69615   9.179   3.777   4.241 -0.8502  0.2237  5.5167
  516MOL0     H69616   9.160   3.850   4.020 -1.6101  0.6226 -0.0091
  516MOL0     H69617   9.324   3.846   4.060 -0.2705 -1.0948  0.4253
  516MOL0     H69618   9.198   4.125   4.084 -1.9755 -0.2407 -1.6972
  516MOL0     H69619   9.258   4.043   3.933  0.7128  1.3220 -0.7373
  516MOL0     H69620   9.670   4.102   4.118  3.4905  0.9028 -2.5629
  516MOL0     H69621   9.807   4.237   4.015 -0.4256  1.8136  1.3389
  516MOL0     H69622   9.899   4.669   3.821 -1.1740 -0.1584 -0.4405
  516MOL0     H69623  10.005   4.865   3.717  1.3921 -4.0839  1.1169
  516MOL0     H69624   9.814   5.027   3.326  1.1168  0.7253 -1.9749
  516MOL0     H69625   9.981   5.097   3.337  1.1981  0.1205 -3.0962
  516MOL0     H69626  10.052   4.852   3.288 -1.3240 -2.0325 -1.8632
  516MOL0     H69627   9.896   4.845   3.202 -1.9156 -1.0472  2.7002
  516MOL0     H69628   9.938   5.031   3.068 -2.3470 -0.0883  1.9583
  516MOL0     H69629  10.096   5.064   3.155  0.7171 -2.1085  3.1671
  516MOL0     H69630  10.028   4.799   2.996  0.2060 -1.6989  2.6545
  516MOL0     H69631  10.175   4.850   3.075  1.2450 -2.4447 -3.1122
  516MOL0     H69632  10.044   4.959   2.818  2.4101  0.2521 -2.2610
  516MOL0     H69633  10.177   4.856   2.843 -1.2314  0.3448 -0.8313
  516MOL0     H69634  10.178   5.140   2.966  3.7470  1.2674  1.9409
  516MOL0     H69635  10.319   5.052   2.924 -0.7427  0.9069  0.7206
  516MOL0     H69636  10.115   5.153   2.719 -1.5558  0.5153  2.2441
  516MOL0     H69637  10.262   5.054   2.688 -0.4408  1.6599 -0.3610
  516MOL0     H69638  10.299   5.297   2.646  2.0644  2.3924  0.1307
  516MOL0     H69639  10.234   5.334   2.806  1.0918  1.6805 -1.2012
  516MOL0     H69640   9.734   4.810   3.377 -2.7181 -1.5203  1.2868
  516MOL0     H69641   9.681   4.604   3.451  0.0044  2.7291 -1.2821
  516MOL0     H69642   9.481   4.377   3.758 -0.6863  0.5872  0.3318
  516MOL0     H69643   9.328   4.246   3.886 -1.0582  2.8926  2.4855
  516MOL0     H69644   8.895   4.316   5.726 -3.0239 -2.0160  2.2836
  516MOL0     H69645   8.857   4.427   5.935  0.5090 -0.4112  1.0585
  516MOL0     H69646   8.512   4.586   6.163  0.9124 -0.5057 -0.2304
  516MOL0     H69647   8.454   4.647   6.386 -0.5401  3.5861 -0.6109
  516MOL0     H69648   8.580   4.607   6.739  0.2889 -1.2516 -0.7954
  516MOL0     H69649   8.536   4.542   6.590 -1.2545  0.6046 -1.0539
  516MOL0     H69650   8.321   4.660   6.613 -0.4703  0.1308  0.5300
  516MOL0     H69651   8.409   4.801   6.568 -2.3861 -1.1007 -1.2325
  516MOL0     H69652   8.407   4.689   6.850 -2.9850  0.5423  1.9486
  516MOL0     H69653   8.282   4.802   6.793  0.2482  3.8282 -0.5929
  516MOL0     H69654   8.579   4.880   6.794 -0.0081 -0.5079  0.9539
  516MOL0     H69655   8.442   4.984   6.740 -1.9515 -0.9124  0.8223
  516MOL0     H69656   8.385   5.039   7.140 -0.2470  2.3384 -1.1779
  516MOL0     H69657   8.853   4.805   6.448 -0.1135 -0.1101 -0.2725
  516MOL0     H69658   8.895   4.910   6.127  2.4230  0.4784  0.0365
  516MOL0     H69659   8.977   4.882   6.286  0.8534 -1.6019  1.0606
  516MOL0     H69660   8.985   4.760   6.166 -2.2435 -0.9079 -0.9794
  517MOL0     O69661   1.262   1.785  11.418 -0.8332  0.2378 -0.5204
  517MOL0     C69662   1.378   1.809  11.473  0.7591  0.9248 -0.7746
  517MOL0     O69663   1.398   1.911  11.565 -0.3170  0.2788 -1.0388
  517MOL0     C69664   1.289   1.991  11.579  0.1304 -0.3340  0.3892
  517MOL0     C69665   1.197   1.956  11.676  0.5681 -0.7152 -0.3065
  517MOL0     C69666   1.093   2.042  11.708 -0.0178  0.5144  0.2517
  517MOL0     C69667   1.080   2.164  11.634  0.4153 -0.0254  0.0160
  517MOL0     O69668   0.973   2.255  11.645 -0.3229  0.7616 -0.9697
  517MOL0     C69669   0.862   2.225  11.732 -0.6306 -0.2146  0.2811
  517MOL0     C69670   0.790   2.355  11.763 -0.9560 -0.6929  0.5902
  517MOL0     C69671   0.887   2.479  11.802  0.1048 -0.8013 -0.1301
  517MOL0     C69672   0.970   2.444  11.933  0.4969 -0.3361  0.6798
  517MOL0     C69673   1.013   2.563  12.016 -0.2342  0.7900 -0.6474
  517MOL0     C69674   0.891   2.631  12.082 -0.8688 -0.0758  0.1282
  517MOL0     C69675   0.908   2.783  12.104  0.2694  0.1063 -0.2290
  517MOL0     C69676   0.782   2.860  12.135  0.2912  0.4345  0.9100
  517MOL0     N69677   0.805   2.990  12.187  0.3670 -0.2612 -0.7490
  517MOL0     C69678   0.889   3.079  12.126  0.0957  0.3352 -0.3314
  517MOL0     C69679   0.904   3.181  12.209 -1.0437 -0.9745  0.0364
  517MOL0     C69680   0.979   3.307  12.183 -1.0639  0.0206 -0.6164
  517MOL0     C69681   0.916   3.397  12.086 -0.0219 -0.8206  0.8648
  517MOL0     C69682   0.792   3.475  12.136  0.6770 -1.0291 -0.2710
  517MOL0     C69683   0.806   3.631  12.130 -0.3838  0.1395  0.3421
  517MOL0     O69684   0.932   3.671  12.184 -0.2719  0.4973  0.7211
  517MOL0     C69685   0.949   3.680  12.320 -0.6012 -0.2748  0.6837
  517MOL0     C69686   1.085   3.690  12.361  0.5202 -0.1254 -0.4092
  517MOL0     C69687   1.112   3.704  12.501 -0.4024  0.9509 -0.5004
  517MOL0     C69688   1.012   3.706  12.598  0.3367  0.2097  0.5996
  517MOL0     C69689   1.045   3.712  12.738  0.4199  0.0805  0.9010
  517MOL0     O69690   0.932   3.721  12.819 -0.0729  0.2892 -0.2440
  517MOL0     C69691   0.952   3.723  12.952  0.9203  0.6255 -0.2452
  517MOL0     C69692   1.010   3.621  13.026  1.0737 -1.3435  0.5207
  517MOL0     C69693   1.014   3.644  13.167 -0.0012  0.1573 -0.2341
  517MOL0     C69694   0.973   3.758  13.234 -0.0750 -0.2141 -0.0994
  517MOL0     O69695   0.977   3.766  13.366 -0.1710 -0.5103  0.2243
  517MOL0     C69696   0.869   3.829  13.432 -0.6400  0.2528 -0.0687
  517MOL0     C69697   0.860   3.787  13.568 -0.4959 -0.6747  0.5047
  517MOL0     C69698   0.729   3.811  13.637 -0.6459  0.2200 -0.5662
  517MOL0     C69699   0.694   3.957  13.647 -0.1865 -0.1037  0.2436
  517MOL0     C69700   0.542   3.980  13.672 -0.0389 -0.0227 -0.7770
  517MOL0     C69701   0.497   3.915  13.804  0.3193 -0.2991  0.1356
  517MOL0     C69702   0.370   3.977  13.859 -0.0459  0.7049 -0.1724
  517MOL0     C69703   0.257   3.976  13.753 -0.0784  0.4536 -0.0311
  517MOL0    Cl69704   0.104   4.045  13.804  0.0532  0.3472  0.3528
  517MOL0     C69705   0.918   3.865  13.152  0.8160  0.1894  0.2986
  517MOL0     C69706   0.901   3.841  13.012  0.2050 -0.5008 -0.5696
  517MOL0     O69707   1.165   3.720  12.778  0.1904 -0.5865  0.3507
  517MOL0     C69708   0.876   3.707  12.546  0.4797 -0.0817 -0.7404
  517MOL0     C69709   0.848   3.692  12.417  0.5468  0.0913  0.5366
  517MOL0     N69710   0.818   3.148  12.320  0.2001 -0.7893 -0.1073
  517MOL0     N69711   0.764   3.033  12.307  0.0406 -0.1268 -0.8439
  517MOL0     C69712   1.175   2.198  11.539 -0.4836 -1.1545 -0.4689
  517MOL0     C69713   1.279   2.115  11.518  0.1335 -0.5499  0.0071
  517MOL0     C69714   1.489   1.718  11.446 -0.7984 -0.3187  0.4939
  517MOL0     C69715   1.509   1.598  11.507 -0.5043 -0.2531 -0.0045
  517MOL0     C69716   1.623   1.521  11.498  0.1122  0.6205  1.1734
  517MOL0     C69717   1.713   1.556  11.391  0.0176 -1.6256  0.4118
  517MOL0     O69718   1.809   1.463  11.381  0.0195 -0.4941 -0.8497
  517MOL0     C69719   1.882   1.453  11.260  0.2420 -0.5126 -0.8594
  517MOL0     C69720   1.995   1.542  11.275 -0.7252 -1.8532  0.6632
  517MOL0     C69721   2.112   1.523  11.169 -0.0925 -0.8341  0.4678
  517MOL0     C69722   2.078   1.590  11.036 -0.1691 -0.2379  0.9110
  517MOL0     C69723   2.160   1.536  10.926  0.1962  0.2115  1.0958
  517MOL0     C69724   2.240   1.491  10.853 -0.2240  0.0358 -0.2840
  517MOL0     C69725   1.687   1.672  11.313  0.0312 -0.4309 -0.4916
  517MOL0     C69726   1.585   1.770  11.347  0.6142 -0.0051 -0.7020
  517MOL0     C69727   1.569   1.888  11.262  1.0385  0.2546  1.3282
  517MOL0     H69728   1.217   1.877  11.747  2.5520 -0.7775 -0.8831
  517MOL0     H69729   1.012   2.014  11.775 -1.2757 -0.1303 -1.4376
  517MOL0     H69730   0.792   2.155  11.686  2.8993 -4.3164  0.5167
  517MOL0     H69731   0.902   2.185  11.826  4.4524 -0.0022 -1.4905
  517MOL0     H69732   0.722   2.360  11.848  0.6206 -1.2779  1.9327
  517MOL0     H69733   0.724   2.371  11.677  0.6383 -2.5005 -1.0819
  517MOL0     H69734   0.841   2.577  11.815  0.3340 -0.1752 -3.2581
  517MOL0     H69735   0.965   2.482  11.726  1.5970 -1.0634  1.3401
  517MOL0     H69736   0.898   2.379  11.984 -0.9008 -0.8062 -1.6975
  517MOL0     H69737   1.051   2.377  11.901 -1.6146 -1.8893 -1.8588
  517MOL0     H69738   1.091   2.530  12.085 -0.2047 -1.3218 -1.5910
  517MOL0     H69739   1.054   2.636  11.946 -2.9272  1.2120 -1.8933
  517MOL0     H69740   0.804   2.614  12.019 -2.1607 -0.4403  1.9265
  517MOL0     H69741   0.869   2.580  12.176 -0.1889 -1.0641 -0.2387
  517MOL0     H69742   0.953   2.822  12.013 -0.4377 -3.2048 -2.1473
  517MOL0     H69743   0.982   2.780  12.184 -2.2906 -3.6456  2.3699
  517MOL0     H69744   0.727   2.871  12.041  1.2910  0.8852  0.3666
  517MOL0     H69745   0.711   2.803  12.196 -0.4223  0.7386  0.3784
  517MOL0     H69746   0.944   3.057  12.035 -0.6915  1.6207 -1.1378
  517MOL0     H69747   0.997   3.367  12.273 -0.7008  0.9163 -1.2666
  517MOL0     H69748   1.078   3.293  12.139  0.0746  2.8614  0.7519
  517MOL0     H69749   0.985   3.478  12.060 -0.5938 -0.2449  1.0906
  517MOL0     H69750   0.898   3.332  12.000  0.9705 -2.3934  1.7835
  517MOL0     H69751   0.777   3.458  12.243  0.4268  3.1165  0.5340
  517MOL0     H69752   0.706   3.451  12.073  1.0881  1.2953 -1.8577
  517MOL0     H69753   0.717   3.681  12.169  0.1859  1.8184 -0.3723
  517MOL0     H69754   0.809   3.680  12.032 -0.6746  3.4003  1.8062
  517MOL0     H69755   1.166   3.688  12.289  1.0849  0.3475  0.2140
  517MOL0     H69756   1.218   3.691  12.521  0.1119  1.1048 -2.8290
  517MOL0     H69757   1.059   3.539  12.975 -2.4082 -2.7050 -0.9807
  517MOL0     H69758   1.042   3.558  13.227 -2.4867 -0.0786  0.6837
  517MOL0     H69759   0.892   3.936  13.425  0.0350  0.1242  0.1121
  517MOL0     H69760   0.775   3.813  13.380 -0.7310 -3.6324  0.9765
  517MOL0     H69761   0.889   3.682  13.580  1.6689 -0.1370  0.2963
  517MOL0     H69762   0.936   3.838  13.627 -0.9581 -2.1489  2.4578
  517MOL0     H69763   0.636   3.762  13.608 -0.4061 -1.4775  1.2786
  517MOL0     H69764   0.748   3.770  13.737 -2.2238  1.1994  0.1672
  517MOL0     H69765   0.732   4.009  13.559  0.5330 -0.3934  0.3755
  517MOL0     H69766   0.751   4.003  13.729  0.4918 -2.8051  1.4205
  517MOL0     H69767   0.482   3.931  13.595 -1.3554  1.1044 -0.5093
  517MOL0     H69768   0.539   4.089  13.675  0.5222 -0.0206 -0.1742
  517MOL0     H69769   0.486   3.807  13.793 -1.3917 -0.1528  0.1065
  517MOL0     H69770   0.580   3.940  13.870 -0.0724  1.5754 -0.0292
  517MOL0     H69771   0.408   4.073  13.894 -2.0121  1.3263  0.3659
  517MOL0     H69772   0.346   3.911  13.944 -2.6034 -2.5620 -3.1215
  517MOL0     H69773   0.285   4.026  13.660 -2.8255  3.6300  0.6517
  517MOL0     H69774   0.244   3.871  13.724 -0.4502  0.1366  1.1847
  517MOL0     H69775   0.883   3.959  13.193 -2.8534 -0.9097 -0.0123
  517MOL0     H69776   0.851   3.912  12.947  0.3911  2.3294  2.1318
  517MOL0     H69777   0.788   3.697  12.610  1.5659 -1.7017  0.5893
  517MOL0     H69778   0.743   3.686  12.390  0.3120 -1.5394  1.6402
  517MOL0     H69779   1.171   2.291  11.484 -1.6111 -0.2274  1.0641
  517MOL0     H69780   1.344   2.151  11.439  2.3014 -0.2067  1.8390
  517MOL0     H69781   1.454   1.565  11.595  1.1565 -2.9747  0.1304
  517MOL0     H69782   1.644   1.433  11.557  1.1439 -0.0245 -0.0942
  517MOL0     H69783   1.829   1.493  11.173 -0.3007 -0.8053 -0.6667
  517MOL0     H69784   1.913   1.350  11.242 -2.8460 -2.2358  2.4964
  517MOL0     H69785   2.036   1.527  11.375 -2.0149 -2.7635  1.0752
  517MOL0     H69786   1.970   1.647  11.258 -0.6113 -2.1576 -1.8594
  517MOL0     H69787   2.130   1.415  11.165 -1.1338 -0.9811 -1.1985
  517MOL0     H69788   2.198   1.580  11.205 -0.4004  1.4890 -2.1512
  517MOL0     H69789   1.972   1.576  11.012 -0.1272 -0.1318  0.6612
  517MOL0     H69790   2.092   1.698  11.050  0.6343  0.5684 -4.0165
  517MOL0     H69791   2.316   1.457  10.785  0.8596  3.5174 -0.9850
  517MOL0     H69792   1.754   1.703  11.234 -0.3849 -1.1239 -1.1344
  517MOL0     H69793   1.667   1.932  11.240  2.7526 -4.0821 -1.1263
  517MOL0     H69794   1.530   1.858  11.164 -1.1355  2.5110  1.4290
  517MOL0     H69795   1.502   1.967  11.297  0.1343  0.5046 -0.8438
  518MOL0     O69796   8.863   5.680  11.461  0.8703  0.7593 -0.3158
  518MOL0     C69797   8.879   5.795  11.423  0.1427  0.5742  0.8583
  518MOL0     O69798   8.993   5.844  11.402 -0.4602 -0.5762 -0.0610
  518MOL0     C69799   9.103   5.763  11.410 -0.2170 -0.6398 -1.2358
  518MOL0     C69800   9.148   5.734  11.550  1.6790  0.6362  0.8158
  518MOL0     C69801   9.269   5.672  11.576  0.5523  0.1077 -0.3657
  518MOL0     C69802   9.358   5.650  11.475 -0.4822  0.7592 -1.1983
  518MOL0     O69803   9.492   5.603  11.491  0.1005 -0.5731  1.0027
  518MOL0     C69804   9.566   5.678  11.585 -0.4443  0.3622 -0.3783
  518MOL0     C69805   9.717   5.644  11.577 -0.2359 -0.4667 -0.5484
  518MOL0     C69806   9.755   5.525  11.665  0.0455 -0.3839  0.1894
  518MOL0     C69807   9.705   5.388  11.609 -1.1412  0.8248 -0.5518
  518MOL0     C69808   9.766   5.284  11.695  0.0953 -0.1997  0.2113
  518MOL0     C69809   9.750   5.140  11.637  0.4873  0.8627 -1.4995
  518MOL0     C69810   9.878   5.066  11.686 -0.3581 -0.0192  0.7739
  518MOL0     C69811   9.895   4.917  11.636 -0.2525 -0.3248 -0.9975
  518MOL0     N69812  10.019   4.862  11.697  0.3235  1.1925  0.2563
  518MOL0     C69813  10.031   4.845  11.824 -0.8352 -0.0690 -0.5215
  518MOL0     C69814  10.154   4.785  11.846  0.4187  0.8701 -0.4665
  518MOL0     C69815  10.224   4.754  11.983  0.1317  0.0714 -0.7401
  518MOL0     C69816  10.145   4.658  12.072  1.0507  0.8937  0.7625
  518MOL0     C69817  10.218   4.626  12.201 -0.2523 -0.6282 -0.8857
  518MOL0     C69818  10.147   4.529  12.300  0.1840  0.4838  0.2352
  518MOL0     O69819  10.179   4.400  12.243  0.3160  0.8402  0.3224
  518MOL0     C69820  10.152   4.276  12.304 -0.7696 -0.2895  1.0816
  518MOL0     C69821  10.171   4.170  12.225 -0.1324 -0.0490 -0.5789
  518MOL0     C69822  10.144   4.049  12.272 -0.5988  0.1150  0.1753
  518MOL0     C69823  10.114   4.020  12.406  0.1431  0.2302 -0.1381
  518MOL0     C69824  10.103   3.885  12.469  0.9463  0.2725  0.0074
  518MOL0     O69825  10.120   3.883  12.609 -0.9362 -0.3476  0.2686
  518MOL0     C69826  10.108   3.758  12.668  0.7601  0.4004  0.4013
  518MOL0     C69827  10.210   3.714  12.759 -0.1623 -0.2072 -0.3799
  518MOL0     C69828  10.208   3.588  12.819 -0.0984  0.3585 -0.0281
  518MOL0     C69829  10.091   3.506  12.785 -0.0981  0.6144 -0.1706
  518MOL0     O69830  10.106   3.377  12.831 -0.2301 -0.7768 -0.0213
  518MOL0     C69831  10.022   3.264  12.794 -0.4933  0.1799 -0.9765
  518MOL0     C69832  10.100   3.131  12.795  0.1930  0.0446 -0.1662
  518MOL0     C69833  10.166   3.102  12.932  1.0017 -0.4025  0.6278
  518MOL0     C69834  10.235   2.969  12.936  0.7581  0.5459 -0.0112
  518MOL0     C69835  10.155   2.839  12.912 -0.4076 -0.2165 -0.3069
  518MOL0     C69836  10.037   2.829  13.005  0.5159  0.1696  0.6186
  518MOL0     C69837  10.073   2.825  13.151  0.1092 -0.0893  0.0335
  518MOL0     C69838   9.959   2.789  13.250  0.0760  0.3970 -0.2164
  518MOL0    Cl69839   9.810   2.873  13.224 -0.3180 -0.5376  0.1532
  518MOL0     C69840   9.982   3.543  12.700 -0.8030  0.7513 -0.8693
  518MOL0     C69841   9.993   3.671  12.646 -0.4036 -0.5538  0.0193
  518MOL0     O69842  10.078   3.787  12.392  0.1075 -0.6549  0.1215
  518MOL0     C69843  10.092   4.128  12.489  0.4670  0.6699  0.2779
  518MOL0     C69844  10.112   4.250  12.430  0.8079  0.1602 -0.2262
  518MOL0     N69845  10.215   4.765  11.715 -0.0963 -0.0101  0.7392
  518MOL0     N69846  10.139   4.824  11.628  1.3233  0.4116 -0.7281
  518MOL0     C69847   9.312   5.665  11.343 -0.3804 -0.4289 -0.5643
  518MOL0     C69848   9.192   5.716  11.310 -0.0462 -0.3531  0.2923
  518MOL0     C69849   8.760   5.882  11.395 -0.0722 -0.0615  0.1673
  518MOL0     C69850   8.630   5.832  11.384  0.1159  0.0284  0.3806
  518MOL0     C69851   8.522   5.908  11.354  0.6084 -0.0247 -0.6083
  518MOL0     C69852   8.529   6.045  11.330  0.3903 -0.1035  0.0679
  518MOL0     O69853   8.422   6.124  11.303  0.0749  0.2760 -0.0116
  518MOL0     C69854   8.354   6.069  11.192  0.5634  0.1790 -0.3704
  518MOL0     C69855   8.204   6.097  11.196  0.3014  0.0144  0.5747
  518MOL0     C69856   8.138   6.018  11.314 -0.2407  0.4252 -0.1130
  518MOL0     C69857   7.987   6.039  11.313  0.0529 -0.1155 -1.0834
  518MOL0     C69858   7.931   5.961  11.200 -0.2245  0.6115  0.0702
  518MOL0     C69859   7.882   5.902  11.109  0.8527  0.1487  0.2649
  518MOL0     C69860   8.660   6.102  11.335 -0.0697 -0.1539 -0.6072
  518MOL0     C69861   8.774   6.023  11.368 -0.3128 -0.3265  0.3651
  518MOL0     C69862   8.906   6.098  11.356 -0.0200  0.1859  0.2858
  518MOL0     H69863   9.080   5.756  11.632 -0.1730  1.3923 -0.8530
  518MOL0     H69864   9.321   5.663  11.671  2.1344 -2.2719 -1.3563
  518MOL0     H69865   9.557   5.783  11.558 -2.5250  0.7209  1.4096
  518MOL0     H69866   9.530   5.660  11.687 -1.1686  3.1267 -0.0760
  518MOL0     H69867   9.771   5.733  11.610 -3.3371  1.7574 -1.0469
  518MOL0     H69868   9.758   5.629  11.476  0.4897  0.9150 -0.4908
  518MOL0     H69869   9.719   5.550  11.765 -2.3934  0.9399 -0.9339
  518MOL0     H69870   9.864   5.537  11.673 -0.0150 -0.0648  0.6116
  518MOL0     H69871   9.596   5.381  11.609 -1.3268  2.6792 -2.4007
  518MOL0     H69872   9.740   5.366  11.508  0.7958  2.6599 -0.3392
  518MOL0     H69873   9.872   5.311  11.692  0.1580 -0.5503 -0.8888
  518MOL0     H69874   9.720   5.283  11.795 -0.5775  0.4765 -0.0804
  518MOL0     H69875   9.659   5.091  11.671 -0.1756  1.2054 -2.7313
  518MOL0     H69876   9.753   5.142  11.528  0.1935  2.3958 -1.5037
  518MOL0     H69877   9.871   5.071  11.795  3.0585  1.2409  1.0535
  518MOL0     H69878   9.970   5.116  11.653  0.3140 -2.1724 -0.8654
  518MOL0     H69879   9.811   4.858  11.673  1.0609 -1.2205  0.7232
  518MOL0     H69880   9.912   4.921  11.528  4.3021  2.9779 -0.4593
  518MOL0     H69881   9.961   4.866  11.904 -0.1389  0.6677 -0.0910
  518MOL0     H69882  10.322   4.706  11.977 -0.3883 -0.9629 -1.2351
  518MOL0     H69883  10.228   4.844  12.046  0.1808 -0.0733 -0.5334
  518MOL0     H69884  10.049   4.700  12.103  2.1967  0.7872  5.1625
  518MOL0     H69885  10.135   4.563  12.018  1.7601  1.2964 -0.0970
  518MOL0     H69886  10.225   4.719  12.258 -1.0079 -0.2242 -1.4288
  518MOL0     H69887  10.320   4.595  12.176 -0.7046 -1.0005 -2.3736
  518MOL0     H69888  10.039   4.546  12.304 -0.0729 -0.0175 -2.4420
  518MOL0     H69889  10.196   4.545  12.397  2.8019 -0.4254 -0.8344
  518MOL0     H69890  10.184   4.179  12.117 -1.9499 -1.0818 -0.9296
  518MOL0     H69891  10.142   3.971  12.197  0.8031 -0.4718  0.7222
  518MOL0     H69892  10.296   3.780  12.761 -0.5499  0.3544 -1.5100
  518MOL0     H69893  10.289   3.550  12.880  2.1427 -0.3731 -3.2021
  518MOL0     H69894   9.936   3.253  12.861 -1.0247 -0.5124 -1.7609
  518MOL0     H69895   9.974   3.277  12.697 -1.8618  0.4369 -0.2870
  518MOL0     H69896  10.037   3.046  12.769 -0.0588  0.1405  0.1299
  518MOL0     H69897  10.172   3.141  12.713  0.6219  0.4197  0.2473
  518MOL0     H69898  10.235   3.183  12.960 -0.5479  0.4821  2.0879
  518MOL0     H69899  10.082   3.106  13.002 -1.9679 -0.7294 -2.6472
  518MOL0     H69900  10.298   2.952  13.024  0.3913  3.3874  0.8996
  518MOL0     H69901  10.313   2.972  12.860  1.5572  1.5098  0.8169
  518MOL0     H69902  10.233   2.765  12.933 -0.1065 -1.2294 -4.1967
  518MOL0     H69903  10.121   2.829  12.808  2.3964  0.8950 -1.4157
  518MOL0     H69904   9.968   2.908  12.975 -0.0555 -0.1622  1.0343
  518MOL0     H69905   9.980   2.737  12.987 -0.9010  1.3418 -1.2305
  518MOL0     H69906  10.119   2.920  13.180 -2.6752  0.0473  5.1629
  518MOL0     H69907  10.146   2.744  13.159  0.6941  0.0420 -2.8728
  518MOL0     H69908   9.931   2.685  13.231  1.7775 -0.2797  0.7902
  518MOL0     H69909   9.995   2.791  13.353 -1.6514  1.5893  0.4048
  518MOL0     H69910   9.895   3.479  12.692  2.1408 -3.7561 -0.4132
  518MOL0     H69911   9.908   3.704  12.588 -0.9096  0.0417  1.0718
  518MOL0     H69912  10.073   4.115  12.595  2.7531  0.4931  0.7119
  518MOL0     H69913  10.091   4.338  12.491  0.8513 -1.1265  1.7252
  518MOL0     H69914   9.386   5.635  11.269  0.7924 -1.4612  0.9661
  518MOL0     H69915   9.177   5.748  11.208 -3.1277  0.8298  1.0091
  518MOL0     H69916   8.602   5.728  11.399 -3.7456  1.0074  1.0068
  518MOL0     H69917   8.421   5.878  11.378  0.9164  0.7021  1.8519
  518MOL0     H69918   8.372   5.963  11.173  0.5888  0.0496  0.3504
  518MOL0     H69919   8.382   6.132  11.106 -1.2706  0.1792 -1.0097
  518MOL0     H69920   8.168   6.060  11.099 -0.1440  1.9452 -0.0651
  518MOL0     H69921   8.180   6.204  11.197  1.0827  0.2105 -0.1614
  518MOL0     H69922   8.177   6.058  11.407  0.9439 -1.9475  0.4923
  518MOL0     H69923   8.164   5.912  11.322  2.2394  0.7591 -2.2658
  518MOL0     H69924   7.954   6.004  11.410  1.2974 -0.4701 -0.7628
  518MOL0     H69925   7.963   6.145  11.304 -0.9804 -0.2841 -0.3297
  518MOL0     H69926   7.831   5.841  11.037  2.0700 -2.0379  1.1711
  518MOL0     H69927   8.667   6.207  11.312 -1.8687 -0.2523 -1.8086
  518MOL0     H69928   8.972   6.045  11.286 -2.2005 -1.6302 -0.5107
  518MOL0     H69929   8.894   6.206  11.346 -0.3287  0.3024  1.7906
  518MOL0     H69930   8.953   6.084  11.454  0.9977  2.3693  0.1763
  519MOL0     O69931  10.447   0.563   6.810 -0.1028 -0.4189  0.2861
  519MOL0     C69932  10.450   0.609   6.925 -0.8842  0.5116  0.1374
  519MOL0     O69933  10.478   0.534   7.034 -0.1536  0.1230  0.3634
  519MOL0     C69934  10.495   0.391   7.024  0.2078 -0.0941 -0.5097
  519MOL0     C69935  10.428   0.310   7.126 -0.2802  0.1025 -0.3206
  519MOL0     C69936  10.446   0.169   7.119 -0.8100  0.7175  0.4511
  519MOL0     C69937  10.542   0.102   7.031 -0.0717 -0.9226  0.1940
  519MOL0     O69938  10.550  -0.033   7.040  0.2442  0.5402 -0.0653
  519MOL0     C69939  10.643  -0.111   6.947  0.9432 -0.5281 -0.2567
  519MOL0     C69940  10.632  -0.261   6.968  0.5621  1.0919 -0.7455
  519MOL0     C69941  10.483  -0.312   6.982 -0.3912  1.1476  0.5441
  519MOL0     C69942  10.451  -0.452   6.956  1.0756  0.7112  0.3083
  519MOL0     C69943  10.306  -0.503   6.992  1.2115 -0.4650  0.1005
  519MOL0     C69944  10.272  -0.476   7.138 -0.7066 -0.3184  0.3468
  519MOL0     C69945  10.144  -0.555   7.180 -1.0213 -0.2795  0.4514
  519MOL0     C69946  10.187  -0.700   7.208 -0.5537  0.8045  0.6705
  519MOL0     N69947  10.285  -0.715   7.315  0.6763  0.9072  0.0218
  519MOL0     C69948  10.289  -0.661   7.437 -0.2921 -0.8861 -0.0147
  519MOL0     C69949  10.405  -0.702   7.497 -0.1506 -0.0679  0.5164
  519MOL0     C69950  10.434  -0.666   7.643 -0.2796  0.1224  1.1588
  519MOL0     C69951  10.523  -0.777   7.712 -0.3839 -1.0063 -0.4781
  519MOL0     C69952  10.454  -0.914   7.723  0.2617 -0.0029 -0.6494
  519MOL0     C69953  10.541  -1.010   7.812 -0.8991 -0.1772 -0.2789
  519MOL0     O69954  10.529  -0.996   7.955  0.1555  0.3313  0.7410
  519MOL0     C69955  10.420  -1.045   8.025 -0.6305  0.6184  0.6475
  519MOL0     C69956  10.307  -1.089   7.962 -0.9094  0.3853  0.5205
  519MOL0     C69957  10.200  -1.154   8.029 -0.4641 -0.0295  0.4019
  519MOL0     C69958  10.213  -1.191   8.167 -0.0681 -0.4614 -0.6910
  519MOL0     C69959  10.105  -1.252   8.242 -0.2344 -0.3814 -0.0489
  519MOL0     O69960   9.980  -1.233   8.197 -0.6620  0.0897 -1.2148
  519MOL0     C69961   9.882  -1.292   8.276  0.2267  0.8273  0.4278
  519MOL0     C69962   9.878  -1.431   8.304 -0.6485 -0.8751  0.9428
  519MOL0     C69963   9.779  -1.477   8.389  0.8083 -0.6052  0.6425
  519MOL0     C69964   9.681  -1.402   8.438 -0.7560 -0.1940  0.0823
  519MOL0     O69965   9.583  -1.462   8.516 -0.0702  0.6326  0.5542
  519MOL0     C69966   9.475  -1.383   8.556  0.2779  0.0661 -0.3404
  519MOL0     C69967   9.389  -1.458   8.663 -0.4599  0.1918 -0.6481
  519MOL0     C69968   9.384  -1.605   8.646  0.4610 -0.0327 -0.1606
  519MOL0     C69969   9.307  -1.674   8.751  0.6275 -0.2429 -1.3046
  519MOL0     C69970   9.160  -1.687   8.707 -0.1045  0.1228  1.1708
  519MOL0     C69971   9.062  -1.774   8.789  0.1543 -0.7478  0.2140
  519MOL0     C69972   9.036  -1.727   8.937 -0.3913 -0.6837  0.4910
  519MOL0     C69973   8.913  -1.792   8.990 -0.4867  0.5512 -0.4512
  519MOL0    Cl69974   8.925  -1.970   8.942 -0.4021  0.4052 -0.1503
  519MOL0     C69975   9.680  -1.263   8.401 -0.3854  0.1185  0.5606
  519MOL0     C69976   9.772  -1.208   8.314  0.3618  0.5207  0.3717
  519MOL0     O69977  10.142  -1.322   8.337  0.1487 -0.1504 -0.3840
  519MOL0     C69978  10.333  -1.155   8.233 -0.4676 -0.2340  0.3910
  519MOL0     C69979  10.437  -1.088   8.155  0.7222  0.2013 -0.3327
  519MOL0     N69980  10.463  -0.799   7.412 -0.5153  1.2518 -0.0825
  519MOL0     N69981  10.401  -0.788   7.303 -0.8994 -0.2174 -0.9703
  519MOL0     C69982  10.610   0.187   6.948 -1.0784  0.5611  0.0595
  519MOL0     C69983  10.582   0.330   6.948 -0.7319 -0.0471  0.0217
  519MOL0     C69984  10.469   0.752   6.941  0.1525 -0.3552  0.9302
  519MOL0     C69985  10.534   0.802   7.055 -1.0104  0.0508 -0.4917
  519MOL0     C69986  10.569   0.934   7.081 -0.4253  0.0972  0.0027
  519MOL0     C69987  10.537   1.020   6.987 -0.5130 -0.7471  0.3492
  519MOL0     O69988  10.601   1.140   6.997  0.4920  0.2911  0.2269
  519MOL0     C69989  10.727   1.147   6.936  1.3719 -0.4741  0.2001
  519MOL0     C69990  10.760   1.293   6.908  0.5603  0.2508 -0.7817
  519MOL0     C69991  10.640   1.375   6.853 -0.2281  0.1697 -0.2969
  519MOL0     C69992  10.681   1.502   6.773  0.8828 -0.3595  0.7694
  519MOL0     C69993  10.774   1.578   6.850  0.0521  0.5942 -0.2063
  519MOL0     C69994  10.848   1.664   6.894 -0.5355 -0.5998 -1.1628
  519MOL0     C69995  10.468   0.980   6.869  0.7447 -0.9340  0.2014
  519MOL0     C69996  10.446   0.846   6.837  0.7190 -0.1358 -0.2718
  519MOL0     C69997  10.379   0.812   6.707 -0.2453 -0.3369 -0.2120
  519MOL0     H69998  10.362   0.350   7.202  1.0880 -0.7834  1.4044
  519MOL0     H69999  10.378   0.106   7.175  0.5468  0.7769  2.2747
  519MOL0     H70000  10.604  -0.089   6.847  0.1837 -2.3445 -0.4133
  519MOL0     H70001  10.747  -0.080   6.943  0.6177  0.5686 -0.5621
  519MOL0     H70002  10.692  -0.286   7.057  2.0347  1.2145 -1.6782
  519MOL0     H70003  10.675  -0.307   6.878 -0.1152 -1.1421 -0.0111
  519MOL0     H70004  10.427  -0.242   6.921  1.5830  1.3177 -1.1668
  519MOL0     H70005  10.460  -0.303   7.089  2.3798 -1.0959  1.4832
  519MOL0     H70006  10.466  -0.472   6.849 -0.8484 -3.7430  0.6222
  519MOL0     H70007  10.524  -0.511   7.012  2.2120  0.8544 -0.9624
  519MOL0     H70008  10.236  -0.448   6.927 -2.7583 -3.9327  1.0255
  519MOL0     H70009  10.296  -0.611   6.976 -0.5147 -0.2857 -0.2249
  519MOL0     H70010  10.352  -0.501   7.209 -0.4684 -1.5037 -0.2992
  519MOL0     H70011  10.263  -0.367   7.138 -1.0421 -0.2139 -3.3647
  519MOL0     H70012  10.070  -0.554   7.098 -0.4690 -0.6529 -0.0595
  519MOL0     H70013  10.098  -0.505   7.266  2.9732 -3.0864  4.6618
  519MOL0     H70014  10.088  -0.739   7.234 -0.6365  0.9065  0.5133
  519MOL0     H70015  10.217  -0.757   7.120  1.1940  0.7022  1.2905
  519MOL0     H70016  10.218  -0.596   7.487  2.2008  1.8539  0.2411
  519MOL0     H70017  10.491  -0.572   7.642 -1.7604  1.0372  0.3499
  519MOL0     H70018  10.343  -0.645   7.700 -1.6175 -2.1009 -0.0166
  519MOL0     H70019  10.615  -0.784   7.655 -0.0891  0.2227 -0.1848
  519MOL0     H70020  10.555  -0.747   7.812 -1.4654  1.7905 -0.8628
  519MOL0     H70021  10.426  -0.958   7.626 -0.4060 -4.1171  1.2159
  519MOL0     H70022  10.359  -0.902   7.775  1.6350 -1.9464  2.5556
  519MOL0     H70023  10.644  -1.002   7.777 -0.9624 -1.8068 -0.9681
  519MOL0     H70024  10.510  -1.114   7.796 -1.9197 -0.4880  2.9754
  519MOL0     H70025  10.295  -1.099   7.855  0.7050  1.5527  0.2010
  519MOL0     H70026  10.105  -1.177   7.982  0.0126 -2.7448  0.6001
  519MOL0     H70027   9.938  -1.515   8.272 -0.8085  0.4713 -3.5722
  519MOL0     H70028   9.787  -1.582   8.413  1.1505 -0.8241 -0.3682
  519MOL0     H70029   9.502  -1.289   8.604  0.0915  0.9529 -1.9297
  519MOL0     H70030   9.415  -1.363   8.467 -1.2220 -1.1377  0.3617
  519MOL0     H70031   9.441  -1.445   8.759  0.2202  0.4870 -1.0432
  519MOL0     H70032   9.287  -1.420   8.667 -0.6491 -0.4099  1.7463
  519MOL0     H70033   9.359  -1.644   8.547 -1.2352  2.1651 -0.6677
  519MOL0     H70034   9.486  -1.643   8.661  1.4845  1.8290 -1.9835
  519MOL0     H70035   9.309  -1.625   8.849  1.4619 -4.7414  1.2220
  519MOL0     H70036   9.355  -1.771   8.759  1.3860  0.2326  0.3808
  519MOL0     H70037   9.167  -1.738   8.611  1.0150 -3.3536  2.9492
  519MOL0     H70038   9.118  -1.587   8.688  0.9498  0.3322 -0.1910
  519MOL0     H70039   8.965  -1.769   8.740  1.3042  0.4193 -2.1044
  519MOL0     H70040   9.088  -1.880   8.779  1.1976 -0.3210 -2.4494
  519MOL0     H70041   9.043  -1.618   8.939  2.5622 -0.8042  1.8588
  519MOL0     H70042   9.117  -1.767   8.999 -1.9014 -2.1862  1.5905
  519MOL0     H70043   8.911  -1.781   9.099  0.7043 -0.1671 -0.3370
  519MOL0     H70044   8.829  -1.744   8.940  1.5247  2.6567 -2.0523
  519MOL0     H70045   9.603  -1.198   8.443 -0.0044  0.3565  0.8997
  519MOL0     H70046   9.772  -1.103   8.288 -3.8408  0.9032  1.1413
  519MOL0     H70047  10.361  -1.170   8.337  0.7751  0.6793  0.2050
  519MOL0     H70048  10.529  -1.071   8.211 -1.6443  2.3315  3.3717
  519MOL0     H70049  10.688   0.151   6.881  1.9439  0.0561  3.5181
  519MOL0     H70050  10.633   0.388   6.872  2.3681  0.5449  2.3235
  519MOL0     H70051  10.563   0.728   7.129 -4.2874 -1.0490 -0.1761
  519MOL0     H70052  10.627   0.944   7.172 -2.4519 -0.8819  1.4752
  519MOL0     H70053  10.750   1.084   6.850 -1.4045  0.2174 -1.1760
  519MOL0     H70054  10.804   1.121   7.009  0.2339 -0.2569  1.5335
  519MOL0     H70055  10.842   1.294   6.835  3.1312  3.1140  1.8761
  519MOL0     H70056  10.813   1.320   7.000 -0.7397 -0.6135  0.2593
  519MOL0     H70057  10.578   1.397   6.941  2.6761  3.0631  1.2465
  519MOL0     H70058  10.579   1.310   6.789  0.0782 -1.5126  1.0236
  519MOL0     H70059  10.727   1.486   6.675 -0.7560  2.7656 -0.7084
  519MOL0     H70060  10.597   1.566   6.741  1.6880  0.0824 -0.5269
  519MOL0     H70061  10.901   1.747   6.936 -1.9760 -0.4725  0.5305
  519MOL0     H70062  10.432   1.065   6.812 -0.3694 -1.2168  0.4647
  519MOL0     H70063  10.296   0.742   6.722 -0.4845  0.3495  2.0166
  519MOL0     H70064  10.349   0.899   6.648  2.5168  0.2688 -0.8536
  519MOL0     H70065  10.445   0.761   6.636 -0.3456 -0.4744 -0.2066
  520MOL0     O70066   6.699   2.218   7.105  0.8383  0.2988  0.7927
  520MOL0     C70067   6.714   2.181   7.227  0.0377  0.9573  0.1711
  520MOL0     O70068   6.749   2.060   7.270  0.4780 -0.1213 -0.4375
  520MOL0     C70069   6.726   1.942   7.194  0.3712 -0.1280 -0.5750
  520MOL0     C70070   6.619   1.861   7.225  0.5560  0.1522  0.4529
  520MOL0     C70071   6.608   1.751   7.143  0.1147 -0.5400  0.0461
  520MOL0     C70072   6.689   1.721   7.036  0.7702 -0.4593 -0.5307
  520MOL0     O70073   6.682   1.604   6.971 -0.3640 -0.5164 -0.8624
  520MOL0     C70074   6.715   1.606   6.830 -0.5942  0.5585  0.6935
  520MOL0     C70075   6.665   1.487   6.742 -0.7301  0.3021 -0.6009
  520MOL0     C70076   6.522   1.492   6.684 -0.7524  0.1740  1.5566
  520MOL0     C70077   6.434   1.410   6.770  0.7794  0.4759  0.2769
  520MOL0     C70078   6.279   1.409   6.727 -0.3401  0.8889  0.2469
  520MOL0     C70079   6.251   1.359   6.592 -0.4171  0.8459 -0.3272
  520MOL0     C70080   6.095   1.363   6.569  0.1391  0.9194 -0.1698
  520MOL0     C70081   6.031   1.497   6.585  0.2468 -1.1394 -0.4770
  520MOL0     N70082   6.098   1.606   6.506 -0.5169  1.1030  0.6674
  520MOL0     C70083   6.151   1.606   6.382 -0.5463  0.5235  1.0232
  520MOL0     C70084   6.176   1.734   6.343  0.3922 -0.0890 -0.4834
  520MOL0     C70085   6.236   1.790   6.217  0.0558 -0.9408 -0.3237
  520MOL0     C70086   6.381   1.834   6.255  0.0816  0.2541  1.2769
  520MOL0     C70087   6.475   1.833   6.135  0.4111  0.4139  0.1369
  520MOL0     C70088   6.447   1.921   6.017 -0.4410  0.3560 -0.6820
  520MOL0     O70089   6.337   1.884   5.939  0.4481 -0.0501 -0.7793
  520MOL0     C70090   6.320   1.948   5.823  0.4327 -0.5296 -1.2415
  520MOL0     C70091   6.302   2.088   5.818  0.6395 -0.1394 -0.5992
  520MOL0     C70092   6.283   2.155   5.691 -0.6987 -0.1441  0.4554
  520MOL0     C70093   6.294   2.086   5.576 -0.2220 -0.9122 -0.0119
  520MOL0     C70094   6.301   2.151   5.444 -0.2555  0.4870  0.4013
  520MOL0     O70095   6.344   2.276   5.439  0.1540  0.2285 -0.3671
  520MOL0     C70096   6.362   2.339   5.321 -0.4360 -0.7246 -0.3685
  520MOL0     C70097   6.270   2.381   5.226  1.2355  1.0419 -0.2009
  520MOL0     C70098   6.300   2.458   5.117  0.2045 -0.6304  0.6675
  520MOL0     C70099   6.428   2.510   5.101 -0.9060  0.6503  0.8272
  520MOL0     O70100   6.467   2.603   5.006 -0.3735 -0.0113  0.1501
  520MOL0     C70101   6.399   2.600   4.879  0.2583  0.0400  1.2109
  520MOL0     C70102   6.478   2.700   4.794 -0.3668  1.3626 -0.3445
  520MOL0     C70103   6.632   2.655   4.788  0.2264  0.7025 -0.0169
  520MOL0     C70104   6.700   2.698   4.652  0.2214  0.6887 -0.8875
  520MOL0     C70105   6.733   2.848   4.636  0.4737 -0.2452  0.2827
  520MOL0     C70106   6.785   2.871   4.493  0.4266  0.3957  0.1247
  520MOL0     C70107   6.925   2.824   4.461 -1.0134 -0.1541  0.7024
  520MOL0     C70108   6.979   2.881   4.323 -0.6121 -0.5186 -0.0677
  520MOL0    Cl70109   7.159   2.850   4.301  0.2176 -0.0278 -0.4637
  520MOL0     C70110   6.526   2.465   5.193 -0.9372  0.5675  0.2568
  520MOL0     C70111   6.489   2.380   5.295 -1.2980  0.7542  0.3742
  520MOL0     O70112   6.265   2.077   5.346  0.0689  0.1414 -0.1703
  520MOL0     C70113   6.311   1.944   5.579 -0.0979 -0.8232 -0.5196
  520MOL0     C70114   6.325   1.878   5.705  0.2664 -0.2193 -0.6329
  520MOL0     N70115   6.123   1.820   6.430 -0.0062  0.0408  0.0224
  520MOL0     N70116   6.080   1.741   6.527  0.0884 -0.1701 -0.4394
  520MOL0     C70117   6.782   1.819   6.996 -0.3039 -0.3625  0.4161
  520MOL0     C70118   6.809   1.919   7.082 -0.6362  0.7858  0.0401
  520MOL0     C70119   6.725   2.277   7.326  0.8547 -0.5065  0.1529
  520MOL0     C70120   6.758   2.410   7.293 -0.4637 -0.0773  0.4407
  520MOL0     C70121   6.768   2.505   7.393  0.0703  0.1327  1.1224
  520MOL0     C70122   6.733   2.482   7.527 -0.1778 -0.0390 -0.9345
  520MOL0     O70123   6.736   2.581   7.627 -0.4563  0.1568 -0.3047
  520MOL0     C70124   6.765   2.718   7.604 -0.0189 -0.4103 -0.9237
  520MOL0     C70125   6.697   2.794   7.716  0.7054  0.6359  0.2443
  520MOL0     C70126   6.547   2.782   7.720  0.3083 -0.4829  0.0979
  520MOL0     C70127   6.492   2.838   7.854  1.0378  0.1124 -1.0589
  520MOL0     C70128   6.472   2.979   7.873 -0.3359  0.7026  0.0220
  520MOL0     C70129   6.447   3.096   7.869 -0.5568  1.3690 -0.7498
  520MOL0     C70130   6.678   2.360   7.552  0.0837 -0.4728 -0.9520
  520MOL0     C70131   6.677   2.259   7.463 -0.4767  0.4940  0.1441
  520MOL0     C70132   6.610   2.133   7.516  0.9184 -0.9280  0.1051
  520MOL0     H70133   6.538   1.884   7.294 -0.0939 -0.8092  0.0309
  520MOL0     H70134   6.529   1.676   7.144 -0.5809  0.1713 -0.2456
  520MOL0     H70135   6.678   1.699   6.787 -0.5520 -0.1660 -0.9975
  520MOL0     H70136   6.824   1.616   6.824 -0.5419 -0.1913  0.2494
  520MOL0     H70137   6.687   1.392   6.791  1.0823  1.0379  0.1357
  520MOL0     H70138   6.738   1.495   6.661 -0.9624  3.0194 -0.6258
  520MOL0     H70139   6.524   1.457   6.581  1.5392 -1.2810  2.0346
  520MOL0     H70140   6.494   1.598   6.683 -1.4795  0.0340 -1.3230
  520MOL0     H70141   6.462   1.304   6.766  0.2487  0.3716 -1.7972
  520MOL0     H70142   6.444   1.437   6.875  0.3127 -3.3534  1.4655
  520MOL0     H70143   6.229   1.351   6.804 -1.0777  1.2078  0.0225
  520MOL0     H70144   6.245   1.513   6.733 -5.3704 -0.1995 -3.0074
  520MOL0     H70145   6.307   1.399   6.508  3.5567 -0.1877  1.5766
  520MOL0     H70146   6.272   1.252   6.594  3.2180  1.4509  0.3625
  520MOL0     H70147   6.070   1.281   6.637  1.7055  1.3448  0.9825
  520MOL0     H70148   6.075   1.330   6.467 -0.9012 -1.8800  0.8626
  520MOL0     H70149   5.932   1.494   6.536  0.6460 -2.6817 -1.2605
  520MOL0     H70150   6.029   1.530   6.689 -3.3608  2.0136 -1.3349
  520MOL0     H70151   6.172   1.518   6.322  3.0625  2.7777 -1.4501
  520MOL0     H70152   6.235   1.714   6.139 -0.7387 -0.8362 -0.4260
  520MOL0     H70153   6.171   1.872   6.184 -0.9567 -1.4978  0.2232
  520MOL0     H70154   6.373   1.933   6.302 -0.7261 -0.0675  1.8388
  520MOL0     H70155   6.420   1.772   6.336 -2.6010 -1.4904  1.3508
  520MOL0     H70156   6.481   1.731   6.096  0.5111  0.9233 -1.2416
  520MOL0     H70157   6.573   1.868   6.169  1.0236 -1.3715  0.3199
  520MOL0     H70158   6.529   1.924   5.945 -2.9589  0.8896 -3.7340
  520MOL0     H70159   6.441   2.023   6.058  0.9834  0.0376  0.4061
  520MOL0     H70160   6.313   2.147   5.908  0.1017 -0.1459 -0.5209
  520MOL0     H70161   6.262   2.261   5.682 -3.6057 -0.6929 -0.1506
  520MOL0     H70162   6.164   2.358   5.236  0.9527  0.1059 -3.7629
  520MOL0     H70163   6.217   2.497   5.061  1.8313  1.4381 -0.4376
  520MOL0     H70164   6.411   2.498   4.841  1.8135  2.1571 -5.3708
  520MOL0     H70165   6.293   2.623   4.889 -0.1987 -1.0314 -0.7086
  520MOL0     H70166   6.417   2.695   4.704 -2.5424  0.4015  1.0977
  520MOL0     H70167   6.464   2.800   4.836  0.5008  1.9020 -1.2858
  520MOL0     H70168   6.681   2.709   4.870  1.7737 -3.1495  1.8038
  520MOL0     H70169   6.646   2.549   4.808 -3.8662 -0.6095 -2.8442
  520MOL0     H70170   6.636   2.663   4.570  1.4135 -0.3492 -1.4076
  520MOL0     H70171   6.798   2.651   4.652  0.7086  1.6759  0.2377
  520MOL0     H70172   6.808   2.882   4.708  0.1166 -0.9295  0.9934
  520MOL0     H70173   6.643   2.907   4.654  1.3748  1.3899 -0.3573
  520MOL0     H70174   6.705   2.823   4.436 -1.3330 -0.5498  3.1627
  520MOL0     H70175   6.780   2.978   4.473  5.2340  0.9588  0.6046
  520MOL0     H70176   6.927   2.717   4.440  0.9239  0.4582 -2.9040
  520MOL0     H70177   6.996   2.853   4.539 -3.7084  3.7740  1.9810
  520MOL0     H70178   6.930   2.840   4.234  1.8561 -3.2987 -0.3175
  520MOL0     H70179   6.962   2.989   4.315  0.7059 -0.4051 -2.0503
  520MOL0     H70180   6.626   2.506   5.194 -0.0661 -1.4419  0.9562
  520MOL0     H70181   6.562   2.364   5.374  0.0645  0.4129 -0.9122
  520MOL0     H70182   6.337   1.879   5.497 -1.7408 -0.4627 -1.3776
  520MOL0     H70183   6.345   1.771   5.701  4.2090  0.3537 -0.3096
  520MOL0     H70184   6.839   1.809   6.905 -0.7422 -4.0067  0.3919
  520MOL0     H70185   6.881   1.997   7.059  2.0075 -2.0007 -1.7868
  520MOL0     H70186   6.798   2.426   7.193 -0.1224 -2.8141  0.0585
  520MOL0     H70187   6.805   2.600   7.354 -1.1835  0.0985 -0.2685
  520MOL0     H70188   6.720   2.753   7.510  1.9232 -2.0783 -2.5577
  520MOL0     H70189   6.868   2.755   7.603 -0.8652  2.3570  1.4870
  520MOL0     H70190   6.727   2.899   7.712 -1.2043  1.2952  1.9504
  520MOL0     H70191   6.737   2.759   7.811 -0.9339 -0.9695  0.3902
  520MOL0     H70192   6.526   2.675   7.723  0.7270 -0.5629  2.3413
  520MOL0     H70193   6.502   2.851   7.648 -3.2412  0.0541  2.5351
  520MOL0     H70194   6.396   2.792   7.880  0.8939 -1.4914 -4.0569
  520MOL0     H70195   6.555   2.799   7.935 -1.3199  0.7315  1.2460
  520MOL0     H70196   6.425   3.201   7.876 -5.2003  0.5744  0.1975
  520MOL0     H70197   6.619   2.349   7.642 -1.6227 -2.3466 -2.2105
  520MOL0     H70198   6.565   2.078   7.433  0.8489 -0.3610 -0.2390
  520MOL0     H70199   6.676   2.069   7.575  3.2321  0.0981 -1.2433
  520MOL0     H70200   6.532   2.161   7.588  1.7596 -1.5670  1.3016
  521MOL0     O70201   4.681   9.937   4.802 -0.5124  0.4627 -1.1055
  521MOL0     C70202   4.759   9.867   4.866 -0.8072  0.0695 -0.5031
  521MOL0     O70203   4.895   9.864   4.837 -0.6050 -0.4589  0.3123
  521MOL0     C70204   4.946   9.932   4.730 -0.1372  0.0960 -0.7208
  521MOL0     C70205   5.038   9.871   4.639 -0.8602 -0.5016 -0.2007
  521MOL0     C70206   5.108   9.954   4.552  0.5822 -0.1618  1.0556
  521MOL0     C70207   5.097  10.091   4.543  0.2023 -0.2939 -0.3261
  521MOL0     O70208   5.149  10.187   4.462 -0.5372 -0.0649  0.3579
  521MOL0     C70209   5.179  10.143   4.323 -0.9538 -0.6473 -1.0920
  521MOL0     C70210   5.227  10.272   4.251  0.7596 -0.2400 -0.5410
  521MOL0     C70211   5.379  10.302   4.270 -0.2258  0.3843 -0.7101
  521MOL0     C70212   5.415  10.453   4.297 -1.0818  0.8233 -0.0576
  521MOL0     C70213   5.452  10.535   4.168 -0.4811  0.3844  0.5874
  521MOL0     C70214   5.490  10.678   4.205 -0.0791  0.4240  0.7547
  521MOL0     C70215   5.534  10.762   4.084 -0.3106  0.4424 -1.4373
  521MOL0     C70216   5.560  10.900   4.141 -1.0899  0.8300 -0.4594
  521MOL0     N70217   5.664  10.909   4.240 -0.7404 -0.0041 -0.9146
  521MOL0     C70218   5.640  10.941   4.369  0.4298  0.4600 -0.3612
  521MOL0     C70219   5.773  10.947   4.421  0.6727  0.0113  0.0200
  521MOL0     C70220   5.798  10.963   4.570 -0.3925  0.1025 -0.1008
  521MOL0     C70221   5.788  11.107   4.601 -0.8201 -1.1436  0.6927
  521MOL0     C70222   5.780  11.132   4.759 -0.1182  0.3047  0.6355
  521MOL0     C70223   5.906  11.097   4.839  0.5085  0.1005  0.8747
  521MOL0     O70224   5.855  11.090   4.977  0.0689 -0.3234  0.2487
  521MOL0     C70225   5.939  11.078   5.088  0.1862 -0.5533  0.8728
  521MOL0     C70226   5.896  11.126   5.214  0.1020 -0.7848 -0.5320
  521MOL0     C70227   5.989  11.155   5.320 -0.2089 -0.0065  0.6094
  521MOL0     C70228   6.119  11.104   5.305 -0.4079  0.3415  0.4906
  521MOL0     C70229   6.225  11.144   5.401  0.1273  0.1788 -0.4730
  521MOL0     O70230   6.344  11.088   5.385 -0.6738  0.3058  0.5899
  521MOL0     C70231   6.451  11.131   5.456 -0.4069  0.3468 -0.6563
  521MOL0     C70232   6.573  11.181   5.393 -0.5294  0.4157 -0.7730
  521MOL0     C70233   6.693  11.225   5.462 -0.1103 -0.5835 -0.1473
  521MOL0     C70234   6.689  11.203   5.602  1.6920  0.0607  0.1322
  521MOL0     O70235   6.806  11.236   5.669  0.4756 -0.0597  0.6508
  521MOL0     C70236   6.909  11.137   5.660  0.0464 -0.3883 -0.3470
  521MOL0     C70237   6.972  11.123   5.792 -0.2398 -0.1733 -0.2453
  521MOL0     C70238   6.899  11.012   5.870 -0.6511 -0.0805 -0.4368
  521MOL0     C70239   6.957  10.994   6.002 -0.4097  0.6926 -2.0379
  521MOL0     C70240   6.924  10.850   6.057 -0.0459  0.4736 -0.0787
  521MOL0     C70241   6.782  10.806   6.119 -0.5841 -0.1302  0.2188
  521MOL0     C70242   6.774  10.653   6.130 -0.3569 -0.4196 -0.8585
  521MOL0     C70243   6.647  10.601   6.197 -0.1069  0.1632 -0.6176
  521MOL0    Cl70244   6.506  10.613   6.092  0.5029  0.3599  0.0892
  521MOL0     C70245   6.571  11.148   5.669 -0.8869  1.1755  0.7839
  521MOL0     C70246   6.459  11.106   5.593 -0.6064 -1.1111 -0.8193
  521MOL0     O70247   6.194  11.237   5.477  0.4106  0.1970  0.4159
  521MOL0     C70248   6.163  11.044   5.188  0.1593  0.4484  0.1876
  521MOL0     C70249   6.073  11.041   5.076  0.3241 -0.4455 -0.6988
  521MOL0     N70250   5.864  10.941   4.312  0.3816  0.3114  0.4661
  521MOL0     N70251   5.789  10.925   4.202  0.0806  0.5437 -0.0544
  521MOL0     C70252   5.013  10.156   4.635  0.8136  0.6461  0.2573
  521MOL0     C70253   4.942  10.080   4.730  0.2833  0.3484  0.8522
  521MOL0     C70254   4.707   9.783   4.985 -0.0966  0.6252 -0.1719
  521MOL0     C70255   4.811   9.725   5.066  0.5722 -0.1159  0.5808
  521MOL0     C70256   4.790   9.630   5.160 -0.0738 -0.0164 -0.6338
  521MOL0     C70257   4.658   9.593   5.190  0.0455 -0.2855  0.2650
  521MOL0     O70258   4.632   9.519   5.298 -0.2108 -0.0165  0.3034
  521MOL0     C70259   4.670   9.379   5.301 -1.3818 -0.1358  0.1450
  521MOL0     C70260   4.567   9.288   5.242 -0.4612 -0.2009  0.3190
  521MOL0     C70261   4.435   9.293   5.314  0.8122  0.0456  0.3744
  521MOL0     C70262   4.345   9.194   5.242  0.9273 -0.4500  0.6564
  521MOL0     C70263   4.228   9.179   5.323 -1.6586 -0.5945 -0.0962
  521MOL0     C70264   4.123   9.157   5.387  0.1095 -0.0361 -0.4128
  521MOL0     C70265   4.553   9.647   5.112 -0.6638 -0.0017 -0.4871
  521MOL0     C70266   4.575   9.744   5.007 -0.2350  0.3056 -0.0553
  521MOL0     C70267   4.457   9.796   4.927 -0.0779  0.9322 -0.0199
  521MOL0     H70268   5.044   9.762   4.645 -1.0581 -0.4316  2.4841
  521MOL0     H70269   5.180   9.910   4.483  1.0805  2.8397 -0.4858
  521MOL0     H70270   5.257  10.067   4.329  0.2350  0.5426 -1.2669
  521MOL0     H70271   5.095  10.097   4.269 -0.7840 -2.0329 -0.2312
  521MOL0     H70272   5.175  10.364   4.278  0.2290 -0.4819 -0.7266
  521MOL0     H70273   5.214  10.271   4.142 -2.5492  1.8948 -0.3104
  521MOL0     H70274   5.439  10.263   4.188  3.7317  3.4589  0.3983
  521MOL0     H70275   5.422  10.246   4.354  3.8886  0.1366 -2.7580
  521MOL0     H70276   5.326  10.500   4.339 -0.4205  2.5975 -0.5868
  521MOL0     H70277   5.500  10.440   4.365 -1.1028 -0.4160 -0.2439
  521MOL0     H70278   5.533  10.489   4.110 -0.6648  1.0440 -0.2136
  521MOL0     H70279   5.362  10.537   4.106  1.6618  0.3790 -2.7587
  521MOL0     H70280   5.406  10.722   4.260  0.3751  1.2863  0.7743
  521MOL0     H70281   5.570  10.673   4.280 -3.2275  2.3390  4.6681
  521MOL0     H70282   5.456  10.756   4.008 -1.1723 -1.2295 -0.4598
  521MOL0     H70283   5.625  10.721   4.037 -0.4182  0.5235 -1.7236
  521MOL0     H70284   5.595  10.957   4.054  4.5244  1.3619  1.7217
  521MOL0     H70285   5.462  10.928   4.179 -2.7920 -3.5663 -0.9380
  521MOL0     H70286   5.542  10.938   4.414 -0.5546 -0.5582 -2.4468
  521MOL0     H70287   5.720  10.917   4.631  0.4242 -0.3121  0.6556
  521MOL0     H70288   5.900  10.937   4.599 -1.2365 -0.9503  2.1016
  521MOL0     H70289   5.884  11.147   4.567 -0.4896 -0.9992  1.7533
  521MOL0     H70290   5.707  11.158   4.548 -2.2030 -0.6084  3.1898
  521MOL0     H70291   5.699  11.066   4.794 -0.2522 -0.3763 -0.8476
  521MOL0     H70292   5.764  11.239   4.774  0.9122  0.6015 -0.2368
  521MOL0     H70293   5.979  11.178   4.829 -0.1417  0.5486 -0.5623
  521MOL0     H70294   5.951  11.000   4.818  0.3542  0.3514 -0.7503
  521MOL0     H70295   5.794  11.164   5.216  0.2405 -0.4213  0.9557
  521MOL0     H70296   5.965  11.219   5.404  1.9779  1.7670  0.0095
  521MOL0     H70297   6.564  11.170   5.285 -3.9364 -1.7992 -0.4473
  521MOL0     H70298   6.787  11.263   5.423 -0.9271  1.3367 -0.3931
  521MOL0     H70299   6.873  11.038   5.629 -0.3007 -0.0494 -1.0359
  521MOL0     H70300   6.986  11.167   5.589  1.3443  1.8240  1.8297
  521MOL0     H70301   7.079  11.103   5.790 -0.2896 -0.9513  1.8919
  521MOL0     H70302   6.962  11.206   5.863 -0.1028  0.5646 -1.0673
  521MOL0     H70303   6.790  11.025   5.877 -0.4685  1.8159 -0.4984
  521MOL0     H70304   6.925  10.921   5.816  0.3988  0.4322 -0.8156
  521MOL0     H70305   6.913  11.075   6.061 -1.5127 -1.4079  0.2273
  521MOL0     H70306   7.066  11.002   5.998  0.0925 -1.6398  1.9865
  521MOL0     H70307   7.003  10.828   6.129  0.6289  0.4714 -0.7956
  521MOL0     H70308   6.944  10.784   5.972  0.0943 -1.3413  1.3016
  521MOL0     H70309   6.780  10.862   6.214  0.6940 -1.2246  0.9098
  521MOL0     H70310   6.701  10.846   6.057  0.5294  2.6120  0.3854
  521MOL0     H70311   6.850  10.620   6.202 -0.3536 -0.5125 -0.9048
  521MOL0     H70312   6.787  10.601   6.035  3.4293 -0.1333 -0.6700
  521MOL0     H70313   6.671  10.498   6.225  0.2346  0.4816  0.3126
  521MOL0     H70314   6.612  10.653   6.287 -1.4963 -0.4367 -0.7788
  521MOL0     H70315   6.587  11.150   5.776 -3.6815  0.4579  1.2963
  521MOL0     H70316   6.389  11.061   5.663 -0.0008  0.0332  0.5936
  521MOL0     H70317   6.263  11.003   5.187  1.0083  2.3892  0.4005
  521MOL0     H70318   6.133  11.030   4.986  1.7721 -0.2859  0.2028
  521MOL0     H70319   4.991  10.261   4.646 -1.2641  0.1267  1.4997
  521MOL0     H70320   4.884  10.139   4.801 -0.3428  1.3952 -0.4755
  521MOL0     H70321   4.916   9.750   5.052 -0.0264  1.2022 -2.2166
  521MOL0     H70322   4.874   9.587   5.213  0.2055 -0.1187 -1.1598
  521MOL0     H70323   4.699   9.333   5.396  5.8684 -3.5522 -2.9619
  521MOL0     H70324   4.750   9.364   5.228 -0.3196 -1.4589  1.5244
  521MOL0     H70325   4.600   9.184   5.245 -2.5595 -0.9016  2.1560
  521MOL0     H70326   4.547   9.308   5.136  3.7386 -2.3205 -1.0863
  521MOL0     H70327   4.400   9.396   5.311  2.8555  0.8809  2.3516
  521MOL0     H70328   4.453   9.265   5.418 -0.9464 -0.5259  0.5559
  521MOL0     H70329   4.341   9.230   5.139  1.2182  0.9033  1.0917
  521MOL0     H70330   4.387   9.094   5.229  1.8145  0.1405 -1.5253
  521MOL0     H70331   4.036   9.133   5.444  0.3029  1.6888  0.6710
  521MOL0     H70332   4.457   9.617   5.153 -1.2295 -0.5688 -2.1421
  521MOL0     H70333   4.451   9.905   4.926 -0.4076  0.9114 -1.2594
  521MOL0     H70334   4.478   9.782   4.821  0.4311 -0.6650  0.2751
  521MOL0     H70335   4.365   9.748   4.964  0.8753 -0.3330  0.8016
  522MOL0     O70336  10.618   2.617   6.958  0.3935  0.3097  0.1845
  522MOL0     C70337  10.514   2.603   6.898  0.2172 -0.0519 -0.5441
  522MOL0     O70338  10.419   2.515   6.932  0.4729  0.3014  0.6172
  522MOL0     C70339  10.443   2.417   7.029  0.6293 -0.7058  0.5702
  522MOL0     C70340  10.383   2.436   7.153  0.7504  0.0480 -0.6526
  522MOL0     C70341  10.381   2.329   7.242 -0.7496  0.2987  0.0705
  522MOL0     C70342  10.462   2.212   7.232 -0.3978 -0.8282  1.1324
  522MOL0     O70343  10.478   2.115   7.327  0.6356 -0.0496  1.1174
  522MOL0     C70344  10.406   2.128   7.455  0.7537 -0.5952  0.1025
  522MOL0     C70345  10.435   1.985   7.531  0.8658  0.2681  0.1843
  522MOL0     C70346  10.383   1.995   7.675  0.0999 -0.0236 -0.0534
  522MOL0     C70347  10.317   1.863   7.708  0.3681 -0.0927  1.0682
  522MOL0     C70348  10.412   1.740   7.690 -0.5767  0.3937 -0.2515
  522MOL0     C70349  10.344   1.610   7.753  0.1702 -0.5035  0.5687
  522MOL0     C70350  10.224   1.566   7.657  0.4556 -1.1035  0.4804
  522MOL0     C70351  10.150   1.446   7.729  1.0029 -0.7692  0.9333
  522MOL0     N70352  10.013   1.435   7.673 -0.0699  0.5780  0.1307
  522MOL0     C70353   9.980   1.393   7.545 -0.4430 -0.4209 -0.6340
  522MOL0     C70354   9.848   1.369   7.558 -0.6973  0.5721 -0.3683
  522MOL0     C70355   9.770   1.336   7.442  0.5589  0.0622 -0.5984
  522MOL0     C70356   9.743   1.180   7.443 -0.3310 -0.5363 -0.6406
  522MOL0     C70357   9.709   1.130   7.301 -0.3683 -0.5227 -0.5386
  522MOL0     C70358   9.716   0.984   7.291 -0.7746 -0.4555 -0.5738
  522MOL0     O70359   9.661   0.949   7.167  0.4315 -0.0713 -0.5432
  522MOL0     C70360   9.651   0.824   7.125 -0.5492 -0.5911  0.4774
  522MOL0     C70361   9.560   0.797   7.019  0.8170  0.2519  0.0623
  522MOL0     C70362   9.546   0.669   6.966  0.6965  0.3951  0.1347
  522MOL0     C70363   9.615   0.564   7.016  0.1255  0.3519  0.1965
  522MOL0     C70364   9.620   0.435   6.937  0.5984  0.4228 -0.7389
  522MOL0     O70365   9.552   0.439   6.822  0.3425  0.6465 -0.8599
  522MOL0     C70366   9.560   0.334   6.738  0.8127 -0.0828 -0.2835
  522MOL0     C70367   9.539   0.200   6.763  0.4334  0.3434  0.5191
  522MOL0     C70368   9.575   0.095   6.677 -0.2686  0.1801  0.8034
  522MOL0     C70369   9.624   0.127   6.549 -0.3384  0.1722 -0.0688
  522MOL0     O70370   9.668   0.036   6.452  0.8822 -0.1078 -0.4700
  522MOL0     C70371   9.614  -0.092   6.450 -0.6110  0.0964  0.2294
  522MOL0     C70372   9.723  -0.193   6.505 -0.4486  0.4953  0.2718
  522MOL0     C70373   9.861  -0.163   6.453  0.4480  1.4265  0.5065
  522MOL0     C70374   9.958  -0.282   6.460 -0.4564  0.2322  0.3792
  522MOL0     C70375  10.103  -0.251   6.408 -0.0216  0.4004 -0.2991
  522MOL0     C70376  10.111  -0.205   6.264  0.2046 -0.3504 -0.7215
  522MOL0     C70377  10.257  -0.180   6.233  0.1549 -0.1697 -0.4191
  522MOL0     C70378  10.290  -0.137   6.089  0.8668 -0.0675  0.7782
  522MOL0    Cl70379  10.245  -0.277   5.978 -0.2909 -0.2739 -0.2261
  522MOL0     C70380   9.638   0.272   6.510 -0.5410  0.8037  0.4611
  522MOL0     C70381   9.607   0.369   6.609  0.2424 -0.5507  0.1970
  522MOL0     O70382   9.667   0.334   6.994 -0.5835  0.1588 -0.2505
  522MOL0     C70383   9.706   0.589   7.122 -0.1994  0.4846  0.4203
  522MOL0     C70384   9.725   0.714   7.165 -0.0728 -0.9819 -0.2076
  522MOL0     N70385   9.796   1.405   7.678 -0.5806  0.4149  0.0683
  522MOL0     N70386   9.905   1.447   7.752  0.5431 -0.1046  0.5486
  522MOL0     C70387  10.524   2.200   7.098 -0.4417  0.1899 -1.2042
  522MOL0     C70388  10.507   2.295   6.997  0.6302  0.3868 -0.4901
  522MOL0     C70389  10.476   2.695   6.787  0.5239  0.3818  0.3964
  522MOL0     C70390  10.339   2.720   6.756  0.3341 -0.8476 -0.7960
  522MOL0     C70391  10.293   2.795   6.643  0.2084 -0.7434  0.9112
  522MOL0     C70392  10.379   2.870   6.574 -0.2047 -0.3643  0.1441
  522MOL0     O70393  10.366   2.949   6.466 -0.0929  0.1795  0.3439
  522MOL0     C70394  10.226   2.976   6.435 -0.0102 -0.6480  0.2764
  522MOL0     C70395  10.215   3.122   6.384 -0.1714  0.5131  0.3043
  522MOL0     C70396  10.266   3.237   6.470  0.0318 -1.5055 -0.0817
  522MOL0     C70397  10.233   3.372   6.396 -0.1974  0.7076  0.0064
  522MOL0     C70398  10.294   3.495   6.445  0.1529  0.5563 -1.0963
  522MOL0     C70399  10.345   3.600   6.480 -0.7004  0.8304  0.3498
  522MOL0     C70400  10.517   2.859   6.611 -0.8465  1.3782 -0.6849
  522MOL0     C70401  10.567   2.767   6.707 -0.3909 -0.6633 -0.3704
  522MOL0     C70402  10.715   2.736   6.711  0.0923  0.0721  0.1747
  522MOL0     H70403  10.329   2.528   7.173  0.8977 -0.1995  1.0789
  522MOL0     H70404  10.349   2.366   7.339  0.3733  0.8848  0.2390
  522MOL0     H70405  10.443   2.220   7.502 -4.0480  2.1672 -0.8391
  522MOL0     H70406  10.301   2.146   7.432  1.6730  3.5479 -1.8561
  522MOL0     H70407  10.541   1.961   7.541  0.8210  0.8570  2.4972
  522MOL0     H70408  10.393   1.900   7.476  2.8755 -0.7979  0.1844
  522MOL0     H70409  10.314   2.080   7.679 -0.4913 -0.3447 -2.2042
  522MOL0     H70410  10.461   2.019   7.748  0.0395  1.0030 -0.3177
  522MOL0     H70411  10.282   1.858   7.812  2.0816 -2.5717  1.6221
  522MOL0     H70412  10.228   1.842   7.649  0.6333 -3.3833  1.6006
  522MOL0     H70413  10.453   1.719   7.591 -1.4283 -0.1918 -0.4968
  522MOL0     H70414  10.492   1.776   7.755 -0.9179  3.9465 -1.5757
  522MOL0     H70415  10.413   1.525   7.763  2.1220  0.8464 -0.7223
  522MOL0     H70416  10.297   1.628   7.850 -5.2573 -1.3421 -1.5673
  522MOL0     H70417  10.266   1.537   7.560  1.3995  0.3133  0.4457
  522MOL0     H70418  10.161   1.655   7.646  1.9438 -0.2059 -1.3173
  522MOL0     H70419  10.209   1.356   7.715  2.3875  0.3591 -0.9595
  522MOL0     H70420  10.138   1.479   7.833 -0.1494  4.4646 -0.5171
  522MOL0     H70421  10.037   1.381   7.453 -0.8412 -0.3260 -0.8942
  522MOL0     H70422   9.684   1.403   7.429  1.2141  0.7488 -1.5747
  522MOL0     H70423   9.823   1.361   7.349 -0.5659  1.1047 -0.9936
  522MOL0     H70424   9.830   1.125   7.479  0.7546  2.4928  1.8161
  522MOL0     H70425   9.659   1.160   7.510 -1.2921  0.1826 -1.5839
  522MOL0     H70426   9.775   1.180   7.230 -1.8726  2.2795 -0.0765
  522MOL0     H70427   9.612   1.166   7.266  0.2276 -0.7249 -2.4820
  522MOL0     H70428   9.655   0.945   7.373 -0.8704 -0.1742 -0.5129
  522MOL0     H70429   9.822   0.957   7.302 -0.7846 -0.1518  0.3298
  522MOL0     H70430   9.502   0.887   6.999  1.0678  0.5706  0.7464
  522MOL0     H70431   9.486   0.658   6.877  1.9729 -0.7245 -0.6291
  522MOL0     H70432   9.493   0.169   6.857  0.6358  2.2523  1.2795
  522MOL0     H70433   9.550  -0.000   6.721 -0.8883  0.7015  1.6049
  522MOL0     H70434   9.519  -0.096   6.504 -1.0665  0.9704 -0.4946
  522MOL0     H70435   9.600  -0.136   6.351  1.4338 -0.8978  0.3113
  522MOL0     H70436   9.738  -0.178   6.612 -1.5213 -0.8351  0.6302
  522MOL0     H70437   9.698  -0.297   6.484  1.0271  0.4468 -1.4983
  522MOL0     H70438   9.851  -0.141   6.347  1.5384  0.5070  0.1808
  522MOL0     H70439   9.912  -0.080   6.502  0.1904  1.0327  1.4701
  522MOL0     H70440   9.928  -0.376   6.414 -1.6686  0.3588  0.8875
  522MOL0     H70441   9.966  -0.306   6.566  0.1793 -1.3163  0.0071
  522MOL0     H70442  10.166  -0.341   6.415 -0.4783  0.1508  0.9203
  522MOL0     H70443  10.150  -0.169   6.463  0.5136  0.9564 -1.5531
  522MOL0     H70444  10.067  -0.272   6.189  1.0097 -2.0099  0.2443
  522MOL0     H70445  10.052  -0.113   6.249  0.6050  0.0779  0.2446
  522MOL0     H70446  10.304  -0.278   6.245  0.2210  0.0817  1.7173
  522MOL0     H70447  10.304  -0.109   6.303 -0.9375 -0.6589  0.8587
  522MOL0     H70448  10.237  -0.043   6.072 -0.3786 -1.1776 -2.1725
  522MOL0     H70449  10.399  -0.128   6.086  0.8414  0.0731 -0.1130
  522MOL0     H70450   9.673   0.283   6.408  1.0026  2.9118  1.1493
  522MOL0     H70451   9.630   0.474   6.593  1.0607 -0.0902  3.6302
  522MOL0     H70452   9.771   0.505   7.143  1.3423  0.1054 -4.4588
  522MOL0     H70453   9.807   0.719   7.236 -0.9637 -3.1088  1.0804
  522MOL0     H70454  10.579   2.110   7.072  0.6511  0.6502 -0.5733
  522MOL0     H70455  10.537   2.281   6.894 -1.3818  0.4735 -1.1160
  522MOL0     H70456  10.274   2.665   6.823  2.1263 -1.3450  0.6165
  522MOL0     H70457  10.188   2.782   6.619  0.2586  3.1185 -2.4899
  522MOL0     H70458  10.160   2.981   6.522 -1.1504 -3.6537 -0.2699
  522MOL0     H70459  10.190   2.906   6.359  4.2842 -2.0890 -0.7331
  522MOL0     H70460  10.110   3.142   6.361 -0.1651  0.4609  0.2278
  522MOL0     H70461  10.267   3.121   6.288 -1.3873  1.2478 -0.3911
  522MOL0     H70462  10.375   3.231   6.460  0.1058 -4.0636  1.3778
  522MOL0     H70463  10.241   3.227   6.576 -1.1629 -1.8577 -0.3840
  522MOL0     H70464  10.269   3.359   6.294  2.2845  0.3192  0.8560
  522MOL0     H70465  10.125   3.389   6.394 -0.6990 -1.7362 -4.0204
  522MOL0     H70466  10.396   3.693   6.492  1.6917 -0.3717  0.1056
  522MOL0     H70467  10.595   2.912   6.557  0.1641 -0.0833 -0.7126
  522MOL0     H70468  10.744   2.631   6.710  2.0468  0.3823  3.7985
  522MOL0     H70469  10.766   2.805   6.643 -1.2484  0.9597  0.0221
  522MOL0     H70470  10.749   2.766   6.811 -2.1600 -1.0907  1.3603
  523MOL0     O70471   4.260   2.246  11.368  0.3833  0.5524 -0.6643
  523MOL0     C70472   4.143   2.289  11.364  0.2555 -0.8118 -0.6185
  523MOL0     O70473   4.112   2.417  11.408  0.3344 -0.2426 -0.4823
  523MOL0     C70474   4.225   2.491  11.435 -0.3333  0.2115 -0.3444
  523MOL0     C70475   4.279   2.483  11.561  0.7554 -0.0580 -0.5848
  523MOL0     C70476   4.390   2.565  11.602 -0.0727 -0.3736  0.1477
  523MOL0     C70477   4.444   2.660  11.510 -0.2687 -0.2470  0.2575
  523MOL0     O70478   4.546   2.742  11.546  0.3834 -0.3681  0.1662
  523MOL0     C70479   4.641   2.792  11.458  0.0697 -0.6424  0.9742
  523MOL0     C70480   4.766   2.827  11.528 -0.5772  0.0701  0.3852
  523MOL0     C70481   4.818   2.693  11.602 -0.6077 -0.1135  0.0270
  523MOL0     C70482   4.961   2.727  11.647  0.1731 -0.4559  0.0851
  523MOL0     C70483   5.042   2.612  11.715  0.2517 -0.1162  0.0651
  523MOL0     C70484   5.157   2.678  11.798  0.1048 -0.4961  0.6683
  523MOL0     C70485   5.219   2.575  11.898 -1.4406 -0.4568 -0.1457
  523MOL0     C70486   5.344   2.636  11.971 -0.0656  0.1261  0.3674
  523MOL0     N70487   5.411   2.547  12.067  0.3058 -0.1295 -0.0891
  523MOL0     C70488   5.528   2.471  12.047 -0.5558 -1.1520 -0.1946
  523MOL0     C70489   5.537   2.398  12.159 -0.0792 -0.0354  0.0077
  523MOL0     C70490   5.629   2.278  12.194  0.3823  0.3663  0.4125
  523MOL0     C70491   5.604   2.165  12.087 -0.3059  0.2580 -0.3153
  523MOL0     C70492   5.658   2.034  12.120  0.5571 -0.0798 -0.4809
  523MOL0     C70493   5.799   2.030  12.160 -0.3817  0.8981 -0.1054
  523MOL0     O70494   5.826   1.885  12.176 -0.3639 -0.6433 -0.1985
  523MOL0     C70495   5.914   1.843  12.270 -0.9590 -0.1158 -0.2328
  523MOL0     C70496   6.025   1.919  12.301  0.0384  0.4957 -0.7461
  523MOL0     C70497   6.125   1.875  12.391 -0.0089  0.3910 -0.7129
  523MOL0     C70498   6.112   1.757  12.456 -0.1735  0.0538 -0.9649
  523MOL0     C70499   6.219   1.703  12.548 -0.4494  0.2449 -0.3876
  523MOL0     O70500   6.189   1.594  12.624 -0.3109 -0.0896 -0.5154
  523MOL0     C70501   6.275   1.541  12.724  1.6824 -0.2611 -0.7680
  523MOL0     C70502   6.414   1.541  12.713 -0.3932  0.3721 -0.4662
  523MOL0     C70503   6.500   1.507  12.823  0.4464 -0.2479  0.0310
  523MOL0     C70504   6.438   1.438  12.926  0.6556 -0.4260 -1.3614
  523MOL0     O70505   6.498   1.377  13.034 -0.3229  0.8823 -0.3464
  523MOL0     C70506   6.638   1.342  13.028 -0.0866 -0.3930 -0.9722
  523MOL0     C70507   6.676   1.257  13.144  0.0329 -0.1282 -0.7241
  523MOL0     C70508   6.666   1.342  13.283  0.3143 -0.4529 -1.0094
  523MOL0     C70509   6.585   1.261  13.394 -0.5175  0.1500 -0.2506
  523MOL0     C70510   6.582   1.341  13.519 -0.2237  0.4843  1.1330
  523MOL0     C70511   6.482   1.288  13.627  0.1694 -0.8116  0.4869
  523MOL0     C70512   6.516   1.150  13.691  1.1099 -0.3649  0.2906
  523MOL0     C70513   6.440   1.122  13.816 -0.0302 -0.1488 -0.2158
  523MOL0    Cl70514   6.500   0.970  13.895 -0.1273 -0.1755 -0.8700
  523MOL0     C70515   6.299   1.433  12.937  1.6323 -0.9217 -0.0561
  523MOL0     C70516   6.218   1.495  12.839 -0.1314 -0.2674 -0.4809
  523MOL0     O70517   6.316   1.778  12.575 -0.2044  0.9577 -0.3255
  523MOL0     C70518   6.000   1.682  12.429 -0.7982  1.0103 -0.4917
  523MOL0     C70519   5.901   1.729  12.329  0.1393 -0.6677 -0.3138
  523MOL0     N70520   5.448   2.446  12.253  0.6450 -0.3735  0.0761
  523MOL0     N70521   5.375   2.534  12.198 -0.0614 -0.8015  0.1471
  523MOL0     C70522   4.377   2.677  11.390  0.2313  0.0724  0.5627
  523MOL0     C70523   4.257   2.602  11.349 -1.3823  0.6851  0.6517
  523MOL0     C70524   4.016   2.209  11.324 -1.0748 -0.0435  0.5104
  523MOL0     C70525   4.017   2.073  11.335 -0.3250  0.5639  0.0159
  523MOL0     C70526   3.906   2.001  11.291  1.0114  0.0144 -0.1438
  523MOL0     C70527   3.785   2.065  11.239 -0.7940 -0.0141  0.2723
  523MOL0     O70528   3.670   2.011  11.187  0.5999 -0.1369 -0.0334
  523MOL0     C70529   3.665   1.898  11.098  0.7921 -0.1520  0.6824
  523MOL0     C70530   3.537   1.865  11.025  0.3776  1.0901  0.1217
  523MOL0     C70531   3.489   1.974  10.932  0.1675 -0.2004  0.5186
  523MOL0     C70532   3.343   1.935  10.885 -0.4047  0.2128  0.4255
  523MOL0     C70533   3.243   1.983  10.972 -0.2186 -0.0842  0.0739
  523MOL0     C70534   3.151   2.020  11.047 -0.2326 -0.0475 -0.3173
  523MOL0     C70535   3.792   2.201  11.236 -0.2481 -0.7006  0.7656
  523MOL0     C70536   3.906   2.278  11.277 -0.2829  0.5039 -0.0772
  523MOL0     C70537   3.878   2.430  11.262  0.2787  0.2360 -0.1015
  523MOL0     H70538   4.228   2.414  11.627  2.7072 -0.4203  0.6496
  523MOL0     H70539   4.422   2.554  11.705 -0.7728 -0.5975  0.3419
  523MOL0     H70540   4.663   2.716  11.383 -0.5078  0.1267 -0.0063
  523MOL0     H70541   4.597   2.875  11.402  0.5237 -2.6088 -2.5723
  523MOL0     H70542   4.757   2.914  11.593  1.0209  0.7480 -0.2558
  523MOL0     H70543   4.847   2.854  11.460  0.5471 -1.1921  1.1490
  523MOL0     H70544   4.828   2.609  11.533 -2.0148 -0.3660  0.1045
  523MOL0     H70545   4.747   2.667  11.681  0.9293  0.8216  1.8164
  523MOL0     H70546   5.027   2.753  11.564 -0.4610  3.1747  0.5192
  523MOL0     H70547   4.951   2.816  11.710  0.1256 -1.1200  1.0369
  523MOL0     H70548   4.979   2.556  11.786 -0.6488  2.0425  1.0485
  523MOL0     H70549   5.077   2.547  11.635 -0.8057 -1.6121  0.7594
  523MOL0     H70550   5.243   2.694  11.733  1.0380 -0.6374  1.8230
  523MOL0     H70551   5.121   2.765  11.854  1.2700  1.0727 -0.8841
  523MOL0     H70552   5.255   2.485  11.847  2.1307  1.3384 -1.1381
  523MOL0     H70553   5.146   2.569  11.979 -3.0904  4.4826 -0.9386
  523MOL0     H70554   5.415   2.671  11.896  3.4576 -1.6055  2.6140
  523MOL0     H70555   5.312   2.715  12.040  1.6124 -0.4471  1.8935
  523MOL0     H70556   5.584   2.442  11.958  1.3580  1.2623  0.1263
  523MOL0     H70557   5.733   2.310  12.200  0.0554  1.7758 -0.9032
  523MOL0     H70558   5.600   2.252  12.297 -2.2733 -0.0647 -0.3589
  523MOL0     H70559   5.496   2.155  12.072 -0.4483 -0.6787  1.0938
  523MOL0     H70560   5.632   2.210  11.992 -0.7893  1.5249  0.1214
  523MOL0     H70561   5.629   1.974  12.033 -4.3617  0.1802  0.6739
  523MOL0     H70562   5.596   2.018  12.208  2.2466  2.5968  1.3178
  523MOL0     H70563   5.827   2.100  12.239 -2.3053  1.4094  0.1714
  523MOL0     H70564   5.852   2.057  12.069  1.1248  0.1040  0.5072
  523MOL0     H70565   6.030   2.016  12.251  3.3276  0.6541 -0.3320
  523MOL0     H70566   6.214   1.935  12.412  0.1658  0.2503 -1.0550
  523MOL0     H70567   6.454   1.572  12.618 -0.2244 -3.2814 -1.7672
  523MOL0     H70568   6.608   1.518  12.823  0.1902  4.1288 -0.4810
  523MOL0     H70569   6.649   1.272  12.945  3.0631 -0.4635 -0.6222
  523MOL0     H70570   6.706   1.427  13.025  1.3319 -1.3552  1.2803
  523MOL0     H70571   6.612   1.169  13.158  0.8433 -0.4204  1.7753
  523MOL0     H70572   6.782   1.238  13.123  0.0153 -0.6434 -0.3880
  523MOL0     H70573   6.771   1.359  13.308  1.2406 -1.4042 -3.8908
  523MOL0     H70574   6.619   1.437  13.258  3.7799  2.4056  2.1244
  523MOL0     H70575   6.629   1.162  13.408 -0.4104 -0.1634 -2.5353
  523MOL0     H70576   6.484   1.238  13.359 -0.9510  2.6123 -0.8265
  523MOL0     H70577   6.552   1.446  13.508 -0.2774  0.3850  0.2717
  523MOL0     H70578   6.685   1.340  13.556  0.2520 -1.5728 -0.0969
  523MOL0     H70579   6.478   1.364  13.705 -3.6560 -0.5529  0.2133
  523MOL0     H70580   6.377   1.289  13.598 -0.7422  4.8293  2.7358
  523MOL0     H70581   6.624   1.139  13.706  1.8024  3.1837 -1.0077
  523MOL0     H70582   6.499   1.071  13.618 -1.0448  0.9743 -0.7656
  523MOL0     H70583   6.447   1.207  13.884 -0.6647 -0.9944  0.9394
  523MOL0     H70584   6.333   1.103  13.799  0.3978 -0.3461 -3.1677
  523MOL0     H70585   6.263   1.371  13.019  0.1161  1.1348  0.9254
  523MOL0     H70586   6.110   1.498  12.849 -0.1668 -2.4713  0.1700
  523MOL0     H70587   5.998   1.579  12.462  2.0220 -0.7595 -4.9591
  523MOL0     H70588   5.812   1.673  12.304 -0.7779  1.1911 -1.4299
  523MOL0     H70589   4.400   2.757  11.321 -0.7597  1.5006  1.8113
  523MOL0     H70590   4.204   2.629  11.259  2.4115  1.5340 -1.5364
  523MOL0     H70591   4.107   2.022  11.370  0.7584  0.7715 -2.2490
  523MOL0     H70592   3.939   1.897  11.292  1.7973  0.2563  0.2793
  523MOL0     H70593   3.703   1.807  11.146 -1.9122 -2.2846 -0.9297
  523MOL0     H70594   3.727   1.928  11.012 -0.7445 -4.5263 -2.3631
  523MOL0     H70595   3.459   1.827  11.092  0.1388  1.8787  0.3118
  523MOL0     H70596   3.567   1.783  10.959 -1.7314  0.0701  0.3323
  523MOL0     H70597   3.558   1.977  10.847 -1.4518 -4.0208 -1.1448
  523MOL0     H70598   3.489   2.076  10.972 -0.3478  0.4075 -0.9833
  523MOL0     H70599   3.322   1.995  10.796 -0.1607  2.3323  1.7181
  523MOL0     H70600   3.331   1.830  10.857  0.2859  1.2752 -4.7662
  523MOL0     H70601   3.087   2.064  11.121  1.3512 -2.7669  2.9860
  523MOL0     H70602   3.712   2.264  11.200  0.1845  0.2243  1.3777
  523MOL0     H70603   3.786   2.443  11.205 -2.2196 -2.0777  3.0021
  523MOL0     H70604   3.865   2.470  11.363  1.5766  0.2289  0.0852
  523MOL0     H70605   3.958   2.476  11.203 -1.4580  1.6035 -1.4761
  524MOL0     O70606   5.810   4.260   1.869  0.8710  0.2947  0.3233
  524MOL0     C70607   5.689   4.219   1.881 -0.3217 -0.5562  0.1797
  524MOL0     O70608   5.589   4.273   1.963  0.7755  0.4014 -0.2044
  524MOL0     C70609   5.622   4.368   2.039 -0.5492  0.4062  0.1513
  524MOL0     C70610   5.729   4.366   2.129 -0.5946  0.1185 -0.0175
  524MOL0     C70611   5.748   4.474   2.213  1.0806 -0.0384  0.0418
  524MOL0     C70612   5.657   4.582   2.214 -0.5149 -0.2682  0.0386
  524MOL0     O70613   5.690   4.697   2.294 -0.2504  0.2649  0.1215
  524MOL0     C70614   5.597   4.804   2.308  0.9841 -0.6776  0.4602
  524MOL0     C70615   5.686   4.910   2.379 -0.4859 -0.6119 -0.1003
  524MOL0     C70616   5.710   4.875   2.528 -0.3243 -0.4972 -0.8042
  524MOL0     C70617   5.841   4.797   2.538  0.1869 -0.1793 -0.0142
  524MOL0     C70618   5.880   4.796   2.686 -0.4309 -0.4167 -0.0736
  524MOL0     C70619   6.016   4.720   2.706 -0.8558  0.2265  0.3546
  524MOL0     C70620   6.065   4.721   2.854 -0.4957  0.3573 -0.1423
  524MOL0     C70621   6.194   4.642   2.856 -0.0685  0.4102  0.4250
  524MOL0     N70622   6.290   4.706   2.943  0.0620 -0.0676 -0.0059
  524MOL0     C70623   6.279   4.715   3.084 -0.6539  0.1651  0.5123
  524MOL0     C70624   6.389   4.794   3.112  0.0934  0.0817 -0.4364
  524MOL0     C70625   6.417   4.835   3.253 -0.6897  0.0306  0.9273
  524MOL0     C70626   6.566   4.843   3.282 -0.1700 -0.4075  0.3479
  524MOL0     C70627   6.663   4.938   3.209 -0.3845  0.1528 -1.4513
  524MOL0     C70628   6.597   5.072   3.184  0.3867 -0.3934 -0.6354
  524MOL0     O70629   6.696   5.154   3.120  0.0766  0.0067 -0.5903
  524MOL0     C70630   6.698   5.176   2.979 -0.8736  0.0011 -0.0404
  524MOL0     C70631   6.805   5.265   2.934 -0.3458  0.6229 -0.7811
  524MOL0     C70632   6.801   5.310   2.800  0.0002  1.9034 -0.5943
  524MOL0     C70633   6.695   5.266   2.720  0.3742  0.6827  0.8395
  524MOL0     C70634   6.687   5.308   2.582  0.4551  0.2829  0.5684
  524MOL0     O70635   6.556   5.329   2.536  0.6940  0.3774 -1.0219
  524MOL0     C70636   6.530   5.396   2.426  0.3968 -0.7561  0.5312
  524MOL0     C70637   6.609   5.487   2.350 -0.0151 -0.8250  0.0127
  524MOL0     C70638   6.560   5.540   2.225  0.0875 -0.1857 -0.4343
  524MOL0     C70639   6.439   5.498   2.164  0.8753 -0.3492 -0.5230
  524MOL0     O70640   6.388   5.543   2.045 -0.2414  0.4696 -0.6167
  524MOL0     C70641   6.480   5.571   1.935  0.5261  0.6159 -0.7359
  524MOL0     C70642   6.396   5.602   1.809 -0.2616 -0.0061 -0.0540
  524MOL0     C70643   6.470   5.588   1.678 -0.3736 -0.1465  0.6112
  524MOL0     C70644   6.590   5.684   1.662 -0.3436 -0.2999  0.3061
  524MOL0     C70645   6.659   5.661   1.532  0.4763 -0.4891 -0.2571
  524MOL0     C70646   6.791   5.739   1.524 -0.0422 -0.1493 -0.0233
  524MOL0     C70647   6.865   5.700   1.395  0.1462  0.9445  1.3125
  524MOL0     C70648   6.807   5.745   1.266 -0.1746  0.3665  0.7083
  524MOL0    Cl70649   6.876   5.629   1.150  0.2829 -0.2258  0.2328
  524MOL0     C70650   6.356   5.418   2.246  0.4960 -0.5847  0.6306
  524MOL0     C70651   6.396   5.378   2.377 -0.4374  0.6585 -0.4291
  524MOL0     O70652   6.791   5.352   2.539  0.1566  0.1098  0.7455
  524MOL0     C70653   6.591   5.182   2.768 -0.4203 -0.1488  0.0188
  524MOL0     C70654   6.599   5.132   2.892  0.2617 -0.3432  0.0332
  524MOL0     N70655   6.460   4.818   2.994 -0.3667 -0.1093 -0.5894
  524MOL0     N70656   6.398   4.766   2.894  0.2189  0.4461  0.4503
  524MOL0     C70657   5.548   4.581   2.126 -0.0490 -0.7719  0.0908
  524MOL0     C70658   5.531   4.470   2.045  0.5030  0.1167  0.1012
  524MOL0     C70659   5.658   4.096   1.807 -0.8047  0.4344 -0.3840
  524MOL0     C70660   5.573   4.010   1.872  0.4450  0.7695  0.7004
  524MOL0     C70661   5.536   3.901   1.798 -1.2088  0.3727  0.4876
  524MOL0     C70662   5.592   3.858   1.677  0.3100 -0.0547  0.8190
  524MOL0     O70663   5.555   3.735   1.626 -0.2015  0.7543  0.4423
  524MOL0     C70664   5.468   3.744   1.508 -0.3337  1.4470 -0.7422
  524MOL0     C70665   5.365   3.647   1.524  0.2651  0.6225 -0.4381
  524MOL0     C70666   5.259   3.654   1.407 -0.3973  0.8452 -0.7688
  524MOL0     C70667   5.111   3.619   1.456 -0.2137 -0.0907 -0.1168
  524MOL0     C70668   5.098   3.474   1.477  0.8407  0.1445 -0.1364
  524MOL0     C70669   5.108   3.352   1.478 -0.7947 -0.2213  0.8328
  524MOL0     C70670   5.694   3.946   1.624  0.0053  0.7560 -1.0346
  524MOL0     C70671   5.719   4.068   1.684  0.0599  0.4863  0.2349
  524MOL0     C70672   5.803   4.157   1.590  0.1793  0.5153 -0.1045
  524MOL0     H70673   5.796   4.281   2.131 -1.1485 -0.3649 -1.3491
  524MOL0     H70674   5.827   4.481   2.287  0.6011  1.5945  0.4454
  524MOL0     H70675   5.571   4.836   2.207 -0.6399  0.8342  1.2967
  524MOL0     H70676   5.507   4.775   2.363  0.0276 -0.5132 -0.9682
  524MOL0     H70677   5.634   5.007   2.382  2.2232  1.0913 -2.8199
  524MOL0     H70678   5.776   4.942   2.326 -0.9319  0.3639 -0.3041
  524MOL0     H70679   5.626   4.822   2.574  0.6822  1.6727  4.2398
  524MOL0     H70680   5.714   4.964   2.590  0.5976  1.0245 -2.9363
  524MOL0     H70681   5.811   4.695   2.515  2.8181 -1.0701  0.1470
  524MOL0     H70682   5.923   4.827   2.472  1.6597  1.0890  2.2414
  524MOL0     H70683   5.905   4.898   2.717  1.4836  0.1833 -3.1613
  524MOL0     H70684   5.793   4.750   2.735  0.5807 -3.9440 -1.2974
  524MOL0     H70685   5.999   4.616   2.678  2.1993 -0.5835  1.1392
  524MOL0     H70686   6.095   4.761   2.641  2.7035 -0.4214  3.8796
  524MOL0     H70687   5.998   4.668   2.923  1.1640 -2.3486 -0.4586
  524MOL0     H70688   6.082   4.826   2.881  0.4219  0.3087 -0.5111
  524MOL0     H70689   6.180   4.535   2.879  0.7525  0.3562  0.6893
  524MOL0     H70690   6.250   4.646   2.762  0.3984  1.3266  0.7306
  524MOL0     H70691   6.202   4.676   3.150  0.6947  0.5598  2.3992
  524MOL0     H70692   6.373   4.934   3.267 -0.5712  0.2598 -0.2505
  524MOL0     H70693   6.373   4.765   3.325  0.8766 -1.8259  0.1672
  524MOL0     H70694   6.561   4.863   3.390 -0.5130  3.1012 -0.1988
  524MOL0     H70695   6.601   4.740   3.274 -2.8763 -1.5445  1.6916
  524MOL0     H70696   6.687   4.901   3.110 -0.6702 -0.4157 -1.3091
  524MOL0     H70697   6.745   4.952   3.280 -0.1161 -4.5864 -0.4985
  524MOL0     H70698   6.566   5.126   3.273  4.2477  2.9336 -1.0576
  524MOL0     H70699   6.508   5.056   3.123 -1.0365 -1.1723  1.5427
  524MOL0     H70700   6.881   5.308   2.999 -0.9853  0.8796 -0.1892
  524MOL0     H70701   6.886   5.364   2.758 -0.1508  1.9259 -0.8727
  524MOL0     H70702   6.704   5.532   2.378 -2.0720  1.7165  3.7760
  524MOL0     H70703   6.623   5.618   2.184 -3.6870  4.1196  1.2562
  524MOL0     H70704   6.533   5.663   1.958 -0.9240  1.5875 -1.1402
  524MOL0     H70705   6.556   5.495   1.911 -0.8276 -0.2222 -2.5867
  524MOL0     H70706   6.313   5.533   1.794 -1.3280  1.1361  0.3879
  524MOL0     H70707   6.358   5.705   1.806 -4.4327 -1.3471 -1.2873
  524MOL0     H70708   6.504   5.484   1.678 -2.3134 -0.8576 -1.7076
  524MOL0     H70709   6.397   5.606   1.599  0.9815  1.4893 -0.3317
  524MOL0     H70710   6.662   5.660   1.740  0.1935 -1.2261 -0.4466
  524MOL0     H70711   6.562   5.788   1.680  1.4937  0.5213 -1.1820
  524MOL0     H70712   6.600   5.703   1.450  0.7942 -1.8240 -1.2144
  524MOL0     H70713   6.680   5.553   1.527 -3.5717 -1.4765  0.2507
  524MOL0     H70714   6.783   5.846   1.546  2.3333  0.0058  0.3838
  524MOL0     H70715   6.862   5.707   1.601  0.5830 -1.0418 -0.9453
  524MOL0     H70716   6.865   5.590   1.397 -1.2974  0.7606 -1.8648
  524MOL0     H70717   6.971   5.726   1.395  0.7245 -1.1964  1.0824
  524MOL0     H70718   6.699   5.728   1.263 -0.1224  0.0723  0.5502
  524MOL0     H70719   6.825   5.852   1.251 -2.2947  0.4400 -2.3159
  524MOL0     H70720   6.267   5.364   2.214  0.6701 -1.0480  0.9071
  524MOL0     H70721   6.337   5.305   2.432  1.4166 -0.3399  0.3422
  524MOL0     H70722   6.506   5.158   2.705 -1.2641 -0.3101  1.2024
  524MOL0     H70723   6.529   5.059   2.930 -0.8262  0.2402 -0.7930
  524MOL0     H70724   5.475   4.663   2.125 -0.1442 -0.8410  0.6486
  524MOL0     H70725   5.448   4.454   1.977  3.7416  0.4587 -4.4732
  524MOL0     H70726   5.538   4.021   1.974  0.2211  1.9335  0.5090
  524MOL0     H70727   5.456   3.834   1.828 -0.7571 -0.5444 -0.2901
  524MOL0     H70728   5.538   3.719   1.427 -1.1843 -1.5960 -0.6710
  524MOL0     H70729   5.415   3.837   1.488  0.5235  1.8636 -1.1256
  524MOL0     H70730   5.315   3.645   1.622 -0.2306 -0.1524 -0.6971
  524MOL0     H70731   5.404   3.545   1.531 -1.4822 -0.0357  0.1960
  524MOL0     H70732   5.283   3.587   1.324 -2.5628  1.4945 -1.9826
  524MOL0     H70733   5.259   3.747   1.350  0.8925  0.3106 -1.7048
  524MOL0     H70734   5.091   3.681   1.544 -1.2266 -2.1318  1.1708
  524MOL0     H70735   5.039   3.646   1.378  2.1037  2.4180 -1.5819
  524MOL0     H70736   5.088   3.248   1.460 -1.2844  0.1005 -0.6235
  524MOL0     H70737   5.747   3.912   1.535  1.6579 -0.7095  0.4252
  524MOL0     H70738   5.906   4.129   1.613  0.5129 -2.9123 -4.4623
  524MOL0     H70739   5.788   4.127   1.486 -1.4223  2.4871 -0.4929
  524MOL0     H70740   5.792   4.265   1.597  4.0295  0.9823  1.1201
  525MOL0     O70741   6.817   6.932   0.564 -0.1542  0.0679  0.0481
  525MOL0     C70742   6.893   7.018   0.608  0.5625  0.5399  0.1662
  525MOL0     O70743   7.021   7.006   0.613 -1.3948 -0.2216  0.1262
  525MOL0     C70744   7.071   6.874   0.598  0.0743  0.0305 -0.3567
  525MOL0     C70745   7.059   6.782   0.482 -0.0936  0.0720 -1.4518
  525MOL0     C70746   7.104   6.652   0.481 -0.7939  0.9484 -0.6753
  525MOL0     C70747   7.171   6.609   0.603 -0.6247 -0.2074 -0.0498
  525MOL0     O70748   7.223   6.488   0.629 -0.0498 -1.0896  0.1511
  525MOL0     C70749   7.211   6.394   0.519 -0.3224  1.1130 -0.2746
  525MOL0     C70750   7.280   6.263   0.554 -0.2524 -0.3956  0.1317
  525MOL0     C70751   7.255   6.160   0.448  0.4700 -0.6258 -0.7508
  525MOL0     C70752   7.348   6.040   0.488  0.6121  0.0909 -0.2687
  525MOL0     C70753   7.335   5.924   0.391  0.5555 -0.1877 -0.1044
  525MOL0     C70754   7.440   5.820   0.417 -0.2861  0.4725  0.2144
  525MOL0     C70755   7.435   5.713   0.302 -0.5462 -0.9007  0.5272
  525MOL0     C70756   7.518   5.588   0.314 -0.6187  0.7722 -0.1696
  525MOL0     N70757   7.466   5.494   0.417  0.3545  0.0580  0.4432
  525MOL0     C70758   7.363   5.400   0.402 -0.0928  0.8766  0.2672
  525MOL0     C70759   7.366   5.322   0.518 -0.4656  1.0430  0.3886
  525MOL0     C70760   7.284   5.204   0.564  1.0323  0.8469 -0.3600
  525MOL0     C70761   7.166   5.229   0.657 -0.7594 -0.4726  0.7031
  525MOL0     C70762   7.046   5.295   0.593  0.0786 -0.3533  0.4026
  525MOL0     C70763   6.916   5.257   0.674  0.0742 -0.6013  0.1304
  525MOL0     O70764   6.930   5.313   0.798  1.1174  0.0179  0.3818
  525MOL0     C70765   6.843   5.274   0.899  0.0828  0.2053 -0.3142
  525MOL0     C70766   6.721   5.203   0.873 -0.5083 -0.2893  0.5133
  525MOL0     C70767   6.630   5.176   0.980 -0.1725 -0.1522  0.9399
  525MOL0     C70768   6.657   5.233   1.101 -0.0694  0.1785 -0.3150
  525MOL0     C70769   6.548   5.223   1.207  0.2329 -0.4362 -0.0862
  525MOL0     O70770   6.552   5.338   1.287  0.4441  0.0232  0.2460
  525MOL0     C70771   6.437   5.375   1.350 -0.7099 -0.9623  1.4529
  525MOL0     C70772   6.369   5.489   1.311  0.2778  0.0782  0.2574
  525MOL0     C70773   6.253   5.542   1.382  0.2889  0.0866 -0.2171
  525MOL0     C70774   6.178   5.456   1.472 -0.1622 -0.1623  0.1634
  525MOL0     O70775   6.066   5.498   1.538  0.2067 -0.9262 -0.1630
  525MOL0     C70776   5.960   5.433   1.479 -0.4408 -1.1802  0.2004
  525MOL0     C70777   5.822   5.461   1.549 -0.1315 -0.2897  0.1711
  525MOL0     C70778   5.714   5.372   1.494  0.2852  0.3159  0.9423
  525MOL0     C70779   5.611   5.325   1.605  0.4812 -0.1784  0.0297
  525MOL0     C70780   5.662   5.204   1.670  0.5116 -0.0738  0.0397
  525MOL0     C70781   5.552   5.133   1.756 -0.2977  0.2053  0.5077
  525MOL0     C70782   5.629   5.016   1.825 -0.8167  0.6190 -0.3902
  525MOL0     C70783   5.525   4.924   1.870 -0.6085 -0.2250 -0.2663
  525MOL0    Cl70784   5.464   4.996   2.028  0.1818  0.0219 -0.1922
  525MOL0     C70785   6.247   5.346   1.514 -0.3589  1.2557  1.1473
  525MOL0     C70786   6.377   5.307   1.456 -0.7211  0.9315 -0.8177
  525MOL0     O70787   6.456   5.135   1.203  0.0281  0.5446 -0.1980
  525MOL0     C70788   6.772   5.308   1.130  0.3123 -0.0675 -0.5001
  525MOL0     C70789   6.868   5.310   1.035 -0.1369  0.6660 -0.4395
  525MOL0     N70790   7.466   5.371   0.596 -0.4784  0.1751  0.3768
  525MOL0     N70791   7.521   5.469   0.534 -0.0649  0.4368  0.8341
  525MOL0     C70792   7.196   6.704   0.701 -0.5392 -0.1283 -0.4379
  525MOL0     C70793   7.140   6.825   0.702  0.2672 -0.9492 -0.0967
  525MOL0     C70794   6.860   7.159   0.622 -0.6588  0.5832  0.2773
  525MOL0     C70795   6.812   7.217   0.502  1.0672 -0.1402 -0.3093
  525MOL0     C70796   6.780   7.352   0.497  0.2815 -0.2162  0.2871
  525MOL0     C70797   6.795   7.426   0.617  0.4857  0.4203 -0.3590
  525MOL0     O70798   6.752   7.555   0.616  0.1454 -0.6129 -0.2964
  525MOL0     C70799   6.777   7.647   0.729 -0.2335 -0.5900  0.1661
  525MOL0     C70800   6.718   7.783   0.701 -0.3813 -0.0382 -0.0755
  525MOL0     C70801   6.775   7.853   0.577 -0.4531 -0.3161 -0.7681
  525MOL0     C70802   6.784   8.002   0.604 -0.1843 -1.3173  0.5335
  525MOL0     C70803   6.896   8.041   0.683 -0.5543 -0.3674  0.0421
  525MOL0     C70804   7.003   8.082   0.726  0.9197 -0.2093  0.4386
  525MOL0     C70805   6.822   7.363   0.741 -0.2322 -0.2844  0.5443
  525MOL0     C70806   6.860   7.228   0.744 -0.8954 -0.5402 -0.2396
  525MOL0     C70807   6.898   7.157   0.875 -0.2080 -0.1816  0.3529
  525MOL0     H70808   7.001   6.822   0.400  1.8886  4.7615 -0.8741
  525MOL0     H70809   7.087   6.586   0.397 -0.0527  0.5593 -0.5296
  525MOL0     H70810   7.106   6.366   0.506  0.4371 -2.9434  0.9456
  525MOL0     H70811   7.257   6.448   0.435  1.9833  0.4937  0.4990
  525MOL0     H70812   7.254   6.215   0.649 -0.3172 -1.5187 -0.4401
  525MOL0     H70813   7.387   6.281   0.553 -0.1791 -0.4772 -2.9878
  525MOL0     H70814   7.280   6.184   0.344 -0.0884 -1.6308 -1.1331
  525MOL0     H70815   7.150   6.129   0.443 -0.2455  1.3428  0.8815
  525MOL0     H70816   7.451   6.075   0.499 -0.2145  2.2484  1.1320
  525MOL0     H70817   7.315   6.009   0.587  2.8452  3.0856  1.5954
  525MOL0     H70818   7.234   5.883   0.405  1.0150 -1.5148 -0.4638
  525MOL0     H70819   7.334   5.973   0.293 -1.0159  2.6626  1.2147
  525MOL0     H70820   7.539   5.866   0.421  0.6849 -1.3334 -1.4445
  525MOL0     H70821   7.400   5.780   0.510 -2.2502  1.7163 -0.0326
  525MOL0     H70822   7.459   5.757   0.205 -0.4516 -0.8640  0.5666
  525MOL0     H70823   7.333   5.674   0.299 -0.7982 -0.1844 -2.2155
  525MOL0     H70824   7.529   5.545   0.214  0.1573  2.8348 -1.0161
  525MOL0     H70825   7.624   5.604   0.337  0.2241 -0.8438 -2.5615
  525MOL0     H70826   7.290   5.384   0.323  1.1651 -0.1631 -0.7333
  525MOL0     H70827   7.242   5.167   0.469 -2.4285 -0.1010  1.3681
  525MOL0     H70828   7.334   5.124   0.618  0.3866 -0.4733 -1.6520
  525MOL0     H70829   7.130   5.139   0.706  2.0224 -1.4641  1.1036
  525MOL0     H70830   7.199   5.289   0.742  1.4195  0.4374 -0.6918
  525MOL0     H70831   7.052   5.256   0.492 -2.8010 -0.4595  0.1948
  525MOL0     H70832   7.062   5.402   0.578  2.9155 -0.3540  2.6361
  525MOL0     H70833   6.929   5.149   0.687  2.3487 -0.5094 -0.9834
  525MOL0     H70834   6.821   5.290   0.630 -0.3995 -2.0036  0.0527
  525MOL0     H70835   6.694   5.163   0.776 -1.5731 -1.7411  1.3646
  525MOL0     H70836   6.541   5.115   0.980  1.5374 -2.8592 -0.6824
  525MOL0     H70837   6.411   5.545   1.227 -1.7000  0.7756 -0.3167
  525MOL0     H70838   6.217   5.641   1.360  1.4373  0.6142  0.1758
  525MOL0     H70839   5.964   5.463   1.374 -1.3008  1.3447  0.7952
  525MOL0     H70840   5.974   5.326   1.497  2.9288 -0.9203 -0.2141
  525MOL0     H70841   5.840   5.441   1.655 -1.9188  0.3629  0.6412
  525MOL0     H70842   5.797   5.566   1.534 -2.3470 -0.8753 -0.6938
  525MOL0     H70843   5.660   5.434   1.422  0.0429  2.4496  2.8469
  525MOL0     H70844   5.760   5.284   1.447 -3.0870 -2.5355  2.6072
  525MOL0     H70845   5.507   5.319   1.570  0.1889  2.3725  0.2756
  525MOL0     H70846   5.588   5.408   1.672  0.9730  1.2201 -1.4655
  525MOL0     H70847   5.748   5.235   1.729  1.0722  0.1047 -0.8574
  525MOL0     H70848   5.697   5.134   1.594  1.1184  1.2886 -0.9665
  525MOL0     H70849   5.508   5.200   1.830  2.2466  1.5165  0.9601
  525MOL0     H70850   5.476   5.094   1.689 -1.5117  1.3196  1.1826
  525MOL0     H70851   5.687   5.057   1.909  1.2533 -2.1034 -0.3397
  525MOL0     H70852   5.700   4.964   1.760  1.0874  0.9110  1.3468
  525MOL0     H70853   5.438   4.908   1.805 -3.8712  1.1753  3.3451
  525MOL0     H70854   5.568   4.825   1.886 -1.9992 -0.7247  0.5437
  525MOL0     H70855   6.195   5.296   1.595  0.5690 -0.7852  0.5276
  525MOL0     H70856   6.419   5.212   1.490 -0.4997  1.0404 -0.7838
  525MOL0     H70857   6.785   5.347   1.231 -1.9504  0.4543 -0.3472
  525MOL0     H70858   6.960   5.366   1.051 -0.8659  1.9539 -0.6384
  525MOL0     H70859   7.256   6.676   0.787 -0.2173  0.4825 -0.4614
  525MOL0     H70860   7.156   6.907   0.771  2.7117  2.4998 -4.2349
  525MOL0     H70861   6.807   7.146   0.420  0.7889 -2.3560  1.5170
  525MOL0     H70862   6.745   7.404   0.408  0.9387  0.9484  0.6874
  525MOL0     H70863   6.882   7.670   0.748 -0.6904 -0.5755  3.1231
  525MOL0     H70864   6.739   7.614   0.826 -1.2446 -0.7181 -0.2633
  525MOL0     H70865   6.724   7.846   0.791 -0.1735 -1.3703  0.8774
  525MOL0     H70866   6.611   7.769   0.682 -1.0443 -1.0870  3.6600
  525MOL0     H70867   6.703   7.859   0.495 -0.0793  1.9574 -0.9761
  525MOL0     H70868   6.870   7.806   0.551  0.0765  0.8529 -1.0015
  525MOL0     H70869   6.811   8.048   0.508 -0.1518 -2.1351  0.1319
  525MOL0     H70870   6.691   8.050   0.635  0.1517  0.5793 -1.2098
  525MOL0     H70871   7.085   8.144   0.756  1.6657 -0.4447 -1.0049
  525MOL0     H70872   6.818   7.429   0.828 -1.5939  1.3788 -0.7257
  525MOL0     H70873   7.003   7.133   0.861 -0.0039  1.3781 -1.1262
  525MOL0     H70874   6.874   7.227   0.956 -2.1715  0.1589 -0.4566
  525MOL0     H70875   6.829   7.073   0.890  0.1991 -0.3769  1.1445
  526MOL0     O70876  10.148   0.544   1.485 -0.3535 -0.0561  0.1579
  526MOL0     C70877  10.033   0.523   1.448 -0.1404 -0.3821  0.1807
  526MOL0     O70878   9.919   0.527   1.534 -0.0821  0.1427  0.0614
  526MOL0     C70879   9.934   0.583   1.662 -0.2618  0.1700  0.0175
  526MOL0     C70880  10.022   0.523   1.758 -0.6827  0.0922  0.4331
  526MOL0     C70881  10.032   0.574   1.890  0.7204  0.2607  1.0916
  526MOL0     C70882   9.946   0.687   1.920 -0.3546  0.1199 -0.0506
  526MOL0     O70883   9.954   0.751   2.048  0.5395 -0.2034 -0.0081
  526MOL0     C70884  10.000   0.681   2.161 -0.6800  0.2547 -0.1463
  526MOL0     C70885   9.983   0.773   2.290 -0.2342 -0.6634  0.8243
  526MOL0     C70886  10.084   0.902   2.294  0.1313 -0.1774  0.0989
  526MOL0     C70887  10.219   0.871   2.345 -0.7404  0.5392 -0.8379
  526MOL0     C70888  10.313   0.985   2.314  0.4471  0.8246 -0.4352
  526MOL0     C70889  10.296   1.115   2.400 -0.1909  0.2356  0.4547
  526MOL0     C70890  10.391   1.224   2.350  0.5542 -0.0757 -0.5117
  526MOL0     C70891  10.336   1.298   2.222  0.4630  1.0515  0.1712
  526MOL0     N70892  10.431   1.365   2.145  1.2596  0.8959 -0.9481
  526MOL0     C70893  10.563   1.331   2.107  0.2006 -0.0549 -0.5312
  526MOL0     C70894  10.589   1.431   2.015  0.4001 -0.2627 -0.0342
  526MOL0     C70895  10.694   1.432   1.908 -0.3869  1.2381 -0.0929
  526MOL0     C70896  10.821   1.348   1.939  0.3353 -0.2992 -0.1058
  526MOL0     C70897  10.916   1.357   1.818 -0.6136 -0.3785  0.8851
  526MOL0     C70898  10.858   1.292   1.684  0.5732 -1.5991 -0.2951
  526MOL0     O70899  10.811   1.160   1.714 -0.2871 -0.1112 -0.4506
  526MOL0     C70900  10.712   1.117   1.625 -0.9368  0.2319 -0.2881
  526MOL0     C70901  10.584   1.136   1.655  0.6227  0.7016 -0.4779
  526MOL0     C70902  10.476   1.095   1.567 -0.3804  0.3814 -0.4489
  526MOL0     C70903  10.508   1.015   1.456 -0.5321 -0.0253  0.1472
  526MOL0     C70904  10.399   0.965   1.371 -0.4867  0.2655  0.3601
  526MOL0     O70905  10.279   1.029   1.379 -0.7877 -0.1974  0.2610
  526MOL0     C70906  10.170   0.985   1.315  0.0714  0.1322 -0.2713
  526MOL0     C70907  10.089   0.898   1.390 -0.2772  0.2933 -0.2532
  526MOL0     C70908   9.973   0.862   1.331  0.8403 -0.6788 -0.0465
  526MOL0     C70909   9.940   0.890   1.196 -0.7420  0.3499  0.0541
  526MOL0     O70910   9.821   0.852   1.149  0.0230 -0.4117 -0.1917
  526MOL0     C70911   9.828   0.709   1.113  0.1562  0.1972 -0.5041
  526MOL0     C70912   9.687   0.652   1.068 -1.3639  0.5024  0.9837
  526MOL0     C70913   9.594   0.636   1.184 -0.4123  1.2608  0.0325
  526MOL0     C70914   9.461   0.559   1.146 -0.2362  0.2639 -0.2787
  526MOL0     C70915   9.363   0.629   1.062 -0.1313  0.2166 -0.4846
  526MOL0     C70916   9.256   0.527   1.013  0.4694  0.2081 -0.5326
  526MOL0     C70917   9.163   0.600   0.909 -0.2757  0.0139 -0.0587
  526MOL0     C70918   9.023   0.559   0.916  1.1752 -0.5176  0.5023
  526MOL0    Cl70919   9.002   0.419   0.814  0.3288 -0.2459  0.2391
  526MOL0     C70920  10.020   0.983   1.127  0.5012  0.4568  0.0204
  526MOL0     C70921  10.131   1.031   1.186 -0.8564 -0.5421 -0.4807
  526MOL0     O70922  10.420   0.864   1.306  0.2598 -0.9521  0.7535
  526MOL0     C70923  10.644   0.982   1.427  0.1007 -0.8744  0.1222
  526MOL0     C70924  10.747   1.041   1.509 -0.6220  0.3136  0.4011
  526MOL0     N70925  10.484   1.526   2.012  0.1566 -0.8356 -0.0654
  526MOL0     N70926  10.394   1.491   2.102 -0.4659 -0.2887  1.0707
  526MOL0     C70927   9.869   0.744   1.819  0.1962  0.0351  0.8629
  526MOL0     C70928   9.865   0.695   1.688 -0.4204  0.2565 -0.7021
  526MOL0     C70929  10.012   0.445   1.323  0.1932 -0.8379 -0.2260
  526MOL0     C70930   9.901   0.353   1.318 -0.1760 -1.2103  0.1820
  526MOL0     C70931   9.865   0.300   1.194  0.3994  0.3481  0.6211
  526MOL0     C70932   9.956   0.321   1.091  0.2631  0.3842  0.2803
  526MOL0     O70933   9.937   0.261   0.965  0.4994 -0.5519 -0.4961
  526MOL0     C70934   9.897   0.350   0.857 -0.5666  0.3048 -0.2776
  526MOL0     C70935   9.814   0.289   0.755 -0.1094 -0.2911  0.6767
  526MOL0     C70936   9.679   0.230   0.812  0.1713 -0.1756 -0.4162
  526MOL0     C70937   9.580   0.189   0.714 -0.0308 -0.9465  0.1667
  526MOL0     C70938   9.595   0.074   0.634  0.0969  0.1796 -0.0346
  526MOL0     C70939   9.614  -0.014   0.553  0.4100  0.4207 -0.0547
  526MOL0     C70940  10.073   0.393   1.098 -0.5688 -0.3096 -1.2456
  526MOL0     C70941  10.098   0.465   1.213 -0.0213  0.0436 -0.1588
  526MOL0     C70942  10.221   0.553   1.219 -0.5952 -0.1144 -0.4486
  526MOL0     H70943  10.086   0.442   1.727 -0.5698  1.4532 -3.3352
  526MOL0     H70944  10.095   0.526   1.964  0.4116 -2.2691 -0.1983
  526MOL0     H70945   9.934   0.594   2.166  0.6204 -0.7624 -0.2609
  526MOL0     H70946  10.103   0.652   2.140 -0.6697  0.4424 -0.3613
  526MOL0     H70947  10.003   0.712   2.379 -1.0284  2.4380  3.3235
  526MOL0     H70948   9.877   0.802   2.286 -0.3517 -1.2074 -0.3354
  526MOL0     H70949  10.047   0.982   2.358  0.5464  2.2327 -2.4734
  526MOL0     H70950  10.094   0.944   2.194 -1.1220 -0.7016 -0.2656
  526MOL0     H70951  10.220   0.848   2.452 -0.4161  1.9363 -0.5191
  526MOL0     H70952  10.251   0.778   2.296  2.4887  0.6420  0.8124
  526MOL0     H70953  10.417   0.955   2.330 -0.0816 -1.3575 -0.7264
  526MOL0     H70954  10.303   1.013   2.209 -1.3210 -1.1994 -0.8923
  526MOL0     H70955  10.190   1.143   2.406 -1.0566 -1.1723 -4.2103
  526MOL0     H70956  10.327   1.089   2.502 -3.0803  1.9634  1.9111
  526MOL0     H70957  10.487   1.172   2.349  0.4951 -0.3613  2.1853
  526MOL0     H70958  10.399   1.301   2.427  0.2403 -0.5606  0.0201
  526MOL0     H70959  10.310   1.220   2.149  3.2584 -1.7221  1.8529
  526MOL0     H70960  10.251   1.365   2.237 -1.7576 -1.4231 -0.5557
  526MOL0     H70961  10.607   1.234   2.126 -0.4742 -0.7017 -2.0725
  526MOL0     H70962  10.652   1.387   1.818  1.1985  0.4234 -0.4588
  526MOL0     H70963  10.739   1.529   1.886  0.7750  0.4573 -1.2937
  526MOL0     H70964  10.864   1.401   2.025 -2.7319  0.0653  1.3289
  526MOL0     H70965  10.810   1.242   1.962  1.5012 -0.8105 -1.7093
  526MOL0     H70966  11.004   1.296   1.841 -1.1827 -1.4142  0.3831
  526MOL0     H70967  10.949   1.460   1.799  4.9060 -2.4384 -3.9656
  526MOL0     H70968  10.932   1.290   1.604 -0.2809 -0.7726 -1.1298
  526MOL0     H70969  10.779   1.354   1.640  1.8581 -1.7005 -2.9414
  526MOL0     H70970  10.537   1.181   1.742  2.3971 -0.9835  1.4749
  526MOL0     H70971  10.377   1.107   1.608 -0.4026 -1.6607  0.2077
  526MOL0     H70972  10.110   0.866   1.491 -2.8401 -5.2681 -1.0771
  526MOL0     H70973   9.889   0.814   1.379  2.0441 -1.4931  1.3416
  526MOL0     H70974   9.898   0.694   1.029  0.7942  1.5878 -0.2624
  526MOL0     H70975   9.876   0.659   1.197 -0.1548 -0.3438 -0.6477
  526MOL0     H70976   9.638   0.715   0.994 -3.0492 -0.4699  1.2266
  526MOL0     H70977   9.693   0.551   1.027 -5.1031  1.6231 -3.1101
  526MOL0     H70978   9.645   0.576   1.260 -0.5778  3.1821  1.7489
  526MOL0     H70979   9.564   0.721   1.246 -0.8425  0.7058  0.5991
  526MOL0     H70980   9.411   0.540   1.242  1.3668  0.3453  0.6163
  526MOL0     H70981   9.486   0.467   1.092 -2.4892 -3.7073  4.5354
  526MOL0     H70982   9.417   0.666   0.974 -1.1620 -0.2698 -1.3457
  526MOL0     H70983   9.308   0.715   1.101  2.4257  3.0650 -2.6004
  526MOL0     H70984   9.295   0.440   0.959 -0.2891  0.3215 -1.2963
  526MOL0     H70985   9.200   0.493   1.100  0.8812 -0.7467 -0.6274
  526MOL0     H70986   9.201   0.598   0.806 -2.5824  3.8424 -1.2114
  526MOL0     H70987   9.160   0.704   0.941 -1.9438 -0.7673  2.7019
  526MOL0     H70988   8.991   0.548   1.021  1.3035  1.5665  0.7929
  526MOL0     H70989   8.964   0.640   0.873  1.9819  0.6946  1.6150
  526MOL0     H70990   9.987   1.029   1.034 -2.9302 -0.4938  0.6117
  526MOL0     H70991  10.190   1.105   1.134  0.7564 -1.7382 -0.4451
  526MOL0     H70992  10.680   0.927   1.341 -0.2716 -0.7469 -0.1173
  526MOL0     H70993  10.849   1.021   1.477 -1.4387 -0.1348 -2.1757
  526MOL0     H70994   9.812   0.835   1.837  0.0173  0.0186  0.3954
  526MOL0     H70995   9.801   0.737   1.612  0.0187 -2.2818 -2.6502
  526MOL0     H70996   9.851   0.335   1.412  3.7392  0.6320  2.8909
  526MOL0     H70997   9.782   0.230   1.194 -3.2555  4.1406 -2.3345
  526MOL0     H70998   9.982   0.392   0.803  0.3237 -0.0699  0.7740
  526MOL0     H70999   9.847   0.435   0.902  0.4012  0.8817 -0.2618
  526MOL0     H71000   9.864   0.206   0.704 -0.9755 -0.3351 -0.1244
  526MOL0     H71001   9.798   0.373   0.687  1.1398  1.6808  2.6850
  526MOL0     H71002   9.630   0.306   0.874 -0.7979 -2.1275  1.3548
  526MOL0     H71003   9.712   0.145   0.873 -0.2292  0.4209  0.6588
  526MOL0     H71004   9.485   0.194   0.769  1.2772 -0.3110  2.5305
  526MOL0     H71005   9.569   0.271   0.643 -1.4514 -0.1757  1.2211
  526MOL0     H71006   9.647  -0.102   0.502  4.7152  0.1998  2.5622
  526MOL0     H71007  10.153   0.386   1.024  0.0126  2.7246 -1.0388
  526MOL0     H71008  10.282   0.510   1.299 -0.8218 -0.3316 -0.3919
  526MOL0     H71009  10.288   0.547   1.133 -0.3171  2.3782 -0.4722
  526MOL0     H71010  10.191   0.658   1.229 -1.7370 -0.0766 -3.2595
  527MOL0     O71011   7.133   8.312   3.566 -0.5068  0.2876 -0.7112
  527MOL0     C71012   7.099   8.429   3.566  0.0280 -0.0037 -0.8136
  527MOL0     O71013   7.020   8.493   3.659 -0.5633  0.6574 -0.3305
  527MOL0     C71014   6.963   8.412   3.760  0.1179  0.4919  0.1192
  527MOL0     C71015   6.861   8.305   3.740 -1.2699 -0.9946 -0.2338
  527MOL0     C71016   6.796   8.236   3.845 -0.4910  0.0621 -0.7468
  527MOL0     C71017   6.840   8.273   3.978  0.0116  0.3735 -0.0510
  527MOL0     O71018   6.786   8.215   4.095  0.0317  0.5431 -0.0744
  527MOL0     C71019   6.711   8.091   4.086  0.1481 -0.7236 -0.6429
  527MOL0     C71020   6.808   7.980   4.040  0.6194 -0.6719 -0.0564
  527MOL0     C71021   6.898   7.938   4.154  0.1336  0.0437  0.8269
  527MOL0     C71022   7.011   8.032   4.180  0.1079  0.5238  0.0814
  527MOL0     C71023   7.122   7.962   4.259 -0.0164  0.2095  0.2547
  527MOL0     C71024   7.238   8.055   4.299 -0.9113 -0.4491  0.0896
  527MOL0     C71025   7.300   8.118   4.170  0.2715 -0.5876 -0.5320
  527MOL0     C71026   7.443   8.193   4.205  0.6362 -0.0826  0.0002
  527MOL0     N71027   7.543   8.112   4.275 -0.2772  0.2242  0.0329
  527MOL0     C71028   7.621   8.006   4.233  0.2021  0.3922  0.2419
  527MOL0     C71029   7.702   7.977   4.337  0.3492 -0.2689 -1.0257
  527MOL0     C71030   7.788   7.858   4.333 -0.5059  0.2437 -0.0296
  527MOL0     C71031   7.933   7.890   4.306  0.7942  0.4424  0.1902
  527MOL0     C71032   8.019   7.764   4.305  0.3430 -0.2361 -0.3555
  527MOL0     C71033   8.159   7.807   4.296 -1.1620 -0.2897 -0.7787
  527MOL0     O71034   8.263   7.704   4.297  0.0415 -0.3803 -0.2258
  527MOL0     C71035   8.336   7.672   4.187  0.2706  0.8426  0.9704
  527MOL0     C71036   8.307   7.711   4.055  0.2230  0.1570  0.3351
  527MOL0     C71037   8.388   7.665   3.954 -0.2163  0.4487  0.0864
  527MOL0     C71038   8.499   7.583   3.975  0.1021 -0.3650  0.2838
  527MOL0     C71039   8.593   7.536   3.872  0.5503 -0.4631 -1.1538
  527MOL0     O71040   8.711   7.461   3.908 -0.0378 -0.4113 -0.0009
  527MOL0     C71041   8.772   7.388   3.810 -0.7382 -0.2247  0.0150
  527MOL0     C71042   8.822   7.262   3.848 -0.6757  1.0223  0.4866
  527MOL0     C71043   8.907   7.185   3.774  0.0235 -0.2810 -1.3565
  527MOL0     C71044   8.945   7.238   3.648  0.5861  0.7413  1.0019
  527MOL0     O71045   9.038   7.161   3.583  0.4057  0.6245  0.0065
  527MOL0     C71046   9.026   7.150   3.442  0.8903  0.2472 -0.8325
  527MOL0     C71047   9.132   7.059   3.379  0.5575  0.6821  0.6130
  527MOL0     C71048   9.105   6.916   3.411  0.7990  0.2803 -0.5143
  527MOL0     C71049   9.167   6.817   3.318 -0.9070  0.5687 -0.1778
  527MOL0     C71050   9.081   6.808   3.191  0.2202  0.5141  0.3382
  527MOL0     C71051   9.131   6.695   3.090 -0.0332 -0.2527 -0.3988
  527MOL0     C71052   9.056   6.699   2.960 -0.1936 -0.5786  0.7564
  527MOL0     C71053   9.106   6.588   2.862  0.0295  0.5697 -0.7628
  527MOL0    Cl71054   9.065   6.598   2.688  0.0457 -0.0164  0.4291
  527MOL0     C71055   8.888   7.355   3.596 -0.6804 -0.1775 -0.3408
  527MOL0     C71056   8.813   7.439   3.682 -0.0139 -0.3639  0.3508
  527MOL0     O71057   8.541   7.545   3.765 -0.0102  0.1372  0.3360
  527MOL0     C71058   8.522   7.538   4.102  0.0151 -0.0234 -0.4403
  527MOL0     C71059   8.447   7.585   4.208  0.3458 -0.5051 -0.3653
  527MOL0     N71060   7.687   8.068   4.435  0.1560  0.3576 -0.6322
  527MOL0     N71061   7.590   8.145   4.398 -0.0634  0.4044 -0.3813
  527MOL0     C71062   6.943   8.366   4.007  0.0728 -0.1657  0.8453
  527MOL0     C71063   7.002   8.422   3.898 -0.6036 -0.1008 -0.0516
  527MOL0     C71064   7.156   8.526   3.471  0.1114 -0.5023  0.1900
  527MOL0     C71065   7.168   8.654   3.514 -0.2311 -1.2972  0.3045
  527MOL0     C71066   7.196   8.759   3.420  0.3630 -0.2361  0.0066
  527MOL0     C71067   7.232   8.729   3.284 -0.0546  0.3866  0.0396
  527MOL0     O71068   7.284   8.815   3.195  0.1524  0.1538 -0.3068
  527MOL0     C71069   7.398   8.892   3.239 -0.5837 -0.7309 -0.8954
  527MOL0     C71070   7.464   8.982   3.129 -0.0794 -1.2665 -0.1174
  527MOL0     C71071   7.370   9.088   3.088  0.7883 -1.1895  0.2207
  527MOL0     C71072   7.411   9.160   2.965 -0.3768 -1.1534 -0.1141
  527MOL0     C71073   7.526   9.252   2.976 -0.1025 -0.2738  0.7131
  527MOL0     C71074   7.617   9.341   2.968  0.8268 -0.0577  0.1212
  527MOL0     C71075   7.215   8.594   3.243  0.3722 -1.0361 -0.0455
  527MOL0     C71076   7.182   8.496   3.332  1.0862  0.1788 -0.1993
  527MOL0     C71077   7.148   8.359   3.278  0.5685  0.7498 -0.3092
  527MOL0     H71078   6.835   8.268   3.642 -2.2701 -3.0559  0.7629
  527MOL0     H71079   6.737   8.157   3.800 -1.0863  2.8790 -5.5557
  527MOL0     H71080   6.663   8.074   4.182  0.8998 -0.6906 -0.2507
  527MOL0     H71081   6.615   8.098   4.034 -0.9414 -3.6048  0.7885
  527MOL0     H71082   6.873   8.017   3.960  1.9936  3.0196  2.4602
  527MOL0     H71083   6.738   7.898   4.021 -0.1229 -0.4389  1.5193
  527MOL0     H71084   6.945   7.843   4.124  2.3023  1.3739 -0.2899
  527MOL0     H71085   6.840   7.912   4.242 -1.3241 -1.7548 -0.5691
  527MOL0     H71086   7.043   8.071   4.083  2.5823  1.4435  1.1909
  527MOL0     H71087   6.966   8.119   4.230 -3.0153 -1.7964  1.6519
  527MOL0     H71088   7.084   7.909   4.347  1.6278 -2.0652 -0.3269
  527MOL0     H71089   7.167   7.882   4.199 -0.2372 -0.6626  1.2167
  527MOL0     H71090   7.201   8.126   4.374  0.0849 -1.0093  1.1350
  527MOL0     H71091   7.316   7.994   4.345  2.4733  0.3111 -4.0000
  527MOL0     H71092   7.234   8.184   4.114  0.7265 -1.9823 -2.8266
  527MOL0     H71093   7.324   8.032   4.107 -0.5973 -0.5613 -0.9123
  527MOL0     H71094   7.481   8.224   4.107  0.7615 -0.3955 -0.0535
  527MOL0     H71095   7.409   8.273   4.271 -0.6048  1.8060 -2.7358
  527MOL0     H71096   7.623   7.948   4.141 -0.3982  1.2297 -0.3200
  527MOL0     H71097   7.784   7.804   4.429  1.4686 -0.2900 -0.1960
  527MOL0     H71098   7.752   7.790   4.256 -2.2738  2.3588 -1.1725
  527MOL0     H71099   7.941   7.934   4.206  3.0259 -1.8849 -0.7740
  527MOL0     H71100   7.966   7.957   4.386  0.1988  0.5148  0.3773
  527MOL0     H71101   7.999   7.717   4.209 -0.7950  1.4870 -0.9974
  527MOL0     H71102   8.006   7.695   4.390 -0.1249  0.5266  0.1986
  527MOL0     H71103   8.176   7.836   4.401 -0.0135 -2.7578 -0.2009
  527MOL0     H71104   8.173   7.886   4.222  2.1348  0.5639  0.5283
  527MOL0     H71105   8.230   7.779   4.019  0.0439 -1.1568 -1.9197
  527MOL0     H71106   8.364   7.713   3.859  0.5640  0.2730 -0.2017
  527MOL0     H71107   8.803   7.223   3.948 -1.1233  1.9653  0.7785
  527MOL0     H71108   8.938   7.092   3.822 -1.8813  0.7574  2.2362
  527MOL0     H71109   8.926   7.106   3.433  0.2362  1.4877  0.0329
  527MOL0     H71110   9.021   7.242   3.383 -0.8181  0.4825 -0.3659
  527MOL0     H71111   9.124   7.079   3.272  1.6661  1.4030  0.6481
  527MOL0     H71112   9.234   7.080   3.413  1.0300 -0.3355 -0.1105
  527MOL0     H71113   9.134   6.917   3.517  0.4718  1.0016 -0.4190
  527MOL0     H71114   8.996   6.902   3.406 -0.0898  4.5801  1.7180
  527MOL0     H71115   9.175   6.720   3.368 -0.0220  1.3043  1.1486
  527MOL0     H71116   9.270   6.845   3.296 -0.2256  0.5520  2.6535
  527MOL0     H71117   9.078   6.904   3.137 -0.2516  0.6252  0.5591
  527MOL0     H71118   8.976   6.780   3.202 -0.7825  1.9531 -3.6946
  527MOL0     H71119   9.238   6.709   3.071 -0.3235  0.9607 -1.3144
  527MOL0     H71120   9.123   6.598   3.139  0.2891 -0.0330  0.0974
  527MOL0     H71121   9.074   6.797   2.917  0.5413 -1.9470 -2.3087
  527MOL0     H71122   8.949   6.687   2.975 -0.2014 -2.7799 -0.5997
  527MOL0     H71123   9.214   6.571   2.870  0.0144  0.9763  0.4236
  527MOL0     H71124   9.053   6.501   2.902  2.6698 -0.5877  0.5094
  527MOL0     H71125   8.920   7.393   3.499  0.9801  1.8957  0.9454
  527MOL0     H71126   8.776   7.539   3.662  2.2228  1.2149  3.2546
  527MOL0     H71127   8.606   7.475   4.130 -2.6688 -3.6469  0.1843
  527MOL0     H71128   8.460   7.559   4.313  0.1824 -0.0110 -0.2221
  527MOL0     H71129   6.970   8.414   4.100  0.9235  1.2203 -0.0812
  527MOL0     H71130   7.090   8.477   3.929 -1.7406 -0.6378  4.9822
  527MOL0     H71131   7.167   8.693   3.615  3.8992 -0.2485  0.1463
  527MOL0     H71132   7.208   8.861   3.454 -2.5453  0.4028 -0.6192
  527MOL0     H71133   7.480   8.833   3.283 -1.6589 -1.5767  0.0208
  527MOL0     H71134   7.358   8.950   3.323  0.3918 -0.5597 -0.5333
  527MOL0     H71135   7.500   8.928   3.041 -0.7093 -1.3631 -0.3254
  527MOL0     H71136   7.546   9.033   3.181 -0.1574 -1.0506 -0.2055
  527MOL0     H71137   7.359   9.172   3.158 -1.6888 -2.8525  1.9855
  527MOL0     H71138   7.268   9.050   3.076 -1.8462  4.5937  0.7805
  527MOL0     H71139   7.425   9.089   2.883  0.1536  0.5015 -1.5482
  527MOL0     H71140   7.326   9.218   2.926 -0.1450 -0.6120  0.1731
  527MOL0     H71141   7.688   9.421   2.960  0.2282  0.2974 -1.9765
  527MOL0     H71142   7.202   8.582   3.136 -3.6230 -0.2037  0.1942
  527MOL0     H71143   7.046   8.321   3.276  0.5747  0.7393 -0.4255
  527MOL0     H71144   7.172   8.353   3.171 -1.7838  2.6067 -1.0310
  527MOL0     H71145   7.212   8.288   3.332 -0.1348  0.1183 -0.2962
  528MOL0     O71146   4.784   4.514   9.769  0.6753 -0.9487  0.9338
  528MOL0     C71147   4.699   4.471   9.692  0.0327 -0.3277 -0.0336
  528MOL0     O71148   4.631   4.351   9.702  0.5006  0.5650  0.3291
  528MOL0     C71149   4.673   4.264   9.798  0.0627  0.4935  0.3659
  528MOL0     C71150   4.798   4.192   9.785  0.2833 -0.3232  0.3758
  528MOL0     C71151   4.836   4.101   9.882  0.3591  0.0071 -0.5668
  528MOL0     C71152   4.764   4.082  10.002 -0.6227 -1.1133 -0.2856
  528MOL0     O71153   4.805   3.997  10.107 -0.0399  0.0581  0.6919
  528MOL0     C71154   4.928   3.926  10.101 -0.0228  0.1404 -0.0907
  528MOL0     C71155   4.958   3.861  10.234  0.1085  0.5569 -0.1725
  528MOL0     C71156   5.093   3.790  10.230 -0.7639  0.2983 -1.0502
  528MOL0     C71157   5.141   3.732  10.368 -1.1006 -1.2505  0.0982
  528MOL0     C71158   5.280   3.665  10.360 -0.4408  0.3058 -0.4743
  528MOL0     C71159   5.290   3.570  10.483 -0.8969 -0.3705 -0.2281
  528MOL0     C71160   5.421   3.479  10.474  0.2349  0.1030  0.3183
  528MOL0     C71161   5.448   3.398  10.349  0.2089 -0.2871  0.5531
  528MOL0     N71162   5.357   3.280  10.351  0.5894  0.7117  0.0006
  528MOL0     C71163   5.368   3.163  10.419  0.5832 -0.4098  0.2430
  528MOL0     C71164   5.262   3.083  10.380  0.9936  0.3360 -0.6600
  528MOL0     C71165   5.233   2.942  10.435 -0.8051  0.2870 -0.3299
  528MOL0     C71166   5.179   2.970  10.573  0.3121  0.6580  0.4812
  528MOL0     C71167   5.140   2.836  10.641 -0.1655 -0.1187 -0.2601
  528MOL0     C71168   5.016   2.770  10.586  0.3500  0.1331 -0.1486
  528MOL0     O71169   4.897   2.852  10.566 -0.3572 -0.0274 -1.2168
  528MOL0     C71170   4.776   2.798  10.532 -0.4674 -0.4479  0.5756
  528MOL0     C71171   4.664   2.882  10.531 -0.5736  0.0245  0.3383
  528MOL0     C71172   4.540   2.835  10.503  0.0766 -0.3451 -0.6635
  528MOL0     C71173   4.519   2.701  10.473  0.1693 -0.2032 -0.2684
  528MOL0     C71174   4.385   2.647  10.418  0.5750 -0.1579  0.8264
  528MOL0     O71175   4.399   2.536  10.343 -0.4206  0.1030  0.1976
  528MOL0     C71176   4.288   2.473  10.279 -0.6297 -0.9065 -0.0692
  528MOL0     C71177   4.322   2.365  10.197 -0.0984 -0.1501  0.2442
  528MOL0     C71178   4.229   2.292  10.113  0.1478  0.6713 -0.1738
  528MOL0     C71179   4.091   2.313  10.142 -0.3109  0.6751  0.0691
  528MOL0     O71180   3.980   2.255  10.083  0.4758  0.4130 -0.8872
  528MOL0     C71181   3.994   2.163   9.971 -0.2012  0.5411  0.0870
  528MOL0     C71182   3.853   2.107   9.955 -0.4346  0.8234  0.2408
  528MOL0     C71183   3.856   1.971   9.878  0.3292  0.6354  0.2403
  528MOL0     C71184   3.720   1.907   9.885  0.6404  0.5666  0.1749
  528MOL0     C71185   3.738   1.761   9.825  0.0491  0.0101 -1.6754
  528MOL0     C71186   3.610   1.690   9.823  0.8335 -1.2935 -0.3646
  528MOL0     C71187   3.629   1.553   9.754  0.9555  0.3341  0.2200
  528MOL0     C71188   3.493   1.479   9.747  0.0345 -0.4906  0.9907
  528MOL0    Cl71189   3.399   1.556   9.614 -0.0668  0.0090  0.7451
  528MOL0     C71190   4.054   2.409  10.233 -0.7331 -0.6102 -0.0852
  528MOL0     C71191   4.148   2.490  10.307  0.0910  0.8828 -0.0584
  528MOL0     O71192   4.284   2.716  10.423  0.4604 -0.5393 -0.1802
  528MOL0     C71193   4.628   2.612  10.475 -0.2419  0.2213 -0.1604
  528MOL0     C71194   4.752   2.658  10.492  0.3484 -1.0461 -1.0252
  528MOL0     N71195   5.187   3.152  10.286 -0.3898 -0.5764  0.7935
  528MOL0     N71196   5.251   3.257  10.259  0.2643  0.3955 -0.1005
  528MOL0     C71197   4.647   4.157  10.014 -0.2012  0.2161 -0.6481
  528MOL0     C71198   4.597   4.253   9.918 -0.3657  0.0701  0.0588
  528MOL0     C71199   4.657   4.553   9.578  0.6609 -0.9358 -0.1523
  528MOL0     C71200   4.764   4.577   9.486  0.2314 -0.3556  0.3647
  528MOL0     C71201   4.738   4.649   9.368 -0.4084 -0.4206 -0.2048
  528MOL0     C71202   4.611   4.676   9.329  0.5442  0.0040 -0.4651
  528MOL0     O71203   4.567   4.728   9.211  0.5084 -0.1743 -0.0538
  528MOL0     C71204   4.630   4.852   9.158  0.4029 -0.6239 -0.8044
  528MOL0     C71205   4.687   4.799   9.025 -0.4541 -0.2538  0.4513
  528MOL0     C71206   4.584   4.743   8.926  0.1319  0.3943  0.0626
  528MOL0     C71207   4.465   4.828   8.877  0.1214 -0.1263 -0.3265
  528MOL0     C71208   4.362   4.855   8.972 -0.2763  0.9467 -0.9119
  528MOL0     C71209   4.272   4.864   9.050  0.1342 -0.1738 -0.2390
  528MOL0     C71210   4.507   4.653   9.420 -0.0255 -0.3554 -0.8565
  528MOL0     C71211   4.531   4.600   9.548 -0.5970 -0.8397  0.0338
  528MOL0     C71212   4.412   4.569   9.641  0.2842  0.1284 -0.8776
  528MOL0     H71213   4.850   4.206   9.691 -1.9488  1.7632 -0.6450
  528MOL0     H71214   4.920   4.035   9.869  2.9689  1.9650  3.9182
  528MOL0     H71215   4.925   3.846  10.026 -0.2843 -0.4509  0.5353
  528MOL0     H71216   5.012   3.993  10.084  2.8933 -2.9453  0.9555
  528MOL0     H71217   4.886   3.784  10.261 -0.3471  0.9779 -0.1723
  528MOL0     H71218   4.942   3.930  10.317 -4.3355  2.8764 -2.5975
  528MOL0     H71219   5.172   3.857  10.196  0.3722 -0.5040 -0.1031
  528MOL0     H71220   5.084   3.698  10.171  0.5684  0.4564 -1.5228
  528MOL0     H71221   5.148   3.807  10.448  5.4617 -1.3297  0.1705
  528MOL0     H71222   5.076   3.651  10.402 -0.4386 -1.4915  0.8226
  528MOL0     H71223   5.296   3.607  10.269  1.4819 -0.6753  0.4048
  528MOL0     H71224   5.358   3.742  10.361  0.5445 -0.6578  0.6550
  528MOL0     H71225   5.289   3.623  10.579 -6.5350  1.3145 -0.8889
  528MOL0     H71226   5.211   3.495  10.492  2.1740 -3.9057 -0.0661
  528MOL0     H71227   5.406   3.418  10.563 -0.3751  0.8410  0.7389
  528MOL0     H71228   5.508   3.544  10.488 -0.3947  1.1172 -0.3123
  528MOL0     H71229   5.433   3.457  10.258 -0.9203 -2.2351 -0.5970
  528MOL0     H71230   5.552   3.367  10.340 -0.2756 -1.3396 -4.4456
  528MOL0     H71231   5.438   3.149  10.501 -2.5928 -0.7416  3.1378
  528MOL0     H71232   5.161   2.884  10.375 -0.7226  2.1957 -2.3768
  528MOL0     H71233   5.326   2.886  10.443 -0.0653  1.5729  0.3566
  528MOL0     H71234   5.260   3.021  10.626 -2.7645  4.6732  1.8667
  528MOL0     H71235   5.094   3.039  10.581 -3.2709 -3.5680  2.9834
  528MOL0     H71236   5.120   2.857  10.746 -0.6614 -1.5549 -0.0519
  528MOL0     H71237   5.226   2.768  10.643 -0.2572 -0.2238  1.3422
  528MOL0     H71238   4.988   2.692  10.658  1.7779 -0.3353 -0.0788
  528MOL0     H71239   5.038   2.716  10.493  0.4171 -0.5134  0.2403
  528MOL0     H71240   4.661   2.990  10.547 -4.8441  0.6927 -3.1933
  528MOL0     H71241   4.452   2.898  10.499  1.3476  1.4767 -1.6383
  528MOL0     H71242   4.430   2.351  10.192 -0.0956  0.2158 -1.2131
  528MOL0     H71243   4.248   2.214  10.041 -0.1081 -0.1734  0.6537
  528MOL0     H71244   4.027   2.212   9.879 -1.8270  1.3863 -0.0790
  528MOL0     H71245   4.065   2.085  10.001 -0.7186 -0.2523 -0.7239
  528MOL0     H71246   3.801   2.097  10.050 -1.9040 -0.9383 -0.6746
  528MOL0     H71247   3.794   2.170   9.888 -0.8345 -1.1608 -1.4045
  528MOL0     H71248   3.886   1.977   9.773  0.3974  0.7246  0.2653
  528MOL0     H71249   3.932   1.908   9.924  2.4864  3.1493  0.3211
  528MOL0     H71250   3.643   1.966   9.835  1.4331  0.1825 -1.5791
  528MOL0     H71251   3.698   1.900   9.992  2.0678 -0.5002  0.4375
  528MOL0     H71252   3.809   1.714   9.893 -0.4547  0.1264 -1.0517
  528MOL0     H71253   3.780   1.763   9.724 -1.7075 -4.1385 -2.7088
  528MOL0     H71254   3.568   1.691   9.924 -0.4917  2.7158 -0.7402
  528MOL0     H71255   3.541   1.755   9.768  0.6894 -0.6132  0.5890
  528MOL0     H71256   3.699   1.490   9.810  1.2304  0.2846 -0.1731
  528MOL0     H71257   3.668   1.564   9.652  2.0626  0.8064  0.6801
  528MOL0     H71258   3.505   1.374   9.716  3.0111  0.2231 -0.7812
  528MOL0     H71259   3.438   1.476   9.841 -3.7184 -3.1662 -1.0197
  528MOL0     H71260   3.946   2.416  10.244 -0.6648 -0.1019  0.3224
  528MOL0     H71261   4.115   2.572  10.370 -3.8417  1.1362 -2.1162
  528MOL0     H71262   4.624   2.508  10.447 -0.8490 -0.3096  1.7510
  528MOL0     H71263   4.834   2.588  10.487  1.0588 -0.6905  2.5837
  528MOL0     H71264   4.593   4.144  10.108  1.9612 -0.0542  0.6207
  528MOL0     H71265   4.501   4.301   9.931 -0.8094 -0.1369 -2.0122
  528MOL0     H71266   4.866   4.544   9.505  1.2886  2.3064 -0.3209
  528MOL0     H71267   4.821   4.686   9.308 -1.3091  1.6880 -0.2142
  528MOL0     H71268   4.704   4.898   9.223 -0.3162 -0.2049 -0.2615
  528MOL0     H71269   4.556   4.931   9.143  0.5525 -0.4226 -0.4818
  528MOL0     H71270   4.751   4.715   9.052  1.4994  1.3281  0.9729
  528MOL0     H71271   4.749   4.871   8.972  1.2150 -2.1159 -0.2177
  528MOL0     H71272   4.546   4.650   8.969 -0.0557 -0.0366 -1.0082
  528MOL0     H71273   4.637   4.717   8.834 -0.3641 -2.3794  0.4636
  528MOL0     H71274   4.509   4.921   8.840 -0.8667  1.2077  1.6923
  528MOL0     H71275   4.412   4.766   8.804 -2.8574  0.7507  0.9348
  528MOL0     H71276   4.199   4.863   9.129  0.5592 -0.1514  0.1585
  528MOL0     H71277   4.405   4.678   9.392 -1.3936 -0.4533  3.3249
  528MOL0     H71278   4.391   4.463   9.653 -0.8209  0.4976  0.6108
  528MOL0     H71279   4.424   4.622   9.735  2.2118 -1.9274  0.1326
  528MOL0     H71280   4.319   4.603   9.594 -2.2762 -1.6477  2.4948
  529MOL0     O71281   1.872   8.081   6.407 -0.5937 -1.2884 -0.4414
  529MOL0     C71282   1.872   7.972   6.351 -0.4176 -0.1637 -0.0726
  529MOL0     O71283   1.972   7.885   6.327  0.2640  0.0668 -0.1019
  529MOL0     C71284   2.090   7.928   6.374  0.0802 -0.2166  0.5156
  529MOL0     C71285   2.147   8.044   6.317 -0.7326 -0.0682 -0.9702
  529MOL0     C71286   2.269   8.087   6.374  0.6949 -0.3192 -0.1677
  529MOL0     C71287   2.320   8.040   6.497 -1.2686 -0.3022 -1.4880
  529MOL0     O71288   2.422   8.116   6.543 -0.9527 -0.3750  0.1569
  529MOL0     C71289   2.508   8.081   6.654  0.3138  0.0383 -0.9243
  529MOL0     C71290   2.635   8.141   6.599 -0.0868  0.3757 -0.0734
  529MOL0     C71291   2.695   8.057   6.483 -0.8136  0.0756  0.1131
  529MOL0     C71292   2.833   8.109   6.424 -0.4405  0.3330 -0.3733
  529MOL0     C71293   2.888   8.001   6.330 -0.1988 -0.0667 -0.8472
  529MOL0     C71294   2.987   8.069   6.216  1.3469  0.2894  0.0179
  529MOL0     C71295   3.078   7.980   6.138  0.1185  0.5854  0.0073
  529MOL0     C71296   3.027   7.849   6.073 -0.0393 -0.3306  0.1257
  529MOL0     N71297   3.137   7.755   6.028  0.6019  0.0576  0.0140
  529MOL0     C71298   3.229   7.682   6.108 -0.2512 -0.4868  0.2803
  529MOL0     C71299   3.291   7.607   6.016 -0.4487  0.4440  0.1639
  529MOL0     C71300   3.390   7.491   6.036  0.0348 -0.2305 -0.3178
  529MOL0     C71301   3.322   7.376   6.110  0.6184  0.9313  0.6863
  529MOL0     C71302   3.198   7.339   6.029  0.7750 -0.1622  0.7118
  529MOL0     C71303   3.129   7.208   6.070  0.0986 -0.2337  0.0621
  529MOL0     O71304   3.110   7.198   6.209  0.8147 -0.3988 -1.0269
  529MOL0     C71305   3.032   7.099   6.256  0.1149  0.2481 -0.9988
  529MOL0     C71306   3.026   6.972   6.204  0.7915  0.7940  0.3100
  529MOL0     C71307   2.946   6.872   6.265 -0.8246  0.4435 -0.4415
  529MOL0     C71308   2.888   6.898   6.387  0.5183 -0.0487 -0.5300
  529MOL0     C71309   2.795   6.798   6.440 -0.6389 -0.4880  0.0169
  529MOL0     O71310   2.747   6.718   6.348 -0.0162  0.7450  0.0330
  529MOL0     C71311   2.634   6.642   6.356 -0.5666 -0.0479  0.2355
  529MOL0     C71312   2.611   6.540   6.258 -0.4420 -0.3026 -0.2599
  529MOL0     C71313   2.511   6.439   6.272 -1.3964  0.2967  0.0344
  529MOL0     C71314   2.425   6.446   6.374 -0.1709 -0.7287 -0.6060
  529MOL0     O71315   2.325   6.348   6.386 -0.6990  0.2574  0.1803
  529MOL0     C71316   2.216   6.359   6.467 -0.7867  0.7442 -0.7301
  529MOL0     C71317   2.124   6.238   6.444 -0.3312 -0.2308  1.0605
  529MOL0     C71318   2.046   6.231   6.306  0.8814 -0.4215 -0.1607
  529MOL0     C71319   1.918   6.310   6.316  0.3888  0.4530 -0.1362
  529MOL0     C71320   1.803   6.217   6.379 -1.2393 -0.3490 -0.0188
  529MOL0     C71321   1.667   6.292   6.361 -0.4655 -0.3428  0.0921
  529MOL0     C71322   1.571   6.259   6.467  0.0509  1.3706  0.1298
  529MOL0     C71323   1.433   6.320   6.430  0.1326  0.3326 -0.3076
  529MOL0    Cl71324   1.360   6.217   6.310  0.0937  0.3056 -0.2669
  529MOL0     C71325   2.435   6.551   6.469 -0.0315  0.9133  0.0856
  529MOL0     C71326   2.535   6.647   6.462  0.3913  0.4556 -0.5586
  529MOL0     O71327   2.765   6.809   6.555 -0.3395  0.1913 -0.4875
  529MOL0     C71328   2.904   7.022   6.450 -0.3935  0.4037 -0.5941
  529MOL0     C71329   2.982   7.121   6.387 -0.2355  0.1840 -0.1329
  529MOL0     N71330   3.252   7.635   5.889 -0.6095 -0.2426  0.2410
  529MOL0     N71331   3.163   7.728   5.895  0.1869  0.2595 -0.1478
  529MOL0     C71332   2.259   7.928   6.554  0.6761  0.5916 -0.3028
  529MOL0     C71333   2.150   7.871   6.489 -0.3603 -0.5183 -0.1706
  529MOL0     C71334   1.747   7.938   6.281 -0.6002 -0.8059  0.1763
  529MOL0     C71335   1.703   7.806   6.284  0.7986 -0.0348 -0.1540
  529MOL0     C71336   1.592   7.773   6.214  0.5302 -0.0635  0.8514
  529MOL0     C71337   1.527   7.870   6.134 -0.1165  0.1080  0.1015
  529MOL0     O71338   1.416   7.855   6.047 -0.4181  0.0810 -0.4266
  529MOL0     C71339   1.367   7.717   6.041 -0.0676 -0.1095  0.6976
  529MOL0     C71340   1.243   7.700   5.955 -0.2548 -0.2347  0.7284
  529MOL0     C71341   1.285   7.708   5.803  0.6506  0.1712 -0.7109
  529MOL0     C71342   1.319   7.856   5.760  0.7482 -0.0479 -0.5363
  529MOL0     C71343   1.359   7.851   5.614 -0.6167  0.8870 -0.8538
  529MOL0     C71344   1.380   7.834   5.495 -0.2599  0.5228 -1.1009
  529MOL0     C71345   1.566   7.999   6.137  0.6531  0.3622  0.1400
  529MOL0     C71346   1.677   8.038   6.208 -0.4789  0.2920  0.0796
  529MOL0     C71347   1.718   8.178   6.191 -0.5571 -0.2715  0.4638
  529MOL0     H71348   2.097   8.096   6.236 -0.0968 -3.2347 -3.6222
  529MOL0     H71349   2.310   8.185   6.351 -1.1087  1.0515  1.9985
  529MOL0     H71350   2.475   8.124   6.749  2.8231 -0.4217  0.2475
  529MOL0     H71351   2.526   7.974   6.671  3.3681  0.6541  0.3129
  529MOL0     H71352   2.695   8.156   6.689  0.9728 -1.5391 -0.3963
  529MOL0     H71353   2.614   8.234   6.546 -0.4084  1.4923  1.9149
  529MOL0     H71354   2.629   8.047   6.396  0.2128 -1.7565 -0.5225
  529MOL0     H71355   2.724   7.955   6.508  0.6475  0.6314  0.8026
  529MOL0     H71356   2.824   8.201   6.366  0.5947 -1.2653 -3.3013
  529MOL0     H71357   2.886   8.126   6.519 -0.2216 -1.2479 -0.1889
  529MOL0     H71358   2.937   7.923   6.390 -0.3154 -2.1380 -3.2962
  529MOL0     H71359   2.801   7.956   6.282 -0.4086  0.3674 -0.8794
  529MOL0     H71360   2.930   8.128   6.143 -1.1937 -0.6789  1.1050
  529MOL0     H71361   3.065   8.125   6.268  3.2141 -0.6945 -1.5651
  529MOL0     H71362   3.161   7.949   6.202 -1.5347 -1.8921  1.0892
  529MOL0     H71363   3.125   8.041   6.060  3.0495 -1.6362 -0.1554
  529MOL0     H71364   2.980   7.797   6.157  1.8022 -2.0946  0.1483
  529MOL0     H71365   2.956   7.876   5.994 -0.3353  1.9304  1.0888
  529MOL0     H71366   3.241   7.683   6.216  4.6384 -1.5108 -0.0027
  529MOL0     H71367   3.421   7.459   5.936  0.5096  2.3693 -1.0698
  529MOL0     H71368   3.478   7.520   6.094  0.0989 -0.3904 -0.3351
  529MOL0     H71369   3.391   7.291   6.103 -0.4265 -0.5274  5.1216
  529MOL0     H71370   3.297   7.389   6.215  2.1094  0.6384  1.0980
  529MOL0     H71371   3.222   7.333   5.922 -2.9266 -1.1864 -0.2033
  529MOL0     H71372   3.116   7.412   6.032 -0.1892 -1.2612  2.5631
  529MOL0     H71373   3.187   7.118   6.046  2.3754  0.8438  1.0932
  529MOL0     H71374   3.037   7.196   6.013  1.9851  2.5496 -4.0376
  529MOL0     H71375   3.072   6.952   6.108  3.3848 -0.6580  1.7790
  529MOL0     H71376   2.939   6.782   6.205 -2.8155  0.2979 -0.0863
  529MOL0     H71377   2.677   6.546   6.172 -0.0427 -0.1687  0.0487
  529MOL0     H71378   2.505   6.363   6.195 -1.1252  0.3516 -0.0408
  529MOL0     H71379   2.242   6.362   6.573  0.2545 -2.0095 -0.8416
  529MOL0     H71380   2.166   6.456   6.453  0.8001  1.5556 -1.0202
  529MOL0     H71381   2.191   6.152   6.451 -0.8211 -0.6250  0.9483
  529MOL0     H71382   2.055   6.233   6.529 -0.4414 -2.0655  0.9118
  529MOL0     H71383   2.103   6.277   6.225 -0.5960 -1.5102 -1.8938
  529MOL0     H71384   2.017   6.126   6.298 -1.6013  0.0350  1.5096
  529MOL0     H71385   1.890   6.340   6.214  1.1022  1.6610  0.0015
  529MOL0     H71386   1.927   6.402   6.374 -0.8522  0.8734 -0.5647
  529MOL0     H71387   1.825   6.200   6.485 -1.6936 -2.5601 -0.2346
  529MOL0     H71388   1.792   6.116   6.340 -0.4373 -2.3269  4.2816
  529MOL0     H71389   1.693   6.397   6.372 -2.7555  0.7748 -3.4438
  529MOL0     H71390   1.632   6.286   6.258  0.5852 -1.1176 -0.2406
  529MOL0     H71391   1.603   6.289   6.567  0.8209 -0.1108  0.3614
  529MOL0     H71392   1.569   6.150   6.474  1.8147  1.1842 -1.4008
  529MOL0     H71393   1.390   6.326   6.531  0.6638 -2.3440  0.1732
  529MOL0     H71394   1.439   6.414   6.376 -2.6820 -0.3115 -1.9344
  529MOL0     H71395   2.356   6.560   6.543 -0.5222 -0.9052 -0.1818
  529MOL0     H71396   2.535   6.724   6.539 -2.3592  2.8531 -2.7325
  529MOL0     H71397   2.868   7.047   6.550 -0.0489 -1.7668  0.1205
  529MOL0     H71398   3.019   7.210   6.435  2.1045 -0.6983 -0.1771
  529MOL0     H71399   2.290   7.902   6.655  1.2299  0.4982 -0.4903
  529MOL0     H71400   2.090   7.790   6.530  0.8409 -2.3575 -1.9208
  529MOL0     H71401   1.766   7.734   6.335 -0.0215 -0.4979  0.2140
  529MOL0     H71402   1.543   7.677   6.219 -0.4943  0.4524  0.9333
  529MOL0     H71403   1.337   7.701   6.145  0.8745  2.0589  1.3622
  529MOL0     H71404   1.448   7.651   6.010 -0.0437  1.1276 -2.2637
  529MOL0     H71405   1.175   7.785   5.968  1.8222  1.5405  0.5858
  529MOL0     H71406   1.202   7.604   5.987 -0.0723 -0.3373  0.6482
  529MOL0     H71407   1.204   7.672   5.739 -1.8025  1.9199  1.2390
  529MOL0     H71408   1.367   7.638   5.783 -0.8117 -0.7833 -4.1277
  529MOL0     H71409   1.219   7.900   5.770 -0.3232 -2.6542  1.3508
  529MOL0     H71410   1.398   7.913   5.809 -1.3760  2.4241  0.3057
  529MOL0     H71411   1.391   7.827   5.389 -0.6379 -0.1297 -1.1029
  529MOL0     H71412   1.508   8.074   6.083 -1.1382 -1.0731 -0.0137
  529MOL0     H71413   1.681   8.227   6.100 -0.4957 -1.9856 -0.5288
  529MOL0     H71414   1.682   8.233   6.278 -2.4150 -1.7091  0.6632
  529MOL0     H71415   1.825   8.200   6.184 -0.7047 -0.0506 -1.7584
  530MOL0     O71416   2.150   5.769  10.899 -0.6698  0.4102  0.3795
  530MOL0     C71417   2.087   5.805  10.797  0.5670 -0.1829 -0.3170
  530MOL0     O71418   2.023   5.727  10.704  0.1676  0.3985  0.2394
  530MOL0     C71419   2.021   5.594  10.726  0.0344  0.3691 -0.5198
  530MOL0     C71420   1.903   5.538  10.700  0.0412  0.0143 -0.3183
  530MOL0     C71421   1.890   5.395  10.705 -0.1581 -0.2947  1.0063
  530MOL0     C71422   1.993   5.310  10.741  1.0018  0.7764  0.0064
  530MOL0     O71423   1.978   5.172  10.758 -0.1586 -0.8201  0.2875
  530MOL0     C71424   2.058   5.098  10.855  0.5234  0.4239  0.5206
  530MOL0     C71425   1.981   4.968  10.883  0.2362 -0.4949 -0.3864
  530MOL0     C71426   2.067   4.888  10.985 -0.3839 -0.2236  1.3310
  530MOL0     C71427   2.003   4.745  11.015 -0.8154 -0.3430  0.0147
  530MOL0     C71428   2.105   4.630  11.055 -0.3354 -0.3293 -0.1822
  530MOL0     C71429   2.030   4.513  11.095  0.6849  0.0946  0.3256
  530MOL0     C71430   2.125   4.387  11.081 -0.1121 -0.5645 -0.7537
  530MOL0     C71431   2.265   4.402  11.150 -0.4406 -0.6897  0.8795
  530MOL0     N71432   2.318   4.265  11.158  0.2550  0.6242 -0.0621
  530MOL0     C71433   2.433   4.215  11.106  0.3921  0.0592  0.0359
  530MOL0     C71434   2.447   4.086  11.150 -0.6853  0.4033  0.7616
  530MOL0     C71435   2.564   3.987  11.156 -0.4534 -0.3903  0.1260
  530MOL0     C71436   2.675   3.990  11.031 -0.9650 -0.6320 -0.0934
  530MOL0     C71437   2.820   3.969  11.076 -0.1138 -0.1093  0.7557
  530MOL0     C71438   2.930   4.050  10.993  1.6036  0.2849  0.2953
  530MOL0     O71439   2.934   4.000  10.861 -0.5386 -0.3349 -0.3319
  530MOL0     C71440   3.056   4.007  10.795  0.9837 -0.0961 -0.7382
  530MOL0     C71441   3.153   4.095  10.845  0.6303  0.6104  0.4571
  530MOL0     C71442   3.275   4.106  10.774  0.7169 -0.7368  0.3013
  530MOL0     C71443   3.298   4.034  10.652 -0.0174 -0.3790 -1.1480
  530MOL0     C71444   3.427   4.047  10.590 -0.1236  0.7691  0.5004
  530MOL0     O71445   3.518   4.117  10.657 -0.3988 -0.1195  0.3021
  530MOL0     C71446   3.643   4.141  10.594  0.1186  0.0945  0.8760
  530MOL0     C71447   3.751   4.073  10.629 -1.0740  0.6423  0.6688
  530MOL0     C71448   3.876   4.095  10.579 -0.5633  0.7076  0.5295
  530MOL0     C71449   3.891   4.194  10.487  0.0542 -1.4036  0.0293
  530MOL0     O71450   4.016   4.207  10.438 -0.4016 -1.0502 -0.0592
  530MOL0     C71451   4.056   4.325  10.360  0.2176 -0.1259 -0.4885
  530MOL0     C71452   4.204   4.343  10.370 -0.2293  0.3611  0.4174
  530MOL0     C71453   4.277   4.244  10.277  0.7546 -0.4911 -0.3407
  530MOL0     C71454   4.257   4.100  10.322 -0.1915  0.2890 -0.1787
  530MOL0     C71455   4.361   4.006  10.262 -0.5511 -0.5495 -0.3716
  530MOL0     C71456   4.359   3.881  10.353 -0.5312 -0.0687  0.4596
  530MOL0     C71457   4.470   3.883  10.460 -0.7498 -0.2335  0.4998
  530MOL0     C71458   4.613   3.854  10.397  0.4463 -0.8567  0.1329
  530MOL0    Cl71459   4.611   3.683  10.331 -0.4177 -0.0554 -0.2918
  530MOL0     C71460   3.786   4.280  10.453  0.1063  0.6083 -0.5971
  530MOL0     C71461   3.655   4.250  10.502 -0.8043  0.3030  0.6705
  530MOL0     O71462   3.447   3.988  10.488 -1.0538 -0.7163  0.3985
  530MOL0     C71463   3.197   3.950  10.610  0.6029  0.0659 -0.7401
  530MOL0     C71464   3.072   3.938  10.676  0.7256 -0.2544 -0.1998
  530MOL0     N71465   2.327   4.052  11.218  1.2823 -0.3687  0.1629
  530MOL0     N71466   2.260   4.167  11.228 -0.0367  0.1511 -0.1266
  530MOL0     C71467   2.114   5.371  10.758  0.6933  0.2080 -0.7958
  530MOL0     C71468   2.125   5.507  10.750  0.4730  0.0024 -0.1167
  530MOL0     C71469   2.061   5.956  10.807  0.2339 -0.0384  1.0326
  530MOL0     C71470   2.162   6.043  10.857  0.0089  0.3798 -0.5532
  530MOL0     C71471   2.146   6.185  10.852 -1.3379  0.7173  0.9504
  530MOL0     C71472   2.027   6.240  10.809  0.0620  0.7465  0.2790
  530MOL0     O71473   2.000   6.373  10.784 -0.2565  0.0959  0.1185
  530MOL0     C71474   2.092   6.471  10.830  0.2575 -0.4909 -0.2066
  530MOL0     C71475   2.173   6.511  10.716  0.0890 -0.0722 -0.1459
  530MOL0     C71476   2.299   6.567  10.760 -0.1539  0.6707 -0.2097
  530MOL0     C71477   2.371   6.644  10.652 -0.0604 -0.8111  1.3072
  530MOL0     C71478   2.398   6.559  10.530  0.2077  0.1211  0.9953
  530MOL0     C71479   2.418   6.494  10.422  0.4318  0.5000 -0.7751
  530MOL0     C71480   1.916   6.156  10.775 -0.4916 -0.1440  0.0946
  530MOL0     C71481   1.938   6.013  10.769 -0.4819  0.0527 -0.4811
  530MOL0     C71482   1.820   5.940  10.717 -0.0226 -0.7043  0.0586
  530MOL0     H71483   1.830   5.607  10.658 -0.8202 -0.8007 -0.2052
  530MOL0     H71484   1.802   5.336  10.680  1.1225 -2.5585  1.4978
  530MOL0     H71485   2.156   5.074  10.811  0.0878 -1.4976  0.5117
  530MOL0     H71486   2.075   5.165  10.939  2.0892  1.9948 -0.9524
  530MOL0     H71487   1.969   4.907  10.793  1.1922  0.0838 -0.9265
  530MOL0     H71488   1.884   5.000  10.921  1.3619  0.0637  2.2501
  530MOL0     H71489   2.094   4.948  11.072  1.4145  2.9243 -1.1535
  530MOL0     H71490   2.159   4.873  10.928 -1.2293 -0.7304  0.0429
  530MOL0     H71491   1.925   4.760  11.090 -0.5970 -0.7308  0.3297
  530MOL0     H71492   1.945   4.698  10.935 -2.9580 -0.3752  1.5105
  530MOL0     H71493   2.165   4.613  10.965 -0.0865  2.3306 -0.5973
  530MOL0     H71494   2.166   4.667  11.138  0.4132 -0.9663 -0.4409
  530MOL0     H71495   2.003   4.516  11.201  0.7781 -1.7506  0.4264
  530MOL0     H71496   1.940   4.502  11.035  1.1037  1.3227 -0.5688
  530MOL0     H71497   2.142   4.375  10.973  1.2490 -1.7037 -0.4417
  530MOL0     H71498   2.076   4.295  11.115  2.2131 -0.5645  3.2495
  530MOL0     H71499   2.334   4.462  11.090 -0.0887  0.1381  2.0789
  530MOL0     H71500   2.262   4.441  11.252  0.2947 -0.0617  0.6701
  530MOL0     H71501   2.511   4.260  11.045 -0.2069 -2.0582 -2.4620
  530MOL0     H71502   2.613   3.985  11.254 -0.7889 -0.8427  0.2905
  530MOL0     H71503   2.516   3.888  11.150 -0.0976 -0.6361  1.1968
  530MOL0     H71504   2.660   3.913  10.956  0.8854  1.0152 -2.3176
  530MOL0     H71505   2.682   4.082  10.972  0.0265  0.2024  1.2551
  530MOL0     H71506   2.850   3.864  11.083  2.0721  0.4444  0.3437
  530MOL0     H71507   2.832   4.003  11.179 -1.4862 -1.0386  1.2548
  530MOL0     H71508   3.027   4.034  11.040  2.0820 -0.5630 -0.9228
  530MOL0     H71509   2.913   4.158  10.989 -0.8057  0.0568  2.0537
  530MOL0     H71510   3.135   4.161  10.930 -5.3387 -0.2934  0.2978
  530MOL0     H71511   3.346   4.182  10.805 -0.8196  1.4331 -1.1190
  530MOL0     H71512   3.732   3.976  10.674 -2.1744 -0.8466 -2.7216
  530MOL0     H71513   3.955   4.026  10.609 -2.1305 -2.4054 -1.8852
  530MOL0     H71514   4.018   4.315  10.258  0.0620 -0.3383 -0.4101
  530MOL0     H71515   4.007   4.410  10.407 -0.8218 -2.1972  2.4611
  530MOL0     H71516   4.228   4.448  10.350  0.8076 -0.2788 -2.0035
  530MOL0     H71517   4.233   4.332  10.475 -0.2542  1.1684  0.5174
  530MOL0     H71518   4.242   4.253  10.174 -1.2275 -0.4538  0.2932
  530MOL0     H71519   4.383   4.270  10.283  0.7977 -0.9523  1.9938
  530MOL0     H71520   4.160   4.053  10.300 -0.6811 -0.0174  2.3409
  530MOL0     H71521   4.245   4.105  10.430 -2.3657 -1.5953 -0.2491
  530MOL0     H71522   4.457   4.056  10.244 -3.0775  3.9353 -3.6765
  530MOL0     H71523   4.330   3.974  10.163  0.2153 -1.3062 -0.3794
  530MOL0     H71524   4.259   3.882  10.397 -0.2234 -1.0491  1.2294
  530MOL0     H71525   4.368   3.791  10.291 -5.2184 -2.3821  2.6127
  530MOL0     H71526   4.444   3.792  10.515  0.4989 -1.0852 -0.2558
  530MOL0     H71527   4.471   3.963  10.534  0.9016 -1.4238  1.8352
  530MOL0     H71528   4.658   3.917  10.320 -0.6211 -1.5675 -1.1073
  530MOL0     H71529   4.687   3.858  10.477  0.6451 -0.2449 -0.0768
  530MOL0     H71530   3.795   4.351  10.371  1.2077  1.0207 -0.1431
  530MOL0     H71531   3.559   4.288  10.467 -0.8420 -0.6345 -0.2921
  530MOL0     H71532   3.207   3.891  10.519 -0.5244 -0.3089 -0.6408
  530MOL0     H71533   2.987   3.874  10.653 -1.2979  2.1295  0.2031
  530MOL0     H71534   2.205   5.317  10.783 -0.3989 -0.3479  2.4856
  530MOL0     H71535   2.219   5.555  10.775 -0.6293  4.1994 -2.8917
  530MOL0     H71536   2.256   6.012  10.900  0.4819  2.2250 -0.1624
  530MOL0     H71537   2.225   6.240  10.902 -1.5069  1.3313  0.5418
  530MOL0     H71538   2.152   6.434  10.914 -0.6959 -3.7473 -0.8520
  530MOL0     H71539   2.039   6.559  10.870 -1.2283 -1.2289 -0.4648
  530MOL0     H71540   2.114   6.585  10.661 -1.6954  1.9109  4.0232
  530MOL0     H71541   2.190   6.424  10.651 -1.4697 -2.6247  2.6255
  530MOL0     H71542   2.363   6.479  10.775 -1.6594 -0.0964  2.4519
  530MOL0     H71543   2.290   6.619  10.856 -1.6468  1.1523 -0.5867
  530MOL0     H71544   2.310   6.732  10.628  0.0592 -0.3252  2.7117
  530MOL0     H71545   2.470   6.680  10.682  0.0373 -0.2444  0.3524
  530MOL0     H71546   2.445   6.439  10.334  3.3711  1.5673 -0.6459
  530MOL0     H71547   1.822   6.197  10.738 -0.6406  0.0463  0.6746
  530MOL0     H71548   1.798   5.849  10.774  3.3537 -1.4491  0.3586
  530MOL0     H71549   1.727   5.998  10.721  0.4085  0.1002 -1.1328
  530MOL0     H71550   1.849   5.909  10.616  0.3063 -4.5356  1.1807
  531MOL0     O71551  10.548   8.582   0.553  0.2116 -0.3800 -0.4818
  531MOL0     C71552  10.605   8.483   0.513  0.0531 -0.2204 -0.0472
  531MOL0     O71553  10.537   8.365   0.488  0.0935 -0.6020  1.2356
  531MOL0     C71554  10.405   8.361   0.512  0.4574 -0.3494 -0.7451
  531MOL0     C71555  10.373   8.314   0.639 -0.1536 -0.6520 -0.4877
  531MOL0     C71556  10.238   8.288   0.669  0.7520 -0.1841  0.0663
  531MOL0     C71557  10.136   8.332   0.587 -0.0897 -0.1455  0.1663
  531MOL0     O71558  10.002   8.313   0.618 -0.7156 -0.4450 -0.4698
  531MOL0     C71559   9.956   8.277   0.750 -0.1684 -1.4238  0.1766
  531MOL0     C71560   9.969   8.125   0.764  1.1882 -0.8051 -0.3808
  531MOL0     C71561   9.958   8.079   0.905  0.1872  0.2010  0.0433
  531MOL0     C71562   9.835   8.142   0.970  0.1132 -0.4178  0.6703
  531MOL0     C71563   9.796   8.070   1.105  0.6397  0.2456 -0.3525
  531MOL0     C71564   9.910   8.073   1.217 -0.5538 -0.2814  0.1275
  531MOL0     C71565   9.961   7.943   1.280  0.1249  0.7549 -0.0485
  531MOL0     C71566   9.848   7.866   1.345  1.1988  0.6155  0.8290
  531MOL0     N71567   9.901   7.730   1.381 -1.1045  1.0297 -0.5790
  531MOL0     C71568   9.943   7.645   1.286  0.3580  0.7697  0.7199
  531MOL0     C71569   9.963   7.525   1.348 -0.3652 -0.3552 -0.3808
  531MOL0     C71570  10.012   7.392   1.288 -0.3565 -0.3143 -0.6877
  531MOL0     C71571  10.131   7.333   1.362 -0.0945  1.2746 -0.0420
  531MOL0     C71572  10.101   7.196   1.419  0.5586 -0.5387  0.1730
  531MOL0     C71573  10.235   7.137   1.449 -0.6920  0.1464  0.0277
  531MOL0     O71574  10.306   7.103   1.331  0.3644  0.3876  0.5741
  531MOL0     C71575  10.434   7.049   1.333 -0.4140 -0.7039  0.0746
  531MOL0     C71576  10.482   6.967   1.430  1.2708  0.3841 -0.1957
  531MOL0     C71577  10.612   6.907   1.416  0.7417  0.6752  0.2251
  531MOL0     C71578  10.694   6.917   1.300  0.9448  0.7675  0.2555
  531MOL0     C71579  10.814   6.846   1.292  0.5251 -0.4910  0.6378
  531MOL0     O71580  10.905   6.892   1.214 -0.4420 -0.8784 -0.2049
  531MOL0     C71581  11.006   6.812   1.158 -0.0154  0.7345 -1.4280
  531MOL0     C71582  11.105   6.892   1.097  0.2933 -0.3257 -0.2457
  531MOL0     C71583  11.213   6.828   1.028  1.0258  1.0260 -1.0144
  531MOL0     C71584  11.216   6.685   1.025  0.5659 -0.0552  0.7257
  531MOL0     O71585  11.325   6.630   0.961  0.4274  0.1051 -0.7758
  531MOL0     C71586  11.390   6.521   1.023 -0.2193  0.3399 -0.3547
  531MOL0     C71587  11.491   6.582   1.122  0.4305 -0.0133  1.1937
  531MOL0     C71588  11.546   6.489   1.230 -0.4139  0.5666 -0.4249
  531MOL0     C71589  11.469   6.510   1.362  0.7002  1.4271  0.1848
  531MOL0     C71590  11.506   6.413   1.482  0.1941  0.1317 -0.0438
  531MOL0     C71591  11.651   6.444   1.529  0.3920 -0.5400  0.0506
  531MOL0     C71592  11.691   6.382   1.662 -0.4198 -0.3870 -0.2673
  531MOL0     C71593  11.804   6.454   1.732  0.3547 -0.0042  0.0372
  531MOL0    Cl71594  11.779   6.385   1.894 -0.0252  0.0846 -0.1385
  531MOL0     C71595  11.115   6.614   1.088  0.3446  0.0852 -0.7213
  531MOL0     C71596  11.013   6.676   1.147 -0.5217 -0.7490  0.8930
  531MOL0     O71597  10.823   6.751   1.367  0.3766  0.1603 -0.4363
  531MOL0     C71598  10.634   6.988   1.187 -0.2225 -0.2975 -0.0103
  531MOL0     C71599  10.510   7.061   1.208  0.1893  0.2946  0.6026
  531MOL0     N71600   9.936   7.549   1.477 -0.3787  0.4443  0.2169
  531MOL0     N71601   9.905   7.674   1.498 -0.8094 -0.0362 -0.8211
  531MOL0     C71602  10.176   8.370   0.454  0.4697 -0.6468  0.2611
  531MOL0     C71603  10.308   8.386   0.415  0.1400  0.0026  0.3733
  531MOL0     C71604  10.754   8.484   0.486  0.8319  0.5977  0.8359
  531MOL0     C71605  10.825   8.358   0.495 -0.6932  0.5413  0.2640
  531MOL0     C71606  10.965   8.363   0.455 -0.5828 -0.9590 -0.5286
  531MOL0     C71607  11.023   8.479   0.414 -0.8516  0.1090 -0.6931
  531MOL0     O71608  11.161   8.474   0.399 -0.6280  0.3572  0.1794
  531MOL0     C71609  11.228   8.502   0.273  0.3274 -0.5149 -0.7550
  531MOL0     C71610  11.211   8.384   0.174  0.2942  0.1170 -0.3558
  531MOL0     C71611  11.276   8.397   0.038  0.0998  0.9965 -0.8996
  531MOL0     C71612  11.427   8.405   0.035  0.3040  0.0556 -0.4140
  531MOL0     C71613  11.502   8.332   0.142  0.9533  0.2596  0.8715
  531MOL0     C71614  11.573   8.277   0.220  0.2063 -0.0101  0.5859
  531MOL0     C71615  10.953   8.597   0.403 -0.4739  0.1576 -1.0247
  531MOL0     C71616  10.819   8.596   0.438  0.3000  0.3970  0.6989
  531MOL0     C71617  10.754   8.729   0.435 -0.6929  0.3508  0.5603
  531MOL0     H71618  10.457   8.276   0.695  2.8773  1.7025 -3.0415
  531MOL0     H71619  10.217   8.253   0.770 -0.0404 -0.2185 -0.1069
  531MOL0     H71620  10.026   8.326   0.818  1.4388  2.0883 -3.5814
  531MOL0     H71621   9.853   8.314   0.756 -0.0573 -0.0606 -3.6249
  531MOL0     H71622  10.051   8.085   0.705  1.4261  1.8450 -2.0174
  531MOL0     H71623   9.874   8.089   0.722 -0.9454  2.3250  1.3299
  531MOL0     H71624  10.052   8.103   0.956 -0.3117  0.2244  0.9908
  531MOL0     H71625   9.949   7.971   0.917  2.0647  0.2030  2.3515
  531MOL0     H71626   9.851   8.248   0.992 -1.5363  0.5114 -2.0905
  531MOL0     H71627   9.746   8.137   0.906 -0.4522  2.9292  0.9995
  531MOL0     H71628   9.701   8.110   1.143 -0.4419 -0.2659 -2.3415
  531MOL0     H71629   9.764   7.966   1.091  0.5607  0.1143  0.7643
  531MOL0     H71630  10.003   8.116   1.178 -0.3662  0.8888  1.7853
  531MOL0     H71631   9.865   8.133   1.296 -0.7839  1.0964 -1.0154
  531MOL0     H71632  10.028   7.971   1.362  0.6391 -0.5141 -0.0252
  531MOL0     H71633  10.023   7.895   1.204 -1.3659 -2.4154  0.6056
  531MOL0     H71634   9.813   7.922   1.432 -0.2278 -0.0878  0.7272
  531MOL0     H71635   9.765   7.854   1.275  1.5034  4.3328 -0.3960
  531MOL0     H71636   9.939   7.667   1.180 -1.4685 -3.5690 -0.2819
  531MOL0     H71637   9.934   7.318   1.309  0.5667 -0.9540  0.5835
  531MOL0     H71638  10.026   7.412   1.182  1.3551 -1.1086 -0.6364
  531MOL0     H71639  10.211   7.329   1.287  2.2797  1.4690  2.3284
  531MOL0     H71640  10.154   7.395   1.449  0.5029  2.0046 -0.7025
  531MOL0     H71641  10.045   7.135   1.348 -0.7139  0.7776 -0.0022
  531MOL0     H71642  10.042   7.204   1.510 -0.5312 -0.7333 -0.5017
  531MOL0     H71643  10.226   7.047   1.510 -1.0100 -0.1977 -0.5165
  531MOL0     H71644  10.302   7.201   1.507 -1.1370 -0.3789  1.1525
  531MOL0     H71645  10.427   6.965   1.524  6.6039  1.1289  3.4544
  531MOL0     H71646  10.634   6.820   1.477  0.2721 -0.6901 -1.4562
  531MOL0     H71647  11.094   7.000   1.099 -2.9118 -0.5552 -0.2748
  531MOL0     H71648  11.307   6.877   1.007  0.9988  0.9339 -1.3578
  531MOL0     H71649  11.329   6.454   1.084  3.1250 -1.3443  1.4284
  531MOL0     H71650  11.444   6.450   0.960  1.1755 -0.3153  1.4762
  531MOL0     H71651  11.574   6.606   1.056 -2.3512  2.8905 -1.6228
  531MOL0     H71652  11.446   6.672   1.164 -1.7904 -2.2153  4.0186
  531MOL0     H71653  11.532   6.383   1.210  0.8437  0.3033 -0.0231
  531MOL0     H71654  11.653   6.506   1.244 -0.5105 -0.8871  2.6974
  531MOL0     H71655  11.364   6.487   1.338  1.5367  0.5044 -3.1813
  531MOL0     H71656  11.471   6.614   1.393  2.7589  1.2183  0.8592
  531MOL0     H71657  11.496   6.307   1.459 -0.3169 -0.2419  1.7255
  531MOL0     H71658  11.442   6.427   1.570 -0.4352 -1.8400 -0.1447
  531MOL0     H71659  11.719   6.401   1.456  0.1454 -0.6401 -0.1209
  531MOL0     H71660  11.668   6.552   1.538  0.4467 -0.5724  0.3446
  531MOL0     H71661  11.730   6.283   1.636  1.5582  0.1937  0.3588
  531MOL0     H71662  11.601   6.364   1.723 -0.4559  3.1897  0.9595
  531MOL0     H71663  11.907   6.436   1.702  0.2904  0.3125 -0.3804
  531MOL0     H71664  11.779   6.560   1.737 -1.4654 -0.3028 -1.7299
  531MOL0     H71665  11.111   6.506   1.080 -1.8630  0.1801 -1.6821
  531MOL0     H71666  10.923   6.626   1.182 -0.8796 -0.1264  0.8643
  531MOL0     H71667  10.689   6.989   1.093 -0.9829  0.2960 -0.4645
  531MOL0     H71668  10.460   7.105   1.123 -2.2955 -1.4939  1.0199
  531MOL0     H71669  10.097   8.381   0.381 -1.0023 -0.9038  1.7495
  531MOL0     H71670  10.330   8.420   0.314  0.0681 -3.0571 -0.7996
  531MOL0     H71671  10.772   8.272   0.533 -2.4096  2.1538  1.7398
  531MOL0     H71672  11.024   8.272   0.462  0.3058 -0.3273  0.4917
  531MOL0     H71673  11.334   8.526   0.289  0.1137 -0.3158  0.4972
  531MOL0     H71674  11.175   8.584   0.223  1.6595  0.6063 -0.3886
  531MOL0     H71675  11.103   8.383   0.156  0.0747  3.3337  0.2448
  531MOL0     H71676  11.226   8.288   0.224 -2.7825 -0.5136 -0.4206
  531MOL0     H71677  11.233   8.489  -0.004 -0.9381  0.6881 -0.5307
  531MOL0     H71678  11.239   8.308  -0.014 -0.9083  0.9387 -0.1036
  531MOL0     H71679  11.466   8.362  -0.057 -0.4254  0.3389 -0.8598
  531MOL0     H71680  11.451   8.511   0.026  1.9919 -0.2093  0.4537
  531MOL0     H71681  11.629   8.240   0.303 -1.0224 -0.7362  1.1208
  531MOL0     H71682  11.017   8.675   0.363  2.9196 -1.6983  0.3595
  531MOL0     H71683  10.658   8.726   0.384 -1.0863 -1.7268  1.3138
  531MOL0     H71684  10.726   8.759   0.536 -1.2754  0.1269  0.4660
  531MOL0     H71685  10.823   8.802   0.391  1.9725 -1.2247  1.8660
  532MOL0     O71686  10.695   7.400   0.816 -0.5669  0.4387  1.0529
  532MOL0     C71687  10.739   7.344   0.921  0.1060 -0.9441  0.0310
  532MOL0     O71688  10.781   7.220   0.925 -0.1782  0.3962 -0.7992
  532MOL0     C71689  10.782   7.134   0.814  0.7585 -0.4315 -0.2844
  532MOL0     C71690  10.673   7.121   0.726 -0.1182  0.4411 -0.1432
  532MOL0     C71691  10.677   7.021   0.626 -1.4422 -0.0167  0.4186
  532MOL0     C71692  10.783   6.933   0.607 -0.4041 -0.4447 -1.1421
  532MOL0     O71693  10.792   6.851   0.501 -0.1708  0.1686  0.2208
  532MOL0     C71694  10.745   6.716   0.548  0.3114 -0.4026  0.5348
  532MOL0     C71695  10.746   6.620   0.427  0.6202 -0.0078  0.3199
  532MOL0     C71696  10.691   6.479   0.439  0.0711 -0.5200 -1.0499
  532MOL0     C71697  10.737   6.391   0.315 -0.4316 -0.2670  0.8768
  532MOL0     C71698  10.739   6.238   0.315  0.0786  1.1267 -0.9014
  532MOL0     C71699  10.596   6.183   0.294 -0.0865 -0.6124  0.4096
  532MOL0     C71700  10.600   6.040   0.342  0.3798 -0.4378  0.2643
  532MOL0     C71701  10.459   5.972   0.329  0.1016  0.7393  1.0819
  532MOL0     N71702  10.367   6.003   0.438  0.0779  0.1196  0.3284
  532MOL0     C71703  10.363   5.940   0.558  0.0764  0.2686 -0.4256
  532MOL0     C71704  10.275   6.008   0.634 -0.0152 -1.0174  0.5524
  532MOL0     C71705  10.236   5.966   0.775  0.1005  0.4898  0.3314
  532MOL0     C71706  10.111   5.880   0.765 -0.6919 -0.2812  0.5097
  532MOL0     C71707  10.037   5.861   0.901  0.2757 -0.0446 -1.2938
  532MOL0     C71708   9.895   5.817   0.895 -0.1679 -0.1624 -0.3376
  532MOL0     O71709   9.841   5.812   1.028  0.4284  0.7712  0.6899
  532MOL0     C71710   9.884   5.714   1.109  0.4552 -0.6109 -0.7609
  532MOL0     C71711   9.841   5.578   1.097  0.0965 -0.4962 -0.3240
  532MOL0     C71712   9.864   5.492   1.206 -0.1377  0.8415 -0.6797
  532MOL0     C71713   9.949   5.530   1.315  0.5869 -0.5225 -0.6872
  532MOL0     C71714   9.987   5.422   1.412  0.3611  0.3047 -0.0972
  532MOL0     O71715  10.093   5.448   1.492  0.1383  0.1872  0.2583
  532MOL0     C71716  10.141   5.344   1.563 -0.2954 -0.0999 -0.6888
  532MOL0     C71717  10.145   5.355   1.706  0.3334  0.0405  0.7997
  532MOL0     C71718  10.212   5.258   1.775  0.6443 -0.2067 -0.6388
  532MOL0     C71719  10.269   5.147   1.717 -0.7382 -0.4569 -0.2680
  532MOL0     O71720  10.318   5.053   1.806  0.4815  0.2246 -0.2696
  532MOL0     C71721  10.433   4.980   1.761 -0.5883 -0.2830 -0.5386
  532MOL0     C71722  10.497   4.915   1.890  0.4707  0.1693 -0.3362
  532MOL0     C71723  10.618   4.820   1.857 -0.1520  0.7553  0.5183
  532MOL0     C71724  10.573   4.683   1.805 -0.6406  0.4342  0.6757
  532MOL0     C71725  10.679   4.582   1.762 -0.6255 -0.4035  0.2159
  532MOL0     C71726  10.606   4.460   1.716 -0.4201  0.0626 -0.6421
  532MOL0     C71727  10.683   4.377   1.615  0.3243 -1.1785 -0.2563
  532MOL0     C71728  10.626   4.235   1.613  0.7719 -0.2164  1.2852
  532MOL0    Cl71729  10.681   4.148   1.470 -0.4318  0.0156  0.2356
  532MOL0     C71730  10.258   5.132   1.583 -0.5704  0.3223  0.0770
  532MOL0     C71731  10.201   5.235   1.506  0.2875 -0.1597  0.5327
  532MOL0     O71732   9.925   5.315   1.405 -0.5179  0.4768  0.6014
  532MOL0     C71733   9.995   5.666   1.317 -0.4067  0.4336  0.6497
  532MOL0     C71734   9.961   5.756   1.214 -0.4209 -0.4805 -0.3061
  532MOL0     N71735  10.243   6.120   0.557 -0.0288 -0.3835 -0.1581
  532MOL0     N71736  10.287   6.112   0.433 -0.2821 -0.1214  0.3593
  532MOL0     C71737  10.884   6.945   0.701 -0.5652 -0.1276  0.3864
  532MOL0     C71738  10.889   7.050   0.795 -0.0956  0.1898 -0.9385
  532MOL0     C71739  10.760   7.452   1.025  0.1314 -0.8186  0.1442
  532MOL0     C71740  10.709   7.589   1.006  0.7861 -0.1694 -0.0213
  532MOL0     C71741  10.719   7.682   1.105 -0.0398 -0.3016 -1.6072
  532MOL0     C71742  10.764   7.658   1.234  0.3255 -0.4149 -0.4970
  532MOL0     O71743  10.767   7.750   1.336  0.5082  0.3269  0.6394
  532MOL0     C71744  10.688   7.874   1.311  0.5777 -0.1984 -0.7722
  532MOL0     C71745  10.653   7.961   1.433  0.3539 -0.3872 -0.3478
  532MOL0     C71746  10.790   8.017   1.482  1.2631  0.5833  0.1864
  532MOL0     C71747  10.754   8.090   1.613 -0.9379  0.4811  0.4083
  532MOL0     C71748  10.766   7.990   1.722 -0.8100 -0.4306 -1.1214
  532MOL0     C71749  10.763   7.894   1.804 -0.7581 -0.4335  0.8125
  532MOL0     C71750  10.803   7.528   1.255  0.3569  1.3631  1.2704
  532MOL0     C71751  10.795   7.424   1.156 -0.9409  0.3745 -0.2638
  532MOL0     C71752  10.844   7.286   1.206  0.7296  0.3226  0.2324
  532MOL0     H71753  10.579   7.172   0.744  0.0734  0.8742 -0.3683
  532MOL0     H71754  10.609   7.036   0.543 -0.4314  2.7536 -0.0161
  532MOL0     H71755  10.808   6.679   0.630 -0.8818  0.7898  2.0621
  532MOL0     H71756  10.640   6.736   0.575  0.7295 -1.0320  2.8999
  532MOL0     H71757  10.852   6.606   0.401  0.1526 -0.6992 -1.3126
  532MOL0     H71758  10.699   6.671   0.343 -1.2908  0.9317  1.8736
  532MOL0     H71759  10.586   6.467   0.466  0.8618 -0.8590  2.3939
  532MOL0     H71760  10.738   6.427   0.524 -0.2751 -2.5402 -2.0203
  532MOL0     H71761  10.673   6.430   0.234 -0.1586 -2.5460 -0.5163
  532MOL0     H71762  10.836   6.427   0.287 -0.3330 -1.2996 -0.1885
  532MOL0     H71763  10.793   6.200   0.227  1.8623 -2.2907  1.4502
  532MOL0     H71764  10.789   6.192   0.400 -1.4847 -0.2729 -0.6786
  532MOL0     H71765  10.517   6.223   0.358  0.1614 -3.8129  2.9537
  532MOL0     H71766  10.577   6.186   0.186  1.4900 -1.0643  0.0966
  532MOL0     H71767  10.623   6.043   0.449 -0.1441 -1.2001  0.4134
  532MOL0     H71768  10.669   5.982   0.280  0.6909  0.1571  0.0478
  532MOL0     H71769  10.417   5.991   0.230  2.7363 -2.2003 -0.7854
  532MOL0     H71770  10.461   5.865   0.307 -2.7532  0.7138  0.6217
  532MOL0     H71771  10.421   5.850   0.576  0.3334  0.3662 -0.7433
  532MOL0     H71772  10.309   5.902   0.826 -1.3048  0.1739  2.0840
  532MOL0     H71773  10.218   6.052   0.841 -1.3467  1.1662 -0.8791
  532MOL0     H71774  10.038   5.923   0.696 -1.1185  2.5922  2.5750
  532MOL0     H71775  10.139   5.781   0.728  1.3583  1.4552 -3.1001
  532MOL0     H71776  10.051   5.949   0.965  2.0245 -1.3920  0.2854
  532MOL0     H71777  10.084   5.775   0.949 -2.3066 -0.8061  0.0686
  532MOL0     H71778   9.893   5.717   0.850 -3.6840 -0.8211  0.9586
  532MOL0     H71779   9.842   5.899   0.846 -0.1988  0.0915  0.1169
  532MOL0     H71780   9.778   5.557   1.011  0.3123  1.6426 -1.0593
  532MOL0     H71781   9.841   5.387   1.196  3.4428 -0.2885  1.3441
  532MOL0     H71782  10.093   5.438   1.753 -2.1251 -0.8462 -0.2199
  532MOL0     H71783  10.208   5.251   1.883  2.9915 -1.4022 -0.5643
  532MOL0     H71784  10.403   4.912   1.681  0.0894  1.4379 -2.3264
  532MOL0     H71785  10.509   5.046   1.718  1.2457 -2.7408 -1.3445
  532MOL0     H71786  10.535   4.996   1.952  2.4236  1.1838 -2.6722
  532MOL0     H71787  10.423   4.871   1.958  0.5758  2.6807  1.5368
  532MOL0     H71788  10.672   4.858   1.770  0.3633 -3.8994 -1.4558
  532MOL0     H71789  10.680   4.794   1.942  3.4200  3.3658 -1.0318
  532MOL0     H71790  10.503   4.715   1.727  1.8671 -1.3385 -2.5500
  532MOL0     H71791  10.517   4.640   1.890  1.3094 -0.2858  1.6629
  532MOL0     H71792  10.735   4.545   1.848  0.2734  0.5155  0.0429
  532MOL0     H71793  10.743   4.618   1.681 -2.3910 -0.2055 -1.1570
  532MOL0     H71794  10.588   4.400   1.806 -2.1700  0.0942 -0.9367
  532MOL0     H71795  10.511   4.480   1.667 -0.4261  1.8445  0.0233
  532MOL0     H71796  10.789   4.370   1.642  0.2653  1.6887  1.0565
  532MOL0     H71797  10.676   4.422   1.516 -0.3185  2.6627  1.3687
  532MOL0     H71798  10.646   4.174   1.702  1.0133  0.0392  1.4065
  532MOL0     H71799  10.519   4.231   1.590  1.1356 -0.6419 -0.4651
  532MOL0     H71800  10.305   5.048   1.533  2.5592 -0.2388  3.4937
  532MOL0     H71801  10.199   5.225   1.398 -3.8406  2.8555  0.0609
  532MOL0     H71802  10.065   5.692   1.396 -1.4453  1.5231  1.2401
  532MOL0     H71803   9.996   5.857   1.199 -1.9448  0.0908 -0.2618
  532MOL0     H71804  10.963   6.871   0.693 -1.1391 -0.8566  1.3117
  532MOL0     H71805  10.964   7.054   0.873 -0.2915  0.7864 -0.7698
  532MOL0     H71806  10.675   7.615   0.907  2.3251 -1.1837 -0.8487
  532MOL0     H71807  10.679   7.781   1.088 -0.5666 -0.2955 -0.4374
  532MOL0     H71808  10.590   7.861   1.264  0.6176 -1.7013 -0.4616
  532MOL0     H71809  10.754   7.939   1.253 -0.1881  1.5959  0.2733
  532MOL0     H71810  10.607   7.907   1.516 -1.3350  1.0323 -0.2984
  532MOL0     H71811  10.582   8.037   1.399 -1.8370 -2.6913 -1.2331
  532MOL0     H71812  10.825   8.089   1.408 -0.9097  2.0308  0.4647
  532MOL0     H71813  10.873   7.947   1.493  1.0933  0.0528 -1.5912
  532MOL0     H71814  10.825   8.167   1.646  1.1476 -0.9711 -0.4084
  532MOL0     H71815  10.657   8.136   1.631 -1.5211 -1.1606  1.6810
  532MOL0     H71816  10.749   7.810   1.868 -1.5859 -0.9917 -0.0828
  532MOL0     H71817  10.832   7.512   1.358  1.3262 -0.8246  0.6919
  532MOL0     H71818  10.762   7.214   1.213 -0.5590  1.8616  2.2382
  532MOL0     H71819  10.916   7.247   1.134 -1.6807 -1.0183 -1.6167
  532MOL0     H71820  10.902   7.302   1.297  2.0241  2.8527 -0.9059
  533MOL0     O71821   3.528   3.809   7.539 -0.5398 -0.8380 -0.1555
  533MOL0     C71822   3.455   3.834   7.639 -0.0213 -0.0830  0.5733
  533MOL0     O71823   3.477   3.793   7.762 -1.0265 -0.4562  0.9749
  533MOL0     C71824   3.605   3.756   7.790  0.3494  0.5248  0.6896
  533MOL0     C71825   3.640   3.619   7.822 -0.0209  0.3242  0.0476
  533MOL0     C71826   3.779   3.571   7.843 -0.6684 -0.1330  0.6337
  533MOL0     C71827   3.878   3.666   7.828 -0.6275  0.9930 -0.4687
  533MOL0     O71828   4.008   3.625   7.834  0.2281 -0.1553 -0.4671
  533MOL0     C71829   4.062   3.566   7.957 -0.7861 -0.0276  0.6222
  533MOL0     C71830   4.210   3.519   7.925  0.5926 -0.4705 -0.1605
  533MOL0     C71831   4.273   3.404   8.014  0.6541 -0.8588 -0.0334
  533MOL0     C71832   4.410   3.382   7.970 -0.2273 -0.5358  0.6248
  533MOL0     C71833   4.482   3.281   8.066  0.1726 -0.5782  0.1430
  533MOL0     C71834   4.628   3.253   8.022 -0.1932 -0.1765  0.3118
  533MOL0     C71835   4.701   3.157   8.128 -0.5041 -1.4746 -0.0150
  533MOL0     C71836   4.852   3.131   8.114  0.9740  0.1412 -0.0150
  533MOL0     N71837   4.876   2.993   8.048  0.3806  1.3983  0.3174
  533MOL0     C71838   4.833   2.871   8.094  0.5295  0.0715  1.0202
  533MOL0     C71839   4.859   2.775   8.003  0.6990 -0.3096  0.0012
  533MOL0     C71840   4.822   2.630   8.017  0.0347  0.7491  0.6629
  533MOL0     C71841   4.942   2.549   8.071 -0.8269  0.1619  0.1997
  533MOL0     C71842   4.906   2.401   8.093  0.1036  0.5584 -0.1650
  533MOL0     C71843   5.036   2.330   8.149  0.4473  0.5332  0.0934
  533MOL0     O71844   5.127   2.313   8.042 -0.0869  0.1333  0.0661
  533MOL0     C71845   5.262   2.280   8.058  0.9931 -0.1881 -0.0453
  533MOL0     C71846   5.314   2.214   8.171 -0.3764 -0.5106 -0.1630
  533MOL0     C71847   5.449   2.165   8.171  0.4551  0.1366 -0.6619
  533MOL0     C71848   5.538   2.200   8.067  0.1838  0.3222  0.8140
  533MOL0     C71849   5.679   2.165   8.069  0.4295  0.1233 -1.4104
  533MOL0     O71850   5.722   2.091   8.184 -0.9035 -0.3655 -0.6396
  533MOL0     C71851   5.860   2.078   8.185  0.5870  0.9993 -0.2562
  533MOL0     C71852   5.942   2.158   8.269  0.0994 -0.6658 -0.5129
  533MOL0     C71853   6.082   2.143   8.282  0.0165  0.4225  0.0891
  533MOL0     C71854   6.140   2.029   8.222  0.0550 -0.0593 -0.2907
  533MOL0     O71855   6.277   2.013   8.234 -0.3113 -0.1171  0.3130
  533MOL0     C71856   6.333   1.884   8.190  0.0354 -0.5534 -1.0212
  533MOL0     C71857   6.484   1.864   8.228 -0.8520 -0.8734  0.7053
  533MOL0     C71858   6.571   1.982   8.173  0.7496 -0.0779  0.7198
  533MOL0     C71859   6.716   1.941   8.188 -0.5761  0.4034 -0.3447
  533MOL0     C71860   6.778   1.833   8.080 -0.0627 -1.0552 -0.9146
  533MOL0     C71861   6.938   1.838   8.053  0.0007  0.1667  0.1383
  533MOL0     C71862   7.017   1.837   8.181 -0.7411  0.7048 -0.9508
  533MOL0     C71863   6.997   1.698   8.257 -0.8412  0.9146  0.7276
  533MOL0    Cl71864   7.083   1.567   8.188 -0.5401  0.7093 -0.0267
  533MOL0     C71865   6.051   1.949   8.140 -0.2053 -1.2076 -0.0584
  533MOL0     C71866   5.916   1.969   8.125 -0.4660 -0.5265 -0.1072
  533MOL0     O71867   5.744   2.187   7.967 -0.4639 -0.5390 -0.3925
  533MOL0     C71868   5.478   2.255   7.956  0.2810  0.2772  0.5188
  533MOL0     C71869   5.350   2.308   7.957  0.0196 -0.3145 -0.4980
  533MOL0     N71870   4.918   2.840   7.898  0.4666 -0.9857 -0.2041
  533MOL0     N71871   4.924   2.965   7.928 -0.2323 -0.6076  0.5830
  533MOL0     C71872   3.842   3.797   7.803 -0.1854 -0.1539  0.5353
  533MOL0     C71873   3.709   3.842   7.787 -0.2285  0.0070 -0.2781
  533MOL0     C71874   3.339   3.923   7.627  0.9304 -0.9296  0.1227
  533MOL0     C71875   3.262   3.957   7.744 -0.8030  0.4352 -1.1951
  533MOL0     C71876   3.152   4.036   7.748  0.2273 -0.0569 -0.0378
  533MOL0     C71877   3.094   4.083   7.629  0.8701  0.1535 -0.3113
  533MOL0     O71878   2.970   4.140   7.626 -0.4776 -0.1616 -0.1423
  533MOL0     C71879   2.929   4.226   7.730  1.3027  0.1142  0.2733
  533MOL0     C71880   2.804   4.320   7.700 -0.5261  0.2556  0.0755
  533MOL0     C71881   2.671   4.250   7.676 -0.2938  0.1518 -0.0600
  533MOL0     C71882   2.557   4.347   7.636  0.8088 -0.0423 -1.4130
  533MOL0     C71883   2.534   4.444   7.744  0.4816  0.5404  0.6838
  533MOL0     C71884   2.502   4.526   7.827 -0.3700  0.0999 -0.5910
  533MOL0     C71885   3.174   4.069   7.515 -0.1666  0.5939 -0.2072
  533MOL0     C71886   3.288   3.985   7.506  0.1724 -0.0257 -0.3731
  533MOL0     C71887   3.357   3.965   7.365  0.1106 -0.2803 -0.6758
  533MOL0     H71888   3.566   3.542   7.838  1.0569 -0.1942  3.4044
  533MOL0     H71889   3.807   3.472   7.877  2.9045  0.5408  0.0395
  533MOL0     H71890   4.061   3.644   8.034 -0.0778 -1.0067  1.6535
  533MOL0     H71891   4.002   3.478   7.984 -0.9907 -0.0031  0.2501
  533MOL0     H71892   4.275   3.605   7.907  0.0500 -0.3909 -1.8891
  533MOL0     H71893   4.205   3.472   7.826 -2.7418  0.6042 -0.6506
  533MOL0     H71894   4.200   3.323   8.022  0.4047 -0.6832 -0.4529
  533MOL0     H71895   4.282   3.446   8.114  0.1711  1.1623 -0.7925
  533MOL0     H71896   4.410   3.339   7.869  1.4068  0.1760  0.2819
  533MOL0     H71897   4.473   3.471   7.960  1.3673 -1.7820 -1.6808
  533MOL0     H71898   4.480   3.320   8.168  0.9144 -0.5681  0.1549
  533MOL0     H71899   4.423   3.190   8.051  0.7984 -0.6099 -2.5351
  533MOL0     H71900   4.615   3.196   7.930  0.1194 -0.2375  0.3038
  533MOL0     H71901   4.678   3.351   8.014 -0.4702 -0.1359 -1.0856
  533MOL0     H71902   4.655   3.058   8.118  1.8509 -2.7650  1.1936
  533MOL0     H71903   4.684   3.191   8.230 -0.0598  0.0824 -0.4336
  533MOL0     H71904   4.908   3.215   8.073 -1.1321  0.5560 -2.2430
  533MOL0     H71905   4.878   3.110   8.219 -1.6565 -0.2469  0.6530
  533MOL0     H71906   4.779   2.848   8.186 -0.0862  0.6907  0.8205
  533MOL0     H71907   4.741   2.619   8.090 -0.3590 -1.1104 -0.0159
  533MOL0     H71908   4.791   2.579   7.926  1.9906 -0.2484  0.5116
  533MOL0     H71909   5.018   2.553   7.993 -2.4273  0.8024 -1.3900
  533MOL0     H71910   4.975   2.587   8.168 -0.1255  0.9067 -0.3149
  533MOL0     H71911   4.882   2.357   7.996  1.0794  0.8506 -0.5493
  533MOL0     H71912   4.817   2.390   8.156  0.5987 -3.9211  0.0796
  533MOL0     H71913   5.009   2.230   8.185 -0.7242  1.2222  1.2724
  533MOL0     H71914   5.088   2.375   8.234 -1.5984  1.7190  0.8108
  533MOL0     H71915   5.252   2.178   8.252  2.4111 -0.9838  1.9091
  533MOL0     H71916   5.482   2.099   8.251 -0.2526 -0.2637 -0.6826
  533MOL0     H71917   5.886   2.243   8.306  1.1335  0.0294 -0.5058
  533MOL0     H71918   6.145   2.214   8.335 -0.7101  0.3974  1.0059
  533MOL0     H71919   6.269   1.802   8.225 -1.6554  0.2885 -2.0313
  533MOL0     H71920   6.331   1.887   8.081  0.9321  2.1802 -1.0302
  533MOL0     H71921   6.499   1.859   8.336  2.8129  2.5540  0.5534
  533MOL0     H71922   6.521   1.766   8.195 -4.2704 -1.7571 -1.0934
  533MOL0     H71923   6.533   2.017   8.077  1.6168 -1.4407 -0.1522
  533MOL0     H71924   6.562   2.069   8.239 -3.2483 -1.0291  1.7185
  533MOL0     H71925   6.742   1.903   8.287  0.8221  1.7155 -0.1561
  533MOL0     H71926   6.762   2.038   8.167  1.9501 -0.9150 -1.3294
  533MOL0     H71927   6.735   1.860   7.983 -2.5623 -0.7642  0.1934
  533MOL0     H71928   6.746   1.732   8.106 -0.3133 -0.4940  1.0926
  533MOL0     H71929   6.966   1.756   7.986 -0.9314  1.0891 -1.4238
  533MOL0     H71930   6.957   1.940   8.017 -2.1535  0.3611 -0.5653
  533MOL0     H71931   6.985   1.910   8.256 -0.4526 -0.8439  0.7316
  533MOL0     H71932   7.124   1.846   8.162 -0.3788  1.5377  1.1522
  533MOL0     H71933   7.039   1.702   8.358 -1.1760  3.4438  0.8486
  533MOL0     H71934   6.889   1.686   8.268 -0.5325 -0.6626  2.6673
  533MOL0     H71935   6.069   1.850   8.099 -1.9777 -1.6663  0.2066
  533MOL0     H71936   5.868   1.910   8.047 -3.0540 -1.0548  1.7680
  533MOL0     H71937   5.538   2.257   7.865 -3.3242 -1.2414 -2.1309
  533MOL0     H71938   5.318   2.362   7.869 -0.2932  1.9863  0.9400
  533MOL0     H71939   3.922   3.867   7.780  0.0030 -0.0296  1.5056
  533MOL0     H71940   3.694   3.943   7.749  0.2679 -0.2274 -1.1268
  533MOL0     H71941   3.295   3.916   7.839 -1.1051  1.2070 -0.7444
  533MOL0     H71942   3.106   4.069   7.841  1.6267  2.2642 -0.0806
  533MOL0     H71943   3.015   4.287   7.759  1.8367  1.0738 -2.9145
  533MOL0     H71944   2.898   4.167   7.816  1.5062  4.4198  3.6732
  533MOL0     H71945   2.828   4.389   7.619  0.4492  1.4524  1.3177
  533MOL0     H71946   2.785   4.390   7.782 -3.3719 -0.2661 -0.0289
  533MOL0     H71947   2.645   4.195   7.766  0.1166  1.3523  0.8209
  533MOL0     H71948   2.683   4.170   7.603 -1.1952 -2.1725  2.1914
  533MOL0     H71949   2.604   4.391   7.548  0.7016  1.7259 -0.6144
  533MOL0     H71950   2.461   4.296   7.622  1.2689 -1.1919 -0.5582
  533MOL0     H71951   2.497   4.602   7.903  0.8003  0.9413 -1.3114
  533MOL0     H71952   3.155   4.122   7.423  0.6281  0.1147 -0.6652
  533MOL0     H71953   3.285   4.001   7.291  0.7092  1.7657 -0.3218
  533MOL0     H71954   3.445   4.029   7.367 -1.5155  2.0791  1.2094
  533MOL0     H71955   3.390   3.861   7.355  1.4654 -0.1321  1.5254
  534MOL0     O71956   4.304   0.788   0.627  0.2766  0.4320 -0.2824
  534MOL0     C71957   4.418   0.751   0.590  1.4786 -0.3673 -0.0444
  534MOL0     O71958   4.500   0.675   0.663 -0.9465 -1.1441  0.4279
  534MOL0     C71959   4.460   0.628   0.781  0.4925 -0.1809  0.1348
  534MOL0     C71960   4.432   0.489   0.802 -0.0940  0.5068 -0.3100
  534MOL0     C71961   4.388   0.429   0.927 -0.9006  0.7169  0.0373
  534MOL0     C71962   4.371   0.514   1.039  0.6836 -0.2767  0.2829
  534MOL0     O71963   4.342   0.473   1.166  0.0291 -0.3345  0.0682
  534MOL0     C71964   4.453   0.387   1.227  0.1760 -0.2122 -0.5459
  534MOL0     C71965   4.458   0.405   1.375  0.2712 -0.4377  0.4678
  534MOL0     C71966   4.528   0.537   1.413  0.0999 -0.7798 -0.3356
  534MOL0     C71967   4.545   0.524   1.555 -0.0248  0.5859  0.0449
  534MOL0     C71968   4.611   0.650   1.620  0.9823  0.7022  0.8021
  534MOL0     C71969   4.608   0.640   1.777  0.0057 -0.5247 -0.7152
  534MOL0     C71970   4.477   0.705   1.835 -0.0689 -0.3608 -1.0087
  534MOL0     C71971   4.362   0.599   1.869  0.2290 -0.0621 -0.1201
  534MOL0     N71972   4.261   0.644   1.971  0.2078  0.1616 -0.4087
  534MOL0     C71973   4.253   0.609   2.104  1.2679 -1.1497 -0.5937
  534MOL0     C71974   4.146   0.677   2.148 -0.6593 -0.3562 -0.3411
  534MOL0     C71975   4.118   0.700   2.298 -0.1442 -0.3795 -1.1500
  534MOL0     C71976   4.207   0.816   2.347  0.5024 -0.6544 -0.4094
  534MOL0     C71977   4.141   0.896   2.474 -0.9664  0.5132  0.3024
  534MOL0     C71978   4.266   0.929   2.554  0.7358  0.0456 -0.6271
  534MOL0     O71979   4.217   1.004   2.664  0.6034 -0.4265  0.0905
  534MOL0     C71980   4.190   1.136   2.647 -0.4757 -0.7359  0.1732
  534MOL0     C71981   4.131   1.204   2.753  0.0324  0.7575  0.2681
  534MOL0     C71982   4.125   1.344   2.772  0.2655 -0.2548 -0.1348
  534MOL0     C71983   4.188   1.430   2.678 -0.0149  0.0890 -0.5109
  534MOL0     C71984   4.190   1.575   2.696  0.2019 -0.7093 -1.1175
  534MOL0     O71985   4.198   1.607   2.834 -0.2026 -0.2127 -0.0905
  534MOL0     C71986   4.219   1.726   2.899  1.2812 -0.5925  0.8034
  534MOL0     C71987   4.194   1.853   2.837  0.1099  0.5326 -0.4563
  534MOL0     C71988   4.235   1.968   2.899  0.2969 -0.2311 -0.5575
  534MOL0     C71989   4.292   1.966   3.034  0.9699  0.1495  0.2819
  534MOL0     O71990   4.331   2.087   3.095 -0.1595 -0.1393 -0.8532
  534MOL0     C71991   4.442   2.070   3.180 -0.5797  0.6631  0.3730
  534MOL0     C71992   4.531   2.197   3.191 -0.1360 -0.3598 -0.1913
  534MOL0     C71993   4.672   2.171   3.232  0.3300 -0.0916 -0.4965
  534MOL0     C71994   4.667   2.095   3.369 -1.6417  0.0652 -0.2634
  534MOL0     C71995   4.815   2.084   3.409  0.0582  0.0442 -0.2326
  534MOL0     C71996   4.831   1.987   3.519 -0.6884 -0.1169  0.3652
  534MOL0     C71997   4.963   2.024   3.594 -0.7829  0.8278  0.5679
  534MOL0     C71998   4.999   1.921   3.694 -0.1016 -0.4945 -0.0571
  534MOL0    Cl71999   4.861   1.877   3.808 -0.8518  0.2269 -0.2151
  534MOL0     C72000   4.294   1.844   3.105  0.6606 -0.0263 -0.9086
  534MOL0     C72001   4.267   1.723   3.032  0.0816 -0.1449  0.7759
  534MOL0     O72002   4.186   1.663   2.609  0.5911  0.3623  0.6981
  534MOL0     C72003   4.257   1.371   2.570  0.0212 -0.9328 -0.8244
  534MOL0     C72004   4.250   1.225   2.551 -0.9731  0.0076  0.6113
  534MOL0     N72005   4.085   0.742   2.045 -0.7967  0.0385 -0.2834
  534MOL0     N72006   4.151   0.718   1.943 -0.0064  0.6303  0.0124
  534MOL0     C72007   4.397   0.650   1.016 -0.8863 -0.4638  0.2282
  534MOL0     C72008   4.438   0.703   0.894 -0.1674  0.1547 -0.8970
  534MOL0     C72009   4.472   0.838   0.482 -0.0881 -0.2044 -0.0543
  534MOL0     C72010   4.396   0.929   0.409  0.8616 -0.0638  0.4746
  534MOL0     C72011   4.443   1.006   0.297 -0.4181  0.4609 -0.8987
  534MOL0     C72012   4.581   1.012   0.280  0.1860  0.2248 -0.1341
  534MOL0     O72013   4.652   1.096   0.196  0.5937  0.0476 -0.4081
  534MOL0     C72014   4.591   1.221   0.144  0.1560 -0.6559 -1.3128
  534MOL0     C72015   4.714   1.309   0.118 -0.0379 -0.3109 -0.9068
  534MOL0     C72016   4.795   1.266  -0.017  0.1942  0.5373 -0.6007
  534MOL0     C72017   4.772   1.135  -0.078  0.0556  0.8120 -0.4319
  534MOL0     C72018   4.864   1.117  -0.196 -0.2971  0.1142  0.5804
  534MOL0     C72019   4.946   1.078  -0.282 -0.0534 -0.8301  1.1253
  534MOL0     C72020   4.656   0.926   0.349 -0.8230  0.4838  0.6058
  534MOL0     C72021   4.606   0.827   0.443  0.9664  0.4164  0.2790
  534MOL0     C72022   4.709   0.734   0.497  0.3766  0.5882  0.1490
  534MOL0     H72023   4.450   0.430   0.713  1.7792 -1.3324  1.1765
  534MOL0     H72024   4.382   0.322   0.939  0.2559  0.6552  0.1440
  534MOL0     H72025   4.429   0.281   1.214  0.0103 -0.3714  0.8690
  534MOL0     H72026   4.548   0.396   1.174 -0.3970  0.3408 -1.4980
  534MOL0     H72027   4.509   0.313   1.406 -2.1246 -2.8103 -2.0432
  534MOL0     H72028   4.355   0.399   1.413 -0.0648 -0.3142 -0.3915
  534MOL0     H72029   4.475   0.631   1.395  2.4687  0.9720  1.1568
  534MOL0     H72030   4.622   0.562   1.364  3.2517 -0.6829  4.9492
  534MOL0     H72031   4.444   0.511   1.596  0.7738  0.9880  2.2914
  534MOL0     H72032   4.599   0.434   1.586 -2.8778 -1.7684 -1.3442
  534MOL0     H72033   4.710   0.664   1.577  0.8059  0.3725  0.2818
  534MOL0     H72034   4.561   0.741   1.585  1.7087  0.0299 -2.2997
  534MOL0     H72035   4.626   0.537   1.807 -4.8584 -2.0584 -2.0632
  534MOL0     H72036   4.694   0.702   1.805  0.0515  0.3036 -2.5914
  534MOL0     H72037   4.446   0.792   1.777  1.1320 -1.4735 -3.4798
  534MOL0     H72038   4.508   0.743   1.933  1.5987  0.2719 -1.7360
  534MOL0     H72039   4.313   0.605   1.771  1.0775  0.2198 -0.5397
  534MOL0     H72040   4.390   0.494   1.882 -0.5826 -0.6996 -2.7939
  534MOL0     H72041   4.323   0.547   2.161 -0.4073 -1.8675  0.7664
  534MOL0     H72042   4.010   0.720   2.305 -1.1279 -4.9208  0.7918
  534MOL0     H72043   4.129   0.616   2.367 -1.4175  0.6225  0.3448
  534MOL0     H72044   4.303   0.768   2.370 -0.2316 -1.7877  0.3593
  534MOL0     H72045   4.205   0.893   2.269  3.7642  0.5975  0.5302
  534MOL0     H72046   4.074   0.842   2.542 -1.5527  1.3477  0.3913
  534MOL0     H72047   4.089   0.986   2.441 -0.3249  1.3691  1.5253
  534MOL0     H72048   4.340   0.976   2.489 -1.2484  3.4161 -0.6887
  534MOL0     H72049   4.308   0.836   2.594 -0.4017 -1.6571 -3.1042
  534MOL0     H72050   4.109   1.142   2.840 -1.3407  1.8201  0.7091
  534MOL0     H72051   4.074   1.377   2.862  2.3808 -1.9340  1.8226
  534MOL0     H72052   4.146   1.859   2.739 -1.7577  1.4241  0.4562
  534MOL0     H72053   4.227   2.067   2.855 -0.5397  0.7049  1.5688
  534MOL0     H72054   4.405   2.049   3.281 -1.8454 -0.2739 -0.2470
  534MOL0     H72055   4.506   1.989   3.145 -0.1884  1.1314  0.0096
  534MOL0     H72056   4.538   2.266   3.107  4.7465  2.7973  2.3456
  534MOL0     H72057   4.486   2.244   3.279 -0.8238  2.0980 -1.7460
  534MOL0     H72058   4.702   2.102   3.153  3.9374 -0.9710  1.3840
  534MOL0     H72059   4.724   2.268   3.240 -1.2956  0.7587  0.1700
  534MOL0     H72060   4.617   1.999   3.357 -0.5026 -0.2414 -3.2141
  534MOL0     H72061   4.608   2.152   3.441 -0.5334  1.7694 -0.6315
  534MOL0     H72062   4.857   2.181   3.437  0.3672  0.2579 -1.3706
  534MOL0     H72063   4.876   2.060   3.322  2.9004  0.3458  1.5399
  534MOL0     H72064   4.744   1.992   3.584 -2.7704 -1.1278 -2.1882
  534MOL0     H72065   4.835   1.885   3.479  0.3381 -0.1570  0.5333
  534MOL0     H72066   4.953   2.117   3.650  1.6993  0.3292  1.9878
  534MOL0     H72067   5.045   2.027   3.522 -0.1761 -2.5710  0.9353
  534MOL0     H72068   5.030   1.832   3.638  0.3200 -0.6505  0.4153
  534MOL0     H72069   5.081   1.958   3.756 -2.8643  2.4616  2.1665
  534MOL0     H72070   4.324   1.847   3.209  0.5172  1.1073 -0.8855
  534MOL0     H72071   4.275   1.628   3.085  1.2618 -0.4476  0.0830
  534MOL0     H72072   4.317   1.437   2.508  2.4310 -3.3197 -1.1718
  534MOL0     H72073   4.310   1.184   2.470 -0.1823  2.1269  0.0588
  534MOL0     H72074   4.401   0.726   1.093  0.2501  0.9143 -1.1201
  534MOL0     H72075   4.463   0.808   0.887 -1.6024  0.4652 -1.6850
  534MOL0     H72076   4.290   0.948   0.424  0.9279  1.9147 -1.0256
  534MOL0     H72077   4.381   1.077   0.244  0.0515  1.5113 -0.0913
  534MOL0     H72078   4.522   1.275   0.209 -0.1054 -1.8999 -0.5139
  534MOL0     H72079   4.544   1.197   0.048  1.0560 -0.8740 -1.7039
  534MOL0     H72080   4.772   1.289   0.209 -2.5402 -1.6337  0.5407
  534MOL0     H72081   4.694   1.416   0.120  1.3889 -0.0300  0.4745
  534MOL0     H72082   4.902   1.271   0.005 -0.0803 -0.2238  1.0769
  534MOL0     H72083   4.793   1.349  -0.088  1.8158  0.0926 -1.2017
  534MOL0     H72084   4.799   1.061  -0.002  3.3722 -0.4772 -2.6184
  534MOL0     H72085   4.666   1.133  -0.107  0.3532 -1.9087 -1.6443
  534MOL0     H72086   5.028   1.033  -0.333 -3.0301 -3.1777 -2.0070
  534MOL0     H72087   4.763   0.922   0.331 -0.9787 -1.3388 -0.1403
  534MOL0     H72088   4.660   0.638   0.516  2.8983 -0.5379  1.3726
  534MOL0     H72089   4.788   0.710   0.425  0.9271 -5.2604  2.1033
  534MOL0     H72090   4.755   0.779   0.585 -0.7187  0.5546  0.7614
  535MOL0     O72091  11.241   8.335  10.993 -0.2685  0.5800  0.4064
  535MOL0     C72092  11.129   8.372  11.032 -0.2585  0.8260  1.0825
  535MOL0     O72093  11.054   8.469  10.973  0.3092  0.3253  0.1729
  535MOL0     C72094  11.113   8.567  10.889  0.4357  0.2191 -0.6435
  535MOL0     C72095  11.245   8.609  10.887  0.8924 -0.9689 -0.0671
  535MOL0     C72096  11.285   8.695  10.789  0.0034 -0.5796  0.3833
  535MOL0     C72097  11.190   8.752  10.701  0.4602  0.3733  0.6604
  535MOL0     O72098  11.224   8.831  10.601 -0.9785 -0.0888  0.2601
  535MOL0     C72099  11.366   8.832  10.553  0.2607  0.7188  1.0608
  535MOL0     C72100  11.462   8.921  10.645 -0.3589 -0.3631  0.6804
  535MOL0     C72101  11.604   8.853  10.637 -0.7078 -0.2956 -0.7067
  535MOL0     C72102  11.731   8.949  10.649 -0.3894  0.1904  0.0800
  535MOL0     C72103  11.859   8.877  10.588  0.1304 -0.2792 -0.4600
  535MOL0     C72104  11.893   8.730  10.647 -0.7526 -0.8785  0.3992
  535MOL0     C72105  12.041   8.687  10.623 -0.2772  0.9032 -0.4907
  535MOL0     C72106  12.074   8.658  10.473  0.2183 -0.3848 -0.0086
  535MOL0     N72107  11.965   8.580  10.407  0.4376 -0.1439 -0.8598
  535MOL0     C72108  11.864   8.644  10.333  1.0619 -0.1514 -0.3230
  535MOL0     C72109  11.790   8.535  10.296 -0.6130 -0.4047 -0.8034
  535MOL0     C72110  11.662   8.552  10.217 -0.0725 -0.5802  0.5252
  535MOL0     C72111  11.543   8.514  10.299  0.9562  0.0349  0.0065
  535MOL0     C72112  11.417   8.467  10.218  0.7331 -0.4150  0.8904
  535MOL0     C72113  11.289   8.486  10.294  1.1715 -0.1133 -0.7125
  535MOL0     O72114  11.249   8.625  10.307  0.5253  0.9425 -0.0789
  535MOL0     C72115  11.114   8.652  10.338 -0.4128  0.9696  0.6447
  535MOL0     C72116  11.023   8.560  10.392  0.8816  0.2480 -0.5392
  535MOL0     C72117  10.899   8.612  10.446 -1.3225  0.9568  0.2866
  535MOL0     C72118  10.856   8.739  10.428 -0.0917  1.0137  0.2100
  535MOL0     C72119  10.732   8.785  10.491  0.1171 -0.3712 -0.4809
  535MOL0     O72120  10.687   8.709  10.600 -0.1251 -0.5833  0.3877
  535MOL0     C72121  10.556   8.714  10.647 -0.9177 -0.9912  0.0553
  535MOL0     C72122  10.527   8.735  10.780 -0.2013 -0.0185 -0.2252
  535MOL0     C72123  10.396   8.711  10.820  0.0530 -0.0091  0.8367
  535MOL0     C72124  10.287   8.680  10.738 -0.4940  1.0037  0.2712
  535MOL0     O72125  10.157   8.654  10.772  0.6109 -0.3763  0.0455
  535MOL0     C72126  10.128   8.715  10.897  0.1829 -0.5634  0.6321
  535MOL0     C72127   9.972   8.705  10.929  0.6770  0.4719  0.9250
  535MOL0     C72128   9.959   8.730  11.075  0.9006 -1.1213  0.2060
  535MOL0     C72129  10.000   8.885  11.107 -0.6554  0.3972 -0.8649
  535MOL0     C72130   9.918   8.931  11.231  0.5787 -0.8194 -0.8000
  535MOL0     C72131   9.953   9.087  11.249 -0.2615  0.1357  1.3250
  535MOL0     C72132  10.071   9.110  11.337  0.3420 -0.9636  0.0641
  535MOL0     C72133  10.105   9.258  11.342 -0.2483 -0.3264  0.3717
  535MOL0    Cl72134   9.993   9.353  11.450 -0.0931  0.5375 -0.2746
  535MOL0     C72135  10.316   8.665  10.602  0.2042  0.1284 -0.0499
  535MOL0     C72136  10.458   8.677  10.562  0.3310 -0.2188 -0.4340
  535MOL0     O72137  10.684   8.886  10.451  0.4554 -0.1993 -0.1863
  535MOL0     C72138  10.938   8.823  10.344  0.3336 -0.1257  0.5080
  535MOL0     C72139  11.068   8.788  10.314 -0.7002  0.0036  0.1692
  535MOL0     N72140  11.842   8.416  10.344 -0.6303  0.0418 -0.3629
  535MOL0     N72141  11.952   8.442  10.413 -0.1372 -0.1936  0.7807
  535MOL0     C72142  11.053   8.723  10.728 -0.5685  0.1475  0.9809
  535MOL0     C72143  11.016   8.633  10.817  0.7356 -0.1870 -0.2823
  535MOL0     C72144  11.057   8.275  11.116  0.7602 -0.1432 -0.0984
  535MOL0     C72145  10.919   8.276  11.104  0.5630  0.5227 -0.2421
  535MOL0     C72146  10.840   8.206  11.188 -0.5978 -0.2273  0.5667
  535MOL0     C72147  10.891   8.114  11.275 -0.2669 -0.1792  0.5165
  535MOL0     O72148  10.831   8.024  11.351  0.0506  0.5354  0.2704
  535MOL0     C72149  10.689   8.004  11.355  0.6121 -0.1967 -0.4386
  535MOL0     C72150  10.633   7.946  11.215  0.4393 -0.5232  0.0797
  535MOL0     C72151  10.502   7.872  11.226 -0.2422 -0.4259 -0.5838
  535MOL0     C72152  10.515   7.732  11.302  0.5960 -0.9985 -0.3297
  535MOL0     C72153  10.589   7.625  11.219 -0.6041  0.4715  1.5096
  535MOL0     C72154  10.648   7.541  11.151  0.0784  0.6669 -0.4845
  535MOL0     C72155  11.038   8.118  11.287 -0.0788  0.6591 -0.1063
  535MOL0     C72156  11.123   8.193  11.219 -0.4709 -0.5749  0.3044
  535MOL0     C72157  11.281   8.163  11.233 -0.1529  0.1349 -0.6609
  535MOL0     H72158  11.323   8.583  10.958  1.3136  1.8322  0.6432
  535MOL0     H72159  11.389   8.726  10.795 -0.5545  1.7684 -1.1201
  535MOL0     H72160  11.401   8.729  10.550  3.6624  1.6666  2.8749
  535MOL0     H72161  11.357   8.866  10.449 -0.9891  3.4866  1.9618
  535MOL0     H72162  11.419   8.915  10.746  0.1844 -0.7801  0.8962
  535MOL0     H72163  11.468   9.025  10.614 -1.8780  0.1704  1.9868
  535MOL0     H72164  11.608   8.819  10.533 -3.0645  1.4480 -1.4623
  535MOL0     H72165  11.618   8.773  10.709 -1.4257  0.6508  0.5206
  535MOL0     H72166  11.705   9.032  10.582 -2.2032 -0.1363  0.3211
  535MOL0     H72167  11.743   8.974  10.754  0.4741 -1.7371  0.4785
  535MOL0     H72168  11.851   8.869  10.480  0.0159 -1.5046 -0.3747
  535MOL0     H72169  11.945   8.944  10.598 -0.6182  0.7910 -1.0111
  535MOL0     H72170  11.889   8.736  10.756 -0.3784  4.0063  0.3385
  535MOL0     H72171  11.826   8.651  10.611  0.6810 -1.5460 -0.8964
  535MOL0     H72172  12.047   8.589  10.671 -0.8445  2.0156  1.9797
  535MOL0     H72173  12.117   8.750  10.670 -0.4759 -0.2322  1.4444
  535MOL0     H72174  12.076   8.757  10.428 -1.3040  0.9522  2.5983
  535MOL0     H72175  12.174   8.618  10.455  0.3557  0.4109 -1.1043
  535MOL0     H72176  11.843   8.750  10.325 -1.5263 -0.7029 -2.2661
  535MOL0     H72177  11.652   8.657  10.189  1.0086 -0.4754  0.4770
  535MOL0     H72178  11.654   8.498  10.122  1.2154  1.4807 -0.8323
  535MOL0     H72179  11.570   8.430  10.364 -1.9581 -0.2599  0.9838
  535MOL0     H72180  11.512   8.595  10.366 -0.4471 -0.3472 -0.1412
  535MOL0     H72181  11.421   8.361  10.193 -1.9132 -0.3914  0.1388
  535MOL0     H72182  11.402   8.525  10.127 -3.8130 -2.0421  0.3782
  535MOL0     H72183  11.309   8.443  10.392  2.7251 -3.0128 -2.1515
  535MOL0     H72184  11.214   8.417  10.254  2.0180 -3.1343  2.4805
  535MOL0     H72185  11.031   8.453  10.404  2.2537  0.4629  0.8346
  535MOL0     H72186  10.820   8.548  10.487 -1.0325 -0.0256 -0.6542
  535MOL0     H72187  10.591   8.746  10.868 -2.9810 -0.8151  2.0595
  535MOL0     H72188  10.386   8.714  10.928 -1.6002 -0.4472  0.7190
  535MOL0     H72189  10.186   8.680  10.982  0.5329  0.1009  0.6720
  535MOL0     H72190  10.143   8.823  10.888  1.0637 -0.5954  1.5529
  535MOL0     H72191   9.910   8.775  10.873  1.5519  0.8322  0.3856
  535MOL0     H72192   9.938   8.603  10.907  2.0015 -0.5103  3.0271
  535MOL0     H72193   9.851   8.724  11.092  1.1780 -0.9725  2.3690
  535MOL0     H72194  10.010   8.651  11.131  0.4848 -2.4243 -1.1829
  535MOL0     H72195   9.969   8.957  11.031 -3.8575  1.2083  1.0270
  535MOL0     H72196  10.106   8.904  11.128 -0.1165  0.8189 -3.5894
  535MOL0     H72197   9.940   8.877  11.323 -0.6458 -1.0538 -0.6383
  535MOL0     H72198   9.810   8.922  11.216 -0.2915  0.9947  3.1436
  535MOL0     H72199   9.964   9.129  11.149 -1.4733  1.1887  1.6131
  535MOL0     H72200   9.871   9.146  11.289  0.4298  1.3915  0.9484
  535MOL0     H72201  10.160   9.052  11.309  1.0814  1.3145 -2.7210
  535MOL0     H72202  10.065   9.083  11.443  2.5649  1.3197  0.8622
  535MOL0     H72203  10.202   9.268  11.393  0.1183 -0.1679 -0.3351
  535MOL0     H72204  10.122   9.296  11.240  1.4810 -0.2501  0.6470
  535MOL0     H72205  10.243   8.629  10.531 -0.5139 -0.4352  0.9478
  535MOL0     H72206  10.487   8.653  10.460 -1.1259 -0.4126 -0.8183
  535MOL0     H72207  10.909   8.927  10.333  0.2041  0.0080  1.9612
  535MOL0     H72208  11.130   8.859  10.260 -1.3631  0.1560 -0.4158
  535MOL0     H72209  10.975   8.776  10.674  1.2058  1.6981 -0.1835
  535MOL0     H72210  10.912   8.604  10.824  0.2489  1.0904 -1.5816
  535MOL0     H72211  10.871   8.340  11.032 -1.0066 -1.7121 -1.2923
  535MOL0     H72212  10.733   8.215  11.170 -0.8001  1.7687  2.2851
  535MOL0     H72213  10.652   8.103  11.385  3.7538  1.8875 -2.7301
  535MOL0     H72214  10.656   7.929  11.427  0.3645  0.3225  0.0008
  535MOL0     H72215  10.712   7.880  11.178  1.0384 -0.4227  1.1405
  535MOL0     H72216  10.627   8.029  11.145 -1.1204 -1.3973 -0.8964
  535MOL0     H72217  10.462   7.845  11.128 -2.2270 -0.1169  0.0873
  535MOL0     H72218  10.432   7.938  11.277 -1.2986 -0.5542 -1.8174
  535MOL0     H72219  10.567   7.742  11.397  3.1985 -1.2014 -1.6315
  535MOL0     H72220  10.414   7.700  11.328 -0.8265  1.8243 -1.9012
  535MOL0     H72221  10.698   7.466  11.093  2.1922  0.9524  0.8679
  535MOL0     H72222  11.093   8.042  11.342  1.0341  1.0467 -0.6452
  535MOL0     H72223  11.345   8.252  11.238 -0.0351 -0.0111  1.3453
  535MOL0     H72224  11.302   8.098  11.317 -1.2382  0.5830 -0.0214
  535MOL0     H72225  11.320   8.115  11.143 -0.9288  0.7132 -1.3262
  536MOL0     O72226   1.113  10.953   6.369 -0.1433  0.3085 -0.5643
  536MOL0     C72227   1.063  11.006   6.469  1.3534 -0.7132 -0.2546
  536MOL0     O72228   1.086  11.139   6.505 -0.2863  0.9461  0.3432
  536MOL0     C72229   1.149  11.220   6.423 -0.4694 -0.0190  0.2930
  536MOL0     C72230   1.288  11.239   6.421 -0.2271 -0.0418 -0.4840
  536MOL0     C72231   1.343  11.338   6.338  0.0432 -0.3564  0.5949
  536MOL0     C72232   1.265  11.399   6.240  0.1708  0.1182  1.4428
  536MOL0     O72233   1.333  11.489   6.158  0.2479 -0.0546  0.1304
  536MOL0     C72234   1.262  11.605   6.096 -0.0898  1.2686  0.4467
  536MOL0     C72235   1.342  11.666   5.986 -0.1356  0.2004 -0.1321
  536MOL0     C72236   1.469  11.729   6.041  0.9517 -0.7695 -0.1168
  536MOL0     C72237   1.449  11.877   6.102 -0.2912  0.0126  0.1451
  536MOL0     C72238   1.583  11.958   6.086  0.4634 -0.6067 -0.7596
  536MOL0     C72239   1.570  12.103   6.128 -0.4216 -0.0093  0.0403
  536MOL0     C72240   1.460  12.183   6.060 -0.2417  0.1490  0.0803
  536MOL0     C72241   1.483  12.212   5.914  0.1112  0.0510 -0.1686
  536MOL0     N72242   1.598  12.286   5.882  0.1072  0.1268  0.2729
  536MOL0     C72243   1.607  12.416   5.860  1.1725  0.4952  0.1879
  536MOL0     C72244   1.737  12.433   5.820 -0.5790  0.0247  0.3101
  536MOL0     C72245   1.798  12.566   5.793  0.4250  0.1359  0.4639
  536MOL0     C72246   1.713  12.665   5.712 -0.3903 -0.3593  0.3603
  536MOL0     C72247   1.683  12.618   5.568  0.3686 -0.7190 -0.2843
  536MOL0     C72248   1.798  12.597   5.473  0.1042 -0.3886 -0.1270
  536MOL0     O72249   1.869  12.720   5.482  0.4078  0.6683  0.3336
  536MOL0     C72250   1.990  12.734   5.425 -0.3019 -0.2040  0.8744
  536MOL0     C72251   2.092  12.667   5.487 -0.7130 -1.0646  0.0844
  536MOL0     C72252   2.225  12.692   5.441  0.6227 -0.5482 -0.7224
  536MOL0     C72253   2.251  12.775   5.326  1.2424 -0.2981 -0.1122
  536MOL0     C72254   2.393  12.789   5.275  0.7689 -0.0021 -0.3417
  536MOL0     O72255   2.485  12.719   5.336  0.1814 -0.5961  0.8313
  536MOL0     C72256   2.614  12.716   5.295  0.2308 -0.2555 -0.7889
  536MOL0     C72257   2.680  12.785   5.190  0.1693 -0.1512  0.1020
  536MOL0     C72258   2.825  12.763   5.183 -0.3996  0.3966 -0.2908
  536MOL0     C72259   2.899  12.673   5.272 -0.6271 -0.6391 -0.0364
  536MOL0     O72260   3.022  12.620   5.224  0.2950  0.1461  1.0808
  536MOL0     C72261   3.113  12.553   5.318 -0.0626  0.6159  0.3542
  536MOL0     C72262   3.118  12.397   5.286  1.1101 -0.2617  0.2080
  536MOL0     C72263   3.257  12.349   5.329  0.6443  0.1598  0.1658
  536MOL0     C72264   3.247  12.283   5.473  0.0820  0.0876 -1.0375
  536MOL0     C72265   3.386  12.221   5.508  0.0872 -0.3429 -0.5372
  536MOL0     C72266   3.497  12.322   5.525 -0.9462 -0.2976  0.2330
  536MOL0     C72267   3.632  12.258   5.558 -0.3038 -0.6439 -0.4188
  536MOL0     C72268   3.641  12.173   5.691  0.0719  0.2018  0.5724
  536MOL0    Cl72269   3.669  12.282   5.832  0.5922 -0.2400 -0.0115
  536MOL0     C72270   2.826  12.617   5.380 -0.0679 -0.4369 -0.1637
  536MOL0     C72271   2.695  12.650   5.390  0.1050  0.3354 -0.2796
  536MOL0     O72272   2.411  12.874   5.192  0.0613 -1.2343 -0.4234
  536MOL0     C72273   2.131  12.836   5.260 -0.3724 -0.8437  0.3540
  536MOL0     C72274   2.008  12.832   5.317  0.6114  0.6429 -0.2063
  536MOL0     N72275   1.808  12.311   5.823 -0.5109 -0.8164  0.1010
  536MOL0     N72276   1.716  12.227   5.862 -0.6707  0.3726  0.1816
  536MOL0     C72277   1.127  11.369   6.234  0.9411  0.5822  0.1880
  536MOL0     C72278   1.064  11.285   6.328 -0.9044  0.1174 -0.5411
  536MOL0     C72279   0.975  10.919   6.546  0.1462 -0.0102 -0.0373
  536MOL0     C72280   0.851  10.976   6.585 -0.4517 -0.7501 -0.4677
  536MOL0     C72281   0.764  10.905   6.657  0.0681 -1.0046 -1.2528
  536MOL0     C72282   0.791  10.772   6.697  0.4498 -0.4202 -0.3742
  536MOL0     O72283   0.701  10.707   6.773 -0.2307  0.6051  0.1301
  536MOL0     C72284   0.575  10.699   6.711 -0.2393 -1.2218 -0.5074
  536MOL0     C72285   0.493  10.582   6.769 -0.0565  0.3874 -0.3918
  536MOL0     C72286   0.340  10.568   6.723  0.5602  0.6229  0.8891
  536MOL0     C72287   0.331  10.574   6.575 -0.7408  0.0345  0.0566
  536MOL0     C72288   0.204  10.521   6.521  0.0272  0.6899 -0.5901
  536MOL0     C72289   0.094  10.480   6.507  0.4312 -0.0759 -0.4436
  536MOL0     C72290   0.905  10.713   6.639 -0.1163 -0.4317  0.5690
  536MOL0     C72291   1.001  10.778   6.572  0.6812 -0.2070  0.4207
  536MOL0     C72292   1.128  10.702   6.533  0.0261  0.6975 -0.4081
  536MOL0     H72293   1.340  11.183   6.498 -0.1776 -1.0854 -1.2490
  536MOL0     H72294   1.445  11.366   6.360  1.3139 -3.5264 -0.6924
  536MOL0     H72295   1.166  11.563   6.063 -1.2253  2.0425  2.5297
  536MOL0     H72296   1.253  11.677   6.179  1.5177 -1.6214  3.3684
  536MOL0     H72297   1.283  11.745   5.939 -0.6858  0.5309  1.0779
  536MOL0     H72298   1.380  11.592   5.915  1.8385  1.6934 -0.7128
  536MOL0     H72299   1.546  11.737   5.964  0.3661 -0.8793 -0.7247
  536MOL0     H72300   1.510  11.679   6.129 -0.8565  1.0345  1.8763
  536MOL0     H72301   1.370  11.941   6.061 -0.0948 -1.5750 -3.0674
  536MOL0     H72302   1.425  11.858   6.207 -0.3141 -1.8538 -0.1551
  536MOL0     H72303   1.646  11.916   6.164  1.1720  2.2188  0.3218
  536MOL0     H72304   1.626  11.940   5.987  0.0435 -0.1691 -1.0272
  536MOL0     H72305   1.555  12.104   6.236 -1.2475 -1.3505 -0.0406
  536MOL0     H72306   1.672  12.141   6.118 -0.8392  1.6654  1.5508
  536MOL0     H72307   1.468  12.280   6.110  0.8449  1.3846 -2.2998
  536MOL0     H72308   1.363  12.135   6.074  0.7454 -2.4953 -1.3253
  536MOL0     H72309   1.480  12.116   5.863  2.9982 -0.5995  0.6960
  536MOL0     H72310   1.393  12.270   5.893 -0.0483 -0.8073 -2.0037
  536MOL0     H72311   1.524  12.485   5.875 -1.3746 -2.8882  3.6328
  536MOL0     H72312   1.814  12.599   5.896 -2.1831 -0.5172  1.1690
  536MOL0     H72313   1.894  12.542   5.747 -1.3207 -0.7054 -3.0378
  536MOL0     H72314   1.614  12.676   5.758 -0.4203  1.2534 -0.0059
  536MOL0     H72315   1.760  12.764   5.717 -0.5619 -0.1105 -1.9799
  536MOL0     H72316   1.609  12.682   5.520  0.4988  0.2357  0.7439
  536MOL0     H72317   1.631  12.523   5.584 -1.1023  0.4792  2.7513
  536MOL0     H72318   1.762  12.566   5.375 -1.7167  1.4566 -0.1100
  536MOL0     H72319   1.851  12.514   5.522 -1.9795 -0.6826  1.7786
  536MOL0     H72320   2.078  12.597   5.570 -0.8742 -1.3139 -0.1528
  536MOL0     H72321   2.309  12.659   5.502  2.5115  2.5675 -1.4077
  536MOL0     H72322   2.629  12.842   5.114  1.7193  0.3626 -0.5939
  536MOL0     H72323   2.873  12.811   5.099 -1.2254  2.6598  0.4513
  536MOL0     H72324   3.211  12.602   5.309  1.4528 -2.2264  0.3162
  536MOL0     H72325   3.086  12.579   5.421 -0.0091  2.3760 -0.0435
  536MOL0     H72326   3.036  12.345   5.336 -0.1777 -1.4255 -2.9065
  536MOL0     H72327   3.104  12.369   5.181  1.7254 -2.5502  0.6718
  536MOL0     H72328   3.295  12.279   5.254  4.2070  2.7157 -0.7081
  536MOL0     H72329   3.328  12.432   5.332 -0.6606  1.4421 -1.9387
  536MOL0     H72330   3.172  12.204   5.475 -0.2933  0.4210  1.3885
  536MOL0     H72331   3.219  12.356   5.549  2.2227 -0.0727 -0.0136
  536MOL0     H72332   3.405  12.150   5.426  0.4643 -0.0639 -0.6960
  536MOL0     H72333   3.371  12.157   5.595 -0.6583 -3.0103 -2.4725
  536MOL0     H72334   3.513  12.373   5.429 -0.2848  2.0633  1.5267
  536MOL0     H72335   3.474  12.394   5.604 -0.4588 -0.3501  0.4255
  536MOL0     H72336   3.698  12.344   5.574 -3.0324  1.1758  2.0839
  536MOL0     H72337   3.653  12.191   5.474 -0.4091 -0.3842 -0.6488
  536MOL0     H72338   3.563  12.097   5.699 -0.1842  0.0940 -2.1841
  536MOL0     H72339   3.734  12.117   5.678 -0.6680 -0.5481 -2.1651
  536MOL0     H72340   2.875  12.561   5.459 -0.4373  2.5647  2.3783
  536MOL0     H72341   2.636  12.618   5.475  0.1007 -0.6031 -0.6233
  536MOL0     H72342   2.138  12.908   5.179 -0.8628 -1.4023 -0.1943
  536MOL0     H72343   1.930  12.896   5.278  0.4903  1.4012  1.2102
  536MOL0     H72344   1.057  11.405   6.159  2.9110  0.3454 -1.8810
  536MOL0     H72345   0.956  11.269   6.323 -1.0546  1.3300 -5.0527
  536MOL0     H72346   0.828  11.079   6.558 -0.9858 -0.4794  0.9341
  536MOL0     H72347   0.670  10.947   6.691  1.3319 -0.5281  1.9735
  536MOL0     H72348   0.590  10.694   6.603  1.7340  0.2201 -0.3540
  536MOL0     H72349   0.521  10.792   6.730  0.2099 -0.9501 -0.5369
  536MOL0     H72350   0.494  10.580   6.879 -2.3581 -2.4415 -0.2935
  536MOL0     H72351   0.562  10.499   6.752  1.3833  1.2217  1.0506
  536MOL0     H72352   0.269  10.633   6.775 -2.0549  0.9497 -2.7152
  536MOL0     H72353   0.312  10.465   6.745 -1.0400  0.8980  0.2881
  536MOL0     H72354   0.339  10.671   6.526 -1.3913 -0.3800 -0.9027
  536MOL0     H72355   0.404  10.508   6.528 -0.5194 -0.5325  1.1624
  536MOL0     H72356  -0.008  10.455   6.488  1.0289 -2.1085 -1.2817
  536MOL0     H72357   0.939  10.617   6.677 -0.7240 -0.2317  1.6510
  536MOL0     H72358   1.087  10.659   6.441 -0.1420 -0.9374  0.3978
  536MOL0     H72359   1.215  10.764   6.511  0.1979  0.4279 -0.4987
  536MOL0     H72360   1.159  10.622   6.600  0.7131  0.4135 -1.0492
  537MOL0     O72361   5.892   2.475   8.073 -0.6390  1.1014  0.8909
  537MOL0     C72362   5.902   2.592   8.105 -0.0297  0.0940  0.5240
  537MOL0     O72363   5.944   2.692   8.019  0.3789  0.4868 -0.5432
  537MOL0     C72364   5.932   2.669   7.884  0.4993 -0.7065 -0.9560
  537MOL0     C72365   6.020   2.751   7.814  0.4724  0.1517 -0.0513
  537MOL0     C72366   6.021   2.754   7.676 -0.8393 -0.0801  1.2116
  537MOL0     C72367   5.937   2.674   7.605  0.2266 -0.5534  0.3182
  537MOL0     O72368   5.933   2.695   7.470  0.5870 -0.1990  0.5321
  537MOL0     C72369   5.818   2.642   7.395  0.4111  0.4903  0.0163
  537MOL0     C72370   5.801   2.721   7.265  0.0054  0.5315 -0.1850
  537MOL0     C72371   5.934   2.734   7.187  0.5855  0.4458 -0.1101
  537MOL0     C72372   6.023   2.616   7.177 -0.0351 -0.5713  0.2109
  537MOL0     C72373   6.135   2.650   7.079  0.5353 -0.5722  0.0574
  537MOL0     C72374   6.216   2.521   7.070 -0.3863  0.3148 -0.0690
  537MOL0     C72375   6.323   2.548   6.965 -0.5863 -0.1230  0.1662
  537MOL0     C72376   6.431   2.434   6.979 -0.6059 -0.4636  0.1029
  537MOL0     N72377   6.534   2.435   6.878  0.6663  0.2692 -0.1788
  537MOL0     C72378   6.520   2.390   6.750 -0.6022 -0.3951  0.4827
  537MOL0     C72379   6.629   2.437   6.685 -0.8471 -0.2003 -0.5554
  537MOL0     C72380   6.656   2.432   6.542  0.3072  0.7635 -0.3527
  537MOL0     C72381   6.559   2.499   6.442 -0.2938 -0.2295  0.3129
  537MOL0     C72382   6.546   2.650   6.452 -0.2556 -0.6361 -0.2394
  537MOL0     C72383   6.675   2.738   6.482 -0.4114  0.5425  1.3526
  537MOL0     O72384   6.640   2.882   6.495  0.1387  0.9815 -0.2746
  537MOL0     C72385   6.589   2.917   6.621 -0.8527 -0.5068 -0.1184
  537MOL0     C72386   6.571   2.832   6.728 -0.1721  0.2055  0.2563
  537MOL0     C72387   6.513   2.873   6.850 -0.5534 -1.0759 -0.4689
  537MOL0     C72388   6.486   3.015   6.875 -0.3699  0.5218 -1.2521
  537MOL0     C72389   6.433   3.053   7.006  0.8381 -0.4442 -0.0124
  537MOL0     O72390   6.358   2.961   7.076  0.2451  0.2683 -0.2387
  537MOL0     C72391   6.287   3.005   7.189 -0.0697 -1.6972 -0.4904
  537MOL0     C72392   6.156   3.055   7.162 -0.0926  0.0190  0.8959
  537MOL0     C72393   6.069   3.093   7.265 -0.7325 -0.0903  0.5794
  537MOL0     C72394   6.117   3.094   7.398  0.5960 -0.7628  0.8401
  537MOL0     O72395   6.047   3.139   7.498  0.2711  0.1910 -0.8128
  537MOL0     C72396   5.916   3.193   7.469 -1.2470 -0.0098 -0.4370
  537MOL0     C72397   5.842   3.227   7.599 -0.0663 -0.1288 -1.2561
  537MOL0     C72398   5.817   3.103   7.680 -0.1331 -0.6545  0.4582
  537MOL0     C72399   5.768   3.145   7.813 -0.2762  0.1664 -0.2689
  537MOL0     C72400   5.718   3.040   7.899  0.5827  0.0380 -0.2366
  537MOL0     C72401   5.572   2.998   7.859 -0.9171  0.1111 -0.9178
  537MOL0     C72402   5.568   2.876   7.759  0.2366  0.2755 -0.3666
  537MOL0     C72403   5.450   2.793   7.798  0.1989  0.4082  0.3202
  537MOL0    Cl72404   5.432   2.636   7.708  0.0348  0.4262  0.5587
  537MOL0     C72405   6.242   3.052   7.432 -0.8897  1.1089  0.5306
  537MOL0     C72406   6.322   3.001   7.327  0.4089 -0.5101  0.4153
  537MOL0     O72407   6.437   3.172   7.021 -0.5171 -0.1009  0.3873
  537MOL0     C72408   6.504   3.101   6.767  0.6853 -0.0177 -0.8681
  537MOL0     C72409   6.551   3.058   6.641  0.1044  0.8168 -0.9842
  537MOL0     N72410   6.701   2.514   6.773  0.5017 -0.5406 -0.0479
  537MOL0     N72411   6.648   2.513   6.891  0.5776 -0.0088 -0.4855
  537MOL0     C72412   5.853   2.580   7.675  0.0219  0.4075  0.2605
  537MOL0     C72413   5.852   2.575   7.811 -0.1743  0.2771  0.3434
  537MOL0     C72414   5.867   2.622   8.240 -0.6836 -1.3637 -0.1347
  537MOL0     C72415   5.903   2.537   8.350 -0.3352  0.0933  0.7950
  537MOL0     C72416   5.882   2.572   8.479  0.9569 -0.2106  0.0584
  537MOL0     C72417   5.806   2.682   8.514  0.1364  0.5126 -0.2932
  537MOL0     O72418   5.777   2.701   8.648 -0.9200 -0.6560  0.6304
  537MOL0     C72419   5.665   2.787   8.677  0.0489  0.5002 -0.0988
  537MOL0     C72420   5.546   2.702   8.683  0.0327 -0.0385  0.9219
  537MOL0     C72421   5.425   2.787   8.711 -0.1027  0.1779  0.4220
  537MOL0     C72422   5.351   2.879   8.602  0.5077  0.1638  0.1157
  537MOL0     C72423   5.435   2.984   8.539 -0.0950 -0.8832  0.2564
  537MOL0     C72424   5.522   3.063   8.500  0.7898  0.6071 -0.5222
  537MOL0     C72425   5.774   2.775   8.410  0.2159  0.2066  0.4897
  537MOL0     C72426   5.806   2.749   8.276  0.3247 -0.1130 -0.4316
  537MOL0     C72427   5.770   2.861   8.187  0.4249 -0.4104  0.2581
  537MOL0     H72428   6.092   2.811   7.869  1.1296 -1.3742  0.8267
  537MOL0     H72429   6.069   2.831   7.616 -3.4623  1.2637  0.7072
  537MOL0     H72430   5.831   2.541   7.357  1.8740  0.8622 -0.5246
  537MOL0     H72431   5.722   2.655   7.446  0.9396  3.2506  0.4993
  537MOL0     H72432   5.758   2.821   7.280 -1.6662 -0.5789  3.7426
  537MOL0     H72433   5.721   2.669   7.210  0.2207 -2.1329  1.8317
  537MOL0     H72434   5.990   2.815   7.237  3.4293 -0.4670 -1.5772
  537MOL0     H72435   5.901   2.770   7.089 -0.3109  1.6918  0.6191
  537MOL0     H72436   6.066   2.613   7.277 -0.0715  1.1817  0.3179
  537MOL0     H72437   5.958   2.535   7.143 -0.4921 -0.1476  0.0544
  537MOL0     H72438   6.100   2.692   6.984  2.6058 -0.0192 -0.5063
  537MOL0     H72439   6.199   2.731   7.112  0.1040 -0.5301  0.8018
  537MOL0     H72440   6.258   2.491   7.167 -3.9739  2.9396  2.5737
  537MOL0     H72441   6.154   2.438   7.036 -2.0643  1.6347 -0.4277
  537MOL0     H72442   6.378   2.643   6.968  0.6797 -0.8491  1.0001
  537MOL0     H72443   6.273   2.526   6.870 -1.1380 -0.1616  0.4630
  537MOL0     H72444   6.489   2.442   7.071 -1.1161  1.6552  0.2829
  537MOL0     H72445   6.384   2.335   6.977 -0.7503 -0.4622 -3.2868
  537MOL0     H72446   6.441   2.326   6.712  0.9901 -1.9348 -0.3801
  537MOL0     H72447   6.756   2.469   6.520  1.8777 -2.1622  1.2925
  537MOL0     H72448   6.656   2.328   6.509 -0.3363  1.3713 -2.4334
  537MOL0     H72449   6.607   2.482   6.345  0.8771  3.7604 -0.0046
  537MOL0     H72450   6.458   2.457   6.447 -1.4378  2.3275  0.4125
  537MOL0     H72451   6.461   2.665   6.518 -0.5142 -0.1921 -0.6707
  537MOL0     H72452   6.503   2.693   6.361  1.4195  0.4277 -0.5730
  537MOL0     H72453   6.742   2.731   6.396 -0.6391 -2.8055  1.3036
  537MOL0     H72454   6.731   2.702   6.569  0.7983 -0.4996  0.1949
  537MOL0     H72455   6.573   2.723   6.718  1.4426  0.3369 -1.3249
  537MOL0     H72456   6.497   2.805   6.934  0.1491 -0.2722  0.3368
  537MOL0     H72457   6.124   3.076   7.061 -2.2932 -1.3120  1.2483
  537MOL0     H72458   5.969   3.124   7.237 -0.7354 -0.9385 -0.3902
  537MOL0     H72459   5.930   3.284   7.410  0.4623  0.2036  0.2304
  537MOL0     H72460   5.858   3.124   7.407 -0.2107 -0.3447 -1.0603
  537MOL0     H72461   5.893   3.304   7.657  2.8076  0.1325 -3.8465
  537MOL0     H72462   5.741   3.266   7.583 -2.0299 -3.6388  1.2520
  537MOL0     H72463   5.750   3.033   7.629 -0.2995  0.7082 -1.2901
  537MOL0     H72464   5.908   3.043   7.689 -0.5476 -1.2290  0.8499
  537MOL0     H72465   5.694   3.225   7.807 -1.5789 -0.9135  0.7501
  537MOL0     H72466   5.855   3.193   7.859  0.0066  0.7756 -1.3905
  537MOL0     H72467   5.709   3.051   8.008  1.0804 -5.3752  0.6658
  537MOL0     H72468   5.784   2.953   7.892  2.2050  1.2023  0.1489
  537MOL0     H72469   5.516   2.968   7.948  1.0115 -0.2666  0.2192
  537MOL0     H72470   5.527   3.088   7.815  0.7649  2.0947  1.1320
  537MOL0     H72471   5.659   2.815   7.760 -1.0184 -1.6695  0.5166
  537MOL0     H72472   5.563   2.920   7.658 -2.2625 -2.8013 -1.7324
  537MOL0     H72473   5.463   2.771   7.904 -1.7301  0.0483  0.5238
  537MOL0     H72474   5.359   2.853   7.786 -0.1568 -0.3856 -1.3397
  537MOL0     H72475   6.274   3.056   7.536  0.2744  1.2119  0.1790
  537MOL0     H72476   6.424   2.972   7.352  0.0906 -2.7332 -0.6125
  537MOL0     H72477   6.500   3.209   6.771 -1.1664 -0.0762 -0.6047
  537MOL0     H72478   6.583   3.121   6.559  0.3304 -0.7221 -2.1139
  537MOL0     H72479   5.800   2.511   7.610 -2.9345  2.7932 -0.1294
  537MOL0     H72480   5.780   2.504   7.852 -0.8642  2.0280  2.3438
  537MOL0     H72481   5.963   2.453   8.316  3.2449  2.0843  1.6690
  537MOL0     H72482   5.913   2.511   8.563 -0.7456  1.4704  2.0257
  537MOL0     H72483   5.663   2.875   8.613 -0.3973  0.2258 -0.4654
  537MOL0     H72484   5.689   2.827   8.776  2.3360  2.8854 -1.4729
  537MOL0     H72485   5.559   2.622   8.758 -0.4008 -0.6679  0.3344
  537MOL0     H72486   5.529   2.652   8.587  0.6800  0.1082  0.7231
  537MOL0     H72487   5.457   2.854   8.791  0.3585 -1.4501  1.6472
  537MOL0     H72488   5.342   2.733   8.757 -0.5949  2.3940  2.3254
  537MOL0     H72489   5.309   2.806   8.532  1.9642  0.6842 -1.3593
  537MOL0     H72490   5.261   2.925   8.643 -0.1431  1.7318 -2.7947
  537MOL0     H72491   5.595   3.137   8.473  1.3781 -0.8640 -3.3400
  537MOL0     H72492   5.724   2.869   8.432 -0.6849 -0.4767  1.4868
  537MOL0     H72493   5.690   2.920   8.233  1.1324 -2.6793  5.0282
  537MOL0     H72494   5.857   2.926   8.176  0.2574 -0.3533 -0.8528
  537MOL0     H72495   5.740   2.821   8.090  0.4015  0.2212  0.0042
  538MOL0     O72496   6.971   1.011  10.209  0.3036  0.2701  0.3363
  538MOL0     C72497   6.906   0.905  10.171  0.9354 -0.4975 -0.5184
  538MOL0     O72498   6.850   0.886  10.047  0.2194 -0.2350 -0.0131
  538MOL0     C72499   6.884   0.957   9.941 -0.1779 -0.6202  0.3533
  538MOL0     C72500   6.974   0.918   9.841  0.5097  0.9735 -0.1756
  538MOL0     C72501   6.997   0.988   9.725  0.3785  0.1517 -0.1643
  538MOL0     C72502   6.917   1.105   9.704  0.2033 -0.0318  0.4034
  538MOL0     O72503   6.950   1.187   9.595  0.0154 -0.6150 -0.8406
  538MOL0     C72504   6.853   1.187   9.494  0.7689  1.2878  0.0262
  538MOL0     C72505   6.877   1.308   9.410  0.8917 -0.1345  0.3617
  538MOL0     C72506   6.768   1.329   9.295  0.1530  0.4180  0.4836
  538MOL0     C72507   6.775   1.470   9.230 -0.1250 -0.4430 -0.3821
  538MOL0     C72508   6.703   1.461   9.098 -0.3845 -0.3584  1.2461
  538MOL0     C72509   6.791   1.429   8.971 -0.7217  0.3149 -0.1172
  538MOL0     C72510   6.696   1.412   8.849  0.4948 -0.2134 -0.6209
  538MOL0     C72511   6.775   1.388   8.717  0.7510 -1.6117  0.7837
  538MOL0     N72512   6.811   1.521   8.674  0.0157 -0.2141 -1.2171
  538MOL0     C72513   6.928   1.596   8.718  0.5851 -0.1647 -0.0976
  538MOL0     C72514   6.915   1.714   8.640 -0.1378  0.2481 -0.3829
  538MOL0     C72515   7.009   1.827   8.639 -0.3341 -0.4710  0.5869
  538MOL0     C72516   6.930   1.963   8.623  0.7231 -0.1676 -0.9651
  538MOL0     C72517   7.014   2.082   8.580 -0.1681  1.6153 -0.7399
  538MOL0     C72518   6.942   2.214   8.587 -0.5681 -0.0999 -0.2282
  538MOL0     O72519   6.813   2.171   8.535  0.0803 -0.2831 -0.7374
  538MOL0     C72520   6.695   2.213   8.591 -0.5337  0.0569 -0.6566
  538MOL0     C72521   6.683   2.279   8.715  0.3965 -0.9584 -0.1990
  538MOL0     C72522   6.557   2.320   8.757  0.0536 -0.9617  0.2306
  538MOL0     C72523   6.441   2.296   8.681 -0.0244  0.1184 -0.1755
  538MOL0     C72524   6.307   2.330   8.729 -0.3593 -0.0017  0.3807
  538MOL0     O72525   6.292   2.373   8.851  0.0961 -0.5574 -0.4243
  538MOL0     C72526   6.180   2.418   8.913  0.5268 -0.8470 -0.7496
  538MOL0     C72527   6.201   2.428   9.050 -0.1250 -1.1697  0.2317
  538MOL0     C72528   6.102   2.481   9.127 -0.8887 -0.2491 -0.7401
  538MOL0     C72529   5.970   2.500   9.084  0.6872 -0.1638 -0.3527
  538MOL0     O72530   5.873   2.542   9.164 -0.0229 -0.0860  0.6550
  538MOL0     C72531   5.860   2.527   9.309 -0.7924  0.4476 -1.0539
  538MOL0     C72532   5.723   2.472   9.342 -0.2103  0.1988  0.0333
  538MOL0     C72533   5.599   2.563   9.318  1.1338  0.5965 -0.0414
  538MOL0     C72534   5.468   2.493   9.306  0.0697 -0.8814 -0.2154
  538MOL0     C72535   5.347   2.595   9.306 -1.3163 -0.0272 -0.9022
  538MOL0     C72536   5.350   2.701   9.417 -0.0927  0.4013 -0.3381
  538MOL0     C72537   5.337   2.652   9.555 -0.8549  0.1719  0.0218
  538MOL0     C72538   5.301   2.778   9.644  0.5770 -0.0417 -0.7921
  538MOL0    Cl72539   5.457   2.839   9.699 -0.0746  0.2600 -0.0596
  538MOL0     C72540   5.951   2.494   8.940 -1.4407  0.1362 -0.8173
  538MOL0     C72541   6.057   2.455   8.857  0.1762 -0.6868  1.3397
  538MOL0     O72542   6.217   2.322   8.645  0.0424 -0.2888 -0.5755
  538MOL0     C72543   6.455   2.233   8.556  0.4420  0.7696 -0.0988
  538MOL0     C72544   6.586   2.188   8.515 -0.3537  0.3596 -0.0453
  538MOL0     N72545   6.804   1.702   8.563  0.5603  0.7916  0.4578
  538MOL0     N72546   6.741   1.592   8.583 -0.8894 -0.1701 -0.3399
  538MOL0     C72547   6.821   1.147   9.799 -0.2662  0.7453  0.0529
  538MOL0     C72548   6.803   1.067   9.913  0.0772 -0.1762 -0.2504
  538MOL0     C72549   6.888   0.793  10.260 -0.6963  0.5701  0.2600
  538MOL0     C72550   6.963   0.796  10.374  0.0589 -0.1918 -1.3167
  538MOL0     C72551   6.977   0.692  10.460 -0.4963 -0.5399  0.6626
  538MOL0     C72552   6.934   0.562  10.427 -0.1281 -0.6188 -0.5313
  538MOL0     O72553   6.960   0.452  10.505 -0.6858  0.3960  0.1016
  538MOL0     C72554   6.979   0.466  10.645 -0.1632  0.9405 -0.7460
  538MOL0     C72555   7.079   0.353  10.683  0.3813 -0.0991  1.1463
  538MOL0     C72556   7.145   0.384  10.814 -0.0596  0.1914 -0.0694
  538MOL0     C72557   7.265   0.281  10.859 -0.2990 -0.3608 -0.2604
  538MOL0     C72558   7.373   0.283  10.766 -0.4105 -0.6852  0.7814
  538MOL0     C72559   7.472   0.303  10.704 -0.6822  1.0025 -0.0821
  538MOL0     C72560   6.848   0.557  10.317  0.3435  0.0158 -0.2423
  538MOL0     C72561   6.821   0.668  10.232 -0.5756 -0.3619  0.5226
  538MOL0     C72562   6.747   0.641  10.105 -0.2928  0.0453  0.7252
  538MOL0     H72563   7.037   0.832   9.861  0.4933  0.9030 -0.4131
  538MOL0     H72564   7.074   0.962   9.653 -0.3912 -1.6286 -0.4039
  538MOL0     H72565   6.877   1.099   9.434 -0.6063  0.0952  1.1358
  538MOL0     H72566   6.751   1.171   9.531  0.2507  0.4731 -1.6633
  538MOL0     H72567   6.975   1.308   9.362  0.4310  1.4979 -0.6402
  538MOL0     H72568   6.872   1.393   9.479 -3.0208 -2.0243  2.7569
  538MOL0     H72569   6.673   1.332   9.351 -0.0568  1.5010  0.1014
  538MOL0     H72570   6.773   1.256   9.214  0.0145 -0.0278  0.8701
  538MOL0     H72571   6.730   1.542   9.299 -0.7282 -0.0531 -1.1562
  538MOL0     H72572   6.875   1.510   9.219 -0.4726  0.1416 -1.5252
  538MOL0     H72573   6.618   1.393   9.105 -0.5180 -0.4998 -1.0054
  538MOL0     H72574   6.664   1.563   9.085 -1.1494 -0.7697  0.2348
  538MOL0     H72575   6.868   1.506   8.963  2.0665 -1.9661  2.2655
  538MOL0     H72576   6.849   1.338   8.991 -0.9410  0.4631  1.3095
  538MOL0     H72577   6.626   1.496   8.844 -1.5398 -1.6334  1.6216
  538MOL0     H72578   6.649   1.314   8.863  3.9125 -2.1185 -1.5085
  538MOL0     H72579   6.858   1.326   8.752  1.4788  0.4099  2.8691
  538MOL0     H72580   6.722   1.330   8.641 -1.1603 -0.2083  0.9719
  538MOL0     H72581   7.003   1.573   8.793 -0.7789 -1.0435  1.0271
  538MOL0     H72582   7.080   1.832   8.722  2.2679  0.7885 -1.5649
  538MOL0     H72583   7.070   1.825   8.548 -0.5174  4.5387  0.0876
  538MOL0     H72584   6.849   1.942   8.552 -1.7103 -0.5824  1.7143
  538MOL0     H72585   6.887   2.008   8.713 -0.6135 -1.1368 -1.0821
  538MOL0     H72586   7.053   2.051   8.482  2.3498 -0.5297  0.8122
  538MOL0     H72587   7.109   2.089   8.633 -0.3872 -2.9544  0.6840
  538MOL0     H72588   7.000   2.280   8.523 -1.9754  1.7576  0.3352
  538MOL0     H72589   6.943   2.245   8.692 -3.6089 -2.0298  0.5037
  538MOL0     H72590   6.767   2.285   8.784 -1.8326 -1.6138  2.7413
  538MOL0     H72591   6.551   2.362   8.857 -1.3733 -2.4224  0.8109
  538MOL0     H72592   6.294   2.394   9.094 -1.5089 -1.3145  3.3527
  538MOL0     H72593   6.136   2.490   9.230 -0.0973  2.1146 -1.1490
  538MOL0     H72594   5.938   2.455   9.333  2.0604  2.1986 -4.1755
  538MOL0     H72595   5.881   2.618   9.365 -1.1994 -0.2633  0.2897
  538MOL0     H72596   5.715   2.376   9.289  0.5696  0.3693 -0.4129
  538MOL0     H72597   5.729   2.449   9.449 -0.9826  2.0317  0.5082
  538MOL0     H72598   5.608   2.619   9.412 -1.5714 -2.4716  2.2770
  538MOL0     H72599   5.609   2.636   9.237  0.9667  1.6152  0.8237
  538MOL0     H72600   5.457   2.429   9.393  3.4658 -3.5543 -1.5387
  538MOL0     H72601   5.469   2.441   9.210  1.1748 -1.4106  0.0638
  538MOL0     H72602   5.249   2.546   9.310 -1.3493 -0.2215 -3.1211
  538MOL0     H72603   5.351   2.653   9.214 -2.1405  1.1114 -0.2399
  538MOL0     H72604   5.440   2.763   9.408  0.8511 -0.2232  3.2569
  538MOL0     H72605   5.267   2.769   9.395  0.7688  1.3892 -0.6041
  538MOL0     H72606   5.437   2.629   9.592 -1.8043 -1.3593  1.7776
  538MOL0     H72607   5.259   2.575   9.561 -0.7578  0.0241 -0.5403
  538MOL0     H72608   5.260   2.864   9.591 -0.3410 -0.8049 -1.3509
  538MOL0     H72609   5.240   2.754   9.732 -1.3041  1.8995 -1.4711
  538MOL0     H72610   5.855   2.539   8.913 -0.5415  0.6347 -3.5056
  538MOL0     H72611   6.048   2.440   8.750  2.9608  3.6022  0.2683
  538MOL0     H72612   6.370   2.199   8.498 -0.2560  0.2462  1.2094
  538MOL0     H72613   6.604   2.131   8.425  1.3551 -0.3958  0.7342
  538MOL0     H72614   6.761   1.236   9.786  0.0862  1.2344  1.5795
  538MOL0     H72615   6.737   1.085   9.998  0.7211 -1.4997  0.5525
  538MOL0     H72616   7.004   0.885  10.421 -2.8184 -0.5858  2.4574
  538MOL0     H72617   7.029   0.700  10.555 -0.2265 -0.7787  0.5376
  538MOL0     H72618   6.890   0.455  10.708  1.2903  0.2695  1.2707
  538MOL0     H72619   7.028   0.560  10.671 -0.3298  0.6468  0.6995
  538MOL0     H72620   7.154   0.336  10.605  2.1684 -1.0139  2.9754
  538MOL0     H72621   7.023   0.259  10.679 -0.3725  0.3516 -2.1841
  538MOL0     H72622   7.082   0.369  10.902  1.5903  2.5784  1.6492
  538MOL0     H72623   7.187   0.485  10.816 -0.8786  0.5827 -1.2178
  538MOL0     H72624   7.285   0.295  10.965  0.5294 -1.0350 -0.3119
  538MOL0     H72625   7.229   0.178  10.862  3.1975 -1.7147  2.3356
  538MOL0     H72626   7.548   0.332  10.634  0.1926 -1.2626 -0.1566
  538MOL0     H72627   6.802   0.461  10.296  2.5283 -1.1176 -0.0539
  538MOL0     H72628   6.705   0.540  10.113  0.3575 -0.1465  1.9410
  538MOL0     H72629   6.661   0.709  10.105 -1.1806 -0.9934  2.8095
  538MOL0     H72630   6.802   0.647  10.010 -0.7448 -1.6502  0.3287
  539MOL0     O72631   5.433  10.492   8.444  0.5776 -0.4273 -0.4400
  539MOL0     C72632   5.532  10.429   8.403  0.2232  0.0858 -0.4001
  539MOL0     O72633   5.657  10.440   8.447 -0.0617 -0.0044 -0.8824
  539MOL0     C72634   5.693  10.521   8.557 -0.0733  0.2023  0.5725
  539MOL0     C72635   5.825  10.572   8.558 -0.5517  0.9330  0.1936
  539MOL0     C72636   5.862  10.663   8.649 -0.6445 -0.2211  0.0847
  539MOL0     C72637   5.784  10.700   8.761  0.2368 -0.7366  0.1180
  539MOL0     O72638   5.819  10.784   8.865  0.7032  0.5783  1.2053
  539MOL0     C72639   5.945  10.766   8.916  1.0468  0.3043 -0.1787
  539MOL0     C72640   6.033  10.876   8.865 -0.3655  0.1725 -0.3995
  539MOL0     C72641   6.172  10.858   8.931 -0.2627 -0.1242  0.0339
  539MOL0     C72642   6.270  10.972   8.918 -0.4432  0.2593  0.0104
  539MOL0     C72643   6.406  10.929   8.962  0.8371  0.4275  0.4040
  539MOL0     C72644   6.490  11.047   9.000  0.3011  0.9994 -0.1596
  539MOL0     C72645   6.499  11.148   8.889 -0.2114  0.4139  0.1489
  539MOL0     C72646   6.633  11.113   8.811 -0.5337  0.6512 -1.4174
  539MOL0     N72647   6.674  11.190   8.695 -0.4425  0.9893  0.3149
  539MOL0     C72648   6.619  11.188   8.575  1.6207  0.3120 -0.2544
  539MOL0     C72649   6.705  11.247   8.486 -0.8461  0.4750  0.0937
  539MOL0     C72650   6.705  11.259   8.329  0.0835  1.4630 -0.6538
  539MOL0     C72651   6.752  11.395   8.278  0.3934  0.7490 -1.3084
  539MOL0     C72652   6.644  11.511   8.293 -0.8222 -0.5131  0.4866
  539MOL0     C72653   6.619  11.590   8.422 -0.7082 -0.1495  1.6237
  539MOL0     O72654   6.522  11.694   8.396  0.7655  0.1424  0.0438
  539MOL0     C72655   6.517  11.811   8.476  0.8511 -0.5867  0.0245
  539MOL0     C72656   6.404  11.890   8.464  0.1672 -0.6682  0.0784
  539MOL0     C72657   6.395  12.005   8.539 -1.2240 -0.4752 -0.0672
  539MOL0     C72658   6.488  12.032   8.638 -0.2481 -0.3773  0.6287
  539MOL0     C72659   6.477  12.155   8.721 -1.0373 -0.3685  0.5218
  539MOL0     O72660   6.436  12.270   8.661  0.1321  0.2189  0.6671
  539MOL0     C72661   6.427  12.387   8.734 -0.3682  0.1586 -0.1706
  539MOL0     C72662   6.484  12.498   8.673  0.2969  1.2759 -0.0735
  539MOL0     C72663   6.463  12.628   8.716  0.2243 -0.2062  0.1809
  539MOL0     C72664   6.389  12.651   8.838 -0.6311 -0.3583  0.4694
  539MOL0     O72665   6.402  12.765   8.903  0.3716  0.3487 -0.3228
  539MOL0     C72666   6.327  12.799   9.026  0.5775 -0.1901  0.0641
  539MOL0     C72667   6.328  12.951   9.042 -1.0885  0.2663 -0.4958
  539MOL0     C72668   6.344  12.990   9.189 -0.1736 -0.3006 -0.3700
  539MOL0     C72669   6.297  13.132   9.234 -0.1252  0.5999 -0.2127
  539MOL0     C72670   6.390  13.191   9.346 -0.4223 -0.4621 -0.0386
  539MOL0     C72671   6.388  13.108   9.487  0.2201  0.8912  0.1267
  539MOL0     C72672   6.441  13.184   9.612 -0.6134 -1.2386  0.6776
  539MOL0     C72673   6.459  13.125   9.759 -0.0879 -0.1937  0.7575
  539MOL0    Cl72674   6.544  12.978   9.726 -0.1737  0.5340  0.1060
  539MOL0     C72675   6.321  12.536   8.893  1.1117 -1.2842  0.0846
  539MOL0     C72676   6.338  12.414   8.833 -0.2152 -0.4934  0.3289
  539MOL0     O72677   6.516  12.141   8.839  0.3994  0.0539 -0.8912
  539MOL0     C72678   6.609  11.957   8.649  0.2518 -0.7898 -0.4186
  539MOL0     C72679   6.627  11.856   8.556  0.0341 -0.5583 -0.6152
  539MOL0     N72680   6.809  11.298   8.561  0.4575  0.7648  0.2353
  539MOL0     N72681   6.794  11.264   8.686 -0.1835  0.2813 -0.2545
  539MOL0     C72682   5.649  10.656   8.762 -0.6589  0.3062 -0.1900
  539MOL0     C72683   5.607  10.566   8.662  0.1397  0.3463 -0.8099
  539MOL0     C72684   5.520  10.332   8.282 -0.0806 -1.5223 -0.3589
  539MOL0     C72685   5.636  10.291   8.215 -0.3628 -0.2752 -1.1593
  539MOL0     C72686   5.624  10.214   8.102  0.6095 -0.7981  0.6651
  539MOL0     C72687   5.504  10.174   8.048 -0.2831 -0.1637  0.1756
  539MOL0     O72688   5.501  10.093   7.939 -1.0235 -0.3772 -0.8357
  539MOL0     C72689   5.577  10.122   7.822 -0.4600 -0.1810  0.7081
  539MOL0     C72690   5.494  10.172   7.698 -1.5250 -0.1789  1.1472
  539MOL0     C72691   5.405  10.294   7.729  1.0565 -0.8871  0.2196
  539MOL0     C72692   5.477  10.429   7.707 -0.5352  0.2787  0.9869
  539MOL0     C72693   5.422  10.504   7.596  0.3526 -0.0147  0.1389
  539MOL0     C72694   5.365  10.567   7.509 -0.8333 -0.2681  0.2344
  539MOL0     C72695   5.389  10.209   8.114  0.0952  0.0730 -0.1249
  539MOL0     C72696   5.397  10.281   8.237 -0.7949 -0.1444  0.6938
  539MOL0     C72697   5.269  10.313   8.308  0.9699  1.2886 -0.1542
  539MOL0     H72698   5.890  10.530   8.481 -1.5260 -1.3867  0.5433
  539MOL0     H72699   5.959  10.709   8.633 -1.4577  1.5748  0.0899
  539MOL0     H72700   5.930  10.763   9.024  0.3681 -1.7192 -0.2890
  539MOL0     H72701   5.986  10.669   8.885 -1.3919 -1.1493  0.8988
  539MOL0     H72702   5.996  10.971   8.906  2.1896  0.4755  1.4670
  539MOL0     H72703   6.044  10.872   8.757 -0.1273 -1.6902 -0.3320
  539MOL0     H72704   6.212  10.761   8.900  1.0295  0.3129  0.2657
  539MOL0     H72705   6.156  10.844   9.038 -0.6652  2.5005  0.3968
  539MOL0     H72706   6.277  10.998   8.812  0.7114  1.3309  0.3394
  539MOL0     H72707   6.243  11.058   8.979 -0.0291 -0.8875  1.8747
  539MOL0     H72708   6.412  10.849   9.037 -0.8489 -0.2519 -0.1392
  539MOL0     H72709   6.451  10.888   8.872 -2.0482 -2.3950  0.0551
  539MOL0     H72710   6.456  11.100   9.090 -1.2260  1.4202 -0.9358
  539MOL0     H72711   6.576  11.002   9.050 -1.8719 -1.8393  1.3471
  539MOL0     H72712   6.514  11.249   8.930  0.4147 -0.4311  2.1504
  539MOL0     H72713   6.416  11.163   8.820  1.6131  2.5519 -1.7293
  539MOL0     H72714   6.713  11.118   8.885 -0.9463 -3.6439 -0.3706
  539MOL0     H72715   6.644  11.005   8.799  1.3677 -0.5043  5.9636
  539MOL0     H72716   6.533  11.128   8.547  0.4901  1.5555  0.4582
  539MOL0     H72717   6.779  11.186   8.296  0.5207  1.1818  0.8425
  539MOL0     H72718   6.607  11.224   8.296  0.4343 -1.7229  1.2941
  539MOL0     H72719   6.849  11.420   8.322  2.0071 -1.2199 -3.4757
  539MOL0     H72720   6.760  11.383   8.170 -1.2138  2.7233 -1.7080
  539MOL0     H72721   6.548  11.463   8.274 -1.3194  0.4582  0.4904
  539MOL0     H72722   6.669  11.591   8.222 -2.9917  0.7223  1.0182
  539MOL0     H72723   6.717  11.624   8.456  0.1324  0.3951 -1.1266
  539MOL0     H72724   6.580  11.512   8.489  4.2125 -0.3753  4.7286
  539MOL0     H72725   6.328  11.858   8.395 -1.6798 -0.0463  1.7300
  539MOL0     H72726   6.316  12.079   8.529 -2.7578 -1.6448  2.3045
  539MOL0     H72727   6.549  12.485   8.588  0.7033  2.6739 -0.0040
  539MOL0     H72728   6.494  12.713   8.657 -0.7673  0.9471  1.2683
  539MOL0     H72729   6.223  12.765   9.023  0.3972  0.0474  2.3690
  539MOL0     H72730   6.378  12.748   9.107 -2.9498 -1.9556  1.3686
  539MOL0     H72731   6.412  12.984   8.980  0.7306  1.4127  2.3821
  539MOL0     H72732   6.237  12.999   9.005 -1.9221 -0.0992  0.9937
  539MOL0     H72733   6.278  12.914   9.232 -0.4558 -0.5996 -1.3043
  539MOL0     H72734   6.450  12.983   9.217 -0.3090 -0.7275  0.0476
  539MOL0     H72735   6.199  13.116   9.281  2.0050 -2.3835  3.8413
  539MOL0     H72736   6.300  13.198   9.147  0.7039  1.3821  0.3913
  539MOL0     H72737   6.344  13.289   9.363 -2.3518 -0.9907 -1.8948
  539MOL0     H72738   6.490  13.217   9.310 -2.2711  2.0066 -3.9887
  539MOL0     H72739   6.281  13.085   9.493  0.8875 -2.9352 -0.3684
  539MOL0     H72740   6.453  13.021   9.475 -2.0019 -0.6726 -1.4326
  539MOL0     H72741   6.368  13.262   9.633 -1.0325 -2.4510  4.5476
  539MOL0     H72742   6.531  13.233   9.573 -3.2246  4.4141  0.9137
  539MOL0     H72743   6.517  13.192   9.822  0.1336 -0.0195  0.3714
  539MOL0     H72744   6.362  13.097   9.802 -0.1614 -0.5615  0.3615
  539MOL0     H72745   6.255  12.547   8.978 -1.0604  3.4777 -1.8601
  539MOL0     H72746   6.289  12.335   8.888 -0.1012  1.1588  2.9830
  539MOL0     H72747   6.684  11.987   8.721 -0.3318 -0.7790  0.2040
  539MOL0     H72748   6.724  11.807   8.556  0.5072  0.3584 -0.6425
  539MOL0     H72749   5.578  10.705   8.826  0.9290  2.5065  0.0035
  539MOL0     H72750   5.502  10.539   8.656 -0.0495  1.0833 -0.8812
  539MOL0     H72751   5.739  10.312   8.240  0.0765  1.0427 -3.7030
  539MOL0     H72752   5.718  10.209   8.049  0.5887  1.5874  0.2868
  539MOL0     H72753   5.634  10.032   7.797  1.2388  0.8191  0.8006
  539MOL0     H72754   5.647  10.205   7.836 -2.5196  2.2162 -1.9183
  539MOL0     H72755   5.429  10.090   7.665  0.9262 -1.8580  0.2138
  539MOL0     H72756   5.568  10.188   7.620  0.9854 -2.7513  2.7911
  539MOL0     H72757   5.374  10.287   7.834  0.4010  1.3620  0.2126
  539MOL0     H72758   5.311  10.287   7.673  0.7779  0.6787  0.4477
  539MOL0     H72759   5.486  10.489   7.798 -1.3213  1.7962  0.0964
  539MOL0     H72760   5.584  10.414   7.693 -0.0355  3.4660  0.7459
  539MOL0     H72761   5.313  10.632   7.442 -1.4349 -0.8797  0.0982
  539MOL0     H72762   5.292  10.178   8.076 -0.4289  1.0099  0.4289
  539MOL0     H72763   5.266  10.267   8.407 -1.2434 -2.2547 -1.6725
  539MOL0     H72764   5.251  10.421   8.312 -1.2932  1.0090 -1.1090
  539MOL0     H72765   5.183  10.266   8.258  2.3742 -1.2412 -0.3493
  540MOL0     O72766   4.619   8.992   2.057 -0.0885  0.3520 -0.3302
  540MOL0     C72767   4.705   9.067   2.112  0.0760  0.2821 -0.4041
  540MOL0     O72768   4.824   9.027   2.162  0.2935  1.1058  0.2732
  540MOL0     C72769   4.874   8.915   2.100 -1.6720  0.0926 -0.0184
  540MOL0     C72770   4.931   8.930   1.966 -0.4961 -1.2825 -0.8775
  540MOL0     C72771   5.002   8.827   1.900 -0.5804 -0.2434  0.6007
  540MOL0     C72772   5.028   8.707   1.965  0.0121  0.3701  0.4280
  540MOL0     O72773   5.106   8.614   1.901  0.4425 -0.6868 -0.0694
  540MOL0     C72774   5.158   8.506   1.990  0.4399 -0.7754 -0.0919
  540MOL0     C72775   5.227   8.400   1.907 -0.4129 -0.0853  0.7892
  540MOL0     C72776   5.370   8.466   1.853  0.5324  0.2837 -0.2555
  540MOL0     C72777   5.446   8.356   1.788  0.9743 -0.1434  0.4768
  540MOL0     C72778   5.589   8.398   1.769 -0.3811  0.1581  0.3647
  540MOL0     C72779   5.599   8.492   1.645  0.7528 -0.7816  0.2804
  540MOL0     C72780   5.550   8.429   1.513 -0.4496 -0.2064 -0.3632
  540MOL0     C72781   5.615   8.490   1.382  0.4267 -0.1397 -0.8720
  540MOL0     N72782   5.760   8.479   1.364 -0.0877 -0.1345 -1.0689
  540MOL0     C72783   5.832   8.366   1.322  0.2782 -0.3331 -0.3794
  540MOL0     C72784   5.963   8.402   1.340  0.2961  0.2811 -0.6666
  540MOL0     C72785   6.089   8.323   1.307  0.2344 -0.4342 -0.1188
  540MOL0     C72786   6.102   8.295   1.162  0.1950  0.2888  0.2072
  540MOL0     C72787   6.132   8.418   1.081 -0.2672 -0.4712 -0.1203
  540MOL0     C72788   6.083   8.405   0.940  0.3837 -0.1096 -1.0787
  540MOL0     O72789   6.144   8.299   0.864  0.6231  0.6944  0.2521
  540MOL0     C72790   6.098   8.298   0.731 -0.6188 -0.1501  0.4381
  540MOL0     C72791   5.998   8.379   0.672 -0.6488 -0.8920 -0.5713
  540MOL0     C72792   5.979   8.376   0.534  0.3256 -0.3367 -0.1699
  540MOL0     C72793   6.040   8.274   0.458 -0.0902  0.8767  0.2828
  540MOL0     C72794   6.031   8.278   0.311  0.0557  1.1845  1.3695
  540MOL0     O72795   6.089   8.169   0.236  0.2947 -0.8449  0.6291
  540MOL0     C72796   6.077   8.163   0.095 -0.4869  0.0942 -0.6258
  540MOL0     C72797   6.194   8.189   0.022 -0.0396 -0.1947 -0.2634
  540MOL0     C72798   6.196   8.181  -0.117 -0.8666  0.3293 -0.0341
  540MOL0     C72799   6.079   8.148  -0.188  0.1973  0.0264 -0.0315
  540MOL0     O72800   6.074   8.149  -0.328 -0.2359 -0.1845 -0.9821
  540MOL0     C72801   5.988   8.054  -0.395 -0.9140  0.3391 -0.6880
  540MOL0     C72802   5.890   8.130  -0.488 -0.8502  0.2986  0.2510
  540MOL0     C72803   5.960   8.146  -0.624  0.8254  0.3581 -0.5971
  540MOL0     C72804   5.880   8.075  -0.739 -1.0399 -1.6300 -0.1659
  540MOL0     C72805   5.883   7.917  -0.717 -0.0634  0.2165  0.2600
  540MOL0     C72806   5.783   7.845  -0.809 -0.1627 -0.0990 -0.0210
  540MOL0     C72807   5.640   7.875  -0.763  0.6091 -0.3933 -0.2267
  540MOL0     C72808   5.548   7.882  -0.888  0.5362  0.0269  0.7311
  540MOL0    Cl72809   5.611   8.005  -1.003  0.3281  0.0524 -0.1036
  540MOL0     C72810   5.962   8.122  -0.111 -0.6134 -0.0798  0.8885
  540MOL0     C72811   5.959   8.129   0.026 -1.0466 -0.4540  0.2410
  540MOL0     O72812   5.974   8.365   0.258  0.8427  0.0593 -0.0595
  540MOL0     C72813   6.125   8.180   0.520 -0.8843 -0.0336 -0.2594
  540MOL0     C72814   6.166   8.206   0.648  1.5818  0.1227  0.2676
  540MOL0     N72815   5.966   8.523   1.405 -0.6003 -0.0603 -0.3852
  540MOL0     N72816   5.843   8.575   1.405 -0.1041 -1.0908  0.2641
  540MOL0     C72817   4.971   8.684   2.094 -1.2286 -0.8756 -1.1311
  540MOL0     C72818   4.908   8.795   2.163  0.0461  0.3547 -0.7166
  540MOL0     C72819   4.674   9.208   2.150 -0.0548  0.1357 -0.1801
  540MOL0     C72820   4.582   9.224   2.257  0.4662 -0.0867  0.5656
  540MOL0     C72821   4.556   9.348   2.306 -0.1499 -1.2114 -0.4531
  540MOL0     C72822   4.616   9.454   2.242  0.4482 -1.0633 -0.1988
  540MOL0     O72823   4.558   9.569   2.278  0.2977 -0.8557  0.4459
  540MOL0     C72824   4.563   9.687   2.197  0.1427  0.1311 -0.3466
  540MOL0     C72825   4.471   9.793   2.264 -0.7876  0.8693  0.1215
  540MOL0     C72826   4.321   9.758   2.271  0.4303  0.6076 -0.2063
  540MOL0     C72827   4.244   9.801   2.153  0.4634  0.7592  0.8822
  540MOL0     C72828   4.102   9.763   2.157  1.0576  0.3725 -0.8098
  540MOL0     C72829   3.990   9.729   2.180  0.5374  0.6850  0.3701
  540MOL0     C72830   4.711   9.442   2.141  0.0684 -0.2341  0.7122
  540MOL0     C72831   4.739   9.312   2.093 -0.4624 -0.2826 -0.2534
  540MOL0     C72832   4.843   9.286   1.990 -0.2408  0.4077  0.7526
  540MOL0     H72833   4.899   9.022   1.918 -3.3103 -0.1128  2.7140
  540MOL0     H72834   5.035   8.849   1.799 -2.5403 -1.7887 -0.4588
  540MOL0     H72835   5.227   8.543   2.066 -0.7953 -1.6789  1.5120
  540MOL0     H72836   5.078   8.460   2.048  0.8244  1.2399  2.1971
  540MOL0     H72837   5.176   8.369   1.815  2.2138  1.5518 -1.3522
  540MOL0     H72838   5.251   8.313   1.968  1.7321 -1.2214 -1.5206
  540MOL0     H72839   5.425   8.503   1.940  0.9934  7.3823 -2.9299
  540MOL0     H72840   5.353   8.545   1.780 -1.6648 -1.3192 -1.5976
  540MOL0     H72841   5.450   8.264   1.848  0.5990  1.0928  2.5026
  540MOL0     H72842   5.386   8.338   1.698  2.4406 -2.6650 -0.1133
  540MOL0     H72843   5.634   8.433   1.862  1.8480 -1.1025 -0.1668
  540MOL0     H72844   5.647   8.308   1.743 -1.4370 -0.3186 -0.4467
  540MOL0     H72845   5.547   8.584   1.675  2.1326 -0.2808  1.2407
  540MOL0     H72846   5.704   8.521   1.633  0.8283 -1.1834 -0.0181
  540MOL0     H72847   5.450   8.470   1.498  0.0932  0.7690 -1.4386
  540MOL0     H72848   5.552   8.319   1.513 -0.3817 -0.2066 -1.1647
  540MOL0     H72849   5.586   8.444   1.287 -1.9946  4.5559 -2.6789
  540MOL0     H72850   5.590   8.596   1.374  0.0823 -0.1751 -0.3134
  540MOL0     H72851   5.790   8.280   1.270  0.3204 -0.4941 -0.1523
  540MOL0     H72852   6.179   8.379   1.332 -0.0260  0.1066 -0.3688
  540MOL0     H72853   6.068   8.227   1.355 -2.0665 -0.9341 -1.9356
  540MOL0     H72854   6.183   8.222   1.148 -0.4289 -0.0269 -2.1579
  540MOL0     H72855   6.013   8.240   1.129  0.3967 -0.1966  0.4483
  540MOL0     H72856   6.237   8.446   1.094 -0.2484 -1.2813  1.6513
  540MOL0     H72857   6.073   8.499   1.125 -1.6848 -2.5758  2.1232
  540MOL0     H72858   6.094   8.506   0.901 -0.2812  1.0934  1.6201
  540MOL0     H72859   5.975   8.386   0.940  0.2893  0.3474  0.0930
  540MOL0     H72860   5.948   8.456   0.729  1.9448  1.4437 -1.2060
  540MOL0     H72861   5.925   8.455   0.483  2.9545  1.5129 -0.3148
  540MOL0     H72862   6.290   8.196   0.071  0.6221 -0.3745 -1.4738
  540MOL0     H72863   6.279   8.185  -0.187 -2.3986 -1.0428 -2.0311
  540MOL0     H72864   6.047   7.994  -0.465 -0.3648 -2.4959  1.9764
  540MOL0     H72865   5.933   7.983  -0.332 -0.6811 -0.7030 -1.6303
  540MOL0     H72866   5.799   8.073  -0.508 -0.4468  0.3444 -1.9776
  540MOL0     H72867   5.860   8.227  -0.447 -0.7308  0.7887 -0.7912
  540MOL0     H72868   5.958   8.255  -0.633  0.3114  0.5223  1.1981
  540MOL0     H72869   6.065   8.116  -0.624  0.6283 -0.3998 -1.6686
  540MOL0     H72870   5.922   8.095  -0.837  0.2547  1.1772  0.8773
  540MOL0     H72871   5.780   8.119  -0.734  0.3265  1.7464 -0.2599
  540MOL0     H72872   5.855   7.884  -0.616  3.9747 -2.8790  0.6410
  540MOL0     H72873   5.983   7.871  -0.717 -0.3867 -0.6676 -2.6573
  540MOL0     H72874   5.813   7.878  -0.909 -1.2926  2.2175  0.3405
  540MOL0     H72875   5.801   7.738  -0.797 -0.3772 -0.1591 -0.2469
  540MOL0     H72876   5.634   7.960  -0.694 -0.7217  0.0085 -0.8114
  540MOL0     H72877   5.611   7.791  -0.697 -0.3832  0.1555  0.0552
  540MOL0     H72878   5.557   7.785  -0.938  1.5632  0.4551  0.0535
  540MOL0     H72879   5.443   7.902  -0.866 -0.1035 -2.6129  0.4623
  540MOL0     H72880   5.869   8.084  -0.152 -1.3123 -0.0031  2.3205
  540MOL0     H72881   5.866   8.102   0.076 -2.3894  3.2605  0.0043
  540MOL0     H72882   6.178   8.107   0.459 -0.4102  0.7816 -0.8473
  540MOL0     H72883   6.240   8.133   0.680  0.1019 -1.3372  0.5053
  540MOL0     H72884   4.964   8.591   2.150 -0.2294 -1.2421 -1.5981
  540MOL0     H72885   4.880   8.786   2.267 -0.1876  4.3679 -0.3005
  540MOL0     H72886   4.530   9.130   2.271  1.0488 -0.8294 -1.8188
  540MOL0     H72887   4.484   9.372   2.385  0.6039  3.2259 -0.8513
  540MOL0     H72888   4.529   9.667   2.094 -2.8701 -1.1499  0.7708
  540MOL0     H72889   4.667   9.719   2.196  0.4515 -0.8458 -0.3404
  540MOL0     H72890   4.499   9.891   2.225 -0.5304  0.6594 -0.2282
  540MOL0     H72891   4.505   9.795   2.368  0.5023  2.3094 -0.2986
  540MOL0     H72892   4.263   9.806   2.350 -0.1785 -2.0270  1.0490
  540MOL0     H72893   4.302   9.651   2.283  2.7129  0.1540 -0.3108
  540MOL0     H72894   4.250   9.908   2.133  1.2093  0.7384  0.9864
  540MOL0     H72895   4.291   9.752   2.067 -0.6108  0.1063  0.6416
  540MOL0     H72896   3.888   9.700   2.194  0.5278  0.6930  0.3139
  540MOL0     H72897   4.749   9.529   2.089 -4.8650  0.7401 -1.8812
  540MOL0     H72898   4.921   9.215   2.020 -0.8189 -0.6493 -0.1829
  540MOL0     H72899   4.790   9.264   1.897  1.6379  4.1807 -1.4295
  540MOL0     H72900   4.906   9.374   1.976  0.2448  0.2511  1.8498
  541MOL0     O72901  10.875   2.662   1.196  0.0735 -0.3387 -0.1600
  541MOL0     C72902  10.983   2.665   1.128 -0.1517  0.0286 -0.0028
  541MOL0     O72903  11.097   2.598   1.150 -0.0476  0.2736  0.6820
  541MOL0     C72904  11.115   2.512   1.256  0.3610 -0.9599  0.0557
  541MOL0     C72905  11.096   2.549   1.392  0.4699  0.0944 -0.0870
  541MOL0     C72906  11.108   2.449   1.495  0.2591 -0.5103  0.1097
  541MOL0     C72907  11.140   2.325   1.454  0.2039 -0.5305 -0.2123
  541MOL0     O72908  11.148   2.223   1.545 -0.1018 -0.1725 -0.4801
  541MOL0     C72909  11.178   2.255   1.689 -0.0379 -0.7868  0.0688
  541MOL0     C72910  11.263   2.142   1.753  0.1341 -0.5905 -0.4357
  541MOL0     C72911  11.377   2.092   1.664  0.2858  0.1885  0.5516
  541MOL0     C72912  11.495   2.039   1.750 -0.3299  0.3219  0.2985
  541MOL0     C72913  11.560   2.143   1.836  0.2381 -0.2444 -0.5705
  541MOL0     C72914  11.623   2.271   1.780 -0.1446  0.0184 -0.9497
  541MOL0     C72915  11.715   2.252   1.665 -0.9409 -1.4091  0.1316
  541MOL0     C72916  11.757   2.399   1.609 -0.6035 -0.9907  0.9157
  541MOL0     N72917  11.825   2.365   1.476 -0.2894 -0.4624 -0.8150
  541MOL0     C72918  11.767   2.325   1.353 -0.1606  0.0159 -0.4656
  541MOL0     C72919  11.871   2.298   1.273 -0.6931 -0.2740  0.4817
  541MOL0     C72920  11.864   2.265   1.129  0.4160  0.6963 -0.4323
  541MOL0     C72921  11.997   2.252   1.060 -0.8601  0.2793  0.1225
  541MOL0     C72922  12.075   2.114   1.085 -0.2048  0.1426 -0.3452
  541MOL0     C72923  12.210   2.134   1.152 -0.1087 -1.2783  0.2998
  541MOL0     O72924  12.290   2.023   1.200  0.0453 -1.0441 -0.3779
  541MOL0     C72925  12.289   1.985   1.332  0.7364 -0.2513  0.2547
  541MOL0     C72926  12.403   1.923   1.379  1.1863  0.0356  1.1438
  541MOL0     C72927  12.421   1.887   1.510  0.2160  0.1905 -0.5517
  541MOL0     C72928  12.326   1.937   1.609  0.0204 -0.4150 -0.0962
  541MOL0     C72929  12.346   1.894   1.753 -0.1830  0.6201 -1.1873
  541MOL0     O72930  12.449   1.812   1.782 -1.2844 -0.8313 -0.2897
  541MOL0     C72931  12.493   1.772   1.910 -0.2468  0.4190  0.2397
  541MOL0     C72932  12.632   1.746   1.912  0.9552  0.3969  0.2614
  541MOL0     C72933  12.693   1.685   2.020  0.1943 -0.4785 -1.0339
  541MOL0     C72934  12.627   1.663   2.143 -0.3416  0.4935 -0.1706
  541MOL0     O72935  12.665   1.596   2.266  0.1089 -0.2005  0.5579
  541MOL0     C72936  12.806   1.581   2.277  0.8093  0.1598 -0.4201
  541MOL0     C72937  12.841   1.523   2.423  0.4916  1.0223  0.1483
  541MOL0     C72938  12.808   1.372   2.425  0.1466  0.2551  0.0423
  541MOL0     C72939  12.900   1.286   2.332  0.0752  0.3905 -0.1624
  541MOL0     C72940  12.894   1.136   2.356  0.6475 -0.6299 -0.9134
  541MOL0     C72941  12.980   1.052   2.252  0.2770  0.4741  0.2728
  541MOL0     C72942  12.968   0.893   2.250 -0.2997 -0.0037 -0.8173
  541MOL0     C72943  13.005   0.819   2.382 -1.3407  0.4195 -0.3911
  541MOL0    Cl72944  12.927   0.655   2.387 -0.1857 -0.1058 -0.0614
  541MOL0     C72945  12.488   1.683   2.148  0.1347 -0.2384  0.4221
  541MOL0     C72946  12.418   1.738   2.030  0.0132 -0.1525 -0.3906
  541MOL0     O72947  12.261   1.915   1.841  0.0903 -0.1496  0.3096
  541MOL0     C72948  12.205   2.002   1.562 -0.3993  0.7687 -0.7552
  541MOL0     C72949  12.178   2.023   1.425 -0.6293  0.4643  0.6550
  541MOL0     N72950  11.984   2.301   1.351  0.3692  0.2363 -0.6750
  541MOL0     N72951  11.955   2.346   1.471 -0.5218 -0.3584  0.2952
  541MOL0     C72952  11.176   2.295   1.331 -0.5014  0.5274 -0.6523
  541MOL0     C72953  11.166   2.387   1.232  0.0205  0.1045  0.0501
  541MOL0     C72954  10.976   2.757   1.018 -0.8605  0.2614 -0.4598
  541MOL0     C72955  10.873   2.860   1.026 -0.4291 -0.8345 -0.6949
  541MOL0     C72956  10.884   2.967   0.932  0.8388  0.1120 -1.1984
  541MOL0     C72957  10.978   2.974   0.830 -0.3373  0.1361 -0.3223
  541MOL0     O72958  10.968   3.057   0.720  0.5818 -0.6191  0.0815
  541MOL0     C72959  10.880   3.165   0.718 -0.4054 -0.0891 -1.1947
  541MOL0     C72960  10.904   3.261   0.600  0.0209  1.3237  0.7799
  541MOL0     C72961  10.863   3.191   0.465 -0.5744  0.4073  1.0830
  541MOL0     C72962  10.910   3.276   0.342  0.5108 -0.5488 -0.1877
  541MOL0     C72963  10.868   3.209   0.217 -0.0446 -0.5177 -0.1268
  541MOL0     C72964  10.828   3.163   0.117  0.6629  0.2051 -0.1255
  541MOL0     C72965  11.075   2.868   0.822 -0.0492 -1.0586 -0.6285
  541MOL0     C72966  11.071   2.761   0.917 -0.2358 -0.2020  0.0150
  541MOL0     C72967  11.166   2.644   0.892  0.6615 -0.5173 -0.3695
  541MOL0     H72968  11.076   2.653   1.417  1.3487  0.1060  0.6390
  541MOL0     H72969  11.091   2.483   1.597  1.5178 -0.0364  0.1697
  541MOL0     H72970  11.243   2.343   1.690 -2.2317  0.9095  0.9248
  541MOL0     H72971  11.090   2.279   1.750  1.2123  0.1914  1.5544
  541MOL0     H72972  11.207   2.053   1.786  1.6264 -0.0721  4.0616
  541MOL0     H72973  11.307   2.191   1.840 -0.9097  0.9738 -0.7613
  541MOL0     H72974  11.420   2.164   1.595  2.1413 -3.2048 -2.1772
  541MOL0     H72975  11.346   2.016   1.591  0.0262  0.0372  0.8158
  541MOL0     H72976  11.464   1.946   1.799  1.6378 -0.9798 -0.8188
  541MOL0     H72977  11.560   2.010   1.668 -1.8756 -1.9871 -0.1986
  541MOL0     H72978  11.499   2.170   1.923 -0.0790  0.0381 -0.8804
  541MOL0     H72979  11.637   2.084   1.887 -0.6352  0.9947  2.3926
  541MOL0     H72980  11.541   2.341   1.758  1.2076  3.4654  3.3795
  541MOL0     H72981  11.688   2.309   1.859 -0.1042 -1.7477 -0.1010
  541MOL0     H72982  11.651   2.212   1.586 -0.7232 -0.5106 -0.5148
  541MOL0     H72983  11.794   2.177   1.680 -2.1304 -3.0624 -1.4920
  541MOL0     H72984  11.674   2.469   1.599 -0.4544 -1.0626 -1.3414
  541MOL0     H72985  11.837   2.443   1.670 -0.5248  2.9726 -1.6928
  541MOL0     H72986  11.663   2.322   1.323 -0.3362 -0.0756  0.1448
  541MOL0     H72987  11.828   2.161   1.123  2.2374 -0.2536  2.5692
  541MOL0     H72988  11.801   2.339   1.081 -1.5206  1.3100  2.7850
  541MOL0     H72989  11.980   2.266   0.953 -1.1388  1.2741  0.2863
  541MOL0     H72990  12.061   2.334   1.093 -1.1747  0.9000 -0.7791
  541MOL0     H72991  12.106   2.063   0.993  0.4840 -0.4146  0.1829
  541MOL0     H72992  12.015   2.054   1.154 -0.5399 -0.4203 -1.1157
  541MOL0     H72993  12.205   2.209   1.232 -1.1191  0.4424 -1.3040
  541MOL0     H72994  12.270   2.193   1.082  1.3824 -0.3366  2.2710
  541MOL0     H72995  12.481   1.888   1.313 -1.0759 -3.0724 -0.1423
  541MOL0     H72996  12.515   1.849   1.548 -0.2468  0.1624  0.6130
  541MOL0     H72997  12.701   1.756   1.829 -0.3534  0.1474 -0.8793
  541MOL0     H72998  12.799   1.660   2.019  0.1706 -0.8511 -4.1415
  541MOL0     H72999  12.849   1.511   2.205  3.4477  1.0611  0.1756
  541MOL0     H73000  12.844   1.683   2.269  1.7477  0.2910  3.4738
  541MOL0     H73001  12.946   1.539   2.448  0.8140 -0.3815 -0.2271
  541MOL0     H73002  12.785   1.558   2.510  0.1995 -3.1296  1.8554
  541MOL0     H73003  12.816   1.340   2.529 -3.9255  3.5859  1.6795
  541MOL0     H73004  12.702   1.362   2.399  0.6007  1.8431 -2.9316
  541MOL0     H73005  13.002   1.323   2.345 -1.3124  3.8190  2.3232
  541MOL0     H73006  12.872   1.296   2.226  0.9169 -0.2327 -0.4546
  541MOL0     H73007  12.787   1.116   2.346 -0.2133  2.3099  1.0951
  541MOL0     H73008  12.924   1.103   2.456 -0.0064 -0.1047 -0.5433
  541MOL0     H73009  12.943   1.085   2.154  2.4317  0.9724 -0.4449
  541MOL0     H73010  13.088   1.066   2.245  0.3843 -0.7277 -0.7341
  541MOL0     H73011  13.037   0.866   2.170 -1.1028  1.3416 -2.0174
  541MOL0     H73012  12.865   0.871   2.222 -0.3147  0.8632 -1.5028
  541MOL0     H73013  13.113   0.805   2.377 -1.0090  2.6669 -0.7753
  541MOL0     H73014  12.979   0.877   2.471  0.9564  1.0764 -0.0836
  541MOL0     H73015  12.437   1.656   2.240 -1.7817 -1.3590 -0.9119
  541MOL0     H73016  12.312   1.761   2.035 -0.0008 -0.3458  0.2161
  541MOL0     H73017  12.140   2.042   1.639  1.5381 -0.8109  1.8738
  541MOL0     H73018  12.082   2.058   1.391 -2.1852 -1.1284  3.0945
  541MOL0     H73019  11.239   2.206   1.325 -0.2215  0.7699 -1.6441
  541MOL0     H73020  11.207   2.345   1.140 -0.1875 -2.5472  1.0880
  541MOL0     H73021  10.789   2.868   1.095  0.7609  0.9316  0.6618
  541MOL0     H73022  10.802   3.039   0.933  1.1105  0.4297 -1.6223
  541MOL0     H73023  10.886   3.220   0.812 -2.7567 -0.9190 -0.4722
  541MOL0     H73024  10.778   3.128   0.703 -0.6058  1.0267 -2.7572
  541MOL0     H73025  11.011   3.283   0.596  0.7079 -1.7961 -1.6509
  541MOL0     H73026  10.837   3.346   0.617 -0.2472  0.7831  2.5979
  541MOL0     H73027  10.758   3.161   0.462 -0.8971  1.4893  1.1126
  541MOL0     H73028  10.910   3.092   0.462  1.9672  1.5374  0.9111
  541MOL0     H73029  10.863   3.374   0.349  1.2344 -0.2954  3.9394
  541MOL0     H73030  11.017   3.297   0.356  0.0944  0.0724  2.6955
  541MOL0     H73031  10.790   3.126   0.024 -2.9111  0.5214  1.0768
  541MOL0     H73032  11.142   2.866   0.737  0.1438 -1.3235 -0.4717
  541MOL0     H73033  11.128   2.543   0.911 -0.3061 -0.3356 -1.2796
  541MOL0     H73034  11.192   2.657   0.787 -2.2795 -2.7645 -1.5067
  541MOL0     H73035  11.253   2.669   0.954 -1.7204  1.7201  2.3347
  542MOL0     O73036   3.841   9.029   3.203 -0.3590  0.0951  0.0811
  542MOL0     C73037   3.882   8.915   3.213 -0.6621  0.1505 -0.0594
  542MOL0     O73038   3.984   8.879   3.297 -0.7644 -0.0371 -0.4720
  542MOL0     C73039   4.067   8.974   3.350 -0.4911 -0.2687 -0.4183
  542MOL0     C73040   4.085   9.010   3.488  0.0652 -0.8075  1.2437
  542MOL0     C73041   4.189   9.103   3.517 -0.3401 -0.0319 -0.2882
  542MOL0     C73042   4.280   9.157   3.425  0.0849 -0.3180 -0.8300
  542MOL0     O73043   4.367   9.256   3.454  0.3305 -0.7847 -0.9864
  542MOL0     C73044   4.367   9.306   3.589 -0.3623  0.2862  0.9631
  542MOL0     C73045   4.440   9.440   3.585  0.1127  1.0555 -0.2198
  542MOL0     C73046   4.341   9.551   3.543  0.6516 -0.7669  0.2325
  542MOL0     C73047   4.356   9.580   3.395 -0.3760 -0.1216  1.0551
  542MOL0     C73048   4.236   9.676   3.359  0.0530  0.7763 -0.0474
  542MOL0     C73049   4.295   9.811   3.360  0.1002  0.7413 -0.1265
  542MOL0     C73050   4.196   9.914   3.311 -0.1858 -0.4280  0.3417
  542MOL0     C73051   4.262  10.066   3.299 -0.5776  1.1677 -0.1365
  542MOL0     N73052   4.149  10.148   3.251 -0.9435 -0.0923  0.1734
  542MOL0     C73053   4.048  10.211   3.317  0.0999  0.4610  0.3888
  542MOL0     C73054   3.969  10.266   3.215 -0.4772 -0.2117 -0.0718
  542MOL0     C73055   3.822  10.311   3.222 -0.6602  0.3661 -0.0457
  542MOL0     C73056   3.774  10.338   3.378 -0.5205 -0.4692  0.2822
  542MOL0     C73057   3.835  10.461   3.441 -0.1139 -0.0794  0.2005
  542MOL0     C73058   3.836  10.442   3.590  0.9167 -0.1919  0.0030
  542MOL0     O73059   3.936  10.348   3.626 -0.6836  0.8842  0.1244
  542MOL0     C73060   4.056  10.400   3.675 -0.4313 -0.5506  0.4883
  542MOL0     C73061   4.161  10.443   3.590 -0.2487 -0.7646 -0.0578
  542MOL0     C73062   4.267  10.503   3.652 -0.4350  0.7361  0.1550
  542MOL0     C73063   4.289  10.520   3.792  0.1983 -0.1276 -0.0781
  542MOL0     C73064   4.419  10.571   3.849  0.0946 -0.9888  1.0546
  542MOL0     O73065   4.411  10.610   3.975  0.1546  0.3442  0.6380
  542MOL0     C73066   4.502  10.708   4.017  0.3344 -0.1164  0.0663
  542MOL0     C73067   4.531  10.726   4.155 -0.4008 -0.5643 -0.0605
  542MOL0     C73068   4.608  10.827   4.204  0.0292  0.1844  0.3095
  542MOL0     C73069   4.664  10.915   4.111  0.5730 -0.8299  0.5285
  542MOL0     O73070   4.737  11.025   4.167  0.5665  1.1353  0.1621
  542MOL0     C73071   4.777  11.132   4.081 -0.3632 -1.3979 -0.0527
  542MOL0     C73072   4.852  11.243   4.158 -0.0520 -0.2641 -0.7987
  542MOL0     C73073   4.758  11.309   4.267 -0.1845  0.2128 -0.4263
  542MOL0     C73074   4.675  11.408   4.190  0.4263  0.3280  0.1686
  542MOL0     C73075   4.599  11.494   4.288 -0.5028  0.3975  0.1844
  542MOL0     C73076   4.503  11.597   4.225  0.2813  0.6260 -0.0412
  542MOL0     C73077   4.431  11.674   4.330  0.1739  0.6630 -0.6823
  542MOL0     C73078   4.313  11.593   4.389  0.4883 -0.0977 -0.9331
  542MOL0    Cl73079   4.194  11.700   4.445 -0.1058  0.4941  0.6258
  542MOL0     C73080   4.646  10.902   3.969  0.5084 -0.7857  0.2262
  542MOL0     C73081   4.568  10.796   3.930  1.0669 -0.3680  0.0896
  542MOL0     O73082   4.523  10.555   3.782  0.0327  0.0671 -0.1946
  542MOL0     C73083   4.181  10.480   3.871 -0.2137  0.9088  0.1998
  542MOL0     C73084   4.071  10.415   3.811  0.1427 -0.4749  0.2627
  542MOL0     N73085   4.028  10.239   3.090  0.7985  0.6964 -0.2703
  542MOL0     N73086   4.133  10.164   3.118  0.2020 -0.0650  0.5072
  542MOL0     C73087   4.273   9.108   3.295  0.1506 -0.9207 -0.5243
  542MOL0     C73088   4.165   9.017   3.258  0.4121 -0.2618  0.0484
  542MOL0     C73089   3.833   8.805   3.133  0.1229  0.3553 -0.0310
  542MOL0     C73090   3.877   8.668   3.156  0.1747 -0.1085 -0.1078
  542MOL0     C73091   3.801   8.567   3.090  0.0802 -0.3429  0.1896
  542MOL0     C73092   3.696   8.574   3.007  0.9113 -0.9492 -0.4768
  542MOL0     O73093   3.640   8.457   2.948 -0.9304 -0.0690 -0.3508
  542MOL0     C73094   3.572   8.469   2.816 -0.3433 -0.5887 -0.3315
  542MOL0     C73095   3.505   8.339   2.800 -0.4396 -0.1746 -0.5413
  542MOL0     C73096   3.359   8.335   2.858 -0.9593 -1.2205 -1.8782
  542MOL0     C73097   3.309   8.201   2.823  1.2000  0.8626  0.3918
  542MOL0     C73098   3.242   8.132   2.933 -0.4606 -0.3197 -0.1073
  542MOL0     C73099   3.185   8.084   3.028  0.4475  1.2262  0.7575
  542MOL0     C73100   3.666   8.706   2.979 -0.3238 -0.4556 -0.1067
  542MOL0     C73101   3.726   8.821   3.039  0.4847 -0.1930  0.0678
  542MOL0     C73102   3.682   8.955   2.991  0.3218  0.1869 -0.1895
  542MOL0     H73103   4.016   8.975   3.564 -2.0770 -1.8329 -1.0304
  542MOL0     H73104   4.195   9.136   3.620  3.9641 -2.5673  0.5294
  542MOL0     H73105   4.266   9.328   3.624 -0.8938  1.9603 -1.3788
  542MOL0     H73106   4.417   9.228   3.646 -0.2262 -0.4957 -0.1913
  542MOL0     H73107   4.523   9.438   3.515  0.1160  2.6966 -0.2961
  542MOL0     H73108   4.474   9.467   3.686 -2.0543  1.7420  0.3997
  542MOL0     H73109   4.384   9.634   3.600 -2.4457  0.9323  0.3392
  542MOL0     H73110   4.239   9.535   3.578  0.5882 -2.0248 -0.4909
  542MOL0     H73111   4.459   9.613   3.379 -0.6445  1.5838  2.4851
  542MOL0     H73112   4.347   9.484   3.343  0.6248  0.4632 -0.2431
  542MOL0     H73113   4.191   9.652   3.262 -5.2948 -0.7918  2.4077
  542MOL0     H73114   4.148   9.649   3.419  0.9969  0.7182  1.3810
  542MOL0     H73115   4.327   9.842   3.460  2.0315 -0.6153 -0.2599
  542MOL0     H73116   4.388   9.810   3.302  1.3458  0.5323  1.7476
  542MOL0     H73117   4.111   9.908   3.380  1.5569  0.2709  2.6585
  542MOL0     H73118   4.167   9.885   3.209 -5.2174  0.6793  1.2010
  542MOL0     H73119   4.292  10.119   3.389 -1.3359  0.6709  0.4269
  542MOL0     H73120   4.348  10.063   3.232  1.6010 -1.9204  2.5068
  542MOL0     H73121   4.023  10.199   3.421 -0.3167 -1.3818  0.1053
  542MOL0     H73122   3.803  10.406   3.170  1.5144  1.8347  1.6316
  542MOL0     H73123   3.753  10.236   3.183 -0.9633  0.9839 -0.7339
  542MOL0     H73124   3.664  10.334   3.382 -0.6315  0.4588 -1.1242
  542MOL0     H73125   3.811  10.252   3.434 -1.6200  0.3510  2.3569
  542MOL0     H73126   3.775  10.551   3.422  3.1150  2.1592 -0.0548
  542MOL0     H73127   3.935  10.480   3.401 -0.7542  1.1478 -0.8970
  542MOL0     H73128   3.741  10.412   3.635  1.2971  1.9656  2.5003
  542MOL0     H73129   3.863  10.539   3.633  1.3583 -0.1783 -0.2967
  542MOL0     H73130   4.174  10.423   3.484  6.7598 -0.8466  0.3134
  542MOL0     H73131   4.342  10.554   3.592 -2.0291 -0.0736 -2.7329
  542MOL0     H73132   4.486  10.651   4.220  3.9845 -4.8612 -1.3797
  542MOL0     H73133   4.623  10.840   4.311  1.3016 -2.4857  0.5295
  542MOL0     H73134   4.849  11.076   4.021  0.5721 -0.5578  0.2800
  542MOL0     H73135   4.704  11.180   4.016  2.7360  2.1822 -1.2154
  542MOL0     H73136   4.928  11.189   4.214  0.9424 -0.8143 -2.6044
  542MOL0     H73137   4.893  11.318   4.089 -0.5519  1.0710  0.3020
  542MOL0     H73138   4.696  11.232   4.314 -0.8659  0.1337 -1.4076
  542MOL0     H73139   4.822  11.355   4.343  2.8168  0.2198 -2.7794
  542MOL0     H73140   4.603  11.356   4.125  0.1939 -0.0561  0.7305
  542MOL0     H73141   4.743  11.472   4.133 -1.4190  1.7136 -0.5983
  542MOL0     H73142   4.673  11.546   4.350  0.6617 -2.3868  1.3133
  542MOL0     H73143   4.547  11.427   4.357  1.2500 -1.0612  0.1964
  542MOL0     H73144   4.547  11.668   4.155  1.1374  0.8624  0.7083
  542MOL0     H73145   4.437  11.537   4.161  2.4004 -2.0113  0.0631
  542MOL0     H73146   4.374  11.751   4.276  0.6366  1.6866  0.2615
  542MOL0     H73147   4.487  11.717   4.414 -1.5986  1.2789  0.2324
  542MOL0     H73148   4.265  11.534   4.310 -0.6659  1.8360 -1.7418
  542MOL0     H73149   4.328  11.521   4.470 -2.7222 -1.2739 -1.2264
  542MOL0     H73150   4.693  10.967   3.896  2.7745 -1.4425  0.9940
  542MOL0     H73151   4.540  10.784   3.826 -1.7385 -0.8881  0.8260
  542MOL0     H73152   4.170  10.508   3.975 -1.1428  4.9495 -0.8341
  542MOL0     H73153   3.993  10.376   3.877 -1.2575  1.2997 -0.2538
  542MOL0     H73154   4.345   9.132   3.217  0.8469 -2.2566 -0.3107
  542MOL0     H73155   4.151   8.969   3.162  1.0923 -0.9902  0.2967
  542MOL0     H73156   3.955   8.630   3.221  0.8492  1.1391 -0.1373
  542MOL0     H73157   3.829   8.465   3.113 -0.3194 -0.6149 -0.4968
  542MOL0     H73158   3.657   8.475   2.749  2.0477 -2.6813  2.2555
  542MOL0     H73159   3.504   8.555   2.813 -0.4047 -0.6565 -0.8173
  542MOL0     H73160   3.569   8.259   2.839  1.2206  1.7274  0.8774
  542MOL0     H73161   3.502   8.311   2.694  2.8058  1.4994 -1.1979
  542MOL0     H73162   3.292   8.413   2.821 -1.9597 -0.4121  1.3506
  542MOL0     H73163   3.381   8.364   2.961 -0.9781  1.4598 -2.5687
  542MOL0     H73164   3.230   8.215   2.749  1.1578  0.3439  0.3362
  542MOL0     H73165   3.388   8.131   2.794  0.9303  1.3460 -1.6234
  542MOL0     H73166   3.132   8.031   3.104  0.5957 -2.6077 -1.5552
  542MOL0     H73167   3.597   8.735   2.900 -2.3596  1.8832  2.3119
  542MOL0     H73168   3.637   8.947   2.892  1.5270 -0.0593 -0.7336
  542MOL0     H73169   3.613   8.994   3.067 -0.3909 -3.1772  1.0889
  542MOL0     H73170   3.769   9.019   2.979  0.9424 -0.2714  1.5633
  543MOL0     O73171   0.386  10.863   9.020 -0.3780 -0.5123 -0.1486
  543MOL0     C73172   0.402  10.754   9.072 -0.4046 -0.1630  0.3524
  543MOL0     O73173   0.490  10.664   9.023  0.6861  0.3440  0.7636
  543MOL0     C73174   0.526  10.675   8.891 -0.3432  0.4331 -0.2019
  543MOL0     C73175   0.664  10.676   8.858  0.2761 -0.5307  0.7954
  543MOL0     C73176   0.716  10.724   8.740  0.7077 -0.6546 -0.5452
  543MOL0     C73177   0.624  10.742   8.631 -0.4319 -0.4552  0.4835
  543MOL0     O73178   0.685  10.791   8.514  0.2929  0.0264 -0.0390
  543MOL0     C73179   0.599  10.853   8.413 -0.7208  0.0856 -0.6773
  543MOL0     C73180   0.685  10.894   8.292 -0.2978 -0.1439 -0.4870
  543MOL0     C73181   0.579  10.935   8.186  0.1613  0.0679  0.1673
  543MOL0     C73182   0.651  11.017   8.076  0.1312  0.0739 -0.5808
  543MOL0     C73183   0.574  11.064   7.952 -0.6825 -0.2875  0.8201
  543MOL0     C73184   0.667  11.147   7.860  1.3007 -0.5626 -0.1242
  543MOL0     C73185   0.591  11.217   7.735 -0.2189  0.6194 -0.3069
  543MOL0     C73186   0.536  11.103   7.654 -0.3386  0.4749  0.8303
  543MOL0     N73187   0.538  11.146   7.508  0.1947  0.1582 -0.2444
  543MOL0     C73188   0.627  11.107   7.417  0.1350 -1.2362  1.1775
  543MOL0     C73189   0.604  11.171   7.301 -0.0597  0.2747  1.2027
  543MOL0     C73190   0.668  11.158   7.164  0.7216 -0.1529 -0.2359
  543MOL0     C73191   0.596  11.210   7.041 -0.1935  0.4994 -0.6934
  543MOL0     C73192   0.693  11.213   6.923  0.6188  0.7240 -0.5996
  543MOL0     C73193   0.642  11.319   6.829  0.5111 -0.3619  0.1520
  543MOL0     O73194   0.691  11.303   6.692  0.5191 -0.4900 -0.2319
  543MOL0     C73195   0.780  11.399   6.666 -0.3182 -0.1125  0.4393
  543MOL0     C73196   0.917  11.366   6.689  0.9968 -0.0361 -0.4680
  543MOL0     C73197   1.022  11.443   6.659  0.0400  0.1232  0.3427
  543MOL0     C73198   1.007  11.563   6.581 -0.0885  0.2229  0.2647
  543MOL0     C73199   1.126  11.624   6.515  0.2537 -0.6952 -0.7222
  543MOL0     O73200   1.257  11.591   6.568  0.9902 -0.2963 -0.6530
  543MOL0     C73201   1.370  11.669   6.532  1.5799 -0.5412 -0.1504
  543MOL0     C73202   1.376  11.801   6.485  0.8362  0.1649  0.3875
  543MOL0     C73203   1.492  11.865   6.448 -0.4914 -0.1153 -0.5500
  543MOL0     C73204   1.612  11.794   6.462 -0.3131  0.5617 -0.3634
  543MOL0     O73205   1.724  11.871   6.448 -0.6258  0.4279  0.3183
  543MOL0     C73206   1.844  11.832   6.520 -0.8656 -0.3718  0.1984
  543MOL0     C73207   1.938  11.953   6.550 -0.4768 -0.0396 -1.5654
  543MOL0     C73208   1.975  12.025   6.421  0.1594  0.1336 -0.1301
  543MOL0     C73209   2.079  12.134   6.439 -0.3096  0.2717  0.6845
  543MOL0     C73210   2.140  12.175   6.294 -0.1719  0.2526 -0.4203
  543MOL0     C73211   2.051  12.248   6.196 -0.3070 -0.3378 -0.8126
  543MOL0     C73212   1.991  12.376   6.258  0.4241  0.0770 -0.6920
  543MOL0     C73213   1.898  12.448   6.152 -0.6610  0.4840  1.3588
  543MOL0    Cl73214   1.842  12.602   6.228  0.3560 -0.6592 -0.2046
  543MOL0     C73215   1.607  11.664   6.510 -0.3100  0.1532  0.1308
  543MOL0     C73216   1.489  11.606   6.544 -0.6029 -0.3548  0.0206
  543MOL0     O73217   1.113  11.698   6.416  0.2270 -0.0674  0.2276
  543MOL0     C73218   0.870  11.600   6.559 -0.2294  0.3317 -0.0920
  543MOL0     C73219   0.761  11.522   6.603 -0.5897  0.1823 -0.4593
  543MOL0     N73220   0.496  11.249   7.323  0.2734  0.1148 -0.7441
  543MOL0     N73221   0.456  11.234   7.447 -0.8679 -0.2471 -0.7318
  543MOL0     C73222   0.489  10.725   8.656 -0.1395  0.0281  0.3138
  543MOL0     C73223   0.432  10.700   8.786 -0.6684 -0.3456 -0.3513
  543MOL0     C73224   0.317  10.728   9.193  0.2788  0.3068 -1.0579
  543MOL0     C73225   0.303  10.838   9.278 -0.0184  0.4928  0.2113
  543MOL0     C73226   0.214  10.833   9.394  0.4937  1.4441 -0.4306
  543MOL0     C73227   0.146  10.718   9.427 -0.5795  0.2176  0.5710
  543MOL0     O73228   0.061  10.692   9.541  0.3850  0.4589 -0.6923
  543MOL0     C73229   0.069  10.780   9.655 -0.7356 -0.0491  0.1451
  543MOL0     C73230   0.044  10.711   9.798  0.7071  0.2174 -0.7241
  543MOL0     C73231   0.144  10.589   9.820  0.5957  0.5522  0.2193
  543MOL0     C73232   0.125  10.526   9.951 -0.1476  0.2287  0.6212
  543MOL0     C73233   0.244  10.441   9.974  0.1700  0.6486  0.1302
  543MOL0     C73234   0.350  10.384   9.970 -0.2856 -0.5874  0.3265
  543MOL0     C73235   0.180  10.603   9.350 -0.2135  0.2224  0.3109
  543MOL0     C73236   0.271  10.603   9.235  0.5116 -0.0628 -0.0767
  543MOL0     C73237   0.289  10.469   9.164  0.0614 -0.2265 -0.8326
  543MOL0     H73238   0.732  10.674   8.943 -0.3287  0.2111  1.3133
  543MOL0     H73239   0.823  10.718   8.724  0.5791 -1.6045 -1.1742
  543MOL0     H73240   0.532  10.775   8.377  1.1272 -1.0410 -1.7944
  543MOL0     H73241   0.547  10.944   8.444 -0.2869  1.0888 -2.7376
  543MOL0     H73242   0.758  10.816   8.270 -0.6467 -0.2907 -1.1276
  543MOL0     H73243   0.736  10.985   8.327  0.5167 -0.7577 -0.0206
  543MOL0     H73244   0.495  10.992   8.228  2.5600  2.3343  2.2164
  543MOL0     H73245   0.535  10.843   8.145 -1.8852  0.9180  0.3331
  543MOL0     H73246   0.684  11.100   8.139  1.7714 -2.3233  1.9252
  543MOL0     H73247   0.747  10.980   8.040  1.4215  4.1078 -1.8188
  543MOL0     H73248   0.537  10.982   7.891  0.5128  0.7377 -1.3948
  543MOL0     H73249   0.491  11.132   7.976 -0.3099  1.9226 -3.3740
  543MOL0     H73250   0.700  11.232   7.921 -1.0182 -0.8858  1.7427
  543MOL0     H73251   0.752  11.091   7.820  3.2727  1.1441  1.4217
  543MOL0     H73252   0.674  11.257   7.677  1.7679 -0.2478  1.7651
  543MOL0     H73253   0.519  11.295   7.764  1.2598  2.5582 -1.5853
  543MOL0     H73254   0.593  11.010   7.665 -1.0429 -0.0805 -0.0606
  543MOL0     H73255   0.436  11.074   7.688 -0.0532 -4.0088 -1.2855
  543MOL0     H73256   0.706  11.034   7.430  0.3117 -1.0438  1.1964
  543MOL0     H73257   0.764  11.210   7.179 -1.1643  2.9339  2.3725
  543MOL0     H73258   0.679  11.050   7.146 -0.9389 -0.6280  1.3346
  543MOL0     H73259   0.513  11.143   7.016  0.0640  0.1118 -0.5251
  543MOL0     H73260   0.569  11.315   7.052 -2.1161 -0.0406  0.1471
  543MOL0     H73261   0.697  11.114   6.877 -1.7867 -1.8040  3.9059
  543MOL0     H73262   0.795  11.239   6.954  2.6013 -2.2470 -3.8759
  543MOL0     H73263   0.666  11.416   6.874 -0.6971  0.4977 -0.9611
  543MOL0     H73264   0.533  11.313   6.823  0.0984  1.6400  3.2918
  543MOL0     H73265   0.935  11.265   6.724 -0.2453  0.4396  1.8030
  543MOL0     H73266   1.112  11.391   6.690  0.3888  1.2103  1.1987
  543MOL0     H73267   1.293  11.871   6.489  0.7660  0.0465  1.9432
  543MOL0     H73268   1.495  11.971   6.425 -3.5706  0.1891  0.0433
  543MOL0     H73269   1.820  11.784   6.615 -0.9384  0.5316  0.6423
  543MOL0     H73270   1.898  11.761   6.455  1.6537  1.1453  0.5295
  543MOL0     H73271   1.880  12.029   6.604  1.8416  0.7360 -0.0131
  543MOL0     H73272   2.027  11.930   6.610 -1.8752  0.3572  0.7995
  543MOL0     H73273   1.999  11.959   6.337  2.1891 -0.0121  0.4971
  543MOL0     H73274   1.885  12.073   6.384 -0.7846 -1.5058 -0.0823
  543MOL0     H73275   2.158  12.080   6.492  0.7383 -1.3179 -2.2814
  543MOL0     H73276   2.056  12.220   6.502  2.4598  1.7408 -0.1521
  543MOL0     H73277   2.179  12.089   6.239 -0.1201  0.1724 -0.2607
  543MOL0     H73278   2.229  12.234   6.317  2.6487 -4.1583  1.3959
  543MOL0     H73279   2.113  12.282   6.112  0.0915  1.9464  0.3041
  543MOL0     H73280   1.974  12.183   6.153  1.5945 -2.5946 -1.0247
  543MOL0     H73281   2.076  12.439   6.285 -0.1934  0.7303 -0.2176
  543MOL0     H73282   1.933  12.342   6.345 -0.1970 -1.2017 -1.5706
  543MOL0     H73283   1.949  12.479   6.060 -0.5882  0.5413  1.4176
  543MOL0     H73284   1.820  12.382   6.113  1.6087 -2.0210  0.7753
  543MOL0     H73285   1.703  11.615   6.522  0.1802  1.3905  1.6919
  543MOL0     H73286   1.482  11.503   6.578 -1.0131 -0.5845 -0.7264
  543MOL0     H73287   0.847  11.688   6.499 -4.7894 -0.5591 -0.0122
  543MOL0     H73288   0.657  11.547   6.587 -1.1004 -0.6034  1.3491
  543MOL0     H73289   0.418  10.748   8.577  2.9515  4.4107 -1.5331
  543MOL0     H73290   0.324  10.701   8.799 -1.1968 -3.6139 -2.9567
  543MOL0     H73291   0.347  10.934   9.253  3.9719 -1.6836 -2.1375
  543MOL0     H73292   0.200  10.922   9.454  0.1875  1.7766 -0.9924
  543MOL0     H73293  -0.008  10.854   9.633 -1.8205 -0.3481  2.6205
  543MOL0     H73294   0.169  10.823   9.664 -0.0535 -1.4269 -0.5539
  543MOL0     H73295  -0.058  10.671   9.804  0.5184  0.4215 -2.3022
  543MOL0     H73296   0.058  10.788   9.875  1.3373  0.8877 -1.4938
  543MOL0     H73297   0.245  10.626   9.799 -0.0571  1.1422 -2.2226
  543MOL0     H73298   0.134  10.504   9.752  0.5309  0.9954 -0.3321
  543MOL0     H73299   0.124  10.603  10.029 -1.1630  0.4138  0.4491
  543MOL0     H73300   0.033  10.467   9.950 -0.9719  1.3624  2.9033
  543MOL0     H73301   0.434  10.321   9.950 -0.1516 -0.0838 -0.7893
  543MOL0     H73302   0.150  10.507   9.391 -0.6709  0.4236  0.4432
  543MOL0     H73303   0.251  10.474   9.061 -0.2244 -0.1260 -0.7243
  543MOL0     H73304   0.391  10.430   9.161 -0.6272 -2.1242 -0.8804
  543MOL0     H73305   0.225  10.391   9.208 -2.0004  1.5901 -0.4352
  544MOL0     O73306   5.859   3.316   6.733  0.3979  0.1833 -0.9441
  544MOL0     C73307   5.879   3.198   6.725 -0.5887 -0.2669 -0.7041
  544MOL0     O73308   5.986   3.147   6.663 -0.3100  1.0226  0.3264
  544MOL0     C73309   6.083   3.225   6.611  0.0978 -0.4590  0.0725
  544MOL0     C73310   6.068   3.265   6.478  0.4320  0.0159  0.4230
  544MOL0     C73311   6.169   3.359   6.429  0.2399 -0.5074  0.1765
  544MOL0     C73312   6.272   3.414   6.512 -0.1716 -0.4512  0.8624
  544MOL0     O73313   6.358   3.528   6.479  0.7910 -0.8555  0.5697
  544MOL0     C73314   6.313   3.631   6.388  0.2508 -0.0252  0.1227
  544MOL0     C73315   6.392   3.755   6.434 -0.6757 -0.0776 -0.8744
  544MOL0     C73316   6.359   3.877   6.343 -0.6430 -0.5280  0.0703
  544MOL0     C73317   6.453   3.995   6.355  1.0224  0.2082 -0.8857
  544MOL0     C73318   6.438   4.064   6.486  0.0048 -0.1777 -0.7765
  544MOL0     C73319   6.540   4.174   6.501  0.1945 -0.4779 -0.1425
  544MOL0     C73320   6.687   4.121   6.509  0.4313 -0.0439 -0.0413
  544MOL0     C73321   6.792   4.240   6.512  0.3298  0.2153  0.5682
  544MOL0     N73322   6.927   4.201   6.492  0.0730  0.1741  0.5371
  544MOL0     C73323   7.031   4.277   6.465 -0.1853 -0.1489  0.3511
  544MOL0     C73324   7.141   4.192   6.463 -0.5072  0.7072  0.0731
  544MOL0     C73325   7.288   4.238   6.453 -0.0084  1.0688  0.4348
  544MOL0     C73326   7.322   4.304   6.328 -0.0683  0.0476  0.0838
  544MOL0     C73327   7.321   4.214   6.207 -0.5840  0.0562  0.7792
  544MOL0     C73328   7.417   4.262   6.094  0.4535 -0.5367 -0.8591
  544MOL0     O73329   7.421   4.148   6.000 -0.3451  0.0885 -0.2877
  544MOL0     C73330   7.445   4.156   5.861  1.1608 -0.0209 -0.8688
  544MOL0     C73331   7.481   4.048   5.791 -0.3842  0.2367  0.6680
  544MOL0     C73332   7.517   4.064   5.650  0.6235 -0.1401 -0.3112
  544MOL0     C73333   7.497   4.187   5.581  0.9008 -0.1609  0.5441
  544MOL0     C73334   7.520   4.195   5.434 -0.8867  0.5651 -0.6121
  544MOL0     O73335   7.551   4.327   5.389 -0.3247  0.8108  0.3314
  544MOL0     C73336   7.545   4.359   5.260 -0.2219  0.0654 -0.0694
  544MOL0     C73337   7.658   4.366   5.186  0.3611 -0.2647  0.2952
  544MOL0     C73338   7.650   4.410   5.055  0.7812 -0.3685  0.0824
  544MOL0     C73339   7.528   4.430   4.987  0.4692  0.1922 -0.2447
  544MOL0     O73340   7.507   4.455   4.852  0.1572 -0.8736 -0.4211
  544MOL0     C73341   7.614   4.526   4.777  0.1591 -1.1457  0.1016
  544MOL0     C73342   7.647   4.669   4.826  0.4351  0.5352  0.1022
  544MOL0     C73343   7.572   4.784   4.746  1.4074 -0.5575 -0.6583
  544MOL0     C73344   7.420   4.797   4.778  0.2763  0.0654  0.1433
  544MOL0     C73345   7.342   4.905   4.696 -0.5219  0.4173  0.0378
  544MOL0     C73346   7.309   4.861   4.561  0.4658  0.6316 -0.0757
  544MOL0     C73347   7.210   4.968   4.500  0.3875  0.0808 -0.6945
  544MOL0     C73348   7.153   4.924   4.371 -0.6234  0.5699  0.2514
  544MOL0    Cl73349   7.059   5.068   4.315 -0.1372  0.1316  0.1926
  544MOL0     C73350   7.414   4.423   5.069 -0.1177 -0.0399 -0.0243
  544MOL0     C73351   7.418   4.380   5.205  0.0819 -0.0012  0.2385
  544MOL0     O73352   7.499   4.103   5.361 -0.0016  1.0128  0.4751
  544MOL0     C73353   7.456   4.300   5.654 -0.3184  0.0101 -0.3251
  544MOL0     C73354   7.447   4.278   5.799 -0.4111 -0.1429 -0.3516
  544MOL0     N73355   7.100   4.064   6.492 -0.6878 -0.1240 -1.0089
  544MOL0     N73356   6.976   4.068   6.517 -0.4008 -0.0029  0.5806
  544MOL0     C73357   6.279   3.365   6.643 -0.2023 -0.3885  0.1011
  544MOL0     C73358   6.189   3.268   6.691  0.9869  0.1512 -0.3443
  544MOL0     C73359   5.791   3.107   6.806  0.1305 -0.2113 -0.2861
  544MOL0     C73360   5.707   3.172   6.894  0.2242 -0.5940  0.2162
  544MOL0     C73361   5.622   3.100   6.980 -0.5592  0.0985  0.5774
  544MOL0     C73362   5.637   2.959   6.997  0.2095  0.4143  0.3797
  544MOL0     O73363   5.562   2.897   7.088  1.2232  0.6928 -0.2387
  544MOL0     C73364   5.489   2.788   7.038  0.3424 -0.1530 -0.1337
  544MOL0     C73365   5.371   2.743   7.121  0.0768 -0.0001  0.3976
  544MOL0     C73366   5.400   2.716   7.259 -0.2419 -0.0322 -1.1758
  544MOL0     C73367   5.262   2.690   7.340 -0.7939  0.2297 -0.3702
  544MOL0     C73368   5.169   2.809   7.340 -0.6378  0.7403 -1.0339
  544MOL0     C73369   5.096   2.898   7.354 -0.0011  0.1472  0.5967
  544MOL0     C73370   5.727   2.887   6.916  0.5379 -0.4212  0.4140
  544MOL0     C73371   5.805   2.963   6.817  0.3285 -0.7247 -0.9901
  544MOL0     C73372   5.900   2.887   6.742  0.9254 -0.1580  0.6054
  544MOL0     H73373   5.984   3.225   6.423 -1.5118 -1.1247  3.9228
  544MOL0     H73374   6.144   3.386   6.326 -2.7266  2.2450  1.4490
  544MOL0     H73375   6.344   3.597   6.289 -0.9996  0.9684 -0.6345
  544MOL0     H73376   6.208   3.660   6.396  0.5864  0.9534  1.3350
  544MOL0     H73377   6.501   3.745   6.436 -0.4149  2.2640 -1.1007
  544MOL0     H73378   6.354   3.782   6.533  2.3726 -0.2000  0.4251
  544MOL0     H73379   6.255   3.911   6.347 -0.7990 -0.7372 -1.3699
  544MOL0     H73380   6.368   3.847   6.238  0.1790  1.0965 -0.3651
  544MOL0     H73381   6.555   3.956   6.366  0.4912 -1.3499 -1.1653
  544MOL0     H73382   6.444   4.072   6.279 -0.8466  3.0378  1.9355
  544MOL0     H73383   6.338   4.106   6.499  0.9965  1.3983  2.7420
  544MOL0     H73384   6.443   3.988   6.564  3.2170  3.2065  2.6829
  544MOL0     H73385   6.531   4.234   6.411  1.4361 -0.8814 -0.5480
  544MOL0     H73386   6.521   4.224   6.597  0.6370 -1.0372  0.2427
  544MOL0     H73387   6.699   4.062   6.417 -0.1971 -0.1307 -0.0735
  544MOL0     H73388   6.686   4.069   6.605  1.4226  0.4502  0.2370
  544MOL0     H73389   6.774   4.315   6.434  0.0614 -0.2967  0.1287
  544MOL0     H73390   6.782   4.286   6.610  1.3448 -0.3372  0.9520
  544MOL0     H73391   7.048   4.381   6.489 -0.5145 -0.8407  4.1753
  544MOL0     H73392   7.316   4.296   6.542  0.8220  0.4035  0.6144
  544MOL0     H73393   7.349   4.149   6.437 -0.5659  1.3765 -5.5651
  544MOL0     H73394   7.252   4.386   6.313 -1.4010 -1.2746 -1.3901
  544MOL0     H73395   7.425   4.339   6.338  0.9388 -1.9132 -2.3146
  544MOL0     H73396   7.220   4.198   6.166 -0.4578 -0.9964  0.8485
  544MOL0     H73397   7.354   4.116   6.242  2.1631  1.1961  1.6132
  544MOL0     H73398   7.518   4.272   6.134 -0.3525  1.2385  0.8815
  544MOL0     H73399   7.372   4.354   6.054 -4.4100 -2.2431 -0.0087
  544MOL0     H73400   7.474   3.948   5.832  2.3370  0.5241  2.0425
  544MOL0     H73401   7.543   3.974   5.596 -1.1595 -2.3235  2.2298
  544MOL0     H73402   7.755   4.346   5.230  1.0081  1.5728 -0.2196
  544MOL0     H73403   7.732   4.410   4.984 -0.0750  0.0498 -0.9374
  544MOL0     H73404   7.707   4.468   4.770  1.8066  1.5186 -3.2408
  544MOL0     H73405   7.560   4.532   4.682 -0.4106 -0.9325  0.4314
  544MOL0     H73406   7.631   4.678   4.933  0.9535 -1.8414  0.4300
  544MOL0     H73407   7.756   4.680   4.827  0.8663 -2.6961  2.1604
  544MOL0     H73408   7.622   4.878   4.772  0.3862  0.6911 -2.9303
  544MOL0     H73409   7.583   4.770   4.639  1.9918 -2.7195 -0.3481
  544MOL0     H73410   7.427   4.829   4.883  0.4831 -1.0296  0.4854
  544MOL0     H73411   7.381   4.695   4.784 -1.9359  0.7349 -1.4824
  544MOL0     H73412   7.414   4.987   4.692 -0.9987  0.8908  0.8701
  544MOL0     H73413   7.252   4.933   4.751 -1.2734 -0.3883 -0.7436
  544MOL0     H73414   7.404   4.841   4.510  1.6498  0.2306  2.1348
  544MOL0     H73415   7.253   4.767   4.563  0.2159  0.7609 -0.6629
  544MOL0     H73416   7.258   5.064   4.476 -0.9001  0.0345 -4.0158
  544MOL0     H73417   7.139   4.991   4.580 -1.8932 -1.2959 -2.2038
  544MOL0     H73418   7.230   4.894   4.299 -2.1629 -4.4635  0.3068
  544MOL0     H73419   7.092   4.838   4.399  1.9350 -1.2179  0.6889
  544MOL0     H73420   7.315   4.438   5.027  1.1329  1.6839 -2.6352
  544MOL0     H73421   7.321   4.381   5.252  0.9769  0.6799  2.1694
  544MOL0     H73422   7.436   4.402   5.623  0.8658  0.0480 -1.0143
  544MOL0     H73423   7.417   4.370   5.849  2.3115 -0.2728  1.7204
  544MOL0     H73424   6.347   3.414   6.712  0.5128  1.8499 -2.0333
  544MOL0     H73425   6.191   3.235   6.794  0.2323 -0.8889 -0.6478
  544MOL0     H73426   5.702   3.280   6.905 -2.9978 -0.3817 -1.8707
  544MOL0     H73427   5.553   3.150   7.047  2.9012  1.7645  3.2186
  544MOL0     H73428   5.548   2.696   7.035  2.4953  1.0572 -4.5420
  544MOL0     H73429   5.460   2.807   6.934 -0.9019 -1.4419 -0.0504
  544MOL0     H73430   5.332   2.649   7.080 -2.5475  1.1065  0.1332
  544MOL0     H73431   5.292   2.819   7.113 -0.0097  0.1628  2.3108
  544MOL0     H73432   5.444   2.803   7.309  1.1130 -0.0093 -2.3616
  544MOL0     H73433   5.452   2.621   7.268 -2.4506 -1.2139  0.1366
  544MOL0     H73434   5.219   2.594   7.310 -1.6331  0.1820  0.8965
  544MOL0     H73435   5.284   2.675   7.446 -2.8470 -0.8306 -0.0335
  544MOL0     H73436   5.028   2.980   7.343 -0.4043 -0.4355 -1.9376
  544MOL0     H73437   5.743   2.781   6.929  0.1368 -0.4869  0.3724
  544MOL0     H73438   5.864   2.784   6.736  1.9866 -0.4682 -2.0091
  544MOL0     H73439   5.908   2.917   6.637 -1.7788 -2.2284 -0.3198
  544MOL0     H73440   5.997   2.888   6.793 -0.2885  2.0203  3.1360
  545MOL0     O73441   9.425   2.305   1.820 -0.3388 -0.3573  0.2500
  545MOL0     C73442   9.460   2.303   1.703 -0.2414  0.4506 -0.6549
  545MOL0     O73443   9.552   2.391   1.652  0.6526 -0.5543  0.8676
  545MOL0     C73444   9.623   2.465   1.743  0.5995  0.2041 -0.4229
  545MOL0     C73445   9.565   2.580   1.787 -0.0951  0.3023 -0.7563
  545MOL0     C73446   9.616   2.642   1.903  0.4789 -0.8064 -0.4590
  545MOL0     C73447   9.736   2.598   1.962 -0.4058 -0.3047  0.4034
  545MOL0     O73448   9.788   2.657   2.069 -1.4843 -0.2587 -0.0934
  545MOL0     C73449   9.794   2.572   2.180  0.2688 -1.2205  0.3835
  545MOL0     C73450   9.902   2.630   2.272 -0.0715  0.5024 -0.7041
  545MOL0     C73451   9.869   2.767   2.344  0.3946 -0.1116  0.1287
  545MOL0     C73452   9.784   2.761   2.468  0.2913  0.6116  0.5764
  545MOL0     C73453   9.639   2.726   2.441 -0.3471 -0.4639  0.0587
  545MOL0     C73454   9.527   2.768   2.555 -0.4214  0.2671  0.5647
  545MOL0     C73455   9.384   2.757   2.488  0.0774  0.1114 -0.1546
  545MOL0     C73456   9.270   2.849   2.553 -0.2537 -0.3508 -0.4219
  545MOL0     N73457   9.257   2.826   2.696 -0.1551  0.4683 -0.3260
  545MOL0     C73458   9.203   2.711   2.744  0.6123  0.6262  0.5190
  545MOL0     C73459   9.221   2.723   2.878  0.0718 -0.7105  0.4172
  545MOL0     C73460   9.200   2.613   2.976  0.2854 -0.4840  0.6105
  545MOL0     C73461   9.315   2.518   2.960 -0.8614  0.7964  0.1552
  545MOL0     C73462   9.300   2.385   3.037 -0.2339 -0.3222 -0.8028
  545MOL0     C73463   9.193   2.297   2.993  0.1002  0.9229  0.0658
  545MOL0     O73464   9.213   2.251   2.856 -0.7404  0.2444 -0.1977
  545MOL0     C73465   9.182   2.117   2.831  1.0407 -0.2342  0.1937
  545MOL0     C73466   9.087   2.043   2.900  0.1729  0.9269  0.5233
  545MOL0     C73467   9.049   1.912   2.835  0.3467 -0.6342  0.4861
  545MOL0     C73468   9.100   1.870   2.707  0.0466 -0.5222 -0.6298
  545MOL0     C73469   9.062   1.740   2.656  0.6164  0.4101 -0.7384
  545MOL0     O73470   8.975   1.666   2.726  0.1701  0.0027  0.0218
  545MOL0     C73471   8.952   1.530   2.708  1.4237  0.2023  1.0361
  545MOL0     C73472   8.927   1.465   2.825 -0.0696  0.2082  1.0911
  545MOL0     C73473   8.904   1.331   2.812 -0.1122  0.0931  0.4263
  545MOL0     C73474   8.925   1.260   2.690  0.1018 -0.4665 -0.0670
  545MOL0     O73475   8.900   1.128   2.702 -0.2178  0.7722 -0.1367
  545MOL0     C73476   8.930   1.024   2.606  0.4512 -0.5687  0.6016
  545MOL0     C73477   9.083   1.021   2.562  0.2177 -0.4200 -0.0637
  545MOL0     C73478   9.106   0.920   2.446  0.1886 -0.5088  0.3736
  545MOL0     C73479   9.039   0.953   2.314 -0.2953  0.1058  0.0073
  545MOL0     C73480   8.968   0.825   2.264 -0.5989  0.4066 -0.2496
  545MOL0     C73481   8.897   0.850   2.132  0.7955  0.1821 -0.4595
  545MOL0     C73482   8.766   0.929   2.156 -0.1706 -0.1610 -0.8963
  545MOL0     C73483   8.719   0.983   2.021 -0.1357 -0.6211  0.6487
  545MOL0    Cl73484   8.695   0.853   1.902  0.8050 -0.0450 -0.0160
  545MOL0     C73485   8.939   1.332   2.576 -0.4926 -0.8940 -0.1276
  545MOL0     C73486   8.951   1.472   2.582  0.4454 -0.6678 -0.5021
  545MOL0     O73487   9.120   1.697   2.561 -0.1538  0.9281  0.5606
  545MOL0     C73488   9.183   1.971   2.638  0.2230  1.0954 -0.8992
  545MOL0     C73489   9.221   2.082   2.703 -1.4084 -0.1053 -0.2879
  545MOL0     N73490   9.276   2.842   2.910 -0.3875  0.5965  0.4458
  545MOL0     N73491   9.303   2.906   2.799  0.7073  0.0467 -0.0664
  545MOL0     C73492   9.809   2.490   1.901  0.3090 -0.6081  0.2182
  545MOL0     C73493   9.749   2.431   1.792 -0.5344  0.7281  0.1037
  545MOL0     C73494   9.390   2.215   1.602 -0.4801 -0.3163  0.6881
  545MOL0     C73495   9.423   2.228   1.471  0.1946  0.1096  0.0837
  545MOL0     C73496   9.354   2.154   1.369 -1.0120  1.2758  0.0918
  545MOL0     C73497   9.252   2.062   1.399  0.0929  0.0921 -0.6543
  545MOL0     O73498   9.192   1.981   1.311  0.3517  0.1580  0.2544
  545MOL0     C73499   9.267   1.931   1.195  0.1430 -0.4414  0.2880
  545MOL0     C73500   9.218   1.979   1.063  0.6125  0.5608 -0.5729
  545MOL0     C73501   9.316   1.930   0.954 -0.1687  0.1473  0.7914
  545MOL0     C73502   9.264   1.826   0.847 -0.4027 -0.5401  0.3172
  545MOL0     C73503   9.230   1.703   0.929  0.6743 -0.1538  0.3091
  545MOL0     C73504   9.213   1.604   0.991  0.0214 -0.0641 -0.9900
  545MOL0     C73505   9.213   2.053   1.530 -0.2723  0.2178 -0.1461
  545MOL0     C73506   9.285   2.123   1.635  0.0695 -0.9529  0.2559
  545MOL0     C73507   9.242   2.088   1.778  0.1876  0.7249  0.6963
  545MOL0     H73508   9.468   2.608   1.746 -2.4750 -0.6973  3.5050
  545MOL0     H73509   9.560   2.725   1.944  1.2839  0.1218 -1.1823
  545MOL0     H73510   9.700   2.560   2.235  0.1518  0.1169  0.5248
  545MOL0     H73511   9.829   2.473   2.150 -0.5598 -1.5291  0.4055
  545MOL0     H73512   9.990   2.637   2.208  0.4856  0.5505  0.0435
  545MOL0     H73513   9.909   2.566   2.361 -0.2338 -3.3520 -3.2212
  545MOL0     H73514   9.823   2.830   2.267 -0.7653  0.7224  1.4614
  545MOL0     H73515   9.963   2.816   2.371  1.1427  0.8777 -3.6034
  545MOL0     H73516   9.814   2.691   2.546 -1.5455 -0.3869  0.4361
  545MOL0     H73517   9.784   2.862   2.510 -2.9450  0.3605  1.4108
  545MOL0     H73518   9.615   2.775   2.346  2.1777  3.1064  1.0124
  545MOL0     H73519   9.624   2.618   2.434 -0.7345 -0.3946 -0.1929
  545MOL0     H73520   9.534   2.721   2.654 -0.9681  4.8338  3.0342
  545MOL0     H73521   9.544   2.875   2.569  1.3225  0.0271  0.5037
  545MOL0     H73522   9.365   2.649   2.483 -0.2687  0.0487  1.6835
  545MOL0     H73523   9.392   2.781   2.382 -0.7043  0.4764 -0.1366
  545MOL0     H73524   9.330   2.940   2.544 -1.3421  0.3269 -1.0193
  545MOL0     H73525   9.172   2.846   2.505 -0.3115  2.7275 -0.7163
  545MOL0     H73526   9.161   2.630   2.685 -0.3536  1.7709 -0.4262
  545MOL0     H73527   9.193   2.645   3.080  1.9355 -1.6112  1.1083
  545MOL0     H73528   9.106   2.567   2.944  0.8830 -0.2604 -1.6295
  545MOL0     H73529   9.331   2.484   2.858 -1.7686 -0.9295  0.5424
  545MOL0     H73530   9.413   2.556   2.991 -0.7525  0.0697  0.7260
  545MOL0     H73531   9.280   2.410   3.141 -0.2641 -3.2253 -0.0334
  545MOL0     H73532   9.392   2.327   3.038  0.7860  1.1822 -1.8472
  545MOL0     H73533   9.097   2.349   2.996 -0.1781  0.3857  1.1753
  545MOL0     H73534   9.196   2.229   3.079 -1.2782  1.6086  0.7013
  545MOL0     H73535   9.042   2.063   2.997  1.2447  2.2191  0.7825
  545MOL0     H73536   8.992   1.846   2.900  1.4337  0.4520  2.6421
  545MOL0     H73537   8.908   1.516   2.919 -1.3533  1.0103  0.4192
  545MOL0     H73538   8.891   1.282   2.908  0.6078  1.1074  1.0615
  545MOL0     H73539   8.896   0.926   2.641 -2.1568 -0.3214 -0.9661
  545MOL0     H73540   8.854   1.023   2.527  0.9888  0.1798  0.0683
  545MOL0     H73541   9.107   1.122   2.525  2.2069 -1.2688 -1.2502
  545MOL0     H73542   9.143   1.011   2.653  2.6573 -0.3923 -1.5626
  545MOL0     H73543   9.213   0.902   2.435  0.1992 -2.3048  2.5262
  545MOL0     H73544   9.061   0.824   2.477 -2.1663  0.1648 -0.7098
  545MOL0     H73545   9.112   0.987   2.241 -1.8781  3.7426 -0.1000
  545MOL0     H73546   8.959   1.029   2.316 -0.8352 -0.4207 -1.1032
  545MOL0     H73547   8.911   0.785   2.349  0.6945 -1.4251 -0.1848
  545MOL0     H73548   9.045   0.751   2.244  1.1050  2.0082  0.0694
  545MOL0     H73549   8.972   0.900   2.069  2.4222  2.7693  3.1711
  545MOL0     H73550   8.867   0.750   2.101  1.0686  0.0654 -0.3537
  545MOL0     H73551   8.782   1.021   2.214  1.0862 -2.9405  3.6814
  545MOL0     H73552   8.693   0.868   2.209  0.1663  0.7051  0.6428
  545MOL0     H73553   8.623   1.034   2.014 -1.0040 -2.0412  1.6023
  545MOL0     H73554   8.799   1.042   1.976  0.3561 -1.3919  0.4890
  545MOL0     H73555   8.950   1.283   2.479  4.4068 -0.1647 -0.1945
  545MOL0     H73556   8.965   1.529   2.491 -3.0524  1.0695 -0.1482
  545MOL0     H73557   9.215   1.960   2.535  1.5766 -0.8012 -0.3377
  545MOL0     H73558   9.281   2.161   2.660 -0.0052 -0.0825  1.6073
  545MOL0     H73559   9.915   2.478   1.916  1.3239  4.5078 -0.9402
  545MOL0     H73560   9.800   2.342   1.758  0.1724  1.1557  0.0165
  545MOL0     H73561   9.500   2.299   1.443  1.1075  1.2992  4.7275
  545MOL0     H73562   9.381   2.180   1.267  3.6605  1.6403  1.1900
  545MOL0     H73563   9.256   1.822   1.195 -2.8912 -0.2346  1.1920
  545MOL0     H73564   9.374   1.951   1.193 -0.1602  1.2904 -1.4696
  545MOL0     H73565   9.213   2.088   1.055  0.1676  0.9078  2.7841
  545MOL0     H73566   9.116   1.939   1.062  0.8495 -0.3699 -4.5785
  545MOL0     H73567   9.404   1.887   1.002 -0.5087  2.3888  3.7156
  545MOL0     H73568   9.343   2.022   0.901 -0.9647 -1.3964 -2.5768
  545MOL0     H73569   9.172   1.859   0.798 -0.0719 -1.1076 -0.7192
  545MOL0     H73570   9.333   1.800   0.767 -0.4447  0.8043 -0.1825
  545MOL0     H73571   9.193   1.521   1.056 -0.5382  0.7936 -0.0243
  545MOL0     H73572   9.127   1.989   1.546  0.1389 -0.4765 -0.6270
  545MOL0     H73573   9.321   2.092   1.853  3.7230  3.3512 -2.7767
  545MOL0     H73574   9.154   2.149   1.804 -1.2812 -0.1176 -1.9682
  545MOL0     H73575   9.209   1.984   1.775  1.8609  0.0828  2.5537
  546MOL0     O73576   5.739   8.021   1.433  0.5600  0.0358  0.2446
  546MOL0     C73577   5.707   8.001   1.316 -0.9363 -0.3958  0.3807
  546MOL0     O73578   5.595   8.046   1.251 -0.6921 -0.5457  0.7624
  546MOL0     C73579   5.487   8.097   1.313  0.6485 -0.0899 -0.6489
  546MOL0     C73580   5.451   8.055   1.443 -0.0510 -0.1167 -1.3600
  546MOL0     C73581   5.340   8.124   1.509  0.3700  0.3657  0.7714
  546MOL0     C73582   5.261   8.219   1.445  0.1765 -1.0433  0.2691
  546MOL0     O73583   5.155   8.266   1.523  0.2810 -0.3825  0.2450
  546MOL0     C73584   5.059   8.359   1.475  0.3631 -1.1808 -0.0681
  546MOL0     C73585   4.958   8.407   1.582  0.0433  0.4738 -0.5037
  546MOL0     C73586   4.921   8.289   1.673  0.9146 -0.8346  0.1405
  546MOL0     C73587   4.817   8.346   1.777  0.4893 -0.1089 -0.0957
  546MOL0     C73588   4.787   8.254   1.897  0.3961 -0.3227 -0.1823
  546MOL0     C73589   4.656   8.281   1.972  0.0926  0.2621  0.0048
  546MOL0     C73590   4.531   8.237   1.887 -0.0606 -0.2568  0.1283
  546MOL0     C73591   4.392   8.235   1.968 -0.1188  0.2715 -0.0182
  546MOL0     N73592   4.351   8.364   2.017  0.0983  0.9480 -0.6664
  546MOL0     C73593   4.316   8.459   1.929  0.0622  0.2989 -0.3796
  546MOL0     C73594   4.244   8.548   2.009 -0.5485 -0.3344 -0.0069
  546MOL0     C73595   4.186   8.682   1.967  0.0972  0.0137 -0.1317
  546MOL0     C73596   4.076   8.686   1.862  0.4321 -0.2478  0.0352
  546MOL0     C73597   4.008   8.815   1.829  0.0617  0.1152 -0.8523
  546MOL0     C73598   4.114   8.919   1.765  0.9067  0.2488 -0.3535
  546MOL0     O73599   4.202   8.976   1.852 -0.5683  0.3931 -0.3093
  546MOL0     C73600   4.285   9.076   1.796 -0.4295 -0.3421 -0.7982
  546MOL0     C73601   4.303   9.104   1.661 -0.4193 -0.6740  0.9714
  546MOL0     C73602   4.404   9.193   1.617 -0.3879  0.4063  0.5329
  546MOL0     C73603   4.493   9.254   1.705  0.6235  0.0590  0.5092
  546MOL0     C73604   4.603   9.340   1.651 -0.0102  0.1994 -0.6780
  546MOL0     O73605   4.676   9.420   1.749  0.6217  0.2290  0.1662
  546MOL0     C73606   4.751   9.515   1.689 -0.6447 -0.0241 -0.3665
  546MOL0     C73607   4.885   9.484   1.666 -1.3587 -0.0288 -1.1586
  546MOL0     C73608   4.962   9.567   1.583 -0.1539 -0.4651  0.0747
  546MOL0     C73609   4.906   9.685   1.530 -0.1142  0.1980 -0.4503
  546MOL0     O73610   4.967   9.779   1.452 -0.3657 -0.5167  0.4802
  546MOL0     C73611   5.118   9.778   1.453  0.7668  0.5557 -0.7918
  546MOL0     C73612   5.162   9.912   1.424 -0.1154 -0.7569 -0.0692
  546MOL0     C73613   5.147  10.008   1.542 -0.4691  0.2071  1.0873
  546MOL0     C73614   5.253  10.118   1.555 -0.3132  0.6090  0.2344
  546MOL0     C73615   5.256  10.206   1.429  0.4461  0.4013  1.0205
  546MOL0     C73616   5.363  10.316   1.431  0.1687 -0.4877  0.1956
  546MOL0     C73617   5.393  10.388   1.295  0.5598 -0.4046 -0.6733
  546MOL0     C73618   5.453  10.314   1.179 -0.3949  0.8462 -0.9077
  546MOL0    Cl73619   5.570  10.200   1.246 -0.2701  0.1760 -0.0114
  546MOL0     C73620   4.779   9.719   1.556  0.9206 -0.4193  0.1336
  546MOL0     C73621   4.702   9.634   1.636  0.7022 -0.9759 -0.3738
  546MOL0     O73622   4.624   9.343   1.532  0.4079 -0.0805 -0.2333
  546MOL0     C73623   4.467   9.232   1.843 -1.0782 -0.0523  0.6278
  546MOL0     C73624   4.368   9.143   1.886  0.6234  0.1406 -0.1949
  546MOL0     N73625   4.236   8.494   2.141  0.7546 -0.5453  1.1194
  546MOL0     N73626   4.309   8.386   2.145 -0.4295  0.1696 -0.7180
  546MOL0     C73627   5.293   8.255   1.311  0.5394 -0.1380 -1.0849
  546MOL0     C73628   5.404   8.190   1.248 -0.0311  0.5272  0.1770
  546MOL0     C73629   5.834   7.981   1.229 -0.0332  0.9665  0.0685
  546MOL0     C73630   5.821   8.013   1.095  0.2805 -0.4821  0.1168
  546MOL0     C73631   5.919   7.977   1.009 -0.3729  0.1386 -0.1428
  546MOL0     C73632   6.044   7.937   1.053  0.9331  0.0075 -0.3270
  546MOL0     O73633   6.145   7.937   0.964 -0.2731  0.0220 -0.2308
  546MOL0     C73634   6.122   7.870   0.834  0.7143 -0.1273 -0.4285
  546MOL0     C73635   6.257   7.805   0.794 -0.8235 -1.2150  0.0379
  546MOL0     C73636   6.292   7.707   0.912  1.0043 -0.6428 -0.0053
  546MOL0     C73637   6.416   7.619   0.894  0.3996 -0.2160 -0.6917
  546MOL0     C73638   6.401   7.531   0.771  0.4438 -0.1916  0.0296
  546MOL0     C73639   6.430   7.471   0.667 -0.3303  0.9171  0.9266
  546MOL0     C73640   6.071   7.918   1.190  1.0104 -0.1768 -0.1238
  546MOL0     C73641   5.966   7.943   1.278 -1.0136 -0.4169 -0.6379
  546MOL0     C73642   6.001   7.936   1.421 -0.0994 -0.2266  0.2399
  546MOL0     H73643   5.509   7.983   1.500 -1.3306  0.8646  1.3668
  546MOL0     H73644   5.301   8.109   1.609  0.2077  0.2452  0.6899
  546MOL0     H73645   5.119   8.444   1.442  2.4197 -2.5008  0.0722
  546MOL0     H73646   4.999   8.313   1.395 -0.0125 -0.3724 -0.2610
  546MOL0     H73647   4.869   8.454   1.541  1.0897  2.2097 -0.9033
  546MOL0     H73648   5.012   8.480   1.643  1.9418 -0.3649 -1.0895
  546MOL0     H73649   5.007   8.246   1.724  0.3338 -1.3161  0.7448
  546MOL0     H73650   4.866   8.208   1.623 -1.2342  0.4672  0.2704
  546MOL0     H73651   4.873   8.427   1.825  0.4905 -0.2649  0.1710
  546MOL0     H73652   4.726   8.378   1.726  1.2764 -0.1719 -1.5705
  546MOL0     H73653   4.785   8.155   1.850 -1.5002  0.2301 -1.4005
  546MOL0     H73654   4.856   8.277   1.978 -2.0546 -1.0369  2.2436
  546MOL0     H73655   4.662   8.224   2.064 -0.1621 -1.5354 -1.0507
  546MOL0     H73656   4.637   8.387   1.992 -0.5071  0.1965 -0.1836
  546MOL0     H73657   4.547   8.147   1.827  1.1905  1.7569 -2.8262
  546MOL0     H73658   4.512   8.317   1.815  1.1944  0.0173  0.0866
  546MOL0     H73659   4.305   8.197   1.913  0.2544 -1.6071  0.5973
  546MOL0     H73660   4.401   8.160   2.048  2.6795 -0.6529 -1.0869
  546MOL0     H73661   4.340   8.462   1.823  0.6813 -1.6944 -0.3407
  546MOL0     H73662   4.139   8.719   2.059 -2.9930 -1.3772 -1.0064
  546MOL0     H73663   4.273   8.738   1.932  1.2816 -1.2835  0.6257
  546MOL0     H73664   4.123   8.643   1.773  2.8053  2.2752 -0.1042
  546MOL0     H73665   3.993   8.625   1.897 -0.6007  0.8474 -0.4128
  546MOL0     H73666   3.955   8.859   1.914 -0.8725  0.4350 -1.5875
  546MOL0     H73667   3.929   8.803   1.754 -0.8031  1.9192 -0.2918
  546MOL0     H73668   4.062   9.007   1.726 -3.0580 -1.6023  0.2768
  546MOL0     H73669   4.159   8.869   1.679 -1.1318  0.8232 -1.8292
  546MOL0     H73670   4.234   9.061   1.590 -2.0497 -0.1903  2.2116
  546MOL0     H73671   4.402   9.209   1.510  1.1215 -1.7527  0.1075
  546MOL0     H73672   4.933   9.395   1.705  0.6742  1.4379 -0.1027
  546MOL0     H73673   5.059   9.526   1.556 -0.2949  0.6673 -2.3989
  546MOL0     H73674   5.152   9.745   1.552 -1.2158 -1.2593 -0.6424
  546MOL0     H73675   5.150   9.701   1.383 -0.7436 -1.0344  0.1703
  546MOL0     H73676   5.268   9.911   1.397  0.2674 -0.3404  1.3027
  546MOL0     H73677   5.106   9.945   1.336 -2.8694 -2.7626  0.7805
  546MOL0     H73678   5.045  10.046   1.555  0.1332  1.5566  2.1457
  546MOL0     H73679   5.149   9.942   1.629 -2.0187  1.3043  2.0127
  546MOL0     H73680   5.353  10.072   1.556 -0.2231  0.5818 -2.2363
  546MOL0     H73681   5.226  10.168   1.648 -0.6191 -2.2242  1.7688
  546MOL0     H73682   5.162  10.259   1.414  0.1087 -0.1663  1.1133
  546MOL0     H73683   5.263  10.147   1.338  0.7945  3.0928 -0.8148
  546MOL0     H73684   5.327  10.384   1.508 -1.6835 -2.6710  1.3824
  546MOL0     H73685   5.453  10.265   1.465 -1.1697 -2.3634  1.0746
  546MOL0     H73686   5.446  10.479   1.325 -4.4999  2.9789 -0.7227
  546MOL0     H73687   5.296  10.419   1.257 -0.4289 -1.8642  0.5646
  546MOL0     H73688   5.386  10.250   1.121  0.3534 -0.1991 -0.6526
  546MOL0     H73689   5.490  10.389   1.109  0.4526 -0.1326 -1.5445
  546MOL0     H73690   4.744   9.807   1.503  0.6849 -2.5467 -3.5931
  546MOL0     H73691   4.599   9.663   1.653 -0.1359 -4.0362  0.3128
  546MOL0     H73692   4.533   9.288   1.909  2.0775  1.4864 -3.3984
  546MOL0     H73693   4.360   9.121   1.992 -0.8256  0.9810 -0.1022
  546MOL0     H73694   5.245   8.342   1.267  0.6130  0.9482  0.8789
  546MOL0     H73695   5.449   8.218   1.153  0.4099  2.6461  0.9559
  546MOL0     H73696   5.725   8.042   1.053 -1.3560 -2.0300  2.5057
  546MOL0     H73697   5.905   7.993   0.903  2.7735 -3.1542 -1.2671
  546MOL0     H73698   6.091   7.938   0.755  2.4307 -0.5270 -1.4883
  546MOL0     H73699   6.048   7.791   0.848  3.0594 -2.5620 -0.7827
  546MOL0     H73700   6.339   7.873   0.766 -1.8447  0.2483  0.4505
  546MOL0     H73701   6.250   7.748   0.701 -2.4773 -2.4451  0.8680
  546MOL0     H73702   6.205   7.640   0.918  0.2735  0.2589 -0.3370
  546MOL0     H73703   6.309   7.766   1.002  4.8697 -1.3190 -0.1291
  546MOL0     H73704   6.512   7.670   0.887  0.9821 -1.1067  0.4824
  546MOL0     H73705   6.427   7.547   0.975 -1.9510 -2.2935 -2.0518
  546MOL0     H73706   6.433   7.417   0.574  0.6382  1.7243  0.4729
  546MOL0     H73707   6.175   7.909   1.220  0.7778  1.2797  1.2780
  546MOL0     H73708   5.978   8.023   1.484  0.3476  0.1156 -0.0657
  546MOL0     H73709   5.969   7.838   1.456  0.9283 -0.1660  1.4409
  546MOL0     H73710   6.108   7.927   1.440 -0.5051 -0.0996  3.1190
  547MOL0     O73711   5.848   2.104   7.527  0.0262 -0.2623  0.9138
  547MOL0     C73712   5.852   1.993   7.585 -0.9278 -0.2260 -1.1657
  547MOL0     O73713   5.927   1.954   7.696 -0.8068  0.0943 -0.1479
  547MOL0     C73714   6.011   2.040   7.750 -0.9407 -0.7164  0.2490
  547MOL0     C73715   6.146   1.995   7.772  0.0214  0.8469 -0.7928
  547MOL0     C73716   6.246   2.071   7.817 -0.3773 -0.3868  0.2426
  547MOL0     C73717   6.219   2.212   7.836 -0.1871 -0.9050  0.4010
  547MOL0     O73718   6.329   2.285   7.871 -0.1935 -0.1836 -0.5974
  547MOL0     C73719   6.312   2.410   7.937  0.7791  0.5330 -0.7816
  547MOL0     C73720   6.275   2.411   8.082  1.1136 -0.0009 -1.0362
  547MOL0     C73721   6.372   2.479   8.171  0.1225 -0.9835  0.0182
  547MOL0     C73722   6.356   2.631   8.156 -0.3027  1.5052 -0.1353
  547MOL0     C73723   6.261   2.696   8.262 -0.4807 -0.5758  0.0496
  547MOL0     C73724   6.195   2.830   8.204 -0.7575  0.1013  0.3466
  547MOL0     C73725   6.276   2.966   8.235 -0.0089  0.9872 -0.3288
  547MOL0     C73726   6.224   3.093   8.160  0.2115 -0.8446  0.6266
  547MOL0     N73727   6.288   3.214   8.217  0.0048  0.3858  1.2990
  547MOL0     C73728   6.263   3.267   8.339 -1.1442 -0.6997 -0.4941
  547MOL0     C73729   6.327   3.389   8.332  0.1240  0.1324 -0.9692
  547MOL0     C73730   6.324   3.486   8.436  0.7202 -0.5615  0.7399
  547MOL0     C73731   6.452   3.481   8.520  0.0329  0.5188  0.2423
  547MOL0     C73732   6.429   3.537   8.660 -0.4867  0.0733  0.0500
  547MOL0     C73733   6.556   3.589   8.738 -0.2506  0.2211  0.1942
  547MOL0     O73734   6.682   3.527   8.700  0.3798 -0.2387 -0.0834
  547MOL0     C73735   6.702   3.390   8.707  1.0402 -0.2870  0.0887
  547MOL0     C73736   6.610   3.296   8.743 -0.7135  0.9602  0.9799
  547MOL0     C73737   6.643   3.159   8.767  0.2899  0.0114  0.0403
  547MOL0     C73738   6.777   3.117   8.759  0.1925 -0.9273  0.3532
  547MOL0     C73739   6.813   2.986   8.794  0.1132 -0.0502  0.1671
  547MOL0     O73740   6.727   2.914   8.878 -0.0331 -0.2058  0.2465
  547MOL0     C73741   6.746   2.785   8.926  0.1338  0.3032  0.6436
  547MOL0     C73742   6.639   2.714   8.976 -0.6249 -0.3241  0.2260
  547MOL0     C73743   6.644   2.584   9.029  0.2840 -0.1239 -0.1395
  547MOL0     C73744   6.771   2.512   9.040  0.0200  0.4658  0.7540
  547MOL0     O73745   6.794   2.388   9.105 -0.2636 -0.0063 -0.9762
  547MOL0     C73746   6.676   2.313   9.131 -0.6136 -2.0659 -0.4389
  547MOL0     C73747   6.617   2.338   9.272  0.1745 -0.8067  0.5928
  547MOL0     C73748   6.713   2.315   9.379  0.2182  0.5545 -0.1096
  547MOL0     C73749   6.671   2.322   9.528 -0.4632 -0.2512  0.6497
  547MOL0     C73750   6.788   2.297   9.619 -0.8365  0.6917  0.7120
  547MOL0     C73751   6.779   2.308   9.772  0.3289  0.4255  0.9743
  547MOL0     C73752   6.741   2.165   9.824  0.8688 -0.6223 -0.1392
  547MOL0     C73753   6.594   2.125   9.789 -0.4530 -0.1298 -0.1885
  547MOL0    Cl73754   6.544   1.990   9.892  0.8005 -0.0666  0.3512
  547MOL0     C73755   6.878   2.577   8.987 -0.3059  0.2200  1.0456
  547MOL0     C73756   6.873   2.710   8.943  0.8568  0.8246  0.0504
  547MOL0     O73757   6.920   2.949   8.752 -0.9191  0.8945 -0.1315
  547MOL0     C73758   6.863   3.213   8.696 -0.3302  0.2145  0.0038
  547MOL0     C73759   6.827   3.343   8.679 -0.4279 -0.4305 -0.5852
  547MOL0     N73760   6.388   3.398   8.213  0.4261 -0.0309  0.5404
  547MOL0     N73761   6.363   3.294   8.143 -0.8683 -0.2301  0.1151
  547MOL0     C73762   6.086   2.265   7.823 -1.1539 -0.2283  0.0701
  547MOL0     C73763   5.985   2.179   7.782 -0.0673  0.8293  0.3031
  547MOL0     C73764   5.774   1.887   7.518  0.4516  0.0560  0.3565
  547MOL0     C73765   5.642   1.908   7.509  0.7523 -0.0073  0.0583
  547MOL0     C73766   5.564   1.820   7.440 -0.5058  0.8648 -0.1665
  547MOL0     C73767   5.612   1.713   7.377  0.2462  0.7935 -0.0557
  547MOL0     O73768   5.522   1.622   7.326 -0.3022 -0.3096 -0.4718
  547MOL0     C73769   5.569   1.538   7.212 -0.4973  0.0785  0.3647
  547MOL0     C73770   5.606   1.400   7.271 -0.8059  0.1054  0.5387
  547MOL0     C73771   5.693   1.320   7.171 -0.0684  0.7588 -0.5418
  547MOL0     C73772   5.757   1.199   7.252 -0.4887  0.4370 -0.2851
  547MOL0     C73773   5.844   1.111   7.172 -0.3119 -0.0691 -0.6424
  547MOL0     C73774   5.900   1.020   7.109  0.3955 -0.1360  0.3044
  547MOL0     C73775   5.746   1.686   7.388  0.4786 -0.7893  0.0986
  547MOL0     C73776   5.819   1.769   7.467  0.1038 -0.0660 -0.7120
  547MOL0     C73777   5.966   1.752   7.465  0.0573  0.2031 -0.3295
  547MOL0     H73778   6.176   1.899   7.729 -1.1082 -0.9712  2.1864
  547MOL0     H73779   6.341   2.026   7.842 -1.2970 -1.9416  1.1479
  547MOL0     H73780   6.403   2.468   7.919  0.2434  1.9385  0.7945
  547MOL0     H73781   6.239   2.477   7.891  1.1291  2.5541  1.3899
  547MOL0     H73782   6.282   2.307   8.115  2.5426  0.2018 -0.6392
  547MOL0     H73783   6.172   2.447   8.091  0.3023 -1.4641 -3.6473
  547MOL0     H73784   6.476   2.455   8.147  1.9888  3.2267  2.7059
  547MOL0     H73785   6.353   2.440   8.271  3.4243 -2.9269  0.0276
  547MOL0     H73786   6.458   2.669   8.161  1.7785 -3.0213 -2.5240
  547MOL0     H73787   6.306   2.654   8.061 -1.1407 -1.7450 -0.5982
  547MOL0     H73788   6.186   2.620   8.285 -2.3175 -0.0557 -3.5024
  547MOL0     H73789   6.309   2.722   8.357 -1.8386 -0.7513  0.8111
  547MOL0     H73790   6.187   2.823   8.095 -3.9388  2.3379  0.2905
  547MOL0     H73791   6.089   2.838   8.232 -0.2959  1.2305  1.9049
  547MOL0     H73792   6.378   2.942   8.203 -1.0013 -2.7529 -1.1443
  547MOL0     H73793   6.285   2.995   8.340  2.0005  1.7053 -0.6559
  547MOL0     H73794   6.241   3.073   8.054 -1.5480  1.0533 -0.0663
  547MOL0     H73795   6.116   3.091   8.178  0.5767  0.5211  3.7728
  547MOL0     H73796   6.208   3.218   8.419 -0.8845 -1.9402 -1.0443
  547MOL0     H73797   6.313   3.587   8.395  0.5754  0.7335  3.7593
  547MOL0     H73798   6.234   3.477   8.497 -1.3019  0.3425 -1.8785
  547MOL0     H73799   6.483   3.376   8.528  2.0911  0.9811 -1.0794
  547MOL0     H73800   6.532   3.535   8.469  0.2615 -0.9033 -0.9588
  547MOL0     H73801   6.373   3.466   8.721 -3.1756 -0.9090 -3.2156
  547MOL0     H73802   6.360   3.622   8.654  0.1786  0.7370  1.4360
  547MOL0     H73803   6.544   3.575   8.846  1.5341  0.8054  0.4919
  547MOL0     H73804   6.568   3.696   8.718  0.1040 -0.0895 -1.4294
  547MOL0     H73805   6.504   3.311   8.757 -0.6164 -0.2787  3.6274
  547MOL0     H73806   6.564   3.089   8.792  1.1878 -0.5693  1.3778
  547MOL0     H73807   6.546   2.770   8.980 -1.1633 -1.2488  1.2435
  547MOL0     H73808   6.543   2.551   9.052  1.3610 -2.0566  2.2510
  547MOL0     H73809   6.607   2.327   9.047  1.6998  1.5956 -1.9879
  547MOL0     H73810   6.714   2.211   9.129 -0.7091 -2.0975 -0.6387
  547MOL0     H73811   6.573   2.438   9.270 -1.6718 -1.5897 -0.0948
  547MOL0     H73812   6.533   2.269   9.287 -0.9450 -0.4593 -3.0471
  547MOL0     H73813   6.742   2.212   9.360  0.4659  0.5013  0.5528
  547MOL0     H73814   6.808   2.366   9.359  0.7725  0.5432  2.2553
  547MOL0     H73815   6.583   2.258   9.544  0.1605 -0.9362  1.3711
  547MOL0     H73816   6.629   2.422   9.540 -3.0135 -0.9711 -1.2770
  547MOL0     H73817   6.876   2.354   9.591 -1.2399  0.3423 -1.4768
  547MOL0     H73818   6.822   2.197   9.590 -2.1432  0.3507  0.2657
  547MOL0     H73819   6.879   2.337   9.807  2.7045 -1.0666 -3.6221
  547MOL0     H73820   6.705   2.374   9.816  1.5269  1.4711  1.4876
  547MOL0     H73821   6.751   2.164   9.932 -1.7611 -1.7046  0.1692
  547MOL0     H73822   6.816   2.097   9.782  0.4508 -1.8001  0.9805
  547MOL0     H73823   6.531   2.211   9.812  1.6671  1.4339  0.1049
  547MOL0     H73824   6.604   2.104   9.682  3.0883  1.7160 -0.3665
  547MOL0     H73825   6.976   2.530   8.998  0.6857  1.2533 -2.2483
  547MOL0     H73826   6.963   2.759   8.908  0.5542 -0.4296 -2.8050
  547MOL0     H73827   6.964   3.189   8.662  0.0451 -0.0374  1.2656
  547MOL0     H73828   6.903   3.412   8.645  0.1408  0.5558  2.4064
  547MOL0     H73829   6.065   2.368   7.848 -1.9465 -0.4292  0.2422
  547MOL0     H73830   5.878   2.195   7.771  0.2657  2.7353 -0.5279
  547MOL0     H73831   5.602   1.996   7.558  0.6458 -0.1500  0.2245
  547MOL0     H73832   5.458   1.845   7.445 -0.0607  2.7591  1.2341
  547MOL0     H73833   5.654   1.591   7.168 -0.2372 -0.5879  0.0496
  547MOL0     H73834   5.503   1.522   7.126 -2.1243 -3.3652  2.1000
  547MOL0     H73835   5.525   1.336   7.305 -0.9500  1.5081  3.0573
  547MOL0     H73836   5.668   1.422   7.359  1.2437  2.3855 -1.3096
  547MOL0     H73837   5.775   1.386   7.141  1.0773 -0.7684 -0.8918
  547MOL0     H73838   5.627   1.285   7.091 -1.4914  0.5500  0.6810
  547MOL0     H73839   5.812   1.235   7.340 -2.5459  3.5645 -0.1011
  547MOL0     H73840   5.682   1.127   7.288  1.1427 -0.9006  0.5743
  547MOL0     H73841   5.939   0.943   7.046  0.1513  0.7834 -1.0079
  547MOL0     H73842   5.799   1.605   7.339 -0.3552 -1.7271  0.7270
  547MOL0     H73843   5.991   1.648   7.488 -1.7529 -0.3459 -0.6920
  547MOL0     H73844   5.995   1.767   7.361  0.6442  1.1536 -0.0387
  547MOL0     H73845   6.018   1.819   7.534 -1.6148  1.5175 -0.2621
  548MOL0     O73846   2.039   1.153  11.056  0.1181  1.1633  0.0577
  548MOL0     C73847   1.918   1.134  11.025 -0.4351  0.3811  0.8516
  548MOL0     O73848   1.873   1.157  10.897 -0.6454  0.2205 -0.6028
  548MOL0     C73849   1.967   1.131  10.795  0.0957  0.1045  0.0595
  548MOL0     C73850   1.973   0.991  10.759 -1.5414  0.0083 -0.8767
  548MOL0     C73851   2.080   0.961  10.668  0.7427  0.4451  0.6092
  548MOL0     C73852   2.159   1.052  10.602 -0.2355 -0.4441 -0.0826
  548MOL0     O73853   2.253   1.000  10.510 -0.0330 -0.2540 -0.0158
  548MOL0     C73854   2.384   1.058  10.502  0.1114 -0.5200  0.0510
  548MOL0     C73855   2.449   1.004  10.377  0.0420  0.0810 -0.3132
  548MOL0     C73856   2.535   1.113  10.307 -0.0280 -0.2368 -0.5973
  548MOL0     C73857   2.582   1.061  10.171 -0.3394  0.5821 -0.0345
  548MOL0     C73858   2.680   1.156  10.111  0.0419  0.5724  0.3582
  548MOL0     C73859   2.773   1.106   9.997 -0.4506  0.9627 -0.2556
  548MOL0     C73860   2.856   1.210   9.922  1.2485 -0.2098  0.5429
  548MOL0     C73861   2.784   1.303   9.813 -1.2299 -0.6795 -0.8300
  548MOL0     N73862   2.863   1.429   9.776 -0.0611 -0.3351 -0.2494
  548MOL0     C73863   2.888   1.548   9.850 -0.0662  0.2639  0.6891
  548MOL0     C73864   2.990   1.612   9.782  0.6926 -0.4184  0.2083
  548MOL0     C73865   3.069   1.734   9.810 -1.1663  0.4756 -0.8247
  548MOL0     C73866   3.017   1.853   9.723  0.6817 -0.8618 -0.0059
  548MOL0     C73867   2.974   1.975   9.825 -0.1571  0.2783 -0.5324
  548MOL0     C73868   2.963   2.100   9.737  0.3471  0.9944  0.4566
  548MOL0     O73869   3.090   2.136   9.683 -0.1234 -0.0212 -0.3544
  548MOL0     C73870   3.178   2.198   9.769 -0.6737 -0.1170  0.2368
  548MOL0     C73871   3.165   2.328   9.816  0.2804  0.5005 -0.3440
  548MOL0     C73872   3.262   2.389   9.899  0.1528  1.5330  0.3431
  548MOL0     C73873   3.379   2.322   9.928  0.2557 -0.4495 -0.6107
  548MOL0     C73874   3.477   2.382  10.024 -0.2942 -0.4476 -1.0581
  548MOL0     O73875   3.462   2.518  10.059  0.2499 -0.1474 -0.1062
  548MOL0     C73876   3.565   2.589  10.113 -0.0247  0.1048  0.3660
  548MOL0     C73877   3.705   2.548  10.117 -0.4403 -0.4465  0.8661
  548MOL0     C73878   3.797   2.651  10.158 -0.3221  0.2887 -0.5833
  548MOL0     C73879   3.761   2.772  10.219  0.8556  0.7072 -1.2072
  548MOL0     O73880   3.850   2.866  10.269  0.7518  0.6228  0.1773
  548MOL0     C73881   3.918   2.823  10.388 -0.6651  0.0424 -0.0001
  548MOL0     C73882   3.996   2.935  10.457  0.5208 -0.4939 -0.6285
  548MOL0     C73883   4.095   3.019  10.370 -0.1611  1.0811  0.2826
  548MOL0     C73884   4.191   3.103  10.455 -0.3046 -0.9887  0.6326
  548MOL0     C73885   4.305   3.160  10.370  0.1879  0.8448 -0.6390
  548MOL0     C73886   4.405   3.264  10.438  0.3518  0.1590  0.1982
  548MOL0     C73887   4.341   3.375  10.521 -0.2049 -0.1227  0.0115
  548MOL0     C73888   4.436   3.459  10.610  0.9274 -0.3157  0.5100
  548MOL0    Cl73889   4.504   3.371  10.748  0.4458  0.4299 -0.1599
  548MOL0     C73890   3.623   2.808  10.224  0.1760 -0.0241 -0.5861
  548MOL0     C73891   3.529   2.722  10.155 -0.5419 -0.3827 -0.3078
  548MOL0     O73892   3.552   2.304  10.072 -0.8674 -0.4618 -0.6197
  548MOL0     C73893   3.392   2.188   9.879 -0.4382  0.1114  0.4248
  548MOL0     C73894   3.295   2.130   9.797  0.6258 -0.2194  0.1238
  548MOL0     N73895   3.010   1.538   9.670  0.4385 -0.0816  0.3967
  548MOL0     N73896   2.939   1.426   9.670 -0.1312 -0.3412  0.5651
  548MOL0     C73897   2.145   1.191  10.636  0.9053  0.4454 -0.1721
  548MOL0     C73898   2.046   1.232  10.734 -0.2662  1.3025  0.3342
  548MOL0     C73899   1.819   1.120  11.137  0.4015 -0.0713  0.1496
  548MOL0     C73900   1.686   1.143  11.101  0.2286  0.4121  0.0118
  548MOL0     C73901   1.587   1.145  11.196  0.1884  0.4936  0.6216
  548MOL0     C73902   1.605   1.116  11.330  0.1517  0.1506  0.5776
  548MOL0     O73903   1.505   1.132  11.418  0.0758 -0.7058 -0.4267
  548MOL0     C73904   1.508   1.080  11.553  0.6604  0.6305 -0.1252
  548MOL0     C73905   1.364   1.088  11.605 -0.2799  0.3302  0.1381
  548MOL0     C73906   1.267   1.016  11.526  0.1545  1.0100  0.1857
  548MOL0     C73907   1.150   0.967  11.614 -0.6033  0.8604  0.3213
  548MOL0     C73908   1.057   0.869  11.559  0.1324  0.5649  0.4672
  548MOL0     C73909   0.970   0.799  11.516 -0.4025 -0.1998 -0.7886
  548MOL0     C73910   1.740   1.084  11.361 -0.3402 -0.5441  0.2100
  548MOL0     C73911   1.849   1.081  11.269 -0.6851 -0.4067  0.0567
  548MOL0     C73912   1.989   1.021  11.308  0.6866 -0.6243  0.6674
  548MOL0     H73913   1.919   0.911  10.808 -0.0077 -0.7655 -0.3793
  548MOL0     H73914   2.096   0.857  10.644 -0.4517  0.1690  0.9601
  548MOL0     H73915   2.383   1.167  10.494 -0.3810 -0.5559 -0.4203
  548MOL0     H73916   2.443   1.042  10.593  1.8618  0.7862 -0.7872
  548MOL0     H73917   2.376   0.972  10.302  0.6870 -1.3735 -0.3543
  548MOL0     H73918   2.512   0.921  10.409 -2.2274 -0.9052  1.8893
  548MOL0     H73919   2.619   1.158  10.360  3.0595 -3.7565 -2.0026
  548MOL0     H73920   2.470   1.195  10.277  2.7219  2.1024 -0.5346
  548MOL0     H73921   2.633   0.965  10.185  2.3652  1.8208 -0.8925
  548MOL0     H73922   2.489   1.039  10.117  0.7173  1.6424 -2.3803
  548MOL0     H73923   2.616   1.236  10.073  0.6008  1.5879  1.5041
  548MOL0     H73924   2.748   1.193  10.189  0.9455  0.7454 -0.4953
  548MOL0     H73925   2.839   1.029  10.037 -0.3199  0.9554 -0.4840
  548MOL0     H73926   2.720   1.042   9.925 -1.9130 -1.4265  2.6912
  548MOL0     H73927   2.936   1.160   9.867  2.4776  1.3353  0.8660
  548MOL0     H73928   2.908   1.272   9.995  2.9595 -1.5622  0.5469
  548MOL0     H73929   2.772   1.245   9.721 -0.9271 -0.0595 -1.2738
  548MOL0     H73930   2.688   1.336   9.854  0.2247 -0.6304  2.9933
  548MOL0     H73931   2.855   1.581   9.948 -0.3576  1.6130  0.1536
  548MOL0     H73932   3.079   1.757   9.916  2.1094  0.7392 -1.0826
  548MOL0     H73933   3.175   1.728   9.780 -1.2232  1.1930 -1.1950
  548MOL0     H73934   3.094   1.881   9.651  0.0954 -0.4505 -0.4780
  548MOL0     H73935   2.934   1.822   9.659  1.7965  0.9531 -2.4655
  548MOL0     H73936   3.050   1.991   9.902  1.2325 -1.6172 -1.4531
  548MOL0     H73937   2.877   1.954   9.872  0.3443 -0.3882  0.2235
  548MOL0     H73938   2.911   2.178   9.792  0.9692  1.8314 -0.1098
  548MOL0     H73939   2.891   2.076   9.658 -1.3733  2.9931  1.3226
  548MOL0     H73940   3.074   2.380   9.788 -1.4533 -1.1690  1.7669
  548MOL0     H73941   3.237   2.489   9.932 -1.1681  1.8792 -1.5764
  548MOL0     H73942   3.731   2.460  10.059  2.5027  1.1985 -0.5218
  548MOL0     H73943   3.905   2.654  10.148 -0.3304  1.0128 -0.4797
  548MOL0     H73944   3.844   2.779  10.455  0.9029 -1.4715  0.8279
  548MOL0     H73945   3.989   2.745  10.358 -1.7060  0.3518 -3.7389
  548MOL0     H73946   3.924   3.009  10.493 -0.1227 -0.4012 -2.0356
  548MOL0     H73947   4.052   2.895  10.542  0.8499  1.8063  0.3368
  548MOL0     H73948   4.153   2.951  10.307 -2.9673 -0.2286 -1.0789
  548MOL0     H73949   4.034   3.075  10.298 -0.7421  1.1560  0.8226
  548MOL0     H73950   4.225   3.056  10.548  1.1211  0.0008  0.6512
  548MOL0     H73951   4.124   3.187  10.476 -0.1941 -0.1700 -1.8877
  548MOL0     H73952   4.259   3.211  10.285 -1.6762 -2.8382 -2.0576
  548MOL0     H73953   4.351   3.070  10.329  1.8884  1.2390  0.2951
  548MOL0     H73954   4.469   3.215  10.512  1.0361  0.8101  0.0543
  548MOL0     H73955   4.476   3.301  10.363  2.1637 -2.6755  0.3325
  548MOL0     H73956   4.268   3.337  10.593 -0.6487  3.2203  1.5200
  548MOL0     H73957   4.299   3.441  10.446  0.3419  1.3234  0.9398
  548MOL0     H73958   4.521   3.503  10.556  1.0203 -0.3823  0.6017
  548MOL0     H73959   4.379   3.545  10.648  0.2738  1.0144 -3.1206
  548MOL0     H73960   3.598   2.907  10.262  0.5618 -1.2587  3.1911
  548MOL0     H73961   3.430   2.764  10.143 -1.4018 -1.8461  1.2205
  548MOL0     H73962   3.482   2.128   9.894  0.0039 -0.0014 -2.2734
  548MOL0     H73963   3.317   2.034   9.751  0.9412 -0.0276 -0.1377
  548MOL0     H73964   2.199   1.272  10.589  1.6980  1.1988  1.9193
  548MOL0     H73965   2.044   1.334  10.772  1.0753  0.7457  2.0674
  548MOL0     H73966   1.647   1.171  11.004 -0.2469  0.5651  0.2420
  548MOL0     H73967   1.487   1.182  11.174 -0.0675 -0.9168 -0.6602
  548MOL0     H73968   1.571   1.152  11.607  0.2274  0.7408  0.2368
  548MOL0     H73969   1.549   0.980  11.570  3.3166  1.8821  1.5431
  548MOL0     H73970   1.333   1.193  11.609  0.8640  0.6907 -0.2185
  548MOL0     H73971   1.367   1.052  11.708  2.3659  1.7289  0.6343
  548MOL0     H73972   1.307   0.925  11.480  0.6030  0.6336  1.2983
  548MOL0     H73973   1.225   1.077  11.446 -1.3368  3.2937  2.5494
  548MOL0     H73974   1.189   0.936  11.711  0.0441  0.9487  0.0977
  548MOL0     H73975   1.090   1.055  11.640 -0.6693  0.5394  1.2804
  548MOL0     H73976   0.900   0.733  11.468 -0.3878 -1.0848  0.3574
  548MOL0     H73977   1.754   1.057  11.465 -0.9316  1.2679  0.8126
  548MOL0     H73978   2.073   1.091  11.300 -0.2483  0.8886  3.0735
  548MOL0     H73979   1.982   0.994  11.414  2.4710 -3.7127  0.1231
  548MOL0     H73980   2.019   0.932  11.251  0.7999  0.4008 -0.9459
  549MOL0     O73981   5.395   4.950   8.043 -0.5432 -0.3446 -0.4378
  549MOL0     C73982   5.494   4.909   7.985 -0.3457  0.1204 -0.7052
  549MOL0     O73983   5.583   4.817   8.038 -0.0630 -0.4697 -0.5948
  549MOL0     C73984   5.566   4.778   8.168 -1.1354 -0.5614  0.0209
  549MOL0     C73985   5.660   4.827   8.257 -0.5900  0.6143  0.0530
  549MOL0     C73986   5.641   4.810   8.389 -0.1482 -0.5490 -0.4271
  549MOL0     C73987   5.529   4.744   8.436  0.3057 -1.5238  0.0489
  549MOL0     O73988   5.519   4.721   8.569  0.1257  0.8598  0.2843
  549MOL0     C73989   5.438   4.610   8.622 -0.7714  0.6258 -0.2531
  549MOL0     C73990   5.499   4.568   8.756 -0.7233  0.0250  0.6979
  549MOL0     C73991   5.433   4.437   8.805 -0.9470  0.4906 -0.0874
  549MOL0     C73992   5.527   4.364   8.906  0.7176 -0.2217 -0.1788
  549MOL0     C73993   5.460   4.234   8.944 -0.1247  0.7518 -0.0737
  549MOL0     C73994   5.551   4.181   9.059 -0.1478  0.2070  0.8230
  549MOL0     C73995   5.470   4.121   9.175 -0.8561 -0.5315 -0.6745
  549MOL0     C73996   5.542   4.008   9.262 -0.4544 -0.2849 -0.1290
  549MOL0     N73997   5.642   4.048   9.366 -0.6399 -0.0276  0.5355
  549MOL0     C73998   5.771   3.999   9.368 -0.2186  0.9293 -0.2369
  549MOL0     C73999   5.800   4.012   9.504 -0.1671  0.3976  0.0430
  549MOL0     C74000   5.923   3.945   9.576  0.1643 -0.0566 -0.4596
  549MOL0     C74001   5.943   3.986   9.711 -0.2768 -0.4309 -0.0177
  549MOL0     C74002   6.070   3.916   9.757  0.0754  0.0501  0.1979
  549MOL0     C74003   6.103   3.944   9.902  0.7255  0.5248  1.2303
  549MOL0     O74004   6.215   4.033   9.904 -0.1778  0.1551  0.1163
  549MOL0     C74005   6.322   3.984   9.975 -0.2245  0.8228  0.8722
  549MOL0     C74006   6.363   3.848   9.967  0.1694 -0.2874  0.0398
  549MOL0     C74007   6.473   3.812  10.043  0.2061  0.6827  0.6858
  549MOL0     C74008   6.554   3.904  10.109 -0.0622 -0.4855 -0.1368
  549MOL0     C74009   6.680   3.864  10.175 -0.3238 -0.0621 -0.1061
  549MOL0     O74010   6.744   3.764  10.114  0.9225  0.2948  0.7231
  549MOL0     C74011   6.883   3.761  10.146  0.5884 -0.6936 -0.1048
  549MOL0     C74012   6.942   3.680  10.238 -0.0666  0.7394  0.4133
  549MOL0     C74013   7.079   3.676  10.264  0.5073  0.9857 -0.1013
  549MOL0     C74014   7.167   3.757  10.191 -1.0662 -0.5866  0.3152
  549MOL0     O74015   7.301   3.781  10.224 -1.0998  0.5065  0.3333
  549MOL0     C74016   7.355   3.684  10.313 -1.1991 -0.2799  0.5951
  549MOL0     C74017   7.503   3.712  10.348  0.2325 -0.4310 -0.9055
  549MOL0     C74018   7.599   3.667  10.247  0.0100 -0.4779 -0.3322
  549MOL0     C74019   7.742   3.690  10.289  0.2924 -0.0953 -1.1920
  549MOL0     C74020   7.794   3.583  10.388 -0.1852  0.2174  1.0227
  549MOL0     C74021   7.948   3.571  10.404 -0.3859 -0.5438  0.4264
  549MOL0     C74022   8.027   3.699  10.451  0.4382 -0.3082  1.2765
  549MOL0     C74023   8.170   3.666  10.441 -1.1645 -0.2304 -0.1698
  549MOL0    Cl74024   8.228   3.557  10.566  0.2962  0.2343 -0.0368
  549MOL0     C74025   7.107   3.836  10.088 -0.3435 -0.2438 -0.2081
  549MOL0     C74026   6.970   3.841  10.064  0.3779 -0.5729  0.3521
  549MOL0     O74027   6.710   3.924  10.280  0.1447 -0.7635  0.0279
  549MOL0     C74028   6.517   4.033  10.102  0.1333 -0.5890  0.4527
  549MOL0     C74029   6.396   4.077  10.035  0.2067  0.4503 -0.6915
  549MOL0     N74030   5.701   4.060   9.582  0.5316 -0.7606 -0.4390
  549MOL0     N74031   5.605   4.066   9.499 -0.2507  0.2288 -0.7392
  549MOL0     C74032   5.427   4.691   8.344  0.0833  0.9251 -0.4111
  549MOL0     C74033   5.455   4.706   8.206 -0.5467  0.0846 -0.3085
  549MOL0     C74034   5.516   4.953   7.853  0.2940  0.8097  0.3764
  549MOL0     C74035   5.644   4.927   7.803  0.4837  0.1206 -0.0480
  549MOL0     C74036   5.673   4.960   7.674 -0.3309 -0.1110  1.0429
  549MOL0     C74037   5.577   5.014   7.584  0.0745  0.6590 -0.0088
  549MOL0     O74038   5.606   5.045   7.455 -0.3232 -0.5506 -0.2245
  549MOL0     C74039   5.590   4.955   7.352  0.5336  0.5936 -0.0786
  549MOL0     C74040   5.661   4.989   7.222 -1.1770  0.2770 -0.0199
  549MOL0     C74041   5.597   4.929   7.099  0.0456  0.1898 -0.0963
  549MOL0     C74042   5.672   4.958   6.967 -0.4860  0.3299 -1.0283
  549MOL0     C74043   5.765   4.854   6.935  0.3369  0.5313  0.8172
  549MOL0     C74044   5.831   4.760   6.908  0.4649 -0.2925 -0.1910
  549MOL0     C74045   5.452   5.025   7.629 -0.3033  0.3685 -0.4373
  549MOL0     C74046   5.419   5.001   7.762  0.1988  0.0639 -0.9313
  549MOL0     C74047   5.271   5.007   7.781 -0.3429  0.5970 -1.2045
  549MOL0     H74048   5.750   4.883   8.233 -1.3957  1.4463 -1.1527
  549MOL0     H74049   5.718   4.848   8.456  1.5133 -4.6027  0.2686
  549MOL0     H74050   5.333   4.641   8.626 -0.6573  1.7655 -3.5138
  549MOL0     H74051   5.444   4.518   8.563  2.2560  0.9914 -0.6561
  549MOL0     H74052   5.472   4.643   8.831 -1.8580 -0.5387  0.8633
  549MOL0     H74053   5.606   4.560   8.732 -0.9371  1.4973 -1.0319
  549MOL0     H74054   5.420   4.362   8.726  2.0708  0.5642 -0.8077
  549MOL0     H74055   5.334   4.455   8.848 -0.1554  2.4677  1.0570
  549MOL0     H74056   5.629   4.341   8.876  0.8029 -0.6068  0.3888
  549MOL0     H74057   5.539   4.425   8.996 -0.2381 -2.2568  1.4250
  549MOL0     H74058   5.358   4.237   8.983 -1.3577  0.4051 -3.0445
  549MOL0     H74059   5.474   4.162   8.863  3.0472  3.4883 -2.2440
  549MOL0     H74060   5.610   4.102   9.013 -0.5134  1.8956 -2.9399
  549MOL0     H74061   5.626   4.254   9.091 -0.1249  0.7993 -0.5352
  549MOL0     H74062   5.369   4.095   9.141 -1.0091  0.5854 -1.1037
  549MOL0     H74063   5.456   4.205   9.243  0.1427  0.4238 -1.6204
  549MOL0     H74064   5.462   3.952   9.312 -0.4339  0.5843  0.9296
  549MOL0     H74065   5.599   3.935   9.205  0.9118 -0.4837  1.4181
  549MOL0     H74066   5.835   3.965   9.288  0.2732  0.7558  0.2269
  549MOL0     H74067   5.916   3.837   9.558 -1.0242  0.4106 -3.2967
  549MOL0     H74068   6.010   3.978   9.517 -0.3917  2.9538  0.2344
  549MOL0     H74069   5.938   4.096   9.707  0.0187 -0.4490 -1.2506
  549MOL0     H74070   5.858   3.955   9.773 -0.6671  0.8839  0.1486
  549MOL0     H74071   6.152   3.936   9.688 -3.0547  1.7210 -3.3895
  549MOL0     H74072   6.054   3.808   9.750  0.6986 -0.0659  0.5645
  549MOL0     H74073   6.115   3.854   9.963 -0.1274  1.1033  2.2873
  549MOL0     H74074   6.029   4.005   9.954 -3.4708 -1.9925 -1.1850
  549MOL0     H74075   6.298   3.774   9.920 -0.4056 -0.4889  1.1334
  549MOL0     H74076   6.492   3.705  10.046 -0.1954  0.5246 -1.2084
  549MOL0     H74077   6.883   3.608  10.295 -1.3419  0.7035 -0.8745
  549MOL0     H74078   7.105   3.597  10.334 -0.9822  0.4304 -0.1451
  549MOL0     H74079   7.297   3.693  10.405  2.0458  2.9871  2.5977
  549MOL0     H74080   7.345   3.585  10.268  1.8559  0.8382 -3.1246
  549MOL0     H74081   7.520   3.817  10.376  1.8564 -1.0378  0.4943
  549MOL0     H74082   7.534   3.662  10.440 -1.5410 -2.3608 -1.2733
  549MOL0     H74083   7.586   3.561  10.227 -0.8288 -0.1699 -1.5214
  549MOL0     H74084   7.569   3.716  10.154  1.8768  1.4786  0.0106
  549MOL0     H74085   7.769   3.788  10.329  1.4010 -1.4210  1.6312
  549MOL0     H74086   7.807   3.679  10.202 -0.0310  1.1765 -1.6091
  549MOL0     H74087   7.772   3.480  10.357 -2.7561  0.7242  0.9519
  549MOL0     H74088   7.753   3.610  10.485 -0.0556  1.8339  0.6481
  549MOL0     H74089   7.964   3.493  10.479  0.7517 -2.1354 -1.3923
  549MOL0     H74090   7.995   3.531  10.314 -0.4434 -2.6153  1.2647
  549MOL0     H74091   7.994   3.728  10.551 -2.8868 -5.4314  2.0270
  549MOL0     H74092   8.010   3.770  10.370 -0.8381  0.4512  2.1684
  549MOL0     H74093   8.179   3.608  10.349 -3.9395 -1.9826  0.5456
  549MOL0     H74094   8.241   3.750  10.440 -0.4123 -0.8595 -0.7869
  549MOL0     H74095   7.169   3.915  10.047 -0.2175  0.9796  2.1669
  549MOL0     H74096   6.935   3.890   9.974  1.6153  1.7279  1.0289
  549MOL0     H74097   6.573   4.120  10.135 -0.5583  1.6708 -3.5971
  549MOL0     H74098   6.364   4.180  10.021 -1.0042  0.0655 -0.8889
  549MOL0     H74099   5.337   4.635   8.370 -0.5555  1.4850 -1.3492
  549MOL0     H74100   5.383   4.666   8.136 -1.8699 -0.9048  1.5148
  549MOL0     H74101   5.716   4.865   7.855 -0.1329 -1.1950 -0.7257
  549MOL0     H74102   5.769   4.936   7.630 -1.3372 -4.0378  0.6039
  549MOL0     H74103   5.483   4.957   7.332  0.6720 -0.5703 -1.0986
  549MOL0     H74104   5.600   4.851   7.386 -3.6241  0.5019  1.4398
  549MOL0     H74105   5.764   4.964   7.249 -1.1945  2.1677  2.1771
  549MOL0     H74106   5.669   5.096   7.202  1.5332  1.1750  4.4087
  549MOL0     H74107   5.492   4.956   7.083 -0.1866 -0.5329  0.1875
  549MOL0     H74108   5.593   4.823   7.126 -0.2770 -0.5549 -2.7700
  549MOL0     H74109   5.598   4.961   6.886 -0.7293 -2.8716 -1.0176
  549MOL0     H74110   5.734   5.049   6.966  2.2848 -1.3762  0.9296
  549MOL0     H74111   5.892   4.676   6.880  3.0944  1.7416 -1.0327
  549MOL0     H74112   5.380   5.050   7.552 -0.7701  0.5175  0.0376
  549MOL0     H74113   5.209   5.010   7.692 -2.5353 -1.2137  0.1473
  549MOL0     H74114   5.248   4.917   7.840  3.3506  1.3415  1.8028
  549MOL0     H74115   5.255   5.099   7.838 -1.8291  0.7235 -1.8015
  550MOL0     O74116   2.605   4.448   2.541 -0.4383 -0.3334  0.0476
  550MOL0     C74117   2.613   4.398   2.652  0.6448  0.7379 -0.6478
  550MOL0     O74118   2.648   4.268   2.676  0.5938  0.2830  0.1044
  550MOL0     C74119   2.620   4.173   2.577 -0.1526  1.2171  0.5342
  550MOL0     C74120   2.506   4.180   2.485 -0.3008  0.2840 -0.6293
  550MOL0     C74121   2.471   4.080   2.390  0.1355 -0.6216  0.9320
  550MOL0     C74122   2.554   3.965   2.377 -0.0577 -0.3557 -0.3369
  550MOL0     O74123   2.535   3.878   2.275 -0.6327 -0.4450 -0.2711
  550MOL0     C74124   2.516   3.743   2.304  0.4050 -1.2725  0.3936
  550MOL0     C74125   2.490   3.664   2.174  0.4933 -0.0265  0.5380
  550MOL0     C74126   2.479   3.508   2.202 -0.4018  0.1364 -0.4077
  550MOL0     C74127   2.381   3.491   2.319 -0.9266  0.3954  1.4977
  550MOL0     C74128   2.337   3.348   2.330 -0.0195  0.9351  0.5359
  550MOL0     C74129   2.443   3.238   2.303  0.7454 -0.3178  0.3350
  550MOL0     C74130   2.411   3.108   2.368  0.1687 -0.0946 -0.1801
  550MOL0     C74131   2.292   3.023   2.322  0.3909  0.1334  0.2307
  550MOL0     N74132   2.321   2.987   2.181  0.0981  0.1013  0.7736
  550MOL0     C74133   2.237   3.025   2.070  0.3625  0.5926 -0.1244
  550MOL0     C74134   2.279   2.949   1.959 -0.1951 -0.5388 -0.1049
  550MOL0     C74135   2.216   2.945   1.817  0.4637  0.4010  0.0369
  550MOL0     C74136   2.304   2.981   1.697  0.0188  0.6358 -0.0659
  550MOL0     C74137   2.424   2.888   1.667  0.3661  0.2675  0.6811
  550MOL0     C74138   2.475   2.911   1.533 -0.7134 -0.3003 -0.5840
  550MOL0     O74139   2.380   2.860   1.438 -0.0129 -0.4290  0.7759
  550MOL0     C74140   2.375   2.921   1.317 -0.2822 -0.6637 -0.9652
  550MOL0     C74141   2.459   3.034   1.273  0.4095  0.1513 -0.4392
  550MOL0     C74142   2.440   3.099   1.150 -0.5334  0.3672 -0.1854
  550MOL0     C74143   2.339   3.063   1.067 -0.0058  1.5045  1.7471
  550MOL0     C74144   2.306   3.144   0.939  0.3116 -0.4145 -0.1395
  550MOL0     O74145   2.221   3.081   0.849 -0.1522  0.1536 -0.3201
  550MOL0     C74146   2.207   3.138   0.728 -0.1516  0.1231  1.4927
  550MOL0     C74147   2.308   3.184   0.636 -0.4776 -0.5145 -1.5284
  550MOL0     C74148   2.297   3.245   0.514 -1.1572  0.6958 -0.2866
  550MOL0     C74149   2.173   3.248   0.464  0.0799 -0.2747  0.6280
  550MOL0     O74150   2.171   3.297   0.330  0.4131  0.3583  0.2024
  550MOL0     C74151   2.078   3.209   0.247 -0.6122  0.7421 -0.0476
  550MOL0     C74152   2.048   3.270   0.101  0.2395  0.3107 -0.0895
  550MOL0     C74153   2.182   3.298   0.028  1.0986 -0.1634 -0.0192
  550MOL0     C74154   2.260   3.165   0.018 -0.0890  0.9322 -0.4943
  550MOL0     C74155   2.340   3.166  -0.104  0.2656 -0.2785  0.2384
  550MOL0     C74156   2.422   3.043  -0.118  0.8507 -0.1947 -0.5026
  550MOL0     C74157   2.535   3.057  -0.214  0.1587  0.0965  1.1856
  550MOL0     C74158   2.673   3.093  -0.152 -0.4668  0.0704  0.7301
  550MOL0    Cl74159   2.720   2.967  -0.040  0.0161  0.2548  0.0107
  550MOL0     C74160   2.061   3.190   0.537 -0.2248 -0.3507  0.6312
  550MOL0     C74161   2.090   3.137   0.661 -0.4797 -0.4328 -0.1736
  550MOL0     O74162   2.350   3.263   0.930  0.4542  0.8973 -0.3443
  550MOL0     C74163   2.260   2.952   1.105 -0.5929  0.6163 -0.6219
  550MOL0     C74164   2.285   2.879   1.225  0.5600 -0.4502 -0.9211
  550MOL0     N74165   2.385   2.869   2.011 -0.4067 -0.1459 -0.7004
  550MOL0     N74166   2.409   2.890   2.139  0.3877  0.1580  0.4614
  550MOL0     C74167   2.658   3.950   2.477 -0.4677  0.8084 -1.7510
  550MOL0     C74168   2.675   4.043   2.585  0.3990 -0.2794 -0.2202
  550MOL0     C74169   2.597   4.479   2.773  0.5778  0.3679 -0.0236
  550MOL0     C74170   2.614   4.613   2.766  1.3875 -0.0359 -0.0070
  550MOL0     C74171   2.601   4.705   2.871 -0.5403  0.7287 -0.0375
  550MOL0     C74172   2.574   4.656   2.999  0.0345 -0.5280 -0.4262
  550MOL0     O74173   2.556   4.749   3.092 -0.4116 -0.2764  0.0890
  550MOL0     C74174   2.510   4.710   3.222  0.0168 -0.6190  0.3645
  550MOL0     C74175   2.515   4.823   3.317  1.0845 -0.2990  0.0446
  550MOL0     C74176   2.655   4.889   3.311 -1.0540 -0.2260 -0.5904
  550MOL0     C74177   2.645   5.019   3.394  0.5206 -0.4377 -0.1408
  550MOL0     C74178   2.569   4.991   3.516 -0.5979  0.0824 -0.3333
  550MOL0     C74179   2.504   4.986   3.621  0.5064 -0.2567  0.5379
  550MOL0     C74180   2.548   4.519   3.002  0.4412  0.0000 -0.9588
  550MOL0     C74181   2.551   4.430   2.896 -0.2760  0.5868 -0.9673
  550MOL0     C74182   2.494   4.291   2.913 -0.2307 -0.8299  0.0110
  550MOL0     H74183   2.441   4.266   2.492  1.9229  2.0550 -0.7909
  550MOL0     H74184   2.393   4.091   2.315  0.7546 -0.4988  0.2940
  550MOL0     H74185   2.608   3.697   2.340  0.5056 -0.9043  0.6080
  550MOL0     H74186   2.435   3.735   2.377  1.1010  1.3406  1.5533
  550MOL0     H74187   2.567   3.681   2.097 -0.3720  0.2216 -0.2984
  550MOL0     H74188   2.394   3.688   2.127 -0.4357 -1.7299  1.4896
  550MOL0     H74189   2.577   3.463   2.224 -0.3718 -0.8089 -2.2595
  550MOL0     H74190   2.448   3.454   2.112 -1.0698 -1.3082  0.6600
  550MOL0     H74191   2.435   3.522   2.409 -1.7986  0.1112  2.1308
  550MOL0     H74192   2.302   3.563   2.340  1.6640  3.0270  3.1107
  550MOL0     H74193   2.305   3.342   2.435 -0.1357  0.8561  0.4952
  550MOL0     H74194   2.254   3.328   2.262  0.9157  2.0332 -0.9981
  550MOL0     H74195   2.463   3.226   2.196  3.7119  2.8800  0.3494
  550MOL0     H74196   2.535   3.282   2.341  1.7014 -1.9193 -0.0320
  550MOL0     H74197   2.405   3.120   2.476  0.4328  1.9610 -0.3406
  550MOL0     H74198   2.494   3.043   2.337 -0.6189 -1.3136  0.2134
  550MOL0     H74199   2.280   2.935   2.385 -0.9197 -0.3189 -0.6125
  550MOL0     H74200   2.203   3.087   2.317  0.8898  1.0421  1.9395
  550MOL0     H74201   2.153   3.093   2.088 -2.0280 -2.5846  1.8666
  550MOL0     H74202   2.175   2.846   1.795 -0.6287  0.3410  2.0924
  550MOL0     H74203   2.132   3.015   1.804  0.7742  0.6536 -0.6544
  550MOL0     H74204   2.245   2.978   1.605  0.5320  0.7660 -0.4086
  550MOL0     H74205   2.343   3.083   1.704 -0.2834  0.7394  0.1231
  550MOL0     H74206   2.392   2.786   1.688 -0.2426  0.6010  1.4423
  550MOL0     H74207   2.498   2.918   1.743  0.9567  3.6325 -1.0267
  550MOL0     H74208   2.572   2.863   1.520  0.8204  2.8990 -1.9559
  550MOL0     H74209   2.491   3.019   1.532  1.9303 -0.6426 -1.0391
  550MOL0     H74210   2.548   3.065   1.327  1.4880 -3.7533  0.3456
  550MOL0     H74211   2.517   3.174   1.130 -2.0412  1.8299 -0.7178
  550MOL0     H74212   2.405   3.169   0.681 -0.8894 -0.4453 -0.5833
  550MOL0     H74213   2.387   3.271   0.460 -0.2144 -1.5907  0.0753
  550MOL0     H74214   2.133   3.116   0.231 -1.2775 -0.1479  2.3128
  550MOL0     H74215   1.981   3.187   0.292  0.3193 -0.5471  1.4182
  550MOL0     H74216   1.995   3.192   0.047  2.6218 -1.8878  0.5757
  550MOL0     H74217   1.982   3.358   0.105 -0.7620 -0.3610 -1.1448
  550MOL0     H74218   2.155   3.334  -0.071  3.7121  2.3029  0.0450
  550MOL0     H74219   2.240   3.373   0.083  0.6836 -0.6540  1.1267
  550MOL0     H74220   2.202   3.072   0.010 -0.6154  1.3306 -1.5279
  550MOL0     H74221   2.328   3.139   0.100  1.4391 -1.9918 -2.4783
  550MOL0     H74222   2.407   3.252  -0.103  0.6378 -0.3846 -3.1268
  550MOL0     H74223   2.276   3.168  -0.193 -1.3020 -0.2735  1.3212
  550MOL0     H74224   2.463   3.017  -0.020 -0.4983 -1.5273 -0.2521
  550MOL0     H74225   2.359   2.959  -0.150 -1.1337  1.1989 -0.4160
  550MOL0     H74226   2.510   3.128  -0.294 -0.6329  0.6248  1.8782
  550MOL0     H74227   2.546   2.962  -0.265 -0.2278  2.3261 -3.6095
  550MOL0     H74228   2.753   3.096  -0.226 -1.5968  1.8234 -0.4937
  550MOL0     H74229   2.665   3.189  -0.102  0.1059  1.1278 -1.1046
  550MOL0     H74230   1.959   3.198   0.498 -0.1128  1.9213  0.6577
  550MOL0     H74231   2.007   3.108   0.725  1.2128 -3.1450  0.9606
  550MOL0     H74232   2.183   2.922   1.035 -0.6891  1.1692 -0.7573
  550MOL0     H74233   2.223   2.794   1.252 -0.5966  0.8377  0.6729
  550MOL0     H74234   2.709   3.856   2.490 -2.9620 -0.6574 -1.8607
  550MOL0     H74235   2.744   4.018   2.665 -0.0140  3.1835  1.4126
  550MOL0     H74236   2.643   4.650   2.668  0.9451  0.8819  0.1964
  550MOL0     H74237   2.613   4.812   2.852  1.2870  0.8036  1.1841
  550MOL0     H74238   2.573   4.636   3.272  1.1714  1.8076  2.7862
  550MOL0     H74239   2.408   4.674   3.212 -0.8299  1.8956 -1.1354
  550MOL0     H74240   2.495   4.779   3.415 -0.4833  0.5026  0.1253
  550MOL0     H74241   2.433   4.894   3.299 -2.3141 -3.0903  2.8355
  550MOL0     H74242   2.694   4.907   3.211  1.8744 -1.3374  0.2636
  550MOL0     H74243   2.726   4.821   3.357 -1.9444 -1.1503 -0.5606
  550MOL0     H74244   2.745   5.043   3.430  0.1641 -0.1746  0.6830
  550MOL0     H74245   2.587   5.097   3.343  1.8017  2.0611  2.0161
  550MOL0     H74246   2.453   4.978   3.715  2.0454 -3.1992  1.2651
  550MOL0     H74247   2.518   4.489   3.102  0.8683  1.4154 -0.3653
  550MOL0     H74248   2.573   4.221   2.942  1.0507  0.5758  0.0214
  550MOL0     H74249   2.415   4.288   2.988 -1.8225  0.8173 -1.5098
  550MOL0     H74250   2.440   4.255   2.825  0.0742 -0.0188 -0.5171
  551MOL0     O74251   1.297   9.962   8.034  0.3336 -0.4061 -0.8823
  551MOL0     C74252   1.306   9.837   8.006 -0.0635 -1.2055  0.9088
  551MOL0     O74253   1.277   9.729   8.090  0.0088  0.4451 -0.4555
  551MOL0     C74254   1.264   9.759   8.225 -0.0936  0.1093  0.0423
  551MOL0     C74255   1.333   9.676   8.307  0.5325  0.3360 -1.1684
  551MOL0     C74256   1.310   9.675   8.452  0.6973 -0.5343  0.7533
  551MOL0     C74257   1.235   9.778   8.509  0.7234 -0.9487 -0.3188
  551MOL0     O74258   1.223   9.784   8.646  0.5418 -0.6126  0.4411
  551MOL0     C74259   1.196   9.900   8.718 -0.2256 -0.6914 -0.1338
  551MOL0     C74260   1.312   9.989   8.714 -1.0474 -0.1182 -0.1506
  551MOL0     C74261   1.447   9.929   8.766  0.1449  0.3197  0.8872
  551MOL0     C74262   1.469   9.946   8.918  0.1188 -0.9714  0.2486
  551MOL0     C74263   1.536  10.078   8.951 -0.1153 -0.2973  0.0138
  551MOL0     C74264   1.603  10.069   9.090  0.4314 -0.2281 -0.3975
  551MOL0     C74265   1.501  10.099   9.199 -0.4688  0.9501 -0.6251
  551MOL0     C74266   1.540  10.024   9.341 -1.2253 -0.7948  0.1579
  551MOL0     N74267   1.460  10.082   9.445 -0.1770  0.0700 -0.6474
  551MOL0     C74268   1.325  10.064   9.465  0.0086  0.0720  0.1789
  551MOL0     C74269   1.297  10.134   9.575 -0.4569 -0.3451 -0.1570
  551MOL0     C74270   1.165  10.135   9.642 -0.0333  0.9972 -0.2497
  551MOL0     C74271   1.141   9.986   9.681  0.4212 -1.4173  0.1292
  551MOL0     C74272   1.038   9.974   9.786 -0.1208 -0.1932 -0.3062
  551MOL0     C74273   0.900  10.033   9.742 -0.0693 -0.3053  0.1649
  551MOL0     O74274   0.866   9.983   9.607  0.5864  0.5831  0.4273
  551MOL0     C74275   0.819   9.852   9.604  0.4666  0.0480  0.3301
  551MOL0     C74276   0.792   9.762   9.719 -0.2864 -0.1319  0.1289
  551MOL0     C74277   0.718   9.645   9.703 -0.0882 -0.1516 -0.7303
  551MOL0     C74278   0.683   9.601   9.574 -0.0200  0.4921 -0.6903
  551MOL0     C74279   0.615   9.473   9.564 -0.2586 -0.1139 -0.0289
  551MOL0     O74280   0.552   9.455   9.451 -1.0148  0.7986  0.3831
  551MOL0     C74281   0.469   9.353   9.426  0.7543 -0.9747 -0.7557
  551MOL0     C74282   0.377   9.302   9.517  0.2031  0.5887 -0.7778
  551MOL0     C74283   0.266   9.234   9.473 -0.2952  0.7406 -0.0929
  551MOL0     C74284   0.258   9.185   9.336 -0.6313  0.4740  0.1646
  551MOL0     O74285   0.152   9.107   9.280  0.3576  0.6060 -0.8913
  551MOL0     C74286   0.052   9.054   9.368 -0.1436  0.6610 -0.4691
  551MOL0     C74287  -0.046   8.989   9.280 -0.3107  0.0253 -0.5370
  551MOL0     C74288  -0.161   8.935   9.362  0.1161  0.1201  0.1868
  551MOL0     C74289  -0.279   8.870   9.284 -0.2906 -0.4245 -0.0259
  551MOL0     C74290  -0.272   8.718   9.256 -1.0548  0.5129  0.4659
  551MOL0     C74291  -0.338   8.644   9.375 -0.7261 -0.0406 -0.6556
  551MOL0     C74292  -0.391   8.507   9.332  0.3783 -0.2359 -0.5970
  551MOL0     C74293  -0.452   8.427   9.450 -0.6451  0.7363  0.5554
  551MOL0    Cl74294  -0.605   8.492   9.499 -0.3008  0.1969 -0.3575
  551MOL0     C74295   0.361   9.221   9.245  0.0548 -0.6656 -1.0359
  551MOL0     C74296   0.460   9.309   9.294  0.9721  0.5666  0.1968
  551MOL0     O74297   0.628   9.390   9.650 -0.2209 -0.6241 -0.8506
  551MOL0     C74298   0.716   9.675   9.463 -0.6100 -0.3932 -0.2887
  551MOL0     C74299   0.777   9.804   9.479 -0.3244 -0.6801 -0.5861
  551MOL0     N74300   1.420  10.188   9.618  1.2611  0.3790  0.7011
  551MOL0     N74301   1.508  10.165   9.534  0.2713 -0.8570 -0.8627
  551MOL0     C74302   1.170   9.870   8.427  0.0751  0.7749  0.3448
  551MOL0     C74303   1.190   9.859   8.289 -0.3785 -0.2136  1.0504
  551MOL0     C74304   1.331   9.799   7.862 -0.3381 -0.6903 -0.9386
  551MOL0     C74305   1.297   9.669   7.815 -0.6361 -0.0523 -0.1254
  551MOL0     C74306   1.289   9.637   7.676 -0.7973  0.4708  0.1014
  551MOL0     C74307   1.334   9.730   7.587  0.3314 -0.7378 -0.3232
  551MOL0     O74308   1.323   9.715   7.453 -0.2237  0.2549  0.3972
  551MOL0     C74309   1.435   9.738   7.358  0.6355 -0.6479 -0.0700
  551MOL0     C74310   1.529   9.619   7.341 -0.0716  0.3709  0.4861
  551MOL0     C74311   1.449   9.508   7.265 -0.0349 -0.2220 -0.7428
  551MOL0     C74312   1.540   9.403   7.207  0.1111 -0.0752 -0.0663
  551MOL0     C74313   1.544   9.289   7.300  0.0016  0.5415  0.5666
  551MOL0     C74314   1.539   9.209   7.392  0.4082  0.9133  0.2730
  551MOL0     C74315   1.395   9.854   7.636 -0.2793 -0.0226  0.5632
  551MOL0     C74316   1.379   9.894   7.770 -0.1651  0.5729  0.1109
  551MOL0     C74317   1.449  10.027   7.800  0.3309  0.4432  0.4131
  551MOL0     H74318   1.394   9.599   8.260 -0.5313 -2.2657  1.4091
  551MOL0     H74319   1.356   9.595   8.509  2.8458 -1.3700 -1.9494
  551MOL0     H74320   1.104   9.946   8.682 -1.6487 -2.4457  1.1186
  551MOL0     H74321   1.161   9.885   8.820 -1.5157  1.9400 -0.1067
  551MOL0     H74322   1.295  10.079   8.773 -0.9094  0.9545 -1.6727
  551MOL0     H74323   1.309  10.020   8.609 -3.3877 -1.5489 -0.5894
  551MOL0     H74324   1.530   9.975   8.711  0.9549  1.3660  2.8888
  551MOL0     H74325   1.435   9.823   8.745 -2.0984  0.3506  1.7801
  551MOL0     H74326   1.389   9.927   8.990 -0.6530 -0.3886 -0.4471
  551MOL0     H74327   1.551   9.878   8.943  0.8894  0.4986  1.9759
  551MOL0     H74328   1.614  10.099   8.877 -1.0202  0.8799 -0.6417
  551MOL0     H74329   1.451  10.147   8.959  1.8725  2.5755 -1.8479
  551MOL0     H74330   1.668   9.981   9.090 -1.1077 -1.3983 -0.5993
  551MOL0     H74331   1.666  10.158   9.080 -0.6940  0.3955 -2.2175
  551MOL0     H74332   1.408  10.062   9.155  0.8561 -0.4084 -2.4267
  551MOL0     H74333   1.490  10.206   9.216 -1.9062  0.7680 -0.2508
  551MOL0     H74334   1.524   9.917   9.326 -2.2924 -0.4286 -1.6755
  551MOL0     H74335   1.647  10.042   9.354 -1.6334  0.7431  1.8032
  551MOL0     H74336   1.257  10.011   9.399  0.1018  1.5129 -1.1448
  551MOL0     H74337   1.162  10.199   9.731  1.4807 -1.3372  1.6305
  551MOL0     H74338   1.088  10.165   9.571 -1.4427 -1.7740 -0.0344
  551MOL0     H74339   1.114   9.939   9.586  0.6061  0.9260 -1.1502
  551MOL0     H74340   1.229   9.938   9.726  0.4726 -0.2304  1.3434
  551MOL0     H74341   1.064  10.030   9.877 -3.1791  0.7638  0.0731
  551MOL0     H74342   1.023   9.869   9.815 -0.1184  0.1637  1.0857
  551MOL0     H74343   0.896  10.142   9.740 -2.0486 -0.3599 -0.6824
  551MOL0     H74344   0.829  10.003   9.820  0.6975 -3.6974 -0.2703
  551MOL0     H74345   0.817   9.791   9.821 -0.5271 -1.2127  0.5072
  551MOL0     H74346   0.698   9.585   9.791 -3.2961  1.6676 -0.0611
  551MOL0     H74347   0.378   9.330   9.622  1.7098  0.8881 -0.8390
  551MOL0     H74348   0.184   9.215   9.541 -1.0107 -1.7264 -1.5254
  551MOL0     H74349   0.088   8.980   9.440  2.1001  2.4640  0.3965
  551MOL0     H74350   0.004   9.131   9.430 -0.3304  0.4461 -0.3475
  551MOL0     H74351  -0.083   9.059   9.205 -1.5292 -3.4393 -3.4402
  551MOL0     H74352   0.014   8.912   9.231  0.3207  0.4684 -0.4599
  551MOL0     H74353  -0.111   8.849   9.408  1.1785  0.4816 -0.2683
  551MOL0     H74354  -0.188   9.002   9.444 -3.7390 -0.5688 -0.3431
  551MOL0     H74355  -0.273   8.912   9.183  2.6085 -1.7548 -0.4932
  551MOL0     H74356  -0.374   8.903   9.327  0.2581 -0.3495  1.1663
  551MOL0     H74357  -0.171   8.684   9.230 -1.0247 -0.1295  1.3775
  551MOL0     H74358  -0.333   8.692   9.169 -0.3007  1.0005 -0.2283
  551MOL0     H74359  -0.257   8.642   9.449 -2.9009  1.6745  1.9923
  551MOL0     H74360  -0.421   8.701   9.418 -0.0931 -0.1920  0.8101
  551MOL0     H74361  -0.311   8.444   9.292  1.4646 -0.3507  1.6350
  551MOL0     H74362  -0.475   8.516   9.262  0.0891 -2.2251 -0.5639
  551MOL0     H74363  -0.481   8.327   9.415 -1.7542  1.3282 -0.2589
  551MOL0     H74364  -0.382   8.410   9.532  1.9982  1.0752 -1.5163
  551MOL0     H74365   0.351   9.201   9.139 -0.1381  0.6045 -1.2755
  551MOL0     H74366   0.519   9.349   9.212 -1.0442 -2.4808 -3.0359
  551MOL0     H74367   0.688   9.642   9.364  2.0224 -0.4675 -1.1012
  551MOL0     H74368   0.801   9.870   9.397  0.4244 -0.8054 -0.4783
  551MOL0     H74369   1.110   9.951   8.469  0.8691  1.1680  0.7299
  551MOL0     H74370   1.141   9.929   8.222  0.1434 -0.7957  0.0384
  551MOL0     H74371   1.251   9.592   7.876  1.3650 -1.0147  0.2514
  551MOL0     H74372   1.256   9.535   7.660  0.5652 -0.0231  0.3126
  551MOL0     H74373   1.501   9.821   7.388  1.5997 -2.3421  2.9839
  551MOL0     H74374   1.411   9.771   7.257  1.5592  0.6396  0.0982
  551MOL0     H74375   1.551   9.582   7.441 -0.2954 -1.2756 -0.0367
  551MOL0     H74376   1.624   9.650   7.297  0.4313 -2.2744 -0.4702
  551MOL0     H74377   1.392   9.550   7.182  0.6810 -1.2734 -1.8086
  551MOL0     H74378   1.385   9.452   7.333  0.8002 -1.0305 -0.6047
  551MOL0     H74379   1.497   9.383   7.108  1.6255  2.0559 -1.2316
  551MOL0     H74380   1.639   9.443   7.184 -1.0368  1.1602 -3.5165
  551MOL0     H74381   1.542   9.139   7.472  1.1403 -1.4936 -1.7243
  551MOL0     H74382   1.450   9.912   7.562 -2.1120 -1.0791 -1.7393
  551MOL0     H74383   1.374  10.093   7.845  1.4596  0.1110  3.0040
  551MOL0     H74384   1.523  10.004   7.878  2.5582  0.9517 -1.4456
  551MOL0     H74385   1.505  10.081   7.723 -1.1409 -2.2178 -2.7784
  552MOL0     O74386   7.877   7.458   6.319 -0.0768 -0.0533 -0.2224
  552MOL0     C74387   7.892   7.335   6.304  0.1382 -0.7390 -0.0425
  552MOL0     O74388   7.799   7.241   6.328 -0.0751  0.5408  0.5413
  552MOL0     C74389   7.695   7.253   6.422 -0.1281 -0.2061 -0.0867
  552MOL0     C74390   7.654   7.371   6.487 -0.7471  1.5649  0.1880
  552MOL0     C74391   7.542   7.370   6.569  0.8732  0.6982  0.2404
  552MOL0     C74392   7.452   7.266   6.565 -0.0452  0.5823  0.2836
  552MOL0     O74393   7.331   7.290   6.629  0.1321 -0.1528 -0.1545
  552MOL0     C74394   7.212   7.246   6.567  0.3325  0.2297  0.3065
  552MOL0     C74395   7.113   7.356   6.604 -0.4182 -1.4135  0.1656
  552MOL0     C74396   7.142   7.505   6.555 -0.1217 -0.5616 -0.1296
  552MOL0     C74397   7.145   7.519   6.407  0.5317  0.6301  0.2461
  552MOL0     C74398   7.154   7.661   6.348 -0.2126 -1.2800 -0.4355
  552MOL0     C74399   7.212   7.672   6.211 -0.0512 -0.6534  0.1099
  552MOL0     C74400   7.123   7.613   6.092 -0.5211  0.2434  0.2285
  552MOL0     C74401   7.194   7.669   5.969 -0.5359 -0.2555  0.7303
  552MOL0     N74402   7.135   7.624   5.842  0.8579  0.6427 -0.1701
  552MOL0     C74403   7.171   7.506   5.787  0.3814  1.1526 -0.1058
  552MOL0     C74404   7.109   7.513   5.665 -0.8891  0.2156 -0.1127
  552MOL0     C74405   7.109   7.399   5.570  0.1510  0.7589  1.0820
  552MOL0     C74406   6.963   7.362   5.538  1.2036  0.7144  0.2392
  552MOL0     C74407   6.956   7.223   5.488  0.9713  0.7128  0.3800
  552MOL0     C74408   7.018   7.210   5.351 -0.8214  0.7710  0.1368
  552MOL0     O74409   7.161   7.207   5.352 -0.3856  0.4803  0.3746
  552MOL0     C74410   7.198   7.085   5.301  1.0817 -0.1403 -0.1439
  552MOL0     C74411   7.262   7.001   5.380 -0.4133  0.1645 -0.3263
  552MOL0     C74412   7.320   6.888   5.336  0.8394  0.1822 -0.7877
  552MOL0     C74413   7.298   6.849   5.202  0.4036 -0.1966 -0.8331
  552MOL0     C74414   7.361   6.717   5.154  0.4371  1.1394  0.0828
  552MOL0     O74415   7.425   6.657   5.254 -0.1310 -0.4160  0.6463
  552MOL0     C74416   7.517   6.563   5.221  0.7584  0.4252 -0.5186
  552MOL0     C74417   7.610   6.566   5.115 -0.4117  0.4692 -0.2925
  552MOL0     C74418   7.698   6.459   5.099 -0.1099 -0.4188 -0.3120
  552MOL0     C74419   7.707   6.346   5.177 -0.2396  1.0706 -0.0775
  552MOL0     O74420   7.809   6.257   5.157 -0.2665 -0.2368  0.3815
  552MOL0     C74421   7.840   6.168   5.272  0.5605 -0.2756  0.2022
  552MOL0     C74422   7.980   6.120   5.275  0.1376  0.4480  0.2875
  552MOL0     C74423   8.012   6.028   5.158  0.1772 -0.1900 -0.0932
  552MOL0     C74424   8.154   5.959   5.166  0.0118  1.1582 -0.4743
  552MOL0     C74425   8.261   6.030   5.092 -0.0916  0.2042  0.3985
  552MOL0     C74426   8.396   5.946   5.102 -0.2417 -0.4130  0.1637
  552MOL0     C74427   8.508   6.034   5.148  0.6193  0.2741  0.3591
  552MOL0     C74428   8.510   6.085   5.294 -0.3863 -0.1906 -0.4106
  552MOL0    Cl74429   8.667   6.157   5.359  0.1455  0.0965 -0.0225
  552MOL0     C74430   7.610   6.352   5.287 -0.0792 -0.5223  0.6615
  552MOL0     C74431   7.531   6.459   5.308 -0.5759 -0.4970  0.1663
  552MOL0     O74432   7.355   6.686   5.037 -0.6802  0.4914  0.0708
  552MOL0     C74433   7.240   6.939   5.109  0.3503 -0.1789 -0.5147
  552MOL0     C74434   7.191   7.060   5.163 -0.3698  0.0022 -0.7787
  552MOL0     N74435   7.054   7.637   5.642 -0.5831  1.1494 -0.4419
  552MOL0     N74436   7.061   7.703   5.751  0.2144  0.0924  0.3599
  552MOL0     C74437   7.495   7.144   6.524 -0.2152  0.1858  0.2409
  552MOL0     C74438   7.616   7.140   6.441  0.2814  0.2330 -0.0812
  552MOL0     C74439   8.008   7.279   6.236 -0.3282 -0.1027 -0.2901
  552MOL0     C74440   8.081   7.352   6.145 -0.2556 -0.3964  0.1998
  552MOL0     C74441   8.194   7.301   6.078  0.2704 -0.1617  0.1529
  552MOL0     C74442   8.260   7.182   6.123  0.0997 -0.5577  0.0573
  552MOL0     O74443   8.380   7.139   6.068 -0.0823  0.1055 -0.2139
  552MOL0     C74444   8.434   7.011   6.100  0.3689  0.3968  0.6746
  552MOL0     C74445   8.566   6.968   6.022  0.3981  0.8114  0.1706
  552MOL0     C74446   8.605   6.816   6.049  0.6039 -0.9341  0.1025
  552MOL0     C74447   8.520   6.704   6.022  0.3681  0.1259  0.1835
  552MOL0     C74448   8.411   6.690   6.120 -0.5999 -0.4008 -1.1231
  552MOL0     C74449   8.320   6.685   6.201  0.5215  0.0805  0.4578
  552MOL0     C74450   8.184   7.106   6.214 -0.6235 -0.3607 -0.7441
  552MOL0     C74451   8.066   7.149   6.279 -0.2254 -0.2321  0.2970
  552MOL0     C74452   8.017   7.057   6.396 -0.4321 -1.0106  0.5600
  552MOL0     H74453   7.701   7.468   6.475  1.3703  0.7532  1.4666
  552MOL0     H74454   7.516   7.467   6.612  1.9024  1.8342 -1.5333
  552MOL0     H74455   7.210   7.245   6.457  0.6778  0.1581  0.3003
  552MOL0     H74456   7.181   7.147   6.603  0.2336  0.5548  1.1157
  552MOL0     H74457   7.116   7.369   6.712 -3.2723  0.3818  0.1232
  552MOL0     H74458   7.018   7.322   6.564 -1.6352  2.5890 -0.7413
  552MOL0     H74459   7.232   7.551   6.595  2.1277 -0.5888 -4.5804
  552MOL0     H74460   7.051   7.553   6.592  2.1871  3.6483  0.6427
  552MOL0     H74461   7.234   7.466   6.373  1.9334  3.7326 -1.2625
  552MOL0     H74462   7.056   7.471   6.366  0.8338 -0.3515  0.7060
  552MOL0     H74463   7.062   7.720   6.356 -0.1338 -0.7867 -2.5439
  552MOL0     H74464   7.233   7.699   6.414 -1.9092 -1.5352  1.8752
  552MOL0     H74465   7.242   7.776   6.198  1.9636 -0.6806  3.4529
  552MOL0     H74466   7.304   7.613   6.212 -0.5450 -1.5271  3.0404
  552MOL0     H74467   7.020   7.649   6.090 -1.1467 -1.4972 -0.8724
  552MOL0     H74468   7.128   7.503   6.093  1.9144  0.2880  1.5053
  552MOL0     H74469   7.208   7.777   5.961  0.9478 -0.5784 -2.4106
  552MOL0     H74470   7.298   7.637   5.978  0.2878  1.4864 -1.6436
  552MOL0     H74471   7.217   7.415   5.825  1.1785  0.3071 -2.8230
  552MOL0     H74472   7.170   7.425   5.483  0.0854 -0.6255  0.6025
  552MOL0     H74473   7.162   7.313   5.611  2.8162  2.3711  1.2705
  552MOL0     H74474   6.910   7.369   5.633 -0.3847 -1.5632 -0.3883
  552MOL0     H74475   6.923   7.429   5.461 -3.0118  0.0707  1.5901
  552MOL0     H74476   6.852   7.192   5.482  1.2041  0.1260 -1.1953
  552MOL0     H74477   6.985   7.144   5.558 -0.4546 -0.5313 -0.3675
  552MOL0     H74478   6.988   7.299   5.295  0.1599  2.3983  2.0909
  552MOL0     H74479   6.972   7.122   5.304  3.6966 -0.6962 -2.1197
  552MOL0     H74480   7.274   7.016   5.487  0.0071 -2.4919  0.0815
  552MOL0     H74481   7.369   6.826   5.410 -2.4591  1.8598  3.1245
  552MOL0     H74482   7.623   6.648   5.045 -1.9129 -0.2626 -1.4763
  552MOL0     H74483   7.775   6.458   5.022  1.7680 -2.6510  1.4630
  552MOL0     H74484   7.834   6.225   5.366 -1.0761  1.5561 -0.9362
  552MOL0     H74485   7.778   6.079   5.274  1.3613 -0.9369 -1.7860
  552MOL0     H74486   8.049   6.205   5.269 -0.1869  0.6698 -0.3714
  552MOL0     H74487   8.004   6.062   5.365 -0.9387 -1.4794 -0.6172
  552MOL0     H74488   7.935   5.950   5.153  1.4342 -1.3878 -2.5691
  552MOL0     H74489   8.003   6.071   5.058  0.5149 -0.0357 -0.0563
  552MOL0     H74490   8.161   5.861   5.120  1.4774  0.6540  0.7201
  552MOL0     H74491   8.190   5.940   5.268 -0.9952  3.1490  0.3148
  552MOL0     H74492   8.264   6.132   5.131 -3.7549  0.5402  0.1497
  552MOL0     H74493   8.228   6.046   4.989  0.5063  5.6732  0.7643
  552MOL0     H74494   8.387   5.869   5.179 -1.4175  0.1958  0.6736
  552MOL0     H74495   8.407   5.910   4.999 -3.6500  1.5576 -1.0818
  552MOL0     H74496   8.530   6.115   5.079  2.1513 -1.5235 -1.3756
  552MOL0     H74497   8.596   5.970   5.158 -2.0979 -3.6593  1.9003
  552MOL0     H74498   8.431   6.159   5.309  0.8496  0.5232  3.5691
  552MOL0     H74499   8.483   6.001   5.359  2.2695 -1.9597 -1.4344
  552MOL0     H74500   7.621   6.277   5.365 -1.0858 -0.2504  1.0840
  552MOL0     H74501   7.480   6.457   5.404  0.0589 -0.6857  0.5015
  552MOL0     H74502   7.231   6.912   5.004 -0.1805  0.1062 -0.5449
  552MOL0     H74503   7.148   7.134   5.097  1.0941  1.2610 -0.3865
  552MOL0     H74504   7.430   7.061   6.550  1.1378 -0.8306  0.5333
  552MOL0     H74505   7.645   7.053   6.383 -0.2096  1.2364 -1.9028
  552MOL0     H74506   8.042   7.448   6.112  1.1379  0.3039  0.5165
  552MOL0     H74507   8.237   7.369   6.005  2.3521 -0.5643  0.9167
  552MOL0     H74508   8.362   6.931   6.081 -0.7267  1.0932  1.7619
  552MOL0     H74509   8.472   6.997   6.201  1.9930  0.1271  0.0609
  552MOL0     H74510   8.652   7.030   6.049  1.2583  0.6945 -2.0912
  552MOL0     H74511   8.547   6.980   5.915  0.4048 -1.0824 -0.0614
  552MOL0     H74512   8.626   6.815   6.157  0.4087  0.2728  0.1705
  552MOL0     H74513   8.698   6.795   5.997  1.0351 -0.1701  0.5467
  552MOL0     H74514   8.491   6.707   5.917  0.2016 -1.3542  0.1715
  552MOL0     H74515   8.591   6.621   6.030  0.3575  0.2596  2.4719
  552MOL0     H74516   8.238   6.666   6.268 -1.0874 -1.2601 -1.7702
  552MOL0     H74517   8.231   7.012   6.241 -0.2200 -0.1903 -0.8476
  552MOL0     H74518   7.984   7.108   6.487  1.5215 -2.5249  2.2262
  552MOL0     H74519   7.937   6.993   6.358 -0.0911 -1.9908  1.4443
  552MOL0     H74520   8.104   7.001   6.431  0.2604 -0.4740 -0.2615
  553MOL0     O74521   5.197   8.076   0.130  0.0628  0.2108 -0.0656
  553MOL0     C74522   5.256   8.035   0.230 -0.5728 -0.3703 -1.0489
  553MOL0     O74523   5.225   8.073   0.360 -0.2985  0.8901  0.3763
  553MOL0     C74524   5.102   8.134   0.379 -0.6676 -1.0818  0.3160
  553MOL0     C74525   5.093   8.245   0.471  0.2021  0.4694 -0.4331
  553MOL0     C74526   4.973   8.306   0.505 -0.0610 -0.9085  0.5596
  553MOL0     C74527   4.855   8.264   0.451  0.2087  0.2116 -1.0763
  553MOL0     O74528   4.733   8.330   0.484 -0.2499 -0.9929  0.6028
  553MOL0     C74529   4.611   8.258   0.485  0.1614 -0.2580 -0.2929
  553MOL0     C74530   4.557   8.246   0.629  1.1673  0.0265  0.1548
  553MOL0     C74531   4.491   8.379   0.677 -0.1193  0.4803  0.3233
  553MOL0     C74532   4.339   8.389   0.632 -0.0988 -0.6180  0.5414
  553MOL0     C74533   4.264   8.490   0.716  0.3842 -0.4961 -0.6493
  553MOL0     C74534   4.322   8.636   0.726 -0.5359  1.1211  0.0683
  553MOL0     C74535   4.226   8.735   0.788  0.8138  0.1539 -0.2711
  553MOL0     C74536   4.199   8.727   0.942 -0.2660  0.3144  0.6705
  553MOL0     N74537   4.317   8.720   1.034 -0.3541 -0.1593 -1.3261
  553MOL0     C74538   4.410   8.615   1.037 -0.4150 -1.3895 -0.4117
  553MOL0     C74539   4.508   8.648   1.121 -0.0195  0.1784  0.8541
  553MOL0     C74540   4.635   8.569   1.133 -0.3540 -0.6827  0.0367
  553MOL0     C74541   4.657   8.506   1.269  0.6302 -0.7569 -0.8675
  553MOL0     C74542   4.518   8.471   1.333  0.5053 -0.1723 -0.2649
  553MOL0     C74543   4.546   8.399   1.477 -0.1958 -0.2058  1.1775
  553MOL0     O74544   4.440   8.344   1.549  0.1260 -0.5198 -0.5365
  553MOL0     C74545   4.378   8.228   1.505 -0.3490 -0.5726 -0.0782
  553MOL0     C74546   4.408   8.165   1.384  0.3025 -0.0128  0.2991
  553MOL0     C74547   4.319   8.071   1.341  0.3239  0.4007  0.4093
  553MOL0     C74548   4.193   8.048   1.403 -0.8386  0.5178  0.2143
  553MOL0     C74549   4.098   7.951   1.338  0.7091  0.2683 -0.6748
  553MOL0     O74550   3.964   7.947   1.378  0.3998  0.0909 -0.3063
  553MOL0     C74551   3.880   7.864   1.303  0.6265  0.5601  0.4885
  553MOL0     C74552   3.774   7.804   1.376  0.2161  0.3937  0.7076
  553MOL0     C74553   3.689   7.718   1.299 -0.0141 -0.8309 -0.1201
  553MOL0     C74554   3.703   7.707   1.165 -0.1761  0.5096 -0.3810
  553MOL0     O74555   3.625   7.615   1.101  0.2422 -0.4433 -0.0184
  553MOL0     C74556   3.541   7.652   0.992 -0.0710 -0.0245  1.0201
  553MOL0     C74557   3.458   7.528   0.935 -0.6566 -0.6572  0.5673
  553MOL0     C74558   3.353   7.487   1.035  0.2277  0.4007  0.7095
  553MOL0     C74559   3.254   7.387   0.968 -0.1407  0.8162 -0.3430
  553MOL0     C74560   3.133   7.365   1.060 -1.1504  0.1109 -0.6146
  553MOL0     C74561   3.035   7.273   0.996 -0.5106 -0.5182 -0.4000
  553MOL0     C74562   2.898   7.266   1.073 -0.0371 -0.3616  0.4847
  553MOL0     C74563   2.824   7.134   1.057  0.3481  0.4691  0.0312
  553MOL0    Cl74564   2.671   7.158   1.150 -0.6167 -0.4097  0.2401
  553MOL0     C74565   3.802   7.770   1.095  0.0407 -0.4789  0.0510
  553MOL0     C74566   3.887   7.855   1.164 -0.3881 -0.0364 -0.6965
  553MOL0     O74567   4.148   7.871   1.254 -0.6141  0.4190 -0.9608
  553MOL0     C74568   4.174   8.114   1.536  0.3841  0.0524 -0.0261
  553MOL0     C74569   4.271   8.193   1.581 -1.0779 -1.1840 -0.7085
  553MOL0     N74570   4.479   8.765   1.184  0.9451 -0.1976 -0.3819
  553MOL0     N74571   4.374   8.814   1.119 -0.2030  0.3556  0.3030
  553MOL0     C74572   4.854   8.161   0.357  0.8702 -0.0448 -0.4634
  553MOL0     C74573   4.976   8.111   0.321 -1.2457  0.4450  0.3827
  553MOL0     C74574   5.356   7.923   0.221  0.5202 -0.6930  1.1265
  553MOL0     C74575   5.442   7.896   0.334 -0.0558  0.5618 -0.3972
  553MOL0     C74576   5.539   7.799   0.329 -0.6842 -0.0719  0.3062
  553MOL0     C74577   5.555   7.719   0.219  0.1968  0.0603 -0.4743
  553MOL0     O74578   5.656   7.625   0.229 -0.0677 -0.2314  0.0242
  553MOL0     C74579   5.652   7.506   0.150 -1.0052  0.2065  0.8647
  553MOL0     C74580   5.553   7.395   0.185 -1.1170 -0.4820 -0.2439
  553MOL0     C74581   5.591   7.304   0.307 -0.4112 -0.1202  0.0215
  553MOL0     C74582   5.591   7.393   0.431  0.6309  0.3911  1.0364
  553MOL0     C74583   5.611   7.321   0.557  0.2955 -0.0181  0.5711
  553MOL0     C74584   5.640   7.259   0.667  0.6023  0.6863 -0.1106
  553MOL0     C74585   5.470   7.745   0.107  0.9506 -0.3817 -0.8925
  553MOL0     C74586   5.372   7.846   0.102 -0.0973  0.3627 -0.3974
  553MOL0     C74587   5.276   7.843  -0.019  0.3837  0.6573  1.0313
  553MOL0     H74588   5.183   8.292   0.510  2.1875  0.4024 -4.3897
  553MOL0     H74589   4.964   8.400   0.559  0.9541  0.0841 -0.9133
  553MOL0     H74590   4.554   8.325   0.421 -0.9915 -1.2993 -0.3904
  553MOL0     H74591   4.599   8.156   0.447  0.8993 -0.7538  0.7388
  553MOL0     H74592   4.634   8.214   0.700  0.5695 -1.5068  0.1567
  553MOL0     H74593   4.489   8.161   0.636  0.7105 -0.2437 -4.6523
  553MOL0     H74594   4.548   8.456   0.623  2.2008 -0.3965  1.3628
  553MOL0     H74595   4.501   8.397   0.784 -1.1803  2.4346  0.1479
  553MOL0     H74596   4.336   8.417   0.526  2.9534 -2.6209 -0.1946
  553MOL0     H74597   4.283   8.296   0.643 -4.1119  1.4811 -0.3708
  553MOL0     H74598   4.166   8.497   0.667  0.4873 -0.7233 -0.8897
  553MOL0     H74599   4.245   8.445   0.814 -0.7458 -0.9061 -1.0367
  553MOL0     H74600   4.419   8.624   0.778  0.1500  0.4596 -1.3173
  553MOL0     H74601   4.349   8.672   0.627  0.5460 -1.4928 -0.6854
  553MOL0     H74602   4.132   8.716   0.736  0.3299 -2.3832  1.3529
  553MOL0     H74603   4.261   8.836   0.762 -0.3732  0.6677  0.0419
  553MOL0     H74604   4.143   8.815   0.975  3.1285  1.7549  3.1882
  553MOL0     H74605   4.146   8.632   0.955  1.7520 -0.9602  0.0637
  553MOL0     H74606   4.415   8.525   0.977  0.9976 -0.3222 -2.0042
  553MOL0     H74607   4.637   8.490   1.058 -0.8782  0.0389 -0.7592
  553MOL0     H74608   4.723   8.628   1.103 -0.7293 -1.2813 -2.3981
  553MOL0     H74609   4.727   8.421   1.264  0.0630 -1.3141  0.2360
  553MOL0     H74610   4.696   8.574   1.346 -0.2984 -1.5731  0.3554
  553MOL0     H74611   4.470   8.394   1.273  2.0439 -2.8581  1.7379
  553MOL0     H74612   4.455   8.559   1.350  1.0081 -0.3285  2.9857
  553MOL0     H74613   4.597   8.472   1.542 -1.2976 -0.6445  2.5786
  553MOL0     H74614   4.614   8.316   1.457 -0.5359  0.2004 -2.1591
  553MOL0     H74615   4.491   8.192   1.319 -1.3714  1.5322 -1.2720
  553MOL0     H74616   4.339   8.030   1.243  0.8855  4.9698 -1.6667
  553MOL0     H74617   3.774   7.808   1.485  1.0919 -0.1132  0.7330
  553MOL0     H74618   3.609   7.667   1.354  1.1885 -2.4412  0.2303
  553MOL0     H74619   3.473   7.734   1.019  0.7544  0.6373  1.1426
  553MOL0     H74620   3.606   7.700   0.918  1.0919  0.4929  2.3219
  553MOL0     H74621   3.406   7.549   0.841 -0.5543 -2.8167 -0.0276
  553MOL0     H74622   3.529   7.452   0.902 -0.6291  0.1445 -1.3641
  553MOL0     H74623   3.404   7.448   1.124  0.9823  0.1185  0.1640
  553MOL0     H74624   3.291   7.571   1.068 -0.3274 -0.5254  2.1118
  553MOL0     H74625   3.307   7.295   0.942 -2.3655 -0.8705  0.6817
  553MOL0     H74626   3.212   7.431   0.877 -1.7566 -0.3243 -0.1952
  553MOL0     H74627   3.092   7.462   1.091 -3.9574 -1.0629 -0.3830
  553MOL0     H74628   3.160   7.316   1.154 -1.5296 -0.1680 -0.6476
  553MOL0     H74629   3.010   7.322   0.902 -2.7378 -1.7026 -0.4855
  553MOL0     H74630   3.066   7.169   0.983  0.9859  0.0485 -1.6038
  553MOL0     H74631   2.834   7.351   1.045  0.8259 -0.7043 -3.1531
  553MOL0     H74632   2.919   7.268   1.180  3.1973  1.3467 -0.0549
  553MOL0     H74633   2.806   7.126   0.949  2.0150  4.7043 -0.7541
  553MOL0     H74634   2.883   7.053   1.101  0.5956  0.3967 -0.4268
  553MOL0     H74635   3.824   7.742   0.993 -0.0057 -2.8827  0.6598
  553MOL0     H74636   3.962   7.905   1.103  1.7704  0.8236  2.4559
  553MOL0     H74637   4.078   8.103   1.585 -0.6499 -1.0309 -2.1267
  553MOL0     H74638   4.250   8.232   1.680 -0.3258 -1.3579 -0.4711
  553MOL0     H74639   4.772   8.125   0.297  0.3923  1.2700 -0.6175
  553MOL0     H74640   4.982   8.036   0.242 -2.8606 -0.0182  0.6774
  553MOL0     H74641   5.426   7.956   0.424 -3.8139  2.8064 -2.3050
  553MOL0     H74642   5.583   7.765   0.422  1.2310 -1.5755 -1.0743
  553MOL0     H74643   5.748   7.459   0.172 -1.2273  0.0558  1.5201
  553MOL0     H74644   5.645   7.532   0.044  1.4649 -0.5831  0.4470
  553MOL0     H74645   5.547   7.327   0.099 -3.5282  2.8370 -2.9708
  553MOL0     H74646   5.457   7.443   0.206 -0.7383 -0.8880  2.9156
  553MOL0     H74647   5.688   7.255   0.299  0.5870  1.8250 -0.4697
  553MOL0     H74648   5.515   7.228   0.324  0.9148 -1.5331 -0.1161
  553MOL0     H74649   5.664   7.475   0.428  1.5080 -0.3568  1.5489
  553MOL0     H74650   5.494   7.441   0.446 -0.5388 -1.8495  1.0371
  553MOL0     H74651   5.703   7.203   0.733  0.8494  3.2411  1.9657
  553MOL0     H74652   5.476   7.679   0.022  0.5526  0.1186 -1.3186
  553MOL0     H74653   5.254   7.944  -0.056  0.4494 -0.8871 -4.0165
  553MOL0     H74654   5.329   7.793  -0.101  0.6297  0.3533  1.3739
  553MOL0     H74655   5.186   7.781  -0.014  0.4533  0.5189  0.6139
  554MOL0     O74656   6.283   0.425   9.129 -0.0823 -0.3987  0.2742
  554MOL0     C74657   6.213   0.507   9.054  0.5081  0.6475 -0.5817
  554MOL0     O74658   6.164   0.470   8.934 -0.6512  0.2576  0.5886
  554MOL0     C74659   6.204   0.354   8.880 -0.0970  0.8703  0.3104
  554MOL0     C74660   6.334   0.311   8.867 -0.0684 -0.1014  0.7846
  554MOL0     C74661   6.367   0.204   8.782 -0.5343 -0.3846 -1.1861
  554MOL0     C74662   6.264   0.123   8.728 -0.4610 -0.7893  0.1861
  554MOL0     O74663   6.313   0.020   8.648 -0.0196  0.7676  0.0810
  554MOL0     C74664   6.226  -0.070   8.576  0.5035  0.3870  0.4497
  554MOL0     C74665   6.316  -0.162   8.490 -0.7632  0.6313  0.5716
  554MOL0     C74666   6.261  -0.295   8.448  0.5849 -0.2914  1.3191
  554MOL0     C74667   6.113  -0.283   8.401 -0.9056  0.8699 -0.0235
  554MOL0     C74668   6.074  -0.420   8.347  0.7333 -0.3402  0.4293
  554MOL0     C74669   6.106  -0.545   8.434  0.0729  0.2643 -0.0454
  554MOL0     C74670   6.035  -0.673   8.384  0.5582  0.6447  0.2848
  554MOL0     C74671   6.078  -0.712   8.242 -0.1823 -0.0595  0.5141
  554MOL0     N74672   5.991  -0.804   8.175 -0.4445  0.1153 -0.5500
  554MOL0     C74673   5.891  -0.772   8.090 -0.5460 -0.1269  0.2266
  554MOL0     C74674   5.830  -0.883   8.059 -1.2602 -0.1014 -0.6324
  554MOL0     C74675   5.722  -0.897   7.955  0.0253  0.3105 -0.3329
  554MOL0     C74676   5.594  -0.812   7.994  0.0963 -0.5617 -0.0575
  554MOL0     C74677   5.507  -0.853   8.109 -0.8002 -0.5177 -1.0736
  554MOL0     C74678   5.546  -0.776   8.243 -0.2539  0.7313  0.1540
  554MOL0     O74679   5.564  -0.634   8.215  0.2203  0.4005 -0.7604
  554MOL0     C74680   5.602  -0.560   8.325 -1.0929 -0.6285  0.4020
  554MOL0     C74681   5.604  -0.594   8.466  0.4650 -0.2381 -0.3728
  554MOL0     C74682   5.660  -0.508   8.562  0.4477  0.4072 -0.3761
  554MOL0     C74683   5.707  -0.375   8.531  0.0136  0.3449 -0.0271
  554MOL0     C74684   5.781  -0.281   8.630  2.0019 -0.6512  0.6459
  554MOL0     O74685   5.797  -0.342   8.752  0.3291  0.1395 -0.9485
  554MOL0     C74686   5.870  -0.276   8.846  0.0232  0.3114 -0.1330
  554MOL0     C74687   5.798  -0.212   8.954 -0.7279 -0.0108  0.1841
  554MOL0     C74688   5.875  -0.140   9.043  0.3994 -0.1188 -0.3319
  554MOL0     C74689   6.020  -0.126   9.034 -0.4989  0.4966  0.1439
  554MOL0     O74690   6.080  -0.053   9.126  0.2105 -0.5378 -0.4316
  554MOL0     C74691   6.195   0.025   9.092  0.0438  0.8584  0.1378
  554MOL0     C74692   6.311  -0.041   9.153 -0.5511 -0.4243 -0.3140
  554MOL0     C74693   6.421   0.073   9.151  0.1651  0.7204  0.3031
  554MOL0     C74694   6.557   0.014   9.172 -0.2750 -0.4500  0.1356
  554MOL0     C74695   6.671   0.097   9.108 -1.1315 -0.2161 -0.4089
  554MOL0     C74696   6.726   0.052   8.980  0.4710 -0.2956  1.0023
  554MOL0     C74697   6.774   0.171   8.898 -0.1970 -0.4247  0.7635
  554MOL0     C74698   6.860   0.123   8.786  0.0740  0.0640  0.0409
  554MOL0    Cl74699   6.939   0.254   8.721 -0.3246  0.0031 -0.0458
  554MOL0     C74700   6.090  -0.207   8.941  0.0351  0.1281 -0.1412
  554MOL0     C74701   6.013  -0.286   8.840 -0.6983 -0.8161 -0.3947
  554MOL0     O74702   5.819  -0.169   8.591  0.3774 -0.3124 -0.0588
  554MOL0     C74703   5.703  -0.341   8.396 -0.4862 -0.3893  0.4225
  554MOL0     C74704   5.648  -0.429   8.287  1.1505  0.8238 -1.1006
  554MOL0     N74705   5.891  -0.997   8.116 -0.8164 -0.0650 -0.2380
  554MOL0     N74706   5.982  -0.939   8.196  0.4238  0.1041  0.1101
  554MOL0     C74707   6.132   0.171   8.739  0.2941  0.0203 -0.3669
  554MOL0     C74708   6.106   0.287   8.816 -0.0346 -0.8138 -0.0005
  554MOL0     C74709   6.185   0.648   9.109 -0.5336 -0.8408 -0.0548
  554MOL0     C74710   6.247   0.698   9.225  0.3472  0.4832 -0.6394
  554MOL0     C74711   6.207   0.815   9.288  0.2472 -0.0052 -0.6198
  554MOL0     C74712   6.117   0.896   9.225 -0.1605 -0.7255  0.1640
  554MOL0     O74713   6.077   1.016   9.284  0.0141 -0.3021 -0.3330
  554MOL0     C74714   6.153   1.084   9.388 -0.6461  0.8525 -0.0001
  554MOL0     C74715   6.064   1.106   9.504  0.7364 -0.0876  1.4363
  554MOL0     C74716   5.941   1.192   9.475  0.4962  0.7575  0.6326
  554MOL0     C74717   5.960   1.339   9.443  0.0906  0.8968  0.4853
  554MOL0     C74718   6.016   1.416   9.550  1.1632 -0.2903 -0.2098
  554MOL0     C74719   6.065   1.480   9.636 -0.4635 -0.0269 -1.5235
  554MOL0     C74720   6.065   0.863   9.104  0.1144  0.1304 -0.1295
  554MOL0     C74721   6.094   0.740   9.049 -0.4845 -0.4591  0.6831
  554MOL0     C74722   6.005   0.710   8.933  0.3920  0.7084  0.4860
  554MOL0     H74723   6.411   0.370   8.917 -0.9235  0.7807  1.0909
  554MOL0     H74724   6.471   0.181   8.761  0.2669 -0.4907  2.2999
  554MOL0     H74725   6.158  -0.121   8.645  0.1109  3.2899  2.3631
  554MOL0     H74726   6.169  -0.012   8.503  0.5530 -2.1141 -1.7306
  554MOL0     H74727   6.407  -0.183   8.546 -0.5472  0.8603  0.3108
  554MOL0     H74728   6.356  -0.110   8.403  0.3093 -1.4088 -0.2169
  554MOL0     H74729   6.276  -0.362   8.533  1.2499 -1.7454  0.1058
  554MOL0     H74730   6.315  -0.339   8.364 -1.3262 -0.8935  0.3284
  554MOL0     H74731   6.048  -0.264   8.487  1.4564 -1.3466  2.4703
  554MOL0     H74732   6.116  -0.201   8.329  1.8478 -0.0379 -1.0720
  554MOL0     H74733   5.969  -0.409   8.320  0.3013 -2.3910  1.1103
  554MOL0     H74734   6.124  -0.439   8.251 -0.8962  0.0325 -0.5257
  554MOL0     H74735   6.214  -0.562   8.440  0.3998  2.5244  2.5240
  554MOL0     H74736   6.076  -0.517   8.536 -0.4074  1.1180 -0.4135
  554MOL0     H74737   5.927  -0.673   8.402  0.6534  0.5446  0.9131
  554MOL0     H74738   6.067  -0.752   8.454  0.3552 -0.7138 -1.0958
  554MOL0     H74739   6.075  -0.621   8.182  2.6180  0.9861  1.7545
  554MOL0     H74740   6.180  -0.754   8.240 -0.5919 -1.2378 -3.1495
  554MOL0     H74741   5.862  -0.670   8.066  2.7544  1.1518  1.1127
  554MOL0     H74742   5.748  -0.872   7.852 -0.7781 -0.8025 -0.8227
  554MOL0     H74743   5.700  -1.004   7.959  1.4797  0.0252  1.2527
  554MOL0     H74744   5.619  -0.706   7.995 -0.1018 -0.5036 -0.6842
  554MOL0     H74745   5.529  -0.825   7.906 -2.4658 -3.3593  2.0165
  554MOL0     H74746   5.507  -0.960   8.133 -0.9420 -0.3741 -0.3916
  554MOL0     H74747   5.412  -0.811   8.074 -0.8643 -0.5218 -0.9082
  554MOL0     H74748   5.632  -0.827   8.289  0.3846  0.1633 -1.6090
  554MOL0     H74749   5.467  -0.782   8.319 -2.4502  3.4101 -1.7225
  554MOL0     H74750   5.571  -0.693   8.498  0.7755 -0.7088 -1.4648
  554MOL0     H74751   5.657  -0.546   8.664 -0.2398  3.6838  0.9429
  554MOL0     H74752   5.691  -0.197   8.941 -0.6198 -0.4337 -1.2507
  554MOL0     H74753   5.818  -0.082   9.115 -0.7155  0.1901 -1.4257
  554MOL0     H74754   6.207   0.018   8.983 -2.3087 -3.2196 -0.0327
  554MOL0     H74755   6.177   0.124   9.135 -1.1650  0.4437  0.6272
  554MOL0     H74756   6.287  -0.074   9.254  1.5639 -0.6392  0.1743
  554MOL0     H74757   6.347  -0.124   9.091  0.9118  0.0285 -0.1217
  554MOL0     H74758   6.432   0.114   9.050  2.5173  0.4994  0.4054
  554MOL0     H74759   6.403   0.160   9.215  2.0388 -0.8748  3.2226
  554MOL0     H74760   6.572  -0.083   9.124  2.8977  0.1062 -0.2286
  554MOL0     H74761   6.579   0.010   9.279  0.2760 -0.8299  0.0132
  554MOL0     H74762   6.758   0.088   9.174 -1.2502  1.8477  0.1006
  554MOL0     H74763   6.646   0.203   9.111  3.8462  1.2526 -0.5645
  554MOL0     H74764   6.815  -0.007   9.000  1.8989  0.5697 -2.1446
  554MOL0     H74765   6.664  -0.008   8.913  2.5692  1.6800 -3.1156
  554MOL0     H74766   6.827   0.233   8.971 -0.2194 -0.5306  0.8686
  554MOL0     H74767   6.695   0.229   8.850 -0.2755 -1.1876 -0.0718
  554MOL0     H74768   6.940   0.058   8.823  1.1002  2.2019  1.8222
  554MOL0     H74769   6.808   0.071   8.705  2.2733  1.0624 -2.1417
  554MOL0     H74770   6.193  -0.230   8.915 -0.5807 -1.2170 -1.5806
  554MOL0     H74771   6.071  -0.348   8.772  0.2619 -0.5097  0.1237
  554MOL0     H74772   5.733  -0.240   8.369 -1.1869  0.2303  1.8582
  554MOL0     H74773   5.642  -0.394   8.185  1.0971  2.5412 -0.5406
  554MOL0     H74774   6.051   0.128   8.682 -0.9055 -1.4062  2.2426
  554MOL0     H74775   6.009   0.335   8.822  0.2901  0.4897 -3.2440
  554MOL0     H74776   6.318   0.634   9.276 -1.6273 -0.7745  0.6572
  554MOL0     H74777   6.266   0.829   9.377  1.2964 -0.3377 -1.2500
  554MOL0     H74778   6.185   1.185   9.360 -1.2762  2.4361  4.2446
  554MOL0     H74779   6.235   1.018   9.417 -1.0608 -0.1046 -0.9527
  554MOL0     H74780   6.114   1.147   9.592  5.0891  1.1435 -1.2906
  554MOL0     H74781   6.026   1.005   9.526  0.1545 -0.5344 -1.2429
  554MOL0     H74782   5.881   1.200   9.567 -1.9927  1.7146 -0.9609
  554MOL0     H74783   5.881   1.143   9.398  0.8054  1.1702  0.1249
  554MOL0     H74784   6.031   1.347   9.360 -0.9072  2.5786 -0.2520
  554MOL0     H74785   5.861   1.378   9.419 -0.9793 -2.8398 -1.9916
  554MOL0     H74786   6.120   1.521   9.718  0.0628 -0.3798 -1.6948
  554MOL0     H74787   5.991   0.927   9.057 -0.8366 -0.6470  0.2684
  554MOL0     H74788   6.070   0.680   8.851 -0.9273 -0.8444 -0.0361
  554MOL0     H74789   5.925   0.640   8.959 -1.2931  2.2988 -0.1493
  554MOL0     H74790   5.950   0.795   8.891 -2.1375  2.0103  5.5553
  555MOL0     O74791   7.798   0.117   0.110 -0.0308  0.2226 -0.1820
  555MOL0     C74792   7.796   0.024   0.035 -0.0148  0.6560  0.1171
  555MOL0     O74793   7.909  -0.025  -0.031  0.8102 -0.3332  0.5647
  555MOL0     C74794   8.038  -0.003   0.006 -0.3064 -0.3261  0.2511
  555MOL0     C74795   8.132  -0.084  -0.055  0.5238  0.3255  0.2537
  555MOL0     C74796   8.266  -0.056  -0.055  0.9271  0.1281  0.1654
  555MOL0     C74797   8.317   0.065   0.002  0.0018 -1.0536  1.0498
  555MOL0     O74798   8.451   0.095  -0.011 -0.5711 -0.7826 -0.6229
  555MOL0     C74799   8.506   0.192   0.089 -0.1461 -0.4605 -0.5049
  555MOL0     C74800   8.661   0.228   0.067 -0.0886 -0.2267 -0.8211
  555MOL0     C74801   8.712   0.324   0.170  0.9370  0.3854  0.7159
  555MOL0     C74802   8.842   0.384   0.113  0.1363  0.4405  0.0095
  555MOL0     C74803   8.916   0.472   0.209  0.7753 -0.4740  1.0180
  555MOL0     C74804   9.041   0.534   0.158  0.8911  1.3059  0.2244
  555MOL0     C74805   9.037   0.586   0.016 -0.2700 -0.1393  0.7581
  555MOL0     C74806   9.108   0.468  -0.061 -0.1697  0.4358 -0.5719
  555MOL0     N74807   9.079   0.480  -0.200  0.0561  0.3056  0.3657
  555MOL0     C74808   9.164   0.467  -0.304 -0.2666 -0.7331  0.3531
  555MOL0     C74809   9.106   0.499  -0.423  0.6251  0.0730  1.1871
  555MOL0     C74810   9.144   0.476  -0.565 -0.1643  0.4192 -0.0537
  555MOL0     C74811   9.252   0.362  -0.564 -0.5231 -0.7169  0.8075
  555MOL0     C74812   9.331   0.328  -0.698 -0.5740  0.4354 -1.0264
  555MOL0     C74813   9.410   0.447  -0.754 -0.0206 -0.4194 -0.6146
  555MOL0     O74814   9.511   0.479  -0.665 -0.3731 -0.2606 -0.5555
  555MOL0     C74815   9.588   0.591  -0.700 -0.1129  0.3654  0.5773
  555MOL0     C74816   9.689   0.627  -0.607  0.1817 -0.1405  0.7550
  555MOL0     C74817   9.777   0.722  -0.647 -0.6364 -0.3666 -0.1257
  555MOL0     C74818   9.764   0.794  -0.766 -0.6554  0.2595 -0.0822
  555MOL0     C74819   9.842   0.908  -0.805  0.0604  0.1469 -0.2661
  555MOL0     O74820   9.947   0.920  -0.723 -0.9509  0.1778 -0.3332
  555MOL0     C74821  10.047   1.017  -0.718  0.7946  0.1237  0.1951
  555MOL0     C74822  10.035   1.138  -0.780 -0.7174 -0.2710 -0.0727
  555MOL0     C74823  10.132   1.233  -0.764  0.4237  0.0901 -0.1692
  555MOL0     C74824  10.244   1.214  -0.683 -0.5170 -0.1211  0.4854
  555MOL0     O74825  10.340   1.316  -0.687 -0.5247 -0.0796 -0.2491
  555MOL0     C74826  10.459   1.288  -0.611  0.0225  0.0939  0.9275
  555MOL0     C74827  10.548   1.406  -0.642  0.1376 -0.0935  0.2311
  555MOL0     C74828  10.569   1.430  -0.785  0.0922  0.0256  0.6090
  555MOL0     C74829  10.683   1.529  -0.812 -0.4255 -0.6421  0.3987
  555MOL0     C74830  10.658   1.665  -0.755  0.4757  0.5355  0.6004
  555MOL0     C74831  10.747   1.780  -0.828  0.3475  0.1240  0.0348
  555MOL0     C74832  10.901   1.763  -0.801  0.0811 -0.1002  0.2622
  555MOL0     C74833  10.934   1.765  -0.655  0.9677 -0.5265 -0.5999
  555MOL0    Cl74834  10.867   1.909  -0.569 -0.0612  0.1013 -0.4534
  555MOL0     C74835  10.262   1.082  -0.628  0.0272  0.2586  0.8639
  555MOL0     C74836  10.159   0.990  -0.640 -0.3935 -0.5459  0.0823
  555MOL0     O74837   9.817   0.986  -0.900  0.4721 -0.1167 -0.3818
  555MOL0     C74838   9.653   0.768  -0.849  0.1891  0.1624  0.3907
  555MOL0     C74839   9.557   0.670  -0.806 -1.0516  0.4047  0.6989
  555MOL0     N74840   8.972   0.534  -0.385 -0.5851  0.0275  0.5213
  555MOL0     N74841   8.959   0.527  -0.254 -0.3086 -0.8639  0.6049
  555MOL0     C74842   8.223   0.146   0.061  1.1415  0.0551 -0.7530
  555MOL0     C74843   8.085   0.115   0.069 -0.2921 -0.6808 -0.0872
  555MOL0     C74844   7.672  -0.056   0.037  0.5071 -1.4025  0.1742
  555MOL0     C74845   7.542   0.008   0.066 -0.3182  0.0131  0.7383
  555MOL0     C74846   7.417  -0.061   0.067 -0.0145  0.7205  0.2373
  555MOL0     C74847   7.428  -0.203   0.047  1.5457  0.1454 -1.0376
  555MOL0     O74848   7.318  -0.284   0.039 -0.8486  0.2519  1.1145
  555MOL0     C74849   7.192  -0.251   0.094  0.3452 -0.0655  0.3379
  555MOL0     C74850   7.189  -0.264   0.250 -0.1357 -0.2766  0.5745
  555MOL0     C74851   7.045  -0.251   0.314 -0.9947 -0.6096  0.4103
  555MOL0     C74852   7.024  -0.103   0.355 -1.3676 -0.1971  0.8444
  555MOL0     C74853   7.115  -0.050   0.460  0.4842 -0.3154 -0.2566
  555MOL0     C74854   7.187  -0.013   0.553  0.4949 -0.3170 -0.6751
  555MOL0     C74855   7.553  -0.263   0.026  0.5587  0.0992  1.0567
  555MOL0     C74856   7.673  -0.191   0.029 -0.9597 -0.3542  0.2500
  555MOL0     C74857   7.798  -0.273   0.035  0.3393  0.2012 -0.2682
  555MOL0     H74858   8.105  -0.177  -0.105  0.7873  0.8360 -0.8686
  555MOL0     H74859   8.332  -0.128  -0.101 -0.1947 -0.9637  0.2374
  555MOL0     H74860   8.446   0.283   0.087 -1.6536 -1.1381  4.0117
  555MOL0     H74861   8.497   0.156   0.192  2.3974 -2.0195 -0.7292
  555MOL0     H74862   8.679   0.244  -0.040  2.4342 -0.1094 -0.4293
  555MOL0     H74863   8.719   0.137   0.083  1.1731  0.8523  1.1379
  555MOL0     H74864   8.725   0.268   0.262  1.8600 -2.1094 -0.8310
  555MOL0     H74865   8.640   0.404   0.192  0.6910  0.3142  0.1812
  555MOL0     H74866   8.901   0.296   0.085  1.0482  1.5412 -1.7068
  555MOL0     H74867   8.819   0.430   0.016 -0.7482 -1.5145 -0.7614
  555MOL0     H74868   8.835   0.541   0.231 -0.8850 -2.1462  0.4805
  555MOL0     H74869   8.948   0.409   0.293 -1.5680  0.6634  2.8688
  555MOL0     H74870   9.066   0.609   0.233  2.0735  0.4084  0.7558
  555MOL0     H74871   9.118   0.459   0.175 -0.3681  0.3986  2.1956
  555MOL0     H74872   9.105   0.672   0.016  1.5737 -1.5159 -0.4861
  555MOL0     H74873   8.935   0.613  -0.012  0.4775 -0.5214 -2.7601
  555MOL0     H74874   9.216   0.468  -0.041  0.1212  1.0835 -1.9885
  555MOL0     H74875   9.069   0.372  -0.028 -1.8710  0.6899 -1.7099
  555MOL0     H74876   9.271   0.451  -0.291  0.1302  0.4147 -1.1822
  555MOL0     H74877   9.055   0.457  -0.625  0.0967  0.6024 -0.5085
  555MOL0     H74878   9.198   0.567  -0.596  2.6411 -1.0031  0.3483
  555MOL0     H74879   9.329   0.387  -0.491  0.6527 -0.3089 -0.5257
  555MOL0     H74880   9.196   0.280  -0.519 -3.9111  1.0101  0.0439
  555MOL0     H74881   9.263   0.283  -0.771 -0.5838 -2.1681  0.4671
  555MOL0     H74882   9.405   0.247  -0.691  1.0858  1.6370 -3.2331
  555MOL0     H74883   9.341   0.532  -0.752 -1.6641 -1.6211  3.1262
  555MOL0     H74884   9.438   0.420  -0.856 -1.9225 -3.5736 -0.4260
  555MOL0     H74885   9.699   0.589  -0.506 -0.6878  1.2591  1.4088
  555MOL0     H74886   9.869   0.728  -0.589 -0.2027 -0.8281 -0.7587
  555MOL0     H74887   9.951   1.159  -0.845  0.9066  0.2827 -2.0913
  555MOL0     H74888  10.118   1.332  -0.806 -2.7780  0.1474  0.7818
  555MOL0     H74889  10.437   1.300  -0.505  0.2642 -0.5842  1.0595
  555MOL0     H74890  10.502   1.189  -0.633 -1.5502 -0.5393  0.5587
  555MOL0     H74891  10.490   1.490  -0.602 -0.0062 -0.5190  0.9443
  555MOL0     H74892  10.638   1.394  -0.582 -1.9558  0.0577  3.7368
  555MOL0     H74893  10.576   1.333  -0.835  2.1589 -0.8014  2.3570
  555MOL0     H74894  10.477   1.474  -0.824  1.1668  1.4071 -0.4995
  555MOL0     H74895  10.703   1.542  -0.918  2.1678  0.0239  0.9173
  555MOL0     H74896  10.778   1.488  -0.776 -0.0715 -0.0363  0.1677
  555MOL0     H74897  10.679   1.671  -0.648  1.3613  1.1282  0.4028
  555MOL0     H74898  10.550   1.685  -0.760 -1.0484 -5.6002  0.6616
  555MOL0     H74899  10.726   1.791  -0.935  0.2503 -0.1224  0.0268
  555MOL0     H74900  10.709   1.875  -0.790 -1.0997 -1.6774  3.6027
  555MOL0     H74901  10.949   1.855  -0.835 -3.2885  3.1055  3.3187
  555MOL0     H74902  10.935   1.673  -0.853 -1.6039 -0.0843 -0.9238
  555MOL0     H74903  10.889   1.674  -0.613  0.7536  0.2321  0.8885
  555MOL0     H74904  11.043   1.761  -0.642  0.7741 -0.6688  1.2594
  555MOL0     H74905  10.352   1.040  -0.583  0.3460 -1.5430 -1.3065
  555MOL0     H74906  10.167   0.896  -0.586  1.6191  1.2595  3.2755
  555MOL0     H74907   9.625   0.826  -0.937 -0.9333 -2.3805 -1.0584
  555MOL0     H74908   9.475   0.641  -0.870 -0.0570  3.4693 -2.3136
  555MOL0     H74909   8.246   0.245   0.098 -2.8425  0.0190  2.5370
  555MOL0     H74910   8.015   0.188   0.108 -2.4157 -3.2781  1.2315
  555MOL0     H74911   7.532   0.115   0.084  0.4584  0.4703 -1.2969
  555MOL0     H74912   7.322  -0.017   0.096 -1.6434 -2.7659  0.6840
  555MOL0     H74913   7.120  -0.320   0.050  0.5306 -0.1270  0.1280
  555MOL0     H74914   7.170  -0.146   0.072  1.6747  0.4966  1.5077
  555MOL0     H74915   7.262  -0.200   0.300 -0.2765  1.8836 -1.7947
  555MOL0     H74916   7.231  -0.364   0.268 -1.5053 -0.7521  1.2568
  555MOL0     H74917   7.030  -0.320   0.398  0.4222 -0.6261  0.6838
  555MOL0     H74918   6.969  -0.272   0.239 -0.8082 -0.3514  0.1478
  555MOL0     H74919   7.034  -0.031   0.273 -0.1140 -0.6847  0.5487
  555MOL0     H74920   6.921  -0.092   0.389 -1.4354  4.2353 -0.1225
  555MOL0     H74921   7.263   0.027   0.617  1.2992  0.2658 -1.9337
  555MOL0     H74922   7.550  -0.361  -0.022 -1.3281  0.9859 -0.8138
  555MOL0     H74923   7.838  -0.271  -0.067  0.2702 -3.6030 -0.5067
  555MOL0     H74924   7.876  -0.234   0.101 -0.6466 -1.1132  1.7511
  555MOL0     H74925   7.774  -0.373   0.073  1.2332 -0.1164 -0.5265
  556MOL0     O74926  10.574  11.249   1.184 -0.1393 -0.2712 -0.0463
  556MOL0     C74927  10.557  11.299   1.292  0.5166 -0.1604 -1.0479
  556MOL0     O74928  10.439  11.347   1.328  0.1898 -0.7084  0.3138
  556MOL0     C74929  10.322  11.333   1.252  0.7091 -0.2865  0.3186
  556MOL0     C74930  10.242  11.451   1.225 -0.5295 -0.4409 -0.6935
  556MOL0     C74931  10.130  11.450   1.143 -0.5051 -0.9964 -0.1898
  556MOL0     C74932  10.092  11.324   1.089 -0.5079 -0.3156  0.5430
  556MOL0     O74933   9.990  11.307   1.004 -0.0325 -0.6895 -0.4686
  556MOL0     C74934   9.870  11.391   1.029 -0.0586 -0.7900 -0.8933
  556MOL0     C74935   9.747  11.322   0.976 -0.3031  0.4819  0.1087
  556MOL0     C74936   9.746  11.312   0.828 -0.5563  0.2138  0.6455
  556MOL0     C74937   9.848  11.220   0.764 -0.2111  0.0326 -0.2307
  556MOL0     C74938   9.793  11.149   0.635 -0.0419  0.0835 -0.3960
  556MOL0     C74939   9.684  11.053   0.676 -0.0253 -0.5327  0.8231
  556MOL0     C74940   9.625  10.996   0.542  0.1750 -0.6284  0.6590
  556MOL0     C74941   9.495  10.911   0.595  1.0202 -0.2919 -0.0354
  556MOL0     N74942   9.442  10.820   0.499 -0.5994 -0.5908  0.5392
  556MOL0     C74943   9.471  10.693   0.480  0.0695 -0.2058  0.4431
  556MOL0     C74944   9.378  10.651   0.384 -0.0465  0.1622  0.0710
  556MOL0     C74945   9.379  10.508   0.340  1.0402  0.4674  0.1980
  556MOL0     C74946   9.261  10.425   0.397 -0.3052 -0.9287  0.8574
  556MOL0     C74947   9.307  10.341   0.517  0.1340  0.0894 -0.4929
  556MOL0     C74948   9.214  10.217   0.532 -0.3597  0.0923  0.0425
  556MOL0     O74949   9.263  10.128   0.638 -0.0818 -0.9482 -0.9812
  556MOL0     C74950   9.251  10.166   0.769  0.6503  0.5219 -0.2178
  556MOL0     C74951   9.158  10.264   0.812  1.1107  0.0472  0.4796
  556MOL0     C74952   9.137  10.280   0.948  0.2577 -1.0152  0.9845
  556MOL0     C74953   9.212  10.212   1.044  0.1469 -0.5236  0.1441
  556MOL0     C74954   9.181  10.219   1.188  0.6165 -0.4541  0.3538
  556MOL0     O74955   9.262  10.138   1.265  0.2140  0.5203 -0.1764
  556MOL0     C74956   9.241  10.110   1.398 -0.2588  0.3165  0.2313
  556MOL0     C74957   9.132  10.046   1.445  0.1222  0.8134  0.1897
  556MOL0     C74958   9.121  10.007   1.574 -0.2971  0.3100  0.1127
  556MOL0     C74959   9.227  10.025   1.665  0.5450 -0.1615 -0.6389
  556MOL0     O74960   9.202   9.980   1.790  1.1942  0.3346 -0.0542
  556MOL0     C74961   9.280  10.013   1.903 -0.1317 -0.1401 -0.7963
  556MOL0     C74962   9.396   9.908   1.921  0.4942 -0.9214 -0.4667
  556MOL0     C74963   9.469   9.906   2.061  1.2923  0.5754  1.0881
  556MOL0     C74964   9.363   9.900   2.179  0.1633  0.5305  1.2529
  556MOL0     C74965   9.406   9.854   2.320 -1.4005 -1.0004 -0.0978
  556MOL0     C74966   9.287   9.817   2.409  0.7137 -0.7736  0.0408
  556MOL0     C74967   9.186   9.929   2.441  0.3487  0.5887  0.2594
  556MOL0     C74968   9.059   9.852   2.484  0.1838 -0.1658 -0.6330
  556MOL0    Cl74969   8.930   9.944   2.529 -0.0708 -0.4321  0.0082
  556MOL0     C74970   9.345  10.070   1.614  0.3566 -0.3595 -1.0087
  556MOL0     C74971   9.359  10.125   1.484  0.3938 -0.7229  0.4736
  556MOL0     O74972   9.079  10.273   1.226  0.0964 -0.0649 -0.0438
  556MOL0     C74973   9.306  10.120   0.999 -0.2328  0.4626 -0.6967
  556MOL0     C74974   9.329  10.099   0.863 -0.2498 -0.0520 -0.0671
  556MOL0     N74975   9.309  10.760   0.337 -0.1212 -0.0186 -0.4911
  556MOL0     N74976   9.336  10.860   0.414 -0.7926  0.2361  0.0697
  556MOL0     C74977  10.174  11.210   1.107  1.3016 -0.0247  0.1240
  556MOL0     C74978  10.289  11.219   1.181  0.2488  0.8100  0.3585
  556MOL0     C74979  10.682  11.316   1.376 -0.0500 -0.6559  0.3778
  556MOL0     C74980  10.689  11.406   1.481 -0.5813  0.4894  0.3355
  556MOL0     C74981  10.782  11.414   1.579  0.8569 -0.5256 -1.3459
  556MOL0     C74982  10.896  11.337   1.555  0.1893 -0.9068 -0.3100
  556MOL0     O74983  11.010  11.332   1.640  0.4860 -0.1594  0.6739
  556MOL0     C74984  11.026  11.440   1.727 -0.9984  0.4391 -1.3956
  556MOL0     C74985  10.969  11.404   1.863  0.7683 -0.4930  0.9016
  556MOL0     C74986  11.029  11.505   1.955 -0.0921  0.0943  0.2063
  556MOL0     C74987  10.935  11.567   2.060  0.4723  0.0037  0.4903
  556MOL0     C74988  10.865  11.687   2.006  0.5958  0.2153 -0.4759
  556MOL0     C74989  10.814  11.782   1.947  0.2326  0.0568  0.6653
  556MOL0     C74990  10.896  11.240   1.452 -0.3121 -0.2766  0.2689
  556MOL0     C74991  10.790  11.222   1.368  0.0758  0.1888 -0.0238
  556MOL0     C74992  10.816  11.097   1.270  0.2546  1.3336 -0.9725
  556MOL0     H74993  10.280  11.543   1.268  2.9655 -2.0324 -0.0235
  556MOL0     H74994  10.081  11.541   1.112  1.1154  1.0613  2.8006
  556MOL0     H74995   9.855  11.403   1.136 -1.2587 -0.0679 -1.1139
  556MOL0     H74996   9.888  11.489   0.984  0.3417 -0.2345  0.4500
  556MOL0     H74997   9.660  11.379   1.009  0.7240  0.5481  3.0423
  556MOL0     H74998   9.730  11.228   1.029  0.2979  0.8426  0.9704
  556MOL0     H74999   9.739  11.412   0.785 -2.4056  0.6406  1.8402
  556MOL0     H75000   9.645  11.286   0.792  0.0296  0.9437 -1.7537
  556MOL0     H75001   9.947  11.263   0.745 -0.0765 -0.3141 -0.3061
  556MOL0     H75002   9.870  11.152   0.846 -1.7652 -0.4647 -0.1921
  556MOL0     H75003   9.745  11.221   0.568  2.0310  1.1772 -0.7988
  556MOL0     H75004   9.871  11.085   0.592  1.8909  1.8168  0.3496
  556MOL0     H75005   9.734  10.976   0.736  4.3769  2.0623  0.9878
  556MOL0     H75006   9.603  11.104   0.728 -0.1477 -2.0296  2.1669
  556MOL0     H75007   9.702  10.936   0.492  0.3686  1.4977 -1.7571
  556MOL0     H75008   9.588  11.082   0.486  0.2539 -0.0696  1.4357
  556MOL0     H75009   9.536  10.854   0.679  0.7409  0.6588  0.7521
  556MOL0     H75010   9.413  10.972   0.632  1.4728  1.1458 -1.2915
  556MOL0     H75011   9.556  10.644   0.526  3.2268  2.6752 -1.7254
  556MOL0     H75012   9.378  10.510   0.231  1.8336  0.8606  0.1915
  556MOL0     H75013   9.470  10.449   0.355  0.2813 -1.2249 -1.4458
  556MOL0     H75014   9.169  10.482   0.411 -0.2605 -0.8930  1.0091
  556MOL0     H75015   9.241  10.358   0.313 -1.1575 -1.4813  1.4874
  556MOL0     H75016   9.289  10.403   0.605 -1.5568 -1.7644  0.5361
  556MOL0     H75017   9.412  10.311   0.517 -0.2437 -1.3224 -1.1892
  556MOL0     H75018   9.206  10.156   0.441 -0.6190  0.8119 -0.4278
  556MOL0     H75019   9.112  10.248   0.557  0.7852  2.9774  1.5946
  556MOL0     H75020   9.102  10.328   0.745 -0.2727  0.1015  1.6264
  556MOL0     H75021   9.061  10.344   0.991  1.5615 -0.5172  2.6852
  556MOL0     H75022   9.058  10.006   1.376  0.5763  0.2566  0.0192
  556MOL0     H75023   9.043   9.942   1.611  2.5335 -2.6438  1.4470
  556MOL0     H75024   9.322  10.114   1.901 -1.4647  0.4645  0.1161
  556MOL0     H75025   9.227  10.003   1.998  2.1136  0.7789  0.6470
  556MOL0     H75026   9.374   9.801   1.920 -2.2996 -0.4452 -2.8905
  556MOL0     H75027   9.475   9.925   1.847 -0.6972 -0.6975 -1.7389
  556MOL0     H75028   9.541   9.824   2.069 -0.3514 -0.8093  2.7748
  556MOL0     H75029   9.533   9.994   2.069  1.2390  0.7565 -0.2418
  556MOL0     H75030   9.266   9.855   2.157  0.4048  0.7863 -0.4988
  556MOL0     H75031   9.333  10.003   2.199 -4.4088 -0.3565  0.2071
  556MOL0     H75032   9.460   9.938   2.364  0.3128 -2.0744 -0.0724
  556MOL0     H75033   9.481   9.775   2.312 -0.0126  0.4145 -2.2864
  556MOL0     H75034   9.230   9.735   2.364  2.0213 -2.4421  1.3050
  556MOL0     H75035   9.317   9.767   2.501  2.8604  2.8009  1.4716
  556MOL0     H75036   9.172   9.983   2.346 -0.1053  0.6909  0.3847
  556MOL0     H75037   9.230   9.993   2.518 -1.2883 -0.2204  1.9352
  556MOL0     H75038   9.023   9.790   2.401 -1.9464 -1.0102  0.8281
  556MOL0     H75039   9.077   9.775   2.560 -0.4443  0.8450  0.5747
  556MOL0     H75040   9.435  10.098   1.669  0.3109 -1.1941 -0.4809
  556MOL0     H75041   9.446  10.177   1.446 -0.1506 -0.3958 -0.3504
  556MOL0     H75042   9.361  10.055   1.066 -1.8416 -0.4655 -0.2270
  556MOL0     H75043   9.395  10.023   0.823 -1.1603  0.1190 -2.0329
  556MOL0     H75044  10.127  11.124   1.061 -2.8601  0.9296  2.1355
  556MOL0     H75045  10.354  11.135   1.205  0.2055  0.1494 -1.6583
  556MOL0     H75046  10.598  11.465   1.486 -1.7503 -1.0588 -1.3602
  556MOL0     H75047  10.767  11.493   1.651 -0.2926  1.5823 -3.7656
  556MOL0     H75048  10.988  11.538   1.696  3.1658  2.5878 -0.3304
  556MOL0     H75049  11.135  11.437   1.733 -1.0939 -1.0936  0.7242
  556MOL0     H75050  11.011  11.305   1.884  1.4074  0.0043  2.0971
  556MOL0     H75051  10.860  11.406   1.869  0.6634 -0.8617 -0.6805
  556MOL0     H75052  11.069  11.588   1.895  1.4185 -1.1479 -0.5756
  556MOL0     H75053  11.107  11.457   2.015  1.2003 -0.6720 -1.9689
  556MOL0     H75054  10.863  11.490   2.091 -0.6123  0.4293 -0.8768
  556MOL0     H75055  10.993  11.590   2.150 -1.7331  1.2145  1.6912
  556MOL0     H75056  10.772  11.871   1.906  1.1466 -0.1287 -0.7327
  556MOL0     H75057  10.979  11.170   1.450  2.8358  2.9914  2.9265
  556MOL0     H75058  10.833  11.141   1.172  2.2737  3.4294  0.2178
  556MOL0     H75059  10.891  11.027   1.308 -1.7193  0.7976  2.4253
  556MOL0     H75060  10.729  11.033   1.252 -0.8961  0.8831  4.4321
  557MOL0     O75061  11.303   1.132   1.742 -0.2749 -0.4523 -0.3450
  557MOL0     C75062  11.377   1.050   1.798 -0.3408 -1.4628  0.2743
  557MOL0     O75063  11.396   0.911   1.755 -0.2975 -0.8765  0.6910
  557MOL0     C75064  11.326   0.843   1.665 -0.1827 -0.7195  0.0785
  557MOL0     C75065  11.269   0.891   1.551  0.3020  0.2499  0.1073
  557MOL0     C75066  11.232   0.817   1.444  0.2382 -0.3780 -0.2404
  557MOL0     C75067  11.239   0.674   1.455 -1.1983 -0.3821  0.7726
  557MOL0     O75068  11.211   0.581   1.353  0.1066  0.5566 -0.7660
  557MOL0     C75069  11.166   0.633   1.236 -0.4834 -0.0408 -0.1296
  557MOL0     C75070  11.103   0.533   1.141  0.8314 -0.5098 -0.4456
  557MOL0     C75071  11.076   0.609   1.014 -0.5505 -0.1343  0.3664
  557MOL0     C75072  11.061   0.497   0.909 -0.1683  0.8164 -0.1178
  557MOL0     C75073  11.003   0.556   0.769  1.3140  0.4591  0.3390
  557MOL0     C75074  11.068   0.681   0.724 -0.4275 -0.6392 -0.5844
  557MOL0     C75075  11.074   0.705   0.578  0.2935 -0.1560  0.5709
  557MOL0     C75076  11.102   0.852   0.540 -0.7683 -0.4217  0.4020
  557MOL0     N75077  11.108   0.861   0.396  0.3795  0.3555 -0.1161
  557MOL0     C75078  11.001   0.887   0.317 -0.3345 -0.3597  0.2801
  557MOL0     C75079  11.057   0.900   0.192 -0.0443 -0.1652 -0.5818
  557MOL0     C75080  10.988   0.931   0.060 -0.4315  1.1118  0.5895
  557MOL0     C75081  10.852   0.990   0.087 -0.3298  0.0147  0.8055
  557MOL0     C75082  10.765   0.981  -0.048 -0.4593  0.5578  0.6853
  557MOL0     C75083  10.623   1.037  -0.019 -0.1204  0.7381  0.3487
  557MOL0     O75084  10.553   0.955   0.077 -0.3998 -0.1808 -0.1014
  557MOL0     C75085  10.430   1.004   0.114 -0.2400 -0.1547 -0.6897
  557MOL0     C75086  10.380   0.953   0.234  0.3997  0.6846  0.8719
  557MOL0     C75087  10.243   0.965   0.269  0.6950  0.1097  0.4293
  557MOL0     C75088  10.150   1.034   0.191  0.1299  0.1234  0.5733
  557MOL0     C75089  10.008   1.037   0.229 -0.6219  0.0233  0.4320
  557MOL0     O75090   9.932   1.133   0.162 -0.2297  0.0463  0.0320
  557MOL0     C75091   9.799   1.133   0.184  1.0423  0.1153 -0.5725
  557MOL0     C75092   9.714   1.116   0.080 -0.0664 -0.2040 -0.4466
  557MOL0     C75093   9.575   1.110   0.100  0.6654  1.2227 -0.2381
  557MOL0     C75094   9.524   1.117   0.232  0.4099  0.9239  0.1100
  557MOL0     O75095   9.387   1.121   0.254  0.3589  0.2291 -0.9137
  557MOL0     C75096   9.329   0.991   0.298 -0.5345  0.4299  0.4685
  557MOL0     C75097   9.177   0.997   0.299 -0.2714  0.3771  0.5674
  557MOL0     C75098   9.103   1.015   0.156 -0.0844 -0.8126 -0.6984
  557MOL0     C75099   8.954   1.021   0.188 -0.5764 -0.0374  0.3096
  557MOL0     C75100   8.869   1.013   0.057  0.0509  0.5609 -0.2516
  557MOL0     C75101   8.717   1.025   0.097  0.5166  0.3068  0.5704
  557MOL0     C75102   8.666   0.885   0.146 -0.8326  0.0317  0.6247
  557MOL0     C75103   8.548   0.895   0.235 -0.5336  0.1248  1.5036
  557MOL0    Cl75104   8.394   0.948   0.138 -0.4765 -0.2749  0.3086
  557MOL0     C75105   9.611   1.123   0.338 -0.6733 -0.1645 -0.5715
  557MOL0     C75106   9.748   1.145   0.314  0.3335  0.1954  0.2124
  557MOL0     O75107   9.967   0.958   0.311 -0.5791 -0.6457 -0.1612
  557MOL0     C75108  10.205   1.098   0.080  0.5997 -0.0106  0.1611
  557MOL0     C75109  10.341   1.087   0.048 -0.3790 -0.1865  0.4521
  557MOL0     N75110  11.189   0.894   0.209 -0.1251 -0.2309 -0.4933
  557MOL0     N75111  11.224   0.873   0.334 -0.3092 -1.0413 -0.0439
  557MOL0     C75112  11.271   0.620   1.577  0.0920 -0.1854  0.4257
  557MOL0     C75113  11.323   0.703   1.682  0.4975  0.6274  0.1603
  557MOL0     C75114  11.469   1.106   1.905 -0.2721 -0.1279  0.0893
  557MOL0     C75115  11.609   1.058   1.916 -0.5814 -0.0211  0.0145
  557MOL0     C75116  11.700   1.106   1.999 -0.5495 -1.4013 -0.6365
  557MOL0     C75117  11.659   1.219   2.087 -0.5362 -0.3792  0.1601
  557MOL0     O75118  11.759   1.236   2.183  0.5296 -0.3726 -0.5312
  557MOL0     C75119  11.719   1.297   2.310  0.0894  0.0544  0.3837
  557MOL0     C75120  11.840   1.319   2.399 -0.8257 -1.0029  0.0226
  557MOL0     C75121  11.948   1.404   2.334  0.5789 -1.1336 -0.2405
  557MOL0     C75122  11.927   1.546   2.358  0.6713  0.1147 -0.3942
  557MOL0     C75123  11.798   1.614   2.338 -0.0676  0.2929  0.0767
  557MOL0     C75124  11.701   1.683   2.329 -0.2873  1.5406 -0.2333
  557MOL0     C75125  11.531   1.262   2.087  0.4548 -0.5682  0.2852
  557MOL0     C75126  11.441   1.215   1.994 -0.2469 -0.2763  0.6693
  557MOL0     C75127  11.301   1.271   2.012 -0.3800  0.4987  0.0752
  557MOL0     H75128  11.270   0.998   1.533 -0.2386  0.1930 -0.2702
  557MOL0     H75129  11.196   0.857   1.350 -3.0913  0.8740  1.3783
  557MOL0     H75130  11.098   0.717   1.255  1.8171  1.4869  1.9673
  557MOL0     H75131  11.254   0.679   1.189 -1.9963  1.2925 -1.8489
  557MOL0     H75132  11.014   0.490   1.189  0.4855  3.5070  3.1609
  557MOL0     H75133  11.171   0.449   1.121  1.6599  0.4534 -1.7683
  557MOL0     H75134  11.161   0.670   0.983  0.1192 -0.8387  0.7825
  557MOL0     H75135  10.985   0.666   1.036  0.5856  1.7539  0.3548
  557MOL0     H75136  11.150   0.442   0.875 -2.1230 -2.0109 -1.0096
  557MOL0     H75137  10.993   0.420   0.947 -2.3342  2.9780  0.6065
  557MOL0     H75138  11.016   0.478   0.693 -3.2834 -0.2317 -0.0640
  557MOL0     H75139  10.896   0.578   0.769  1.6878  2.7920 -2.0386
  557MOL0     H75140  11.029   0.768   0.778 -0.1504 -1.3853  0.8317
  557MOL0     H75141  11.170   0.667   0.759 -1.2965 -0.6052  2.2198
  557MOL0     H75142  10.975   0.684   0.537  1.3814 -2.0557 -1.2907
  557MOL0     H75143  11.141   0.628   0.540  0.9365  0.8851 -0.4472
  557MOL0     H75144  11.013   0.911   0.564 -0.1395  0.1196  1.4476
  557MOL0     H75145  11.199   0.868   0.587  0.2160 -1.6868 -1.1005
  557MOL0     H75146  10.897   0.890   0.346 -0.5670 -1.7645 -0.3154
  557MOL0     H75147  11.064   0.987   0.004  2.2866 -0.7290  2.1752
  557MOL0     H75148  10.988   0.834   0.008 -0.5290  0.8769  1.0243
  557MOL0     H75149  10.795   0.945   0.168 -1.2199 -0.4666 -0.0690
  557MOL0     H75150  10.866   1.095   0.113  1.9661  0.0076 -0.1575
  557MOL0     H75151  10.750   0.876  -0.072 -1.7482  0.9157 -0.1685
  557MOL0     H75152  10.822   1.026  -0.130  1.2068  1.2334  2.1425
  557MOL0     H75153  10.567   1.041  -0.113  1.1297 -1.1966 -0.5665
  557MOL0     H75154  10.629   1.137   0.023  0.4756 -0.0192  2.1847
  557MOL0     H75155  10.459   0.896   0.282 -1.2665 -1.1425  1.5582
  557MOL0     H75156  10.201   0.926   0.362 -2.4807 -1.4917 -1.4980
  557MOL0     H75157   9.761   1.108  -0.018  3.5618  0.2961  1.0917
  557MOL0     H75158   9.502   1.103   0.020 -0.1535 -0.3327  0.6140
  557MOL0     H75159   9.362   0.920   0.221 -3.4484 -0.5312 -0.0208
  557MOL0     H75160   9.363   0.962   0.397  4.1578  1.7058 -0.5109
  557MOL0     H75161   9.133   0.909   0.344 -2.0417  0.6203 -0.5952
  557MOL0     H75162   9.149   1.080   0.365 -1.6604 -0.4747  1.0860
  557MOL0     H75163   9.137   1.116   0.133  0.4578  0.2259  3.7490
  557MOL0     H75164   9.145   0.942   0.087  1.2320 -1.7517  1.0055
  557MOL0     H75165   8.925   1.118   0.230  0.7938  0.7929 -0.5917
  557MOL0     H75166   8.940   0.942   0.263  3.3707  1.7329  3.3071
  557MOL0     H75167   8.898   0.921   0.006  1.6430  3.3540 -5.0582
  557MOL0     H75168   8.891   1.103  -0.002  1.2857 -0.1638 -0.9454
  557MOL0     H75169   8.700   1.098   0.177  0.2479  1.0273 -0.1370
  557MOL0     H75170   8.661   1.058   0.009  1.7305 -1.4543 -0.9204
  557MOL0     H75171   8.749   0.836   0.196 -0.1797  0.9978  0.5043
  557MOL0     H75172   8.641   0.825   0.057  0.8621 -0.6466  0.5712
  557MOL0     H75173   8.524   0.797   0.277 -1.1330 -0.7329 -0.7409
  557MOL0     H75174   8.573   0.960   0.320  1.7668  0.1008  0.9338
  557MOL0     H75175   9.563   1.119   0.435  1.2343 -0.2404  0.4046
  557MOL0     H75176   9.827   1.171   0.383  0.5201  0.7510 -0.2069
  557MOL0     H75177  10.139   1.163   0.023  0.9645 -0.0173 -0.2765
  557MOL0     H75178  10.367   1.125  -0.050 -2.1221  0.2150  0.1192
  557MOL0     H75179  11.261   0.513   1.590 -0.5618 -0.2361 -0.4206
  557MOL0     H75180  11.366   0.670   1.776 -2.1014  0.6928  1.4683
  557MOL0     H75181  11.646   0.974   1.858  1.2519  0.9700 -0.3280
  557MOL0     H75182  11.801   1.065   2.000  0.2505  0.4758 -0.9508
  557MOL0     H75183  11.656   1.243   2.381 -0.3945  2.5104  1.9513
  557MOL0     H75184  11.670   1.391   2.284  0.7162  0.9308  2.2540
  557MOL0     H75185  11.876   1.219   2.426 -0.1382 -0.4734  1.1505
  557MOL0     H75186  11.819   1.362   2.497  0.1459  1.2532 -0.6764
  557MOL0     H75187  11.954   1.382   2.227  2.1674 -2.7139  0.1311
  557MOL0     H75188  12.042   1.371   2.379  1.1808 -0.0218 -0.6376
  557MOL0     H75189  11.953   1.561   2.464 -0.5042 -1.5525  0.1719
  557MOL0     H75190  11.991   1.605   2.292 -0.0632  1.5412  0.1035
  557MOL0     H75191  11.626   1.756   2.307 -2.2642 -0.3962 -0.2343
  557MOL0     H75192  11.499   1.335   2.161 -2.2661  1.4494 -2.5831
  557MOL0     H75193  11.280   1.306   1.910  3.3042  0.0431 -1.0114
  557MOL0     H75194  11.225   1.202   2.049 -0.6841  1.1988  0.7758
  557MOL0     H75195  11.297   1.357   2.080 -1.0917  1.5953 -1.2840
  558MOL0     O75196   4.238   7.570  10.488 -0.7872  0.1846 -0.7768
  558MOL0     C75197   4.212   7.448  10.498  1.2645  0.0955  0.1666
  558MOL0     O75198   4.276   7.356  10.565 -0.0229  0.0738  0.1416
  558MOL0     C75199   4.385   7.376  10.655 -0.4331 -0.3668 -0.0619
  558MOL0     C75200   4.420   7.263  10.724 -0.1794  0.5688 -0.9428
  558MOL0     C75201   4.541   7.257  10.784  0.2012  1.0805 -0.9382
  558MOL0     C75202   4.638   7.356  10.766 -0.5604 -0.1986 -0.3190
  558MOL0     O75203   4.774   7.339  10.792  0.3323 -0.0582  0.5980
  558MOL0     C75204   4.799   7.270  10.912 -0.1852  0.6347 -0.7419
  558MOL0     C75205   4.747   7.349  11.038 -0.3951  0.3534 -0.1115
  558MOL0     C75206   4.802   7.497  11.043  0.3099 -1.2319  0.6965
  558MOL0     C75207   4.717   7.606  11.109 -0.0066  0.4104 -0.7497
  558MOL0     C75208   4.587   7.659  11.042 -1.1068  0.5839 -0.3705
  558MOL0     C75209   4.627   7.751  10.923  0.2612  0.4380 -0.3544
  558MOL0     C75210   4.497   7.811  10.875 -0.0615  0.0818  0.7212
  558MOL0     C75211   4.525   7.904  10.752  1.4505 -0.1389 -0.0863
  558MOL0     N75212   4.403   7.961  10.708  0.8457  0.7859  0.6107
  558MOL0     C75213   4.327   7.915  10.596  1.2961  0.0216  0.1989
  558MOL0     C75214   4.217   7.991  10.591  0.6635  0.0712 -0.8804
  558MOL0     C75215   4.106   7.972  10.497  0.9083  0.3359  0.4419
  558MOL0     C75216   4.146   7.973  10.347  0.3658  1.0414  1.7557
  558MOL0     C75217   4.030   7.912  10.264  0.1035 -0.9946 -0.3952
  558MOL0     C75218   4.084   7.890  10.120  0.7356  0.2364  0.5044
  558MOL0     O75219   3.999   7.801  10.052  0.7199 -0.0736 -0.3031
  558MOL0     C75220   3.881   7.852   9.996 -0.1702 -0.1103  0.2779
  558MOL0     C75221   3.787   7.753   9.949  0.2252  0.8166  0.0204
  558MOL0     C75222   3.662   7.799   9.890  0.5170 -1.3024 -0.3841
  558MOL0     C75223   3.636   7.928   9.860 -0.7911  0.7591 -0.0644
  558MOL0     C75224   3.520   7.972   9.785  0.4607  0.6435 -1.0307
  558MOL0     O75225   3.442   7.871   9.728 -0.5702 -0.4230 -0.9745
  558MOL0     C75226   3.312   7.903   9.700 -0.2566 -0.1553 -0.6765
  558MOL0     C75227   3.256   7.854   9.584 -1.3165 -0.0805 -0.7031
  558MOL0     C75228   3.119   7.871   9.565 -0.2252  1.0781  0.8552
  558MOL0     C75229   3.039   7.941   9.656  0.1060  0.5971  0.1584
  558MOL0     O75230   2.909   7.961   9.620  0.1261 -0.4505 -0.2733
  558MOL0     C75231   2.793   7.937   9.706  1.2119  1.1086  0.2113
  558MOL0     C75232   2.683   8.033   9.651 -1.0258 -0.2030 -0.1797
  558MOL0     C75233   2.557   8.031   9.740 -0.2153  0.2991  0.8205
  558MOL0     C75234   2.457   8.122   9.675 -0.3505  0.1052  0.8143
  558MOL0     C75235   2.327   8.144   9.750  0.3249 -0.1145 -0.5650
  558MOL0     C75236   2.234   8.018   9.746 -0.5802 -0.5194  0.3142
  558MOL0     C75237   2.172   7.992   9.610 -0.1130 -0.7031 -0.0374
  558MOL0     C75238   2.018   7.966   9.626 -0.5105 -0.0430 -0.1851
  558MOL0    Cl75239   1.916   8.113   9.652  0.3205 -0.1624 -0.1338
  558MOL0     C75240   3.099   7.987   9.770 -0.1907  0.0995  0.0945
  558MOL0     C75241   3.233   7.965   9.794 -0.3714  1.4436  0.0727
  558MOL0     O75242   3.504   8.096   9.765 -0.2163  0.3922 -0.4028
  558MOL0     C75243   3.719   8.015   9.928  0.1280 -0.1850  0.0290
  558MOL0     C75244   3.840   7.978   9.986 -0.3365 -0.6272 -0.2490
  558MOL0     N75245   4.225   8.085  10.703 -0.2346 -0.1044  0.9303
  558MOL0     N75246   4.340   8.071  10.760  0.9483  0.7822 -0.1290
  558MOL0     C75247   4.605   7.474  10.693  0.1578  0.2009  0.6699
  558MOL0     C75248   4.478   7.483  10.640 -0.4881 -0.4529  0.0251
  558MOL0     C75249   4.103   7.401  10.410  0.0607  0.4856  0.2826
  558MOL0     C75250   4.071   7.487  10.297 -0.5506  0.5244  0.8756
  558MOL0     C75251   3.973   7.459  10.199  0.3556  0.1252 -0.7168
  558MOL0     C75252   3.914   7.330  10.208  0.7074 -0.8458  0.1484
  558MOL0     O75253   3.831   7.264  10.115 -0.5027  0.0667  0.4166
  558MOL0     C75254   3.768   7.359  10.030 -0.1670  0.8686 -0.0563
  558MOL0     C75255   3.671   7.293   9.932  0.0542  1.2238  1.1536
  558MOL0     C75256   3.649   7.382   9.807  0.6290 -0.1855 -1.0280
  558MOL0     C75257   3.562   7.316   9.699  0.3163  0.9326  0.7363
  558MOL0     C75258   3.490   7.407   9.617 -0.0757  0.5533  0.1449
  558MOL0     C75259   3.419   7.471   9.544  0.7010  0.4167  0.3287
  558MOL0     C75260   3.941   7.245  10.316 -0.5123 -0.2182  0.4455
  558MOL0     C75261   4.020   7.279  10.425 -0.8150  0.1569  0.0873
  558MOL0     C75262   4.040   7.185  10.540 -0.2870 -0.2740  0.0605
  558MOL0     H75263   4.349   7.182  10.738  2.4570 -1.3676  3.7850
  558MOL0     H75264   4.564   7.172  10.848  0.8021  1.2160 -0.9646
  558MOL0     H75265   4.759   7.168  10.914 -3.0427  1.6927 -0.5266
  558MOL0     H75266   4.905   7.265  10.939 -0.4590  1.8279  0.6699
  558MOL0     H75267   4.775   7.301  11.132 -1.4266 -1.0006 -0.4665
  558MOL0     H75268   4.638   7.353  11.030 -0.5721 -2.7747 -0.4153
  558MOL0     H75269   4.822   7.535  10.942  0.5136  2.2889  1.9359
  558MOL0     H75270   4.901   7.503  11.089  0.0619  4.9710  1.2092
  558MOL0     H75271   4.690   7.563  11.206 -0.2575  0.0010 -1.0002
  558MOL0     H75272   4.788   7.688  11.123 -0.1650  0.7774 -1.9674
  558MOL0     H75273   4.526   7.571  11.022  2.0615 -1.7871 -0.3438
  558MOL0     H75274   4.542   7.717  11.123  0.4114 -2.2877  2.7471
  558MOL0     H75275   4.707   7.823  10.944  0.1851  1.5557 -3.3774
  558MOL0     H75276   4.663   7.683  10.846 -0.2964  0.6106 -0.7692
  558MOL0     H75277   4.460   7.874  10.957  0.2505  2.0401 -0.5788
  558MOL0     H75278   4.421   7.740  10.843 -1.1275  0.9771  1.2154
  558MOL0     H75279   4.593   7.988  10.770  3.0026 -1.9540  3.8159
  558MOL0     H75280   4.561   7.853  10.662  0.6096  0.4012 -0.7370
  558MOL0     H75281   4.355   7.841  10.523  3.6427 -1.0223  2.0077
  558MOL0     H75282   4.062   7.875  10.525  3.6146 -1.0595  0.2205
  558MOL0     H75283   4.025   8.045  10.502 -0.3130 -0.8799 -0.7828
  558MOL0     H75284   4.166   8.074  10.309  1.5481 -0.1031 -0.9459
  558MOL0     H75285   4.233   7.906  10.344  0.7307  1.5196  0.0388
  558MOL0     H75286   3.946   7.982  10.263  0.6716 -0.2839  0.6924
  558MOL0     H75287   3.992   7.817  10.303 -1.1536 -0.6868 -0.8311
  558MOL0     H75288   4.186   7.852  10.109  0.6718 -1.5378  4.5399
  558MOL0     H75289   4.082   7.985  10.064 -0.4634 -0.9794 -1.6736
  558MOL0     H75290   3.812   7.648   9.961 -1.5871 -0.1194 -3.3682
  558MOL0     H75291   3.599   7.721   9.849 -2.3530  0.6089  0.0866
  558MOL0     H75292   3.307   7.796   9.507  0.0221  2.0072 -1.4718
  558MOL0     H75293   3.072   7.813   9.487 -0.1393  1.2286  0.6928
  558MOL0     H75294   2.757   7.836   9.687  1.6943  1.2315 -1.5479
  558MOL0     H75295   2.816   7.957   9.811 -0.7580  2.9051  0.3685
  558MOL0     H75296   2.721   8.136   9.655  0.2228 -0.6790  1.3519
  558MOL0     H75297   2.656   8.020   9.546 -1.9754  0.5639 -0.0355
  558MOL0     H75298   2.518   7.930   9.726 -2.2220  1.3710 -2.4123
  558MOL0     H75299   2.589   8.044   9.844  3.1390 -0.2466 -0.0059
  558MOL0     H75300   2.442   8.096   9.570  0.7358 -3.3046  1.3751
  558MOL0     H75301   2.508   8.217   9.661 -0.2417  0.8513  4.9367
  558MOL0     H75302   2.289   8.235   9.702  0.3849 -0.7666 -1.9039
  558MOL0     H75303   2.354   8.170   9.852  0.4907 -0.8980 -0.4023
  558MOL0     H75304   2.287   7.930   9.784  1.1359 -0.8572 -2.5225
  558MOL0     H75305   2.146   8.042   9.806  0.2259 -0.1640  1.3876
  558MOL0     H75306   2.217   7.899   9.573 -0.3873 -0.5690 -0.7294
  558MOL0     H75307   2.185   8.074   9.539 -2.1767  1.7447  2.2124
  558MOL0     H75308   1.982   7.916   9.536 -0.2432 -1.1307  0.2918
  558MOL0     H75309   2.006   7.903   9.715  0.0210  2.7831  2.0171
  558MOL0     H75310   3.050   8.046   9.847 -1.2747 -1.2612  0.4692
  558MOL0     H75311   3.272   8.001   9.889 -1.5514  0.5923  0.9099
  558MOL0     H75312   3.712   8.123   9.935 -1.9778 -0.2554 -0.2894
  558MOL0     H75313   3.898   8.062  10.023 -1.0609 -0.6292  0.9302
  558MOL0     H75314   4.675   7.556  10.683  0.2113  0.2383  1.3116
  558MOL0     H75315   4.447   7.572  10.586 -1.6100  0.5554  2.2272
  558MOL0     H75316   4.109   7.588  10.285 -1.1667  0.7486  0.7557
  558MOL0     H75317   3.963   7.532  10.120 -2.0950  1.5074  0.7206
  558MOL0     H75318   3.851   7.403   9.974  0.4771 -1.3699 -1.0067
  558MOL0     H75319   3.722   7.443  10.082  1.7474  2.4550 -0.7840
  558MOL0     H75320   3.580   7.256   9.980  0.9462 -3.6047 -0.3900
  558MOL0     H75321   3.719   7.200   9.903 -0.7600  0.4148  2.2828
  558MOL0     H75322   3.746   7.413   9.769  0.9468  0.1847  0.0446
  558MOL0     H75323   3.589   7.469   9.837 -0.9347  0.4969 -5.4475
  558MOL0     H75324   3.630   7.254   9.639 -0.5140 -0.8035  1.5306
  558MOL0     H75325   3.499   7.241   9.748  1.5933 -0.8309 -0.1789
  558MOL0     H75326   3.359   7.520   9.469 -2.2258 -2.9386  0.2298
  558MOL0     H75327   3.873   7.162  10.301 -3.7397  1.9961  1.7092
  558MOL0     H75328   4.015   7.249  10.625  0.6669  1.0354 -0.6130
  558MOL0     H75329   3.981   7.093  10.541 -0.5189 -0.1316 -0.5211
  558MOL0     H75330   4.141   7.146  10.556  0.1985  0.9063 -0.0108
  559MOL0     O75331   8.852   7.149   3.109  0.1281  0.5711  0.0432
  559MOL0     C75332   8.836   7.121   2.990 -0.1483  0.6021 -0.0757
  559MOL0     O75333   8.883   7.206   2.892  0.1827 -0.2187 -0.6382
  559MOL0     C75334   8.944   7.331   2.927  0.5288  0.4793 -1.1556
  559MOL0     C75335   8.896   7.456   2.894  0.3958 -0.0862 -0.0802
  559MOL0     C75336   8.952   7.584   2.929 -0.4633  0.3150 -0.1865
  559MOL0     C75337   9.062   7.582   3.015 -1.0345  0.1111  0.8483
  559MOL0     O75338   9.128   7.685   3.063  0.5459  0.7223  0.2540
  559MOL0     C75339   9.146   7.794   2.984 -0.2366  0.6758 -0.0239
  559MOL0     C75340   9.063   7.904   3.031 -0.6703  0.6969 -0.0298
  559MOL0     C75341   9.056   8.009   2.924 -0.5276 -1.6567  0.5310
  559MOL0     C75342   8.975   8.131   2.969  0.0906  0.6306  0.1866
  559MOL0     C75343   8.952   8.237   2.852 -0.4162  0.8228 -0.0103
  559MOL0     C75344   8.897   8.369   2.918 -0.1537  0.3414  1.1761
  559MOL0     C75345   8.875   8.482   2.810  0.4725 -0.1652 -0.8439
  559MOL0     C75346   8.803   8.604   2.875 -0.2833 -0.4565 -0.7977
  559MOL0     N75347   8.871   8.651   3.000  1.2312 -0.0252  0.6327
  559MOL0     C75348   8.979   8.721   3.016 -0.5730  0.0790  0.9007
  559MOL0     C75349   9.003   8.705   3.151 -0.3273  0.0956 -0.0287
  559MOL0     C75350   9.098   8.782   3.231 -0.6727 -0.6344  0.1857
  559MOL0     C75351   9.244   8.765   3.182  0.0623 -0.0297  0.5279
  559MOL0     C75352   9.338   8.842   3.278  0.3006  0.7126 -0.7080
  559MOL0     C75353   9.335   8.990   3.274 -0.6042 -0.6733  1.4048
  559MOL0     O75354   9.382   9.042   3.146 -0.2616  0.1921 -0.2368
  559MOL0     C75355   9.390   9.179   3.140  0.1038 -0.1810  0.9211
  559MOL0     C75356   9.389   9.277   3.241  0.4614 -0.4356 -0.3850
  559MOL0     C75357   9.426   9.415   3.213 -0.3255 -0.6999 -0.0345
  559MOL0     C75358   9.468   9.454   3.089 -0.2769 -0.6104  0.0547
  559MOL0     C75359   9.521   9.586   3.070 -0.8089 -0.8579  0.4307
  559MOL0     O75360   9.605   9.614   2.962 -0.0321  0.0026 -0.2351
  559MOL0     C75361   9.612   9.741   2.913  0.2451 -0.5286 -0.7750
  559MOL0     C75362   9.688   9.845   2.969  0.1587 -0.5450 -0.5206
  559MOL0     C75363   9.697   9.970   2.912 -0.7667 -0.2083  0.1155
  559MOL0     C75364   9.653   9.984   2.775  0.1800  0.3427  0.7602
  559MOL0     O75365   9.696  10.108   2.718 -0.2961  0.7343 -0.1632
  559MOL0     C75366   9.619  10.154   2.598 -0.7430  0.2634  0.2729
  559MOL0     C75367   9.474  10.205   2.626 -0.7220  0.5271 -0.6541
  559MOL0     C75368   9.451  10.291   2.751  0.5111  0.5452  0.2294
  559MOL0     C75369   9.532  10.420   2.752  0.0572  0.1569 -0.4590
  559MOL0     C75370   9.483  10.499   2.872  0.4582 -0.8239  0.2239
  559MOL0     C75371   9.529  10.441   3.013 -0.3118  0.0081  1.0468
  559MOL0     C75372   9.487  10.540   3.124 -1.0228  0.9337  0.7069
  559MOL0     C75373   9.454  10.462   3.251  0.4909 -0.6545 -0.2399
  559MOL0    Cl75374   9.595  10.347   3.288 -0.4728 -0.2264  0.5255
  559MOL0     C75375   9.580   9.876   2.714 -1.0499  0.3847 -0.0081
  559MOL0     C75376   9.551   9.755   2.786  0.1643  0.0509 -0.4323
  559MOL0     O75377   9.499   9.673   3.151  0.9541  0.5355 -0.8367
  559MOL0     C75378   9.464   9.359   2.990 -1.2657  0.4588  0.1638
  559MOL0     C75379   9.427   9.222   3.007 -0.1972  0.4538 -0.5072
  559MOL0     N75380   8.892   8.647   3.209  0.0052 -0.5663 -0.5086
  559MOL0     N75381   8.809   8.624   3.120  0.1678 -0.6007  0.3899
  559MOL0     C75382   9.112   7.462   3.053 -0.1419  0.7077  0.4373
  559MOL0     C75383   9.062   7.337   3.007 -0.1583  0.0840 -0.9390
  559MOL0     C75384   8.781   6.993   2.957 -0.2968  0.8796 -0.3155
  559MOL0     C75385   8.703   6.919   3.054 -0.0227 -0.6285 -0.0829
  559MOL0     C75386   8.649   6.795   3.019 -1.0360 -0.3168 -0.4789
  559MOL0     C75387   8.661   6.744   2.889  0.7950  0.7084  0.2544
  559MOL0     O75388   8.580   6.631   2.856  0.9458 -0.3805 -0.1164
  559MOL0     C75389   8.548   6.594   2.727 -0.3149  0.2336  0.3768
  559MOL0     C75390   8.398   6.628   2.702 -0.4519  0.3864  0.1352
  559MOL0     C75391   8.312   6.510   2.659  0.0984  0.1543  0.0082
  559MOL0     C75392   8.173   6.533   2.679  0.6847  0.1065 -0.3212
  559MOL0     C75393   8.147   6.492   2.818  0.0698  0.2041  0.1602
  559MOL0     C75394   8.103   6.454   2.922 -0.0265 -0.3867 -0.0605
  559MOL0     C75395   8.757   6.806   2.810 -0.0384 -0.0025  0.7494
  559MOL0     C75396   8.818   6.930   2.836  0.3896  1.1778 -0.1910
  559MOL0     C75397   8.909   6.980   2.730 -0.2899 -0.5210 -0.4297
  559MOL0     H75398   8.808   7.463   2.831 -0.3082  0.3746  0.9174
  559MOL0     H75399   8.892   7.671   2.903 -0.5434  0.7122  1.2037
  559MOL0     H75400   9.254   7.812   2.987  0.2698 -2.1075  0.5613
  559MOL0     H75401   9.112   7.786   2.880 -0.6180  0.6550  0.1012
  559MOL0     H75402   9.090   7.940   3.131 -0.3941 -0.4951  0.3329
  559MOL0     H75403   8.961   7.875   3.054  0.3506 -3.7416 -0.3175
  559MOL0     H75404   9.011   7.968   2.834  1.0247  1.9514 -2.1654
  559MOL0     H75405   9.157   8.047   2.903 -1.3458  0.3947  0.0925
  559MOL0     H75406   8.873   8.102   2.997  0.6256 -0.3913  1.1358
  559MOL0     H75407   9.014   8.178   3.059  0.1710  1.4569 -0.2699
  559MOL0     H75408   9.051   8.261   2.813 -0.6288  1.3739 -0.2170
  559MOL0     H75409   8.884   8.208   2.771  3.2686 -0.8745 -2.7656
  559MOL0     H75410   8.804   8.336   2.965 -0.7336  1.0143  0.5328
  559MOL0     H75411   8.978   8.401   2.984 -0.0474  0.0341  1.1976
  559MOL0     H75412   8.817   8.450   2.722  1.4863  0.9535 -1.9659
  559MOL0     H75413   8.972   8.517   2.774  1.1126  0.9609  1.7562
  559MOL0     H75414   8.806   8.682   2.798  0.9464 -2.7104 -3.2300
  559MOL0     H75415   8.697   8.591   2.897  0.1384 -0.0054  1.7506
  559MOL0     H75416   9.030   8.780   2.941  0.0097 -1.5588 -0.0458
  559MOL0     H75417   9.071   8.888   3.231  0.3646 -0.2647 -2.8093
  559MOL0     H75418   9.083   8.750   3.334 -0.0766 -1.5980 -0.0125
  559MOL0     H75419   9.266   8.658   3.183 -0.0995 -0.0717  0.0503
  559MOL0     H75420   9.254   8.810   3.082 -0.3557  2.7355  1.6346
  559MOL0     H75421   9.440   8.815   3.252 -0.0705  2.1012 -4.1250
  559MOL0     H75422   9.324   8.805   3.380 -0.5007  0.2764 -0.9623
  559MOL0     H75423   9.400   9.021   3.356  1.4246 -0.6987 -0.1382
  559MOL0     H75424   9.233   9.023   3.299 -1.1579 -1.6874  0.5843
  559MOL0     H75425   9.361   9.257   3.344 -0.0276 -0.8862 -0.5981
  559MOL0     H75426   9.416   9.485   3.295 -0.1707 -0.3113 -0.3418
  559MOL0     H75427   9.736   9.846   3.067  0.3761  1.8954 -0.5962
  559MOL0     H75428   9.745  10.054   2.960 -2.5987  0.5995  0.6198
  559MOL0     H75429   9.682  10.237   2.565 -2.0662  0.2223 -2.5654
  559MOL0     H75430   9.611  10.086   2.513 -0.9035  2.7776 -1.8395
  559MOL0     H75431   9.419  10.253   2.544 -0.8847 -0.1240 -0.9307
  559MOL0     H75432   9.415  10.116   2.649 -1.0042  0.9390  0.2831
  559MOL0     H75433   9.343  10.301   2.738  0.2485 -1.5474  0.3897
  559MOL0     H75434   9.466  10.229   2.840  1.1442 -1.0310 -0.9170
  559MOL0     H75435   9.509  10.486   2.668  1.2004 -0.7187 -1.4774
  559MOL0     H75436   9.637  10.393   2.757  0.3351  1.3733  2.0787
  559MOL0     H75437   9.375  10.508   2.858  0.6477  0.2957 -0.6469
  559MOL0     H75438   9.520  10.602   2.873 -1.9769  0.2539 -3.4288
  559MOL0     H75439   9.483  10.342   3.023  2.0456 -1.5234 -1.7630
  559MOL0     H75440   9.638  10.445   3.021 -0.1956  5.3192  0.5164
  559MOL0     H75441   9.398  10.593   3.089 -1.0440 -0.4253 -1.4889
  559MOL0     H75442   9.566  10.615   3.134  0.2655  0.1084 -2.1724
  559MOL0     H75443   9.425  10.527   3.334  1.5484 -3.6619  2.6942
  559MOL0     H75444   9.364  10.408   3.221 -1.9652  0.7056  3.8562
  559MOL0     H75445   9.551   9.881   2.609  1.4103 -1.5485 -0.8710
  559MOL0     H75446   9.486   9.675   2.755 -1.6787  0.6753  1.6029
  559MOL0     H75447   9.500   9.390   2.893 -2.3213  3.0123  0.5054
  559MOL0     H75448   9.412   9.160   2.919  1.0356 -0.9811  0.2462
  559MOL0     H75449   9.198   7.459   3.120  2.2799  1.1112 -2.4325
  559MOL0     H75450   9.095   7.243   3.050 -0.9511 -0.2371 -1.0140
  559MOL0     H75451   8.674   6.964   3.148  1.6513  1.9683 -0.7113
  559MOL0     H75452   8.587   6.747   3.094  0.3151 -3.2248 -1.0967
  559MOL0     H75453   8.579   6.490   2.712 -1.2349  0.2703 -2.3779
  559MOL0     H75454   8.601   6.657   2.655  1.3130 -2.1511 -0.6520
  559MOL0     H75455   8.391   6.691   2.613  2.4450 -1.6631 -1.7438
  559MOL0     H75456   8.354   6.683   2.785 -1.1828 -0.6774  0.4861
  559MOL0     H75457   8.350   6.417   2.702 -0.0436 -1.2840 -2.7713
  559MOL0     H75458   8.329   6.480   2.555 -0.0411 -0.2849  0.1081
  559MOL0     H75459   8.138   6.636   2.670 -1.9090 -0.2522  3.6022
  559MOL0     H75460   8.135   6.458   2.609 -1.2481 -0.2746  1.0540
  559MOL0     H75461   8.060   6.400   3.003 -2.6097 -0.5257 -1.4233
  559MOL0     H75462   8.788   6.750   2.723  0.7175 -0.5255  1.3402
  559MOL0     H75463   9.008   6.997   2.772 -1.3312  0.5499  1.7866
  559MOL0     H75464   8.909   6.919   2.639 -1.1641  1.0237 -1.5264
  559MOL0     H75465   8.872   7.080   2.704 -2.4965 -0.7958  1.2998
  560MOL0     O75466   9.758   1.554   8.793 -0.2158 -0.0915 -0.1024
  560MOL0     C75467   9.653   1.490   8.828  0.3176  0.2266 -0.9786
  560MOL0     O75468   9.633   1.357   8.809 -0.2687  0.4512 -0.4000
  560MOL0     C75469   9.742   1.275   8.779 -0.1477  0.3312  0.5740
  560MOL0     C75470   9.831   1.256   8.882  0.8090 -0.0548  0.3897
  560MOL0     C75471   9.935   1.172   8.865  0.4782  1.1002  0.8850
  560MOL0     C75472   9.952   1.101   8.741  0.3165  0.5813 -0.2778
  560MOL0     O75473  10.065   1.026   8.703  0.3239  0.4507 -0.4893
  560MOL0     C75474  10.152   0.995   8.810  1.1510  0.3723 -0.4358
  560MOL0     C75475  10.254   0.904   8.751  0.4386  0.5455 -0.4195
  560MOL0     C75476  10.322   0.800   8.846  0.4319  0.0395 -0.0701
  560MOL0     C75477  10.262   0.654   8.823 -0.6967 -0.1180 -0.1624
  560MOL0     C75478  10.131   0.661   8.897  0.2448 -0.4731  0.7426
  560MOL0     C75479  10.064   0.525   8.900 -0.8565  0.3506 -0.3224
  560MOL0     C75480   9.920   0.539   8.957  0.1692  0.0836  0.2076
  560MOL0     C75481   9.848   0.408   9.000 -0.1474 -0.4044 -0.7676
  560MOL0     N75482   9.726   0.456   9.081  0.0819  0.7213  0.2968
  560MOL0     C75483   9.595   0.478   9.028  0.4329 -0.4665  0.7669
  560MOL0     C75484   9.522   0.511   9.135  0.3196  0.6550  0.2136
  560MOL0     C75485   9.375   0.517   9.133 -0.1841  0.6962 -2.0866
  560MOL0     C75486   9.322   0.454   9.261  0.1131  0.2807  0.5761
  560MOL0     C75487   9.294   0.310   9.240  0.3049 -0.1325 -1.1691
  560MOL0     C75488   9.412   0.219   9.208 -0.0017 -0.1360  0.6983
  560MOL0     O75489   9.431   0.221   9.061  1.0246  0.4524 -0.1555
  560MOL0     C75490   9.532   0.141   9.009 -0.0293 -0.2596 -0.5119
  560MOL0     C75491   9.623   0.051   9.072  0.4132  0.2013  0.0995
  560MOL0     C75492   9.720  -0.017   8.998  0.2633 -0.1236  0.5118
  560MOL0     C75493   9.734   0.011   8.855  0.3641  0.1291 -0.3364
  560MOL0     C75494   9.840  -0.058   8.788  0.0977 -0.6400  0.5867
  560MOL0     O75495   9.914  -0.133   8.865  0.3741 -0.2635 -0.1709
  560MOL0     C75496  10.038  -0.192   8.824  0.3369  0.4317 -0.1387
  560MOL0     C75497  10.071  -0.232   8.698 -0.3615  0.1138  0.5553
  560MOL0     C75498  10.202  -0.258   8.657 -0.5302 -0.1844 -0.5309
  560MOL0     C75499  10.304  -0.265   8.754  0.3098  0.9927  0.0732
  560MOL0     O75500  10.430  -0.304   8.722  0.2437  0.6088 -0.4984
  560MOL0     C75501  10.535  -0.295   8.816 -0.0322 -0.6488  0.2757
  560MOL0     C75502  10.652  -0.393   8.780 -0.8217  0.2903 -0.0022
  560MOL0     C75503  10.622  -0.542   8.755  0.8387  0.1408  0.3175
  560MOL0     C75504  10.735  -0.603   8.661 -0.1782  0.2761 -0.2549
  560MOL0     C75505  10.690  -0.741   8.617  0.4848 -0.3397  0.9843
  560MOL0     C75506  10.777  -0.807   8.512 -0.2742  0.1980  0.0539
  560MOL0     C75507  10.708  -0.931   8.474  0.5893 -0.3646  0.6211
  560MOL0     C75508  10.803  -1.031   8.415 -0.3059 -0.4022 -0.0099
  560MOL0    Cl75509  10.738  -1.188   8.360 -0.3781 -0.7417 -0.0502
  560MOL0     C75510  10.273  -0.214   8.880  0.7283 -0.2731 -0.4595
  560MOL0     C75511  10.138  -0.180   8.911 -1.1042  0.2954 -1.1694
  560MOL0     O75512   9.866  -0.037   8.672  0.2007 -0.4126 -0.1946
  560MOL0     C75513   9.661   0.102   8.796  0.2507  0.0320 -0.3860
  560MOL0     C75514   9.550   0.169   8.868 -0.1928 -0.5153  0.1915
  560MOL0     N75515   9.596   0.496   9.250  0.0802 -0.5383 -0.8845
  560MOL0     N75516   9.716   0.460   9.216 -0.2836  0.3771  0.2901
  560MOL0     C75517   9.847   1.116   8.642  0.4702 -0.6670 -0.2264
  560MOL0     C75518   9.743   1.209   8.657  0.2268 -0.0522  0.3818
  560MOL0     C75519   9.554   1.566   8.915 -0.9208  1.1399 -0.1951
  560MOL0     C75520   9.541   1.697   8.886  0.2015 -0.6049 -0.5893
  560MOL0     C75521   9.474   1.783   8.975 -0.3653 -0.5519 -0.4468
  560MOL0     C75522   9.392   1.738   9.076  0.4394  0.6995 -0.1487
  560MOL0     O75523   9.309   1.807   9.157 -0.6396  0.3017 -0.3740
  560MOL0     C75524   9.256   1.941   9.112 -0.2224  0.3918  0.3467
  560MOL0     C75525   9.160   1.913   8.996 -1.6667 -0.1460  0.3342
  560MOL0     C75526   9.013   1.907   9.031  0.1916 -0.1924 -0.3789
  560MOL0     C75527   8.978   1.819   9.157  0.1766 -0.4462  0.8043
  560MOL0     C75528   8.842   1.839   9.199  0.4493 -0.3235  0.5508
  560MOL0     C75529   8.726   1.839   9.244  0.7738 -0.1729 -0.2064
  560MOL0     C75530   9.410   1.603   9.107  0.1070 -0.4129  0.7630
  560MOL0     C75531   9.487   1.512   9.030  0.9041  0.0880 -0.4658
  560MOL0     C75532   9.506   1.371   9.067 -1.0767  0.5320 -0.7740
  560MOL0     H75533   9.819   1.303   8.980  0.7129 -0.4529  0.5689
  560MOL0     H75534  10.002   1.162   8.949  1.3734 -1.3478 -0.0467
  560MOL0     H75535  10.204   1.083   8.847  1.2818  1.3812 -2.8269
  560MOL0     H75536  10.105   0.936   8.889  1.3675 -0.3239 -0.8160
  560MOL0     H75537  10.346   0.951   8.714  0.3084  0.0501 -1.3877
  560MOL0     H75538  10.209   0.859   8.662  2.4695  1.1708 -1.8385
  560MOL0     H75539  10.308   0.821   8.953  0.8544 -3.5139  0.8063
  560MOL0     H75540  10.431   0.801   8.834  0.5075  0.6210  0.5843
  560MOL0     H75541  10.239   0.646   8.717 -0.9898  1.5178 -0.2460
  560MOL0     H75542  10.327   0.572   8.854 -1.5125 -0.9682 -0.6471
  560MOL0     H75543  10.145   0.700   8.998 -0.6854 -3.9522  2.3450
  560MOL0     H75544  10.065   0.729   8.841 -1.2773 -0.6017  2.2934
  560MOL0     H75545  10.070   0.492   8.796 -0.8165 -1.2025  0.1367
  560MOL0     H75546  10.122   0.453   8.960  0.8943  1.5205 -0.5444
  560MOL0     H75547   9.856   0.577   8.877 -0.5300  3.5753  2.2386
  560MOL0     H75548   9.908   0.611   9.038 -1.7204  1.0863 -0.9038
  560MOL0     H75549   9.815   0.345   8.917  0.1454 -2.5400  0.6341
  560MOL0     H75550   9.899   0.341   9.071 -1.7417 -0.7593  0.1058
  560MOL0     H75551   9.558   0.447   8.930 -1.0676 -0.4633  1.3094
  560MOL0     H75552   9.333   0.618   9.134 -1.2805  0.2596 -2.6400
  560MOL0     H75553   9.342   0.465   9.042  1.7867 -2.9020 -0.9387
  560MOL0     H75554   9.378   0.490   9.348  0.2809 -2.0985  1.5356
  560MOL0     H75555   9.222   0.498   9.253  0.3888  1.3155  2.3302
  560MOL0     H75556   9.228   0.301   9.153 -0.8859  0.1947 -0.3375
  560MOL0     H75557   9.236   0.268   9.324 -1.0832  0.1233 -1.9696
  560MOL0     H75558   9.392   0.116   9.241  0.1370  0.5106  2.9981
  560MOL0     H75559   9.504   0.252   9.258  1.6067 -2.2145 -0.7020
  560MOL0     H75560   9.614   0.018   9.175  0.3846  2.8262  0.9951
  560MOL0     H75561   9.791  -0.086   9.043  0.2566  1.3248  2.9616
  560MOL0     H75562   9.995  -0.230   8.620 -2.4159 -0.9459  2.4320
  560MOL0     H75563  10.221  -0.271   8.551 -0.9543 -5.0140 -0.2551
  560MOL0     H75564  10.577  -0.198   8.842  1.0009 -1.1803  0.6686
  560MOL0     H75565  10.498  -0.331   8.912 -1.1350 -0.1614  0.0504
  560MOL0     H75566  10.693  -0.351   8.688  1.3564 -2.1168 -0.2430
  560MOL0     H75567  10.730  -0.390   8.856 -2.9180  3.6360  2.3258
  560MOL0     H75568  10.607  -0.594   8.850 -0.1147 -1.0835 -0.4651
  560MOL0     H75569  10.524  -0.539   8.706 -0.7481  0.1038  3.2501
  560MOL0     H75570  10.831  -0.623   8.710 -0.8138  0.4216  1.0980
  560MOL0     H75571  10.753  -0.537   8.575  0.7492  2.8178  1.7503
  560MOL0     H75572  10.582  -0.740   8.599  0.1321 -0.2805  2.8423
  560MOL0     H75573  10.702  -0.813   8.698 -0.0409  0.0371  1.4074
  560MOL0     H75574  10.799  -0.739   8.429  4.3772 -0.5014  0.4377
  560MOL0     H75575  10.875  -0.828   8.558 -1.2776 -2.6085  1.1361
  560MOL0     H75576  10.633  -0.900   8.400  1.5283  0.4173 -0.0198
  560MOL0     H75577  10.658  -0.978   8.560 -1.5778  2.8926  1.3606
  560MOL0     H75578  10.853  -0.981   8.331 -1.5409  2.5388  0.8608
  560MOL0     H75579  10.878  -1.048   8.493 -1.3533  0.3923  1.1929
  560MOL0     H75580  10.353  -0.197   8.951 -0.1935 -1.0370  0.8148
  560MOL0     H75581  10.132  -0.133   9.009  4.0858  2.0361 -1.3591
  560MOL0     H75582   9.673   0.120   8.690 -3.4695  0.8050 -0.8159
  560MOL0     H75583   9.481   0.234   8.816 -1.5969  0.5114  3.1425
  560MOL0     H75584   9.856   1.068   8.544  1.2053  0.2412 -0.6202
  560MOL0     H75585   9.678   1.241   8.576  1.7129 -0.3997 -1.0073
  560MOL0     H75586   9.594   1.734   8.798 -2.0667  0.0149 -1.7715
  560MOL0     H75587   9.468   1.890   8.955 -1.1617  0.2542  3.2903
  560MOL0     H75588   9.331   2.012   9.076 -0.1199  0.1130  0.0116
  560MOL0     H75589   9.202   1.985   9.197 -1.1391 -0.0506  0.0034
  560MOL0     H75590   9.187   1.825   8.938 -0.6361  0.1556  0.3334
  560MOL0     H75591   9.190   1.994   8.929 -0.2535 -2.7254 -2.3498
  560MOL0     H75592   8.944   1.874   8.953 -1.5072 -2.4322  1.8995
  560MOL0     H75593   8.973   2.008   9.047  2.8890  0.5844  2.2438
  560MOL0     H75594   8.994   1.715   9.129 -0.1936 -0.2486 -0.1724
  560MOL0     H75595   9.047   1.844   9.239 -3.0430  0.9925  3.2974
  560MOL0     H75596   8.630   1.832   9.290  1.7567  1.1895  2.2946
  560MOL0     H75597   9.385   1.572   9.208 -0.8212  1.3581  1.1099
  560MOL0     H75598   9.435   1.361   9.149 -1.9858 -1.0168 -1.7019
  560MOL0     H75599   9.468   1.307   8.987  1.6349  1.1324 -2.6894
  560MOL0     H75600   9.605   1.333   9.093 -1.9996 -1.7099 -0.3038
  561MOL0     O75601   1.410   2.665   6.705  0.2331  0.1272  0.2487
  561MOL0     C75602   1.526   2.678   6.680 -0.2051  0.8350  0.4166
  561MOL0     O75603   1.589   2.625   6.573 -0.2205  0.3379 -0.7258
  561MOL0     C75604   1.556   2.651   6.446  0.0568 -0.5334 -0.0544
  561MOL0     C75605   1.441   2.727   6.398 -0.5028  0.6979 -0.5781
  561MOL0     C75606   1.417   2.738   6.258 -0.0461 -0.1955  0.1657
  561MOL0     C75607   1.494   2.660   6.166 -0.0149  0.5968  0.7224
  561MOL0     O75608   1.470   2.661   6.034 -0.5119  0.0607  0.6721
  561MOL0     C75609   1.461   2.798   5.978  0.1592  0.0212  0.4695
  561MOL0     C75610   1.458   2.786   5.828 -1.3289 -1.2007  0.5333
  561MOL0     C75611   1.344   2.712   5.778  0.3412 -0.1381  0.1673
  561MOL0     C75612   1.371   2.664   5.634  0.5006 -0.2515  0.6973
  561MOL0     C75613   1.261   2.572   5.574 -0.5137 -0.4720 -0.1934
  561MOL0     C75614   1.118   2.619   5.596  0.1852 -0.1163  0.2564
  561MOL0     C75615   1.085   2.741   5.507  0.0016  0.7621 -0.4630
  561MOL0     C75616   0.940   2.802   5.536  0.4220  0.0022 -0.1695
  561MOL0     N75617   0.913   2.843   5.682 -0.0219 -0.0080 -0.2540
  561MOL0     C75618   0.788   2.830   5.730  1.0708  0.2400 -0.0189
  561MOL0     C75619   0.778   2.879   5.860  0.1480  0.3466  0.1464
  561MOL0     C75620   0.659   2.888   5.955 -0.0525  0.2270 -0.5039
  561MOL0     C75621   0.532   2.907   5.872 -0.0780  0.6255  0.2676
  561MOL0     C75622   0.417   2.969   5.953  0.3823  0.4982  1.2968
  561MOL0     C75623   0.380   2.874   6.066 -0.5005 -0.0261 -0.0665
  561MOL0     O75624   0.256   2.906   6.118  0.6384  0.0279  0.2676
  561MOL0     C75625   0.176   2.813   6.190  0.3949 -0.2963  0.0655
  561MOL0     C75626   0.044   2.850   6.216 -0.2532  0.2918  0.3628
  561MOL0     C75627  -0.042   2.757   6.279 -0.9607  0.6992 -0.1179
  561MOL0     C75628   0.003   2.622   6.308  0.3383 -0.9501  0.6051
  561MOL0     C75629  -0.091   2.518   6.364 -0.0189 -0.4352 -0.8322
  561MOL0     O75630  -0.226   2.558   6.378 -0.0371  1.1414  0.0171
  561MOL0     C75631  -0.308   2.471   6.450  0.7764 -0.4104 -0.2744
  561MOL0     C75632  -0.357   2.354   6.400 -0.1541  0.3230  0.2342
  561MOL0     C75633  -0.446   2.279   6.479 -1.8052  0.3789  0.0405
  561MOL0     C75634  -0.463   2.309   6.615 -0.5015 -0.1046  0.4822
  561MOL0     O75635  -0.524   2.215   6.700  0.4718 -0.1200 -0.5099
  561MOL0     C75636  -0.610   2.266   6.799 -0.5033 -0.2580  1.0709
  561MOL0     C75637  -0.536   2.280   6.937 -0.2121 -0.7712  0.4544
  561MOL0     C75638  -0.485   2.153   7.008 -0.1806  0.3207  0.9662
  561MOL0     C75639  -0.591   2.074   7.073  0.1142  1.1262 -0.2614
  561MOL0     C75640  -0.543   1.954   7.171  0.0926  0.7366  0.1766
  561MOL0     C75641  -0.623   1.959   7.307 -0.1760 -0.8930 -0.5621
  561MOL0     C75642  -0.562   2.040   7.431 -0.7552 -0.6330  1.0581
  561MOL0     C75643  -0.521   2.179   7.404 -0.3638  0.2214 -0.3477
  561MOL0    Cl75644  -0.477   2.251   7.554  0.0698 -0.5913 -0.4182
  561MOL0     C75645  -0.425   2.435   6.661 -0.9573 -0.5187  0.2732
  561MOL0     C75646  -0.345   2.516   6.585  0.1473  0.9083  0.4081
  561MOL0     O75647  -0.045   2.412   6.411 -0.6477 -0.3025  0.3688
  561MOL0     C75648   0.131   2.589   6.265  0.1005  0.0872  0.3958
  561MOL0     C75649   0.220   2.680   6.215  0.6820  0.7530 -0.8002
  561MOL0     N75650   0.912   2.924   5.876  0.8558 -0.2656 -0.1665
  561MOL0     N75651   0.989   2.894   5.781 -0.7175  0.1046  0.2440
  561MOL0     C75652   1.593   2.573   6.212  0.1181 -0.3346 -0.0760
  561MOL0     C75653   1.628   2.578   6.356 -0.4800  0.2457  0.2492
  561MOL0     C75654   1.618   2.726   6.785 -0.9539 -0.3330  0.1908
  561MOL0     C75655   1.756   2.742   6.745 -0.2299  0.3288  0.1372
  561MOL0     C75656   1.849   2.797   6.825 -0.3948  1.0095 -0.4252
  561MOL0     C75657   1.820   2.834   6.957 -0.1041 -1.0062 -1.2611
  561MOL0     O75658   1.910   2.901   7.042  0.3440  0.3085 -0.1874
  561MOL0     C75659   2.046   2.868   7.024  0.5353 -0.8928  0.5051
  561MOL0     C75660   2.131   2.921   7.129  0.3398  0.2078 -0.5318
  561MOL0     C75661   2.107   2.856   7.263 -0.2460 -0.2519 -1.1144
  561MOL0     C75662   2.194   2.938   7.365  0.8367  0.0818  0.5419
  561MOL0     C75663   2.335   2.931   7.361  0.2957  1.0468 -0.1121
  561MOL0     C75664   2.453   2.914   7.366 -0.8751  1.0079 -0.2290
  561MOL0     C75665   1.691   2.820   7.004  0.3771 -0.0135 -0.2191
  561MOL0     C75666   1.586   2.770   6.917  0.0879  1.1781 -0.0343
  561MOL0     C75667   1.450   2.764   6.974 -0.8529 -0.5582  0.4380
  561MOL0     H75668   1.366   2.768   6.465  1.4129  3.2660  0.1813
  561MOL0     H75669   1.336   2.800   6.220 -0.1499  0.2473  1.0959
  561MOL0     H75670   1.367   2.843   6.008  1.0668  0.0635  3.5722
  561MOL0     H75671   1.544   2.863   6.008 -0.4929  1.0651  0.0638
  561MOL0     H75672   1.556   2.747   5.798 -0.6217 -1.4158  2.8860
  561MOL0     H75673   1.460   2.887   5.786 -0.2017  0.8668  4.9393
  561MOL0     H75674   1.258   2.779   5.770  0.5206  0.0768  0.0027
  561MOL0     H75675   1.312   2.628   5.839  0.2373 -1.5505 -1.7373
  561MOL0     H75676   1.390   2.748   5.567 -0.0453  0.2662  1.1792
  561MOL0     H75677   1.464   2.608   5.620 -0.9607 -2.5064 -0.5231
  561MOL0     H75678   1.300   2.577   5.472  0.7273  1.8727  0.3033
  561MOL0     H75679   1.282   2.469   5.602 -0.3305 -0.4954 -0.4148
  561MOL0     H75680   1.050   2.535   5.580  0.8306 -0.2152 -2.3133
  561MOL0     H75681   1.095   2.655   5.697  1.7370  0.8608  0.2826
  561MOL0     H75682   1.072   2.702   5.405  1.1266  0.1804 -0.4029
  561MOL0     H75683   1.155   2.824   5.503 -2.4325  2.9228 -3.6588
  561MOL0     H75684   0.931   2.890   5.472 -1.0439 -0.2570 -0.3484
  561MOL0     H75685   0.869   2.724   5.507 -0.1852  0.9521 -1.3086
  561MOL0     H75686   0.710   2.785   5.670  0.5773  3.8569 -2.4039
  561MOL0     H75687   0.659   2.796   6.014  1.4063 -0.8644 -2.0986
  561MOL0     H75688   0.672   2.977   6.016  0.5960  1.3696 -2.2302
  561MOL0     H75689   0.559   2.970   5.787  3.0460 -0.7844  0.0507
  561MOL0     H75690   0.492   2.817   5.824 -1.6729 -0.1296  2.7667
  561MOL0     H75691   0.325   2.993   5.899  0.0325  1.1528  2.1712
  561MOL0     H75692   0.444   3.070   5.985 -2.4149  3.1575 -3.5127
  561MOL0     H75693   0.447   2.886   6.152 -0.7864  0.4415  0.0976
  561MOL0     H75694   0.377   2.771   6.029  3.8382 -0.9860  1.5321
  561MOL0     H75695   0.012   2.952   6.198  0.2820  0.3130 -0.5358
  561MOL0     H75696  -0.142   2.789   6.307 -1.9132 -0.6306 -1.8008
  561MOL0     H75697  -0.324   2.327   6.300 -0.7842  1.0214 -0.1742
  561MOL0     H75698  -0.459   2.176   6.448 -0.1645 -0.2243  1.2199
  561MOL0     H75699  -0.658   2.357   6.762  0.9967 -0.5709 -1.9702
  561MOL0     H75700  -0.695   2.198   6.809  1.2606 -3.2613 -2.1083
  561MOL0     H75701  -0.449   2.345   6.927 -0.3044 -1.0355 -4.4324
  561MOL0     H75702  -0.610   2.324   7.005  0.8598 -1.1065  1.8847
  561MOL0     H75703  -0.440   2.083   6.937  2.0822  1.9620  0.6891
  561MOL0     H75704  -0.414   2.190   7.083 -0.8904  2.2221  0.7538
  561MOL0     H75705  -0.650   2.030   6.992 -0.5629 -1.2884  1.4125
  561MOL0     H75706  -0.650   2.142   7.135 -0.0942 -1.0207  2.0669
  561MOL0     H75707  -0.434   1.970   7.176  0.4812 -1.0335 -1.4794
  561MOL0     H75708  -0.560   1.857   7.124  1.0510  0.7665 -0.2750
  561MOL0     H75709  -0.729   1.978   7.286  0.3346  0.6080 -1.9307
  561MOL0     H75710  -0.628   1.853   7.334  1.2591 -0.7473  0.3861
  561MOL0     H75711  -0.472   1.993   7.472 -0.4890  0.9016  2.3354
  561MOL0     H75712  -0.638   2.053   7.509  0.6335  2.0307  2.1103
  561MOL0     H75713  -0.434   2.205   7.342  1.0446 -0.0299  1.4181
  561MOL0     H75714  -0.607   2.233   7.365 -1.0241 -0.2340  0.4525
  561MOL0     H75715  -0.442   2.467   6.763 -0.8915  1.3161 -0.2525
  561MOL0     H75716  -0.311   2.608   6.631 -0.3842  0.0342  2.6548
  561MOL0     H75717   0.158   2.485   6.284 -2.5014 -1.0433 -1.5910
  561MOL0     H75718   0.321   2.653   6.186  2.5670  2.8432  3.0944
  561MOL0     H75719   1.656   2.519   6.142  0.5055  0.1739 -0.1296
  561MOL0     H75720   1.710   2.513   6.384 -0.1065 -0.1542 -1.6328
  561MOL0     H75721   1.788   2.712   6.645  1.9441 -0.9428  1.1237
  561MOL0     H75722   1.942   2.825   6.777 -1.8849  2.1929 -2.7672
  561MOL0     H75723   2.081   2.927   6.939  1.8600  2.5031  3.1729
  561MOL0     H75724   2.059   2.761   7.009  2.4295 -0.6492  0.1277
  561MOL0     H75725   2.112   3.029   7.128 -1.7946 -0.1292 -0.9822
  561MOL0     H75726   2.234   2.915   7.092 -0.1440  1.4220 -2.1991
  561MOL0     H75727   2.127   2.748   7.271 -1.6986 -0.4854 -0.1815
  561MOL0     H75728   2.004   2.879   7.291  0.3250  1.3898 -0.2491
  561MOL0     H75729   2.173   3.044   7.347  1.8561 -0.0573 -1.7849
  561MOL0     H75730   2.155   2.912   7.464 -3.9188  0.1558 -1.0521
  561MOL0     H75731   2.560   2.916   7.354 -0.8301  1.3602  0.1928
  561MOL0     H75732   1.660   2.859   7.100 -3.3485  0.0026 -1.2600
  561MOL0     H75733   1.407   2.664   6.968 -3.8566  0.5292  1.8201
  561MOL0     H75734   1.431   2.783   7.080 -1.5761  0.0281  0.2093
  561MOL0     H75735   1.380   2.834   6.927  0.0086 -0.4414 -0.7207
  562MOL0     O75736   3.417   1.899   2.896 -0.1569  0.2250 -0.2938
  562MOL0     C75737   3.534   1.859   2.904  0.2826 -0.3856 -0.7227
  562MOL0     O75738   3.603   1.863   3.017 -0.1907  0.7368 -0.0110
  562MOL0     C75739   3.529   1.870   3.137  0.0887 -0.0626  0.0303
  562MOL0     C75740   3.541   1.757   3.237  0.5932  0.0604 -0.4526
  562MOL0     C75741   3.475   1.766   3.363 -0.3231  0.9979  0.6557
  562MOL0     C75742   3.417   1.877   3.405 -0.0176 -0.6739 -0.9376
  562MOL0     O75743   3.347   1.873   3.522 -0.2332 -1.0806 -0.4038
  562MOL0     C75744   3.214   1.917   3.532 -0.0920  1.2452  0.0720
  562MOL0     C75745   3.157   1.865   3.658 -0.5300 -0.4375 -0.1521
  562MOL0     C75746   3.188   1.711   3.672  0.4813 -0.3111  0.3994
  562MOL0     C75747   3.302   1.684   3.769  0.1767  0.0580 -0.1559
  562MOL0     C75748   3.315   1.529   3.767 -0.5078  0.4104 -0.2551
  562MOL0     C75749   3.425   1.486   3.857 -0.0222  0.1360  0.5264
  562MOL0     C75750   3.400   1.510   4.006  0.2788  0.3743 -0.9371
  562MOL0     C75751   3.482   1.410   4.079 -0.4085  0.2106 -0.0995
  562MOL0     N75752   3.462   1.424   4.226 -0.7451  0.2050  0.4262
  562MOL0     C75753   3.359   1.482   4.294  0.2323  0.4296 -0.0817
  562MOL0     C75754   3.373   1.456   4.426 -0.5941 -0.1158 -0.5595
  562MOL0     C75755   3.300   1.512   4.536  0.8050 -0.4513  0.0790
  562MOL0     C75756   3.389   1.563   4.649  0.5628 -0.0044  0.2597
  562MOL0     C75757   3.453   1.691   4.610 -0.5931  0.0742 -0.5977
  562MOL0     C75758   3.412   1.819   4.688 -0.6783 -1.6336 -0.4071
  562MOL0     O75759   3.266   1.811   4.696 -0.4090 -0.8463 -0.4664
  562MOL0     C75760   3.211   1.897   4.784 -0.1827 -0.9330 -0.6221
  562MOL0     C75761   3.232   2.035   4.768  0.1917  0.0157  0.2842
  562MOL0     C75762   3.168   2.126   4.852 -0.2706  0.1040 -0.3699
  562MOL0     C75763   3.071   2.080   4.942  0.7275  0.7636 -0.4173
  562MOL0     C75764   2.992   2.183   5.015  0.4631  0.1853 -0.3622
  562MOL0     O75765   3.042   2.310   5.024 -0.8039 -0.4673 -0.0320
  562MOL0     C75766   2.951   2.407   5.018  0.4843  0.8918 -0.0416
  562MOL0     C75767   2.927   2.462   4.887 -0.3352  0.5069 -0.3461
  562MOL0     C75768   2.826   2.550   4.871  0.3661  0.6857  0.1016
  562MOL0     C75769   2.743   2.587   4.989 -0.1551 -1.2253 -0.0795
  562MOL0     O75770   2.642   2.676   4.972  0.3160  0.4835 -0.1412
  562MOL0     C75771   2.646   2.790   4.891 -0.0423 -0.2502  0.2944
  562MOL0     C75772   2.626   2.910   4.990 -0.6982  0.6290  0.6399
  562MOL0     C75773   2.717   2.921   5.130  0.2601 -0.0645  1.0264
  562MOL0     C75774   2.865   2.947   5.092 -1.2082  0.0726  0.2889
  562MOL0     C75775   2.944   2.948   5.223  0.1392 -0.1140  0.1026
  562MOL0     C75776   3.078   3.026   5.198 -0.3637  0.2518 -0.1928
  562MOL0     C75777   3.140   3.066   5.336 -0.0856  0.3607 -0.1944
  562MOL0     C75778   3.062   3.189   5.394 -1.5734 -0.8663 -0.0583
  562MOL0    Cl75779   3.114   3.335   5.290 -0.0548 -0.4335  0.8159
  562MOL0     C75780   2.762   2.529   5.108 -1.1162  0.1285  0.1731
  562MOL0     C75781   2.872   2.436   5.126  0.7729 -0.4440 -0.5892
  562MOL0     O75782   2.898   2.142   5.077  0.0897  0.1834 -0.8916
  562MOL0     C75783   3.049   1.945   4.961 -0.2880  0.1336 -0.5399
  562MOL0     C75784   3.122   1.854   4.886  0.4126  0.8333 -1.0518
  562MOL0     N75785   3.478   1.361   4.434 -0.0755 -0.2121 -0.6580
  562MOL0     N75786   3.532   1.351   4.321 -0.1227 -0.0374  0.5292
  562MOL0     C75787   3.407   1.986   3.312 -0.6227 -0.7807  0.1574
  562MOL0     C75788   3.460   1.983   3.187 -0.6469 -0.9497 -0.1806
  562MOL0     C75789   3.592   1.791   2.786 -0.2751  0.1005  1.4973
  562MOL0     C75790   3.720   1.735   2.790  0.2355 -0.8726 -0.5819
  562MOL0     C75791   3.777   1.659   2.686 -0.4653  0.8620  1.0861
  562MOL0     C75792   3.695   1.632   2.572 -0.3597 -0.3352 -0.6105
  562MOL0     O75793   3.746   1.558   2.471 -0.5038 -0.0264 -0.2289
  562MOL0     C75794   3.716   1.416   2.477 -0.7207  0.4692  0.9773
  562MOL0     C75795   3.775   1.321   2.363  0.5094  0.0085  0.4145
  562MOL0     C75796   3.916   1.281   2.382 -1.0446  0.6319 -0.3899
  562MOL0     C75797   3.984   1.217   2.254  0.4416 -0.4210  0.3595
  562MOL0     C75798   3.905   1.103   2.210  0.5212 -0.9018  1.1185
  562MOL0     C75799   3.840   1.008   2.169 -0.0659  0.2107 -0.8079
  562MOL0     C75800   3.573   1.689   2.558  0.5738 -0.5443 -0.0278
  562MOL0     C75801   3.520   1.766   2.663  0.2064 -0.5220  1.5577
  562MOL0     C75802   3.374   1.802   2.647 -0.3799 -0.6857  0.3390
  562MOL0     H75803   3.590   1.666   3.201 -1.1143 -0.5436 -1.3489
  562MOL0     H75804   3.471   1.677   3.424 -2.8280 -0.4575 -1.4133
  562MOL0     H75805   3.216   2.027   3.526  2.3283  1.2818  0.2356
  562MOL0     H75806   3.161   1.874   3.447 -1.0188  0.7371  0.8911
  562MOL0     H75807   3.050   1.887   3.660 -0.3077  1.4827 -2.9985
  562MOL0     H75808   3.191   1.937   3.732 -0.0926  1.2378 -1.8966
  562MOL0     H75809   3.210   1.668   3.574 -0.3089  1.7666 -0.7697
  562MOL0     H75810   3.095   1.670   3.713 -0.7876  1.1968 -0.8596
  562MOL0     H75811   3.397   1.729   3.737  0.7419 -0.6844  0.4376
  562MOL0     H75812   3.291   1.720   3.871  0.2555 -0.2499 -0.0394
  562MOL0     H75813   3.217   1.486   3.793 -2.6045  2.3833 -4.0178
  562MOL0     H75814   3.323   1.489   3.666 -1.7917 -2.3669  0.6205
  562MOL0     H75815   3.427   1.379   3.834  0.0097  0.7513 -2.9322
  562MOL0     H75816   3.518   1.533   3.825  0.0115  0.4272  1.0423
  562MOL0     H75817   3.296   1.496   4.035 -0.0726  2.3026 -1.1259
  562MOL0     H75818   3.437   1.610   4.033 -1.2711  1.7322 -3.4721
  562MOL0     H75819   3.466   1.307   4.044  0.8511  0.3668 -1.2019
  562MOL0     H75820   3.585   1.438   4.056 -0.9160  1.8369 -0.4714
  562MOL0     H75821   3.271   1.528   4.251 -0.2358 -0.1287  0.2624
  562MOL0     H75822   3.238   1.592   4.496  0.9824  0.5692  1.7816
  562MOL0     H75823   3.245   1.424   4.572  1.0795 -0.5489  0.2623
  562MOL0     H75824   3.333   1.565   4.743  0.0864 -0.4716 -0.0111
  562MOL0     H75825   3.467   1.487   4.667  1.0381 -0.1868 -2.2149
  562MOL0     H75826   3.438   1.705   4.503  1.9051 -1.5877 -1.2290
  562MOL0     H75827   3.561   1.690   4.597 -0.6973  1.6351 -1.9497
  562MOL0     H75828   3.435   1.909   4.629  0.7028 -0.6161  1.5659
  562MOL0     H75829   3.465   1.825   4.783 -0.5500 -2.2851 -0.4341
  562MOL0     H75830   3.299   2.071   4.690  0.6280 -1.4695 -0.0791
  562MOL0     H75831   3.182   2.231   4.828  2.0285  0.5314  2.2452
  562MOL0     H75832   2.997   2.455   4.805  2.4683  1.2054  1.8091
  562MOL0     H75833   2.788   2.579   4.774  0.4634 -3.5870 -1.3851
  562MOL0     H75834   2.739   2.798   4.834  0.6269  1.3380  1.5412
  562MOL0     H75835   2.555   2.784   4.830  1.7967  1.6975 -2.9262
  562MOL0     H75836   2.649   3.000   4.932 -2.4448 -0.3241 -1.7015
  562MOL0     H75837   2.521   2.913   5.020 -0.7639 -0.0558  0.5013
  562MOL0     H75838   2.691   3.015   5.180  3.2490  0.1658  2.3905
  562MOL0     H75839   2.709   2.832   5.193  0.2872 -1.7901 -1.3001
  562MOL0     H75840   2.876   3.037   5.031  2.3780  1.0777  2.1634
  562MOL0     H75841   2.903   2.867   5.027  0.1721  0.4100  0.6487
  562MOL0     H75842   2.947   2.844   5.257 -0.9819  0.5920  2.5597
  562MOL0     H75843   2.886   3.013   5.289  2.1249  3.2593 -1.2229
  562MOL0     H75844   3.150   2.950   5.165  1.6592  1.6952  0.7108
  562MOL0     H75845   3.060   3.105   5.125 -1.8494  1.9401  1.8722
  562MOL0     H75846   3.248   3.080   5.326 -0.1146  1.8139  1.1638
  562MOL0     H75847   3.113   2.985   5.404 -4.2828 -1.4173 -3.4935
  562MOL0     H75848   2.954   3.175   5.404 -1.4538 -3.2720 -1.5098
  562MOL0     H75849   3.095   3.210   5.496 -2.1562 -0.7874  0.1217
  562MOL0     H75850   2.697   2.553   5.192 -0.6779  0.8355  0.3158
  562MOL0     H75851   2.891   2.386   5.220 -0.2013 -0.1726 -0.2410
  562MOL0     H75852   2.992   1.920   5.050 -1.2094 -0.8088 -1.3704
  562MOL0     H75853   3.110   1.750   4.913 -2.8562  1.2175 -0.5692
  562MOL0     H75854   3.349   2.068   3.353  2.0410  0.8701  0.8701
  562MOL0     H75855   3.436   2.065   3.120  1.9591  2.2823  2.4246
  562MOL0     H75856   3.785   1.748   2.876 -0.5345  1.8739 -0.3088
  562MOL0     H75857   3.872   1.616   2.713  0.2493  1.3835 -0.5113
  562MOL0     H75858   3.607   1.416   2.479 -0.9234 -0.4379 -2.6888
  562MOL0     H75859   3.746   1.370   2.571 -0.7844 -2.5292 -0.3414
  562MOL0     H75860   3.766   1.370   2.266 -2.8613 -0.7127  0.2746
  562MOL0     H75861   3.710   1.234   2.368 -0.7396  0.8049 -1.0337
  562MOL0     H75862   3.928   1.215   2.469  3.6821  1.1369 -0.3591
  562MOL0     H75863   3.986   1.364   2.398  1.8725 -1.9283  1.3201
  562MOL0     H75864   3.986   1.275   2.162  2.8089  0.3603  0.8316
  562MOL0     H75865   4.082   1.181   2.288 -0.1899 -1.9179  0.6598
  562MOL0     H75866   3.807   0.914   2.129  4.7885 -3.5631  2.7567
  562MOL0     H75867   3.522   1.661   2.467 -0.0996 -0.3002  0.2719
  562MOL0     H75868   3.309   1.758   2.723  0.4394 -3.2670 -0.3544
  562MOL0     H75869   3.372   1.910   2.665  2.3677 -0.3284 -0.9992
  562MOL0     H75870   3.332   1.774   2.550  0.2710  2.3709 -0.9313
  563MOL0     O75871   9.176   9.435   1.919  0.2144  0.3602  0.5265
  563MOL0     C75872   9.235   9.450   1.816  0.1565  0.1728 -0.4640
  563MOL0     O75873   9.366   9.431   1.794 -0.4799 -0.4898  0.2532
  563MOL0     C75874   9.444   9.397   1.899  0.2038 -0.3793  0.3488
  563MOL0     C75875   9.446   9.480   2.002 -1.1719 -1.3291 -0.3632
  563MOL0     C75876   9.521   9.452   2.115 -0.0818 -1.3719  0.0847
  563MOL0     C75877   9.592   9.332   2.127 -0.0314  0.8702  0.4887
  563MOL0     O75878   9.676   9.315   2.234 -0.0557 -0.5739 -0.2526
  563MOL0     C75879   9.766   9.203   2.239  0.9918  0.6166  0.6169
  563MOL0     C75880   9.800   9.172   2.385  0.4002  0.5377 -0.0681
  563MOL0     C75881   9.857   9.037   2.398  0.5427  0.2591  0.9489
  563MOL0     C75882   9.871   9.007   2.548 -0.0804 -0.4696 -1.4470
  563MOL0     C75883   9.925   8.872   2.591  0.1913 -0.0982  0.6194
  563MOL0     C75884   9.939   8.856   2.743 -0.3798 -0.0807  0.2632
  563MOL0     C75885   9.804   8.867   2.811  0.2114 -0.1147  0.0546
  563MOL0     C75886   9.800   8.849   2.963  0.0094 -0.7035 -0.4566
  563MOL0     N75887   9.835   8.722   3.019 -0.2820 -0.2527  0.0797
  563MOL0     C75888   9.771   8.601   2.991 -0.1911 -0.0383 -0.3707
  563MOL0     C75889   9.836   8.509   3.067  0.0380 -0.6375  0.4431
  563MOL0     C75890   9.804   8.362   3.029  0.0488 -0.2326 -0.4744
  563MOL0     C75891   9.724   8.282   3.135  0.2369  0.7216 -0.9395
  563MOL0     C75892   9.816   8.197   3.231  0.6467  0.2777  0.7398
  563MOL0     C75893   9.898   8.282   3.320  0.0445 -0.4743 -0.5741
  563MOL0     O75894  10.004   8.208   3.384 -0.2881  0.4018  0.4209
  563MOL0     C75895  10.098   8.263   3.460 -0.1704  1.3136 -0.1889
  563MOL0     C75896  10.202   8.176   3.513  0.2035 -0.6995 -0.4354
  563MOL0     C75897  10.312   8.219   3.584  0.1224  0.0724 -0.0038
  563MOL0     C75898  10.309   8.360   3.615 -1.0659  0.5466  0.3712
  563MOL0     C75899  10.412   8.422   3.700 -0.2675 -0.6316 -0.1277
  563MOL0     O75900  10.413   8.554   3.718  1.1762  0.4475  0.1644
  563MOL0     C75901  10.509   8.618   3.787 -1.7120  1.0885  0.8787
  563MOL0     C75902  10.486   8.667   3.913  0.5388 -0.6468  0.0391
  563MOL0     C75903  10.591   8.732   3.981 -0.6745 -0.4158 -0.5470
  563MOL0     C75904  10.722   8.732   3.932  0.3570  0.1834 -0.5303
  563MOL0     O75905  10.833   8.784   3.989  0.0527 -0.4059 -0.5098
  563MOL0     C75906  10.836   8.781   4.135 -0.0871  0.7006  0.4080
  563MOL0     C75907  10.971   8.821   4.199 -0.1260  0.9465  0.6095
  563MOL0     C75908  11.022   8.951   4.158  0.6505 -0.1515 -0.2771
  563MOL0     C75909  11.170   8.941   4.157  0.6134 -0.4910 -0.3151
  563MOL0     C75910  11.245   9.079   4.154  0.0585  0.5811  1.1831
  563MOL0     C75911  11.208   9.172   4.026  0.3052  0.4141  0.2365
  563MOL0     C75912  11.259   9.312   4.055 -0.3200 -0.4156  0.8335
  563MOL0     C75913  11.415   9.331   4.063 -0.0729  0.5650  0.4712
  563MOL0    Cl75914  11.465   9.493   4.011  0.9105  0.1199  0.1358
  563MOL0     C75915  10.744   8.675   3.804  1.0492 -0.1928 -0.2713
  563MOL0     C75916  10.634   8.621   3.733 -0.1818 -0.3915 -0.4602
  563MOL0     O75917  10.498   8.348   3.755 -0.7932  0.3020  0.4138
  563MOL0     C75918  10.210   8.447   3.577  0.4753  0.2308 -0.0391
  563MOL0     C75919  10.105   8.399   3.497  0.0115 -0.1692 -0.3125
  563MOL0     N75920   9.925   8.575   3.148 -0.1405 -1.2071  0.4714
  563MOL0     N75921   9.925   8.701   3.118 -1.4012 -0.5619  0.2863
  563MOL0     C75922   9.597   9.249   2.008  0.4884  0.8180 -0.1000
  563MOL0     C75923   9.518   9.282   1.900  0.1573 -0.0968 -0.3899
  563MOL0     C75924   9.147   9.487   1.704  0.0644 -0.4691 -0.2726
  563MOL0     C75925   9.012   9.437   1.701  1.0713  0.6788  0.8508
  563MOL0     C75926   8.914   9.479   1.612 -0.2093  0.7329  0.0712
  563MOL0     C75927   8.943   9.588   1.517 -0.0708 -0.3242  0.2411
  563MOL0     O75928   8.849   9.623   1.426  0.5774 -0.1187 -0.1919
  563MOL0     C75929   8.874   9.727   1.333 -0.2004  0.7720  0.0420
  563MOL0     C75930   8.751   9.747   1.239  0.9303  0.3567  0.1243
  563MOL0     C75931   8.658   9.860   1.291 -0.0973  0.5477 -0.6272
  563MOL0     C75932   8.596   9.947   1.191  0.3180  0.9725  1.1677
  563MOL0     C75933   8.602  10.095   1.217  1.7001 -0.7337 -0.5657
  563MOL0     C75934   8.603  10.217   1.244  0.2449  0.0805 -0.6596
  563MOL0     C75935   9.074   9.644   1.531  0.1254 -0.3072 -0.2435
  563MOL0     C75936   9.173   9.598   1.616 -0.4530 -0.2301 -1.1799
  563MOL0     C75937   9.318   9.654   1.616 -0.0780  0.3979  1.3287
  563MOL0     H75938   9.381   9.567   2.004  0.3013 -0.1801  1.9033
  563MOL0     H75939   9.530   9.520   2.199  1.5436 -0.8423 -0.4743
  563MOL0     H75940   9.732   9.106   2.200 -0.7868 -0.0609  3.4815
  563MOL0     H75941   9.856   9.235   2.185  0.7727 -1.1611 -0.9110
  563MOL0     H75942   9.708   9.157   2.443 -0.2759 -0.6163 -1.3578
  563MOL0     H75943   9.850   9.251   2.440 -3.2356  2.0220  1.4271
  563MOL0     H75944   9.951   9.030   2.342 -0.8925  0.3817 -1.6245
  563MOL0     H75945   9.793   8.961   2.352  0.5798  0.6502  0.2353
  563MOL0     H75946   9.929   9.091   2.588  1.4884 -0.4627 -3.5623
  563MOL0     H75947   9.772   9.024   2.591  0.0644  0.0175 -1.2930
  563MOL0     H75948   9.874   8.790   2.540  3.4307 -1.8113 -0.2049
  563MOL0     H75949  10.027   8.859   2.553  0.0476 -4.2376  1.1959
  563MOL0     H75950   9.975   8.755   2.760 -2.6886 -0.8287  1.1741
  563MOL0     H75951  10.011   8.934   2.770  1.0921 -0.2095 -2.8364
  563MOL0     H75952   9.735   8.791   2.774  1.6293 -1.0292 -0.8126
  563MOL0     H75953   9.768   8.968   2.789  1.0288 -0.0219 -0.9789
  563MOL0     H75954   9.862   8.925   3.010 -1.5644  0.0256  0.5179
  563MOL0     H75955   9.703   8.869   3.009  0.6127 -1.2936  1.1191
  563MOL0     H75956   9.694   8.587   2.916 -0.7249 -3.5299  0.6761
  563MOL0     H75957   9.742   8.366   2.939 -1.4874 -0.2707  0.5466
  563MOL0     H75958   9.898   8.312   3.004 -0.0657  0.4918 -2.4891
  563MOL0     H75959   9.665   8.353   3.193  2.1560 -0.4594  2.7287
  563MOL0     H75960   9.660   8.207   3.087  0.7318 -1.7011  1.8777
  563MOL0     H75961   9.881   8.127   3.177 -0.6886 -0.4238  0.0077
  563MOL0     H75962   9.754   8.130   3.291  1.3804 -0.7375  0.3907
  563MOL0     H75963   9.838   8.342   3.390  2.4285  1.0298  0.3011
  563MOL0     H75964   9.949   8.356   3.257  0.2425 -0.0361  0.0894
  563MOL0     H75965  10.186   8.070   3.493  0.8254 -0.5567 -1.8644
  563MOL0     H75966  10.387   8.147   3.615  0.1969 -0.8597 -2.1444
  563MOL0     H75967  10.387   8.667   3.959  1.0320 -0.3300  1.1366
  563MOL0     H75968  10.573   8.781   4.076 -0.6808 -0.5293 -0.4900
  563MOL0     H75969  10.752   8.843   4.169 -0.7736  0.6264 -1.0822
  563MOL0     H75970  10.816   8.679   4.170  1.4314  1.0119  2.3479
  563MOL0     H75971  10.960   8.822   4.308 -0.4602 -0.5150  0.6127
  563MOL0     H75972  11.039   8.738   4.181 -1.4128 -0.8107  3.1061
  563MOL0     H75973  10.994   8.968   4.053  1.0082  1.5680 -0.1117
  563MOL0     H75974  10.988   9.040   4.211 -1.1197 -1.1123  0.2806
  563MOL0     H75975  11.200   8.890   4.064  0.1036  1.3940 -1.5589
  563MOL0     H75976  11.206   8.897   4.251  2.9327  1.7925 -0.0418
  563MOL0     H75977  11.353   9.065   4.158  0.6603  3.6265 -1.0387
  563MOL0     H75978  11.201   9.138   4.234  0.1409 -1.1018  2.5228
  563MOL0     H75979  11.258   9.129   3.939  1.4399 -0.6949  1.3810
  563MOL0     H75980  11.101   9.169   4.004  0.6118 -0.1744 -1.2997
  563MOL0     H75981  11.206   9.348   4.144 -0.0508  1.9141  0.1329
  563MOL0     H75982  11.229   9.370   3.967 -3.7474 -1.8286  0.8937
  563MOL0     H75983  11.433   9.317   4.170  0.1784  3.2041  0.8614
  563MOL0     H75984  11.461   9.260   3.994  0.3918  0.7142  0.6267
  563MOL0     H75985  10.842   8.678   3.758  0.8096 -1.3828 -0.8907
  563MOL0     H75986  10.648   8.570   3.638 -1.1545 -1.1788 -0.1968
  563MOL0     H75987  10.201   8.552   3.604  2.3039  0.3735  0.1736
  563MOL0     H75988  10.030   8.473   3.471 -0.5395 -0.6076 -0.0155
  563MOL0     H75989   9.659   9.162   1.991 -1.4062 -0.9713  1.6050
  563MOL0     H75990   9.512   9.213   1.816  0.8282  2.8390 -3.0480
  563MOL0     H75991   8.986   9.365   1.778 -1.1356  1.9630  1.3887
  563MOL0     H75992   8.818   9.436   1.639  0.0736  0.2794  0.3787
  563MOL0     H75993   8.961   9.691   1.276  3.3261 -0.0526  5.2422
  563MOL0     H75994   8.891   9.822   1.385 -2.4476  1.2862 -0.0514
  563MOL0     H75995   8.706   9.648   1.225  0.4481  0.3172  1.7742
  563MOL0     H75996   8.797   9.781   1.146  1.1770  0.5100  0.3032
  563MOL0     H75997   8.717   9.926   1.355 -3.5169  1.7885  1.5127
  563MOL0     H75998   8.582   9.829   1.363  0.1378  0.7995 -0.2668
  563MOL0     H75999   8.649   9.938   1.095 -3.6023 -3.0894 -0.9461
  563MOL0     H76000   8.490   9.924   1.180  0.2905  1.2834  0.7294
  563MOL0     H76001   8.590  10.322   1.261 -0.0625 -0.0006 -0.3837
  563MOL0     H76002   9.091   9.731   1.469  0.1467  0.8620  1.3373
  563MOL0     H76003   9.382   9.566   1.606 -0.9070 -0.0732 -0.1308
  563MOL0     H76004   9.340   9.705   1.522  1.1426 -1.7954  0.3359
  563MOL0     H76005   9.339   9.720   1.701  2.7118  1.9312 -0.4131
  564MOL0     O76006   6.477   5.889   3.308  0.2659 -0.0510 -0.1770
  564MOL0     C76007   6.477   5.939   3.196 -0.3894 -0.0231 -0.0508
  564MOL0     O76008   6.592   5.968   3.124  0.1757 -0.1901  0.9250
  564MOL0     C76009   6.713   5.915   3.158 -0.8046  0.6334 -0.3488
  564MOL0     C76010   6.744   5.784   3.119  0.0845  0.5868  1.1624
  564MOL0     C76011   6.859   5.727   3.172  0.3523  0.2177  0.0602
  564MOL0     C76012   6.929   5.783   3.282  0.7103  0.2590  0.6571
  564MOL0     O76013   7.033   5.725   3.334  0.0716  0.0362 -0.7378
  564MOL0     C76014   7.128   5.636   3.269  0.6477 -0.7392 -0.5978
  564MOL0     C76015   7.217   5.726   3.184 -0.0864  1.0261  0.2502
  564MOL0     C76016   7.323   5.800   3.269 -0.9235 -0.5143  0.2898
  564MOL0     C76017   7.448   5.722   3.284 -0.4964 -0.5894  0.5411
  564MOL0     C76018   7.511   5.748   3.414 -0.5556  0.2725 -0.3308
  564MOL0     C76019   7.669   5.738   3.420  0.1908  0.9842  0.2695
  564MOL0     C76020   7.726   5.600   3.377  0.5424 -0.1801 -0.0522
  564MOL0     C76021   7.879   5.600   3.377 -1.3257 -0.7088 -0.4238
  564MOL0     N76022   7.943   5.473   3.334 -0.2514 -0.3555 -0.2129
  564MOL0     C76023   7.959   5.356   3.407  0.2803  0.0986  0.5490
  564MOL0     C76024   8.017   5.274   3.312  0.0373 -0.0613 -1.1043
  564MOL0     C76025   8.068   5.135   3.342  0.0097  0.0871  0.2119
  564MOL0     C76026   8.193   5.144   3.429  1.2173 -0.4107 -0.3289
  564MOL0     C76027   8.253   5.021   3.493 -0.4216 -0.4117  0.0640
  564MOL0     C76028   8.353   4.971   3.385  0.2545  0.0978 -0.0456
  564MOL0     O76029   8.412   4.845   3.417  1.0449  0.6508  0.1329
  564MOL0     C76030   8.464   4.771   3.313  0.4156 -0.1501  0.4641
  564MOL0     C76031   8.398   4.719   3.202 -0.7609  0.5967 -0.2598
  564MOL0     C76032   8.457   4.621   3.121 -0.4930 -0.7856  0.2351
  564MOL0     C76033   8.587   4.580   3.149 -0.3948 -0.4297 -1.1314
  564MOL0     C76034   8.654   4.465   3.082 -0.5229 -0.2583  1.1629
  564MOL0     O76035   8.582   4.366   3.030  0.2113 -0.8685  0.6147
  564MOL0     C76036   8.601   4.288   2.914 -0.3591  0.0478  0.6205
  564MOL0     C76037   8.700   4.318   2.821 -0.0643  0.1103 -0.2051
  564MOL0     C76038   8.718   4.248   2.694 -0.2955 -0.2215  0.4831
  564MOL0     C76039   8.630   4.144   2.674 -0.2653 -1.0881 -0.8125
  564MOL0     O76040   8.623   4.066   2.563 -0.2851 -0.6058 -0.2699
  564MOL0     C76041   8.746   4.034   2.494  0.6623  1.0016 -0.7792
  564MOL0     C76042   8.718   3.933   2.376 -0.3486  1.0154 -0.3172
  564MOL0     C76043   8.838   3.904   2.285 -0.0060  0.8548 -0.2873
  564MOL0     C76044   8.858   4.003   2.170 -0.8241 -0.4614 -0.5727
  564MOL0     C76045   8.972   3.941   2.100 -0.4129 -0.0738  0.3275
  564MOL0     C76046   9.000   4.052   1.990 -0.8598  1.0255 -1.1606
  564MOL0     C76047   9.125   4.018   1.908 -0.1402  0.0191 -0.5414
  564MOL0     C76048   9.131   4.104   1.785 -1.4158  0.0667 -0.7126
  564MOL0    Cl76049   9.111   4.276   1.816  0.4308  0.4387  0.2241
  564MOL0     C76050   8.520   4.123   2.760  0.3182 -0.9122 -0.5351
  564MOL0     C76051   8.518   4.185   2.887  0.7558 -0.2741  0.1942
  564MOL0     O76052   8.776   4.470   3.080 -0.0709  0.0604  0.1353
  564MOL0     C76053   8.663   4.657   3.243 -0.0681 -0.1556 -0.3232
  564MOL0     C76054   8.601   4.744   3.324 -0.7365 -0.5647  0.5029
  564MOL0     N76055   8.040   5.337   3.191 -0.4073  0.9397 -0.1242
  564MOL0     N76056   7.991   5.456   3.211  0.1019  1.0053 -0.4793
  564MOL0     C76057   6.896   5.908   3.327  0.1598  1.2901  0.9808
  564MOL0     C76058   6.789   5.976   3.264 -0.6645 -0.6152 -0.0400
  564MOL0     C76059   6.363   5.982   3.121 -0.2428  0.6909  0.0122
  564MOL0     C76060   6.271   6.067   3.184  0.1458  0.4739 -0.3732
  564MOL0     C76061   6.151   6.106   3.124 -0.1139 -0.7403  0.7472
  564MOL0     C76062   6.125   6.052   3.001 -0.8653 -0.4763 -0.7929
  564MOL0     O76063   6.016   6.093   2.931 -0.5442 -0.2718 -0.3776
  564MOL0     C76064   5.922   6.005   2.875 -0.5048 -0.0267  0.8039
  564MOL0     C76065   5.784   6.048   2.922  0.2836  1.0635 -0.4231
  564MOL0     C76066   5.689   5.921   2.937 -0.3061 -0.3191 -0.1950
  564MOL0     C76067   5.536   5.954   2.947  0.3070  1.0175  0.0953
  564MOL0     C76068   5.488   6.033   2.838 -0.2357 -0.4886 -0.1842
  564MOL0     C76069   5.432   6.096   2.755 -0.3315  0.5890  0.6629
  564MOL0     C76070   6.210   5.960   2.939 -0.4308  0.1586  0.3486
  564MOL0     C76071   6.332   5.930   2.993 -0.2646 -0.1375  0.4614
  564MOL0     C76072   6.427   5.822   2.935 -0.6159 -0.5206  0.0775
  564MOL0     H76073   6.681   5.726   3.053  1.9524 -1.4049  1.0213
  564MOL0     H76074   6.868   5.623   3.142 -1.4560  0.3364 -0.9937
  564MOL0     H76075   7.177   5.572   3.344 -2.1994 -1.9596  0.3695
  564MOL0     H76076   7.063   5.568   3.213 -1.2391  2.4840 -2.5607
  564MOL0     H76077   7.161   5.796   3.123  0.1893 -0.6802 -2.1002
  564MOL0     H76078   7.268   5.667   3.108 -0.7957 -1.0615  1.3113
  564MOL0     H76079   7.275   5.807   3.367 -3.1991 -2.9370 -0.5351
  564MOL0     H76080   7.342   5.904   3.244 -1.7715 -0.3246  0.3902
  564MOL0     H76081   7.439   5.612   3.285 -0.8162 -0.6441 -1.8795
  564MOL0     H76082   7.513   5.741   3.198  0.2385 -1.9180  0.7726
  564MOL0     H76083   7.486   5.848   3.453 -3.9854 -0.3774 -0.5481
  564MOL0     H76084   7.467   5.675   3.483 -1.7540  1.1293 -0.1411
  564MOL0     H76085   7.726   5.808   3.358  1.3602  1.3016  1.6574
  564MOL0     H76086   7.691   5.766   3.523 -3.6581  0.2617  1.4503
  564MOL0     H76087   7.681   5.571   3.281 -1.2152 -2.6920  1.3902
  564MOL0     H76088   7.699   5.513   3.438 -0.3178  1.7165  2.4294
  564MOL0     H76089   7.912   5.682   3.313  0.0852  0.5604  1.7996
  564MOL0     H76090   7.907   5.634   3.477  0.3958  0.8503 -1.3674
  564MOL0     H76091   7.959   5.322   3.510 -1.8508  1.7437  1.1739
  564MOL0     H76092   7.982   5.089   3.391 -0.3969  1.1606  0.5151
  564MOL0     H76093   8.078   5.075   3.251  1.2722  3.5598 -2.1296
  564MOL0     H76094   8.260   5.211   3.375  2.9295 -0.8938  1.0897
  564MOL0     H76095   8.151   5.209   3.506 -1.0890 -1.3809 -0.6819
  564MOL0     H76096   8.183   4.939   3.511  1.0384 -1.5025  0.9604
  564MOL0     H76097   8.314   5.042   3.581  0.3485  0.0066 -0.5504
  564MOL0     H76098   8.439   5.038   3.396 -0.4104  0.6407  2.2410
  564MOL0     H76099   8.306   4.973   3.286  0.9796  1.0250 -0.3888
  564MOL0     H76100   8.297   4.754   3.187  0.0290  3.3193  0.1529
  564MOL0     H76101   8.407   4.576   3.035 -0.7379  2.1294 -1.2824
  564MOL0     H76102   8.771   4.394   2.852 -0.2329  0.4586 -0.6642
  564MOL0     H76103   8.799   4.285   2.631 -0.4786  1.4590  1.1618
  564MOL0     H76104   8.785   4.129   2.456  0.8133 -0.3952 -4.5927
  564MOL0     H76105   8.813   3.984   2.564 -1.9364  0.6832  1.6523
  564MOL0     H76106   8.708   3.832   2.417  1.1509 -0.3231 -2.9743
  564MOL0     H76107   8.641   3.971   2.309 -2.5818  1.1005  2.1487
  564MOL0     H76108   8.935   3.894   2.336 -1.3533 -0.2505  2.2590
  564MOL0     H76109   8.809   3.808   2.240  3.4829 -0.7788  0.5483
  564MOL0     H76110   8.879   4.104   2.205 -1.1892 -1.0954  1.6682
  564MOL0     H76111   8.772   3.997   2.103 -1.0438  0.8125 -0.4302
  564MOL0     H76112   8.941   3.850   2.047  0.3062  0.2639 -0.7176
  564MOL0     H76113   9.055   3.934   2.170 -0.6400 -0.4772  0.5618
  564MOL0     H76114   8.922   4.048   1.914 -2.3999 -0.7782  0.4210
  564MOL0     H76115   8.990   4.155   2.026 -3.3646 -0.1798  2.1230
  564MOL0     H76116   9.138   3.917   1.868 -0.2490  0.6361 -2.1965
  564MOL0     H76117   9.218   4.033   1.965 -0.7448 -0.5262  0.6246
  564MOL0     H76118   9.224   4.084   1.731 -1.1829 -0.3788 -0.1526
  564MOL0     H76119   9.051   4.059   1.726  2.0011 -4.7709 -2.2788
  564MOL0     H76120   8.450   4.040   2.751 -1.6320  0.1896  2.6724
  564MOL0     H76121   8.436   4.166   2.955 -0.7850 -2.2937 -2.0281
  564MOL0     H76122   8.764   4.625   3.263 -0.4657 -1.0805  0.2958
  564MOL0     H76123   8.664   4.773   3.408  1.2951  1.5126 -1.6109
  564MOL0     H76124   6.958   5.954   3.403 -0.8807  1.3149  1.8455
  564MOL0     H76125   6.757   6.078   3.280 -1.6400 -0.7577 -0.9647
  564MOL0     H76126   6.300   6.089   3.286 -0.5631 -4.3171  1.1511
  564MOL0     H76127   6.090   6.188   3.161  0.2695  1.5077 -3.0809
  564MOL0     H76128   5.948   5.905   2.910 -2.0162 -1.7234 -2.4586
  564MOL0     H76129   5.938   6.008   2.767 -0.0284 -2.6145  0.7426
  564MOL0     H76130   5.752   6.126   2.852  0.3627  1.9006  0.4596
  564MOL0     H76131   5.799   6.088   3.022 -0.0702 -0.2696  0.1771
  564MOL0     H76132   5.709   5.861   3.026  2.1613 -0.3587 -0.7263
  564MOL0     H76133   5.697   5.851   2.853  1.0858 -1.9543  1.2484
  564MOL0     H76134   5.486   5.857   2.939  1.2898  0.0768  3.5451
  564MOL0     H76135   5.504   5.998   3.042 -2.0878 -4.3777  2.1992
  564MOL0     H76136   5.387   6.142   2.670 -0.0657 -2.1559 -1.0719
  564MOL0     H76137   6.174   5.933   2.840 -0.0346  3.2609 -0.7459
  564MOL0     H76138   6.437   5.741   3.008  0.1565  0.9777  1.7305
  564MOL0     H76139   6.383   5.781   2.844 -1.7589 -1.6152  1.0900
  564MOL0     H76140   6.527   5.865   2.919 -1.9809  2.1637 -1.8969
  565MOL0     O76141   8.385   0.687   4.224 -0.3564  0.5629  0.3508
  565MOL0     C76142   8.317   0.670   4.128  0.0043  0.1148  0.0181
  565MOL0     O76143   8.369   0.689   4.005  0.4161 -1.2378  0.5289
  565MOL0     C76144   8.504   0.721   3.995 -0.6315  0.3386  0.3876
  565MOL0     C76145   8.556   0.842   4.044 -0.1284  0.2688 -0.7159
  565MOL0     C76146   8.685   0.878   4.022 -1.0404 -0.8089 -0.2662
  565MOL0     C76147   8.771   0.800   3.935  0.3747 -0.4862 -0.1112
  565MOL0     O76148   8.898   0.817   3.900 -0.0068 -1.4342 -0.0772
  565MOL0     C76149   8.922   0.951   3.856  0.1532  0.8047 -0.2639
  565MOL0     C76150   8.848   0.980   3.716  0.8981 -0.1524 -1.0624
  565MOL0     C76151   8.913   0.899   3.599  0.5426 -0.0345 -0.4451
  565MOL0     C76152   8.878   0.965   3.462  0.5418  0.4875  0.5725
  565MOL0     C76153   8.954   0.897   3.349  0.7209 -0.2223  0.1904
  565MOL0     C76154   8.894   0.782   3.285 -0.0066  0.0825 -0.4817
  565MOL0     C76155   8.842   0.665   3.384  0.0312 -0.3210 -0.2386
  565MOL0     C76156   8.804   0.542   3.298  0.5471 -0.5111  0.3138
  565MOL0     N76157   8.928   0.481   3.250 -0.2254 -0.6777 -0.2474
  565MOL0     C76158   9.046   0.468   3.308 -0.8417  0.3783  0.4554
  565MOL0     C76159   9.133   0.441   3.211 -0.4491 -0.2130 -0.2047
  565MOL0     C76160   9.276   0.399   3.249 -0.1098 -0.3026 -0.5029
  565MOL0     C76161   9.372   0.516   3.280 -0.4034 -0.3192  0.1927
  565MOL0     C76162   9.392   0.596   3.149  0.3073 -0.6118 -0.5478
  565MOL0     C76163   9.455   0.734   3.181 -0.7829 -0.3877  0.2194
  565MOL0     O76164   9.586   0.695   3.245 -0.5716  0.0785  0.0256
  565MOL0     C76165   9.649   0.798   3.307  0.7382 -0.2651 -0.3098
  565MOL0     C76166   9.637   0.935   3.278 -0.8509 -0.0107  0.6105
  565MOL0     C76167   9.699   1.032   3.357 -0.3967 -0.2817 -0.1447
  565MOL0     C76168   9.770   0.997   3.469 -0.3555  0.3436 -0.4415
  565MOL0     C76169   9.831   1.102   3.556  0.8534 -0.2347 -0.6452
  565MOL0     O76170   9.756   1.205   3.600 -0.0736 -0.1080  0.1876
  565MOL0     C76171   9.820   1.311   3.664 -0.0224  0.2457 -0.2112
  565MOL0     C76172   9.808   1.319   3.802  0.8026 -0.5904  0.0374
  565MOL0     C76173   9.859   1.436   3.866 -0.8236  0.2502 -0.2265
  565MOL0     C76174   9.934   1.533   3.796  0.1866  0.7892 -0.3940
  565MOL0     O76175   9.982   1.645   3.856  0.1051 -0.7876 -0.2333
  565MOL0     C76176  10.071   1.745   3.804  0.0069  0.2383 -0.0703
  565MOL0     C76177  10.107   1.835   3.927  0.0742 -0.3449  0.3763
  565MOL0     C76178   9.970   1.898   3.963 -0.5553  0.3031 -0.5425
  565MOL0     C76179   9.998   2.035   4.033  0.3537  0.7044  0.4226
  565MOL0     C76180   9.883   2.136   4.012 -0.5251 -1.1270 -0.6206
  565MOL0     C76181   9.914   2.255   4.107 -0.1857 -0.6052 -0.1548
  565MOL0     C76182   9.861   2.382   4.036 -0.2705 -0.3472 -0.0238
  565MOL0     C76183   9.727   2.422   4.102  0.4239 -0.8152  0.1647
  565MOL0    Cl76184   9.596   2.345   4.016  0.3229 -0.1065 -0.6984
  565MOL0     C76185   9.939   1.528   3.653 -1.0375 -0.1525  0.1133
  565MOL0     C76186   9.883   1.413   3.591 -0.5596  0.0768  0.5929
  565MOL0     O76187   9.951   1.086   3.579  0.1441  0.2623  0.0023
  565MOL0     C76188   9.797   0.863   3.499 -0.2846  0.3642  0.1352
  565MOL0     C76189   9.734   0.758   3.416  0.6711 -1.2832 -1.0149
  565MOL0     N76190   9.064   0.444   3.092  0.1332  0.2411 -0.1771
  565MOL0     N76191   8.938   0.468   3.119  0.0324  0.2155  0.0631
  565MOL0     C76192   8.716   0.685   3.877 -0.0300  0.0386  0.3164
  565MOL0     C76193   8.584   0.644   3.908  0.3071 -0.6851 -0.1776
  565MOL0     C76194   8.177   0.613   4.137 -0.1185  0.1345  1.3101
  565MOL0     C76195   8.114   0.549   4.027  0.0958 -0.3457 -0.1195
  565MOL0     C76196   7.990   0.485   4.032  0.5010  0.2399 -0.0010
  565MOL0     C76197   7.924   0.478   4.156 -0.7242  0.9116  0.4298
  565MOL0     O76198   7.804   0.414   4.160  0.5423  0.7523  0.3096
  565MOL0     C76199   7.726   0.412   4.286 -0.3945 -0.2341  0.0325
  565MOL0     C76200   7.617   0.299   4.266  0.5736 -0.0083 -0.0967
  565MOL0     C76201   7.498   0.313   4.368  0.0055  1.4038 -0.2079
  565MOL0     C76202   7.517   0.275   4.514  1.2387 -0.9452  0.9186
  565MOL0     C76203   7.529   0.132   4.520  0.4871 -0.1485  0.2667
  565MOL0     C76204   7.560   0.018   4.533 -0.6204 -0.0833 -0.1392
  565MOL0     C76205   7.984   0.550   4.273  0.9853 -0.6131  1.2560
  565MOL0     C76206   8.104   0.624   4.263 -0.0866 -0.1530  0.5857
  565MOL0     C76207   8.158   0.688   4.387  0.4090  0.3702 -0.0559
  565MOL0     H76208   8.501   0.904   4.114  0.9962 -0.5610  0.9583
  565MOL0     H76209   8.720   0.968   4.072 -4.4585  0.1511  0.6782
  565MOL0     H76210   8.888   1.025   3.929  3.0070  1.7657  0.2325
  565MOL0     H76211   9.028   0.967   3.831  0.2342  3.9160  1.5840
  565MOL0     H76212   8.860   1.089   3.714  1.7524 -0.1427  1.0299
  565MOL0     H76213   8.740   0.963   3.717  0.9348 -0.3829 -1.4679
  565MOL0     H76214   8.866   0.800   3.609  1.6195 -0.4517  0.7110
  565MOL0     H76215   9.021   0.891   3.613  0.4116  0.3016  0.8959
  565MOL0     H76216   8.772   0.984   3.444 -0.3473 -2.2355  2.3313
  565MOL0     H76217   8.920   1.065   3.477  0.6766  0.5016  0.1253
  565MOL0     H76218   8.959   0.971   3.268 -0.4972 -0.9173 -0.5637
  565MOL0     H76219   9.059   0.878   3.369  2.1303  0.3021 -5.0889
  565MOL0     H76220   8.811   0.826   3.229 -0.0071 -0.9367 -1.2884
  565MOL0     H76221   8.957   0.747   3.203 -0.9618 -2.8893 -0.0419
  565MOL0     H76222   8.757   0.701   3.443 -0.0945 -0.6411 -0.2241
  565MOL0     H76223   8.913   0.635   3.462 -1.0801  2.2161  1.8965
  565MOL0     H76224   8.753   0.470   3.363  0.6593  0.3058  1.3216
  565MOL0     H76225   8.730   0.571   3.223 -0.7455 -2.5216  0.7110
  565MOL0     H76226   9.074   0.480   3.412  1.4064  1.8124 -0.2429
  565MOL0     H76227   9.274   0.330   3.334  0.0042 -1.4377 -1.3960
  565MOL0     H76228   9.328   0.342   3.171 -0.4616 -2.3796  0.7048
  565MOL0     H76229   9.314   0.570   3.355  0.9390 -1.5689  2.2451
  565MOL0     H76230   9.470   0.482   3.316 -1.5802 -1.4428  2.5250
  565MOL0     H76231   9.302   0.609   3.090  1.0169  2.1844 -1.1666
  565MOL0     H76232   9.465   0.546   3.083 -0.2646 -1.9585 -0.1975
  565MOL0     H76233   9.396   0.801   3.244 -1.2909  0.0178 -0.6629
  565MOL0     H76234   9.483   0.779   3.085  1.1088 -0.8058  0.5435
  565MOL0     H76235   9.584   0.955   3.186  1.2854 -2.1837 -1.2366
  565MOL0     H76236   9.676   1.131   3.319 -1.1166  0.6829  2.5301
  565MOL0     H76237   9.756   1.252   3.870 -0.0267  0.1511  0.1555
  565MOL0     H76238   9.863   1.449   3.973  0.6357 -1.3054 -0.0482
  565MOL0     H76239  10.156   1.692   3.760  0.3512 -1.0968  2.0681
  565MOL0     H76240  10.018   1.805   3.729 -0.0521 -0.6384 -0.7511
  565MOL0     H76241  10.143   1.772   4.009 -0.9937 -2.4721 -0.7117
  565MOL0     H76242  10.173   1.913   3.889 -0.3625 -0.2632 -0.2354
  565MOL0     H76243   9.913   1.926   3.874  0.8611  3.5271 -0.5663
  565MOL0     H76244   9.901   1.834   4.018  2.6855 -0.0750  3.5552
  565MOL0     H76245  10.100   2.068   4.009  1.1536 -0.3312  2.1495
  565MOL0     H76246  10.022   2.011   4.137  2.5960  0.8423  0.0022
  565MOL0     H76247   9.789   2.087   4.040  0.1933 -2.4940 -0.4774
  565MOL0     H76248   9.867   2.165   3.908 -2.9881  2.5319  0.5794
  565MOL0     H76249   9.865   2.245   4.205 -0.3407  1.4358  0.0116
  565MOL0     H76250  10.020   2.267   4.130 -0.6264  0.5468  1.4409
  565MOL0     H76251   9.858   2.382   3.927 -2.1645  1.8734 -0.0637
  565MOL0     H76252   9.920   2.469   4.067 -1.1319 -0.6127  2.6709
  565MOL0     H76253   9.716   2.403   4.210  0.2031  2.8163  0.9336
  565MOL0     H76254   9.719   2.531   4.099 -0.0108 -0.6999  2.7259
  565MOL0     H76255   9.986   1.608   3.598 -0.7870  0.1252  0.7274
  565MOL0     H76256   9.897   1.421   3.484  3.1553  1.7145  1.0486
  565MOL0     H76257   9.866   0.842   3.580 -0.8355  1.8006  1.0241
  565MOL0     H76258   9.748   0.653   3.439 -1.9827 -0.8262  4.2041
  565MOL0     H76259   8.779   0.623   3.814 -2.2315 -1.6107 -0.3895
  565MOL0     H76260   8.539   0.564   3.850 -0.7377 -0.1834 -0.0880
  565MOL0     H76261   8.173   0.546   3.937  0.9764 -0.2063  0.4454
  565MOL0     H76262   7.955   0.419   3.953 -3.5703 -1.9056  3.1645
  565MOL0     H76263   7.692   0.515   4.302 -1.9300 -1.1104  3.0741
  565MOL0     H76264   7.789   0.383   4.370 -0.3251 -1.3695 -0.3985
  565MOL0     H76265   7.657   0.198   4.276 -0.2842 -0.3278  0.1769
  565MOL0     H76266   7.583   0.324   4.165 -0.0191 -0.5900 -0.0461
  565MOL0     H76267   7.415   0.253   4.332  0.9748 -0.2921  0.2818
  565MOL0     H76268   7.462   0.417   4.374  2.1573  2.1390  1.0063
  565MOL0     H76269   7.603   0.321   4.565  1.7647 -0.7685 -0.0926
  565MOL0     H76270   7.431   0.298   4.578  0.2949 -3.9116  0.8407
  565MOL0     H76271   7.583  -0.086   4.520 -1.3280 -0.1607 -0.8757
  565MOL0     H76272   7.936   0.547   4.370  0.8782  0.7766  1.2636
  565MOL0     H76273   8.234   0.619   4.424  0.5584  0.1003 -0.8335
  565MOL0     H76274   8.190   0.792   4.385  2.6074 -0.0915  3.1882
  565MOL0     H76275   8.080   0.690   4.463 -0.4049 -0.8579 -0.8208
  566MOL0     O76276  10.846   9.455   5.013  0.3683 -1.2639 -0.1240
  566MOL0     C76277  10.838   9.423   5.131 -1.6930  1.5420 -0.2720
  566MOL0     O76278  10.798   9.496   5.230 -0.4001 -0.3160  0.3329
  566MOL0     C76279  10.777   9.628   5.220  0.8222  0.3919  0.0664
  566MOL0     C76280  10.862   9.710   5.146 -0.3493 -0.1912  0.0503
  566MOL0     C76281  10.845   9.849   5.135 -0.2920 -0.0167  0.1740
  566MOL0     C76282  10.729   9.909   5.201  0.2462  0.3884 -0.7595
  566MOL0     O76283  10.721  10.042   5.188 -0.1040 -0.2429  0.2826
  566MOL0     C76284  10.667  10.112   5.305 -0.3722  0.0233  0.7967
  566MOL0     C76285  10.711  10.257   5.285  0.1307  0.5506  0.6513
  566MOL0     C76286  10.669  10.352   5.398  1.0112  0.3544  0.5049
  566MOL0     C76287  10.691  10.303   5.548  0.1630 -0.4996  0.1337
  566MOL0     C76288  10.688  10.418   5.644  0.0451 -1.1262  0.4981
  566MOL0     C76289  10.710  10.380   5.790 -0.6532  0.7647  0.1218
  566MOL0     C76290  10.843  10.310   5.832 -0.6042 -1.2789 -0.6040
  566MOL0     C76291  10.834  10.252   5.974 -0.4777  0.4034 -0.4079
  566MOL0     N76292  10.958  10.181   5.993 -0.0031 -0.0829 -0.0323
  566MOL0     C76293  10.976  10.044   5.991  0.0129 -0.3738  0.3505
  566MOL0     C76294  11.106  10.024   6.018  0.5871 -0.1664 -0.4428
  566MOL0     C76295  11.187   9.894   6.008 -0.7235 -0.4131 -0.6624
  566MOL0     C76296  11.194   9.841   6.146 -0.0975 -0.1651 -0.2531
  566MOL0     C76297  11.241   9.691   6.144 -0.0606  0.2450  0.6431
  566MOL0     C76298  11.254   9.643   6.289  1.3137  0.1591 -0.3364
  566MOL0     O76299  11.325   9.518   6.295  0.1961 -0.6280  0.4611
  566MOL0     C76300  11.320   9.461   6.420 -0.8475  0.4094  0.1272
  566MOL0     C76301  11.294   9.533   6.543 -0.3530  0.0236  0.4384
  566MOL0     C76302  11.310   9.473   6.669 -0.4251 -0.6547  1.2568
  566MOL0     C76303  11.352   9.337   6.674  0.7408 -0.3489 -0.1281
  566MOL0     C76304  11.370   9.288   6.808 -0.9704 -0.6757  0.6470
  566MOL0     O76305  11.364   9.388   6.903  0.7827 -0.2759 -0.2643
  566MOL0     C76306  11.381   9.357   7.030  0.3756  0.6414 -0.3028
  566MOL0     C76307  11.337   9.238   7.095  0.5895  0.1068 -1.0675
  566MOL0     C76308  11.378   9.201   7.221 -0.4679 -0.3804 -0.2817
  566MOL0     C76309  11.458   9.282   7.294  0.8550  0.8042 -0.3896
  566MOL0     O76310  11.519   9.233   7.411 -0.5471 -0.4370  0.1530
  566MOL0     C76311  11.626   9.303   7.479  0.9124  0.5841 -1.1197
  566MOL0     C76312  11.680   9.199   7.587 -0.2475 -0.2457  0.4610
  566MOL0     C76313  11.755   9.282   7.694 -0.3383  1.4184  0.4443
  566MOL0     C76314  11.796   9.186   7.804 -0.1585 -0.3692 -1.0475
  566MOL0     C76315  11.891   9.251   7.907  0.5574  0.0683 -0.8466
  566MOL0     C76316  11.908   9.169   8.039 -0.1694  0.3940  0.5216
  566MOL0     C76317  11.777   9.151   8.122  1.4555 -0.4847  0.6897
  566MOL0     C76318  11.762   9.004   8.164  0.8498  0.5080  0.4631
  566MOL0    Cl76319  11.884   8.973   8.290  0.0020  0.5059  0.0700
  566MOL0     C76320  11.482   9.411   7.246 -0.0791 -0.0464 -0.3644
  566MOL0     C76321  11.438   9.443   7.119  0.4465 -0.1617 -0.1158
  566MOL0     O76322  11.407   9.175   6.824  0.4129 -0.3218  0.5924
  566MOL0     C76323  11.371   9.265   6.558  0.0183  0.0033 -1.1045
  566MOL0     C76324  11.364   9.325   6.428  0.6996  0.3965 -0.0376
  566MOL0     N76325  11.174  10.149   6.019 -0.3875 -0.3272  0.7817
  566MOL0     N76326  11.081  10.238   6.027  0.0668  0.5978  0.4948
  566MOL0     C76327  10.638   9.827   5.268  0.0670  0.5804  0.5891
  566MOL0     C76328  10.658   9.685   5.273 -0.1007 -0.5237 -0.0430
  566MOL0     C76329  10.869   9.272   5.172 -0.8468  0.1376 -0.1789
  566MOL0     C76330  10.834   9.224   5.297 -0.4194 -0.2279 -0.7633
  566MOL0     C76331  10.874   9.102   5.346 -0.1858  0.1553 -1.0298
  566MOL0     C76332  10.945   9.012   5.265 -0.0166  0.0361 -0.1269
  566MOL0     O76333  10.983   8.879   5.291 -0.4225 -0.5587  0.2282
  566MOL0     C76334  11.022   8.851   5.429  0.1061  0.0345 -0.1467
  566MOL0     C76335  11.079   8.715   5.445 -0.4428 -0.5361  1.1950
  566MOL0     C76336  11.060   8.667   5.594 -0.7552 -0.3475 -0.0276
  566MOL0     C76337  11.125   8.525   5.620  1.2484 -0.3557 -0.7280
  566MOL0     C76338  11.135   8.495   5.764 -0.5008 -0.8091 -0.4565
  566MOL0     C76339  11.153   8.456   5.876 -0.6261 -0.1386 -0.4626
  566MOL0     C76340  10.982   9.064   5.144 -0.5449 -0.5171  0.6280
  566MOL0     C76341  10.936   9.182   5.088  0.1610  0.9820 -0.4236
  566MOL0     C76342  10.996   9.212   4.959 -0.3725 -0.1321  0.8024
  566MOL0     H76343  10.952   9.672   5.098  0.2050  1.7229 -0.5326
  566MOL0     H76344  10.910   9.920   5.084 -2.1841  1.2915 -0.5249
  566MOL0     H76345  10.562  10.093   5.328 -0.3457  0.4629  1.2939
  566MOL0     H76346  10.731  10.083   5.389  0.2932 -1.8767 -0.2808
  566MOL0     H76347  10.682  10.297   5.187  1.0722  2.1024  0.9621
  566MOL0     H76348  10.821  10.251   5.286  0.0755 -1.1189  0.0415
  566MOL0     H76349  10.564  10.376   5.379  1.0386 -0.0970 -0.3009
  566MOL0     H76350  10.732  10.440   5.379 -0.1623  0.7831 -1.8299
  566MOL0     H76351  10.610  10.234   5.573 -1.3815  1.0988 -0.3072
  566MOL0     H76352  10.784  10.245   5.550  1.1816  1.0481 -0.6681
  566MOL0     H76353  10.765  10.495   5.627  1.1030 -1.0495  4.6507
  566MOL0     H76354  10.593  10.471   5.633  0.3848 -0.8967 -2.1048
  566MOL0     H76355  10.707  10.470   5.851  0.3796  0.2984  0.8813
  566MOL0     H76356  10.622  10.320   5.816  0.8612 -1.4129  0.5436
  566MOL0     H76357  10.926  10.382   5.837 -0.2099 -1.7436 -0.4217
  566MOL0     H76358  10.865  10.235   5.755  3.1195 -3.6315  2.4165
  566MOL0     H76359  10.815  10.335   6.043 -1.6519 -1.1028  1.1753
  566MOL0     H76360  10.742  10.192   5.971 -1.1624  1.4697 -2.4109
  566MOL0     H76361  10.899   9.968   5.987 -1.4268  1.0640  0.0510
  566MOL0     H76362  11.126   9.820   5.954  0.1102 -0.9118 -0.9464
  566MOL0     H76363  11.288   9.918   5.974 -0.4319  0.4465  0.7272
  566MOL0     H76364  11.245   9.898   6.224 -0.1310 -1.6466  0.9080
  566MOL0     H76365  11.095   9.842   6.192 -0.5761 -0.5907 -1.2275
  566MOL0     H76366  11.341   9.676   6.103 -0.3548 -0.1415  0.0452
  566MOL0     H76367  11.178   9.618   6.092  1.4433 -0.3234 -0.4598
  566MOL0     H76368  11.152   9.620   6.324 -0.1022  2.1977 -2.7853
  566MOL0     H76369  11.300   9.722   6.348  0.2857  1.0292 -0.6647
  566MOL0     H76370  11.264   9.637   6.540 -0.5734 -0.0526 -0.4536
  566MOL0     H76371  11.291   9.536   6.755 -2.1076  1.9980 -0.8820
  566MOL0     H76372  11.289   9.155   7.044  2.7351 -3.2735  1.9252
  566MOL0     H76373  11.343   9.110   7.269 -2.0167  1.6455  2.7524
  566MOL0     H76374  11.702   9.333   7.407  2.4718 -0.8539 -0.1531
  566MOL0     H76375  11.596   9.396   7.529  2.0861 -0.2483  1.3156
  566MOL0     H76376  11.597   9.139   7.627 -3.0770  1.8582 -1.7846
  566MOL0     H76377  11.759   9.142   7.537  0.7612  2.8063 -1.7194
  566MOL0     H76378  11.843   9.329   7.649  0.0629 -0.7337 -1.1300
  566MOL0     H76379  11.686   9.359   7.731 -0.0558  0.8349  2.3114
  566MOL0     H76380  11.854   9.100   7.769  3.2224  1.2589  0.0957
  566MOL0     H76381  11.708   9.154   7.861  0.2514 -0.5810 -0.5271
  566MOL0     H76382  11.849   9.348   7.936  0.4190 -0.0954 -0.4934
  566MOL0     H76383  11.989   9.259   7.860  1.2744  0.5002  0.6544
  566MOL0     H76384  11.953   9.076   8.003  2.4134  1.9684 -0.6270
  566MOL0     H76385  11.988   9.213   8.100 -0.7434 -1.5837  2.8574
  566MOL0     H76386  11.690   9.187   8.065  2.9177  0.6219 -0.9432
  566MOL0     H76387  11.788   9.215   8.210 -1.8245 -0.1413  1.0032
  566MOL0     H76388  11.663   8.983   8.206 -0.3714  1.5493 -1.7343
  566MOL0     H76389  11.758   8.937   8.078 -1.9830 -0.6996  1.4010
  566MOL0     H76390  11.557   9.475   7.292 -0.8879  0.6483 -0.0032
  566MOL0     H76391  11.461   9.541   7.080 -1.1414 -0.8190 -3.0059
  566MOL0     H76392  11.411   9.164   6.564  2.1551  0.7819 -1.1995
  566MOL0     H76393  11.362   9.266   6.337  0.4276 -2.4364  1.6737
  566MOL0     H76394  10.545   9.875   5.299 -1.5803  0.1154 -3.1197
  566MOL0     H76395  10.594   9.611   5.321  0.6758 -0.0926  1.7431
  566MOL0     H76396  10.788   9.296   5.363  0.1999  0.6457 -1.2737
  566MOL0     H76397  10.845   9.071   5.446  0.8715  0.0891 -0.7266
  566MOL0     H76398  10.932   8.853   5.491  2.1387  0.5321  3.0442
  566MOL0     H76399  11.104   8.914   5.466  0.0515  1.1956 -1.8876
  566MOL0     H76400  11.175   8.694   5.398 -1.5543  1.3588 -2.2205
  566MOL0     H76401  11.016   8.646   5.388  0.4081 -1.0545  0.8800
  566MOL0     H76402  10.953   8.659   5.611 -1.3008 -1.5545 -3.4164
  566MOL0     H76403  11.100   8.740   5.665  1.1960 -0.7911 -0.5985
  566MOL0     H76404  11.061   8.448   5.576  0.3884  0.1244 -0.3537
  566MOL0     H76405  11.229   8.529   5.589  2.2154 -2.0077  1.9668
  566MOL0     H76406  11.166   8.430   5.979  2.1019  2.9315  0.1207
  566MOL0     H76407  11.051   8.996   5.095  1.1845  1.6061 -0.0552
  566MOL0     H76408  10.912   9.211   4.890 -0.0327  1.5918  0.3249
  566MOL0     H76409  11.052   9.306   4.962  0.0041 -0.0515 -3.5314
  566MOL0     H76410  11.062   9.130   4.928  1.0314  2.2828 -3.3607
  567MOL0     O76411  10.955   9.710   1.500 -0.3468 -0.0009  0.2714
  567MOL0     C76412  11.012   9.613   1.549  0.6879  0.0345 -0.1181
  567MOL0     O76413  11.133   9.601   1.610 -0.0729  0.7274 -0.7579
  567MOL0     C76414  11.225   9.701   1.601 -0.9585 -0.9770  0.6023
  567MOL0     C76415  11.200   9.835   1.600  0.9459  0.6987  0.2400
  567MOL0     C76416  11.298   9.934   1.601 -0.3432  0.3002  1.0625
  567MOL0     C76417  11.434   9.899   1.577 -1.1459  0.0450 -0.4235
  567MOL0     O76418  11.544   9.978   1.557  0.7622  0.3601  0.0908
  567MOL0     C76419  11.555  10.094   1.640 -0.3812 -0.2820 -0.0192
  567MOL0     C76420  11.549  10.225   1.560 -0.2242  0.5038  0.4363
  567MOL0     C76421  11.424  10.239   1.459  0.2026 -0.0233  0.0760
  567MOL0     C76422  11.420  10.388   1.416  0.2218 -0.0854 -0.0466
  567MOL0     C76423  11.287  10.406   1.330  0.1952  0.4259  0.1846
  567MOL0     C76424  11.262  10.549   1.275 -0.5271 -0.0165 -0.2814
  567MOL0     C76425  11.131  10.561   1.198 -0.6247 -0.3220 -0.4496
  567MOL0     C76426  11.102  10.709   1.161 -0.3867 -0.8808  0.5386
  567MOL0     N76427  10.990  10.727   1.076 -0.5719 -0.0771  0.1237
  567MOL0     C76428  10.995  10.711   0.940  0.0083  1.3288  0.4481
  567MOL0     C76429  10.869  10.727   0.895 -0.6793  1.3264 -0.2125
  567MOL0     C76430  10.814  10.733   0.756  0.4679  0.0614  0.1524
  567MOL0     C76431  10.842  10.599   0.674 -0.1821 -0.1343  0.4031
  567MOL0     C76432  10.779  10.601   0.537  0.1017 -0.8710  0.4487
  567MOL0     C76433  10.819  10.471   0.453 -0.0496  0.4818  0.7296
  567MOL0     O76434  10.803  10.498   0.308 -0.3389 -0.1002  0.4617
  567MOL0     C76435  10.712  10.418   0.237  0.5673  0.5170 -0.4466
  567MOL0     C76436  10.651  10.485   0.137  0.2051 -0.6779  0.6653
  567MOL0     C76437  10.559  10.414   0.055  0.1302 -0.0499  0.0882
  567MOL0     C76438  10.536  10.277   0.062  0.1129 -0.5318 -0.4001
  567MOL0     C76439  10.434  10.207  -0.023  0.3361  0.2291 -0.4035
  567MOL0     O76440  10.346  10.293  -0.082  0.6869  0.3844 -0.3553
  567MOL0     C76441  10.250  10.223  -0.158 -0.0230 -0.4607  0.5493
  567MOL0     C76442  10.263  10.239  -0.300  1.1226  1.0899 -0.4636
  567MOL0     C76443  10.153  10.185  -0.378 -0.0467 -0.7112  0.0628
  567MOL0     C76444  10.033  10.134  -0.317  0.0734 -0.7836 -0.5497
  567MOL0     O76445   9.930  10.096  -0.404  0.3659  0.1938 -0.0543
  567MOL0     C76446   9.839   9.996  -0.363  0.5194  0.1743 -0.2189
  567MOL0     C76447   9.897   9.856  -0.388 -0.1590 -0.5087 -0.1309
  567MOL0     C76448   9.847   9.802  -0.523 -0.5963 -0.1222 -0.3692
  567MOL0     C76449   9.887   9.655  -0.541  0.1432  0.2292 -0.5725
  567MOL0     C76450   9.907   9.594  -0.683  0.2346 -1.0525 -0.3942
  567MOL0     C76451   9.776   9.610  -0.774 -0.5168 -1.1493 -0.5937
  567MOL0     C76452   9.749   9.759  -0.821  0.0887  0.0278 -0.6530
  567MOL0     C76453   9.665   9.760  -0.953  0.5737 -0.3003 -0.2352
  567MOL0    Cl76454   9.508   9.692  -0.923 -0.3104 -0.3668 -0.4249
  567MOL0     C76455  10.026  10.143  -0.176  0.2207  0.5432  0.2665
  567MOL0     C76456  10.136  10.179  -0.096 -0.9115  0.1295 -0.2848
  567MOL0     O76457  10.437  10.082  -0.034 -0.1918  0.7461 -0.2060
  567MOL0     C76458  10.601  10.208   0.164 -0.1727 -0.0611  0.4260
  567MOL0     C76459  10.697  10.283   0.244  0.1182  1.3721  0.2121
  567MOL0     N76460  10.801  10.761   1.007  1.2103 -0.0814  0.2755
  567MOL0     N76461  10.869  10.751   1.115 -0.3761  0.3222  0.2424
  567MOL0     C76462  11.466   9.759   1.585 -0.0808  0.6547  0.3804
  567MOL0     C76463  11.363   9.664   1.601  0.0313 -0.1863  0.4834
  567MOL0     C76464  10.930   9.486   1.570  0.4586  0.3535  0.3875
  567MOL0     C76465  10.976   9.395   1.666 -0.4598  0.5300 -0.3812
  567MOL0     C76466  10.893   9.286   1.694 -0.8627 -0.0960  0.0033
  567MOL0     C76467  10.776   9.251   1.623 -0.3113 -0.3166  0.0121
  567MOL0     O76468  10.693   9.145   1.667 -0.0733 -0.3841 -0.0819
  567MOL0     C76469  10.739   9.009   1.638  0.3335 -0.0794  0.7936
  567MOL0     C76470  10.644   8.909   1.721 -0.1089 -0.0850  0.0770
  567MOL0     C76471  10.684   8.764   1.698 -0.3173  0.1045  0.0480
  567MOL0     C76472  10.617   8.700   1.574  0.5941  0.2663  0.1843
  567MOL0     C76473  10.692   8.592   1.522  0.4705  0.8206  1.4180
  567MOL0     C76474  10.747   8.503   1.467 -0.6253 -0.3304 -0.3513
  567MOL0     C76475  10.734   9.340   1.521  0.2321  0.1394  0.3706
  567MOL0     C76476  10.809   9.457   1.489 -0.8066  0.0760 -0.5261
  567MOL0     C76477  10.734   9.558   1.400 -0.2398  0.4021 -0.9984
  567MOL0     H76478  11.098   9.873   1.604  0.3237 -0.7335 -1.1253
  567MOL0     H76479  11.259  10.035   1.599 -1.4561 -0.1038 -0.7613
  567MOL0     H76480  11.463  10.113   1.697 -4.2241 -1.5803 -5.1350
  567MOL0     H76481  11.650  10.086   1.694  1.7991 -0.8321 -3.6165
  567MOL0     H76482  11.636  10.241   1.496  1.0949  0.6478  2.2084
  567MOL0     H76483  11.548  10.306   1.633 -2.6798  0.6537  0.3062
  567MOL0     H76484  11.327  10.213   1.504 -0.7269  0.2583 -1.6608
  567MOL0     H76485  11.440  10.168   1.378  0.2909 -1.3845  1.2411
  567MOL0     H76486  11.412  10.449   1.506 -0.1973 -0.3574  0.1017
  567MOL0     H76487  11.514  10.420   1.369  2.9363 -2.8516  2.9595
  567MOL0     H76488  11.288  10.345   1.240 -1.1016  1.9058 -0.8933
  567MOL0     H76489  11.199  10.378   1.389  0.0404  0.4087 -0.0537
  567MOL0     H76490  11.248  10.613   1.363  0.1388  1.4459 -1.2075
  567MOL0     H76491  11.353  10.579   1.223 -0.2831  1.8340  1.1244
  567MOL0     H76492  11.047  10.537   1.263 -1.1442  0.3342 -0.8756
  567MOL0     H76493  11.136  10.489   1.116  1.6388 -1.4077  0.5253
  567MOL0     H76494  11.070  10.757   1.253  0.2553  4.6313 -1.7314
  567MOL0     H76495  11.190  10.767   1.133 -1.4900  0.4288 -0.3696
  567MOL0     H76496  11.078  10.688   0.874  0.6258 -2.2496  2.2351
  567MOL0     H76497  10.705  10.743   0.766  0.5550 -1.0362  3.5133
  567MOL0     H76498  10.853  10.819   0.701  2.6720 -1.8179 -1.4214
  567MOL0     H76499  10.951  10.595   0.661 -0.3189  1.9224 -2.2870
  567MOL0     H76500  10.807  10.512   0.731 -1.2707  0.5574  0.8115
  567MOL0     H76501  10.799  10.695   0.485 -0.9561 -0.5436  0.5943
  567MOL0     H76502  10.672  10.590   0.560 -0.8142 -0.9383 -3.2058
  567MOL0     H76503  10.742  10.400   0.484 -2.2614  0.8652 -3.2329
  567MOL0     H76504  10.921  10.439   0.478 -0.6252 -1.5356  0.6266
  567MOL0     H76505  10.662  10.593   0.131 -2.3387  0.0608  5.0851
  567MOL0     H76506  10.517  10.481  -0.020  1.2023  0.9296  0.3353
  567MOL0     H76507  10.357  10.284  -0.329  1.9544  1.1273  2.0535
  567MOL0     H76508  10.154  10.185  -0.487  1.0188 -1.1352  0.0552
  567MOL0     H76509   9.823   9.996  -0.254  0.4453 -1.3450 -0.2007
  567MOL0     H76510   9.739   9.997  -0.408 -0.5292  1.0888  1.9961
  567MOL0     H76511  10.006   9.864  -0.383 -0.2611  0.3258  1.3729
  567MOL0     H76512   9.873   9.787  -0.306 -1.1949 -0.7283 -0.6007
  567MOL0     H76513   9.739   9.812  -0.537 -0.8781 -0.2141  1.4667
  567MOL0     H76514   9.899   9.874  -0.586 -2.4493  1.5357 -0.1088
  567MOL0     H76515   9.816   9.590  -0.490  0.1472 -1.2293 -2.2987
  567MOL0     H76516   9.978   9.632  -0.485  0.0025  0.5147 -0.2224
  567MOL0     H76517   9.912   9.489  -0.654  0.3638 -0.9557 -0.0709
  567MOL0     H76518   9.994   9.631  -0.737  1.3426 -3.4363 -0.3828
  567MOL0     H76519   9.795   9.548  -0.862 -1.3311 -0.6746 -1.1213
  567MOL0     H76520   9.684   9.579  -0.722  0.0304 -1.9604 -0.0980
  567MOL0     H76521   9.844   9.813  -0.833  0.0123  0.1461 -0.7281
  567MOL0     H76522   9.701   9.816  -0.741  1.7942  1.1992 -0.4098
  567MOL0     H76523   9.642   9.864  -0.975  1.2636 -0.4813 -2.0058
  567MOL0     H76524   9.712   9.703  -1.034 -0.7959 -0.5414 -0.8920
  567MOL0     H76525   9.939  10.098  -0.129 -0.4348  0.5555 -0.9078
  567MOL0     H76526  10.121  10.176   0.011 -0.2311 -0.5644 -0.2002
  567MOL0     H76527  10.581  10.105   0.192 -2.9697  1.2955  4.2124
  567MOL0     H76528  10.754  10.224   0.315 -1.0260 -1.5282 -1.0982
  567MOL0     H76529  11.571   9.729   1.585 -0.0712  0.6439  1.6448
  567MOL0     H76530  11.393   9.559   1.595 -0.1654 -0.1876 -4.0296
  567MOL0     H76531  11.059   9.391   1.737  0.5985 -4.4398 -1.5077
  567MOL0     H76532  10.925   9.225   1.778 -2.2529  2.1840  2.3357
  567MOL0     H76533  10.837   8.995   1.685  0.5380  1.2533  0.8189
  567MOL0     H76534  10.743   8.983   1.532 -1.2529 -0.9914  0.9212
  567MOL0     H76535  10.538   8.924   1.697  0.2785 -0.3321 -1.9707
  567MOL0     H76536  10.662   8.933   1.826 -0.1071  1.7139 -0.3067
  567MOL0     H76537  10.674   8.720   1.798  2.1696 -1.5832 -0.3696
  567MOL0     H76538  10.791   8.758   1.679  0.1366  1.1395  2.0020
  567MOL0     H76539  10.520   8.663   1.609 -0.6518  4.3049  1.5428
  567MOL0     H76540  10.602   8.784   1.506 -0.7139  1.3635  1.7369
  567MOL0     H76541  10.801   8.419   1.429 -0.9926 -0.2694 -1.0282
  567MOL0     H76542  10.641   9.320   1.468 -0.2774  2.8685  0.0891
  567MOL0     H76543  10.808   9.614   1.342  1.5886  1.4982  2.0827
  567MOL0     H76544  10.670   9.508   1.328  0.2683 -1.5089 -0.1886
  567MOL0     H76545  10.676   9.627   1.463  3.5709  1.3287  1.8860
  568MOL0     O76546   9.426   6.929   4.583  0.2010 -1.2612 -0.1440
  568MOL0     C76547   9.369   6.841   4.647 -0.0440 -0.5371  0.0797
  568MOL0     O76548   9.313   6.735   4.590  0.2976  0.2089  0.0201
  568MOL0     C76549   9.297   6.724   4.454  0.2430 -0.0814 -0.3626
  568MOL0     C76550   9.235   6.817   4.370 -0.1255 -0.7235 -0.3331
  568MOL0     C76551   9.216   6.794   4.230 -0.9346  0.9568 -0.4036
  568MOL0     C76552   9.256   6.667   4.186  0.0777  0.8843 -0.2946
  568MOL0     O76553   9.234   6.648   4.053  0.3246 -1.0489  0.1417
  568MOL0     C76554   9.157   6.533   4.016 -0.3019 -0.3448  1.4971
  568MOL0     C76555   9.103   6.515   3.866  0.6940 -0.1158 -0.5239
  568MOL0     C76556   9.017   6.636   3.821  0.0341 -0.0693 -0.4698
  568MOL0     C76557   8.967   6.614   3.672  1.2184 -0.0116  0.6637
  568MOL0     C76558   8.866   6.723   3.623  0.0298 -0.9681  0.4664
  568MOL0     C76559   8.814   6.700   3.472 -0.4334 -0.4317  0.2728
  568MOL0     C76560   8.710   6.810   3.434 -0.1125 -0.0513  0.0554
  568MOL0     C76561   8.603   6.832   3.541  1.0050 -1.1970 -0.4569
  568MOL0     N76562   8.494   6.934   3.504 -0.4191  0.6786  0.8530
  568MOL0     C76563   8.493   7.054   3.435 -0.1567  0.1906 -0.1144
  568MOL0     C76564   8.372   7.110   3.459 -0.4242 -0.2010 -0.9732
  568MOL0     C76565   8.335   7.253   3.425  0.5540 -0.5442  1.2858
  568MOL0     C76566   8.327   7.277   3.273 -0.6304  0.5228  0.5619
  568MOL0     C76567   8.460   7.269   3.184  0.2036  0.6459 -0.1962
  568MOL0     C76568   8.560   7.390   3.195 -0.1603 -0.2208 -0.2145
  568MOL0     O76569   8.587   7.414   3.337 -0.1496  0.1960 -0.0411
  568MOL0     C76570   8.669   7.518   3.354 -0.8521 -0.8150 -0.2201
  568MOL0     C76571   8.624   7.607   3.450 -0.4558 -0.7833 -0.8198
  568MOL0     C76572   8.699   7.728   3.468 -0.6962  0.2724 -0.7549
  568MOL0     C76573   8.826   7.751   3.406  1.2404  1.1158 -0.0135
  568MOL0     C76574   8.925   7.850   3.431 -0.4199 -1.3403 -0.7618
  568MOL0     O76575   8.897   7.930   3.548  0.1639  0.7197  0.2847
  568MOL0     C76576   8.988   8.025   3.583  1.1757  0.2751 -1.1951
  568MOL0     C76577   9.106   7.977   3.628 -0.4345 -0.4046 -0.7200
  568MOL0     C76578   9.198   8.067   3.687  0.1340  0.7116 -0.4721
  568MOL0     C76579   9.169   8.197   3.706 -0.3393 -0.5511  0.7082
  568MOL0     O76580   9.250   8.274   3.779 -0.3380  0.1623 -0.0079
  568MOL0     C76581   9.187   8.367   3.867  0.4970 -0.8644  0.1438
  568MOL0     C76582   9.088   8.307   3.961 -0.1376 -0.3608  0.1304
  568MOL0     C76583   9.126   8.161   4.009  0.4824 -0.4771 -0.8370
  568MOL0     C76584   9.078   8.128   4.155 -0.4281  1.0752 -0.0916
  568MOL0     C76585   9.166   8.025   4.226  0.4047 -0.4189  0.3059
  568MOL0     C76586   9.103   7.979   4.358  0.2207 -0.1969 -0.6204
  568MOL0     C76587   9.179   7.857   4.411  1.0382  0.3720 -0.1338
  568MOL0     C76588   9.320   7.895   4.463  0.0146  0.2245  0.2403
  568MOL0    Cl76589   9.325   7.997   4.614  0.0685 -0.1928 -0.5822
  568MOL0     C76590   9.050   8.247   3.650 -0.1150  0.4357  0.3783
  568MOL0     C76591   8.950   8.157   3.602  0.5699  1.2566 -0.5116
  568MOL0     O76592   9.027   7.874   3.364  0.2373  0.4013 -0.0971
  568MOL0     C76593   8.858   7.655   3.312  0.6470 -1.0355  0.0146
  568MOL0     C76594   8.789   7.544   3.283 -0.5398 -0.0371 -0.3559
  568MOL0     N76595   8.302   7.025   3.548 -0.1906  0.2032  0.6422
  568MOL0     N76596   8.374   6.919   3.565  1.1227 -0.0373  0.0111
  568MOL0     C76597   9.284   6.567   4.273 -0.1673  0.8240  0.0171
  568MOL0     C76598   9.316   6.601   4.403 -0.3912  0.8088  0.4268
  568MOL0     C76599   9.377   6.848   4.792 -1.1315  0.1351 -0.9921
  568MOL0     C76600   9.347   6.728   4.856 -0.0692 -0.6211 -0.6041
  568MOL0     C76601   9.341   6.719   5.003  0.4777 -0.3040 -0.4231
  568MOL0     C76602   9.375   6.829   5.073  0.0742 -0.7096 -0.0490
  568MOL0     O76603   9.364   6.843   5.209 -0.3923  0.2981 -0.1774
  568MOL0     C76604   9.304   6.737   5.292 -0.0851 -0.3532  0.5171
  568MOL0     C76605   9.265   6.813   5.417 -0.2904 -0.0648  0.3067
  568MOL0     C76606   9.390   6.841   5.505 -0.2478  0.4803 -0.3935
  568MOL0     C76607   9.333   6.928   5.621  0.8213  0.0724  0.3968
  568MOL0     C76608   9.277   6.833   5.716  0.3351  0.3974 -0.0860
  568MOL0     C76609   9.227   6.744   5.786 -0.8419 -0.3247  0.6539
  568MOL0     C76610   9.407   6.950   5.010 -0.3840  0.0201 -0.4594
  568MOL0     C76611   9.417   6.959   4.871  0.9419  1.1959 -0.4585
  568MOL0     C76612   9.474   7.088   4.816 -0.5502 -0.6271  0.6175
  568MOL0     H76613   9.226   6.917   4.412  0.7830 -1.5144  1.9072
  568MOL0     H76614   9.187   6.866   4.154  0.8905 -0.0938 -2.2167
  568MOL0     H76615   9.230   6.453   4.033  1.1082  0.9143  1.5756
  568MOL0     H76616   9.069   6.512   4.077 -0.5626  0.8758  1.5551
  568MOL0     H76617   9.045   6.424   3.846 -0.2521  1.1684 -4.6178
  568MOL0     H76618   9.181   6.516   3.790 -0.5505 -1.0409 -1.8781
  568MOL0     H76619   9.069   6.732   3.818  0.1550 -0.0963  0.4834
  568MOL0     H76620   8.937   6.656   3.894  1.4399  0.7282  0.9120
  568MOL0     H76621   9.052   6.609   3.603  0.6112  2.5798 -0.4041
  568MOL0     H76622   8.922   6.515   3.670 -0.3272  0.5380 -3.9247
  568MOL0     H76623   8.789   6.708   3.700  1.3080  0.2205  2.0347
  568MOL0     H76624   8.899   6.827   3.630 -0.4586 -0.6078 -1.8592
  568MOL0     H76625   8.894   6.710   3.397 -1.1393  2.4539 -0.2195
  568MOL0     H76626   8.761   6.605   3.458 -0.8601  0.0487 -1.6871
  568MOL0     H76627   8.661   6.775   3.343  0.2228 -0.5993  0.0826
  568MOL0     H76628   8.767   6.900   3.414  2.8082 -1.6325  0.7201
  568MOL0     H76629   8.551   6.738   3.558  0.9105 -1.1574 -0.5235
  568MOL0     H76630   8.643   6.868   3.636 -1.7447 -0.6088  0.5786
  568MOL0     H76631   8.581   7.080   3.377 -1.1383 -0.9579 -2.2130
  568MOL0     H76632   8.236   7.265   3.470 -0.9236 -0.2143 -1.7679
  568MOL0     H76633   8.399   7.327   3.475  0.8464 -0.0817  0.2436
  568MOL0     H76634   8.257   7.212   3.221 -3.2363 -0.0171  4.3623
  568MOL0     H76635   8.290   7.380   3.269 -1.8087  0.1039  0.3015
  568MOL0     H76636   8.411   7.259   3.087 -0.6078  1.9156  0.0540
  568MOL0     H76637   8.512   7.175   3.204 -2.1970 -0.3064  2.3766
  568MOL0     H76638   8.513   7.475   3.145  0.3045 -0.0100 -0.3063
  568MOL0     H76639   8.649   7.361   3.138 -1.5315 -2.2752 -1.4618
  568MOL0     H76640   8.533   7.575   3.498  0.9278 -0.6265  2.1179
  568MOL0     H76641   8.654   7.807   3.528 -0.1028 -0.4253  0.6633
  568MOL0     H76642   9.131   7.871   3.628 -0.1597 -0.3405 -0.5530
  568MOL0     H76643   9.292   8.031   3.728  0.3037  0.9456 -0.6547
  568MOL0     H76644   9.270   8.405   3.926  0.2122  1.3489 -0.7992
  568MOL0     H76645   9.144   8.454   3.817  2.4296 -0.3062 -0.6106
  568MOL0     H76646   9.081   8.377   4.045 -1.5175 -1.1022  0.6800
  568MOL0     H76647   8.991   8.306   3.910  0.9417 -0.0513 -2.0187
  568MOL0     H76648   9.081   8.098   3.931 -1.3752  0.1285 -0.3017
  568MOL0     H76649   9.235   8.149   4.017  0.4591  0.3617  1.2061
  568MOL0     H76650   8.973   8.096   4.150  0.5073 -2.3104 -0.4246
  568MOL0     H76651   9.071   8.220   4.212 -1.4451  2.0145 -1.6556
  568MOL0     H76652   9.258   8.077   4.254 -0.1201 -0.6970  2.7767
  568MOL0     H76653   9.186   7.938   4.163  1.5738 -1.6167  2.2356
  568MOL0     H76654   9.118   8.054   4.436  1.2224  0.0165 -0.9983
  568MOL0     H76655   8.997   7.956   4.344 -0.6965  1.0507  3.1211
  568MOL0     H76656   9.179   7.784   4.330 -1.2391 -1.2387  1.2304
  568MOL0     H76657   9.127   7.812   4.496 -0.3409 -1.6055 -1.9454
  568MOL0     H76658   9.365   7.799   4.492 -1.1122 -0.6227 -0.7088
  568MOL0     H76659   9.386   7.933   4.384  1.7739 -1.9480  0.5598
  568MOL0     H76660   9.026   8.349   3.676  1.5494  1.3925 -1.5859
  568MOL0     H76661   8.849   8.193   3.583  0.4974  1.9288  0.9459
  568MOL0     H76662   8.951   7.669   3.257  0.1106 -0.3490 -0.7546
  568MOL0     H76663   8.831   7.488   3.200 -1.1763 -2.0763  0.6116
  568MOL0     H76664   9.291   6.460   4.256 -0.3233  0.4753  1.9146
  568MOL0     H76665   9.339   6.522   4.474  1.2352  0.8868  0.0236
  568MOL0     H76666   9.313   6.638   4.806  0.6421 -0.0418 -2.2069
  568MOL0     H76667   9.334   6.621   5.049 -1.4473  1.5047  3.6467
  568MOL0     H76668   9.366   6.656   5.330 -1.4917 -0.5719  2.4705
  568MOL0     H76669   9.225   6.695   5.229  1.9890 -4.0382  0.1091
  568MOL0     H76670   9.187   6.753   5.465  0.5240  0.1320  1.9365
  568MOL0     H76671   9.218   6.910   5.397  1.7430  0.5924 -1.6517
  568MOL0     H76672   9.456   6.905   5.446 -2.3113  4.6325  1.3042
  568MOL0     H76673   9.445   6.751   5.534 -0.3026  0.9144  1.1532
  568MOL0     H76674   9.410   6.994   5.663  0.0016  0.2269  1.6990
  568MOL0     H76675   9.259   6.999   5.585  2.3669  2.1010  1.0261
  568MOL0     H76676   9.174   6.659   5.824 -0.3114 -0.3130  1.4328
  568MOL0     H76677   9.437   7.034   5.071  3.2398  0.0625 -2.0698
  568MOL0     H76678   9.542   7.045   4.742  0.6762 -2.5720  2.7574
  568MOL0     H76679   9.407   7.161   4.769  0.6235 -0.5535 -1.0339
  568MOL0     H76680   9.533   7.139   4.892 -2.4037  2.0061  0.4095
  569MOL0     O76681   3.614   9.754   3.835 -0.2471  0.2239  0.5279
  569MOL0     C76682   3.503   9.765   3.877  0.5131 -0.0248  0.2805
  569MOL0     O76683   3.389   9.745   3.801 -0.4792 -0.4962  0.4165
  569MOL0     C76684   3.385   9.663   3.687 -0.0413  0.6734  0.0513
  569MOL0     C76685   3.285   9.679   3.586 -0.0300  1.7427 -0.0080
  569MOL0     C76686   3.277   9.594   3.474 -0.1413 -0.2254  0.4180
  569MOL0     C76687   3.361   9.485   3.458  0.7177 -0.9033 -0.1194
  569MOL0     O76688   3.337   9.395   3.352  0.0768 -0.1117  0.7747
  569MOL0     C76689   3.443   9.312   3.303  0.0154  0.7318  0.2540
  569MOL0     C76690   3.402   9.227   3.177  0.7326 -0.4274  0.3308
  569MOL0     C76691   3.324   9.101   3.218  0.4103  0.3842 -0.4801
  569MOL0     C76692   3.310   8.995   3.114 -0.7246 -1.2104 -0.8266
  569MOL0     C76693   3.198   8.889   3.152 -1.3581 -0.6670 -0.0801
  569MOL0     C76694   3.243   8.756   3.084  0.4990 -0.0880 -0.4223
  569MOL0     C76695   3.142   8.641   3.069  0.5147  0.3419 -0.2982
  569MOL0     C76696   3.076   8.658   2.932  0.1918  0.1213  0.5320
  569MOL0     N76697   2.959   8.562   2.911  0.1710  0.5749 -0.0884
  569MOL0     C76698   2.964   8.420   2.902 -0.7954  0.6842  0.0904
  569MOL0     C76699   2.854   8.380   2.856  0.3220 -0.0589  1.1324
  569MOL0     C76700   2.826   8.232   2.828  0.8555  0.6840  0.6273
  569MOL0     C76701   2.783   8.203   2.676  0.4519 -0.4134  0.7317
  569MOL0     C76702   2.755   8.058   2.626 -0.9779  0.1049 -0.8139
  569MOL0     C76703   2.864   7.957   2.672  0.5985 -1.3606  0.3249
  569MOL0     O76704   2.845   7.841   2.591 -0.7382 -0.1129 -0.6997
  569MOL0     C76705   2.929   7.745   2.598 -0.0351  0.4896 -0.3517
  569MOL0     C76706   2.933   7.660   2.487 -0.3466 -1.2550  0.8817
  569MOL0     C76707   3.039   7.565   2.480  0.5561  0.1844  0.3523
  569MOL0     C76708   3.108   7.526   2.584  0.8873 -0.0617  0.3755
  569MOL0     C76709   3.188   7.409   2.592  0.1358  0.1209 -0.1032
  569MOL0     O76710   3.145   7.296   2.530  0.1357  0.4865  0.4261
  569MOL0     C76711   3.185   7.173   2.574 -0.7275 -0.1281 -0.0882
  569MOL0     C76712   3.087   7.092   2.628  0.8902  0.5380 -0.6085
  569MOL0     C76713   3.109   6.976   2.684  0.5527  0.6388 -0.3731
  569MOL0     C76714   3.240   6.917   2.682  0.1840  0.6998  0.1255
  569MOL0     O76715   3.281   6.792   2.728  0.6019 -0.3595  0.3620
  569MOL0     C76716   3.218   6.730   2.842 -0.8017 -0.8282  0.5152
  569MOL0     C76717   3.222   6.816   2.969 -0.9046 -0.3467 -0.2953
  569MOL0     C76718   3.373   6.850   2.997  0.8521  0.8515  0.5133
  569MOL0     C76719   3.406   6.887   3.140  0.5645 -0.0190  0.3080
  569MOL0     C76720   3.565   6.891   3.162  0.2819 -0.2278  1.4189
  569MOL0     C76721   3.603   6.952   3.290  0.1681  0.4928  0.4982
  569MOL0     C76722   3.737   6.899   3.331  1.1849  0.1664  0.9485
  569MOL0     C76723   3.865   6.941   3.250  0.2457  0.8922 -0.7583
  569MOL0    Cl76724   3.914   7.101   3.318  0.0894  0.3863  0.2322
  569MOL0     C76725   3.347   6.993   2.630  0.8820  0.8302 -0.3280
  569MOL0     C76726   3.316   7.121   2.580 -0.1022 -0.2778  0.0012
  569MOL0     O76727   3.291   7.426   2.656  0.0945  0.9708 -0.2828
  569MOL0     C76728   3.095   7.616   2.698  0.0063  0.0959  1.1541
  569MOL0     C76729   3.014   7.721   2.710 -0.5111 -0.5164 -0.3624
  569MOL0     N76730   2.773   8.492   2.847 -0.0248  0.7049 -0.8347
  569MOL0     N76731   2.835   8.603   2.876  0.2656  0.2769  1.1202
  569MOL0     C76732   3.463   9.476   3.556  0.5128 -0.0051  0.3275
  569MOL0     C76733   3.471   9.561   3.665 -0.1884  0.5432  0.1634
  569MOL0     C76734   3.482   9.818   4.012  0.1493  0.7221 -0.6526
  569MOL0     C76735   3.582   9.778   4.101 -0.4320 -0.1827  0.2990
  569MOL0     C76736   3.570   9.807   4.234 -0.6136  0.3507  0.0671
  569MOL0     C76737   3.458   9.887   4.274 -0.2391  0.0155 -0.5109
  569MOL0     O76738   3.436   9.918   4.409 -0.7241  0.0658 -0.3039
  569MOL0     C76739   3.518   9.861   4.523  0.1648 -0.1142 -0.8838
  569MOL0     C76740   3.470   9.719   4.567 -0.8869  0.1043 -0.2567
  569MOL0     C76741   3.528   9.604   4.481 -0.4396  0.3162 -0.2043
  569MOL0     C76742   3.535   9.463   4.549 -0.4257  0.5632  0.0059
  569MOL0     C76743   3.427   9.455   4.652  0.1010  0.3049  0.4203
  569MOL0     C76744   3.339   9.442   4.735 -0.0574 -0.8644  0.7488
  569MOL0     C76745   3.367   9.932   4.182 -0.1166 -0.5796  0.0426
  569MOL0     C76746   3.364   9.889   4.054  0.4967  0.4055  0.1913
  569MOL0     C76747   3.269   9.950   3.952  0.0064  0.0103 -0.9773
  569MOL0     H76748   3.204   9.750   3.597 -0.8844  1.1071 -1.8348
  569MOL0     H76749   3.191   9.606   3.410 -1.2890 -1.4986  1.6568
  569MOL0     H76750   3.534   9.367   3.275  0.7979  0.6282  2.4115
  569MOL0     H76751   3.466   9.244   3.386  1.2111  1.1776  0.3125
  569MOL0     H76752   3.495   9.207   3.124  2.8257  2.7806  2.4200
  569MOL0     H76753   3.343   9.281   3.103 -0.4363 -0.7532  0.9950
  569MOL0     H76754   3.220   9.116   3.249 -0.5393 -0.6247 -2.9594
  569MOL0     H76755   3.381   9.064   3.304 -0.8909 -0.1147  0.2127
  569MOL0     H76756   3.303   9.035   3.013 -0.1373  2.2529  0.3697
  569MOL0     H76757   3.407   8.946   3.126 -0.8326 -1.6309 -1.6546
  569MOL0     H76758   3.190   8.875   3.260  0.4796  0.0705  0.1780
  569MOL0     H76759   3.102   8.931   3.119 -0.2543  1.6138 -0.5676
  569MOL0     H76760   3.283   8.774   2.984  5.0292 -1.4929  0.9084
  569MOL0     H76761   3.336   8.722   3.129  1.2355  2.1904 -0.0950
  569MOL0     H76762   3.072   8.643   3.153  1.4022 -1.5872  0.5402
  569MOL0     H76763   3.191   8.544   3.081 -0.3908 -0.2878 -1.4206
  569MOL0     H76764   3.028   8.754   2.914 -2.5342 -1.6535 -3.2094
  569MOL0     H76765   3.143   8.638   2.847 -0.8511  4.4950 -1.5925
  569MOL0     H76766   3.056   8.369   2.928 -0.8434  0.6995  0.2918
  569MOL0     H76767   2.912   8.170   2.853  0.5972 -0.7060 -1.6415
  569MOL0     H76768   2.745   8.196   2.893 -1.8134  2.7864 -1.3062
  569MOL0     H76769   2.695   8.259   2.643  0.7551 -0.8009 -0.8318
  569MOL0     H76770   2.869   8.231   2.614 -1.4632  1.9499 -1.0110
  569MOL0     H76771   2.739   8.052   2.518 -2.4134  0.1962 -0.6317
  569MOL0     H76772   2.660   8.029   2.673 -0.2438  0.6790  1.1391
  569MOL0     H76773   2.865   7.948   2.781 -1.0663 -4.2428  0.2001
  569MOL0     H76774   2.962   7.995   2.640 -0.4494 -1.0571 -2.8791
  569MOL0     H76775   2.867   7.665   2.401  2.0194 -1.0327 -1.0447
  569MOL0     H76776   3.032   7.498   2.395 -0.7607 -0.6202  1.0597
  569MOL0     H76777   2.986   7.131   2.619 -1.3630 -3.4637  3.2292
  569MOL0     H76778   3.025   6.931   2.735 -0.0550  0.2911 -1.6406
  569MOL0     H76779   3.114   6.698   2.831 -0.8376  0.0545 -2.6061
  569MOL0     H76780   3.277   6.639   2.856  2.1870  0.7518 -0.8790
  569MOL0     H76781   3.161   6.905   2.950 -0.7660 -0.6526 -2.4879
  569MOL0     H76782   3.181   6.761   3.054 -3.2027 -0.4122 -1.3544
  569MOL0     H76783   3.434   6.770   2.953 -1.1139  1.2362 -3.2872
  569MOL0     H76784   3.401   6.937   2.937  0.4078  2.2319  2.2346
  569MOL0     H76785   3.360   6.819   3.212 -2.3545  2.9597  1.5398
  569MOL0     H76786   3.367   6.987   3.162 -0.7979 -0.4787  0.0838
  569MOL0     H76787   3.597   6.951   3.077 -1.4087  0.4124  1.2077
  569MOL0     H76788   3.601   6.789   3.147 -2.5998 -1.2727  1.0419
  569MOL0     H76789   3.613   7.059   3.271  2.2579  0.1421 -0.7512
  569MOL0     H76790   3.530   6.916   3.363 -1.8834 -1.6236 -2.3387
  569MOL0     H76791   3.736   6.790   3.330 -3.0012  0.0625  1.6008
  569MOL0     H76792   3.755   6.935   3.432  0.7704  1.9455  0.4227
  569MOL0     H76793   3.948   6.874   3.275 -1.4154 -0.5897  1.1405
  569MOL0     H76794   3.866   6.929   3.141 -1.9776 -1.3003 -0.6345
  569MOL0     H76795   3.452   6.967   2.633  0.9661  1.0584 -1.0721
  569MOL0     H76796   3.388   7.187   2.533 -1.1706 -0.3682 -1.8660
  569MOL0     H76797   3.149   7.596   2.790 -2.0005 -3.2502  1.7693
  569MOL0     H76798   3.026   7.783   2.799  0.0972 -2.1043  0.7088
  569MOL0     H76799   3.535   9.399   3.531 -2.3502 -2.1839 -2.0353
  569MOL0     H76800   3.550   9.547   3.738  0.8303 -0.4611 -1.0684
  569MOL0     H76801   3.661   9.706   4.081  0.5941  0.1595  2.7217
  569MOL0     H76802   3.652   9.762   4.289  0.8354 -0.1698 -2.3848
  569MOL0     H76803   3.515   9.939   4.599 -0.0277  0.2880 -1.3019
  569MOL0     H76804   3.626   9.872   4.505  0.5676  2.8148  2.3827
  569MOL0     H76805   3.361   9.709   4.563 -0.8268 -6.5580  1.9546
  569MOL0     H76806   3.502   9.710   4.672  1.3106  1.5202 -0.7417
  569MOL0     H76807   3.634   9.627   4.464 -0.2222  1.7579  2.5115
  569MOL0     H76808   3.473   9.589   4.388 -2.8809 -0.9122  1.3130
  569MOL0     H76809   3.524   9.381   4.477 -2.0149 -1.6314  2.5811
  569MOL0     H76810   3.636   9.451   4.589 -0.5932  3.1650  1.4337
  569MOL0     H76811   3.270   9.438   4.817 -2.0926 -1.4478 -0.9207
  569MOL0     H76812   3.299  10.012   4.208 -0.4923 -0.7829 -0.2988
  569MOL0     H76813   3.219   9.876   3.890  1.3316 -1.1989 -0.6465
  569MOL0     H76814   3.185  10.008   3.992  0.7960 -0.4613  1.5511
  569MOL0     H76815   3.325  10.032   3.907  0.0086  2.7584  3.3982
  570MOL0     O76816   8.977   0.590   9.035 -0.4835  0.0533  1.0658
  570MOL0     C76817   9.063   0.632   8.958 -0.0227 -0.2575  0.5105
  570MOL0     O76818   9.119   0.756   8.959 -0.6300  0.6484  0.0300
  570MOL0     C76819   9.082   0.832   9.070 -0.0603  0.5742 -0.0567
  570MOL0     C76820   9.129   0.808   9.196 -0.6381 -0.5610  0.4479
  570MOL0     C76821   9.117   0.904   9.299  0.3887  0.7186 -0.0848
  570MOL0     C76822   9.043   1.022   9.273  0.2724 -0.7706 -0.9443
  570MOL0     O76823   9.028   1.118   9.377  0.3727  0.3977  0.1861
  570MOL0     C76824   9.144   1.171   9.435  0.2192 -0.5774 -0.2280
  570MOL0     C76825   9.214   1.281   9.358 -0.1957  0.2057 -0.2442
  570MOL0     C76826   9.115   1.397   9.333  0.3008 -0.5302 -0.1698
  570MOL0     C76827   9.079   1.471   9.460  0.0913  0.3956  0.1603
  570MOL0     C76828   8.951   1.562   9.438  0.0838  1.2107 -0.0363
  570MOL0     C76829   8.816   1.483   9.428 -0.0307  0.6189 -0.4534
  570MOL0     C76830   8.754   1.458   9.574 -0.1923  0.8945 -0.5740
  570MOL0     C76831   8.610   1.404   9.564 -0.3347 -0.4121 -1.8534
  570MOL0     N76832   8.582   1.280   9.492  0.3847 -0.5459  0.0875
  570MOL0     C76833   8.663   1.173   9.463 -0.1575  0.0131 -0.6877
  570MOL0     C76834   8.593   1.083   9.404 -0.6964  0.0013 -0.5345
  570MOL0     C76835   8.653   0.950   9.377  0.6098  0.0860  1.7769
  570MOL0     C76836   8.580   0.875   9.254 -0.2345 -0.9923 -0.7747
  570MOL0     C76837   8.482   0.775   9.311 -0.1109 -0.5539 -0.0123
  570MOL0     C76838   8.418   0.680   9.204 -0.1794 -0.7714  0.2412
  570MOL0     O76839   8.324   0.580   9.253  0.0799  0.1009 -0.6485
  570MOL0     C76840   8.256   0.506   9.153  0.7554 -0.7231  0.4795
  570MOL0     C76841   8.149   0.426   9.188 -0.0951  0.0498  0.1547
  570MOL0     C76842   8.059   0.368   9.107 -0.7975  0.2755  0.3370
  570MOL0     C76843   8.077   0.377   8.969 -0.1654 -0.3992  0.1187
  570MOL0     C76844   7.969   0.327   8.872  0.9282  0.4112  0.3337
  570MOL0     O76845   7.852   0.265   8.922  0.0803  0.1020  0.4165
  570MOL0     C76846   7.749   0.211   8.845 -0.2369  0.7826  0.1679
  570MOL0     C76847   7.731   0.221   8.705 -0.2963  1.0612  0.0153
  570MOL0     C76848   7.615   0.177   8.641 -0.3175  0.6076  0.4932
  570MOL0     C76849   7.513   0.111   8.724 -0.6163 -0.7662 -0.3777
  570MOL0     O76850   7.405   0.043   8.671 -0.4302 -0.0168 -0.5912
  570MOL0     C76851   7.278   0.102   8.680  0.3653  0.1005 -1.1494
  570MOL0     C76852   7.281   0.232   8.589 -0.1624  0.5146  0.4280
  570MOL0     C76853   7.220   0.197   8.453  1.0214 -0.3872 -0.0334
  570MOL0     C76854   7.177   0.322   8.378 -0.3040 -0.5517  0.7343
  570MOL0     C76855   7.083   0.294   8.255 -0.0992  0.7848  0.5043
  570MOL0     C76856   7.147   0.224   8.141  0.6504  0.0942  0.2056
  570MOL0     C76857   7.061   0.233   8.020  0.5797  0.6441  0.1953
  570MOL0     C76858   7.129   0.239   7.886  0.2817  0.2512  0.3919
  570MOL0    Cl76859   7.269   0.121   7.892 -0.3756 -0.4778 -0.3655
  570MOL0     C76860   7.539   0.090   8.855  0.1393  0.0256 -0.9287
  570MOL0     C76861   7.653   0.145   8.912  0.6977 -0.1444 -0.4041
  570MOL0     O76862   7.994   0.339   8.753  0.1695 -1.0175 -0.0564
  570MOL0     C76863   8.187   0.451   8.920  0.0035 -0.3662 -0.9394
  570MOL0     C76864   8.275   0.517   9.017 -1.2037 -0.5513 -0.0793
  570MOL0     N76865   8.465   1.145   9.379  0.2958  0.4784  0.4215
  570MOL0     N76866   8.465   1.256   9.428 -0.4177  0.3883 -0.7077
  570MOL0     C76867   8.968   1.031   9.152 -0.4363  0.6382  0.3328
  570MOL0     C76868   9.002   0.940   9.051 -0.8155 -0.9540 -0.3714
  570MOL0     C76869   9.114   0.548   8.843  0.8225 -0.1545 -0.3711
  570MOL0     C76870   9.188   0.611   8.742  0.8737  0.5055 -0.1681
  570MOL0     C76871   9.249   0.538   8.641 -1.0656 -0.4366 -1.0847
  570MOL0     C76872   9.239   0.399   8.640  0.4081 -0.7028  0.3427
  570MOL0     O76873   9.316   0.318   8.559  0.2493  0.1045  0.1922
  570MOL0     C76874   9.396   0.376   8.449 -0.6126  0.3578 -0.5948
  570MOL0     C76875   9.454   0.256   8.377 -0.3984  0.1459  1.0829
  570MOL0     C76876   9.528   0.164   8.475 -0.3256 -0.9621 -0.0934
  570MOL0     C76877   9.608   0.051   8.409 -0.2846  0.0284 -1.1695
  570MOL0     C76878   9.530  -0.054   8.328 -0.2293 -0.5464  0.4335
  570MOL0     C76879   9.491  -0.131   8.251  0.7493 -0.3122  0.9434
  570MOL0     C76880   9.165   0.337   8.736  0.2392  1.4835 -0.1021
  570MOL0     C76881   9.099   0.410   8.837 -0.4420 -0.5787  0.0900
  570MOL0     C76882   9.027   0.332   8.951  0.4506  0.5965  0.7723
  570MOL0     H76883   9.189   0.722   9.225 -0.2082 -0.5104 -0.2783
  570MOL0     H76884   9.161   0.875   9.395  1.1333 -1.1910 -0.9360
  570MOL0     H76885   9.123   1.202   9.538  1.7617  1.3487 -0.4277
  570MOL0     H76886   9.219   1.093   9.450  1.3924  0.6418  0.4851
  570MOL0     H76887   9.240   1.239   9.260  0.7793  1.7667 -0.6855
  570MOL0     H76888   9.303   1.323   9.406 -1.4008  3.5436 -0.6694
  570MOL0     H76889   9.027   1.367   9.274 -0.7889  1.9264  0.1085
  570MOL0     H76890   9.172   1.469   9.274  0.0356  0.3407  0.6171
  570MOL0     H76891   9.061   1.404   9.544 -0.0041 -1.8569 -1.5585
  570MOL0     H76892   9.168   1.527   9.490  0.9785 -0.0907 -1.4576
  570MOL0     H76893   8.925   1.642   9.508 -1.2350  1.0057 -0.2637
  570MOL0     H76894   8.965   1.604   9.338 -1.2809 -2.4928 -2.0035
  570MOL0     H76895   8.740   1.538   9.371  0.2299 -0.6667 -2.1116
  570MOL0     H76896   8.832   1.387   9.378 -0.6736  1.4703 -2.3849
  570MOL0     H76897   8.745   1.558   9.617 -1.9397  0.6880 -0.3795
  570MOL0     H76898   8.809   1.389   9.639 -1.7851 -0.3985 -0.5177
  570MOL0     H76899   8.568   1.388   9.663  0.3390  1.0710 -1.3017
  570MOL0     H76900   8.556   1.492   9.526  0.2294  2.8341  3.6843
  570MOL0     H76901   8.766   1.160   9.497 -0.2194 -2.0894 -1.2168
  570MOL0     H76902   8.758   0.962   9.348 -0.1915  3.1795 -0.4413
  570MOL0     H76903   8.631   0.884   9.461 -1.6724  0.3887  1.4882
  570MOL0     H76904   8.531   0.936   9.178 -2.0916 -1.0641  0.2912
  570MOL0     H76905   8.659   0.822   9.201  0.6188  0.0129 -0.5490
  570MOL0     H76906   8.402   0.836   9.355 -0.8265 -1.0961 -0.5433
  570MOL0     H76907   8.526   0.715   9.391 -1.6398 -1.0889  0.4471
  570MOL0     H76908   8.498   0.624   9.155 -0.4362  0.6246 -1.9126
  570MOL0     H76909   8.371   0.746   9.130 -0.3120 -1.2113 -0.0717
  570MOL0     H76910   8.120   0.425   9.292  1.6290  3.4064  0.8064
  570MOL0     H76911   7.977   0.318   9.159 -0.8499  0.8974  0.8620
  570MOL0     H76912   7.803   0.283   8.650  2.7590 -1.6966  0.5975
  570MOL0     H76913   7.604   0.180   8.533 -1.6261 -0.2034  0.5723
  570MOL0     H76914   7.191   0.044   8.648 -1.0788  2.5456 -1.9469
  570MOL0     H76915   7.260   0.140   8.781  3.6935  0.1877 -0.4557
  570MOL0     H76916   7.205   0.294   8.638  0.3214  1.7363 -0.3146
  570MOL0     H76917   7.375   0.289   8.584  0.2554 -0.1301  0.7845
  570MOL0     H76918   7.292   0.134   8.400  3.0609  2.3508 -0.7265
  570MOL0     H76919   7.127   0.140   8.464 -0.5150  1.9549 -0.0677
  570MOL0     H76920   7.268   0.376   8.350  0.8331 -2.3611  0.7529
  570MOL0     H76921   7.111   0.382   8.441  0.2354 -0.0707  0.8448
  570MOL0     H76922   7.049   0.392   8.221 -0.5366  1.0106  1.5448
  570MOL0     H76923   6.998   0.234   8.290 -0.1448  0.2389 -0.5257
  570MOL0     H76924   7.243   0.275   8.124  1.2628  1.1031  5.2083
  570MOL0     H76925   7.153   0.120   8.174 -1.6613  0.0727  0.6822
  570MOL0     H76926   6.992   0.317   8.028 -1.6676 -0.8807 -1.7026
  570MOL0     H76927   6.993   0.147   8.026  0.4897  0.7686  1.0591
  570MOL0     H76928   7.066   0.199   7.806  0.4037 -0.5170  0.6697
  570MOL0     H76929   7.160   0.342   7.869 -0.3626  0.9191  2.7632
  570MOL0     H76930   7.468   0.030   8.911  0.3922  2.2032  1.9862
  570MOL0     H76931   7.667   0.127   9.018 -1.6647  1.2336  0.2195
  570MOL0     H76932   8.195   0.461   8.812  1.3764 -3.3293 -1.2119
  570MOL0     H76933   8.359   0.578   8.986 -0.1365 -0.9088  1.9292
  570MOL0     H76934   8.892   1.107   9.139 -1.9907 -0.6144  1.7071
  570MOL0     H76935   8.959   0.963   8.954 -1.0277 -0.1122 -0.0839
  570MOL0     H76936   9.208   0.715   8.721  1.1437  0.1702 -1.7024
  570MOL0     H76937   9.306   0.593   8.566 -1.4746  0.3894 -0.8089
  570MOL0     H76938   9.474   0.449   8.471 -3.1555  3.3566 -0.8495
  570MOL0     H76939   9.326   0.428   8.383  0.2713 -0.0093 -1.8341
  570MOL0     H76940   9.524   0.294   8.302 -1.8338 -1.6092 -1.2874
  570MOL0     H76941   9.370   0.215   8.320  0.6078  0.0386 -0.3731
  570MOL0     H76942   9.451   0.121   8.539 -1.9784  0.9410 -0.7171
  570MOL0     H76943   9.599   0.219   8.538  0.0158 -1.5257  0.0185
  570MOL0     H76944   9.683   0.099   8.344 -0.3462 -0.4781 -1.6239
  570MOL0     H76945   9.673  -0.004   8.478  2.6660  3.1922 -1.1453
  570MOL0     H76946   9.448  -0.191   8.173 -0.5712 -0.4679  1.7562
  570MOL0     H76947   9.144   0.231   8.735  1.0925  1.3146 -0.8015
  570MOL0     H76948   9.063   0.362   9.050  1.1725 -2.2109  1.4495
  570MOL0     H76949   8.918   0.341   8.949  0.2575 -1.4047 -1.2311
  570MOL0     H76950   9.047   0.227   8.929 -0.3292  0.7895 -1.0384
  571MOL0     O76951   9.154   0.040   1.938  0.2123  0.0182  0.2606
  571MOL0     C76952   9.211   0.125   2.009 -0.2229 -0.2606 -0.4638
  571MOL0     O76953   9.295   0.104   2.114  0.2982  0.7981 -0.0653
  571MOL0     C76954   9.354  -0.017   2.119  0.3552 -0.7720  0.3138
  571MOL0     C76955   9.286  -0.118   2.186 -0.3860  0.3253  0.2732
  571MOL0     C76956   9.355  -0.230   2.225  0.7640 -0.6492  0.4168
  571MOL0     C76957   9.492  -0.243   2.202 -0.2140 -0.1495 -0.2524
  571MOL0     O76958   9.571  -0.351   2.240  0.4226 -0.1414  0.4328
  571MOL0     C76959   9.545  -0.404   2.374 -1.3869 -0.2252 -0.7794
  571MOL0     C76960   9.674  -0.477   2.419  0.2127 -0.5139 -0.2648
  571MOL0     C76961   9.795  -0.399   2.389 -0.3140 -0.2607 -0.5181
  571MOL0     C76962   9.789  -0.252   2.441  0.6214 -0.6491  0.6569
  571MOL0     C76963   9.905  -0.165   2.409  0.0142 -0.5461  0.1059
  571MOL0     C76964   9.880  -0.024   2.469 -0.2656  0.2682 -0.6224
  571MOL0     C76965  10.014   0.049   2.438  0.4175 -0.6937  1.1877
  571MOL0     C76966  10.080   0.092   2.567 -0.2101  0.0914  0.5451
  571MOL0     N76967  10.195   0.175   2.536  0.7716  0.5600 -0.9878
  571MOL0     C76968  10.328   0.134   2.539  0.1339  0.2717 -0.6769
  571MOL0     C76969  10.400   0.252   2.547  0.1912  0.5180  0.1064
  571MOL0     C76970  10.549   0.274   2.566  0.0826  1.3280  0.1213
  571MOL0     C76971  10.626   0.294   2.430 -0.6252 -0.7074  0.0819
  571MOL0     C76972  10.627   0.181   2.329  0.5707 -0.2154 -0.2538
  571MOL0     C76973  10.685   0.047   2.387  0.2775 -0.6185 -0.0302
  571MOL0     O76974  10.597  -0.037   2.463 -0.0098 -0.5640 -0.1403
  571MOL0     C76975  10.658  -0.141   2.516  0.4742 -0.1544 -0.1296
  571MOL0     C76976  10.574  -0.252   2.526 -0.2502 -0.2947  0.4828
  571MOL0     C76977  10.611  -0.363   2.596  0.0708  0.3341  0.3916
  571MOL0     C76978  10.740  -0.380   2.651  1.1819 -1.2841  0.6310
  571MOL0     C76979  10.762  -0.502   2.735 -0.2647 -0.9931  1.0914
  571MOL0     O76980  10.653  -0.564   2.782  0.0214  0.0610 -0.1090
  571MOL0     C76981  10.656  -0.689   2.840 -0.1453  1.2833  0.8830
  571MOL0     C76982  10.772  -0.774   2.853 -0.0389 -0.8814 -0.1217
  571MOL0     C76983  10.757  -0.898   2.925  0.0740 -0.0788  0.6881
  571MOL0     C76984  10.640  -0.943   2.968  0.3661  0.8809  0.0386
  571MOL0     O76985  10.647  -1.067   3.033 -0.1398 -0.7282  0.1327
  571MOL0     C76986  10.536  -1.154   3.033  0.3332 -0.0222  1.9224
  571MOL0     C76987  10.575  -1.288   3.111  0.7708 -0.2830  0.5271
  571MOL0     C76988  10.450  -1.379   3.134  0.5142  0.5300  0.8470
  571MOL0     C76989  10.374  -1.405   3.008  0.1083  1.0980 -0.1664
  571MOL0     C76990  10.294  -1.532   2.990  0.5517  0.6905 -0.2672
  571MOL0     C76991  10.229  -1.539   2.847  0.3064 -0.6780  0.1492
  571MOL0     C76992  10.129  -1.659   2.825  0.7359 -0.4155 -0.0940
  571MOL0     C76993  10.032  -1.630   2.712  0.4460 -0.4246  0.3117
  571MOL0    Cl76994  10.113  -1.631   2.544  0.2098 -0.2320  0.0367
  571MOL0     C76995  10.521  -0.869   2.943  0.7080 -0.2145 -0.2165
  571MOL0     C76996  10.533  -0.741   2.881 -0.1727 -0.6668  0.0299
  571MOL0     O76997  10.877  -0.521   2.768  0.7226 -0.0113 -0.2222
  571MOL0     C76998  10.825  -0.277   2.622  0.9022 -0.7237 -0.6903
  571MOL0     C76999  10.781  -0.151   2.569 -0.4213  0.2909  0.1343
  571MOL0     N77000  10.309   0.358   2.548 -0.0781  0.4897 -0.0567
  571MOL0     N77001  10.182   0.314   2.550  0.2283  0.3581  0.2624
  571MOL0     C77002   9.555  -0.141   2.131  0.4148 -0.0337  0.8026
  571MOL0     C77003   9.492  -0.030   2.089 -0.1338 -1.0703  1.0110
  571MOL0     C77004   9.190   0.263   1.962  0.4758  0.3785 -0.7353
  571MOL0     C77005   9.257   0.296   1.851  0.1466 -0.4217  0.2682
  571MOL0     C77006   9.255   0.427   1.810 -0.7475  0.2870  0.0226
  571MOL0     C77007   9.182   0.520   1.882  0.3005 -0.6405 -0.3714
  571MOL0     O77008   9.172   0.653   1.841 -0.4182  0.2905 -0.6335
  571MOL0     C77009   9.257   0.730   1.942  0.3602 -0.5333  0.2309
  571MOL0     C77010   9.366   0.807   1.861  0.6108  0.2608 -0.5183
  571MOL0     C77011   9.302   0.885   1.755  0.6706  0.0229 -0.9624
  571MOL0     C77012   9.278   0.813   1.617  0.0258  0.9722  0.5820
  571MOL0     C77013   9.404   0.753   1.559  0.7024 -0.1620 -1.0629
  571MOL0     C77014   9.494   0.689   1.505 -0.9519  1.5364  0.2822
  571MOL0     C77015   9.119   0.486   2.000 -0.2161  0.2957  0.1917
  571MOL0     C77016   9.126   0.355   2.045  0.3198 -0.4077  0.2794
  571MOL0     C77017   9.055   0.313   2.172 -0.3735  0.4340  0.1291
  571MOL0     H77018   9.185  -0.108   2.225 -0.3632 -1.1130  0.7755
  571MOL0     H77019   9.297  -0.313   2.264  0.7187 -4.0057 -5.5999
  571MOL0     H77020   9.511  -0.325   2.441 -2.7412  0.1737 -1.8868
  571MOL0     H77021   9.461  -0.475   2.375 -1.0971 -0.5998  1.3730
  571MOL0     H77022   9.686  -0.577   2.376  1.6451  0.7341 -2.9678
  571MOL0     H77023   9.665  -0.492   2.527 -0.5337  4.2929  0.5917
  571MOL0     H77024   9.820  -0.392   2.282 -0.8733  0.1410 -0.6253
  571MOL0     H77025   9.881  -0.448   2.436 -1.1903  0.2262  1.7113
  571MOL0     H77026   9.700  -0.201   2.401  2.7650  1.2480 -2.0294
  571MOL0     H77027   9.778  -0.249   2.550 -0.1056 -2.6775  0.6796
  571MOL0     H77028   9.991  -0.215   2.455 -0.6794  0.2690  2.4240
  571MOL0     H77029   9.925  -0.173   2.302  0.2469 -2.7361  0.2691
  571MOL0     H77030   9.801   0.033   2.419  1.0034  2.7278  0.0083
  571MOL0     H77031   9.851  -0.026   2.574 -0.9682  4.1895 -0.5859
  571MOL0     H77032   9.984   0.138   2.382 -3.0241 -2.0176  0.6872
  571MOL0     H77033  10.084  -0.015   2.382  0.2682  0.0581  0.1089
  571MOL0     H77034  10.013   0.137   2.641  1.5159  1.1641  1.5061
  571MOL0     H77035  10.125   0.010   2.624 -0.9170  0.5293  1.7856
  571MOL0     H77036  10.367   0.033   2.531 -1.4978 -0.4840  0.3712
  571MOL0     H77037  10.561   0.364   2.628  2.8561  2.6964 -2.1833
  571MOL0     H77038  10.593   0.184   2.611 -0.3319  0.8376 -0.4406
  571MOL0     H77039  10.591   0.385   2.380  0.3320 -1.3957 -1.9235
  571MOL0     H77040  10.727   0.321   2.459 -1.6961  3.6152  0.4830
  571MOL0     H77041  10.679   0.202   2.234 -0.6507 -2.0156 -1.3699
  571MOL0     H77042  10.522   0.163   2.305  0.4825 -1.9625  1.2744
  571MOL0     H77043  10.768   0.071   2.453 -0.8165 -2.7973  2.2954
  571MOL0     H77044  10.716  -0.019   2.306  1.3772 -0.3276  0.1430
  571MOL0     H77045  10.476  -0.246   2.479 -0.4921 -1.5488  0.8033
  571MOL0     H77046  10.539  -0.443   2.608 -2.0899  2.0236 -0.6203
  571MOL0     H77047  10.873  -0.745   2.828  0.1917 -2.7182 -1.5271
  571MOL0     H77048  10.846  -0.958   2.944  0.6828  0.3264 -0.7323
  571MOL0     H77049  10.454  -1.101   3.083  0.1573  2.4904 -0.7461
  571MOL0     H77050  10.500  -1.168   2.931  0.4121  3.2380  1.3346
  571MOL0     H77051  10.632  -1.342   3.035  1.8364  0.9948  0.3900
  571MOL0     H77052  10.634  -1.263   3.199  0.2528  2.0271  0.2639
  571MOL0     H77053  10.485  -1.478   3.164 -0.6948  0.3668  1.7875
  571MOL0     H77054  10.385  -1.347   3.216 -2.0127 -0.8498 -0.5244
  571MOL0     H77055  10.443  -1.395   2.924 -2.7488  4.0901 -2.3870
  571MOL0     H77056  10.295  -1.330   3.006  0.7757  1.8034 -0.2417
  571MOL0     H77057  10.216  -1.540   3.067 -0.8478 -4.3403 -1.8327
  571MOL0     H77058  10.362  -1.617   2.985  1.7370  1.5704  0.3466
  571MOL0     H77059  10.168  -1.449   2.835 -0.0667 -0.7640  1.3358
  571MOL0     H77060  10.309  -1.534   2.773  1.4594  3.9911  1.3497
  571MOL0     H77061  10.071  -1.676   2.917 -2.2919  0.6125 -1.6846
  571MOL0     H77062  10.194  -1.745   2.813  3.2741  1.1787  1.2666
  571MOL0     H77063   9.945  -1.696   2.709  0.8035 -1.1067  2.8171
  571MOL0     H77064   9.985  -1.533   2.731 -1.6521 -1.6033  1.3864
  571MOL0     H77065  10.427  -0.904   2.985 -0.7357  3.5376  0.0156
  571MOL0     H77066  10.450  -0.672   2.875 -0.1851 -0.6715  0.1320
  571MOL0     H77067  10.926  -0.281   2.662  1.6004  2.4043 -1.8719
  571MOL0     H77068  10.855  -0.072   2.557 -0.8115  0.4307 -1.5985
  571MOL0     H77069   9.661  -0.150   2.108 -0.1758 -1.6248 -1.6197
  571MOL0     H77070   9.548   0.045   2.034  0.3634  1.0703  4.1800
  571MOL0     H77071   9.316   0.218   1.803  0.4378 -0.3016  0.4327
  571MOL0     H77072   9.307   0.454   1.719  5.1655 -0.0487  2.7949
  571MOL0     H77073   9.314   0.679   2.020  2.5979  1.1344 -0.2239
  571MOL0     H77074   9.190   0.803   1.989  2.3856  0.4415  1.7764
  571MOL0     H77075   9.441   0.739   1.820  2.2284  1.4816  0.3421
  571MOL0     H77076   9.419   0.877   1.926 -2.7975  0.0496  2.8692
  571MOL0     H77077   9.371   0.966   1.728 -0.6591  2.5008  2.3474
  571MOL0     H77078   9.211   0.926   1.799  1.4200  0.4192  0.2956
  571MOL0     H77079   9.193   0.746   1.635  1.5568 -1.6567 -1.2744
  571MOL0     H77080   9.227   0.873   1.541  0.3832 -0.3990 -0.7996
  571MOL0     H77081   9.559   0.631   1.444 -3.4826 -1.3485  0.0733
  571MOL0     H77082   9.075   0.565   2.059  1.9993  0.8495  1.2166
  571MOL0     H77083   9.115   0.242   2.230 -0.4703  0.8660  0.7666
  571MOL0     H77084   9.035   0.394   2.242 -0.2896 -1.3045  2.2831
  571MOL0     H77085   8.957   0.275   2.141  0.4596 -1.4758 -0.3144
  572MOL0     O77086   9.116   3.050   0.612  0.1976 -0.5745  0.7649
  572MOL0     C77087   9.132   3.031   0.489  0.2692 -0.0310 -0.7204
  572MOL0     O77088   9.237   3.079   0.415 -0.1082 -0.2176 -0.8884
  572MOL0     C77089   9.360   3.107   0.477  0.1802  1.1159  0.2920
  572MOL0     C77090   9.383   3.166   0.601 -0.3499 -0.3495 -0.1667
  572MOL0     C77091   9.509   3.220   0.623 -0.5712 -0.1995  0.3991
  572MOL0     C77092   9.617   3.186   0.543  0.1688 -0.6221  0.0186
  572MOL0     O77093   9.743   3.226   0.591 -0.7850 -0.3944  0.2447
  572MOL0     C77094   9.816   3.107   0.634  0.1846  0.5215 -0.0599
  572MOL0     C77095   9.949   3.125   0.700 -0.7145  0.1282  0.0166
  572MOL0     C77096  10.023   2.999   0.737  0.5788  1.1810 -0.0327
  572MOL0     C77097  10.121   3.013   0.849 -0.2427  0.5667 -0.2207
  572MOL0     C77098  10.189   2.870   0.874  0.0343  0.0228 -0.2661
  572MOL0     C77099  10.289   2.883   0.994  1.2092  0.1861  0.3506
  572MOL0     C77100  10.403   2.787   0.999  0.2491 -0.0245 -0.6238
  572MOL0     C77101  10.362   2.644   1.011  1.0637  0.5545  0.1774
  572MOL0     N77102  10.472   2.551   0.997 -0.6885 -0.2114 -0.1523
  572MOL0     C77103  10.603   2.559   1.029  0.5223  0.0803  0.0348
  572MOL0     C77104  10.669   2.448   0.992 -0.1385  0.7329  0.0611
  572MOL0     C77105  10.804   2.414   1.005 -0.3505  0.7067 -0.4142
  572MOL0     C77106  10.840   2.269   0.937 -0.1131 -0.1232  0.1860
  572MOL0     C77107  10.994   2.255   0.931 -0.1566 -1.2224 -0.0599
  572MOL0     C77108  11.030   2.126   0.857 -1.2955 -0.1405  0.2441
  572MOL0     O77109  11.172   2.087   0.849  0.1417 -1.3044 -0.1170
  572MOL0     C77110  11.254   2.044   0.943  0.4590  0.9344 -0.7872
  572MOL0     C77111  11.391   2.046   0.912 -0.1218  0.6137 -0.4731
  572MOL0     C77112  11.483   1.992   1.003 -0.4001  1.2078 -0.7648
  572MOL0     C77113  11.444   1.946   1.129  0.2702 -1.2136  0.0002
  572MOL0     C77114  11.546   1.899   1.228  0.5211 -0.5949  0.2896
  572MOL0     O77115  11.667   1.961   1.226 -0.1398 -0.4699 -0.2805
  572MOL0     C77116  11.762   1.906   1.306 -0.1444  0.3173  0.0556
  572MOL0     C77117  11.846   1.809   1.257 -0.5071  0.4306 -0.4584
  572MOL0     C77118  11.933   1.738   1.338  0.5317 -0.2427  0.1963
  572MOL0     C77119  11.950   1.771   1.474 -1.3316  0.1826 -0.7178
  572MOL0     O77120  12.030   1.711   1.570 -0.3141 -0.2622 -0.1302
  572MOL0     C77121  12.133   1.611   1.536  0.9882  0.2413  0.4622
  572MOL0     C77122  12.210   1.569   1.669 -0.4361  1.1923 -0.1359
  572MOL0     C77123  12.117   1.505   1.776  0.2042 -0.1321  0.3698
  572MOL0     C77124  12.050   1.612   1.866  0.1837 -1.0396  0.8327
  572MOL0     C77125  11.954   1.552   1.972 -0.3986 -0.0844  0.5359
  572MOL0     C77126  11.816   1.523   1.918 -0.2949  0.3802  0.3405
  572MOL0     C77127  11.728   1.645   1.879  0.1545  0.1278 -0.5097
  572MOL0     C77128  11.659   1.707   1.997 -0.3884  0.0892  0.0364
  572MOL0    Cl77129  11.750   1.849   2.047  0.6050  0.1299  0.3144
  572MOL0     C77130  11.879   1.878   1.526  0.0595 -0.4938 -0.1697
  572MOL0     C77131  11.784   1.946   1.437 -0.3457  1.3408  0.5459
  572MOL0     O77132  11.503   1.817   1.308 -0.2874 -0.5341  0.4398
  572MOL0     C77133  11.312   1.947   1.157  0.5206 -1.0089 -0.1973
  572MOL0     C77134  11.217   1.996   1.069 -0.9324  0.1690  0.5379
  572MOL0     N77135  10.569   2.371   0.926  0.3502  0.0703  0.0402
  572MOL0     N77136  10.452   2.432   0.933  0.0964  0.4918  0.0907
  572MOL0     C77137   9.590   3.109   0.431 -0.4306 -0.1238 -1.0810
  572MOL0     C77138   9.468   3.076   0.395  0.3523 -0.8105  0.9303
  572MOL0     C77139   9.028   2.970   0.403  0.0280 -0.2135 -0.9477
  572MOL0     C77140   8.967   2.860   0.461 -0.7746  0.9608 -0.5427
  572MOL0     C77141   8.870   2.782   0.398  0.0577 -0.5564  1.4029
  572MOL0     C77142   8.830   2.807   0.273  0.3039 -0.6345 -0.3013
  572MOL0     O77143   8.740   2.730   0.199  0.3288 -0.2730 -0.1127
  572MOL0     C77144   8.611   2.714   0.265 -0.4185 -0.3965 -1.0305
  572MOL0     C77145   8.578   2.572   0.269  0.0252 -0.2899  0.1191
  572MOL0     C77146   8.439   2.545   0.326 -0.0122 -0.5146  0.8845
  572MOL0     C77147   8.401   2.401   0.338 -0.6265 -0.5740  0.5252
  572MOL0     C77148   8.263   2.411   0.389 -1.0817 -0.4570 -0.6252
  572MOL0     C77149   8.149   2.405   0.426 -0.1188  0.5759 -0.7227
  572MOL0     C77150   8.885   2.921   0.211 -0.9026  0.4367  1.2260
  572MOL0     C77151   8.986   3.002   0.276 -0.6276 -0.6276  0.7181
  572MOL0     C77152   9.032   3.127   0.215  0.5781  0.1311  0.7816
  572MOL0     H77153   9.306   3.195   0.671  1.7853 -4.2152  4.3580
  572MOL0     H77154   9.542   3.288   0.702 -1.5707 -0.1675  0.8032
  572MOL0     H77155   9.749   3.055   0.704 -0.4224  0.3905 -0.7213
  572MOL0     H77156   9.832   3.033   0.555  0.6015 -0.0074  0.5064
  572MOL0     H77157   9.927   3.193   0.782  2.2503  2.0844 -0.6385
  572MOL0     H77158  10.015   3.165   0.622  2.5370 -2.1335  1.3549
  572MOL0     H77159  10.087   2.960   0.657 -0.3186 -0.1269 -0.1420
  572MOL0     H77160   9.951   2.918   0.747  0.6022  0.9601 -1.5257
  572MOL0     H77161  10.199   3.081   0.815  0.2653  1.0882  1.8809
  572MOL0     H77162  10.075   3.057   0.937 -0.7117  1.1291 -0.7370
  572MOL0     H77163  10.121   2.785   0.882 -1.6950  1.3373 -0.4308
  572MOL0     H77164  10.248   2.864   0.782 -2.2326  2.1741 -1.9940
  572MOL0     H77165  10.335   2.982   0.995 -0.9725  1.2683  0.5640
  572MOL0     H77166  10.237   2.881   1.090  3.3038  3.0413  1.6686
  572MOL0     H77167  10.489   2.814   1.060  1.1512  1.1389 -2.3131
  572MOL0     H77168  10.454   2.797   0.903  0.8476  2.6752 -0.0939
  572MOL0     H77169  10.311   2.636   1.108  3.0984  1.9407  1.4352
  572MOL0     H77170  10.287   2.619   0.936 -0.0669  1.5516  0.9431
  572MOL0     H77171  10.654   2.647   1.069  1.8357  0.1654 -1.7116
  572MOL0     H77172  10.859   2.489   0.947 -0.8690  1.3755 -0.0456
  572MOL0     H77173  10.820   2.407   1.112 -0.5082 -2.6757 -0.4872
  572MOL0     H77174  10.780   2.190   0.985 -0.2224 -2.1852 -3.0586
  572MOL0     H77175  10.800   2.261   0.836 -0.6181  3.3047  0.0069
  572MOL0     H77176  11.024   2.250   1.037 -2.0249 -2.6973  0.4599
  572MOL0     H77177  11.049   2.339   0.887  0.5009 -2.4065 -1.5699
  572MOL0     H77178  10.984   2.137   0.759 -1.9961 -1.2689  0.4326
  572MOL0     H77179  10.971   2.045   0.900 -2.6281  0.1791 -0.9237
  572MOL0     H77180  11.417   2.094   0.819  3.3592 -1.3707 -0.7237
  572MOL0     H77181  11.589   1.991   0.980  0.4223  0.6704  2.5769
  572MOL0     H77182  11.836   1.793   1.150  1.2353  1.1565 -0.7516
  572MOL0     H77183  11.994   1.654   1.306  1.0298  0.2227 -0.0933
  572MOL0     H77184  12.095   1.523   1.482 -0.8570  0.9935  0.4777
  572MOL0     H77185  12.203   1.651   1.462 -0.7786  3.8725  0.5122
  572MOL0     H77186  12.291   1.500   1.645 -1.7835 -0.1606 -0.9994
  572MOL0     H77187  12.248   1.661   1.714 -2.6698  2.4451 -0.6353
  572MOL0     H77188  12.041   1.439   1.732 -0.2869 -1.8155  3.4482
  572MOL0     H77189  12.172   1.429   1.833  0.6913  1.1111  1.5915
  572MOL0     H77190  11.994   1.682   1.802  0.6901 -1.0978  0.3193
  572MOL0     H77191  12.129   1.666   1.918  0.3456 -0.4668  0.0177
  572MOL0     H77192  11.944   1.632   2.046  0.0726 -1.7701  2.5301
  572MOL0     H77193  11.990   1.459   2.016  1.1698  0.8894  1.3983
  572MOL0     H77194  11.832   1.464   1.827  2.3115  1.5431 -0.0245
  572MOL0     H77195  11.759   1.462   1.989 -0.1632 -2.0985 -1.5322
  572MOL0     H77196  11.649   1.623   1.806  0.1818 -0.1086 -0.4675
  572MOL0     H77197  11.788   1.714   1.819  1.6023 -2.0809 -1.7505
  572MOL0     H77198  11.557   1.730   1.964 -0.2428  0.7905  0.0643
  572MOL0     H77199  11.655   1.629   2.073 -2.2485 -0.6256 -0.7290
  572MOL0     H77200  11.897   1.905   1.629  1.2663  1.4025 -0.8328
  572MOL0     H77201  11.719   2.021   1.481 -0.5315  2.2473 -1.1838
  572MOL0     H77202  11.270   1.920   1.254 -0.5730  3.8799  0.9806
  572MOL0     H77203  11.118   1.988   1.112  0.4364 -2.5552  3.7044
  572MOL0     H77204   9.679   3.089   0.372  2.1376 -1.3339  2.7769
  572MOL0     H77205   9.449   3.045   0.293  0.0476  2.2827 -0.0632
  572MOL0     H77206   8.995   2.820   0.558  1.6604 -0.6338 -1.7810
  572MOL0     H77207   8.826   2.699   0.452 -1.5739  0.2372  1.3472
  572MOL0     H77208   8.538   2.759   0.198 -1.0341 -0.3798 -0.3616
  572MOL0     H77209   8.608   2.756   0.366 -1.6186 -0.3118 -1.0940
  572MOL0     H77210   8.654   2.531   0.337  1.0494  2.7246  0.9539
  572MOL0     H77211   8.600   2.536   0.168  1.1680  2.4514 -0.7140
  572MOL0     H77212   8.364   2.598   0.269  1.1508  0.3287  0.1017
  572MOL0     H77213   8.432   2.591   0.425 -0.9994 -2.7723  1.9588
  572MOL0     H77214   8.401   2.353   0.240  0.2085 -0.5839  0.5303
  572MOL0     H77215   8.470   2.355   0.409  0.9626 -2.5326 -2.1292
  572MOL0     H77216   8.048   2.393   0.459  0.4947 -1.6396  0.6186
  572MOL0     H77217   8.851   2.943   0.110 -0.3055 -3.3961  0.0176
  572MOL0     H77218   8.989   3.138   0.115  1.4363  3.0170  0.6389
  572MOL0     H77219   9.000   3.213   0.274  1.9945  0.4677  1.0801
  572MOL0     H77220   9.139   3.140   0.196  0.2033  0.2424 -1.5774
  573MOL0     O77221   0.215   2.693   8.660 -1.1689  0.3187 -0.4588
  573MOL0     C77222   0.093   2.677   8.653  0.0429  0.1451 -0.6335
  573MOL0     O77223   0.015   2.730   8.558  0.5039 -0.2173 -0.6391
  573MOL0     C77224   0.067   2.801   8.453  0.1349  0.1730 -0.4904
  573MOL0     C77225   0.159   2.749   8.357 -0.3996 -0.5428 -0.3568
  573MOL0     C77226   0.194   2.826   8.253  0.0700 -0.8185  0.9779
  573MOL0     C77227   0.158   2.965   8.243 -0.5642 -0.5971  0.0104
  573MOL0     O77228   0.199   3.034   8.133 -0.4184 -0.6702  0.3951
  573MOL0     C77229   0.118   3.141   8.075  0.3377  0.0986 -0.6119
  573MOL0     C77230  -0.006   3.089   8.013  0.1547  0.5746  0.0386
  573MOL0     C77231   0.002   2.966   7.924 -0.3723  0.2423 -0.0856
  573MOL0     C77232   0.086   2.996   7.802  0.6578 -0.3399 -0.3866
  573MOL0     C77233   0.094   2.876   7.704  0.2821  0.4729  0.3739
  573MOL0     C77234   0.189   2.897   7.588  1.0495 -0.6292 -0.9647
  573MOL0     C77235   0.154   3.026   7.501  0.0390  0.4573  0.7349
  573MOL0     C77236   0.039   2.999   7.408  0.1706  1.0940 -0.1155
  573MOL0     N77237   0.024   3.117   7.319  0.7152  0.0003  0.7281
  573MOL0     C77238   0.055   3.114   7.180  0.4358  0.0633 -0.5187
  573MOL0     C77239  -0.008   3.226   7.137  0.7650  0.0850  0.1863
  573MOL0     C77240  -0.012   3.281   6.998 -1.1777  0.4197 -0.5936
  573MOL0     C77241   0.065   3.407   6.984  0.4231 -0.3469 -0.2805
  573MOL0     C77242   0.011   3.493   6.870  0.4809  0.3619 -0.5456
  573MOL0     C77243   0.095   3.617   6.847 -0.7003 -0.0399  0.0450
  573MOL0     O77244   0.209   3.575   6.766 -0.2647 -0.1747 -0.2533
  573MOL0     C77245   0.286   3.667   6.695 -0.2691  0.8801 -0.8633
  573MOL0     C77246   0.282   3.802   6.719  1.3709  0.5304 -0.7225
  573MOL0     C77247   0.366   3.890   6.646 -1.1619  0.7105 -0.0245
  573MOL0     C77248   0.465   3.844   6.556  0.4446 -0.6171 -0.7083
  573MOL0     C77249   0.555   3.939   6.491  0.0828 -0.7650  0.1233
  573MOL0     O77250   0.565   4.073   6.540 -0.1321 -0.5783 -0.1721
  573MOL0     C77251   0.640   4.173   6.487  0.0818  0.1955  0.1757
  573MOL0     C77252   0.581   4.272   6.404  0.6130  0.3326 -0.0039
  573MOL0     C77253   0.658   4.364   6.332 -0.4334 -0.4943 -0.0410
  573MOL0     C77254   0.795   4.373   6.352  0.9132  0.4485  0.5829
  573MOL0     O77255   0.852   4.475   6.284 -0.0299 -0.9312  0.1546
  573MOL0     C77256   0.991   4.489   6.281 -0.6763 -0.4387 -0.9771
  573MOL0     C77257   1.038   4.627   6.231  0.0042 -0.8001 -0.3923
  573MOL0     C77258   1.193   4.648   6.247  0.5729 -0.0490 -0.5456
  573MOL0     C77259   1.217   4.685   6.394  0.9791  0.6947  0.0269
  573MOL0     C77260   1.369   4.676   6.420 -0.0315 -0.6041  0.0415
  573MOL0     C77261   1.464   4.739   6.315  0.8887  0.3213  0.0600
  573MOL0     C77262   1.609   4.750   6.364  0.6754 -0.2720  0.9508
  573MOL0     C77263   1.701   4.790   6.252  0.1377 -0.0972  0.1357
  573MOL0    Cl77264   1.701   4.970   6.220 -0.0248  0.1619 -0.1492
  573MOL0     C77265   0.858   4.277   6.424  0.7141 -0.0014 -0.8436
  573MOL0     C77266   0.779   4.177   6.491  0.6515  0.1277  0.1065
  573MOL0     O77267   0.622   3.898   6.395  0.1889  0.1352 -0.3855
  573MOL0     C77268   0.461   3.702   6.534  0.7346 -0.2155 -0.6625
  573MOL0     C77269   0.378   3.621   6.605 -0.0610  0.0414  0.4269
  573MOL0     N77270  -0.086   3.281   7.240  0.8955 -0.3483 -0.3069
  573MOL0     N77271  -0.057   3.221   7.345  0.5724 -0.4974 -0.8699
  573MOL0     C77272   0.081   3.025   8.342 -0.9202  0.5127  0.4139
  573MOL0     C77273   0.029   2.942   8.443  0.4153 -0.2795 -0.0241
  573MOL0     C77274   0.043   2.575   8.756  0.1051 -0.2338  0.9039
  573MOL0     C77275   0.137   2.493   8.825 -0.6659 -0.6513 -0.3580
  573MOL0     C77276   0.099   2.397   8.922  0.9123 -0.7977 -0.0923
  573MOL0     C77277  -0.035   2.390   8.953  0.9081  0.2849  0.6150
  573MOL0     O77278  -0.074   2.297   9.047 -0.2477  0.0559 -0.3622
  573MOL0     C77279  -0.210   2.289   9.088  1.1308  0.2889  0.1169
  573MOL0     C77280  -0.227   2.182   9.192  0.1956  0.4299  0.6913
  573MOL0     C77281  -0.112   2.198   9.300  0.7751 -0.1164 -0.5799
  573MOL0     C77282  -0.135   2.293   9.422  0.8623  0.1741  1.2530
  573MOL0     C77283  -0.110   2.425   9.357  0.0722  0.4673  0.1570
  573MOL0     C77284  -0.088   2.530   9.297 -0.4259  0.8492  0.6074
  573MOL0     C77285  -0.132   2.464   8.882  0.0391 -1.0685 -0.6518
  573MOL0     C77286  -0.098   2.560   8.780 -0.7916  0.4235 -0.2059
  573MOL0     C77287  -0.209   2.626   8.707 -0.0125 -0.6203 -0.6047
  573MOL0     H77288   0.203   2.650   8.366  0.5139 -0.2339 -1.1667
  573MOL0     H77289   0.257   2.788   8.173  1.1985  1.5427  0.6349
  573MOL0     H77290   0.102   3.208   8.160  0.7576 -2.2052  1.3836
  573MOL0     H77291   0.184   3.185   7.999  3.5701 -0.7754  1.4809
  573MOL0     H77292  -0.047   3.166   7.946 -4.2974 -0.1624  1.5941
  573MOL0     H77293  -0.083   3.083   8.090  1.3852  1.7203  1.4068
  573MOL0     H77294  -0.099   2.948   7.885 -0.9545  4.3757 -0.8788
  573MOL0     H77295   0.042   2.877   7.973  0.9328  1.3016  0.8403
  573MOL0     H77296   0.038   3.086   7.762  0.7029  1.7952  3.8199
  573MOL0     H77297   0.186   3.026   7.836 -0.7240  3.9531  0.5716
  573MOL0     H77298   0.135   2.786   7.751  0.8447 -0.9218 -2.5602
  573MOL0     H77299  -0.006   2.848   7.671  1.8544 -2.2021 -2.6832
  573MOL0     H77300   0.295   2.902   7.615  1.3401 -1.8478 -1.8035
  573MOL0     H77301   0.178   2.811   7.521 -1.7114 -0.9003 -0.2942
  573MOL0     H77302   0.247   3.048   7.447  0.1701  2.7075  1.7863
  573MOL0     H77303   0.129   3.112   7.563  2.1127  1.3657  0.3797
  573MOL0     H77304   0.053   2.911   7.344  1.2926  1.0525  0.1645
  573MOL0     H77305  -0.053   2.990   7.467  0.0200  0.3576 -0.4536
  573MOL0     H77306   0.133   3.055   7.134  2.0591  1.6957 -0.0259
  573MOL0     H77307   0.029   3.200   6.937 -0.5589 -0.8370  1.3874
  573MOL0     H77308  -0.117   3.288   6.969 -1.1275 -1.1182 -1.2332
  573MOL0     H77309   0.073   3.464   7.077  0.7304 -1.9892  0.7504
  573MOL0     H77310   0.169   3.379   6.965  1.0200  2.5936 -1.9703
  573MOL0     H77311  -0.088   3.524   6.904 -0.1156 -1.0418 -0.8958
  573MOL0     H77312  -0.009   3.432   6.781  0.4054 -0.1250 -0.2021
  573MOL0     H77313   0.134   3.665   6.937  0.5096 -0.0852 -0.4241
  573MOL0     H77314   0.037   3.693   6.793  1.3982  2.0283  0.4959
  573MOL0     H77315   0.211   3.838   6.793  1.2473  3.2947 -2.0391
  573MOL0     H77316   0.365   3.994   6.676  0.0567  1.5091 -2.5271
  573MOL0     H77317   0.473   4.261   6.400  0.8299 -1.9831 -2.2033
  573MOL0     H77318   0.597   4.427   6.268  2.2499  2.0479 -0.3575
  573MOL0     H77319   1.018   4.494   6.386  3.1587  2.1732 -1.8744
  573MOL0     H77320   1.050   4.406   6.242  4.8934  3.2763 -1.7183
  573MOL0     H77321   0.995   4.632   6.131  0.1528  2.9617 -0.4012
  573MOL0     H77322   0.980   4.703   6.284 -0.6119 -1.2272 -0.4391
  573MOL0     H77323   1.249   4.559   6.218 -1.4025 -2.1933  1.7550
  573MOL0     H77324   1.220   4.732   6.181 -2.1432  0.4212 -1.1815
  573MOL0     H77325   1.170   4.616   6.466 -1.9189  2.4309 -0.0351
  573MOL0     H77326   1.181   4.781   6.432 -1.0089 -0.0507  0.1432
  573MOL0     H77327   1.385   4.568   6.419  1.2543 -0.4363  0.7882
  573MOL0     H77328   1.403   4.724   6.512 -0.5180 -2.9413  1.5077
  573MOL0     H77329   1.458   4.691   6.217 -1.9725  0.3981  0.1028
  573MOL0     H77330   1.431   4.842   6.299 -2.2234 -0.7914 -1.6554
  573MOL0     H77331   1.623   4.646   6.395 -5.0610 -1.0677  2.0792
  573MOL0     H77332   1.620   4.824   6.443  0.2957  0.2805  0.4899
  573MOL0     H77333   1.806   4.764   6.267  1.4876  3.6188 -1.7070
  573MOL0     H77334   1.674   4.737   6.161  2.8479  1.4445 -1.7084
  573MOL0     H77335   0.966   4.291   6.422  0.5984  0.9267 -1.5410
  573MOL0     H77336   0.812   4.095   6.554 -4.1554 -1.9789  0.2813
  573MOL0     H77337   0.527   3.666   6.456  0.4110  2.6023 -2.3621
  573MOL0     H77338   0.376   3.515   6.582 -1.9830  0.1764 -0.2116
  573MOL0     H77339   0.047   3.128   8.334  0.1597  0.8449 -0.2363
  573MOL0     H77340  -0.054   2.978   8.504  1.1685  0.1285  0.7838
  573MOL0     H77341   0.243   2.499   8.803 -0.7683 -0.4779 -0.8242
  573MOL0     H77342   0.168   2.345   8.988 -0.8560 -0.7272  1.9458
  573MOL0     H77343  -0.271   2.259   9.002  0.9612  1.4360 -0.1766
  573MOL0     H77344  -0.255   2.386   9.111  0.6009 -0.1662  1.0716
  573MOL0     H77345  -0.228   2.091   9.131 -2.1356  0.5312  0.4893
  573MOL0     H77346  -0.324   2.198   9.240  1.1451  2.7236  1.9976
  573MOL0     H77347  -0.015   2.212   9.251  0.6872  1.2074 -0.4222
  573MOL0     H77348  -0.111   2.098   9.346 -0.3452 -1.4488 -3.2706
  573MOL0     H77349  -0.235   2.278   9.462  0.9807 -1.6066  0.9514
  573MOL0     H77350  -0.060   2.279   9.501  2.9092  2.1852 -0.1702
  573MOL0     H77351  -0.039   2.608   9.242 -0.4161  2.6062  2.9301
  573MOL0     H77352  -0.236   2.461   8.912  0.1935  1.5072  0.3858
  573MOL0     H77353  -0.205   2.735   8.719  0.4645 -0.7965  1.3018
  573MOL0     H77354  -0.215   2.605   8.600 -2.5806 -0.6332 -0.5127
  573MOL0     H77355  -0.305   2.592   8.745  0.6502  1.3798  3.4908
  574MOL0     O77356  10.750   2.110   8.136  0.8861 -0.2924  0.2131
  574MOL0     C77357  10.669   2.176   8.069  0.9307 -0.4557  0.3792
  574MOL0     O77358  10.538   2.129   8.037  0.1651 -0.3846 -0.1210
  574MOL0     C77359  10.505   2.011   8.103 -0.0707  0.4061 -0.8871
  574MOL0     C77360  10.514   1.886   8.042 -0.9214 -0.3042  0.7846
  574MOL0     C77361  10.452   1.772   8.081  0.0041  1.4689 -0.5219
  574MOL0     C77362  10.382   1.778   8.206 -0.9800 -0.3765 -0.2451
  574MOL0     O77363  10.346   1.655   8.260  0.1465  0.9315  0.4589
  574MOL0     C77364  10.268   1.652   8.385  0.5536  0.1283  0.8522
  574MOL0     C77365  10.228   1.510   8.415  0.8359  0.0235  0.4967
  574MOL0     C77366  10.131   1.452   8.304 -0.1771 -0.7521  0.2750
  574MOL0     C77367  10.049   1.343   8.378  0.2509  0.1513  0.2506
  574MOL0     C77368   9.968   1.251   8.281 -0.2731  0.2871 -0.1040
  574MOL0     C77369   9.828   1.306   8.263  0.4274  0.0317  0.2579
  574MOL0     C77370   9.758   1.266   8.132 -0.3510 -1.0484 -1.2001
  574MOL0     C77371   9.613   1.297   8.133  0.7290  0.0258  0.3874
  574MOL0     N77372   9.542   1.254   8.256  0.2786  1.4163  0.2592
  574MOL0     C77373   9.429   1.306   8.318 -0.0850 -0.8040  0.0227
  574MOL0     C77374   9.398   1.230   8.420 -0.0914 -0.1939 -0.7335
  574MOL0     C77375   9.271   1.237   8.498  0.1315  0.2891 -0.4362
  574MOL0     C77376   9.309   1.241   8.647 -0.8579 -0.5243 -0.0736
  574MOL0     C77377   9.175   1.245   8.738  0.1380 -0.4798 -0.5704
  574MOL0     C77378   9.069   1.139   8.712 -0.4052  0.0268  0.6422
  574MOL0     O77379   9.120   1.000   8.700 -0.1674  0.7540  0.5546
  574MOL0     C77380   9.050   0.917   8.616  1.0690 -1.5205 -0.5400
  574MOL0     C77381   8.913   0.885   8.645 -0.3311 -1.2317 -0.4420
  574MOL0     C77382   8.843   0.798   8.564 -0.5649 -0.2335 -0.6288
  574MOL0     C77383   8.904   0.735   8.455  0.2151 -0.0125 -0.2289
  574MOL0     C77384   8.832   0.646   8.363 -0.4667 -0.0876 -0.2458
  574MOL0     O77385   8.721   0.586   8.415 -1.1245 -1.3673  0.1541
  574MOL0     C77386   8.613   0.604   8.332 -0.2511 -0.8351  0.3495
  574MOL0     C77387   8.596   0.696   8.233  0.7441  0.3463  0.3885
  574MOL0     C77388   8.462   0.709   8.171 -0.4638  0.3649  0.5533
  574MOL0     C77389   8.354   0.632   8.213 -0.7214  0.7832  0.0293
  574MOL0     O77390   8.246   0.645   8.144 -0.1481  0.5980 -0.5748
  574MOL0     C77391   8.230   0.563   8.028 -0.1717  1.4628  0.5795
  574MOL0     C77392   8.096   0.594   7.962  0.3469 -0.1844  0.1056
  574MOL0     C77393   8.105   0.541   7.818  0.4138 -0.7693 -0.9083
  574MOL0     C77394   7.969   0.577   7.745  0.3852 -0.9396  0.4934
  574MOL0     C77395   7.976   0.511   7.608 -0.4274  0.8871  0.1066
  574MOL0     C77396   7.845   0.556   7.523 -0.0518 -0.0314 -0.4093
  574MOL0     C77397   7.851   0.489   7.388 -0.8158 -0.1238 -0.6758
  574MOL0     C77398   7.721   0.467   7.313 -0.1151 -1.2313 -0.5602
  574MOL0    Cl77399   7.738   0.420   7.132 -0.1807  0.0133 -0.1609
  574MOL0     C77400   8.376   0.544   8.312  0.6495 -0.1536 -0.0445
  574MOL0     C77401   8.501   0.531   8.371 -0.0298 -0.3853  0.0788
  574MOL0     O77402   8.878   0.627   8.248  0.2126  0.1929 -0.1924
  574MOL0     C77403   9.040   0.762   8.429  0.2556  0.4835  0.2378
  574MOL0     C77404   9.115   0.847   8.511 -0.9596 -0.5585  0.4174
  574MOL0     N77405   9.486   1.127   8.423 -1.1607  0.1237 -0.3139
  574MOL0     N77406   9.563   1.133   8.320  0.5767 -0.4749 -0.9254
  574MOL0     C77407  10.396   1.897   8.284  0.7874  0.3607  0.2134
  574MOL0     C77408  10.445   2.019   8.235 -0.7635 -0.2135 -1.7470
  574MOL0     C77409  10.718   2.304   8.020 -0.0613 -0.1406  0.5672
  574MOL0     C77410  10.785   2.378   8.117 -1.0310  0.3818  0.0870
  574MOL0     C77411  10.847   2.493   8.079 -0.5430 -0.4431  0.0989
  574MOL0     C77412  10.841   2.543   7.945  0.3712  1.0798 -0.1571
  574MOL0     O77413  10.905   2.665   7.936 -0.1569  0.5097 -0.3843
  574MOL0     C77414  10.905   2.735   7.810 -0.7964  0.3792  0.5582
  574MOL0     C77415  11.024   2.843   7.802  0.1129  0.1825  0.2868
  574MOL0     C77416  10.996   2.956   7.901 -0.3537 -0.3862 -0.1646
  574MOL0     C77417  11.118   3.046   7.932  0.4519 -0.1327  1.3107
  574MOL0     C77418  11.151   3.129   7.812 -0.3783  0.2274 -0.0147
  574MOL0     C77419  11.170   3.184   7.706 -0.6415  0.5061 -0.2440
  574MOL0     C77420  10.783   2.470   7.843 -0.3438  0.9512  1.3199
  574MOL0     C77421  10.722   2.348   7.878  0.0593  0.3034 -0.1854
  574MOL0     C77422  10.682   2.260   7.759 -0.2352  0.2521  1.0191
  574MOL0     H77423  10.555   1.887   7.941  2.1094  0.4614  1.9139
  574MOL0     H77424  10.452   1.680   8.023  0.0417  0.2877  1.2694
  574MOL0     H77425  10.324   1.704   8.463  0.7302  3.0489 -1.0400
  574MOL0     H77426  10.174   1.701   8.360 -0.5711 -2.0897  0.4387
  574MOL0     H77427  10.166   1.517   8.505 -1.5560 -3.1379 -0.7086
  574MOL0     H77428  10.311   1.438   8.422 -0.2794 -1.2852  0.6046
  574MOL0     H77429  10.201   1.403   8.235 -1.1202  1.7970 -2.7314
  574MOL0     H77430  10.069   1.525   8.251  0.6058  0.6870  1.2629
  574MOL0     H77431  10.114   1.272   8.431 -1.2443 -0.9562  0.6511
  574MOL0     H77432   9.987   1.387   8.457  3.4721  2.2610  1.8277
  574MOL0     H77433  10.021   1.245   8.185  1.6792 -0.5885  0.9762
  574MOL0     H77434   9.964   1.149   8.319 -0.6560 -0.1082 -1.1668
  574MOL0     H77435   9.777   1.271   8.354  0.2055  0.3830  0.2682
  574MOL0     H77436   9.816   1.414   8.258 -2.0374 -0.2656 -3.0676
  574MOL0     H77437   9.770   1.159   8.111 -2.3749 -1.9309  1.4123
  574MOL0     H77438   9.805   1.320   8.050 -0.3865  0.2541 -0.3958
  574MOL0     H77439   9.604   1.405   8.120  4.1658  0.4605  0.7580
  574MOL0     H77440   9.569   1.252   8.044  0.6032 -1.9239  1.3817
  574MOL0     H77441   9.376   1.398   8.296  2.2895  0.6840  0.1122
  574MOL0     H77442   9.213   1.327   8.476  0.3773  1.7939  4.1696
  574MOL0     H77443   9.208   1.150   8.479  0.9979 -0.8678  1.7051
  574MOL0     H77444   9.377   1.161   8.676 -0.9584 -0.6176 -0.0964
  574MOL0     H77445   9.365   1.331   8.676 -1.4748 -1.5681  5.3288
  574MOL0     H77446   9.135   1.347   8.743 -0.9976 -0.9609  1.7156
  574MOL0     H77447   9.208   1.238   8.842 -1.0382  1.4351 -0.0074
  574MOL0     H77448   9.032   1.159   8.611 -0.0550 -3.3442 -0.3013
  574MOL0     H77449   8.987   1.142   8.785 -0.2264 -1.0203  0.8981
  574MOL0     H77450   8.872   0.929   8.735 -1.3215 -0.8860 -1.0497
  574MOL0     H77451   8.738   0.780   8.586 -0.4586  2.0893  2.5311
  574MOL0     H77452   8.679   0.754   8.194  0.7483 -1.0568 -1.8130
  574MOL0     H77453   8.456   0.776   8.087 -0.1110 -1.5515 -1.0733
  574MOL0     H77454   8.314   0.590   7.964 -0.3000  2.7871  0.9381
  574MOL0     H77455   8.239   0.454   8.035  0.3405  1.3473 -1.2641
  574MOL0     H77456   8.009   0.555   8.017  1.3674  0.0068  1.9495
  574MOL0     H77457   8.097   0.703   7.954  4.1547 -0.0988 -0.0070
  574MOL0     H77458   8.186   0.592   7.765 -3.5074  1.8036 -5.1755
  574MOL0     H77459   8.117   0.432   7.815 -0.2753 -0.8310 -2.6459
  574MOL0     H77460   7.951   0.685   7.736 -3.3984 -1.5959 -2.4779
  574MOL0     H77461   7.879   0.538   7.795  1.3862 -1.7500  1.7416
  574MOL0     H77462   7.984   0.402   7.610  0.7439  0.9786  1.3649
  574MOL0     H77463   8.062   0.554   7.557  0.6302 -2.3363 -1.1116
  574MOL0     H77464   7.748   0.533   7.567 -0.2310  1.8118  0.2312
  574MOL0     H77465   7.845   0.664   7.511 -1.7627  0.2824  1.7355
  574MOL0     H77466   7.903   0.396   7.410 -0.0974  0.7559  1.6398
  574MOL0     H77467   7.932   0.535   7.332  1.3711  1.7234  3.5412
  574MOL0     H77468   7.665   0.386   7.361 -0.3598 -1.2277 -0.8361
  574MOL0     H77469   7.652   0.552   7.319 -1.8361 -2.3960 -2.5150
  574MOL0     H77470   8.286   0.487   8.333  2.3138 -3.1661 -0.5096
  574MOL0     H77471   8.502   0.470   8.461 -0.1744 -2.2667 -1.1478
  574MOL0     H77472   9.090   0.717   8.344 -2.4298  4.1570 -3.7235
  574MOL0     H77473   9.218   0.858   8.479 -0.6793 -2.3077  0.6072
  574MOL0     H77474  10.345   1.894   8.379 -0.5721 -3.2094 -0.4566
  574MOL0     H77475  10.446   2.118   8.280 -1.9200  0.6010 -3.3910
  574MOL0     H77476  10.789   2.342   8.219 -3.9029 -2.8022 -0.7496
  574MOL0     H77477  10.897   2.552   8.156  0.2471  0.6205 -1.1749
  574MOL0     H77478  10.809   2.778   7.781  0.4312  2.5076 -0.6081
  574MOL0     H77479  10.947   2.672   7.730 -2.1837 -1.1575  0.9911
  574MOL0     H77480  11.034   2.876   7.699  2.9017 -1.0621  0.0756
  574MOL0     H77481  11.119   2.798   7.833 -0.5160 -1.1516  0.3776
  574MOL0     H77482  10.957   2.914   7.994 -2.9968  1.9093 -0.1149
  574MOL0     H77483  10.919   3.024   7.863  0.2377  1.0500  1.1126
  574MOL0     H77484  11.090   3.110   8.017  3.3739 -0.0267  2.2850
  574MOL0     H77485  11.202   2.995   7.980 -0.1546 -1.9824  0.4820
  574MOL0     H77486  11.172   3.222   7.606 -0.5559 -0.9471 -0.8170
  574MOL0     H77487  10.807   2.510   7.746  0.6520  0.5461  1.3859
  574MOL0     H77488  10.573   2.267   7.759 -0.3192 -0.1151 -1.8754
  574MOL0     H77489  10.719   2.290   7.661 -2.1046  1.7864  0.7161
  574MOL0     H77490  10.710   2.155   7.771  1.0852  0.4110 -0.3902
  575MOL0     O77491   2.552   2.198  10.984  0.5247 -0.4162 -0.5330
  575MOL0     C77492   2.466   2.111  11.003 -0.5072  0.8708 -1.2723
  575MOL0     O77493   2.482   1.974  10.975  0.0134 -0.2289  0.1901
  575MOL0     C77494   2.593   1.941  10.892  0.0336  0.5046 -0.5329
  575MOL0     C77495   2.727   1.981  10.917  0.7040 -0.2638  0.6211
  575MOL0     C77496   2.834   1.935  10.840  0.0408  0.4069  0.5587
  575MOL0     C77497   2.817   1.836  10.748 -0.2661 -0.5546  0.2408
  575MOL0     O77498   2.915   1.782  10.657  1.1985  0.3448 -0.5001
  575MOL0     C77499   3.033   1.732  10.719  0.0781 -0.5015  0.9857
  575MOL0     C77500   3.045   1.586  10.691  1.0251  0.2197  0.4723
  575MOL0     C77501   3.184   1.535  10.740 -0.0846  0.2787 -0.5619
  575MOL0     C77502   3.303   1.569  10.659 -0.8815 -0.5106 -1.3806
  575MOL0     C77503   3.411   1.466  10.671  0.0693  1.1401  0.7484
  575MOL0     C77504   3.483   1.468  10.801 -0.2379  0.0780 -0.5525
  575MOL0     C77505   3.557   1.334  10.826  0.8279 -0.3152 -0.0149
  575MOL0     C77506   3.653   1.285  10.717  0.7541 -0.0575  0.0573
  575MOL0     N77507   3.741   1.386  10.664 -0.6428 -0.2760 -0.8737
  575MOL0     C77508   3.808   1.495  10.728  0.3567  0.0064 -0.3914
  575MOL0     C77509   3.875   1.554  10.635  0.1185 -0.4471 -0.3366
  575MOL0     C77510   3.948   1.674  10.671 -0.0697  0.1496 -0.5778
  575MOL0     C77511   4.100   1.635  10.703 -0.1117 -0.4612 -1.3070
  575MOL0     C77512   4.178   1.609  10.572  0.7403  0.1471 -0.2351
  575MOL0     C77513   4.246   1.734  10.523 -0.1533  0.4275  0.6868
  575MOL0     O77514   4.341   1.791  10.609 -0.0957  0.4713  0.3587
  575MOL0     C77515   4.426   1.882  10.564 -0.6459 -0.6628  0.6923
  575MOL0     C77516   4.559   1.876  10.603  0.0811 -1.2864 -0.2996
  575MOL0     C77517   4.652   1.976  10.573  0.3521  0.0047  0.2973
  575MOL0     C77518   4.614   2.074  10.479  0.8985  0.8645  0.0979
  575MOL0     C77519   4.704   2.187  10.435 -0.6642  1.0228 -0.2270
  575MOL0     O77520   4.829   2.189  10.484  0.0395 -0.2878 -0.0667
  575MOL0     C77521   4.925   2.273  10.443 -0.9221  0.4086 -0.5609
  575MOL0     C77522   4.956   2.291  10.311  0.2042 -0.2386 -0.0025
  575MOL0     C77523   5.056   2.379  10.272 -0.1468  0.5742  0.4244
  575MOL0     C77524   5.130   2.445  10.372  0.2306 -0.4064 -0.0588
  575MOL0     O77525   5.215   2.543  10.342  0.8520 -0.1637 -0.0728
  575MOL0     C77526   5.315   2.508  10.239  0.1586  0.4657  0.9005
  575MOL0     C77527   5.419   2.616  10.229 -0.0474 -0.1440 -0.4525
  575MOL0     C77528   5.499   2.597  10.106 -0.0200 -0.3643  0.4797
  575MOL0     C77529   5.590   2.711  10.076 -0.5648  0.5370 -0.6925
  575MOL0     C77530   5.694   2.682   9.977 -1.1225 -0.6936  0.2303
  575MOL0     C77531   5.773   2.815   9.941 -0.0534  0.5060 -0.6105
  575MOL0     C77532   5.895   2.804   9.838 -0.7544 -0.4052  0.4085
  575MOL0     C77533   5.858   2.889   9.719 -0.1228  0.0130  0.0644
  575MOL0    Cl77534   5.845   3.065   9.762  0.4691  0.5383 -0.2166
  575MOL0     C77535   5.110   2.419  10.508 -0.4665 -1.0020 -0.3573
  575MOL0     C77536   5.004   2.329  10.545  0.0028 -0.2075 -0.0914
  575MOL0     O77537   4.663   2.262  10.347  0.2100 -0.5764  0.0881
  575MOL0     C77538   4.485   2.077  10.431  0.3782 -0.5153 -0.3221
  575MOL0     C77539   4.390   1.982  10.471 -0.0179  0.2955  1.4641
  575MOL0     N77540   3.837   1.508  10.513 -0.6654 -0.2174 -0.9289
  575MOL0     N77541   3.765   1.405  10.527 -0.0518 -0.2264  0.3229
  575MOL0     C77542   2.690   1.791  10.737  0.4692  0.2659 -0.4164
  575MOL0     C77543   2.576   1.844  10.805 -0.5064  1.3025  0.1190
  575MOL0     C77544   2.334   2.139  11.069  0.2898 -0.1170 -0.9392
  575MOL0     C77545   2.278   2.270  11.059  0.3401 -0.7735  0.6606
  575MOL0     C77546   2.153   2.318  11.112  0.2829  1.2744  0.4719
  575MOL0     C77547   2.070   2.229  11.178  0.3274  0.9423  0.1737
  575MOL0     O77548   1.952   2.277  11.225 -0.3270  0.3769 -0.0925
  575MOL0     C77549   1.863   2.195  11.301 -0.9408  0.5262  0.3910
  575MOL0     C77550   1.777   2.278  11.389  1.3867  0.1175  0.2833
  575MOL0     C77551   1.671   2.206  11.484 -0.9081 -0.6906  0.2457
  575MOL0     C77552   1.601   2.296  11.590 -0.4536 -0.7026 -0.1903
  575MOL0     C77553   1.518   2.398  11.530  0.0506 -0.5918  0.5158
  575MOL0     C77554   1.464   2.489  11.467 -0.0173 -0.0454  0.7160
  575MOL0     C77555   2.110   2.092  11.179  0.0220  0.4857 -0.8764
  575MOL0     C77556   2.239   2.048  11.136 -0.6226  0.2441  0.1586
  575MOL0     C77557   2.281   1.904  11.156  0.3202  0.0962 -0.4623
  575MOL0     H77558   2.758   2.035  11.007  0.3063 -3.2891  2.7188
  575MOL0     H77559   2.932   1.970  10.871 -0.3932 -0.4177  3.1185
  575MOL0     H77560   3.120   1.788  10.684 -0.0854 -0.3702  0.7891
  575MOL0     H77561   3.028   1.742  10.828  0.0473 -0.5047  0.9846
  575MOL0     H77562   3.036   1.570  10.583 -1.1991  0.3453  0.5866
  575MOL0     H77563   2.974   1.521  10.742  1.8505  0.5280  2.0712
  575MOL0     H77564   3.168   1.427  10.737  2.5383 -0.1547 -1.1671
  575MOL0     H77565   3.197   1.562  10.846 -3.2766  2.5449 -0.6043
  575MOL0     H77566   3.275   1.586  10.554  0.9390  0.8554 -1.6943
  575MOL0     H77567   3.334   1.670  10.688 -1.9260  0.1136 -2.3410
  575MOL0     H77568   3.360   1.371  10.656 -0.4267  1.4035  0.7328
  575MOL0     H77569   3.476   1.480  10.584 -2.1973 -0.8619 -1.4223
  575MOL0     H77570   3.556   1.550  10.802 -2.3112  2.0413 -1.0509
  575MOL0     H77571   3.404   1.495  10.872 -0.6316  1.7899 -1.5620
  575MOL0     H77572   3.485   1.252  10.838  0.9784 -0.8622 -2.2977
  575MOL0     H77573   3.612   1.336  10.920 -1.1180 -0.1860  1.1720
  575MOL0     H77574   3.707   1.203  10.765 -2.4221 -0.9104  2.4739
  575MOL0     H77575   3.598   1.241  10.633  3.6283 -0.6650 -1.6670
  575MOL0     H77576   3.801   1.529  10.830  3.8699  2.5330 -0.8200
  575MOL0     H77577   3.926   1.755  10.600  0.8478  2.4545  1.6459
  575MOL0     H77578   3.914   1.717  10.765  0.2059 -3.5994  1.4250
  575MOL0     H77579   4.151   1.711  10.763 -0.7491 -0.8361 -0.2713
  575MOL0     H77580   4.098   1.551  10.773  0.6187  0.2480 -0.3849
  575MOL0     H77581   4.116   1.566  10.493  0.4523  0.9511 -0.4565
  575MOL0     H77582   4.254   1.533  10.591 -0.6328 -1.2058  0.0135
  575MOL0     H77583   4.172   1.814  10.514  0.5309  0.8465 -3.6998
  575MOL0     H77584   4.281   1.710  10.422 -0.7077 -1.1904  0.8389
  575MOL0     H77585   4.591   1.799  10.673  1.2150  2.5156  3.8182
  575MOL0     H77586   4.753   1.968  10.614  0.1519 -1.6237  0.5102
  575MOL0     H77587   4.889   2.242  10.241 -0.7582 -1.5580  1.7607
  575MOL0     H77588   5.066   2.403  10.166 -1.3060  1.2820  0.4623
  575MOL0     H77589   5.362   2.418  10.280  1.2927  0.6240 -0.0131
  575MOL0     H77590   5.267   2.478  10.145 -1.9063 -0.7946  2.2639
  575MOL0     H77591   5.361   2.708  10.214 -0.9413 -1.1181 -3.5822
  575MOL0     H77592   5.482   2.627  10.318 -0.7455  1.7801 -0.1266
  575MOL0     H77593   5.550   2.501  10.117 -1.6902 -1.3025  0.4665
  575MOL0     H77594   5.444   2.582  10.012 -0.4538 -0.1355  0.6922
  575MOL0     H77595   5.646   2.738  10.166 -3.0621  0.9547  0.8266
  575MOL0     H77596   5.535   2.796  10.034 -0.4156 -0.7296 -3.7019
  575MOL0     H77597   5.653   2.634   9.887  0.7865 -0.5986 -0.7298
  575MOL0     H77598   5.765   2.608  10.013 -0.5271 -1.0722 -1.5950
  575MOL0     H77599   5.697   2.891   9.920  1.4367  3.1470  2.7193
  575MOL0     H77600   5.806   2.860  10.035 -4.0799  2.7697 -0.0425
  575MOL0     H77601   5.919   2.703   9.803  1.9886  0.1121  0.6040
  575MOL0     H77602   5.981   2.842   9.894 -0.5134 -2.0217  1.2025
  575MOL0     H77603   5.936   2.880   9.642 -0.9111  0.1838 -0.7704
  575MOL0     H77604   5.763   2.855   9.677  0.8666 -1.5311 -1.0879
  575MOL0     H77605   5.177   2.460  10.583 -3.0813 -1.5037  2.4487
  575MOL0     H77606   4.987   2.302  10.649  1.9185 -3.2601 -0.4321
  575MOL0     H77607   4.450   2.141  10.350 -0.9455 -2.7160 -1.6070
  575MOL0     H77608   4.292   1.980  10.422 -0.3119 -2.1349  2.0111
  575MOL0     H77609   2.674   1.708  10.668  0.5439  0.3188 -0.4968
  575MOL0     H77610   2.474   1.811  10.787 -0.1612 -0.1007  0.6180
  575MOL0     H77611   2.334   2.338  10.995 -0.7396 -2.8467 -2.7704
  575MOL0     H77612   2.118   2.415  11.077  0.8442  1.2023 -0.3301
  575MOL0     H77613   1.924   2.134  11.367  1.8296  0.3711 -2.0931
  575MOL0     H77614   1.814   2.138  11.221 -3.2957  3.4365 -0.4613
  575MOL0     H77615   1.715   2.350  11.333  0.1714 -0.7107  0.5236
  575MOL0     H77616   1.836   2.343  11.455  1.9388  1.1282 -1.1390
  575MOL0     H77617   1.710   2.127  11.549 -1.2401  1.1080  2.7606
  575MOL0     H77618   1.585   2.164  11.430 -2.3588 -0.2119  2.0911
  575MOL0     H77619   1.529   2.240  11.650 -1.6916  1.2720  0.2527
  575MOL0     H77620   1.678   2.342  11.652 -0.4604  0.8398 -1.2653
  575MOL0     H77621   1.418   2.571  11.415 -0.3934  0.5729  1.9580
  575MOL0     H77622   2.057   2.016  11.235 -0.0483  0.1163 -1.4315
  575MOL0     H77623   2.201   1.867  11.221  0.1314  1.1708 -0.0544
  575MOL0     H77624   2.289   1.855  11.059 -0.4667  2.0739 -1.5889
  575MOL0     H77625   2.379   1.891  11.203  1.0600 -1.5528 -2.3512
  576MOL0     O77626   1.244   2.051  11.027  0.3315 -0.4674  0.5957
  576MOL0     C77627   1.133   2.079  10.972 -0.0008  0.2805 -0.9969
  576MOL0     O77628   1.120   2.098  10.838 -0.1988  0.3613 -0.5349
  576MOL0     C77629   1.213   2.049  10.748 -0.3066  0.3189 -0.0478
  576MOL0     C77630   1.184   1.922  10.684 -0.2202  0.1371 -0.2688
  576MOL0     C77631   1.287   1.859  10.615  0.0212  0.4808 -0.3537
  576MOL0     C77632   1.403   1.924  10.583 -0.2976  0.0512  0.3138
  576MOL0     O77633   1.495   1.855  10.506  0.1310 -0.2832 -0.0909
  576MOL0     C77634   1.634   1.888  10.528  1.4419 -0.1341 -1.0068
  576MOL0     C77635   1.722   1.781  10.479  0.2991 -0.7251  0.7173
  576MOL0     C77636   1.689   1.734  10.337 -0.2230  0.8183  0.3991
  576MOL0     C77637   1.795   1.643  10.293 -0.8557  1.1934  0.3269
  576MOL0     C77638   1.765   1.599  10.140  1.0460  0.3280 -0.7436
  576MOL0     C77639   1.864   1.506  10.068  0.6013  0.1823 -0.0795
  576MOL0     C77640   1.828   1.488   9.917 -0.2960 -0.0517  0.1261
  576MOL0     C77641   1.704   1.398   9.890  0.2910 -0.9116 -0.7036
  576MOL0     N77642   1.703   1.351   9.752  0.7049 -0.6633 -0.4072
  576MOL0     C77643   1.764   1.235   9.711  0.5948 -0.3110 -0.4213
  576MOL0     C77644   1.728   1.217   9.585 -0.0136 -0.0665  0.1785
  576MOL0     C77645   1.785   1.114   9.498  0.5866 -0.2037  1.4943
  576MOL0     C77646   1.775   0.971   9.549  0.0892 -0.7536  0.1709
  576MOL0     C77647   1.630   0.916   9.604 -0.1768 -0.1110 -0.1135
  576MOL0     C77648   1.655   0.780   9.680 -0.9702  0.3812  0.3120
  576MOL0     O77649   1.547   0.759   9.774  0.0410 -0.4213  0.3266
  576MOL0     C77650   1.552   0.830   9.894  0.5726 -0.1299  0.6630
  576MOL0     C77651   1.450   0.805   9.988  0.5947 -0.8219 -0.1941
  576MOL0     C77652   1.437   0.845  10.116 -1.2515 -0.0699  0.0529
  576MOL0     C77653   1.546   0.929  10.154 -0.5925 -0.4128  0.0802
  576MOL0     C77654   1.544   0.983  10.289  0.5862 -1.0891 -0.8329
  576MOL0     O77655   1.633   1.081  10.328  0.7998  0.0306 -0.0197
  576MOL0     C77656   1.593   1.156  10.438 -0.5963  0.5283 -0.1346
  576MOL0     C77657   1.594   1.294  10.423 -0.4365  0.5279  0.1833
  576MOL0     C77658   1.577   1.377  10.536  0.5155 -0.4192  0.1172
  576MOL0     C77659   1.559   1.325  10.663  0.4265  0.3445  0.3422
  576MOL0     O77660   1.529   1.394  10.779 -0.4522 -0.9381 -0.4176
  576MOL0     C77661   1.559   1.533  10.785 -0.8639 -0.2828  0.1305
  576MOL0     C77662   1.566   1.601  10.924 -0.0537  0.8532  0.6787
  576MOL0     C77663   1.438   1.591  11.011 -0.5455 -0.2381  0.5257
  576MOL0     C77664   1.347   1.711  10.982  0.4171  0.2729  0.5375
  576MOL0     C77665   1.212   1.697  11.039 -0.7333 -0.6620 -0.1296
  576MOL0     C77666   1.128   1.611  10.935  0.9992 -0.4485 -0.3235
  576MOL0     C77667   0.988   1.631  10.944  0.3567 -0.6984 -0.5149
  576MOL0     C77668   0.904   1.509  10.914  0.6560  0.8765  0.2293
  576MOL0    Cl77669   0.866   1.405  11.059  0.2356 -0.5568  0.3624
  576MOL0     C77670   1.560   1.183  10.678  0.6713  0.3130 -0.6715
  576MOL0     C77671   1.580   1.099  10.570  0.4610  0.3264  0.5380
  576MOL0     O77672   1.453   0.942  10.353  0.8367 -0.4236 -0.2625
  576MOL0     C77673   1.655   0.960  10.071  0.3882 -0.4180  0.0973
  576MOL0     C77674   1.664   0.911   9.937  1.0907  0.3385  0.1766
  576MOL0     N77675   1.646   1.317   9.544  0.3090 -0.0379  0.2765
  576MOL0     N77676   1.638   1.406   9.642 -0.3151  0.1570 -0.1736
  576MOL0     C77677   1.423   2.056  10.623 -0.5475 -0.4381 -0.6289
  576MOL0     C77678   1.329   2.112  10.711  0.5131  0.2022  0.7577
  576MOL0     C77679   1.029   2.139  11.060 -0.7021 -0.5415 -1.2756
  576MOL0     C77680   0.948   2.242  11.010 -0.3382 -0.9978 -0.5656
  576MOL0     C77681   0.862   2.316  11.087 -0.4344  0.3910  0.6568
  576MOL0     C77682   0.838   2.270  11.218  1.0304  0.0148  0.5980
  576MOL0     O77683   0.740   2.334  11.295  0.3990 -0.6005  0.4153
  576MOL0     C77684   0.603   2.323  11.254  0.0445 -0.1368 -0.1044
  576MOL0     C77685   0.519   2.252  11.358  0.4833  0.1512 -1.0703
  576MOL0     C77686   0.385   2.198  11.298  0.6044  0.4284 -0.2872
  576MOL0     C77687   0.299   2.172  11.420  0.5569  0.2189 -0.4787
  576MOL0     C77688   0.178   2.097  11.378  0.1617 -0.4571  0.0765
  576MOL0     C77689   0.098   2.023  11.334  1.0485 -0.6576  0.8736
  576MOL0     C77690   0.905   2.168  11.272  0.4744  0.3128 -0.5625
  576MOL0     C77691   1.009   2.103  11.200  0.4654  0.3424  0.0391
  576MOL0     C77692   1.070   1.983  11.267  0.3916  0.6678 -0.0388
  576MOL0     H77693   1.085   1.878  10.696  1.0138 -2.1150  2.9227
  576MOL0     H77694   1.277   1.755  10.585  0.1715  0.8239 -1.6099
  576MOL0     H77695   1.668   1.975  10.471  0.0129 -0.7948 -2.9593
  576MOL0     H77696   1.651   1.901  10.636  1.3538  3.7768 -1.3109
  576MOL0     H77697   1.703   1.695  10.543 -1.1063 -1.5263 -0.7159
  576MOL0     H77698   1.824   1.818  10.490  0.2423 -0.6953  1.1463
  576MOL0     H77699   1.679   1.816  10.265  1.5901 -0.9738 -2.0623
  576MOL0     H77700   1.597   1.677  10.352  0.0269  0.4553  0.5697
  576MOL0     H77701   1.896   1.683  10.305  0.5187 -1.9133  0.3464
  576MOL0     H77702   1.798   1.551  10.353 -2.7388  2.2050  2.0839
  576MOL0     H77703   1.663   1.561  10.136  1.4969 -1.0842  0.2910
  576MOL0     H77704   1.753   1.688  10.077 -5.1408  0.0216 -0.5633
  576MOL0     H77705   1.962   1.553  10.082  0.8593  0.2152 -1.7867
  576MOL0     H77706   1.865   1.408  10.118 -3.1299 -0.1007 -0.2964
  576MOL0     H77707   1.910   1.434   9.869 -0.1747  0.7368 -0.5592
  576MOL0     H77708   1.822   1.580   9.859 -1.5874  0.1148  0.4888
  576MOL0     H77709   1.700   1.323   9.969  0.8661  1.1982  1.4289
  576MOL0     H77710   1.612   1.457   9.887 -1.7835 -3.8616 -0.2049
  576MOL0     H77711   1.833   1.171   9.766  1.0579  0.9302  0.4662
  576MOL0     H77712   1.732   1.116   9.402 -0.1071  0.9378  1.8900
  576MOL0     H77713   1.891   1.142   9.488  0.6740 -1.1452 -1.2102
  576MOL0     H77714   1.813   0.897   9.478  0.9263 -0.0033 -0.1764
  576MOL0     H77715   1.846   0.945   9.629 -1.5348 -1.5062  1.4179
  576MOL0     H77716   1.560   0.906   9.520 -0.6802  0.0323  0.2833
  576MOL0     H77717   1.586   0.984   9.678 -2.4574 -1.8041  0.1959
  576MOL0     H77718   1.753   0.765   9.725  0.0164  1.6653 -1.2854
  576MOL0     H77719   1.641   0.694   9.614  2.0794 -0.1885  0.2834
  576MOL0     H77720   1.362   0.749   9.957 -1.1339  1.9270 -0.5821
  576MOL0     H77721   1.357   0.810  10.180 -2.2935  0.1913 -1.0708
  576MOL0     H77722   1.607   1.339  10.325  0.8104 -1.8001 -0.8122
  576MOL0     H77723   1.575   1.483  10.510 -0.7223 -0.7264 -1.1443
  576MOL0     H77724   1.657   1.548  10.740 -0.6148  0.5534  0.9210
  576MOL0     H77725   1.482   1.591  10.732 -2.1074  0.3500  2.4655
  576MOL0     H77726   1.658   1.572  10.977  0.9750 -0.3221 -1.5982
  576MOL0     H77727   1.575   1.706  10.896 -0.0219  0.1728 -2.1397
  576MOL0     H77728   1.385   1.500  10.981 -0.7992  0.1945 -0.3851
  576MOL0     H77729   1.466   1.598  11.116 -1.0733 -0.3047  0.6773
  576MOL0     H77730   1.329   1.715  10.874 -1.2363  0.0439  0.7737
  576MOL0     H77731   1.396   1.800  11.022  0.6011 -0.1299  1.2382
  576MOL0     H77732   1.171   1.798  11.043 -0.1414 -0.4430  3.1269
  576MOL0     H77733   1.211   1.664  11.144 -3.3342  2.0341  0.8304
  576MOL0     H77734   1.155   1.619  10.830 -0.5275  2.3852 -0.5989
  576MOL0     H77735   1.149   1.511  10.974  0.9122 -0.1968  0.3978
  576MOL0     H77736   0.958   1.712  10.876 -2.5326 -0.5335  0.8027
  576MOL0     H77737   0.959   1.661  11.045  1.4836 -2.4290  0.3683
  576MOL0     H77738   0.806   1.537  10.873  1.3383  1.1392 -1.2613
  576MOL0     H77739   0.954   1.440  10.845  3.0111  1.3833  1.3434
  576MOL0     H77740   1.552   1.158  10.784  1.0425 -0.1417 -0.7463
  576MOL0     H77741   1.579   0.993  10.589 -0.7112  0.3363  0.6138
  576MOL0     H77742   1.740   1.016  10.109 -0.5808  0.6529  0.7450
  576MOL0     H77743   1.742   0.923   9.863 -1.4395  1.3080 -2.5416
  576MOL0     H77744   1.505   2.112  10.578 -1.4897 -1.0289 -3.2511
  576MOL0     H77745   1.348   2.213  10.746  0.0008  0.1342  1.2475
  576MOL0     H77746   0.961   2.264  10.905 -1.4410 -2.9121 -1.1566
  576MOL0     H77747   0.786   2.386  11.054 -3.5477 -2.6971  0.7047
  576MOL0     H77748   0.592   2.271  11.158  2.5706 -0.9963 -0.0133
  576MOL0     H77749   0.558   2.422  11.245  3.5305  1.3526 -3.5261
  576MOL0     H77750   0.505   2.315  11.446  2.6108 -0.7931  0.0238
  576MOL0     H77751   0.581   2.167  11.386  1.1796  0.9608 -0.0782
  576MOL0     H77752   0.384   2.107  11.237 -2.4588  0.8548 -1.0667
  576MOL0     H77753   0.327   2.271  11.241  0.0286  1.1579  1.1789
  576MOL0     H77754   0.344   2.106  11.496 -2.2714 -0.7753  0.4936
  576MOL0     H77755   0.277   2.269  11.465 -0.5157  0.4268 -1.4167
  576MOL0     H77756   0.033   1.976  11.263 -1.6342  4.5793 -0.6890
  576MOL0     H77757   0.886   2.140  11.375 -3.9018  1.2811 -0.9045
  576MOL0     H77758   1.048   1.893  11.208  0.9059  1.5876 -1.7097
  576MOL0     H77759   1.178   1.990  11.259  0.5473  2.8286  2.5161
  576MOL0     H77760   1.040   1.973  11.372 -1.1167 -0.4374 -0.5313
  577MOL0     O77761  10.997  10.006   1.078 -0.9971 -0.0075  0.3646
  577MOL0     C77762  10.998  10.095   1.164 -0.2507  0.3217 -0.1255
  577MOL0     O77763  11.087  10.200   1.169  0.1740  0.0713  0.6470
  577MOL0     C77764  11.174  10.197   1.065 -0.5707  1.0259  0.3466
  577MOL0     C77765  11.296  10.125   1.067  0.9559  0.8233 -0.2599
  577MOL0     C77766  11.373  10.126   0.956 -0.4480  0.2427  0.1396
  577MOL0     C77767  11.351  10.208   0.845 -0.1281 -0.4364  0.1106
  577MOL0     O77768  11.436  10.231   0.735 -0.0315 -0.3436 -0.5511
  577MOL0     C77769  11.517  10.116   0.696  0.6426 -0.4883 -0.5157
  577MOL0     C77770  11.582  10.148   0.559  0.4900  0.3510  0.6786
  577MOL0     C77771  11.653  10.028   0.507  0.2612  0.1816  0.5236
  577MOL0     C77772  11.732  10.079   0.383 -0.0764  1.2043 -0.2113
  577MOL0     C77773  11.788   9.959   0.305  0.2961 -0.5063 -0.8234
  577MOL0     C77774  11.854  10.017   0.173  0.2331 -0.7832  0.3131
  577MOL0     C77775  12.009  10.072   0.183 -0.0364  0.5923  0.8330
  577MOL0     C77776  12.022  10.194   0.281  0.7470  0.8835  0.0895
  577MOL0     N77777  12.146  10.272   0.279  0.5473  0.1552 -0.3006
  577MOL0     C77778  12.205  10.336   0.165 -1.0311  0.0061 -0.0859
  577MOL0     C77779  12.321  10.389   0.211  0.0527 -0.4396 -0.1464
  577MOL0     C77780  12.430  10.447   0.118 -0.8329  0.5871  0.2333
  577MOL0     C77781  12.406  10.599   0.097 -0.3420  0.5312  0.2925
  577MOL0     C77782  12.510  10.659   0.007  0.4617 -0.1863 -0.3155
  577MOL0     C77783  12.658  10.659   0.058  0.3304  0.1785  0.2617
  577MOL0     O77784  12.684  10.744   0.177 -0.7012 -0.7425  0.0960
  577MOL0     C77785  12.636  10.720   0.301  0.6680 -0.6989 -0.0188
  577MOL0     C77786  12.639  10.591   0.367  1.2828 -0.4748 -0.3887
  577MOL0     C77787  12.590  10.580   0.501 -1.0409 -0.6417  0.2993
  577MOL0     C77788  12.526  10.682   0.568  0.0492 -0.5182  1.4369
  577MOL0     C77789  12.460  10.645   0.694 -0.7175 -0.2319 -0.2174
  577MOL0     O77790  12.482  10.521   0.756  0.0481 -0.4010 -0.8705
  577MOL0     C77791  12.373  10.480   0.836 -0.3750  0.5780  0.4287
  577MOL0     C77792  12.404  10.443   0.968 -0.4568 -0.6282 -0.1122
  577MOL0     C77793  12.303  10.390   1.058  0.0371  0.3630  0.0806
  577MOL0     C77794  12.174  10.362   1.017 -0.6160  0.2396  0.5338
  577MOL0     O77795  12.074  10.320   1.096  0.1776 -0.1672  0.4115
  577MOL0     C77796  12.100  10.270   1.231 -0.1883 -0.2916 -0.2917
  577MOL0     C77797  11.962  10.207   1.268 -0.3506  0.3843 -0.1830
  577MOL0     C77798  11.849  10.311   1.247 -0.2502  0.4109 -0.6475
  577MOL0     C77799  11.760  10.253   1.132  0.6308  0.2063  0.6557
  577MOL0     C77800  11.671  10.135   1.170  0.0881 -0.4535  0.1356
  577MOL0     C77801  11.701  10.000   1.107 -0.0258  0.0495  0.1491
  577MOL0     C77802  11.617   9.876   1.146 -0.3374 -0.8020  0.1069
  577MOL0     C77803  11.670   9.751   1.073 -0.6143  0.5754  0.7274
  577MOL0    Cl77804  11.612   9.747   0.903 -0.2251 -0.2830  0.5364
  577MOL0     C77805  12.147  10.390   0.879  0.2051  0.2284  0.6863
  577MOL0     C77806  12.242  10.447   0.792 -0.2354  1.0309 -0.2654
  577MOL0     O77807  12.381  10.737   0.729  0.1916  0.6649 -0.3079
  577MOL0     C77808  12.534  10.812   0.506  0.0928  0.1802 -0.0954
  577MOL0     C77809  12.587  10.833   0.376  1.0293  0.4882 -0.5722
  577MOL0     N77810  12.331  10.360   0.345  0.3066 -0.2860  0.1624
  577MOL0     N77811  12.229  10.288   0.383 -0.7468 -0.5992  0.1810
  577MOL0     C77812  11.230  10.275   0.841  0.2069  0.4653 -0.0793
  577MOL0     C77813  11.145  10.271   0.954 -0.4662 -0.1072  0.3819
  577MOL0     C77814  10.913  10.076   1.288 -0.4673 -0.1116 -0.1077
  577MOL0     C77815  10.945  10.149   1.405  0.5976 -0.0437  0.2442
  577MOL0     C77816  10.854  10.149   1.522 -0.3938 -0.1609 -0.4524
  577MOL0     C77817  10.737  10.074   1.533  0.5215  0.3002 -0.7670
  577MOL0     O77818  10.633  10.064   1.629 -0.1390  0.7219 -0.0791
  577MOL0     C77819  10.677  10.072   1.770  0.2386  0.9782  0.4060
  577MOL0     C77820  10.652   9.939   1.844  0.2687  0.1066 -0.3992
  577MOL0     C77821  10.728   9.840   1.761 -0.4077  0.0697  0.0048
  577MOL0     C77822  10.792   9.729   1.849 -0.1869 -0.3619  0.1480
  577MOL0     C77823  10.922   9.769   1.892  0.3388 -1.4841  0.1896
  577MOL0     C77824  11.033   9.801   1.911 -0.1009 -0.1762  0.0900
  577MOL0     C77825  10.715   9.997   1.412 -0.0421  0.8062 -0.0889
  577MOL0     C77826  10.792   9.999   1.297 -0.1887  0.0453  0.6324
  577MOL0     C77827  10.734   9.927   1.175 -0.5469 -0.4127  0.0935
  577MOL0     H77828  11.327  10.061   1.149  1.4512  1.1478 -0.1938
  577MOL0     H77829  11.455  10.056   0.953 -1.5143 -1.0607  0.1476
  577MOL0     H77830  11.606  10.108   0.760  0.2052  1.5001  0.4399
  577MOL0     H77831  11.459  10.024   0.695  1.1843 -0.8891  1.0709
  577MOL0     H77832  11.648  10.235   0.564 -1.0153  1.5591  0.4481
  577MOL0     H77833  11.499  10.172   0.492 -1.1607  0.1271  2.5559
  577MOL0     H77834  11.580   9.951   0.478 -1.3245  1.7713  0.1572
  577MOL0     H77835  11.724   9.986   0.579 -0.1723 -0.9183  0.3371
  577MOL0     H77836  11.649  10.129   0.331 -0.0380  0.1679 -1.3167
  577MOL0     H77837  11.807  10.153   0.409 -0.0082  2.1510 -2.8366
  577MOL0     H77838  11.864   9.917   0.371 -0.4541 -0.4357  0.1093
  577MOL0     H77839  11.704   9.891   0.289  0.1987  0.1852 -4.1968
  577MOL0     H77840  11.862   9.938   0.098  2.3217  1.2850 -1.7968
  577MOL0     H77841  11.783  10.093   0.137 -0.8388 -1.7747  0.2694
  577MOL0     H77842  12.041  10.100   0.083 -1.7629 -2.0702 -0.5936
  577MOL0     H77843  12.076   9.993   0.217  0.5349 -0.2363 -1.9832
  577MOL0     H77844  11.942  10.264   0.255 -1.1800  0.2255  3.6085
  577MOL0     H77845  12.011  10.157   0.383 -1.5526 -4.0221 -1.5820
  577MOL0     H77846  12.167  10.338   0.063  0.6480  0.2212 -0.7416
  577MOL0     H77847  12.522  10.418   0.170 -2.7829  0.3128  3.8401
  577MOL0     H77848  12.418  10.387   0.027  0.0100 -0.0009  0.4933
  577MOL0     H77849  12.304  10.614   0.062 -0.3781  2.9955  1.2458
  577MOL0     H77850  12.404  10.634   0.200 -2.9446 -0.4110  0.6155
  577MOL0     H77851  12.472  10.762  -0.004  0.0607 -0.5631 -3.7292
  577MOL0     H77852  12.493  10.612  -0.090 -1.2208  0.0502 -0.1823
  577MOL0     H77853  12.713  10.709  -0.023 -2.5549  0.1278 -1.8699
  577MOL0     H77854  12.696  10.558   0.071  1.2181  0.0504 -2.5926
  577MOL0     H77855  12.693  10.509   0.321  1.4252  0.1943 -1.4521
  577MOL0     H77856  12.614  10.487   0.552 -1.1103 -0.2336  1.0846
  577MOL0     H77857  12.500  10.468   1.012 -1.3105 -0.8821  2.0267
  577MOL0     H77858  12.322  10.387   1.165 -3.0694  3.5198  0.9189
  577MOL0     H77859  12.179  10.194   1.226  1.0386  0.9703 -1.1898
  577MOL0     H77860  12.134  10.345   1.303  2.9231 -3.3944  1.7850
  577MOL0     H77861  11.943  10.115   1.213 -3.0444  1.3616 -1.0350
  577MOL0     H77862  11.968  10.172   1.371  4.3682  1.5426  0.1730
  577MOL0     H77863  11.794  10.333   1.340 -0.5955 -0.2344 -0.6943
  577MOL0     H77864  11.899  10.405   1.224 -0.7358  1.0787  0.8445
  577MOL0     H77865  11.818  10.226   1.043 -0.3929 -0.4056  0.1461
  577MOL0     H77866  11.692  10.336   1.111  0.3321  0.5480  2.8244
  577MOL0     H77867  11.564  10.152   1.155 -1.0924 -1.6786  5.1770
  577MOL0     H77868  11.692  10.135   1.277  4.9495  0.4195 -0.5871
  577MOL0     H77869  11.693  10.017   0.999 -2.2664  0.0239  0.2661
  577MOL0     H77870  11.808   9.976   1.114  0.0786  0.0157 -1.2063
  577MOL0     H77871  11.510   9.883   1.126  0.1108 -0.9208 -2.7721
  577MOL0     H77872  11.632   9.852   1.252  3.8824 -1.4773 -0.4482
  577MOL0     H77873  11.779   9.749   1.076 -0.5556  1.3374 -0.3326
  577MOL0     H77874  11.644   9.654   1.118  1.4408 -0.2447  0.2854
  577MOL0     H77875  12.043  10.381   0.848 -0.1047 -1.0167  1.9876
  577MOL0     H77876  12.220  10.476   0.690 -1.7592  1.0795  0.0529
  577MOL0     H77877  12.500  10.895   0.568 -0.0708 -1.0043  1.4763
  577MOL0     H77878  12.607  10.933   0.340  0.3793  1.4200  1.5124
  577MOL0     H77879  11.202  10.337   0.757  0.7041  0.8104  0.0051
  577MOL0     H77880  11.052  10.326   0.954  0.0782  0.8409 -0.7148
  577MOL0     H77881  11.031  10.215   1.404 -0.9558  2.1209  0.3876
  577MOL0     H77882  10.876  10.226   1.595  0.7183  0.1140 -1.0549
  577MOL0     H77883  10.633  10.157   1.822 -2.7650  0.9079 -1.7587
  577MOL0     H77884  10.783  10.097   1.757  0.5074 -0.5011 -0.4767
  577MOL0     H77885  10.547   9.913   1.854  0.6653 -1.1108  0.9238
  577MOL0     H77886  10.703   9.966   1.937  2.5980 -0.4094 -1.4477
  577MOL0     H77887  10.804   9.900   1.709 -2.3356  2.9045  0.2613
  577MOL0     H77888  10.661   9.802   1.684  1.8445 -0.4976 -1.8073
  577MOL0     H77889  10.729   9.709   1.937 -2.0351  2.5575 -0.3634
  577MOL0     H77890  10.804   9.637   1.790  0.2467  1.0600 -2.1050
  577MOL0     H77891  11.133   9.827   1.940  0.5784 -0.6372 -1.7179
  577MOL0     H77892  10.621   9.942   1.407 -0.5549  1.4759  1.4800
  577MOL0     H77893  10.756   9.968   1.076 -0.5026 -0.4267  0.0976
  577MOL0     H77894  10.765   9.822   1.176  1.1230  0.0470 -0.4709
  577MOL0     H77895  10.626   9.938   1.190 -0.6408 -3.0867  2.1898
  578MOL0     O77896   3.605   9.657  10.816  0.8206 -0.1831  0.8401
  578MOL0     C77897   3.498   9.706  10.766  0.1008 -0.2418  0.4201
  578MOL0     O77898   3.389   9.637  10.705  0.1565  0.7062  0.5428
  578MOL0     C77899   3.397   9.506  10.669 -0.4556 -0.2886  0.1604
  578MOL0     C77900   3.515   9.454  10.602 -1.3313  0.3798 -0.4993
  578MOL0     C77901   3.519   9.319  10.557 -0.0415 -0.3382  0.7033
  578MOL0     C77902   3.406   9.230  10.582 -0.6673 -0.7175 -0.1277
  578MOL0     O77903   3.407   9.099  10.540  0.7784 -0.7389  1.1962
  578MOL0     C77904   3.465   9.077  10.411  0.1018  1.0879 -0.2081
  578MOL0     C77905   3.399   8.946  10.372 -0.8221  0.6114 -0.3702
  578MOL0     C77906   3.459   8.828  10.465  0.8971 -0.6675  0.0292
  578MOL0     C77907   3.410   8.690  10.424 -0.5614 -0.8295 -0.1149
  578MOL0     C77908   3.494   8.576  10.476  0.5492 -1.4358  0.0707
  578MOL0     C77909   3.469   8.551  10.624  0.3372 -0.5967 -0.6928
  578MOL0     C77910   3.557   8.439  10.672  0.0122 -0.1004  0.7459
  578MOL0     C77911   3.480   8.324  10.751 -0.7258  0.2566 -0.4244
  578MOL0     N77912   3.431   8.383  10.872  0.2434 -0.2926 -0.1004
  578MOL0     C77913   3.515   8.435  10.973  0.7004  0.4804  0.5070
  578MOL0     C77914   3.423   8.463  11.071 -0.7475  0.5657 -0.1312
  578MOL0     C77915   3.473   8.505  11.211 -0.3327  0.5949  0.5163
  578MOL0     C77916   3.498   8.665  11.192 -0.5789 -0.0729  0.6819
  578MOL0     C77917   3.560   8.747  11.306  0.2131  0.5608 -0.2432
  578MOL0     C77918   3.704   8.709  11.323 -0.1686  0.2233 -0.8664
  578MOL0     O77919   3.766   8.804  11.405 -0.4307 -0.0053  0.0882
  578MOL0     C77920   3.904   8.780  11.435 -0.2803 -0.5260  0.0758
  578MOL0     C77921   3.993   8.682  11.379  0.2779 -0.5194  0.6070
  578MOL0     C77922   4.129   8.692  11.404 -0.7695  0.4588 -0.7505
  578MOL0     C77923   4.180   8.783  11.497 -1.0530  0.5282  0.9437
  578MOL0     C77924   4.328   8.775  11.537 -0.3833  1.1136  0.0567
  578MOL0     O77925   4.395   8.663  11.484 -0.2615  0.6386 -0.1231
  578MOL0     C77926   4.517   8.643  11.529  0.3022  0.2862 -0.1621
  578MOL0     C77927   4.621   8.658  11.445  0.0821 -0.3149  0.0329
  578MOL0     C77928   4.748   8.623  11.484  0.2788  0.3283  0.5123
  578MOL0     C77929   4.781   8.570  11.608 -0.0952  0.4375 -0.1713
  578MOL0     O77930   4.902   8.511  11.643 -0.1850  0.3036 -0.6835
  578MOL0     C77931   5.017   8.598  11.669 -0.4846 -0.1374 -0.5925
  578MOL0     C77932   5.127   8.506  11.700 -0.3121 -0.2843  0.8912
  578MOL0     C77933   5.248   8.574  11.766 -0.0940 -0.4289 -0.2509
  578MOL0     C77934   5.339   8.466  11.821  0.8817  0.2358 -0.0839
  578MOL0     C77935   5.488   8.509  11.813  0.6442 -0.0918  0.2743
  578MOL0     C77936   5.580   8.404  11.884 -0.1608  0.4688  0.6870
  578MOL0     C77937   5.576   8.275  11.800  0.7859 -0.9870  0.4867
  578MOL0     C77938   5.669   8.176  11.870  0.4915  0.2130  0.5986
  578MOL0    Cl77939   5.606   8.131  12.028 -0.2548 -0.5842 -0.1582
  578MOL0     C77940   4.669   8.548  11.696 -0.7593 -0.0585 -0.1709
  578MOL0     C77941   4.539   8.581  11.655 -0.8106  0.5105 -0.2079
  578MOL0     O77942   4.378   8.860  11.617  0.8043 -0.2240 -0.0071
  578MOL0     C77943   4.088   8.880  11.559  0.4161 -0.6535  0.8445
  578MOL0     C77944   3.954   8.884  11.517  0.3730 -0.1505 -0.2349
  578MOL0     N77945   3.298   8.461  11.018 -0.6889 -0.2334 -1.0122
  578MOL0     N77946   3.300   8.408  10.899  0.8088 -0.3184 -0.8161
  578MOL0     C77947   3.290   9.286  10.636  0.0056 -0.3792  0.6759
  578MOL0     C77948   3.287   9.428  10.674  0.7010  0.1132 -0.7544
  578MOL0     C77949   3.464   9.852  10.767 -0.0186 -0.7274  0.7275
  578MOL0     C77950   3.344   9.905  10.724 -1.1031 -1.3184  0.1047
  578MOL0     C77951   3.305  10.040  10.741  1.0054 -0.2512  0.7072
  578MOL0     C77952   3.384  10.130  10.816 -0.1490 -0.8118 -0.0697
  578MOL0     O77953   3.343  10.261  10.849 -0.4078 -0.7043 -0.0668
  578MOL0     C77954   3.207  10.296  10.818 -0.1032 -0.6804  1.0721
  578MOL0     C77955   3.101  10.241  10.922  0.3782  0.5732 -0.3345
  578MOL0     C77956   3.065  10.354  11.021  0.7058 -0.3173  0.0605
  578MOL0     C77957   2.946  10.314  11.103  0.5452 -0.2286  0.5258
  578MOL0     C77958   2.816  10.322  11.039 -0.2768 -0.0550 -0.3647
  578MOL0     C77959   2.711  10.354  11.001 -0.6915 -0.7030 -0.1375
  578MOL0     C77960   3.511  10.081  10.852  0.5195  0.5413 -0.3005
  578MOL0     C77961   3.559   9.950  10.826 -0.1463  0.2712  0.7282
  578MOL0     C77962   3.702   9.919  10.862  0.5527 -0.1350  0.4447
  578MOL0     H77963   3.598   9.520  10.580  0.5383 -1.0343  1.8688
  578MOL0     H77964   3.599   9.272  10.502 -0.9102 -1.6544  0.5013
  578MOL0     H77965   3.436   9.152  10.336 -2.0601  0.7397  0.2056
  578MOL0     H77966   3.574   9.066  10.410 -0.0956 -1.9986  1.2435
  578MOL0     H77967   3.444   8.927  10.275 -0.1327 -1.1614  0.2687
  578MOL0     H77968   3.290   8.956  10.365 -0.6780  1.8955 -1.0197
  578MOL0     H77969   3.417   8.837  10.566 -3.5687  1.7613 -1.7072
  578MOL0     H77970   3.568   8.831  10.462  0.9348 -1.2522  0.5775
  578MOL0     H77971   3.308   8.677  10.461 -0.0066  0.5786  2.0638
  578MOL0     H77972   3.395   8.693  10.315 -4.0785 -3.1652  0.1425
  578MOL0     H77973   3.482   8.482  10.420 -0.3742 -0.3002 -1.7501
  578MOL0     H77974   3.599   8.603  10.463  0.9173 -3.1383 -0.8287
  578MOL0     H77975   3.491   8.646  10.673 -2.0752  0.1035 -0.8295
  578MOL0     H77976   3.364   8.522  10.635  0.6667 -1.9507 -0.9044
  578MOL0     H77977   3.630   8.488  10.737 -0.9618  1.2050  0.8791
  578MOL0     H77978   3.611   8.392  10.589  0.5128 -0.1094  1.0703
  578MOL0     H77979   3.399   8.277  10.695 -3.2734  2.7065  0.9226
  578MOL0     H77980   3.551   8.243  10.768 -3.2260 -1.7874  0.9956
  578MOL0     H77981   3.624   8.428  10.975  0.6392 -0.8311  0.3617
  578MOL0     H77982   3.388   8.489  11.278 -2.2864  0.3751 -1.8709
  578MOL0     H77983   3.560   8.445  11.239 -2.0971 -3.1424 -1.2805
  578MOL0     H77984   3.554   8.685  11.100 -0.6274 -0.5907  0.5340
  578MOL0     H77985   3.403   8.717  11.176 -1.7038 -2.2715 -0.2009
  578MOL0     H77986   3.507   8.723  11.399  0.2229  1.8781  0.1110
  578MOL0     H77987   3.549   8.854  11.287 -1.3407  0.7121  1.2364
  578MOL0     H77988   3.746   8.709  11.223  0.4222 -1.6261 -0.6458
  578MOL0     H77989   3.707   8.615  11.378 -2.7823  0.5430 -0.0109
  578MOL0     H77990   3.957   8.620  11.298 -2.9739 -1.8765  2.8981
  578MOL0     H77991   4.197   8.625  11.352 -0.3835  1.3088 -1.3628
  578MOL0     H77992   4.611   8.711  11.351  1.9637  0.4606  0.2323
  578MOL0     H77993   4.825   8.636  11.408  0.8399 -3.6838  0.1825
  578MOL0     H77994   5.043   8.669  11.590  3.1593  1.0092  1.3763
  578MOL0     H77995   5.011   8.646  11.768  0.0860  0.4653 -0.8376
  578MOL0     H77996   5.080   8.422  11.752  0.1339 -1.4520 -0.5064
  578MOL0     H77997   5.173   8.467  11.608  0.9517 -0.5576  1.6122
  578MOL0     H77998   5.303   8.621  11.684  1.4637 -1.9102 -0.1228
  578MOL0     H77999   5.233   8.653  11.840  2.9885  1.4337 -1.4024
  578MOL0     H78000   5.327   8.370  11.769  0.7317  0.2028  0.0103
  578MOL0     H78001   5.311   8.450  11.925 -1.4353  0.3276 -0.6421
  578MOL0     H78002   5.504   8.602  11.867  0.1254 -0.6806  1.4909
  578MOL0     H78003   5.523   8.523  11.711  1.6652 -3.0949  0.0983
  578MOL0     H78004   5.682   8.444  11.893  0.0221 -0.4422  4.1016
  578MOL0     H78005   5.548   8.380  11.986  2.6314 -5.3668  0.5799
  578MOL0     H78006   5.599   8.296  11.695 -1.8557  0.2839  0.0892
  578MOL0     H78007   5.476   8.233  11.788  1.6320 -2.8864 -0.2885
  578MOL0     H78008   5.692   8.106  11.790 -1.0006  1.9069 -1.4489
  578MOL0     H78009   5.762   8.231  11.889  0.9460 -0.8957  1.7441
  578MOL0     H78010   4.678   8.519  11.800  1.0091  0.9035 -0.0050
  578MOL0     H78011   4.466   8.573  11.735 -0.7540 -1.0611 -0.2853
  578MOL0     H78012   4.125   8.962  11.620 -0.2491 -2.9118  4.6250
  578MOL0     H78013   3.905   8.972  11.558  2.6990  0.6479  0.9834
  578MOL0     H78014   3.201   9.225  10.640 -1.1808  1.3327  1.5999
  578MOL0     H78015   3.207   9.476  10.730  1.2359  0.9883 -0.7210
  578MOL0     H78016   3.277   9.841  10.667 -0.0766 -1.3742 -1.0807
  578MOL0     H78017   3.209  10.075  10.704  0.2681 -0.1206  2.6439
  578MOL0     H78018   3.171  10.259  10.722  0.6417 -1.8567  1.2207
  578MOL0     H78019   3.217  10.405  10.820  3.9725 -0.8501 -0.4505
  578MOL0     H78020   3.145  10.155  10.973  0.8073 -0.2013 -1.9567
  578MOL0     H78021   3.008  10.212  10.872  0.1101  0.4135  0.2399
  578MOL0     H78022   3.044  10.441  10.958  0.5494 -2.5296 -3.1641
  578MOL0     H78023   3.149  10.365  11.090 -0.1068  0.5563  0.9402
  578MOL0     H78024   2.961  10.208  11.126  1.9418 -0.0281  0.6002
  578MOL0     H78025   2.944  10.368  11.198  0.7452 -2.4112  1.8536
  578MOL0     H78026   2.612  10.357  10.961 -0.1266 -2.2813 -1.7715
  578MOL0     H78027   3.571  10.150  10.909 -1.5975  2.0587  0.2287
  578MOL0     H78028   3.761  10.010  10.880 -0.8959  0.5969  1.6805
  578MOL0     H78029   3.717   9.856  10.950  0.7100 -0.8602 -0.0966
  578MOL0     H78030   3.749   9.868  10.778 -1.1139  3.5230 -3.0421
  579MOL0     O78031   0.176   2.734   1.681  0.0352 -1.0246  0.8928
  579MOL0     C78032   0.179   2.851   1.724 -1.1240 -1.1434  0.3223
  579MOL0     O78033   0.265   2.896   1.827 -0.1341  0.6794 -0.0114
  579MOL0     C78034   0.346   2.804   1.894  1.0213  0.1831 -0.4221
  579MOL0     C78035   0.303   2.675   1.934  0.1103 -1.0689 -0.6127
  579MOL0     C78036   0.389   2.594   2.018  0.0313 -0.7885 -0.4091
  579MOL0     C78037   0.523   2.636   2.050  0.7728 -0.7488 -0.0029
  579MOL0     O78038   0.614   2.555   2.107  0.4709 -0.6814 -0.0789
  579MOL0     C78039   0.602   2.413   2.081  0.0189  0.1714  0.2804
  579MOL0     C78040   0.740   2.389   2.026  0.0476 -0.7441  0.1549
  579MOL0     C78041   0.851   2.404   2.137 -0.8114  0.5717  0.1083
  579MOL0     C78042   0.852   2.287   2.245 -0.4322 -0.2197  0.2744
  579MOL0     C78043   0.956   2.297   2.360  0.2579 -0.5614 -0.0543
  579MOL0     C78044   1.100   2.314   2.301  0.5885 -0.3322 -0.5736
  579MOL0     C78045   1.192   2.304   2.423  0.4149  1.1129  0.0271
  579MOL0     C78046   1.208   2.165   2.469  0.3697  0.2781  0.1585
  579MOL0     N78047   1.343   2.151   2.526  1.2549  0.0953  0.0411
  579MOL0     C78048   1.404   2.233   2.619  0.6150 -0.7608 -0.5577
  579MOL0     C78049   1.518   2.174   2.633 -0.8778  0.1302 -0.5072
  579MOL0     C78050   1.640   2.231   2.706  0.5973  0.0688  0.9228
  579MOL0     C78051   1.688   2.333   2.597 -0.1441  1.6129 -0.7407
  579MOL0     C78052   1.827   2.388   2.643 -0.9434  0.0208 -0.3535
  579MOL0     C78053   1.881   2.505   2.562  0.2115 -0.6311  1.0127
  579MOL0     O78054   1.780   2.602   2.562 -0.3037  0.0613  0.3466
  579MOL0     C78055   1.800   2.699   2.471 -0.5675  0.1386 -0.5899
  579MOL0     C78056   1.820   2.679   2.341  0.6525 -0.7491  0.6070
  579MOL0     C78057   1.852   2.785   2.257 -0.0198 -0.2628 -0.1788
  579MOL0     C78058   1.888   2.907   2.295  0.1303  0.2469 -0.2772
  579MOL0     C78059   1.920   3.016   2.193  0.5741  1.1487 -0.2566
  579MOL0     O78060   1.912   2.984   2.060  0.5322  0.4948  0.5695
  579MOL0     C78061   1.864   3.078   1.968 -0.9285  0.2971 -0.6602
  579MOL0     C78062   1.856   3.037   1.841  0.5021  0.1869  0.2853
  579MOL0     C78063   1.785   3.111   1.748 -0.0898  0.1191 -0.3761
  579MOL0     C78064   1.721   3.230   1.779  0.0021  0.2559  0.6094
  579MOL0     O78065   1.645   3.302   1.680  0.3125  0.2882 -0.4967
  579MOL0     C78066   1.532   3.244   1.612 -0.0010 -0.8446  0.1056
  579MOL0     C78067   1.403   3.244   1.690 -0.8173  0.5340  0.2907
  579MOL0     C78068   1.280   3.259   1.606 -0.4397 -0.2985  0.1541
  579MOL0     C78069   1.157   3.191   1.662  0.2606 -0.0169 -0.2737
  579MOL0     C78070   1.148   3.044   1.602  0.6568 -0.5997 -1.2619
  579MOL0     C78071   1.025   2.965   1.655  0.1304  1.2805  0.0554
  579MOL0     C78072   1.050   2.915   1.790  0.0150 -0.6159  0.2221
  579MOL0     C78073   0.966   2.785   1.805  0.1139 -0.1786  0.2689
  579MOL0    Cl78074   0.964   2.697   1.945 -0.0652 -0.2072 -0.2487
  579MOL0     C78075   1.722   3.272   1.918 -0.0720 -1.0322 -0.3581
  579MOL0     C78076   1.789   3.189   2.019  0.0562  1.1543  1.0104
  579MOL0     O78077   1.962   3.128   2.226  1.1648  0.0045  0.2316
  579MOL0     C78078   1.869   2.931   2.427 -0.2663  1.6768 -0.8567
  579MOL0     C78079   1.831   2.828   2.525 -2.2408  0.2180  0.2130
  579MOL0     N78080   1.535   2.061   2.556  0.9995 -1.0125  0.2167
  579MOL0     N78081   1.430   2.054   2.478  0.4639 -0.8102  0.0982
  579MOL0     C78082   0.550   2.777   2.030  0.2497  0.3279  1.0469
  579MOL0     C78083   0.470   2.858   1.952  0.0451  0.0102 -0.0135
  579MOL0     C78084   0.108   2.952   1.636  0.0753  1.6855  0.6169
  579MOL0     C78085   0.174   2.986   1.514  0.1141 -0.3137 -0.1808
  579MOL0     C78086   0.097   3.069   1.429 -1.1970 -0.1053 -0.7195
  579MOL0     C78087  -0.020   3.132   1.463 -0.3699  0.0080  0.0238
  579MOL0     O78088  -0.095   3.212   1.378 -1.0415 -0.1419  0.5717
  579MOL0     C78089  -0.063   3.228   1.239 -0.3550 -0.5600 -0.2746
  579MOL0     C78090  -0.168   3.321   1.161 -0.4032  1.8438  0.0226
  579MOL0     C78091  -0.302   3.246   1.165 -0.2322  0.3442  0.5020
  579MOL0     C78092  -0.414   3.343   1.126 -0.1484 -0.9466  0.1589
  579MOL0     C78093  -0.442   3.444   1.227 -0.1008 -0.6026  0.8157
  579MOL0     C78094  -0.467   3.521   1.316 -0.0494  1.2098  0.2671
  579MOL0     C78095  -0.066   3.108   1.585 -0.8597 -0.2482 -0.4081
  579MOL0     C78096  -0.022   3.005   1.666 -0.8428 -0.0103  0.5496
  579MOL0     C78097  -0.080   2.966   1.798  0.2725  0.1101  0.0388
  579MOL0     H78098   0.206   2.636   1.906 -0.5597 -1.2677  1.7912
  579MOL0     H78099   0.352   2.497   2.047  1.1350 -1.1824 -0.2539
  579MOL0     H78100   0.588   2.355   2.173 -1.7284 -1.2037 -0.8036
  579MOL0     H78101   0.523   2.385   2.012 -1.7301 -0.0653  2.2708
  579MOL0     H78102   0.779   2.447   1.942  1.7070 -2.1637 -0.1231
  579MOL0     H78103   0.741   2.284   1.994 -1.7737  0.2544 -3.9079
  579MOL0     H78104   0.833   2.498   2.190 -0.0343  2.1607 -2.2930
  579MOL0     H78105   0.949   2.409   2.087 -2.0201 -1.2283 -2.6611
  579MOL0     H78106   0.756   2.293   2.298 -1.7340  1.4244 -2.0744
  579MOL0     H78107   0.871   2.195   2.190 -0.9861 -0.7068  0.8744
  579MOL0     H78108   0.921   2.378   2.425 -0.0497 -1.1349  0.5152
  579MOL0     H78109   0.951   2.207   2.422 -2.6792 -0.1192  0.5135
  579MOL0     H78110   1.131   2.236   2.231  1.3971  1.2574 -2.0638
  579MOL0     H78111   1.128   2.407   2.252 -0.6135 -0.0238 -0.7205
  579MOL0     H78112   1.167   2.368   2.508  2.9134  1.9576  0.2168
  579MOL0     H78113   1.290   2.335   2.385  1.5742  0.3138  2.1954
  579MOL0     H78114   1.140   2.144   2.551  0.9191  1.8429  1.0771
  579MOL0     H78115   1.191   2.103   2.381 -1.3020 -0.8587  1.2347
  579MOL0     H78116   1.379   2.329   2.662 -1.6187 -1.2342 -0.6634
  579MOL0     H78117   1.622   2.282   2.801  1.2451 -1.3111  1.8370
  579MOL0     H78118   1.709   2.152   2.737 -2.5515 -1.7053  4.2689
  579MOL0     H78119   1.704   2.278   2.504  0.4040 -2.3052  1.4624
  579MOL0     H78120   1.621   2.418   2.587  0.0100  1.8267  0.0377
  579MOL0     H78121   1.901   2.308   2.648 -1.7071 -0.7372 -0.9461
  579MOL0     H78122   1.821   2.425   2.745  3.2545  1.8925 -0.5689
  579MOL0     H78123   1.912   2.459   2.467 -0.2436 -1.0791  1.0791
  579MOL0     H78124   1.972   2.541   2.611  2.6451 -5.7089  0.9740
  579MOL0     H78125   1.798   2.585   2.291  2.1878 -1.1743  0.6711
  579MOL0     H78126   1.849   2.760   2.151 -3.9144  0.7351 -0.4542
  579MOL0     H78127   1.903   2.944   1.810  2.4375  1.5182 -0.9598
  579MOL0     H78128   1.776   3.085   1.643  1.9413  1.5478 -0.9541
  579MOL0     H78129   1.523   3.307   1.522 -0.5037  0.5644  1.1032
  579MOL0     H78130   1.545   3.141   1.578 -0.8949 -1.0896  0.4811
  579MOL0     H78131   1.400   3.159   1.759 -1.4778 -0.0363 -0.4345
  579MOL0     H78132   1.408   3.331   1.756 -1.9246 -0.4885  1.8006
  579MOL0     H78133   1.255   3.366   1.607  0.3391 -0.1086  0.0844
  579MOL0     H78134   1.292   3.230   1.501 -3.2654  1.2130 -0.7071
  579MOL0     H78135   1.070   3.249   1.630  0.7426  1.6802  1.3242
  579MOL0     H78136   1.140   3.189   1.770 -2.9597  1.3196 -0.6281
  579MOL0     H78137   1.242   2.996   1.631  0.3590 -2.0798 -2.5942
  579MOL0     H78138   1.145   3.050   1.493 -0.2111 -0.1570 -1.2240
  579MOL0     H78139   0.932   3.022   1.656  0.7245  2.3434 -1.2523
  579MOL0     H78140   1.017   2.884   1.581  1.0386 -0.0900  1.4091
  579MOL0     H78141   1.023   2.986   1.868  1.5300 -2.8863  3.0107
  579MOL0     H78142   1.154   2.888   1.807 -0.2128 -1.9132 -0.2838
  579MOL0     H78143   0.866   2.827   1.798  0.6954  1.2112 -0.0534
  579MOL0     H78144   0.989   2.718   1.721  2.7744  3.0740 -1.8907
  579MOL0     H78145   1.658   3.354   1.951  0.0750 -1.1954  0.3447
  579MOL0     H78146   1.779   3.212   2.124  0.6618 -0.4787  1.4543
  579MOL0     H78147   1.883   3.025   2.480  0.2514  0.8847  0.4589
  579MOL0     H78148   1.818   2.856   2.629 -0.9680  1.4803  0.0608
  579MOL0     H78149   0.645   2.817   2.064  1.7458  0.1750 -2.4723
  579MOL0     H78150   0.507   2.958   1.934  0.7008 -0.3185 -0.5262
  579MOL0     H78151   0.266   2.942   1.475  2.0686  2.5255  0.9133
  579MOL0     H78152   0.134   3.089   1.328 -2.3335  0.3269 -1.0700
  579MOL0     H78153  -0.039   3.132   1.192 -0.1812  0.8075 -3.1782
  579MOL0     H78154   0.035   3.273   1.219  0.4299 -2.6612 -1.4687
  579MOL0     H78155  -0.140   3.336   1.056 -2.8317 -3.0798 -1.6499
  579MOL0     H78156  -0.170   3.418   1.210  1.8319  0.9696  2.0248
  579MOL0     H78157  -0.328   3.208   1.264 -2.0220 -0.9148 -0.3879
  579MOL0     H78158  -0.307   3.148   1.118 -0.6150  0.2764  0.6755
  579MOL0     H78159  -0.397   3.374   1.023 -0.9506 -1.8067 -0.2495
  579MOL0     H78160  -0.506   3.288   1.102 -0.6970  0.5183 -1.2289
  579MOL0     H78161  -0.492   3.592   1.392 -4.0354  0.7203 -0.3797
  579MOL0     H78162  -0.160   3.156   1.612  0.6926  1.9149  1.5057
  579MOL0     H78163  -0.160   3.034   1.827  0.0051  0.6885 -1.9145
  579MOL0     H78164  -0.124   2.867   1.784 -1.6814  1.3041 -3.5047
  579MOL0     H78165  -0.005   2.960   1.877  0.3099  0.5753  0.0371
  580MOL0     O78166   0.518   4.902   1.482  0.1618 -0.4270  0.6228
  580MOL0     C78167   0.515   5.024   1.472  1.0180  0.9162 -0.4665
  580MOL0     O78168   0.509   5.102   1.356  0.0922  0.6805 -0.7242
  580MOL0     C78169   0.567   5.067   1.233  0.5781  0.2001  0.9735
  580MOL0     C78170   0.530   5.145   1.123 -0.4187 -0.2732  0.6314
  580MOL0     C78171   0.598   5.135   1.003 -0.3395 -0.0664  0.3959
  580MOL0     C78172   0.689   5.025   0.985 -0.1822  0.1529  0.4800
  580MOL0     O78173   0.746   4.996   0.868  0.3328 -0.5835  0.3335
  580MOL0     C78174   0.875   4.939   0.843  0.3713  0.5225 -1.2581
  580MOL0     C78175   0.923   4.995   0.708 -0.3727 -0.6542  0.2316
  580MOL0     C78176   1.059   4.949   0.652  0.4460 -0.5958 -0.4924
  580MOL0     C78177   1.085   5.014   0.515 -0.4518 -0.3526 -0.6779
  580MOL0     C78178   1.197   4.936   0.447  0.0597  0.0719 -0.4621
  580MOL0     C78179   1.192   4.941   0.289 -0.2568  1.1788  0.7215
  580MOL0     C78180   1.302   4.849   0.228  0.1959  0.0641  0.0325
  580MOL0     C78181   1.298   4.854   0.077 -0.0751 -0.7089 -0.6236
  580MOL0     N78182   1.400   4.771   0.027 -0.8042  1.0158 -0.0377
  580MOL0     C78183   1.534   4.790   0.023 -0.4053  0.1186 -1.3492
  580MOL0     C78184   1.587   4.670   0.004  0.0067 -0.1762  0.7054
  580MOL0     C78185   1.735   4.654  -0.006  0.3890  0.0598  0.0034
  580MOL0     C78186   1.793   4.609   0.129 -0.9458 -0.3554 -0.1788
  580MOL0     C78187   1.775   4.714   0.253 -0.1625  0.0618  1.0905
  580MOL0     C78188   1.822   4.655   0.384  0.0913 -0.4970  0.4555
  580MOL0     O78189   1.816   4.767   0.482  1.2602 -0.4564  0.1882
  580MOL0     C78190   1.702   4.785   0.549  0.1350  0.1724  0.7111
  580MOL0     C78191   1.679   4.910   0.607 -0.1696  0.1386 -0.5085
  580MOL0     C78192   1.585   4.931   0.705 -0.0445  0.5747 -0.3358
  580MOL0     C78193   1.491   4.837   0.747  1.1099  1.0023 -0.0497
  580MOL0     C78194   1.385   4.860   0.853 -0.3953 -0.3593  0.0827
  580MOL0     O78195   1.378   4.990   0.901 -0.5131  0.1435  0.3017
  580MOL0     C78196   1.284   5.041   0.994 -0.2081 -0.1558 -0.6508
  580MOL0     C78197   1.180   4.971   1.063  0.3904  0.5379  0.3484
  580MOL0     C78198   1.111   5.032   1.170  0.4083 -0.5593 -0.6574
  580MOL0     C78199   1.134   5.160   1.209  0.1437 -0.0002 -0.5328
  580MOL0     O78200   1.077   5.229   1.315  1.2546 -0.2570  0.5898
  580MOL0     C78201   1.014   5.152   1.418  0.1368  0.6805 -0.5726
  580MOL0     C78202   0.947   5.250   1.522 -0.0560  0.5539 -0.3172
  580MOL0     C78203   0.898   5.164   1.642 -0.1401  0.5978  0.1258
  580MOL0     C78204   0.829   5.232   1.758 -0.0011  0.2779  0.2026
  580MOL0     C78205   0.914   5.332   1.819  0.0894 -0.1460 -1.5260
  580MOL0     C78206   0.854   5.378   1.952 -0.5526  0.9569  0.6890
  580MOL0     C78207   0.942   5.478   2.024 -0.3982  0.2360  0.0544
  580MOL0     C78208   0.874   5.526   2.154 -0.5568  0.8901 -0.2290
  580MOL0    Cl78209   0.907   5.424   2.292 -0.7452  0.2981 -0.3165
  580MOL0     C78210   1.209   5.234   1.127 -1.2586 -0.2349  0.3394
  580MOL0     C78211   1.294   5.183   1.022  0.5558  0.3986 -0.1088
  580MOL0     O78212   1.315   4.766   0.886 -0.5847  0.4455 -1.1418
  580MOL0     C78213   1.512   4.712   0.685  0.2302  0.9156 -0.0563
  580MOL0     C78214   1.614   4.684   0.593 -1.0198  0.5040 -0.7943
  580MOL0     N78215   1.486   4.580  -0.024 -0.5435  0.7323 -0.6227
  580MOL0     N78216   1.373   4.639  -0.002 -0.6581  0.3115 -0.1177
  580MOL0     C78217   0.727   4.950   1.095  0.1015  0.2726 -0.2514
  580MOL0     C78218   0.662   4.964   1.216 -0.0319 -0.1390 -0.2228
  580MOL0     C78219   0.487   5.095   1.601 -0.0316  0.5285 -0.3441
  580MOL0     C78220   0.452   5.229   1.600  0.1656  0.0999  0.8470
  580MOL0     C78221   0.432   5.303   1.718 -0.4349  0.3445  0.7255
  580MOL0     C78222   0.435   5.250   1.846  0.2804  0.5993 -0.5850
  580MOL0     O78223   0.395   5.338   1.945 -0.5811  0.2529  0.4120
  580MOL0     C78224   0.418   5.290   2.074 -0.7956  0.3650 -0.2942
  580MOL0     C78225   0.354   5.381   2.176  0.2189 -0.3147  0.8894
  580MOL0     C78226   0.201   5.402   2.168  0.2118  0.1182 -0.1782
  580MOL0     C78227   0.132   5.286   2.238 -0.0993  0.2202 -0.1918
  580MOL0     C78228  -0.006   5.292   2.222  0.3638  1.3266  0.1369
  580MOL0     C78229  -0.131   5.291   2.223  0.0124  0.3732 -0.5782
  580MOL0     C78230   0.482   5.119   1.850  0.7249 -0.0784  0.0113
  580MOL0     C78231   0.498   5.038   1.732 -0.7148  0.1947 -0.3797
  580MOL0     C78232   0.550   4.897   1.758  0.3641 -0.0034  0.1514
  580MOL0     H78233   0.463   5.230   1.132  0.4444  0.6504 -1.1348
  580MOL0     H78234   0.566   5.190   0.915  0.9824 -1.7430 -1.2152
  580MOL0     H78235   0.948   4.971   0.917 -1.5054  1.9654  0.0508
  580MOL0     H78236   0.863   4.830   0.837 -3.1913  0.7782 -0.9313
  580MOL0     H78237   0.925   5.104   0.699 -0.1009 -0.6774  0.0132
  580MOL0     H78238   0.848   4.964   0.635 -1.2381 -3.2713  2.0725
  580MOL0     H78239   1.049   4.841   0.641 -3.2246 -0.3062 -1.3382
  580MOL0     H78240   1.132   4.968   0.731  0.9014  0.3729 -1.1249
  580MOL0     H78241   0.999   5.015   0.448 -1.5873  0.5930  0.7286
  580MOL0     H78242   1.112   5.118   0.532  1.7754 -1.0586  0.5766
  580MOL0     H78243   1.295   4.967   0.483  0.8975 -2.5346 -0.2980
  580MOL0     H78244   1.189   4.829   0.471  0.1539 -0.4846 -2.6398
  580MOL0     H78245   1.096   4.911   0.247 -0.2076  3.0019 -0.8241
  580MOL0     H78246   1.205   5.048   0.266  1.5634  0.9004  0.3095
  580MOL0     H78247   1.278   4.746   0.255 -3.3871  0.8703  0.4062
  580MOL0     H78248   1.399   4.870   0.276  1.1067  1.6293 -2.2989
  580MOL0     H78249   1.210   4.803   0.039  1.1744 -1.8874 -2.0313
  580MOL0     H78250   1.302   4.958   0.043  0.1992 -0.2223  0.7938
  580MOL0     H78251   1.581   4.884   0.048  2.0853 -1.9353  2.8764
  580MOL0     H78252   1.750   4.589  -0.093 -0.9210  0.9590 -0.9331
  580MOL0     H78253   1.783   4.750  -0.026  0.2116  0.3377  0.8437
  580MOL0     H78254   1.756   4.510   0.159 -0.0672 -0.4329  0.7181
  580MOL0     H78255   1.901   4.590   0.127 -0.9953 -0.6294 -0.2642
  580MOL0     H78256   1.672   4.717   0.287 -0.6547  4.7133 -0.0305
  580MOL0     H78257   1.808   4.814   0.222  1.3675 -0.8968 -0.6173
  580MOL0     H78258   1.930   4.637   0.383  0.2174  0.1339 -1.7396
  580MOL0     H78259   1.762   4.567   0.410 -0.2403 -0.3644  0.1302
  580MOL0     H78260   1.757   4.982   0.585  2.0659 -1.3989  1.8575
  580MOL0     H78261   1.574   5.028   0.753 -2.9831 -0.1985  0.8029
  580MOL0     H78262   1.167   4.863   1.052  3.1084 -0.1893  2.9273
  580MOL0     H78263   1.026   4.977   1.209 -1.6791  1.8839 -1.4743
  580MOL0     H78264   0.936   5.092   1.370 -0.3295 -1.7268  2.8452
  580MOL0     H78265   1.073   5.086   1.483 -1.4871  1.0980  1.4362
  580MOL0     H78266   1.020   5.324   1.557 -1.7886  1.0255  2.6360
  580MOL0     H78267   0.865   5.304   1.476 -0.2726 -0.0725 -0.6792
  580MOL0     H78268   0.817   5.101   1.606  0.5332  0.0100 -0.3909
  580MOL0     H78269   0.977   5.098   1.679  1.4193  2.4729  0.3375
  580MOL0     H78270   0.786   5.158   1.826  0.3571 -0.5692 -0.4913
  580MOL0     H78271   0.743   5.281   1.710  0.7731 -0.5272 -2.0923
  580MOL0     H78272   0.912   5.418   1.751 -0.2125 -0.5771 -2.0765
  580MOL0     H78273   1.016   5.295   1.830  0.7819  1.3097 -2.6838
  580MOL0     H78274   0.756   5.423   1.935  0.1736  2.1106 -0.6586
  580MOL0     H78275   0.845   5.295   2.022  1.8718 -0.0097 -0.0176
  580MOL0     H78276   0.943   5.567   1.960  3.1668  0.3045  0.0075
  580MOL0     H78277   1.043   5.442   2.041 -0.5755 -0.8005 -0.9809
  580MOL0     H78278   0.900   5.628   2.184 -1.8524  1.5613 -1.2845
  580MOL0     H78279   0.766   5.518   2.137 -1.2225  2.1955  2.7186
  580MOL0     H78280   1.211   5.340   1.148 -0.3475 -0.6841  2.7997
  580MOL0     H78281   1.347   5.260   0.967 -0.7260 -0.0996 -2.1653
  580MOL0     H78282   1.439   4.637   0.714 -3.2471  5.0017  2.9413
  580MOL0     H78283   1.626   4.583   0.556 -0.7787  1.1947 -2.7601
  580MOL0     H78284   0.796   4.866   1.089 -0.9779 -0.6203 -0.5428
  580MOL0     H78285   0.690   4.894   1.294  1.3897 -2.5154 -2.6958
  580MOL0     H78286   0.462   5.283   1.507  0.1385  0.1928  0.8974
  580MOL0     H78287   0.411   5.409   1.718  0.6620  0.5987 -0.7908
  580MOL0     H78288   0.527   5.298   2.081  0.0320 -4.3323 -3.3829
  580MOL0     H78289   0.382   5.188   2.087  3.4932 -1.3985 -0.6814
  580MOL0     H78290   0.390   5.482   2.153 -0.2566 -0.2912  0.1994
  580MOL0     H78291   0.372   5.342   2.276 -0.6000 -0.9539  0.8002
  580MOL0     H78292   0.156   5.410   2.069 -2.0441  0.2477  0.7854
  580MOL0     H78293   0.180   5.489   2.231 -1.6409 -1.3798  1.4346
  580MOL0     H78294   0.182   5.201   2.191  0.1192  0.7293 -0.8853
  580MOL0     H78295   0.158   5.278   2.344 -2.5522 -0.1221  0.4427
  580MOL0     H78296  -0.237   5.307   2.224  0.3619  3.7816  2.3903
  580MOL0     H78297   0.481   5.073   1.948  2.3449  0.6410  0.3924
  580MOL0     H78298   0.488   4.822   1.709 -0.5705  0.0088  1.2761
  580MOL0     H78299   0.653   4.888   1.722 -0.4830 -2.3331 -1.9483
  580MOL0     H78300   0.543   4.875   1.865 -1.8177  1.6547  0.4372
  581MOL0     O78301  10.899   5.381   3.562 -0.3359 -0.3137 -0.1231
  581MOL0     C78302  10.987   5.464   3.549 -0.6710  0.0679 -0.2342
  581MOL0     O78303  11.130   5.436   3.537 -0.0454  0.0546 -0.0431
  581MOL0     C78304  11.164   5.309   3.519 -0.9620  0.4737  0.1526
  581MOL0     C78305  11.267   5.252   3.596 -0.7931 -0.7470 -0.3412
  581MOL0     C78306  11.302   5.114   3.578 -0.0507 -0.4716  0.6462
  581MOL0     C78307  11.237   5.035   3.483 -0.1066  0.1586 -0.0614
  581MOL0     O78308  11.287   4.924   3.443 -0.6062  0.6776  0.2704
  581MOL0     C78309  11.377   4.933   3.326 -0.2218 -0.6197 -0.8475
  581MOL0     C78310  11.498   4.849   3.350  0.4512  0.0806  0.4353
  581MOL0     C78311  11.587   4.843   3.223  0.3054  0.1073 -0.6658
  581MOL0     C78312  11.699   4.755   3.263 -0.7434 -0.1038  0.6020
  581MOL0     C78313  11.759   4.684   3.138  0.7213  0.3735  0.5456
  581MOL0     C78314  11.882   4.597   3.183  0.3063  0.0246  0.0209
  581MOL0     C78315  11.899   4.471   3.092 -0.0242  0.2748 -0.5120
  581MOL0     C78316  11.908   4.504   2.938 -0.1794 -0.4347  0.1773
  581MOL0     N78317  12.006   4.603   2.904  0.6417  0.6994 -0.5703
  581MOL0     C78318  12.015   4.654   2.774  0.7429  0.4023 -0.1803
  581MOL0     C78319  12.147   4.671   2.753 -0.0507 -0.5819  0.4663
  581MOL0     C78320  12.212   4.702   2.620 -0.0265 -0.2514  0.4129
  581MOL0     C78321  12.213   4.854   2.602 -0.8675 -1.6317 -0.5776
  581MOL0     C78322  12.073   4.921   2.587 -1.0001  0.6376 -0.0121
  581MOL0     C78323  12.105   5.065   2.550  0.8810 -0.4826 -0.2583
  581MOL0     O78324  11.977   5.133   2.557 -0.5165  0.1758  0.5211
  581MOL0     C78325  11.981   5.267   2.550 -0.7391 -0.3939  0.6389
  581MOL0     C78326  12.088   5.332   2.492  0.2024 -0.7864 -0.0179
  581MOL0     C78327  12.086   5.470   2.487 -0.6815 -0.2215  0.0289
  581MOL0     C78328  11.974   5.553   2.519 -0.8839 -0.3202  0.1624
  581MOL0     C78329  11.966   5.700   2.514  0.1763 -0.0807  0.2253
  581MOL0     O78330  11.867   5.760   2.592 -0.2518  0.2940  0.4898
  581MOL0     C78331  11.864   5.892   2.618  0.3111 -0.3384  0.1029
  581MOL0     C78332  11.854   5.945   2.755  0.9054  0.7632 -0.3761
  581MOL0     C78333  11.810   6.073   2.777 -0.0025 -0.0821  0.3158
  581MOL0     C78334  11.809   6.163   2.672  0.2996 -0.5443  0.6236
  581MOL0     O78335  11.764   6.292   2.689 -0.5533 -0.7468 -0.3477
  581MOL0     C78336  11.778   6.395   2.585 -0.4997  0.5062  0.2408
  581MOL0     C78337  11.721   6.524   2.638 -0.9572 -0.4539  0.4489
  581MOL0     C78338  11.689   6.618   2.525  0.1155 -0.1502 -0.3622
  581MOL0     C78339  11.583   6.560   2.414  0.0017  0.3501 -0.1568
  581MOL0     C78340  11.471   6.661   2.387  0.2547  0.2316 -0.5174
  581MOL0     C78341  11.517   6.803   2.342 -0.3820  0.1089 -0.2166
  581MOL0     C78342  11.389   6.900   2.317  0.0854 -0.3768  0.1187
  581MOL0     C78343  11.435   7.039   2.264  0.6780 -0.0832  0.8237
  581MOL0    Cl78344  11.308   7.097   2.146  0.3619 -0.6758 -0.0051
  581MOL0     C78345  11.842   6.121   2.539 -0.9329  1.4372  0.1938
  581MOL0     C78346  11.867   5.986   2.523  0.3547  0.5605 -0.2932
  581MOL0     O78347  12.044   5.754   2.437 -1.3043 -0.1850  0.9743
  581MOL0     C78348  11.871   5.483   2.591 -0.0086 -0.5775 -0.0076
  581MOL0     C78349  11.879   5.343   2.602 -0.0460 -0.1092 -0.0012
  581MOL0     N78350  12.219   4.629   2.865 -0.6252 -0.0580  0.0492
  581MOL0     N78351  12.135   4.606   2.961  0.0268  0.2602 -0.0249
  581MOL0     C78352  11.147   5.096   3.399  0.0541 -0.9264  0.2577
  581MOL0     C78353  11.109   5.231   3.421 -0.1944  0.5932  0.5350
  581MOL0     C78354  10.939   5.605   3.543 -0.6216 -0.4289 -0.0699
  581MOL0     C78355  10.807   5.638   3.583  0.2235  0.3056 -0.4325
  581MOL0     C78356  10.761   5.772   3.595 -0.2912  0.6554 -0.6558
  581MOL0     C78357  10.839   5.876   3.550 -0.3441  0.8249  0.9300
  581MOL0     O78358  10.786   6.002   3.568 -0.0723 -0.0566  0.4716
  581MOL0     C78359  10.872   6.117   3.542 -0.1317 -0.0326  0.0838
  581MOL0     C78360  10.866   6.171   3.404 -0.1477 -0.7335 -0.5770
  581MOL0     C78361  10.724   6.228   3.371 -0.0384 -0.5584 -0.6086
  581MOL0     C78362  10.722   6.284   3.228 -0.3233  0.6469 -0.8683
  581MOL0     C78363  10.589   6.316   3.182 -0.1422 -1.1244  0.5901
  581MOL0     C78364  10.483   6.357   3.140  0.4336  0.1811 -1.5253
  581MOL0     C78365  10.972   5.847   3.502  0.5531  0.3040 -0.3397
  581MOL0     C78366  11.024   5.719   3.497  0.2451  1.0423 -0.3702
  581MOL0     C78367  11.164   5.709   3.443  0.4904  0.0593  0.5618
  581MOL0     H78368  11.296   5.320   3.676 -1.4055  0.7146 -1.3041
  581MOL0     H78369  11.376   5.058   3.635 -1.8047 -3.7861 -0.0794
  581MOL0     H78370  11.335   4.890   3.234  2.9650 -2.3387 -1.6548
  581MOL0     H78371  11.417   5.034   3.314  1.6229 -1.0793  0.8296
  581MOL0     H78372  11.461   4.750   3.380 -0.3553  0.6740  1.4191
  581MOL0     H78373  11.557   4.887   3.435  0.8700 -1.4749  0.8820
  581MOL0     H78374  11.616   4.940   3.181  1.2634 -0.5035 -1.4533
  581MOL0     H78375  11.530   4.789   3.148 -0.6798 -3.6644  2.4883
  581MOL0     H78376  11.768   4.827   3.307  2.0098 -1.8028 -0.7163
  581MOL0     H78377  11.667   4.684   3.339 -1.6200  1.5624  1.8559
  581MOL0     H78378  11.678   4.615   3.113  0.2954  0.1053  2.5025
  581MOL0     H78379  11.781   4.749   3.052 -1.0888  0.8794  0.4157
  581MOL0     H78380  11.972   4.657   3.170 -0.0298  0.7581  0.9412
  581MOL0     H78381  11.883   4.565   3.288 -2.7783  2.2953  0.9035
  581MOL0     H78382  11.817   4.399   3.102  0.5623 -0.2409  0.6995
  581MOL0     H78383  11.988   4.413   3.117  1.7375  1.1030 -4.0696
  581MOL0     H78384  11.936   4.412   2.887 -2.7365 -1.7742  0.9945
  581MOL0     H78385  11.805   4.532   2.913  0.1721  2.1557  1.3399
  581MOL0     H78386  11.940   4.648   2.696  1.7726 -2.9379 -1.0953
  581MOL0     H78387  12.306   4.647   2.610  0.2795  0.6474 -2.5802
  581MOL0     H78388  12.157   4.654   2.539 -1.8919 -0.7118  1.8870
  581MOL0     H78389  12.273   4.915   2.670 -3.2740 -0.1019  0.2941
  581MOL0     H78390  12.262   4.865   2.505 -0.9120 -0.3696 -0.4736
  581MOL0     H78391  12.026   4.915   2.686  0.2057 -0.0951  0.5447
  581MOL0     H78392  12.014   4.864   2.515  0.3981 -1.8326  0.6915
  581MOL0     H78393  12.142   5.068   2.447 -0.0842  0.8994 -0.5944
  581MOL0     H78394  12.183   5.107   2.613 -0.2977 -0.9760  1.5928
  581MOL0     H78395  12.179   5.295   2.446 -0.3767 -0.0670 -1.8250
  581MOL0     H78396  12.168   5.531   2.449 -1.2609 -0.1513 -1.1695
  581MOL0     H78397  11.860   5.882   2.843 -1.1534 -0.3178 -0.9369
  581MOL0     H78398  11.799   6.110   2.879  4.0405 -0.6605  1.1187
  581MOL0     H78399  11.885   6.407   2.566 -0.6662  1.3210 -0.1990
  581MOL0     H78400  11.732   6.361   2.492 -0.5150 -1.1719  0.8201
  581MOL0     H78401  11.638   6.502   2.705 -0.5344  1.1890  1.5572
  581MOL0     H78402  11.802   6.576   2.688  0.3009 -0.4114 -1.5208
  581MOL0     H78403  11.646   6.708   2.570 -0.8032 -0.8749  0.2592
  581MOL0     H78404  11.783   6.650   2.481  1.7916  0.2089  3.1246
  581MOL0     H78405  11.538   6.466   2.446  0.3458  0.1069 -0.3770
  581MOL0     H78406  11.625   6.519   2.322 -1.0169  0.2650 -0.5973
  581MOL0     H78407  11.398   6.656   2.468  0.4810  0.5049 -0.2939
  581MOL0     H78408  11.410   6.622   2.304 -4.1311  0.8318  2.0939
  581MOL0     H78409  11.576   6.852   2.420  0.9935 -0.0182 -1.1275
  581MOL0     H78410  11.579   6.790   2.253  0.5717 -1.9576  0.6763
  581MOL0     H78411  11.343   6.908   2.417  1.2630 -4.1380  1.1364
  581MOL0     H78412  11.316   6.843   2.259 -1.0108  0.6649  0.4295
  581MOL0     H78413  11.439   7.111   2.345  0.2315 -0.2918  1.0312
  581MOL0     H78414  11.529   7.043   2.208  0.0881 -0.0397 -0.1925
  581MOL0     H78415  11.838   6.184   2.451 -0.8073  0.9575 -0.1609
  581MOL0     H78416  11.884   5.939   2.427 -0.5063 -2.0314  0.7495
  581MOL0     H78417  11.792   5.543   2.636  1.6940  2.8825 -1.3025
  581MOL0     H78418  11.796   5.306   2.661  1.5410 -1.6187  1.4332
  581MOL0     H78419  11.106   5.046   3.312 -1.1117 -0.6572  0.6352
  581MOL0     H78420  11.035   5.273   3.353 -0.3102 -0.9699 -0.3509
  581MOL0     H78421  10.740   5.559   3.615 -0.3416  1.3458  1.0430
  581MOL0     H78422  10.666   5.792   3.643  1.0975  1.4444  1.9499
  581MOL0     H78423  10.973   6.094   3.579 -0.0164 -1.1570 -0.8736
  581MOL0     H78424  10.843   6.206   3.599 -1.9402 -0.1606 -0.5747
  581MOL0     H78425  10.889   6.101   3.323  0.5748  0.9813 -1.9174
  581MOL0     H78426  10.945   6.246   3.399 -1.3668  0.7407  0.9694
  581MOL0     H78427  10.697   6.303   3.446  2.7973 -1.4804  1.5409
  581MOL0     H78428  10.639   6.162   3.386 -1.1328  0.5439 -1.7335
  581MOL0     H78429  10.783   6.374   3.232 -0.6066  0.8094  0.1552
  581MOL0     H78430  10.769   6.203   3.171 -1.9362  0.2139 -1.6428
  581MOL0     H78431  10.393   6.393   3.094 -0.2383 -0.8166 -1.0342
  581MOL0     H78432  11.022   5.931   3.454 -0.8431  0.7852 -1.0020
  581MOL0     H78433  11.168   5.650   3.351  3.3842  0.4416  0.3355
  581MOL0     H78434  11.211   5.807   3.427  1.0272  0.2655  2.9764
  581MOL0     H78435  11.236   5.668   3.515  4.1259  3.3576 -0.8275
  582MOL0     O78436   2.139   0.917   3.218  0.5332 -0.1071  0.0192
  582MOL0     C78437   2.083   0.845   3.299 -0.2135 -0.3330  0.1497
  582MOL0     O78438   1.952   0.824   3.311 -0.0962 -0.3390 -0.0900
  582MOL0     C78439   1.869   0.857   3.217 -0.2529 -0.3003  0.5265
  582MOL0     C78440   1.748   0.793   3.229  1.5524 -0.3230 -1.0123
  582MOL0     C78441   1.637   0.816   3.146  0.0835 -0.6223 -0.1286
  582MOL0     C78442   1.647   0.917   3.054 -0.3802  0.3108  0.1733
  582MOL0     O78443   1.533   0.923   2.977  0.2140 -0.2826  0.0569
  582MOL0     C78444   1.519   1.044   2.896  0.3658  0.5803  0.3792
  582MOL0     C78445   1.397   1.021   2.810 -0.0760 -1.3450  0.6054
  582MOL0     C78446   1.270   1.049   2.894 -0.7161 -0.4613 -0.7398
  582MOL0     C78447   1.140   1.074   2.809 -0.3051 -0.3100 -0.6170
  582MOL0     C78448   1.097   0.934   2.753  1.1547 -0.2124  0.6546
  582MOL0     C78449   0.945   0.945   2.721  0.2334 -0.3008  0.0579
  582MOL0     C78450   0.895   0.826   2.649 -0.0929  0.5449 -0.6389
  582MOL0     C78451   0.924   0.815   2.496  0.8723 -0.1797 -0.3501
  582MOL0     N78452   0.889   0.687   2.438  0.3807 -0.2232  0.7640
  582MOL0     C78453   0.948   0.569   2.483  0.1367  0.4275 -0.1222
  582MOL0     C78454   0.924   0.481   2.391  0.7998  0.7485  1.1340
  582MOL0     C78455   0.970   0.339   2.372 -0.2168  0.6946 -0.6182
  582MOL0     C78456   1.111   0.324   2.304 -0.4517  0.1106 -0.9519
  582MOL0     C78457   1.120   0.171   2.258  0.4639 -0.1887 -0.1289
  582MOL0     C78458   1.136   0.068   2.370  0.2503 -0.7145 -0.4224
  582MOL0     O78459   1.179  -0.053   2.323 -0.1469  0.4413  0.7304
  582MOL0     C78460   1.237  -0.138   2.408 -0.1130  0.0579  0.4476
  582MOL0     C78461   1.250  -0.130   2.544  0.1990  0.7277 -0.5164
  582MOL0     C78462   1.313  -0.235   2.617 -0.1600  0.2085 -0.3338
  582MOL0     C78463   1.349  -0.359   2.565  0.0834 -0.4486  0.7248
  582MOL0     C78464   1.408  -0.464   2.637 -0.3459  0.1846 -1.3780
  582MOL0     O78465   1.410  -0.442   2.774  0.1500 -0.1028  0.4770
  582MOL0     C78466   1.492  -0.516   2.856 -0.1487  0.4042 -0.1032
  582MOL0     C78467   1.609  -0.583   2.821 -0.4884  0.0969 -0.3089
  582MOL0     C78468   1.675  -0.655   2.911 -0.0686  0.0527 -0.1674
  582MOL0     C78469   1.638  -0.670   3.044  0.0175  0.4916 -0.8094
  582MOL0     O78470   1.712  -0.755   3.122  0.2313  0.0938 -0.7026
  582MOL0     C78471   1.681  -0.762   3.264 -0.1732  0.4277  0.4657
  582MOL0     C78472   1.775  -0.868   3.332 -0.2497  0.8039  0.1052
  582MOL0     C78473   1.743  -0.888   3.483  0.2978  0.1641  0.3352
  582MOL0     C78474   1.856  -0.973   3.558 -0.5341  0.0206  0.8835
  582MOL0     C78475   1.846  -0.932   3.703 -0.1104 -0.1298  1.3731
  582MOL0     C78476   1.900  -0.791   3.736 -0.6451 -0.0336  0.1410
  582MOL0     C78477   1.919  -0.771   3.890 -0.1322  0.0260  0.0820
  582MOL0     C78478   1.779  -0.763   3.956  0.0739 -0.1576 -0.3699
  582MOL0    Cl78479   1.796  -0.756   4.133 -0.1808 -0.1871 -0.0875
  582MOL0     C78480   1.521  -0.604   3.079  0.3366  0.0838 -0.9554
  582MOL0     C78481   1.447  -0.524   2.990  0.1771 -0.6671  0.1018
  582MOL0     O78482   1.435  -0.567   2.581 -0.1485 -0.6809 -0.2969
  582MOL0     C78483   1.340  -0.364   2.427  0.8231 -0.4007  0.4622
  582MOL0     C78484   1.273  -0.261   2.353  0.9667  0.4975  0.8301
  582MOL0     N78485   0.833   0.537   2.296  0.4044 -0.4825 -0.4224
  582MOL0     N78486   0.817   0.663   2.327 -0.7661  0.2498  0.3533
  582MOL0     C78487   1.767   0.991   3.034  0.7559 -1.0004 -0.2605
  582MOL0     C78488   1.873   0.951   3.112  0.1015 -0.6368 -0.2666
  582MOL0     C78489   2.169   0.781   3.401  0.7924 -0.0664  0.0125
  582MOL0     C78490   2.306   0.762   3.368  0.7053  0.5494 -0.4685
  582MOL0     C78491   2.393   0.694   3.466  0.5495  0.7028 -0.4563
  582MOL0     C78492   2.344   0.638   3.583  0.2588  0.1954  0.6113
  582MOL0     O78493   2.414   0.565   3.666 -0.0385  0.7094  0.1214
  582MOL0     C78494   2.411   0.424   3.625 -0.1309 -0.2958 -0.4168
  582MOL0     C78495   2.535   0.382   3.552  0.8923 -0.6077 -0.7674
  582MOL0     C78496   2.662   0.423   3.632 -0.5599 -0.2981  0.5095
  582MOL0     C78497   2.783   0.386   3.544 -0.1450  0.0119 -0.5776
  582MOL0     C78498   2.885   0.317   3.615 -0.6868 -0.6553  0.2520
  582MOL0     C78499   2.965   0.245   3.673 -0.4135  0.4534 -0.7080
  582MOL0     C78500   2.209   0.646   3.596 -0.6124 -0.0958 -0.4086
  582MOL0     C78501   2.116   0.720   3.520  0.6505 -0.3172  0.3989
  582MOL0     C78502   1.973   0.727   3.576  0.3148 -0.3697 -0.2574
  582MOL0     H78503   1.732   0.718   3.306 -0.8447  4.1741  3.4537
  582MOL0     H78504   1.539   0.769   3.145 -0.8391  1.2057  0.6415
  582MOL0     H78505   1.519   1.137   2.953  1.4627  1.3796 -0.8438
  582MOL0     H78506   1.609   1.054   2.833 -0.6026  1.2690 -0.9476
  582MOL0     H78507   1.395   0.917   2.775  3.5703 -1.7967  1.2858
  582MOL0     H78508   1.386   1.089   2.725  1.4699 -1.0743  0.5901
  582MOL0     H78509   1.277   1.148   2.940  1.8678 -0.8545 -0.1081
  582MOL0     H78510   1.246   0.975   2.970 -2.0556  2.9583  2.4679
  582MOL0     H78511   1.059   1.110   2.874  0.0938  2.8520 -1.6970
  582MOL0     H78512   1.161   1.147   2.731  2.7557  1.9694  2.0615
  582MOL0     H78513   1.149   0.905   2.661 -0.7058  0.7521 -0.7684
  582MOL0     H78514   1.116   0.870   2.839  1.2473  0.0896  0.8610
  582MOL0     H78515   0.889   0.963   2.814  0.7905 -1.1031  0.5641
  582MOL0     H78516   0.944   1.034   2.657  1.7943 -0.3323 -0.0634
  582MOL0     H78517   0.787   0.832   2.659 -0.0102  1.2977 -0.1294
  582MOL0     H78518   0.918   0.732   2.701  0.9512 -0.9742 -3.5835
  582MOL0     H78519   0.878   0.903   2.449 -0.0314  0.4297  1.5560
  582MOL0     H78520   1.031   0.835   2.479  1.0400 -0.5543  0.2463
  582MOL0     H78521   1.025   0.560   2.560  0.1770  1.2649 -0.0559
  582MOL0     H78522   0.975   0.285   2.467 -1.4650  0.9905 -0.3559
  582MOL0     H78523   0.897   0.300   2.300  1.1358 -1.8438 -0.7417
  582MOL0     H78524   1.110   0.400   2.225  2.1848  1.8565  0.5676
  582MOL0     H78525   1.192   0.353   2.371 -1.1462  0.9185 -0.4327
  582MOL0     H78526   1.215   0.174   2.204 -0.8630  1.3668 -2.5149
  582MOL0     H78527   1.044   0.136   2.189 -1.8917 -1.2804  2.7766
  582MOL0     H78528   1.046   0.070   2.433  0.0518  0.5958 -0.7257
  582MOL0     H78529   1.214   0.117   2.430 -1.0063  0.3893  0.3810
  582MOL0     H78530   1.218  -0.040   2.595 -1.2641  0.4646 -0.9201
  582MOL0     H78531   1.310  -0.229   2.725 -2.5988 -5.5857  0.2825
  582MOL0     H78532   1.653  -0.556   2.726  1.0234 -0.6857  0.1335
  582MOL0     H78533   1.766  -0.707   2.881  0.7788 -1.6107  4.4678
  582MOL0     H78534   1.693  -0.663   3.309 -0.9839  0.5613  0.3899
  582MOL0     H78535   1.578  -0.797   3.273 -0.4028 -0.1127 -2.9952
  582MOL0     H78536   1.764  -0.967   3.286 -1.9527  1.1460 -0.2738
  582MOL0     H78537   1.876  -0.825   3.334 -0.5095  1.6503  4.0949
  582MOL0     H78538   1.724  -0.788   3.521 -0.6302  0.5333 -1.0157
  582MOL0     H78539   1.654  -0.951   3.496 -1.2988  2.5272  1.6093
  582MOL0     H78540   1.959  -0.947   3.533 -1.1346  2.0644  0.3489
  582MOL0     H78541   1.842  -1.081   3.541 -0.6587 -0.1354  1.9121
  582MOL0     H78542   1.918  -0.999   3.749  0.0822 -1.1961 -0.3668
  582MOL0     H78543   1.745  -0.944   3.743  0.3040 -0.6188  2.2745
  582MOL0     H78544   1.998  -0.778   3.688  0.3308 -0.4781  1.9100
  582MOL0     H78545   1.842  -0.706   3.699 -1.5943  0.2001  2.0883
  582MOL0     H78546   1.966  -0.673   3.904 -1.5406  0.9891 -1.4396
  582MOL0     H78547   1.981  -0.854   3.923  0.5809 -0.2934 -1.8704
  582MOL0     H78548   1.739  -0.670   3.914 -0.9571  0.7752  2.4626
  582MOL0     H78549   1.720  -0.854   3.942  2.6826 -2.1579  0.9213
  582MOL0     H78550   1.470  -0.626   3.173 -0.7607  2.6954 -0.8671
  582MOL0     H78551   1.364  -0.471   3.036  0.9596 -2.2933  3.7792
  582MOL0     H78552   1.374  -0.461   2.391  0.2223 -0.6013  0.4113
  582MOL0     H78553   1.245  -0.269   2.248 -1.7274  0.2729  1.5011
  582MOL0     H78554   1.788   1.060   2.953  1.5950 -1.7921 -0.7416
  582MOL0     H78555   1.970   0.993   3.086 -0.2111 -0.7191 -1.6278
  582MOL0     H78556   2.338   0.806   3.274  2.9474  5.1210  2.0798
  582MOL0     H78557   2.496   0.674   3.439  1.1756  0.2009  1.9815
  582MOL0     H78558   2.327   0.414   3.555 -1.0020 -1.3690  0.7290
  582MOL0     H78559   2.390   0.356   3.708  3.4625  0.1436  1.0265
  582MOL0     H78560   2.530   0.436   3.457 -1.9718 -2.5941 -1.8897
  582MOL0     H78561   2.535   0.274   3.535 -1.5825 -0.5903 -1.2674
  582MOL0     H78562   2.670   0.378   3.731  0.7033  0.7373  0.9168
  582MOL0     H78563   2.654   0.531   3.652 -0.5572 -0.4625  1.4574
  582MOL0     H78564   2.777   0.323   3.454  1.5737 -1.2164  0.1088
  582MOL0     H78565   2.821   0.486   3.523 -0.5265  0.1038 -0.8546
  582MOL0     H78566   3.029   0.173   3.719  0.9333  1.2505 -1.2728
  582MOL0     H78567   2.162   0.589   3.676 -1.2974  0.6630 -0.2482
  582MOL0     H78568   1.931   0.827   3.558 -0.9693 -0.6209  1.2127
  582MOL0     H78569   1.909   0.648   3.538 -0.0378 -0.5873  0.7637
  582MOL0     H78570   1.986   0.716   3.684  0.2749 -1.6294 -0.3705
  583MOL0     O78571   9.880   9.957   4.033 -0.8567  0.4579 -0.9245
  583MOL0     C78572   9.828  10.070   4.055 -0.2650  1.2505 -0.4173
  583MOL0     O78573   9.701  10.096   4.113 -0.0775  0.5291  0.1038
  583MOL0     C78574   9.600   9.995   4.119 -0.6743 -0.2315  0.2214
  583MOL0     C78575   9.464  10.045   4.105 -0.2454 -1.4016  0.2307
  583MOL0     C78576   9.354   9.958   4.116  0.1625 -0.3357  0.4743
  583MOL0     C78577   9.373   9.823   4.127 -0.2939  0.0475  0.0259
  583MOL0     O78578   9.272   9.740   4.130  0.0695  1.0803 -0.6886
  583MOL0     C78579   9.288   9.628   4.214  0.4013  0.7127 -0.4928
  583MOL0     C78580   9.194   9.646   4.344  0.0376 -0.2270  0.3422
  583MOL0     C78581   9.180   9.523   4.424 -0.8760 -0.2392 -0.0469
  583MOL0     C78582   9.094   9.419   4.350 -0.1508  0.2057  0.1493
  583MOL0     C78583   9.035   9.316   4.442  0.0812 -0.5161  0.2274
  583MOL0     C78584   9.131   9.204   4.466  0.4009 -0.6054  0.7471
  583MOL0     C78585   9.074   9.093   4.562 -0.3434  1.2584  0.1989
  583MOL0     C78586   9.169   8.975   4.586 -0.2875 -0.3134  0.6184
  583MOL0     N78587   9.206   8.912   4.462 -0.3925 -0.8096  0.1556
  583MOL0     C78588   9.330   8.865   4.425 -0.3723 -0.1252 -0.2524
  583MOL0     C78589   9.314   8.796   4.313  0.1756 -0.9923  0.0072
  583MOL0     C78590   9.419   8.730   4.227 -0.8853  0.8623  0.1584
  583MOL0     C78591   9.365   8.608   4.152 -0.0365  0.2613  0.3057
  583MOL0     C78592   9.488   8.565   4.058 -0.0678 -0.4840 -0.6298
  583MOL0     C78593   9.592   8.481   4.130 -0.0587 -0.7498  0.5032
  583MOL0     O78594   9.701   8.438   4.041 -0.4645 -0.1190  0.0855
  583MOL0     C78595   9.697   8.319   3.977 -0.0403  0.5932 -0.7487
  583MOL0     C78596   9.814   8.278   3.913 -0.1743 -0.6040  0.1032
  583MOL0     C78597   9.814   8.153   3.849 -0.2852 -0.3327 -0.7736
  583MOL0     C78598   9.698   8.067   3.855 -0.2515 -0.8145 -0.7827
  583MOL0     C78599   9.685   7.948   3.773 -0.3901  0.3241  0.1198
  583MOL0     O78600   9.785   7.925   3.676 -0.0619  0.2056  0.0830
  583MOL0     C78601   9.779   7.818   3.588  0.2005  0.1843  0.2225
  583MOL0     C78602   9.850   7.837   3.465 -0.7080 -0.0896 -0.2848
  583MOL0     C78603   9.866   7.724   3.383 -0.1987 -0.3390 -0.2650
  583MOL0     C78604   9.810   7.598   3.406  0.1891 -0.3317  0.1562
  583MOL0     O78605   9.807   7.493   3.311  0.1152 -0.7952  0.1373
  583MOL0     C78606   9.687   7.495   3.239  0.8378  0.1906 -0.4484
  583MOL0     C78607   9.701   7.572   3.108  0.7694  0.0100  0.3329
  583MOL0     C78608   9.778   7.512   2.999  0.1060  0.2294 -0.1341
  583MOL0     C78609   9.930   7.503   3.030  0.3479 -0.0347 -0.3958
  583MOL0     C78610  10.010   7.467   2.899 -0.6801  0.3229 -0.0289
  583MOL0     C78611  10.162   7.454   2.934 -0.1428 -0.6398 -0.1233
  583MOL0     C78612  10.257   7.426   2.815 -0.9554 -0.3309 -0.2182
  583MOL0     C78613  10.392   7.381   2.856 -0.7112  0.0694 -0.0616
  583MOL0    Cl78614  10.401   7.232   2.957  0.3429  0.2400  0.0900
  583MOL0     C78615   9.727   7.589   3.518 -0.3584 -0.6130  0.7532
  583MOL0     C78616   9.722   7.692   3.613 -0.4954 -0.2852  0.1073
  583MOL0     O78617   9.577   7.885   3.773  0.5203  0.0759 -0.4590
  583MOL0     C78618   9.586   8.102   3.933 -0.9344 -0.2165 -0.8662
  583MOL0     C78619   9.586   8.233   3.983  1.4257  0.2481  1.0009
  583MOL0     N78620   9.182   8.811   4.275 -0.7078  0.4072  0.2869
  583MOL0     N78621   9.122   8.869   4.368  1.0278 -0.8066  0.0750
  583MOL0     C78622   9.505   9.777   4.135 -0.2455  0.5844  0.6447
  583MOL0     C78623   9.615   9.860   4.129 -0.2896 -0.0590  0.4149
  583MOL0     C78624   9.899  10.185   4.022 -0.0337 -1.5834 -0.5997
  583MOL0     C78625   9.901  10.292   4.114 -0.1078  0.3882 -1.1601
  583MOL0     C78626   9.964  10.407   4.092 -0.5868 -0.0043  0.5344
  583MOL0     C78627  10.041  10.424   3.976 -0.2805  0.0249 -0.0133
  583MOL0     O78628  10.110  10.543   3.960 -0.5165 -0.5743 -0.2188
  583MOL0     C78629  10.215  10.535   3.862 -0.3593 -0.8702  0.0914
  583MOL0     C78630  10.291  10.676   3.852 -0.3115 -0.4147  0.2776
  583MOL0     C78631  10.224  10.778   3.751 -0.1216 -0.7589 -0.0148
  583MOL0     C78632  10.291  10.910   3.734  0.5609 -0.0290  0.1409
  583MOL0     C78633  10.257  11.012   3.628 -0.1814 -0.0190  0.2648
  583MOL0     C78634  10.243  11.075   3.522  0.0855  0.0722  0.2955
  583MOL0     C78635  10.052  10.312   3.884  0.1887  0.6708 -0.4897
  583MOL0     C78636   9.973  10.201   3.905  0.4597 -0.1101 -0.3700
  583MOL0     C78637   9.962  10.103   3.779  0.3811  0.2614  0.0771
  583MOL0     H78638   9.444  10.149   4.084  2.8368 -1.0107 -1.2774
  583MOL0     H78639   9.254   9.995   4.095  0.7225  1.1077  0.2574
  583MOL0     H78640   9.264   9.540   4.154  0.4690  0.0319  0.4606
  583MOL0     H78641   9.384   9.604   4.260  0.4949  0.8548 -0.6132
  583MOL0     H78642   9.096   9.687   4.319 -0.7850 -0.8791  2.3040
  583MOL0     H78643   9.231   9.730   4.404  3.7577 -1.0464 -0.5511
  583MOL0     H78644   9.132   9.541   4.521  0.2232 -0.8161  0.6279
  583MOL0     H78645   9.279   9.483   4.449 -0.9211 -2.4738 -2.9203
  583MOL0     H78646   9.017   9.473   4.295 -0.7024  0.1069  0.8202
  583MOL0     H78647   9.154   9.380   4.267 -0.8560  1.9046 -1.2207
  583MOL0     H78648   8.999   9.370   4.530 -0.0869 -0.1075 -0.0866
  583MOL0     H78649   8.944   9.275   4.396  0.4931  1.3371 -2.5308
  583MOL0     H78650   9.149   9.161   4.368 -1.5849  2.0418 -0.9303
  583MOL0     H78651   9.228   9.248   4.491  1.8940 -0.5229 -4.1474
  583MOL0     H78652   8.978   9.060   4.519 -0.7195  4.1167 -1.4254
  583MOL0     H78653   9.064   9.134   4.663  1.8061  0.5810  0.7226
  583MOL0     H78654   9.258   9.006   4.641 -0.8416  2.9255 -0.1059
  583MOL0     H78655   9.118   8.904   4.652  3.6346 -0.3364  4.0729
  583MOL0     H78656   9.415   8.899   4.482 -2.6008  3.3562  1.3398
  583MOL0     H78657   9.474   8.803   4.167  2.0228 -0.9392  0.4719
  583MOL0     H78658   9.496   8.698   4.297  0.4719 -0.2501 -1.7469
  583MOL0     H78659   9.355   8.527   4.225 -0.3953 -0.9851 -1.0684
  583MOL0     H78660   9.284   8.634   4.082  0.6578 -1.6384 -1.3233
  583MOL0     H78661   9.537   8.652   4.013 -2.1136  1.3532  0.4987
  583MOL0     H78662   9.452   8.508   3.972  0.2489  0.8454 -1.6842
  583MOL0     H78663   9.550   8.394   4.182  1.2569 -1.3517  0.6082
  583MOL0     H78664   9.631   8.544   4.211  1.1284 -0.8276  0.0082
  583MOL0     H78665   9.910   8.328   3.910  0.7706 -2.4157 -2.0187
  583MOL0     H78666   9.898   8.116   3.791 -0.4837 -2.6785  0.3215
  583MOL0     H78667   9.893   7.936   3.451  0.6259 -0.4858  0.8515
  583MOL0     H78668   9.934   7.748   3.302  0.1502 -0.2864  0.0412
  583MOL0     H78669   9.660   7.393   3.213 -0.7260 -0.1940  2.2378
  583MOL0     H78670   9.598   7.529   3.293  1.9821  0.5673  1.2937
  583MOL0     H78671   9.603   7.607   3.072  1.3491  0.2042 -1.1314
  583MOL0     H78672   9.747   7.671   3.119 -2.6851  1.7876  0.4226
  583MOL0     H78673   9.739   7.411   2.984 -0.9033  0.3026  1.6792
  583MOL0     H78674   9.769   7.575   2.910 -1.1480 -0.0339 -0.2073
  583MOL0     H78675   9.947   7.423   3.103  0.9085 -0.9918 -1.5513
  583MOL0     H78676   9.969   7.599   3.065  0.4103 -0.9693  2.3690
  583MOL0     H78677  10.003   7.552   2.831 -2.4569  0.7627  0.6371
  583MOL0     H78678   9.977   7.379   2.842  1.5925 -1.0775  0.6694
  583MOL0     H78679  10.194   7.546   2.983 -0.3072  0.0071 -1.1928
  583MOL0     H78680  10.167   7.365   2.996 -0.7051  2.2362  4.4906
  583MOL0     H78681  10.270   7.516   2.754  1.0425 -0.8082 -0.5511
  583MOL0     H78682  10.231   7.352   2.739 -3.5495 -0.2800  0.5179
  583MOL0     H78683  10.460   7.354   2.775  0.0909 -1.5317  1.0732
  583MOL0     H78684  10.433   7.463   2.916  1.5198 -1.5576  0.7709
  583MOL0     H78685   9.671   7.497   3.532  1.2566 -1.6433  0.5605
  583MOL0     H78686   9.673   7.664   3.706 -1.0089 -1.0302 -0.3863
  583MOL0     H78687   9.502   8.036   3.952 -0.5492 -0.7473 -0.9813
  583MOL0     H78688   9.496   8.260   4.037  2.5448  1.4530  2.3255
  583MOL0     H78689   9.535   9.674   4.153 -2.5718 -0.4108 -0.7839
  583MOL0     H78690   9.715   9.819   4.136  0.7168  2.0405 -0.5947
  583MOL0     H78691   9.848  10.278   4.208 -0.0745 -1.7604 -1.4200
  583MOL0     H78692   9.958  10.492   4.160 -3.8662 -0.5087  1.0080
  583MOL0     H78693  10.173  10.508   3.765 -1.9239  1.8674 -0.1131
  583MOL0     H78694  10.287  10.465   3.905 -1.7658 -1.3317  1.8073
  583MOL0     H78695  10.382  10.642   3.801 -0.6610 -0.7998 -0.0926
  583MOL0     H78696  10.317  10.712   3.952 -0.7959 -3.8801  1.7936
  583MOL0     H78697  10.124  10.805   3.786  0.9867  1.4480  1.6701
  583MOL0     H78698  10.195  10.735   3.654  0.1953 -3.7280  1.1030
  583MOL0     H78699  10.281  10.972   3.824  0.0155 -2.2020  1.6362
  583MOL0     H78700  10.391  10.882   3.700 -1.6489 -4.4215 -3.9653
  583MOL0     H78701  10.241  11.134   3.432  1.3038  0.7039  0.6511
  583MOL0     H78702  10.103  10.321   3.789  1.5942  4.2394  0.4588
  583MOL0     H78703   9.913  10.163   3.702 -0.7581  1.3683  1.5955
  583MOL0     H78704  10.056  10.064   3.739  0.6757  0.9626  0.0823
  583MOL0     H78705   9.895  10.016   3.786 -0.9072  1.3471  2.7050
  584MOL0     O78706  11.088   0.519   4.556  0.5493 -0.6377 -0.2189
  584MOL0     C78707  11.153   0.517   4.454 -0.4452  0.3577  0.2525
  584MOL0     O78708  11.135   0.585   4.340  0.4036 -0.1031  0.0543
  584MOL0     C78709  11.042   0.688   4.350 -0.5964  0.8227 -0.6854
  584MOL0     C78710  10.909   0.664   4.358  0.8317 -0.2418  0.1400
  584MOL0     C78711  10.819   0.770   4.364  0.1321  0.1418 -0.1249
  584MOL0     C78712  10.860   0.901   4.372 -0.1212 -0.1579 -1.1410
  584MOL0     O78713  10.769   1.000   4.377  0.0120  0.3125  1.0261
  584MOL0     C78714  10.763   1.083   4.254  0.5326  1.1852 -0.9701
  584MOL0     C78715  10.616   1.138   4.244 -0.2871  0.4324 -0.0517
  584MOL0     C78716  10.515   1.034   4.198  0.6944 -0.0026 -0.3321
  584MOL0     C78717  10.378   1.093   4.190 -0.0618 -0.2290 -1.0851
  584MOL0     C78718  10.320   1.140   4.327  0.1587  0.5944 -1.1927
  584MOL0     C78719  10.310   1.034   4.439 -0.3120 -1.0936 -0.7107
  584MOL0     C78720  10.431   1.027   4.537 -0.5543  0.8976 -0.5810
  584MOL0     C78721  10.415   0.907   4.638  0.1748 -0.4379  0.3658
  584MOL0     N78722  10.507   0.911   4.749  0.5195 -0.6333 -0.2505
  584MOL0     C78723  10.644   0.893   4.736  0.7103  1.1157  0.0896
  584MOL0     C78724  10.697   0.936   4.851  0.9136  0.0341 -0.5042
  584MOL0     C78725  10.838   0.922   4.878 -0.4867  0.7092 -0.0459
  584MOL0     C78726  10.873   0.776   4.922 -0.5403 -0.1972  0.1378
  584MOL0     C78727  11.018   0.729   4.880 -0.5724  0.9250  0.7317
  584MOL0     C78728  11.042   0.577   4.913  0.5732  0.3885 -0.3787
  584MOL0     O78729  10.975   0.548   5.044 -0.2928  0.1279  0.9674
  584MOL0     C78730  10.906   0.434   5.058 -0.0216 -1.1975  1.3818
  584MOL0     C78731  10.800   0.443   5.144  0.8281 -0.4811  0.1176
  584MOL0     C78732  10.719   0.327   5.165 -0.6798 -0.3144 -0.2677
  584MOL0     C78733  10.740   0.207   5.094 -0.7655 -0.8372  0.6208
  584MOL0     C78734  10.648   0.083   5.102  0.8982 -0.3920 -0.7463
  584MOL0     O78735  10.680  -0.022   5.028 -0.2614  0.4805 -0.1722
  584MOL0     C78736  10.640  -0.157   5.067 -0.9841 -0.1440  0.2402
  584MOL0     C78737  10.648  -0.253   4.969  1.4687  0.3634  0.1366
  584MOL0     C78738  10.625  -0.389   5.002 -0.1559 -0.8359  0.3509
  584MOL0     C78739  10.585  -0.425   5.129  0.2569  0.2056  0.2766
  584MOL0     O78740  10.556  -0.557   5.144  0.6747  0.7516 -0.4145
  584MOL0     C78741  10.539  -0.616   5.278 -0.2821  0.4896  0.7196
  584MOL0     C78742  10.439  -0.718   5.283  0.5579 -0.2466  0.1893
  584MOL0     C78743  10.359  -0.729   5.407 -0.2167 -0.5062 -0.5479
  584MOL0     C78744  10.432  -0.766   5.528 -0.1068  0.7724  0.6672
  584MOL0     C78745  10.364  -0.745   5.662 -0.3196  0.2660  0.2325
  584MOL0     C78746  10.283  -0.612   5.685  0.1873  0.4935 -0.5438
  584MOL0     C78747  10.239  -0.607   5.838  0.3828  1.3139  1.7954
  584MOL0     C78748  10.094  -0.549   5.851  0.0758 -0.4958 -0.5438
  584MOL0    Cl78749   9.981  -0.672   5.793  0.7000 -0.0434  0.3118
  584MOL0     C78750  10.588  -0.327   5.225  0.2808  0.2386  0.4938
  584MOL0     C78751  10.622  -0.198   5.201 -0.6031 -0.3321  0.6331
  584MOL0     O78752  10.539   0.094   5.167  0.4355 -0.0914 -0.5258
  584MOL0     C78753  10.853   0.210   5.006  0.1214  1.1932 -0.1055
  584MOL0     C78754  10.929   0.319   4.988 -0.7384  0.4531 -0.0595
  584MOL0     N78755  10.594   0.988   4.936  0.0161  0.1315  0.0623
  584MOL0     N78756  10.485   0.978   4.873  1.0910 -0.2360 -0.1629
  584MOL0     C78757  10.990   0.929   4.357 -1.4691  0.5018 -1.3870
  584MOL0     C78758  11.079   0.824   4.342 -0.7471  0.4658  0.4603
  584MOL0     C78759  11.273   0.436   4.454 -0.7927  0.8111 -0.0432
  584MOL0     C78760  11.307   0.365   4.335 -0.2449  0.1387  0.7638
  584MOL0     C78761  11.429   0.300   4.314  0.1642  0.2525 -0.2632
  584MOL0     C78762  11.523   0.294   4.410  0.4359 -0.4446 -0.0045
  584MOL0     O78763  11.638   0.213   4.379  0.3554 -0.2153 -0.4999
  584MOL0     C78764  11.726   0.179   4.487  0.4244 -0.5616  0.2747
  584MOL0     C78765  11.864   0.237   4.469 -0.5092 -0.5069 -0.5634
  584MOL0     C78766  11.964   0.182   4.575 -0.0366  0.0932 -0.5191
  584MOL0     C78767  11.946   0.212   4.731  0.5934  0.9315  0.0481
  584MOL0     C78768  11.815   0.180   4.788 -0.0213 -0.1023 -0.2034
  584MOL0     C78769  11.718   0.125   4.836  0.0784 -0.0865 -0.0187
  584MOL0     C78770  11.498   0.373   4.526 -0.0370 -0.4188  0.8359
  584MOL0     C78771  11.378   0.443   4.553  0.3735  0.3063 -0.6682
  584MOL0     C78772  11.358   0.520   4.687 -0.1273 -0.7368  1.0135
  584MOL0     H78773  10.875   0.562   4.376  1.2147 -0.0986  1.8410
  584MOL0     H78774  10.713   0.746   4.375  0.7202 -1.8086  2.3431
  584MOL0     H78775  10.836   1.163   4.264  1.3501  0.2024  2.0229
  584MOL0     H78776  10.800   1.031   4.165  3.7442  0.3439  0.7078
  584MOL0     H78777  10.619   1.222   4.175 -1.5590 -0.1476 -0.8644
  584MOL0     H78778  10.588   1.197   4.332 -0.4700  1.0722 -0.5309
  584MOL0     H78779  10.511   0.940   4.255  0.3060  0.7103  0.8406
  584MOL0     H78780  10.545   1.005   4.097  3.0547  0.5432  0.1477
  584MOL0     H78781  10.372   1.174   4.117  2.2844  1.3897  0.3974
  584MOL0     H78782  10.310   1.010   4.168 -0.4338 -1.0635  2.5745
  584MOL0     H78783  10.361   1.237   4.360  3.1588 -0.7228 -0.6993
  584MOL0     H78784  10.213   1.155   4.314 -0.3397 -0.1586  1.4335
  584MOL0     H78785  10.214   1.051   4.489  0.7954  3.8044  0.2013
  584MOL0     H78786  10.309   0.940   4.383 -0.3487 -0.9771 -0.9034
  584MOL0     H78787  10.427   1.114   4.604  0.6941  0.0123  0.6841
  584MOL0     H78788  10.528   1.029   4.486 -0.2738  0.0111 -0.1053
  584MOL0     H78789  10.314   0.891   4.678  0.4858 -1.9618  0.6155
  584MOL0     H78790  10.437   0.822   4.572 -1.4753  1.5124 -2.9825
  584MOL0     H78791  10.694   0.842   4.654 -3.2567 -0.8758 -1.3812
  584MOL0     H78792  10.903   0.941   4.792  0.6622 -0.6965  0.4762
  584MOL0     H78793  10.863   0.995   4.957  3.0225 -0.4809  0.1271
  584MOL0     H78794  10.872   0.766   5.031  1.3493  0.5538  0.2594
  584MOL0     H78795  10.796   0.711   4.879  0.7329 -0.2548 -2.2144
  584MOL0     H78796  11.099   0.790   4.922 -1.0371  2.3285 -0.3362
  584MOL0     H78797  11.047   0.751   4.777 -0.1203 -1.2348  0.3483
  584MOL0     H78798  11.142   0.532   4.906  0.1281 -0.4355 -1.9317
  584MOL0     H78799  10.987   0.525   4.834  0.3387 -0.3040  0.2342
  584MOL0     H78800  10.778   0.532   5.202 -3.7095 -1.5461  0.4278
  584MOL0     H78801  10.634   0.337   5.232 -0.0809 -2.6761  0.9774
  584MOL0     H78802  10.671  -0.222   4.867 -0.8874  1.7332 -0.0450
  584MOL0     H78803  10.630  -0.475   4.936  0.6179 -1.4946  1.2254
  584MOL0     H78804  10.630  -0.672   5.302 -1.0032 -0.9514  0.2152
  584MOL0     H78805  10.528  -0.539   5.355  1.1594  3.0414 -1.4410
  584MOL0     H78806  10.365  -0.709   5.203  0.0586 -0.0480  0.6646
  584MOL0     H78807  10.486  -0.815   5.265  1.1310  0.0907 -0.1848
  584MOL0     H78808  10.310  -0.632   5.415  0.5336 -0.1758  0.2283
  584MOL0     H78809  10.285  -0.804   5.378  1.6163 -1.2869 -3.6737
  584MOL0     H78810  10.531  -0.719   5.526  0.2683  0.0244  0.8203
  584MOL0     H78811  10.446  -0.874   5.517 -3.8430  0.1014  1.2809
  584MOL0     H78812  10.449  -0.730   5.730  0.3213  2.7542 -0.9753
  584MOL0     H78813  10.298  -0.826   5.693  0.4160  1.0100  4.3710
  584MOL0     H78814  10.348  -0.528   5.658 -0.0979  1.4456  1.5146
  584MOL0     H78815  10.192  -0.618   5.623 -0.5877 -0.6398  0.6438
  584MOL0     H78816  10.303  -0.529   5.879  0.1752  5.5109 -4.4688
  584MOL0     H78817  10.242  -0.708   5.880 -1.1803 -1.0416 -2.9655
  584MOL0     H78818  10.079  -0.521   5.955  0.8585 -1.3929 -0.1857
  584MOL0     H78819  10.090  -0.454   5.796  0.2521  0.7384  1.4872
  584MOL0     H78820  10.537  -0.342   5.320  2.2619  1.0760  1.7475
  584MOL0     H78821  10.638  -0.148   5.296  3.5533 -2.8500  1.4768
  584MOL0     H78822  10.866   0.128   4.937 -0.8821  0.3902  0.6186
  584MOL0     H78823  11.006   0.305   4.912 -0.9094 -1.2808  0.0544
  584MOL0     H78824  11.012   1.034   4.368  1.8382 -0.3405  2.0636
  584MOL0     H78825  11.183   0.851   4.347 -0.5256 -0.3496  5.3425
  584MOL0     H78826  11.241   0.361   4.250  3.6434  1.8154 -2.6832
  584MOL0     H78827  11.439   0.248   4.219  0.0170 -0.6466  0.2086
  584MOL0     H78828  11.746   0.071   4.492  0.7773 -0.4525  2.8126
  584MOL0     H78829  11.683   0.207   4.584 -0.9102 -1.2309 -0.0952
  584MOL0     H78830  11.852   0.345   4.468 -2.7742 -0.7020 -1.5700
  584MOL0     H78831  11.905   0.222   4.368 -0.0051 -0.3039 -0.3925
  584MOL0     H78832  12.066   0.217   4.554 -0.0848  2.6376  2.7830
  584MOL0     H78833  11.964   0.073   4.563 -1.4659  0.1769 -1.5654
  584MOL0     H78834  12.031   0.164   4.780  2.0968  3.6433  0.3136
  584MOL0     H78835  11.962   0.318   4.754 -1.0341  1.0076  1.0372
  584MOL0     H78836  11.636   0.070   4.877  0.1874 -1.0287 -1.0194
  584MOL0     H78837  11.571   0.385   4.605 -3.2794  1.1760  3.8598
  584MOL0     H78838  11.439   0.510   4.759 -2.1412 -1.4447  3.3503
  584MOL0     H78839  11.339   0.624   4.658 -1.4151 -1.4795 -1.0195
  584MOL0     H78840  11.271   0.487   4.745  0.0783 -3.4916 -0.0870
  585MOL0     O78841   5.749  10.876  11.493 -0.3912 -0.8643 -0.7534
  585MOL0     C78842   5.756  10.986  11.555  0.3372  0.3628  0.0779
  585MOL0     O78843   5.651  11.047  11.622 -0.0149 -0.2503  0.5353
  585MOL0     C78844   5.522  10.998  11.606  0.2364 -0.6303 -0.3623
  585MOL0     C78845   5.450  11.047  11.503  0.0007 -0.0708 -0.0903
  585MOL0     C78846   5.321  11.002  11.480 -0.8228 -0.9158 -0.2262
  585MOL0     C78847   5.263  10.912  11.574 -0.5795  0.2637  0.0074
  585MOL0     O78848   5.133  10.856  11.560  0.4464  0.3423 -0.9714
  585MOL0     C78849   5.101  10.780  11.447 -0.1350 -0.3905 -0.4049
  585MOL0     C78850   5.111  10.637  11.496 -0.3249  0.8396  0.4112
  585MOL0     C78851   5.256  10.578  11.492  0.0465  0.3744 -0.5125
  585MOL0     C78852   5.250  10.431  11.541 -0.3263  0.8888 -0.0370
  585MOL0     C78853   5.393  10.364  11.546 -0.0274 -1.1099  0.2419
  585MOL0     C78854   5.496  10.419  11.653  0.2688 -0.0502  0.5317
  585MOL0     C78855   5.644  10.409  11.606 -0.4067 -0.3721  0.0625
  585MOL0     C78856   5.693  10.522  11.505 -0.1962  0.1829  0.3272
  585MOL0     N78857   5.640  10.508  11.373 -0.9494  0.7259  0.5780
  585MOL0     C78858   5.573  10.605  11.314  0.1426 -0.2564 -0.0883
  585MOL0     C78859   5.545  10.573  11.190 -0.0095  0.7173 -0.5826
  585MOL0     C78860   5.471  10.651  11.082 -0.1529  0.9713 -0.1945
  585MOL0     C78861   5.343  10.721  11.128 -0.0440 -0.5936 -0.4094
  585MOL0     C78862   5.260  10.772  11.015  0.0415 -0.1129 -0.1138
  585MOL0     C78863   5.130  10.834  11.065  0.4742  0.5258  0.0754
  585MOL0     O78864   5.142  10.957  11.148  1.2281  0.4473 -0.2682
  585MOL0     C78865   5.014  11.013  11.183  0.1679  1.5418  0.5971
  585MOL0     C78866   4.890  10.948  11.176 -0.4318 -0.8358  0.2682
  585MOL0     C78867   4.780  11.009  11.223 -0.3142 -0.3085 -0.4624
  585MOL0     C78868   4.781  11.147  11.261 -0.0567  0.5124 -1.5683
  585MOL0     C78869   4.661  11.211  11.319 -0.3910  0.2368 -0.0031
  585MOL0     O78870   4.672  11.334  11.379  0.3468  0.0720 -0.8478
  585MOL0     C78871   4.560  11.390  11.433  0.6264 -0.3229 -0.0840
  585MOL0     C78872   4.506  11.323  11.545  0.3650  0.4417 -0.7484
  585MOL0     C78873   4.391  11.377  11.603 -0.4415 -0.1251 -0.0471
  585MOL0     C78874   4.340  11.499  11.560 -0.0951  0.9569  0.3653
  585MOL0     O78875   4.242  11.556  11.628 -0.0656 -0.2925 -0.3526
  585MOL0     C78876   4.118  11.583  11.556 -1.1628  0.5542 -0.6556
  585MOL0     C78877   4.068  11.705  11.647 -0.0088  0.0770 -0.2088
  585MOL0     C78878   3.941  11.677  11.730 -0.7061 -0.4931  0.5217
  585MOL0     C78879   3.821  11.691  11.641  0.2419 -0.7763  0.0925
  585MOL0     C78880   3.694  11.651  11.704  0.7882  0.3585 -0.6305
  585MOL0     C78881   3.568  11.660  11.624 -0.1695  0.4147  0.3898
  585MOL0     C78882   3.440  11.654  11.723  0.0039  0.4442  0.4316
  585MOL0     C78883   3.425  11.759  11.839  0.0030 -0.2926 -1.0900
  585MOL0    Cl78884   3.279  11.717  11.942  0.3094  0.1773 -0.3111
  585MOL0     C78885   4.388  11.555  11.450 -0.6944 -0.8232  0.7998
  585MOL0     C78886   4.500  11.501  11.384  0.2123  0.0586  0.2383
  585MOL0     O78887   4.554  11.155  11.308 -0.0936  0.2693  0.3263
  585MOL0     C78888   4.904  11.219  11.270 -0.1459 -0.2486  0.9549
  585MOL0     C78889   5.019  11.147  11.227  0.2573 -0.3860 -0.0602
  585MOL0     N78890   5.613  10.446  11.180  0.4304 -0.9656 -0.1304
  585MOL0     N78891   5.663  10.402  11.296  0.1374 -0.2659  0.1881
  585MOL0     C78892   5.339  10.853  11.669 -0.1263 -0.1841  0.3778
  585MOL0     C78893   5.469  10.904  11.693 -0.5840 -0.7633  0.8876
  585MOL0     C78894   5.893  11.031  11.588  0.3793  0.0558  0.0327
  585MOL0     C78895   5.979  11.051  11.474  0.7638  0.2155 -0.4068
  585MOL0     C78896   6.117  11.076  11.484  0.6057  0.0209 -0.1010
  585MOL0     C78897   6.165  11.104  11.613 -0.1182 -0.3918  0.8687
  585MOL0     O78898   6.304  11.119  11.620  0.5460  0.2272  0.4025
  585MOL0     C78899   6.349  11.199  11.737 -0.3257 -0.2592  0.9902
  585MOL0     C78900   6.499  11.244  11.716 -0.2774  0.4619 -0.0845
  585MOL0     C78901   6.527  11.306  11.578 -0.0779 -0.4347 -0.1363
  585MOL0     C78902   6.670  11.328  11.554 -0.9404  0.4548  0.3482
  585MOL0     C78903   6.712  11.445  11.623  1.0579  0.1814  1.0764
  585MOL0     C78904   6.759  11.540  11.682  0.2193 -1.0156 -0.8852
  585MOL0     C78905   6.077  11.102  11.725 -0.4439 -0.3456  0.0291
  585MOL0     C78906   5.950  11.056  11.712  0.8373 -0.0405 -0.1449
  585MOL0     C78907   5.873  11.045  11.836  1.2338  0.1614 -0.6902
  585MOL0     H78908   5.502  11.123  11.446 -0.0175 -0.4109 -0.5659
  585MOL0     H78909   5.257  11.045  11.403 -3.5125 -1.5115  1.5367
  585MOL0     H78910   4.999  10.811  11.421 -0.4505  0.0394  1.2266
  585MOL0     H78911   5.168  10.798  11.362 -1.3209  2.4138 -0.8584
  585MOL0     H78912   5.042  10.569  11.445 -2.1746 -0.1220  3.8895
  585MOL0     H78913   5.081  10.627  11.601  0.5211 -1.2738  0.4984
  585MOL0     H78914   5.338  10.629  11.544  1.6305 -1.7314 -0.7643
  585MOL0     H78915   5.299  10.588  11.391  0.6921  1.9750 -0.1108
  585MOL0     H78916   5.196  10.425  11.637 -0.6240 -1.0154 -0.2811
  585MOL0     H78917   5.193  10.376  11.465  1.5644 -0.4451 -0.5499
  585MOL0     H78918   5.391  10.255  11.548  3.1662 -1.2796  2.5571
  585MOL0     H78919   5.437  10.391  11.450 -2.8600  4.3618  0.0414
  585MOL0     H78920   5.473  10.521  11.687  1.2700 -0.3830  2.3560
  585MOL0     H78921   5.485  10.358  11.743 -1.0925 -0.5677  0.0419
  585MOL0     H78922   5.667  10.307  11.572  1.9593  0.1099  0.0306
  585MOL0     H78923   5.705  10.419  11.696 -0.5884 -2.6157  0.4869
  585MOL0     H78924   5.672  10.622  11.543  0.1972 -0.5571  2.7270
  585MOL0     H78925   5.803  10.524  11.503 -0.1965  2.2660  0.0816
  585MOL0     H78926   5.559  10.698  11.368  0.0390  0.6012 -1.5327
  585MOL0     H78927   5.545  10.718  11.038 -1.5074  0.8818 -2.8593
  585MOL0     H78928   5.444  10.589  10.996 -0.9494  2.6880 -1.2340
  585MOL0     H78929   5.275  10.648  11.173 -0.9423 -1.8279 -3.5306
  585MOL0     H78930   5.376  10.802  11.194 -1.9404 -0.7272  0.7686
  585MOL0     H78931   5.246  10.689  10.945 -0.3046 -3.1710  3.2740
  585MOL0     H78932   5.317  10.855  10.971 -0.8730  0.5068 -0.1625
  585MOL0     H78933   5.065  10.760  11.112  0.6717 -0.3877 -1.0372
  585MOL0     H78934   5.069  10.866  10.979  0.5639  2.8307  0.7966
  585MOL0     H78935   4.888  10.842  11.152 -1.6609 -1.4882  2.8325
  585MOL0     H78936   4.686  10.956  11.215  0.7014 -1.9800 -1.9375
  585MOL0     H78937   4.557  11.237  11.586 -0.9318  0.6832  1.5649
  585MOL0     H78938   4.360  11.331  11.696  0.5422  2.4066  1.6321
  585MOL0     H78939   4.120  11.607  11.449 -1.0072 -0.1263 -0.8049
  585MOL0     H78940   4.046  11.502  11.569 -2.4194  1.3642 -2.0753
  585MOL0     H78941   4.152  11.734  11.710  0.1131 -0.9613  0.1267
  585MOL0     H78942   4.036  11.788  11.583  1.1348  0.6174 -0.0976
  585MOL0     H78943   3.940  11.576  11.771 -1.2596  0.7055  3.7833
  585MOL0     H78944   3.939  11.750  11.812  0.6959  0.3456 -0.1373
  585MOL0     H78945   3.831  11.648  11.541 -0.8203  0.1512 -0.4405
  585MOL0     H78946   3.805  11.799  11.638 -1.4645 -0.9988  0.0918
  585MOL0     H78947   3.688  11.724  11.785 -1.0153 -1.2290  0.7528
  585MOL0     H78948   3.707  11.546  11.733 -1.1015  0.2528 -0.0723
  585MOL0     H78949   3.574  11.754  11.569  0.5270 -0.4556 -1.0889
  585MOL0     H78950   3.556  11.589  11.541 -2.1743  1.2573 -0.1162
  585MOL0     H78951   3.432  11.556  11.771  0.3970 -0.5682 -1.4353
  585MOL0     H78952   3.345  11.655  11.668  0.6855  2.1623 -0.7925
  585MOL0     H78953   3.512  11.769  11.906  0.9261  0.1973 -2.3215
  585MOL0     H78954   3.416  11.856  11.790  2.0687  0.7867  0.4630
  585MOL0     H78955   4.357  11.647  11.402  3.5684 -0.3096 -1.3974
  585MOL0     H78956   4.543  11.544  11.294 -1.3474  1.2808  0.0442
  585MOL0     H78957   4.903  11.322  11.303 -3.7688 -0.8762  3.3263
  585MOL0     H78958   5.108  11.206  11.243  0.3119 -1.0751  2.6908
  585MOL0     H78959   5.292  10.780  11.735  0.5073  1.6471  3.0033
  585MOL0     H78960   5.525  10.864  11.776  1.9201  2.4506  0.9397
  585MOL0     H78961   5.933  11.042  11.376  0.9615 -0.0907 -0.4722
  585MOL0     H78962   6.178  11.075  11.394  0.5826  0.8802 -0.1280
  585MOL0     H78963   6.336  11.152  11.835 -0.7865 -2.0380  0.1146
  585MOL0     H78964   6.290  11.291  11.740  2.3331  1.5919  0.4219
  585MOL0     H78965   6.568  11.161  11.732  3.0764  3.0375 -0.0891
  585MOL0     H78966   6.519  11.325  11.787  1.4355 -0.3426  0.3957
  585MOL0     H78967   6.471  11.394  11.546  0.5818 -0.8651 -2.7066
  585MOL0     H78968   6.511  11.224  11.508  0.6546  1.9979 -3.3626
  585MOL0     H78969   6.735  11.247  11.588 -1.0587  0.6227  0.9816
  585MOL0     H78970   6.687  11.355  11.449 -3.3411 -0.8309 -0.4535
  585MOL0     H78971   6.811  11.600  11.754  2.0657 -2.0375 -1.2891
  585MOL0     H78972   6.117  11.133  11.821  0.6616  0.9358 -0.8155
  585MOL0     H78973   5.924  10.999  11.921  0.4730  3.3898  1.7390
  585MOL0     H78974   5.849  11.147  11.869 -0.4013 -0.7033  0.9930
  585MOL0     H78975   5.778  10.992  11.820  2.3947 -1.5508 -2.3471
  586MOL0     O78976   8.122   6.261   7.122  0.1991 -0.0817  0.3203
  586MOL0     C78977   8.193   6.242   7.222  0.3059  0.3847  0.8035
  586MOL0     O78978   8.170   6.290   7.350  0.0210 -0.8573  0.5482
  586MOL0     C78979   8.083   6.395   7.368 -0.5300 -0.7790 -0.3921
  586MOL0     C78980   8.088   6.507   7.288 -0.1382 -0.3553  0.0263
  586MOL0     C78981   8.007   6.619   7.307 -0.5176 -0.6061  0.4124
  586MOL0     C78982   7.917   6.628   7.417 -0.1477  0.5421  0.1094
  586MOL0     O78983   7.836   6.734   7.432  0.1411 -0.0010 -0.3663
  586MOL0     C78984   7.800   6.759   7.567  0.9531 -1.0682 -0.7800
  586MOL0     C78985   7.915   6.821   7.650  0.0310 -0.1175  0.7502
  586MOL0     C78986   7.987   6.922   7.563 -0.4580  0.1623  0.4809
  586MOL0     C78987   8.060   7.030   7.650  0.4869 -0.4705  0.1267
  586MOL0     C78988   8.104   7.151   7.561  0.3690  0.2280 -0.7414
  586MOL0     C78989   8.017   7.285   7.588  1.3014 -0.1115 -0.7759
  586MOL0     C78990   7.883   7.298   7.531 -0.3189 -0.6039  1.2777
  586MOL0     C78991   7.805   7.430   7.555 -0.3452  0.0406 -0.2992
  586MOL0     N78992   7.779   7.460   7.701 -0.4240  1.1403 -0.2588
  586MOL0     C78993   7.853   7.536   7.791  0.0048  1.3106  0.6096
  586MOL0     C78994   7.769   7.536   7.897 -0.4946 -0.2931 -0.5144
  586MOL0     C78995   7.803   7.614   8.012 -0.5515  0.4109 -0.2972
  586MOL0     C78996   7.929   7.573   8.088 -0.1200  0.5675  0.2208
  586MOL0     C78997   7.959   7.668   8.198 -0.3748  0.2616 -1.4696
  586MOL0     C78998   7.848   7.654   8.306  0.1001 -0.3429 -0.0006
  586MOL0     O78999   7.826   7.523   8.357 -0.6413  0.3618  0.7795
  586MOL0     C79000   7.757   7.510   8.475  0.2898  0.4199  0.6195
  586MOL0     C79001   7.741   7.384   8.533  0.2849 -0.1803 -1.0547
  586MOL0     C79002   7.658   7.362   8.646  0.4942 -0.5262  1.5535
  586MOL0     C79003   7.582   7.466   8.702  0.9809 -0.0955  0.7901
  586MOL0     C79004   7.486   7.449   8.813 -0.5372 -0.0751  0.9928
  586MOL0     O79005   7.420   7.324   8.823 -0.1135 -0.4567 -0.2468
  586MOL0     C79006   7.351   7.272   8.928 -1.0311  0.2005  0.3728
  586MOL0     C79007   7.397   7.286   9.060  0.7816  0.3184  0.9271
  586MOL0     C79008   7.308   7.244   9.165  0.4574 -0.3973  0.1364
  586MOL0     C79009   7.182   7.182   9.131  0.3935 -0.1299  0.3118
  586MOL0     O79010   7.088   7.132   9.221  0.1909 -0.3619  0.1458
  586MOL0     C79011   7.135   7.146   9.355 -0.5226 -0.2976  0.6145
  586MOL0     C79012   7.044   7.077   9.456 -0.2263 -0.3770 -0.3249
  586MOL0     C79013   6.900   7.135   9.452  0.3037  0.7050 -0.4321
  586MOL0     C79014   6.810   7.071   9.560 -1.1115  0.1207 -0.4539
  586MOL0     C79015   6.665   7.107   9.533 -0.8022  0.3366  0.1795
  586MOL0     C79016   6.600   7.021   9.423  0.0842 -0.2403 -0.5219
  586MOL0     C79017   6.451   7.046   9.397  0.0022 -0.2212  0.0307
  586MOL0     C79018   6.409   6.971   9.277 -0.7524  0.2854 -1.1272
  586MOL0    Cl79019   6.229   6.982   9.275 -0.0805  0.0179 -0.1260
  586MOL0     C79020   7.150   7.154   9.002 -0.8447 -0.7844 -0.1890
  586MOL0     C79021   7.233   7.210   8.895  0.1837  0.4975  0.5070
  586MOL0     O79022   7.479   7.543   8.887  0.7473  0.1107 -0.2935
  586MOL0     C79023   7.609   7.595   8.652 -0.1127 -0.3680  0.0721
  586MOL0     C79024   7.697   7.613   8.542  0.2878 -0.3034  0.0143
  586MOL0     N79025   7.653   7.463   7.884  0.6073 -0.4303 -0.8014
  586MOL0     N79026   7.663   7.429   7.764  1.0480 -0.2089  0.6706
  586MOL0     C79027   7.922   6.516   7.504 -0.7698  0.2740  0.1737
  586MOL0     C79028   7.998   6.397   7.481 -1.1711 -0.6958  0.2590
  586MOL0     C79029   8.306   6.142   7.220  0.5963  0.6011  0.1468
  586MOL0     C79030   8.398   6.139   7.321  1.2077  0.5344 -0.6511
  586MOL0     C79031   8.502   6.040   7.322  0.0627  0.0934  0.5267
  586MOL0     C79032   8.518   5.946   7.221 -0.8782  0.3871  0.3428
  586MOL0     O79033   8.632   5.868   7.227 -0.6939 -0.0918 -0.1014
  586MOL0     C79034   8.655   5.770   7.128 -1.3389  0.4637  0.1040
  586MOL0     C79035   8.766   5.812   7.035  1.2360 -0.0596 -0.0949
  586MOL0     C79036   8.908   5.842   7.106  0.4592  0.1413 -0.5590
  586MOL0     C79037   8.976   5.715   7.156 -0.1840  0.4704 -0.2283
  586MOL0     C79038   9.012   5.632   7.039  0.6980 -0.1211 -0.9509
  586MOL0     C79039   9.041   5.575   6.938  0.0386  0.2878  0.3340
  586MOL0     C79040   8.414   5.939   7.126 -0.6368 -0.1929  0.2231
  586MOL0     C79041   8.315   6.032   7.128  0.1233 -0.1294  0.3764
  586MOL0     C79042   8.231   6.033   7.001 -0.6811 -0.2472 -0.4133
  586MOL0     H79043   8.159   6.501   7.206  0.1736 -0.2028  0.2849
  586MOL0     H79044   8.010   6.692   7.227 -0.0523 -0.3136  0.6922
  586MOL0     H79045   7.720   6.831   7.548  1.2839 -0.2889  0.6220
  586MOL0     H79046   7.739   6.684   7.618 -1.7476  1.0433 -0.6265
  586MOL0     H79047   7.989   6.747   7.682 -0.4555 -0.0292  2.1075
  586MOL0     H79048   7.876   6.866   7.741  1.6233  1.1380  0.8518
  586MOL0     H79049   7.911   6.977   7.506  0.5700  2.3479  1.1108
  586MOL0     H79050   8.045   6.880   7.481 -0.9353 -0.5448  0.4904
  586MOL0     H79051   7.991   7.066   7.726  0.3174  0.8316 -0.6091
  586MOL0     H79052   8.153   6.988   7.690  0.8402 -1.7941 -1.9192
  586MOL0     H79053   8.207   7.168   7.594 -0.8121 -0.4459  3.9417
  586MOL0     H79054   8.097   7.130   7.454 -1.9313  2.1901 -1.0475
  586MOL0     H79055   8.015   7.314   7.693 -1.1035 -1.1748 -0.4730
  586MOL0     H79056   8.072   7.369   7.544  0.8883  0.4183 -0.2983
  586MOL0     H79057   7.815   7.213   7.546 -0.6722 -0.6187 -0.2006
  586MOL0     H79058   7.903   7.284   7.424  0.4907 -0.8269  1.4575
  586MOL0     H79059   7.844   7.518   7.503  1.5143  0.7700  2.1598
  586MOL0     H79060   7.707   7.425   7.507 -1.2667  0.6641  1.4367
  586MOL0     H79061   7.949   7.585   7.773  1.2931 -1.2812 -0.1027
  586MOL0     H79062   7.815   7.717   7.976 -2.7004  1.1553  0.9220
  586MOL0     H79063   7.719   7.601   8.082  0.0472 -0.9568  0.1953
  586MOL0     H79064   7.919   7.469   8.120 -0.5427  1.0416  1.7346
  586MOL0     H79065   8.019   7.567   8.026 -0.7604 -1.1288 -0.6163
  586MOL0     H79066   7.953   7.772   8.166 -3.5425  1.0963  1.2505
  586MOL0     H79067   8.055   7.639   8.241 -1.3672  1.7943  2.1600
  586MOL0     H79068   7.744   7.669   8.275 -0.2275 -3.9773 -1.0954
  586MOL0     H79069   7.863   7.723   8.390 -0.2545  0.8301 -0.8703
  586MOL0     H79070   7.794   7.296   8.499 -0.9623 -1.4388  0.1692
  586MOL0     H79071   7.652   7.262   8.688  0.1412 -0.4086  1.7901
  586MOL0     H79072   7.482   7.352   9.064 -1.0196  2.7405  2.1060
  586MOL0     H79073   7.343   7.270   9.264  0.8189 -0.5709  0.0573
  586MOL0     H79074   7.235   7.103   9.364 -0.5493 -1.2189 -2.3691
  586MOL0     H79075   7.132   7.253   9.375 -1.4010 -0.5207  1.7822
  586MOL0     H79076   7.042   6.972   9.428  1.5237  0.0186 -2.2347
  586MOL0     H79077   7.080   7.082   9.560 -1.6278  1.0151  0.1279
  586MOL0     H79078   6.902   7.244   9.466  1.1469  0.9426 -2.1114
  586MOL0     H79079   6.853   7.113   9.356  0.9539 -0.8361 -0.4224
  586MOL0     H79080   6.839   7.110   9.658 -0.2754  0.8933 -0.9925
  586MOL0     H79081   6.818   6.962   9.562 -3.1207 -0.1166 -1.9033
  586MOL0     H79082   6.675   7.210   9.497 -0.1260  0.6152  1.0999
  586MOL0     H79083   6.608   7.116   9.626  0.6794  1.4893  1.0167
  586MOL0     H79084   6.653   7.042   9.329 -0.9809  5.6603 -0.1988
  586MOL0     H79085   6.606   6.916   9.455  0.4343 -1.0862 -3.1238
  586MOL0     H79086   6.422   7.150   9.383  1.3785 -0.2165 -3.7855
  586MOL0     H79087   6.391   7.006   9.480 -0.3060 -1.5412 -0.7935
  586MOL0     H79088   6.460   7.018   9.193  1.8369  0.2106  0.2728
  586MOL0     H79089   6.429   6.863   9.285 -0.0889  0.5214  1.2774
  586MOL0     H79090   7.054   7.107   8.984  0.3920 -2.5396 -2.7989
  586MOL0     H79091   7.211   7.190   8.790 -1.3231 -1.1632  1.0951
  586MOL0     H79092   7.570   7.682   8.703  2.0512  0.3071  0.6662
  586MOL0     H79093   7.720   7.716   8.518  0.8819 -0.3358  0.4083
  586MOL0     H79094   7.869   6.531   7.597 -1.0033 -0.7757  0.2213
  586MOL0     H79095   7.999   6.314   7.551  3.5427  0.3217  1.7632
  586MOL0     H79096   8.394   6.216   7.397  0.2645 -0.0577 -0.0894
  586MOL0     H79097   8.572   6.055   7.404  1.2627  4.6407 -1.0073
  586MOL0     H79098   8.564   5.746   7.071 -1.8373  3.4295 -0.5529
  586MOL0     H79099   8.697   5.686   7.184  1.2585  1.5781 -0.0248
  586MOL0     H79100   8.732   5.897   6.976 -0.3195  0.8137  1.9257
  586MOL0     H79101   8.777   5.734   6.959 -0.8070 -0.3498 -0.1478
  586MOL0     H79102   8.896   5.918   7.185 -2.1064 -1.9327  1.2082
  586MOL0     H79103   8.975   5.899   7.040  0.3371  1.9494  0.7888
  586MOL0     H79104   9.073   5.742   7.198  1.1229  0.2061 -2.8775
  586MOL0     H79105   8.919   5.676   7.240  1.5573  0.4779  1.0028
  586MOL0     H79106   9.071   5.541   6.841 -0.9240 -0.5102  0.3016
  586MOL0     H79107   8.427   5.876   7.038  0.4922 -1.7361  1.4320
  586MOL0     H79108   8.124   6.025   7.020 -0.6272  0.5343  0.2533
  586MOL0     H79109   8.259   6.123   6.946 -1.8656  0.0189 -0.5879
  586MOL0     H79110   8.253   5.952   6.930 -0.6821 -0.6979  0.0967
  587MOL0     O79111   6.299   4.724   5.550  0.4371 -0.3654  0.3686
  587MOL0     C79112   6.183   4.725   5.588  0.6756  0.3019  0.3472
  587MOL0     O79113   6.140   4.814   5.693  0.0544  0.5835 -0.0928
  587MOL0     C79114   6.197   4.940   5.712  1.4026  0.1217 -0.3927
  587MOL0     C79115   6.249   5.010   5.601 -0.5674  0.1647  0.0383
  587MOL0     C79116   6.304   5.135   5.625 -0.0795  0.6542 -0.9664
  587MOL0     C79117   6.282   5.197   5.746  0.3653 -0.4978 -0.0478
  587MOL0     O79118   6.331   5.327   5.775 -0.0804  0.7757 -0.3514
  587MOL0     C79119   6.454   5.363   5.712 -0.1452 -0.3662  0.3068
  587MOL0     C79120   6.495   5.500   5.763 -0.0208  0.1125  0.5253
  587MOL0     C79121   6.403   5.617   5.705 -0.1739  0.0955 -0.2638
  587MOL0     C79122   6.455   5.749   5.757  0.8578 -0.6041 -0.4469
  587MOL0     C79123   6.391   5.882   5.713 -0.4253 -0.8716 -0.2405
  587MOL0     C79124   6.484   5.997   5.771 -1.0284 -0.6520  0.3825
  587MOL0     C79125   6.430   6.138   5.714 -0.5139 -0.0974 -0.2918
  587MOL0     C79126   6.439   6.257   5.805  0.5497  0.5246 -0.0338
  587MOL0     N79127   6.357   6.231   5.928  0.0583  0.1513  0.0018
  587MOL0     C79128   6.239   6.287   5.969  0.4158  0.1371  0.9389
  587MOL0     C79129   6.233   6.264   6.097  0.7225 -1.2575 -0.2406
  587MOL0     C79130   6.115   6.308   6.171  1.0615  1.2650  0.3120
  587MOL0     C79131   6.132   6.298   6.320 -1.0929  0.1143  0.3812
  587MOL0     C79132   6.236   6.397   6.382  0.2759  0.0523  0.4845
  587MOL0     C79133   6.189   6.545   6.397 -0.2310 -0.7509  0.1822
  587MOL0     O79134   6.105   6.559   6.509  0.0766  0.0946 -0.5928
  587MOL0     C79135   6.170   6.570   6.631  0.2669  0.0749  1.0649
  587MOL0     C79136   6.141   6.479   6.725  0.6560 -0.5175 -0.3843
  587MOL0     C79137   6.229   6.467   6.838 -0.2088  1.0130 -0.5476
  587MOL0     C79138   6.330   6.569   6.859  0.7083 -0.1806 -0.4705
  587MOL0     C79139   6.425   6.575   6.984  0.5428  0.1013  0.7097
  587MOL0     O79140   6.467   6.699   7.021  0.1184 -0.8518  0.7799
  587MOL0     C79141   6.595   6.718   7.075 -0.5629 -0.2127 -0.1840
  587MOL0     C79142   6.630   6.826   7.154 -0.1326  0.1277  0.3161
  587MOL0     C79143   6.752   6.846   7.208  1.5285  0.0412  0.6143
  587MOL0     C79144   6.851   6.749   7.200 -0.2806 -0.7213  0.4845
  587MOL0     O79145   6.967   6.744   7.272 -0.2002 -0.0603  0.6507
  587MOL0     C79146   6.970   6.824   7.391 -0.6093 -0.5847  1.0114
  587MOL0     C79147   7.077   6.783   7.493 -0.5122 -0.1505 -0.2792
  587MOL0     C79148   7.031   6.696   7.608  0.2417  0.2956  0.3165
  587MOL0     C79149   7.047   6.778   7.745  0.2863  0.5954 -0.5403
  587MOL0     C79150   6.948   6.743   7.860 -0.1875  0.1750 -0.1814
  587MOL0     C79151   6.995   6.616   7.928 -0.4938  0.2579 -0.3148
  587MOL0     C79152   6.961   6.474   7.863  0.5863  0.9897  0.4994
  587MOL0     C79153   7.086   6.387   7.866  0.2789 -0.2546  0.4578
  587MOL0    Cl79154   7.158   6.396   8.023  0.0012  0.3069  0.1258
  587MOL0     C79155   6.826   6.639   7.113  0.4096  0.1230 -0.1591
  587MOL0     C79156   6.699   6.625   7.055 -0.5385  0.3457  0.3611
  587MOL0     O79157   6.428   6.481   7.055 -0.7416 -0.0802  0.1683
  587MOL0     C79158   6.335   6.675   6.760  0.5205  0.2194  0.1709
  587MOL0     C79159   6.261   6.666   6.649  0.1639  0.6808 -0.2901
  587MOL0     N79160   6.350   6.217   6.149  0.2353 -0.3524  0.5182
  587MOL0     N79161   6.425   6.200   6.042 -0.2108  0.9547  0.3489
  587MOL0     C79162   6.228   5.127   5.859  0.4662  0.1489 -0.1594
  587MOL0     C79163   6.189   5.000   5.836  1.1318  0.6704 -0.2594
  587MOL0     C79164   6.071   4.625   5.561 -0.2293  0.6552 -0.4588
  587MOL0     C79165   5.953   4.632   5.633  0.2325  0.3416 -0.3406
  587MOL0     C79166   5.859   4.529   5.628 -0.6222  0.8258  0.2416
  587MOL0     C79167   5.871   4.419   5.545 -0.4355 -0.5048  0.2119
  587MOL0     O79168   5.776   4.317   5.554 -0.3115  0.0322 -0.6059
  587MOL0     C79169   5.816   4.189   5.511  0.7545  0.1862 -0.2730
  587MOL0     C79170   5.769   4.173   5.365 -0.5907 -0.8368  0.2935
  587MOL0     C79171   5.811   4.035   5.312  0.0942 -0.9332 -0.2518
  587MOL0     C79172   5.762   3.915   5.393 -0.2012 -0.6393  0.3274
  587MOL0     C79173   5.836   3.797   5.348  0.4286  0.2868  0.2868
  587MOL0     C79174   5.882   3.706   5.298 -0.3529 -0.4989  0.0884
  587MOL0     C79175   5.988   4.415   5.467  0.5524  1.1159 -0.0124
  587MOL0     C79176   6.084   4.513   5.468 -1.0183 -0.0724 -0.5155
  587MOL0     C79177   6.213   4.504   5.377  0.4418  0.2476 -0.5803
  587MOL0     H79178   6.280   4.967   5.506  1.2001  1.0883  0.1576
  587MOL0     H79179   6.350   5.195   5.547  1.9505  0.9103  0.3324
  587MOL0     H79180   6.527   5.285   5.734  2.4947  0.9890 -2.7776
  587MOL0     H79181   6.440   5.364   5.604 -2.6075 -3.6864  0.4507
  587MOL0     H79182   6.600   5.508   5.735 -0.2868 -0.4497 -0.6988
  587MOL0     H79183   6.492   5.494   5.873 -0.8831 -1.4433  0.4416
  587MOL0     H79184   6.303   5.597   5.746  0.0757  1.8614  1.3478
  587MOL0     H79185   6.401   5.615   5.596  1.7668  0.1594 -0.3255
  587MOL0     H79186   6.447   5.742   5.866 -0.4406 -1.7640 -0.5954
  587MOL0     H79187   6.563   5.754   5.739  1.5115 -5.1043  0.8679
  587MOL0     H79188   6.389   5.890   5.603  1.4386 -0.2524 -0.2537
  587MOL0     H79189   6.293   5.899   5.759  0.6566  1.7313  1.2826
  587MOL0     H79190   6.491   5.998   5.881  1.0630 -2.4810  0.3415
  587MOL0     H79191   6.587   5.987   5.737 -1.8807 -0.4405 -2.5236
  587MOL0     H79192   6.329   6.115   5.681 -0.6620 -2.0289  1.3205
  587MOL0     H79193   6.487   6.178   5.630  1.1315  0.7242  1.1368
  587MOL0     H79194   6.541   6.268   5.844  0.5798 -2.8708  1.1224
  587MOL0     H79195   6.413   6.354   5.762  1.0725  1.3846  1.4919
  587MOL0     H79196   6.156   6.330   5.913  1.1200  0.9899  0.5103
  587MOL0     H79197   6.101   6.415   6.149 -1.8345  0.6880 -1.1561
  587MOL0     H79198   6.027   6.256   6.132  1.8456 -0.9103  1.3294
  587MOL0     H79199   6.041   6.328   6.374 -0.1906  0.8907  1.5323
  587MOL0     H79200   6.149   6.195   6.352 -1.8641 -0.5268 -1.2014
  587MOL0     H79201   6.329   6.393   6.325 -0.4215  0.9209 -0.7801
  587MOL0     H79202   6.260   6.370   6.485  1.1460  1.4435  0.6614
  587MOL0     H79203   6.136   6.571   6.305 -0.0774  0.8502  0.5167
  587MOL0     H79204   6.272   6.617   6.397 -0.0045 -0.9678  1.6611
  587MOL0     H79205   6.053   6.416   6.728 -0.7575  1.4168  0.2617
  587MOL0     H79206   6.214   6.407   6.927  0.8922  0.8782 -0.4481
  587MOL0     H79207   6.559   6.907   7.167 -0.5504 -0.4236  1.6533
  587MOL0     H79208   6.759   6.933   7.272  0.0766 -1.2905  2.7297
  587MOL0     H79209   6.984   6.919   7.340  0.2791 -1.7287 -0.9994
  587MOL0     H79210   6.876   6.826   7.445 -1.5287  0.9687 -0.5473
  587MOL0     H79211   7.163   6.758   7.430 -0.0533  2.6306 -0.9057
  587MOL0     H79212   7.115   6.878   7.531 -1.5871  1.2958 -2.5818
  587MOL0     H79213   6.925   6.671   7.595  0.8743 -2.0280 -1.0350
  587MOL0     H79214   7.092   6.606   7.602 -1.0856 -0.6701  0.7103
  587MOL0     H79215   7.039   6.887   7.733  0.2400  0.7657  0.8219
  587MOL0     H79216   7.149   6.765   7.782 -0.3130 -0.4543  0.8280
  587MOL0     H79217   6.849   6.724   7.818  0.8544 -1.2889 -2.1684
  587MOL0     H79218   6.957   6.831   7.925  0.2072  1.1515 -1.5053
  587MOL0     H79219   7.096   6.629   7.968 -0.5414  1.1450 -0.4698
  587MOL0     H79220   6.936   6.605   8.019 -0.7249 -3.1112 -0.7286
  587MOL0     H79221   6.936   6.484   7.757  0.9710 -2.9692 -0.1131
  587MOL0     H79222   6.879   6.425   7.916  0.2628 -1.1028 -1.7763
  587MOL0     H79223   7.062   6.284   7.837 -0.0886  0.3720 -1.5843
  587MOL0     H79224   7.151   6.426   7.787 -0.8321 -0.0630 -0.3942
  587MOL0     H79225   6.905   6.567   7.096  2.0539  2.1922 -1.9029
  587MOL0     H79226   6.688   6.535   6.995 -0.0206 -1.0987  2.3143
  587MOL0     H79227   6.422   6.738   6.778  1.4245 -1.0291  0.2835
  587MOL0     H79228   6.254   6.747   6.578 -0.9549  1.3100  0.5053
  587MOL0     H79229   6.232   5.168   5.959  1.5874 -1.2448  0.3893
  587MOL0     H79230   6.149   4.946   5.922 -0.7952  1.2062 -0.7607
  587MOL0     H79231   5.919   4.709   5.701 -0.0444 -0.0010 -0.0892
  587MOL0     H79232   5.778   4.553   5.696  1.3754  2.6742  2.1518
  587MOL0     H79233   5.770   4.110   5.572  2.9558  0.4049  1.8307
  587MOL0     H79234   5.922   4.165   5.523  0.1696 -3.0907 -0.6874
  587MOL0     H79235   5.808   4.254   5.303  0.3617  0.9410  3.0220
  587MOL0     H79236   5.662   4.167   5.347 -0.2294 -1.8408 -1.8372
  587MOL0     H79237   5.920   4.026   5.313  0.3706  1.5300 -0.6409
  587MOL0     H79238   5.774   4.027   5.210  1.3140  0.9699 -0.9115
  587MOL0     H79239   5.758   3.928   5.501 -0.4219  0.9810  0.1441
  587MOL0     H79240   5.655   3.902   5.374  0.1406 -0.3789 -2.0539
  587MOL0     H79241   5.924   3.627   5.239  0.0433  1.1881 -2.0290
  587MOL0     H79242   6.011   4.328   5.406 -3.4605  0.3797 -0.7845
  587MOL0     H79243   6.299   4.452   5.420  0.6151  0.3516 -0.7926
  587MOL0     H79244   6.171   4.454   5.289 -0.8444 -0.1308  0.2192
  587MOL0     H79245   6.251   4.601   5.345  0.0812  0.4082 -0.5302
  588MOL0     O79246   9.219   3.374  10.240 -0.5921 -0.4523  0.3227
  588MOL0     C79247   9.207   3.487  10.193 -0.0077 -0.1222  0.5535
  588MOL0     O79248   9.227   3.524  10.062  0.0135  0.3486 -1.1341
  588MOL0     C79249   9.305   3.455   9.977  0.2137  1.2361  0.5813
  588MOL0     C79250   9.427   3.382  10.004 -0.1962 -0.7131 -0.1770
  588MOL0     C79251   9.491   3.319   9.901 -0.6841  0.5336 -0.4372
  588MOL0     C79252   9.446   3.322   9.769  0.0583 -0.3051 -0.1335
  588MOL0     O79253   9.505   3.263   9.659 -0.4511  0.2472  0.6079
  588MOL0     C79254   9.466   3.120   9.661 -0.1286 -0.2927  0.5556
  588MOL0     C79255   9.364   3.082   9.548  0.3369 -0.0442 -0.0631
  588MOL0     C79256   9.432   3.070   9.412 -0.1392  0.5207 -0.2137
  588MOL0     C79257   9.510   2.945   9.382 -0.1088  0.8194 -0.1333
  588MOL0     C79258   9.423   2.818   9.360  0.8740 -0.3493 -0.1846
  588MOL0     C79259   9.488   2.693   9.304  0.2029  0.2006 -0.5624
  588MOL0     C79260   9.617   2.661   9.382 -0.5920  0.0262 -0.0433
  588MOL0     C79261   9.700   2.560   9.306 -0.7434  0.1388 -0.0910
  588MOL0     N79262   9.844   2.604   9.272  0.0461  0.1440  0.2521
  588MOL0     C79263   9.962   2.559   9.320  0.0851  0.3776 -0.5340
  588MOL0     C79264  10.055   2.630   9.254  0.7627  0.6554 -0.8997
  588MOL0     C79265  10.200   2.635   9.277 -0.1105 -0.0424  0.5227
  588MOL0     C79266  10.270   2.516   9.359  0.6480 -1.6083 -0.3397
  588MOL0     C79267  10.269   2.377   9.297 -0.3012 -0.4236  0.3256
  588MOL0     C79268  10.244   2.259   9.399 -0.2282 -0.8141  0.2903
  588MOL0     O79269  10.132   2.294   9.477 -0.8347 -0.2031 -0.4710
  588MOL0     C79270  10.076   2.195   9.558 -0.4428 -1.1007 -0.3231
  588MOL0     C79271   9.967   2.231   9.639 -0.7916 -0.5913  0.5450
  588MOL0     C79272   9.900   2.140   9.721 -0.0181  0.3368  0.4882
  588MOL0     C79273   9.930   2.003   9.706 -0.3986  0.2960 -0.8726
  588MOL0     C79274   9.844   1.902   9.777  1.5107  0.4194  0.3267
  588MOL0     O79275   9.858   1.777   9.719  0.4332  0.1522  0.3254
  588MOL0     C79276   9.850   1.671   9.806 -0.1275  0.1822  0.1774
  588MOL0     C79277   9.734   1.648   9.870  0.5989  0.2745  0.1541
  588MOL0     C79278   9.733   1.544   9.966 -0.2461 -0.4424 -0.1977
  588MOL0     C79279   9.849   1.474   9.998 -0.5251  0.5386 -0.4238
  588MOL0     O79280   9.822   1.388  10.101 -0.3551 -0.6965 -0.3049
  588MOL0     C79281   9.920   1.336  10.187 -0.1467 -0.4065 -0.4408
  588MOL0     C79282   9.848   1.311  10.325  0.2298  0.5302  0.6801
  588MOL0     C79283   9.831   1.440  10.403  0.2807  0.4732 -0.5109
  588MOL0     C79284   9.769   1.385  10.548 -0.7434  0.1176  0.2730
  588MOL0     C79285   9.808   1.484  10.659 -0.9920  0.9309 -0.4525
  588MOL0     C79286   9.769   1.443  10.806 -0.9537  0.6304  0.1958
  588MOL0     C79287   9.799   1.541  10.918  0.0264  0.3429 -0.4704
  588MOL0     C79288   9.685   1.530  11.024 -0.6508  0.2869  0.3002
  588MOL0    Cl79289   9.745   1.608  11.167 -0.3729  0.1878 -0.6421
  588MOL0     C79290   9.966   1.488   9.936 -0.8099 -0.1389 -0.0834
  588MOL0     C79291   9.970   1.587   9.834 -0.0921  0.2225  0.8832
  588MOL0     O79292   9.787   1.932   9.882  0.3419 -0.1965 -0.2501
  588MOL0     C79293  10.045   1.967   9.620 -0.4075  0.7683 -1.5046
  588MOL0     C79294  10.126   2.066   9.563 -0.1226 -0.1937  0.0329
  588MOL0     N79295   9.987   2.719   9.176  0.0755  0.3399 -0.2310
  588MOL0     N79296   9.869   2.692   9.183  0.8306 -0.0149  0.2204
  588MOL0     C79297   9.326   3.390   9.748 -0.4915  0.5278 -0.5210
  588MOL0     C79298   9.255   3.450   9.856 -0.2649 -0.0465  0.0916
  588MOL0     C79299   9.120   3.577  10.270 -0.0221  0.3613  0.0029
  588MOL0     C79300   9.189   3.662  10.355 -0.1590 -0.9318  0.1352
  588MOL0     C79301   9.114   3.768  10.402  0.1326 -0.4602 -1.1849
  588MOL0     C79302   8.979   3.785  10.362 -0.0250 -0.5904  0.7269
  588MOL0     O79303   8.916   3.901  10.418 -0.1107 -0.1643  0.0958
  588MOL0     C79304   8.866   4.000  10.332  0.3548  0.4937  0.0088
  588MOL0     C79305   8.724   4.005  10.369  0.3686  0.3824 -0.0631
  588MOL0     C79306   8.631   4.089  10.282 -0.5523  0.3109  1.2710
  588MOL0     C79307   8.659   4.249  10.285  0.3214  0.8106 -0.2379
  588MOL0     C79308   8.546   4.323  10.343  0.7417  0.0079  0.8545
  588MOL0     C79309   8.456   4.392  10.380 -0.7996 -0.4750  0.0410
  588MOL0     C79310   8.911   3.698  10.285 -0.2892 -0.0506  0.3953
  588MOL0     C79311   8.983   3.588  10.230 -0.4567 -0.6857 -0.8951
  588MOL0     C79312   8.924   3.508  10.121  0.1600 -0.3240 -0.1339
  588MOL0     H79313   9.477   3.367  10.098  0.5657 -0.1766 -0.4890
  588MOL0     H79314   9.590   3.280   9.926 -1.3844  0.3287  2.3842
  588MOL0     H79315   9.556   3.064   9.635 -0.4752 -0.1199 -1.1777
  588MOL0     H79316   9.426   3.090   9.758 -3.2896  0.6074 -0.3693
  588MOL0     H79317   9.292   3.165   9.546  1.9013  1.5220  2.3596
  588MOL0     H79318   9.324   2.985   9.577  1.5103  0.5421  4.1934
  588MOL0     H79319   9.506   3.149   9.396 -0.6217  0.3551 -4.8902
  588MOL0     H79320   9.359   3.091   9.333 -1.6649  1.3863  1.3719
  588MOL0     H79321   9.575   2.959   9.294  1.9592 -0.7442  1.0398
  588MOL0     H79322   9.569   2.912   9.468 -0.3156  1.6031  0.3065
  588MOL0     H79323   9.384   2.796   9.459  3.3527 -1.3124  0.6642
  588MOL0     H79324   9.334   2.846   9.302 -0.8921  0.5807  2.7801
  588MOL0     H79325   9.402   2.629   9.321 -0.6474  1.2406 -0.8541
  588MOL0     H79326   9.504   2.712   9.197  2.6334 -1.1304 -0.5144
  588MOL0     H79327   9.581   2.623   9.478  1.0938 -1.7909 -0.0715
  588MOL0     H79328   9.691   2.741   9.394  3.4714 -3.4329  0.2153
  588MOL0     H79329   9.698   2.465   9.359 -1.1913  0.5066  0.5616
  588MOL0     H79330   9.649   2.534   9.213 -3.1826  1.2908  0.8391
  588MOL0     H79331   9.974   2.488   9.400  0.2796  0.3475 -0.5896
  588MOL0     H79332  10.247   2.634   9.179 -0.1944 -0.6487  0.4905
  588MOL0     H79333  10.243   2.725   9.324  4.5950 -1.8875  0.3237
  588MOL0     H79334  10.378   2.534   9.371  0.2519  0.6644  0.1639
  588MOL0     H79335  10.222   2.526   9.456  0.7060  1.9428 -0.5465
  588MOL0     H79336  10.363   2.371   9.241  1.5411  2.9971  2.6090
  588MOL0     H79337  10.172   2.384   9.247 -1.3670 -0.3285  2.3129
  588MOL0     H79338  10.337   2.254   9.456 -0.7277  1.5722  1.4487
  588MOL0     H79339  10.241   2.166   9.341  1.9800 -0.1541 -0.9970
  588MOL0     H79340   9.938   2.336   9.644 -1.6888 -0.7377 -1.0231
  588MOL0     H79341   9.813   2.169   9.780 -0.0340  1.0746  0.1244
  588MOL0     H79342   9.642   1.703   9.853  0.5152 -0.2470 -1.1592
  588MOL0     H79343   9.647   1.523  10.029 -0.2234 -1.8526 -0.6091
  588MOL0     H79344   9.965   1.240  10.162 -3.9102 -3.2524  2.4196
  588MOL0     H79345   9.991   1.419  10.198 -4.7718  3.7931  1.8641
  588MOL0     H79346   9.752   1.259  10.316 -0.3706  1.0621  3.2740
  588MOL0     H79347   9.913   1.241  10.378 -2.0947 -2.7795 -0.4479
  588MOL0     H79348   9.924   1.496  10.418 -0.8170  2.2906 -0.1201
  588MOL0     H79349   9.756   1.495  10.345  0.9050  0.5551 -1.2577
  588MOL0     H79350   9.795   1.281  10.571 -2.1047 -0.7865 -1.9800
  588MOL0     H79351   9.661   1.377  10.531 -0.5831 -0.7238 -0.4506
  588MOL0     H79352   9.762   1.579  10.629 -0.2443  1.8328  1.1236
  588MOL0     H79353   9.917   1.493  10.653 -0.7658 -0.9397  0.3985
  588MOL0     H79354   9.666   1.406  10.814 -0.8120  0.7214  3.7788
  588MOL0     H79355   9.830   1.355  10.827 -0.8959  0.2506 -1.3965
  588MOL0     H79356   9.808   1.640  10.871  6.0019 -0.1210 -1.0019
  588MOL0     H79357   9.898   1.526  10.962  0.4538  0.2627 -1.4320
  588MOL0     H79358   9.595   1.575  10.980 -0.7882 -2.1716 -2.2363
  588MOL0     H79359   9.668   1.424  11.042  0.5971  0.0858  0.3752
  588MOL0     H79360  10.051   1.427   9.965 -0.0619  0.8889 -0.0386
  588MOL0     H79361  10.065   1.618   9.792  1.5564 -3.5190  1.4356
  588MOL0     H79362  10.091   1.870   9.607 -0.2408  1.0255 -3.0389
  588MOL0     H79363  10.200   2.016   9.502 -3.5423 -1.6345 -3.3552
  588MOL0     H79364   9.283   3.392   9.648  3.3065 -0.6123 -2.3654
  588MOL0     H79365   9.161   3.505   9.855  1.5540  3.3341 -0.6872
  588MOL0     H79366   9.296   3.648  10.370  0.7071  3.4584 -0.5832
  588MOL0     H79367   9.158   3.847  10.461 -2.2265 -0.6540  0.9913
  588MOL0     H79368   8.885   3.973  10.228  0.9563  2.1227 -0.3387
  588MOL0     H79369   8.924   4.089  10.358 -1.3693  1.4765  0.6627
  588MOL0     H79370   8.717   4.048  10.470  3.0485  2.9965 -0.8640
  588MOL0     H79371   8.685   3.903  10.372  0.8363  0.2016 -0.0522
  588MOL0     H79372   8.529   4.057  10.306 -1.4726 -0.0296 -2.4138
  588MOL0     H79373   8.653   4.054  10.181 -0.9201 -0.7716  1.5427
  588MOL0     H79374   8.752   4.274  10.338 -0.7142  4.1911  0.1805
  588MOL0     H79375   8.674   4.294  10.187 -2.3432  0.2975 -0.9409
  588MOL0     H79376   8.369   4.454  10.390 -0.4640  0.6285 -3.0137
  588MOL0     H79377   8.805   3.717  10.266  0.3410  0.1906 -3.7705
  588MOL0     H79378   8.936   3.400  10.134 -2.9012 -0.4226  3.7159
  588MOL0     H79379   8.817   3.528  10.111  0.5639  1.2962 -1.6053
  588MOL0     H79380   8.971   3.545  10.030  1.7564 -1.6357  0.0878
  589MOL0     O79381   1.328   2.376   4.839 -0.8971  0.8541 -0.5826
  589MOL0     C79382   1.325   2.500   4.849  0.1173  0.3446 -0.6085
  589MOL0     O79383   1.417   2.581   4.789 -0.8714  0.8529  0.7531
  589MOL0     C79384   1.531   2.522   4.731  0.2217  0.1694  0.9282
  589MOL0     C79385   1.630   2.445   4.798  0.7270  0.4724  0.1366
  589MOL0     C79386   1.747   2.396   4.727 -0.3435 -1.2892 -0.6515
  589MOL0     C79387   1.764   2.448   4.604 -1.1662 -0.0333  1.1720
  589MOL0     O79388   1.884   2.406   4.554  0.8543 -0.3291  0.5227
  589MOL0     C79389   1.859   2.331   4.436 -1.0716  0.5167  0.7707
  589MOL0     C79390   1.991   2.272   4.385 -0.7411 -0.3193  0.0490
  589MOL0     C79391   2.074   2.190   4.477  1.0062  0.0737 -0.5637
  589MOL0     C79392   2.166   2.280   4.560  0.8202  0.0968  0.9929
  589MOL0     C79393   2.217   2.225   4.695  0.4981  0.0554  0.2588
  589MOL0     C79394   2.331   2.294   4.766 -0.3012 -0.4856  0.9573
  589MOL0     C79395   2.369   2.227   4.892 -0.3328  0.5097  0.4846
  589MOL0     C79396   2.465   2.107   4.880  0.8204  0.3834  0.1571
  589MOL0     N79397   2.479   2.052   5.017  1.2301  0.2974  0.0024
  589MOL0     C79398   2.584   2.100   5.100 -0.4297 -0.1933 -0.3519
  589MOL0     C79399   2.584   2.012   5.204  0.3754  0.5971 -0.1152
  589MOL0     C79400   2.672   2.020   5.321 -0.4040 -0.0266 -0.1445
  589MOL0     C79401   2.789   1.911   5.322 -0.6536 -0.0998  0.4961
  589MOL0     C79402   2.876   1.935   5.446  0.4926  0.1446  0.2822
  589MOL0     C79403   3.009   1.856   5.451 -0.5437  0.5828 -0.5086
  589MOL0     O79404   2.980   1.724   5.427  0.2804 -0.8343 -0.2682
  589MOL0     C79405   3.079   1.628   5.426  0.4449  0.0441  0.1920
  589MOL0     C79406   3.203   1.659   5.477  0.3819 -0.2392 -0.0014
  589MOL0     C79407   3.297   1.564   5.472 -0.4537  0.5548 -0.1377
  589MOL0     C79408   3.273   1.428   5.444  1.2965 -0.6931  0.5377
  589MOL0     C79409   3.386   1.334   5.467  0.6235  0.3426  0.2009
  589MOL0     O79410   3.512   1.374   5.470 -0.8347  0.1598  0.3493
  589MOL0     C79411   3.612   1.279   5.505  0.3075 -0.7356 -0.0038
  589MOL0     C79412   3.681   1.206   5.401 -0.0451  0.9421  0.3397
  589MOL0     C79413   3.788   1.123   5.446  0.1709 -0.5719 -0.9930
  589MOL0     C79414   3.819   1.116   5.579 -0.8551  0.0860  0.4860
  589MOL0     O79415   3.907   1.020   5.630 -0.2670  0.5631 -0.6044
  589MOL0     C79416   4.012   0.992   5.539 -0.4074 -0.3818  0.3923
  589MOL0     C79417   4.124   0.918   5.621  0.3430  0.2000  0.2535
  589MOL0     C79418   4.253   0.924   5.543 -0.0346 -0.3605 -0.9751
  589MOL0     C79419   4.261   0.846   5.405 -0.3867  0.2361 -1.0456
  589MOL0     C79420   4.398   0.859   5.340 -1.0990 -1.0458  0.9688
  589MOL0     C79421   4.534   0.849   5.427  0.8293 -0.4094 -0.3791
  589MOL0     C79422   4.529   0.736   5.536 -0.2826 -0.1800 -0.3016
  589MOL0     C79423   4.592   0.780   5.666 -0.0116  0.8080 -0.5685
  589MOL0    Cl79424   4.760   0.797   5.619 -0.0716 -0.0589 -0.2947
  589MOL0     C79425   3.736   1.175   5.669 -0.5778  1.0482  0.0449
  589MOL0     C79426   3.641   1.266   5.639  0.6308 -0.7168 -0.2071
  589MOL0     O79427   3.340   1.223   5.493 -0.3874  0.8333  0.0574
  589MOL0     C79428   3.147   1.399   5.397  0.2122 -0.3477  0.0958
  589MOL0     C79429   3.051   1.493   5.387 -0.8232  0.0964  0.5870
  589MOL0     N79430   2.481   1.918   5.178 -0.5405  0.0683  0.4206
  589MOL0     N79431   2.414   1.944   5.074 -0.4886  1.2514  0.3955
  589MOL0     C79432   1.679   2.532   4.540  0.4932  0.5226  0.6199
  589MOL0     C79433   1.555   2.572   4.599 -0.9314  1.1179 -0.2961
  589MOL0     C79434   1.205   2.546   4.926 -0.3853 -0.4102 -0.0079
  589MOL0     C79435   1.181   2.476   5.050  0.2818 -0.5762  0.0171
  589MOL0     C79436   1.080   2.526   5.133 -0.2111  0.1120 -0.2862
  589MOL0     C79437   1.014   2.644   5.100 -0.3790 -0.3853  0.2396
  589MOL0     O79438   0.925   2.688   5.199 -0.1788  0.2679 -0.0990
  589MOL0     C79439   0.816   2.773   5.174 -0.1234 -0.6500 -0.0582
  589MOL0     C79440   0.712   2.707   5.077 -0.1577  0.4191 -0.4614
  589MOL0     C79441   0.609   2.805   5.023  0.0980  0.5618  0.6814
  589MOL0     C79442   0.655   2.891   4.910  1.2352 -0.2695  0.3003
  589MOL0     C79443   0.700   2.808   4.793 -0.6154  0.4791  0.8091
  589MOL0     C79444   0.723   2.757   4.690  0.0905  0.5986 -0.4215
  589MOL0     C79445   1.036   2.707   4.965  1.1105  0.8391 -0.8702
  589MOL0     C79446   1.135   2.655   4.881 -0.2906 -0.9800 -0.2815
  589MOL0     C79447   1.166   2.720   4.752 -0.5689 -0.2835 -0.0876
  589MOL0     H79448   1.611   2.413   4.900 -0.1920  0.2325 -0.0954
  589MOL0     H79449   1.825   2.335   4.772  2.3394  1.1550 -1.6368
  589MOL0     H79450   1.793   2.247   4.461 -1.0789  0.2898  0.0226
  589MOL0     H79451   1.822   2.387   4.350  2.4076  1.2102 -0.4273
  589MOL0     H79452   2.056   2.346   4.338 -1.3604 -0.5523 -1.2128
  589MOL0     H79453   1.975   2.195   4.310  1.0604 -1.0961  0.4061
  589MOL0     H79454   2.138   2.124   4.418  0.9854  0.7933 -1.3978
  589MOL0     H79455   2.012   2.129   4.545  4.1797 -3.0076 -0.1386
  589MOL0     H79456   2.243   2.300   4.484 -0.0979  1.2134  0.3220
  589MOL0     H79457   2.124   2.378   4.586 -0.0978  0.5036 -1.6941
  589MOL0     H79458   2.136   2.228   4.768  1.6847 -0.5400  1.6518
  589MOL0     H79459   2.251   2.122   4.680 -2.3068 -1.0271  0.7056
  589MOL0     H79460   2.419   2.298   4.702 -2.4523  3.3168 -2.2062
  589MOL0     H79461   2.294   2.396   4.782 -3.8328 -1.6720  1.4182
  589MOL0     H79462   2.279   2.190   4.943  0.1497  0.5135  1.3621
  589MOL0     H79463   2.411   2.301   4.961 -2.0976  0.6131  1.5101
  589MOL0     H79464   2.422   2.023   4.825 -2.6168  0.6366  2.1950
  589MOL0     H79465   2.564   2.124   4.835  0.9662 -1.3576 -0.2556
  589MOL0     H79466   2.660   2.174   5.079 -0.0926  0.3264  2.3608
  589MOL0     H79467   2.721   2.118   5.325 -1.4445  0.5318 -0.6346
  589MOL0     H79468   2.623   2.011   5.418  2.8934  0.7023  1.7493
  589MOL0     H79469   2.746   1.811   5.328 -0.8885 -0.0212  0.1441
  589MOL0     H79470   2.839   1.905   5.225 -4.9758 -0.2844 -1.9184
  589MOL0     H79471   2.807   1.917   5.529 -3.1878  1.1417 -2.3123
  589MOL0     H79472   2.897   2.042   5.445  0.6917  0.1149  0.9467
  589MOL0     H79473   3.055   1.870   5.549 -1.5810 -2.0957  0.4633
  589MOL0     H79474   3.082   1.885   5.375  1.3709 -1.8415  0.2736
  589MOL0     H79475   3.228   1.761   5.505  2.9578 -1.5759  3.2568
  589MOL0     H79476   3.396   1.589   5.506 -0.0334 -0.9146 -0.2345
  589MOL0     H79477   3.658   1.230   5.298 -0.2653  0.7184  0.3350
  589MOL0     H79478   3.839   1.071   5.366  2.1101  0.9665 -0.8158
  589MOL0     H79479   3.971   0.942   5.451 -2.5927  3.1287 -0.8166
  589MOL0     H79480   4.050   1.088   5.501 -0.6511  0.1867  1.5101
  589MOL0     H79481   4.143   0.965   5.718  0.6939 -0.6862  0.6265
  589MOL0     H79482   4.077   0.820   5.629 -2.1098  1.3262  0.6383
  589MOL0     H79483   4.278   1.029   5.526  2.5229 -0.6622  0.3414
  589MOL0     H79484   4.336   0.898   5.610  0.3957 -1.5499 -1.9341
  589MOL0     H79485   4.180   0.877   5.338 -0.4822  0.7690 -0.6891
  589MOL0     H79486   4.240   0.741   5.425 -1.2012  0.2639 -1.7082
  589MOL0     H79487   4.416   0.949   5.280  2.9595 -1.2042  1.6346
  589MOL0     H79488   4.398   0.773   5.273  0.1151 -0.2663 -0.0912
  589MOL0     H79489   4.618   0.832   5.359  0.7625  1.0709 -0.8640
  589MOL0     H79490   4.544   0.954   5.456  2.1391 -0.3745 -0.8557
  589MOL0     H79491   4.589   0.654   5.495 -1.1878 -0.9299 -0.1469
  589MOL0     H79492   4.424   0.712   5.547 -1.3126  1.5543 -4.3336
  589MOL0     H79493   4.563   0.879   5.704  3.4665  1.5090  0.6287
  589MOL0     H79494   4.586   0.687   5.723  1.0747 -1.1415 -3.4483
  589MOL0     H79495   3.753   1.164   5.776  2.1939 -0.6143 -0.4820
  589MOL0     H79496   3.594   1.315   5.724  6.8731 -0.6050  3.8738
  589MOL0     H79497   3.128   1.296   5.367  3.5318 -2.3676  3.8683
  589MOL0     H79498   2.955   1.453   5.358  0.4680 -5.3389  2.5625
  589MOL0     H79499   1.698   2.567   4.439 -0.5542 -4.4150 -1.6109
  589MOL0     H79500   1.482   2.631   4.544 -0.1631  1.7241 -0.6779
  589MOL0     H79501   1.235   2.384   5.071  1.2483  0.4228  2.2595
  589MOL0     H79502   1.080   2.486   5.234 -0.7071  0.3424 -0.1912
  589MOL0     H79503   0.857   2.860   5.123 -1.2865 -0.8182 -1.3325
  589MOL0     H79504   0.779   2.811   5.270 -1.3741  0.5822 -0.9916
  589MOL0     H79505   0.656   2.633   5.134 -3.0756  1.6212 -1.5542
  589MOL0     H79506   0.769   2.649   5.004  1.5896 -0.2873  1.3574
  589MOL0     H79507   0.586   2.880   5.100  1.3319  2.3175 -0.5972
  589MOL0     H79508   0.525   2.741   4.993  1.3841 -1.0980  0.4503
  589MOL0     H79509   0.582   2.966   4.879  2.1856 -0.6029 -3.1520
  589MOL0     H79510   0.738   2.955   4.941  0.0241 -0.1327  3.6900
  589MOL0     H79511   0.765   2.725   4.597  0.8558 -1.0332  0.4270
  589MOL0     H79512   0.982   2.795   4.931 -0.7008  0.4168  0.7493
  589MOL0     H79513   1.090   2.798   4.741  0.5820  0.8820  0.0180
  589MOL0     H79514   1.256   2.781   4.750 -0.3256 -0.6420 -1.1053
  589MOL0     H79515   1.176   2.653   4.666 -0.5113  1.0038 -1.1144
  590MOL0     O79516   3.867   3.846   6.895  0.1166 -0.1083 -0.5690
  590MOL0     C79517   3.755   3.814   6.855  0.2366  0.1749  0.0469
  590MOL0     O79518   3.702   3.859   6.740 -0.1500 -0.6737 -0.5380
  590MOL0     C79519   3.777   3.919   6.644  0.6069 -0.9001  0.2676
  590MOL0     C79520   3.877   3.864   6.569  0.5059  0.6021  0.0847
  590MOL0     C79521   3.940   3.934   6.461  0.2091 -0.1833  0.1865
  590MOL0     C79522   3.898   4.061   6.433  0.3835  0.1950  0.7286
  590MOL0     O79523   3.972   4.119   6.339 -0.4681 -0.0151  0.3425
  590MOL0     C79524   3.961   4.262   6.324  0.0312 -0.9596  0.0213
  590MOL0     C79525   4.084   4.322   6.261  0.6690 -0.6509 -0.2756
  590MOL0     C79526   4.211   4.294   6.334  0.1335  0.5707 -0.0133
  590MOL0     C79527   4.326   4.310   6.236 -1.0150  0.2033 -0.7356
  590MOL0     C79528   4.427   4.198   6.267 -0.1506  0.1642 -0.4291
  590MOL0     C79529   4.574   4.237   6.245 -0.8371 -0.4523 -0.2392
  590MOL0     C79530   4.598   4.266   6.102 -0.2896 -0.1600 -0.7230
  590MOL0     C79531   4.742   4.273   6.063 -0.2227 -0.6698  0.7327
  590MOL0     N79532   4.762   4.260   5.919  0.0525 -0.0003  0.0531
  590MOL0     C79533   4.872   4.195   5.871  0.5206  0.0545 -0.1053
  590MOL0     C79534   4.853   4.191   5.741 -0.1847 -0.4525 -0.0074
  590MOL0     C79535   4.953   4.114   5.660  0.2218  0.6249  0.1786
  590MOL0     C79536   4.898   4.053   5.531  0.4136  0.0330  0.9803
  590MOL0     C79537   4.814   3.933   5.575  0.4625 -0.2270  0.0842
  590MOL0     C79538   4.728   3.871   5.465  0.4679  0.2370 -0.9732
  590MOL0     O79539   4.709   3.727   5.490 -0.4858  0.1292  0.0740
  590MOL0     C79540   4.606   3.673   5.552  0.4550  0.8940 -0.4157
  590MOL0     C79541   4.574   3.534   5.541 -0.1904 -0.8309  0.5725
  590MOL0     C79542   4.458   3.478   5.603 -0.5301 -1.1939  0.8274
  590MOL0     C79543   4.383   3.562   5.692  0.3440  0.1503  0.5187
  590MOL0     C79544   4.262   3.508   5.763 -0.6963  0.2879  1.0172
  590MOL0     O79545   4.239   3.374   5.738 -0.6342 -0.6754 -0.0071
  590MOL0     C79546   4.135   3.308   5.788 -0.3181 -0.5510 -0.6876
  590MOL0     C79547   4.003   3.363   5.804 -0.5418  0.4680  1.0268
  590MOL0     C79548   3.900   3.275   5.840  0.0787  0.2729  0.5968
  590MOL0     C79549   3.922   3.140   5.860  0.7057 -0.5999  0.2672
  590MOL0     O79550   3.817   3.054   5.890  0.5730  0.2664  0.0031
  590MOL0     C79551   3.756   3.080   6.020 -0.4162 -0.1780 -0.6049
  590MOL0     C79552   3.749   2.963   6.121 -0.6330 -0.4019 -0.9786
  590MOL0     C79553   3.679   2.836   6.062 -0.8040  0.0155  1.1871
  590MOL0     C79554   3.596   2.758   6.163  0.3686  0.4264 -0.1007
  590MOL0     C79555   3.686   2.675   6.255  0.5237 -0.8422 -0.0465
  590MOL0     C79556   3.737   2.542   6.206 -0.8942 -0.0090  0.9832
  590MOL0     C79557   3.810   2.482   6.330  0.3795  0.0918  0.3635
  590MOL0     C79558   3.885   2.354   6.286 -0.2085 -0.3120  0.3208
  590MOL0    Cl79559   4.032   2.386   6.182  0.4072  0.2584 -0.0353
  590MOL0     C79560   4.047   3.093   5.848 -0.4572 -0.6469 -1.5038
  590MOL0     C79561   4.153   3.170   5.809  0.0417  0.1204  0.3996
  590MOL0     O79562   4.201   3.580   5.839 -0.9965 -0.2234 -0.2989
  590MOL0     C79563   4.422   3.699   5.710 -0.3267  1.4115 -0.6438
  590MOL0     C79564   4.525   3.752   5.636 -0.5299 -0.4904 -0.1848
  590MOL0     N79565   4.736   4.264   5.709 -0.1663  0.2468  0.5641
  590MOL0     N79566   4.680   4.316   5.815 -0.5810  0.8748  0.2565
  590MOL0     C79567   3.793   4.127   6.504  0.5355  0.0098 -0.2027
  590MOL0     C79568   3.734   4.052   6.608  1.2275 -0.5624  0.0023
  590MOL0     C79569   3.656   3.735   6.918 -0.9210  0.4325  0.3314
  590MOL0     C79570   3.581   3.644   6.836 -0.0433  0.9341  0.7552
  590MOL0     C79571   3.490   3.549   6.893 -0.1314 -0.0445  0.1254
  590MOL0     C79572   3.464   3.562   7.039  0.6238 -0.9364 -1.1423
  590MOL0     O79573   3.365   3.480   7.087  0.0217 -0.4106  0.4449
  590MOL0     C79574   3.363   3.447   7.221 -0.1407  0.6888 -0.3568
  590MOL0     C79575   3.460   3.336   7.245 -0.4937  0.2573  0.1646
  590MOL0     C79576   3.422   3.210   7.167 -0.7751 -0.3432  0.5256
  590MOL0     C79577   3.505   3.091   7.231  0.5239 -0.7628  0.3034
  590MOL0     C79578   3.444   2.962   7.185  0.0917 -0.6580  1.0883
  590MOL0     C79579   3.404   2.849   7.142  0.0299 -0.0849  0.6986
  590MOL0     C79580   3.516   3.671   7.107  0.4995 -1.1992  0.2791
  590MOL0     C79581   3.613   3.758   7.050  0.4085  0.7632 -0.0571
  590MOL0     C79582   3.665   3.884   7.116  0.4799 -0.5521 -0.4300
  590MOL0     H79583   3.904   3.762   6.593  0.4827  0.7017  0.5367
  590MOL0     H79584   4.032   3.894   6.419  1.3201  0.1366  2.1484
  590MOL0     H79585   3.879   4.293   6.258  3.8441  2.9119 -3.5400
  590MOL0     H79586   3.931   4.319   6.413 -0.9062  1.1363 -1.5628
  590MOL0     H79587   4.083   4.428   6.234 -2.8099 -0.7713 -1.0957
  590MOL0     H79588   4.088   4.265   6.167 -1.4191 -2.5438  0.6802
  590MOL0     H79589   4.207   4.193   6.376 -3.4627  0.2871 -0.7410
  590MOL0     H79590   4.203   4.362   6.420 -4.9022  0.9584 -0.4794
  590MOL0     H79591   4.305   4.313   6.128 -0.2264  0.1293 -0.8939
  590MOL0     H79592   4.376   4.406   6.253  0.1916 -0.8618  2.2208
  590MOL0     H79593   4.429   4.173   6.374  0.4918 -2.7295 -1.0259
  590MOL0     H79594   4.392   4.119   6.200 -0.2860  1.2674 -1.6909
  590MOL0     H79595   4.606   4.318   6.311 -0.5716 -1.9543  1.5624
  590MOL0     H79596   4.626   4.146   6.278 -2.9846 -2.3209 -1.6951
  590MOL0     H79597   4.549   4.362   6.079 -0.6909  0.3817  2.0328
  590MOL0     H79598   4.542   4.189   6.049 -1.9049 -0.0729  0.7552
  590MOL0     H79599   4.802   4.359   6.093  0.5445  0.7286 -3.9444
  590MOL0     H79600   4.788   4.183   6.104  2.5783 -0.1095 -0.9168
  590MOL0     H79601   4.939   4.127   5.923  0.8250 -0.0724 -0.6516
  590MOL0     H79602   5.047   4.169   5.651  1.9280 -2.2855 -0.7706
  590MOL0     H79603   4.991   4.025   5.710 -2.4763 -0.2167  0.9233
  590MOL0     H79604   4.832   4.115   5.470  0.5028 -1.8111 -1.1230
  590MOL0     H79605   4.982   4.020   5.468  1.3087  1.8574  1.1439
  590MOL0     H79606   4.744   3.970   5.650  2.8567  1.6139  1.5683
  590MOL0     H79607   4.886   3.856   5.603  0.0622 -1.4226 -1.9766
  590MOL0     H79608   4.770   3.888   5.366 -0.2932  2.9991 -0.8951
  590MOL0     H79609   4.627   3.913   5.460  1.2181  2.0405 -1.6265
  590MOL0     H79610   4.638   3.476   5.476 -1.5166 -0.5868 -1.0106
  590MOL0     H79611   4.435   3.373   5.587 -1.9068 -0.6965 -0.7076
  590MOL0     H79612   3.980   3.468   5.791 -0.3612  0.9279  3.7945
  590MOL0     H79613   3.802   3.321   5.833  1.9774  4.5642 -1.7994
  590MOL0     H79614   3.805   3.162   6.074 -0.4252 -0.8629  0.4680
  590MOL0     H79615   3.654   3.117   6.003 -0.9351 -2.6134 -3.9794
  590MOL0     H79616   3.850   2.946   6.160  0.5149  4.4716 -1.0874
  590MOL0     H79617   3.694   3.009   6.204  1.9627  1.4263 -0.1489
  590MOL0     H79618   3.611   2.873   5.984 -0.8748  0.3270  1.3906
  590MOL0     H79619   3.762   2.785   6.013 -1.6441 -1.3789  1.1741
  590MOL0     H79620   3.528   2.689   6.111  0.5084 -0.8561  1.3630
  590MOL0     H79621   3.534   2.823   6.225 -2.4681 -0.2917 -1.9470
  590MOL0     H79622   3.625   2.654   6.344 -0.6733  0.7065 -0.4569
  590MOL0     H79623   3.764   2.746   6.284 -0.3642  1.0897 -2.0915
  590MOL0     H79624   3.682   2.455   6.169  3.7003 -1.6338 -3.2279
  590MOL0     H79625   3.814   2.558   6.129 -2.1964 -4.1540 -1.5218
  590MOL0     H79626   3.734   2.463   6.407  0.9289  1.1041  1.1817
  590MOL0     H79627   3.884   2.550   6.372  2.7805 -3.0333  1.5452
  590MOL0     H79628   3.917   2.303   6.377 -1.6693 -0.1568  0.9534
  590MOL0     H79629   3.809   2.296   6.232 -0.2219 -0.3753  0.4073
  590MOL0     H79630   4.068   2.988   5.864  0.0349 -0.1443  1.8815
  590MOL0     H79631   4.249   3.125   5.787 -1.1260 -1.1577 -2.7932
  590MOL0     H79632   4.372   3.766   5.779  1.2673  2.6272 -0.5941
  590MOL0     H79633   4.557   3.853   5.655  1.6326 -1.3892  1.2853
  590MOL0     H79634   3.755   4.225   6.475 -0.0483  0.3520  1.5894
  590MOL0     H79635   3.643   4.095   6.649  0.1883  1.8797 -4.2505
  590MOL0     H79636   3.610   3.635   6.731 -0.5314  2.0178  0.5144
  590MOL0     H79637   3.462   3.458   6.840 -1.4928  1.9631 -2.9740
  590MOL0     H79638   3.267   3.410   7.258  1.1641 -2.8057 -0.0406
  590MOL0     H79639   3.398   3.529   7.284 -1.0355 -0.1586  1.3333
  590MOL0     H79640   3.474   3.324   7.352  0.7509 -1.8390 -0.1713
  590MOL0     H79641   3.557   3.364   7.204  0.1552 -0.7814  0.9491
  590MOL0     H79642   3.449   3.205   7.062  1.2951  2.1383  0.8417
  590MOL0     H79643   3.315   3.191   7.182 -1.0012 -0.0830 -0.6830
  590MOL0     H79644   3.614   3.098   7.219  0.2043  3.3728 -2.3996
  590MOL0     H79645   3.488   3.091   7.339  1.7729 -4.0509  0.6159
  590MOL0     H79646   3.375   2.753   7.103  0.3206 -0.7760  2.1138
  590MOL0     H79647   3.485   3.693   7.208 -2.5129  3.8567 -1.3970
  590MOL0     H79648   3.610   3.902   7.209  0.3946  2.8764 -1.0048
  590MOL0     H79649   3.767   3.892   7.155 -0.3839  0.5885  1.7533
  590MOL0     H79650   3.656   3.975   7.055 -0.7476  0.0895  0.6459
  591MOL0     O79651   3.320   6.895   7.884 -0.2686 -0.0685  0.3320
  591MOL0     C79652   3.237   6.960   7.951 -0.7817  1.0201  0.1473
  591MOL0     O79653   3.256   7.025   8.066 -0.6306 -0.5336 -0.4584
  591MOL0     C79654   3.384   7.052   8.105  0.1098  0.3150 -0.3346
  591MOL0     C79655   3.398   7.034   8.235 -1.7990  0.3649 -1.4776
  591MOL0     C79656   3.527   7.075   8.292 -0.8172 -0.1927 -0.5280
  591MOL0     C79657   3.626   7.134   8.217  0.5422 -0.1800  0.0701
  591MOL0     O79658   3.754   7.159   8.264  0.1717  0.2087  0.7014
  591MOL0     C79659   3.789   7.120   8.398 -0.0302 -0.0460  0.2852
  591MOL0     C79660   3.932   7.181   8.426  1.1803  0.0132 -0.7453
  591MOL0     C79661   4.044   7.118   8.335 -0.7627 -0.3463  0.3415
  591MOL0     C79662   4.188   7.183   8.364 -0.4973  0.5575 -0.2327
  591MOL0     C79663   4.224   7.178   8.509 -0.3225 -0.5170  0.7078
  591MOL0     C79664   4.374   7.165   8.526 -0.0514 -0.2399 -0.0477
  591MOL0     C79665   4.441   7.293   8.476 -0.0406 -0.2371  0.5180
  591MOL0     C79666   4.591   7.280   8.478 -0.2343  1.3406  0.1471
  591MOL0     N79667   4.616   7.180   8.367 -0.1765  0.1878 -0.8761
  591MOL0     C79668   4.681   7.055   8.383 -0.3327  0.2697 -0.2767
  591MOL0     C79669   4.694   7.002   8.262  0.5508 -0.1587 -0.7974
  591MOL0     C79670   4.743   6.867   8.220  0.0443  0.3026 -0.2411
  591MOL0     C79671   4.831   6.797   8.324  0.3038 -1.2547  0.2164
  591MOL0     C79672   4.934   6.703   8.255 -0.6471  1.1236 -0.1589
  591MOL0     C79673   5.049   6.667   8.358  0.9929 -0.2587  0.4556
  591MOL0     O79674   5.133   6.778   8.401  0.2889 -0.2807 -0.0245
  591MOL0     C79675   5.243   6.818   8.325 -0.4413  0.4258  0.5591
  591MOL0     C79676   5.324   6.922   8.369 -0.8875  0.7431  0.3247
  591MOL0     C79677   5.435   6.969   8.291 -0.7413 -0.5968 -0.5050
  591MOL0     C79678   5.478   6.895   8.178 -0.2212 -0.1882  0.0432
  591MOL0     C79679   5.585   6.944   8.104 -0.0140 -0.6982  0.5283
  591MOL0     O79680   5.625   7.072   8.123  0.2591 -0.6575 -0.3908
  591MOL0     C79681   5.748   7.124   8.087 -0.3306  0.4907  0.6396
  591MOL0     C79682   5.856   7.044   8.054  0.4028 -0.5601  0.4554
  591MOL0     C79683   5.979   7.104   8.017  0.3318 -0.0288  0.2759
  591MOL0     C79684   5.986   7.239   7.993 -0.2669  0.3580  0.3663
  591MOL0     O79685   6.101   7.287   7.925 -0.0947 -0.1539 -0.1706
  591MOL0     C79686   6.106   7.280   7.780  0.0575  0.5447 -0.5644
  591MOL0     C79687   6.144   7.139   7.729  0.0685 -0.4828 -0.6654
  591MOL0     C79688   6.292   7.090   7.754 -0.4291 -0.3021 -0.0738
  591MOL0     C79689   6.311   6.948   7.693 -0.2525  0.0657 -0.3871
  591MOL0     C79690   6.431   6.863   7.745 -0.2981  1.2246  0.7341
  591MOL0     C79691   6.394   6.745   7.827  1.0415 -0.5885 -1.0122
  591MOL0     C79692   6.491   6.686   7.930 -1.1892  0.6022  0.4830
  591MOL0     C79693   6.438   6.585   8.029 -0.1447  0.5172 -0.3649
  591MOL0    Cl79694   6.563   6.515   8.145 -0.3168  0.0084 -0.4372
  591MOL0     C79695   5.884   7.317   8.050  0.4418 -0.1624 -0.3245
  591MOL0     C79696   5.763   7.263   8.089 -0.3695  0.4276 -0.7353
  591MOL0     O79697   5.637   6.861   8.030  0.9129  0.6451 -0.5518
  591MOL0     C79698   5.397   6.785   8.136  0.2466  0.0045  0.3929
  591MOL0     C79699   5.280   6.752   8.208 -0.0315 -0.3338  0.2648
  591MOL0     N79700   4.641   7.089   8.170 -0.6589 -0.0042  0.1171
  591MOL0     N79701   4.596   7.194   8.235  0.5561 -0.1412 -0.1689
  591MOL0     C79702   3.600   7.149   8.081  0.1016  0.6226  0.5765
  591MOL0     C79703   3.480   7.109   8.023  0.1695  0.0664 -0.3789
  591MOL0     C79704   3.096   6.973   7.907  1.1262 -0.6741  0.5293
  591MOL0     C79705   3.003   7.039   7.988 -0.2933 -0.7175 -0.4427
  591MOL0     C79706   2.875   7.054   7.961  1.2911 -0.7837 -0.1844
  591MOL0     C79707   2.824   7.007   7.843 -0.0900  0.2803 -0.0434
  591MOL0     O79708   2.695   7.004   7.798 -0.2396 -0.0532 -0.2920
  591MOL0     C79709   2.618   6.911   7.861  0.7387  0.4451 -0.5757
  591MOL0     C79710   2.465   6.928   7.830 -0.2258 -0.1640 -0.0661
  591MOL0     C79711   2.383   6.823   7.896 -0.1731 -1.2114  0.2499
  591MOL0     C79712   2.241   6.813   7.841 -1.3643  0.2771  0.1287
  591MOL0     C79713   2.143   6.907   7.901  0.6341  0.1993  0.7987
  591MOL0     C79714   2.072   6.997   7.956 -0.4863  0.5788 -0.4201
  591MOL0     C79715   2.915   6.937   7.753 -0.4183  0.3992 -0.7863
  591MOL0     C79716   3.045   6.919   7.784 -0.1107 -0.6156  0.8377
  591MOL0     C79717   3.134   6.838   7.683  0.7305  0.0376  0.7896
  591MOL0     H79718   3.320   6.987   8.295  0.2811  1.2523  2.3053
  591MOL0     H79719   3.529   7.053   8.398  1.2702  3.7632  0.4505
  591MOL0     H79720   3.718   7.133   8.479  0.0290 -1.6425  0.6254
  591MOL0     H79721   3.802   7.011   8.397  0.6136 -0.0508  2.7073
  591MOL0     H79722   3.958   7.183   8.532 -2.1338 -0.8162  0.1989
  591MOL0     H79723   3.909   7.286   8.404 -0.8035 -0.2497 -0.0691
  591MOL0     H79724   4.025   7.137   8.229  1.4620 -0.7003 -0.1540
  591MOL0     H79725   4.057   7.012   8.356  0.0506 -0.7058 -1.7290
  591MOL0     H79726   4.258   7.122   8.305  0.4292 -2.9469  3.9702
  591MOL0     H79727   4.188   7.284   8.323 -0.4360 -0.1775 -2.1379
  591MOL0     H79728   4.188   7.273   8.550  2.3505 -0.3526  2.9674
  591MOL0     H79729   4.180   7.091   8.559 -0.9383 -0.0349  1.0235
  591MOL0     H79730   4.407   7.156   8.630 -1.5652  0.8815  0.5629
  591MOL0     H79731   4.402   7.072   8.475 -2.0444 -0.9690  0.1107
  591MOL0     H79732   4.422   7.374   8.548 -1.0602  2.0838 -2.1916
  591MOL0     H79733   4.403   7.323   8.378 -2.2561  1.8860  1.8934
  591MOL0     H79734   4.649   7.370   8.456  0.4090  1.0061  0.4579
  591MOL0     H79735   4.633   7.249   8.574 -1.9909  2.0070  1.1873
  591MOL0     H79736   4.719   7.003   8.471 -2.3627  0.7790  0.9839
  591MOL0     H79737   4.666   6.793   8.195 -2.4319  3.5416 -3.5620
  591MOL0     H79738   4.798   6.888   8.128  0.2467  1.6813  0.1637
  591MOL0     H79739   4.883   6.888   8.356 -0.9788  0.7264 -2.8653
  591MOL0     H79740   4.775   6.748   8.404 -1.3177  1.4486  0.8761
  591MOL0     H79741   4.977   6.753   8.168 -1.4425 -3.3102 -3.4758
  591MOL0     H79742   4.891   6.609   8.219  1.4296  0.0526 -0.0022
  591MOL0     H79743   5.107   6.585   8.317 -0.8919 -0.5491 -1.8170
  591MOL0     H79744   4.990   6.627   8.442 -2.0103  0.2135 -1.2627
  591MOL0     H79745   5.310   6.962   8.468  2.4994 -0.9342  1.6386
  591MOL0     H79746   5.476   7.062   8.330 -2.6239 -0.9581  2.6651
  591MOL0     H79747   5.852   6.936   8.061 -3.5639 -1.0812 -4.2279
  591MOL0     H79748   6.059   7.034   7.996 -0.7261 -1.2716  0.2034
  591MOL0     H79749   6.017   7.319   7.729  0.1497 -0.4436 -1.5309
  591MOL0     H79750   6.181   7.351   7.744  0.4878  1.0048  1.1774
  591MOL0     H79751   6.077   7.067   7.777  2.5455 -1.3602  1.7317
  591MOL0     H79752   6.124   7.132   7.621 -0.6865  1.6831 -0.7113
  591MOL0     H79753   6.363   7.157   7.706  0.1859 -1.5706 -1.0016
  591MOL0     H79754   6.304   7.089   7.863 -0.9698  0.8063  0.0122
  591MOL0     H79755   6.323   6.972   7.587 -3.0592 -0.3900 -0.8906
  591MOL0     H79756   6.218   6.891   7.703 -1.3967  2.0410  0.8695
  591MOL0     H79757   6.505   6.927   7.794  0.5300  3.0827 -2.6341
  591MOL0     H79758   6.496   6.824   7.666 -0.1489  0.6252  1.1458
  591MOL0     H79759   6.306   6.772   7.887  0.5872  2.4466 -2.8694
  591MOL0     H79760   6.359   6.669   7.756 -1.6113 -0.6617  0.2404
  591MOL0     H79761   6.545   6.770   7.973 -1.3567  0.2319  1.4400
  591MOL0     H79762   6.566   6.637   7.868 -0.3385  1.0239  1.1693
  591MOL0     H79763   6.354   6.622   8.088  0.5287  4.6933 -1.6751
  591MOL0     H79764   6.414   6.503   7.960  2.2240  0.7727 -1.5902
  591MOL0     H79765   5.875   7.425   8.050 -3.6031 -0.3507 -0.6400
  591MOL0     H79766   5.685   7.324   8.133  0.1206 -0.9966  2.3958
  591MOL0     H79767   5.412   6.728   8.045 -1.6503  0.2738 -0.1319
  591MOL0     H79768   5.224   6.667   8.172  0.1467 -2.1616  3.8817
  591MOL0     H79769   3.671   7.203   8.020 -1.6974  1.0446 -1.2216
  591MOL0     H79770   3.448   7.112   7.920 -0.8309 -3.5781 -0.3381
  591MOL0     H79771   3.028   7.082   8.085 -1.8359 -0.0174 -0.3278
  591MOL0     H79772   2.806   7.106   8.026  0.8124 -0.3397 -1.0347
  591MOL0     H79773   2.623   6.930   7.968  1.2553 -0.8311 -0.3461
  591MOL0     H79774   2.649   6.811   7.829  0.6430 -0.3991  1.7587
  591MOL0     H79775   2.468   6.912   7.722 -1.9442  1.2579 -0.3777
  591MOL0     H79776   2.429   7.027   7.860  1.7949  0.7728 -0.5609
  591MOL0     H79777   2.380   6.837   8.004 -0.2620 -0.7339  0.1905
  591MOL0     H79778   2.426   6.726   7.870 -1.0366 -1.0552 -1.9933
  591MOL0     H79779   2.245   6.820   7.732 -4.0230  0.4729 -0.0293
  591MOL0     H79780   2.206   6.712   7.866  1.6385 -0.1246  3.6420
  591MOL0     H79781   2.035   7.086   8.003  0.4207  0.3300  0.8194
  591MOL0     H79782   2.860   6.882   7.677 -3.3249 -1.6918  2.4844
  591MOL0     H79783   3.217   6.899   7.646 -0.1028  1.2619  0.8725
  591MOL0     H79784   3.178   6.751   7.732  1.3835  0.5080  1.0466
  591MOL0     H79785   3.070   6.810   7.598 -1.5454  0.3161  2.3260
  592MOL0     O79786   0.901   9.210   6.819 -0.3194  0.0014 -0.3380
  592MOL0     C79787   0.988   9.123   6.818  0.2386  0.2511 -0.0231
  592MOL0     O79788   1.118   9.147   6.774  0.4709 -0.6318  0.0260
  592MOL0     C79789   1.174   9.267   6.741  0.2014 -0.1219  0.8064
  592MOL0     C79790   1.116   9.399   6.738  0.7017  0.2872 -0.2580
  592MOL0     C79791   1.200   9.510   6.709 -0.0149  0.6025 -0.5339
  592MOL0     C79792   1.335   9.491   6.698 -0.4078 -0.3216  0.5751
  592MOL0     O79793   1.411   9.607   6.696  0.0926 -1.3644  0.0092
  592MOL0     C79794   1.461   9.648   6.826  0.5008 -0.7048 -0.6407
  592MOL0     C79795   1.588   9.734   6.795 -0.5062 -0.6485  0.8995
  592MOL0     C79796   1.561   9.861   6.712 -0.2723  0.1624  1.0458
  592MOL0     C79797   1.598   9.986   6.786  0.0559 -0.5784  0.3830
  592MOL0     C79798   1.581  10.112   6.701 -0.0651  1.4178 -0.5306
  592MOL0     C79799   1.552  10.239   6.780 -0.2927  0.2242  0.3479
  592MOL0     C79800   1.684  10.304   6.833  0.4887  0.4007  0.3896
  592MOL0     C79801   1.666  10.443   6.896  0.3630  0.4066 -0.3822
  592MOL0     N79802   1.609  10.538   6.800  0.5154 -0.5852  0.1060
  592MOL0     C79803   1.668  10.581   6.688  0.4127 -0.5946  0.0219
  592MOL0     C79804   1.577  10.664   6.630 -0.1128  0.0196 -0.2182
  592MOL0     C79805   1.596  10.743   6.507 -0.3249 -0.6331  0.6749
  592MOL0     C79806   1.664  10.872   6.544  0.3937 -0.3216 -0.7966
  592MOL0     C79807   1.656  10.975   6.423 -0.6263  0.5464 -0.9375
  592MOL0     C79808   1.708  11.116   6.459 -0.3788  0.9113  1.1424
  592MOL0     O79809   1.854  11.112   6.416 -0.2621 -0.6437  0.0035
  592MOL0     C79810   1.933  11.225   6.399  0.6847  0.4227  0.3188
  592MOL0     C79811   1.872  11.343   6.434 -1.1433  0.9628 -0.1606
  592MOL0     C79812   1.948  11.460   6.421  0.2068 -0.6896  0.6785
  592MOL0     C79813   2.071  11.471   6.353 -0.8529  0.4227 -0.2285
  592MOL0     C79814   2.157  11.587   6.364  0.6527  0.3558 -0.2585
  592MOL0     O79815   2.268  11.593   6.288  0.4313  0.1125 -0.2107
  592MOL0     C79816   2.349  11.710   6.290  1.3446  0.5617 -0.3313
  592MOL0     C79817   2.353  11.810   6.389 -0.9657  1.1589 -0.3667
  592MOL0     C79818   2.437  11.924   6.376  0.0196  0.3079  0.1133
  592MOL0     C79819   2.514  11.950   6.262  0.6046  0.7295  0.1092
  592MOL0     O79820   2.594  12.056   6.238 -0.4018  0.9559  0.9844
  592MOL0     C79821   2.699  12.083   6.329  0.4305 -0.8310  0.0273
  592MOL0     C79822   2.787  12.190   6.278  0.1520 -0.1836 -0.3401
  592MOL0     C79823   2.931  12.174   6.305 -0.5873  0.0701  0.0793
  592MOL0     C79824   2.963  12.201   6.449 -0.5245  1.1834 -0.0119
  592MOL0     C79825   2.936  12.341   6.494 -0.2341 -0.7177 -0.2617
  592MOL0     C79826   2.975  12.354   6.650 -0.9541 -0.2453 -0.8295
  592MOL0     C79827   2.858  12.313   6.754 -0.4207 -0.2756  0.9701
  592MOL0     C79828   2.898  12.293   6.888 -0.4128 -0.2044 -0.0663
  592MOL0    Cl79829   2.969  12.132   6.916 -0.1856  0.8398 -0.3967
  592MOL0     C79830   2.521  11.843   6.168 -0.0503 -0.4073 -0.0902
  592MOL0     C79831   2.432  11.739   6.184 -0.9572 -0.3037  0.4649
  592MOL0     O79832   2.116  11.680   6.434 -0.1981 -0.5461 -0.2330
  592MOL0     C79833   2.119  11.345   6.300  0.7847 -0.1398  0.5127
  592MOL0     C79834   2.052  11.225   6.330 -0.0101  0.5358 -0.1916
  592MOL0     N79835   1.468  10.663   6.706 -0.2809 -0.7725 -0.3006
  592MOL0     N79836   1.484  10.589   6.811 -0.2390  0.0626 -0.4219
  592MOL0     C79837   1.391   9.362   6.682  0.3667 -1.0430 -0.2551
  592MOL0     C79838   1.309   9.261   6.706  0.1986  0.6027  0.2404
  592MOL0     C79839   0.953   8.984   6.867 -0.1654  0.7112 -0.4108
  592MOL0     C79840   1.011   8.873   6.810 -0.0059  0.1819 -0.2471
  592MOL0     C79841   0.969   8.749   6.848  0.6456 -0.4966 -0.7654
  592MOL0     C79842   0.881   8.724   6.951  0.0604 -0.1371  0.3777
  592MOL0     O79843   0.866   8.593   6.980  0.1994  0.1795 -0.3606
  592MOL0     C79844   0.811   8.565   7.109 -0.3788 -0.5380 -0.3156
  592MOL0     C79845   0.913   8.573   7.217 -1.3299 -0.0436  0.4546
  592MOL0     C79846   0.879   8.507   7.347 -0.9309 -0.0544  0.0952
  592MOL0     C79847   0.976   8.521   7.459 -0.1774  0.0355  0.0346
  592MOL0     C79848   0.982   8.659   7.498 -0.0356  1.2523 -0.7686
  592MOL0     C79849   0.968   8.770   7.533 -0.1915 -0.9205  0.2373
  592MOL0     C79850   0.831   8.830   7.004 -0.0878 -0.4306  0.5536
  592MOL0     C79851   0.849   8.964   6.962  0.1349 -0.5652 -0.8962
  592MOL0     C79852   0.777   9.066   7.051  0.5732  0.6349  0.1435
  592MOL0     H79853   1.011   9.419   6.758  0.0464 -0.2154 -2.7574
  592MOL0     H79854   1.157   9.609   6.717 -0.9317  0.3220 -1.6906
  592MOL0     H79855   1.400   9.709   6.893  1.0627  0.2699 -1.0044
  592MOL0     H79856   1.490   9.558   6.882 -2.2724 -2.6048 -1.9946
  592MOL0     H79857   1.658   9.675   6.734  0.4502  0.7503  0.6037
  592MOL0     H79858   1.650   9.755   6.882  2.2889  4.4382 -1.8470
  592MOL0     H79859   1.456   9.857   6.680  0.3216  0.4484 -1.0356
  592MOL0     H79860   1.621   9.851   6.622  0.2978 -3.1681  1.6622
  592MOL0     H79861   1.527   9.982   6.870  1.4330 -1.5417  1.5457
  592MOL0     H79862   1.700   9.978   6.823 -0.5390  1.4875  2.7948
  592MOL0     H79863   1.674  10.116   6.644 -0.6987 -0.0789 -1.7585
  592MOL0     H79864   1.498  10.087   6.634 -1.5454 -1.8948  2.2670
  592MOL0     H79865   1.518  10.313   6.707  0.8027 -0.8664 -1.3165
  592MOL0     H79866   1.482  10.225   6.864 -1.7460  1.3679 -0.6210
  592MOL0     H79867   1.761  10.317   6.756  0.0669  0.2799 -0.0609
  592MOL0     H79868   1.721  10.232   6.907 -0.6449  0.7857  1.3598
  592MOL0     H79869   1.611  10.434   6.990  1.3562  0.0103  0.1858
  592MOL0     H79870   1.766  10.476   6.927 -0.6432  2.7379  0.6215
  592MOL0     H79871   1.765  10.567   6.641 -0.6865 -0.2792 -2.5051
  592MOL0     H79872   1.657  10.696   6.430  3.6538  3.3212  1.0619
  592MOL0     H79873   1.499  10.777   6.469 -0.6779  0.9216  2.7994
  592MOL0     H79874   1.613  10.916   6.630  3.1606  0.2891  0.6427
  592MOL0     H79875   1.768  10.860   6.574  0.0928 -2.1322 -0.3723
  592MOL0     H79876   1.550  10.982   6.399 -0.8357 -2.0949 -1.0513
  592MOL0     H79877   1.710  10.931   6.338 -0.3708  1.0986 -1.0685
  592MOL0     H79878   1.694  11.134   6.566  0.8897 -0.8333  1.6384
  592MOL0     H79879   1.648  11.182   6.395 -3.8685 -1.8329  1.2711
  592MOL0     H79880   1.791  11.355   6.505 -0.1146  3.5852  0.6930
  592MOL0     H79881   1.916  11.544   6.483  1.4711 -0.1120  0.5910
  592MOL0     H79882   2.303  11.804   6.486  1.6657  2.8505  1.2179
  592MOL0     H79883   2.458  11.983   6.465 -0.1097  1.1620 -0.4036
  592MOL0     H79884   2.667  12.119   6.427 -0.9061  0.5562 -0.8859
  592MOL0     H79885   2.751  11.992   6.361 -1.7997 -1.6881  1.4622
  592MOL0     H79886   2.789  12.185   6.169 -2.5987 -3.6282 -0.4198
  592MOL0     H79887   2.736  12.284   6.301 -1.6185 -1.6261  2.1573
  592MOL0     H79888   2.962  12.072   6.278 -1.5124 -0.3448  0.5186
  592MOL0     H79889   2.990  12.242   6.244 -1.0546  0.2890 -0.1357
  592MOL0     H79890   3.068  12.169   6.453 -0.3871  1.4017 -1.3378
  592MOL0     H79891   2.912  12.137   6.521 -1.2329  0.9999 -0.6637
  592MOL0     H79892   2.837  12.367   6.456  0.1163  1.1886  0.0399
  592MOL0     H79893   3.004  12.406   6.439  0.8706  0.0969  1.9501
  592MOL0     H79894   3.072  12.308   6.673  0.3502  2.9985  0.8004
  592MOL0     H79895   2.992  12.462   6.658 -0.5025 -0.3287 -0.6629
  592MOL0     H79896   2.816  12.215   6.729  1.1598 -1.4734  2.6958
  592MOL0     H79897   2.789  12.397   6.744  2.7247  2.2418 -1.7371
  592MOL0     H79898   2.960  12.377   6.921 -0.5611  0.4110 -1.3174
  592MOL0     H79899   2.807  12.285   6.948 -0.0991  0.5460  0.5276
  592MOL0     H79900   2.588  11.861   6.084 -0.9086  2.3444 -0.2658
  592MOL0     H79901   2.440  11.657   6.113 -0.0154 -0.3858  0.6481
  592MOL0     H79902   2.206  11.323   6.239  2.6273  0.4388  2.8308
  592MOL0     H79903   2.092  11.134   6.286  0.1876  1.5267 -2.1806
  592MOL0     H79904   1.497   9.365   6.661  0.1851  1.1266 -1.1676
  592MOL0     H79905   1.351   9.161   6.705  0.1512  0.5820  0.2517
  592MOL0     H79906   1.078   8.880   6.725 -1.6133  0.9830 -1.4972
  592MOL0     H79907   1.007   8.669   6.784 -2.2890 -2.4038 -0.3513
  592MOL0     H79908   0.754   8.472   7.102 -0.4384 -0.4579 -0.9549
  592MOL0     H79909   0.730   8.630   7.142  0.4939 -0.5805  2.1721
  592MOL0     H79910   0.946   8.677   7.231 -2.9043  0.1462  3.5955
  592MOL0     H79911   1.002   8.522   7.182 -0.4647  0.5560  1.6857
  592MOL0     H79912   0.872   8.399   7.327 -0.4249 -0.3540  1.4640
  592MOL0     H79913   0.776   8.523   7.380 -1.2918  0.8549 -1.3743
  592MOL0     H79914   0.929   8.468   7.541  0.0980  0.6653  0.6094
  592MOL0     H79915   1.075   8.485   7.429 -0.5458 -0.3129 -0.8132
  592MOL0     H79916   0.950   8.873   7.553  0.1416 -0.7245 -0.4395
  592MOL0     H79917   0.778   8.829   7.099  3.3328  1.5985  2.7073
  592MOL0     H79918   0.858   9.121   7.100  2.2037 -2.2397  0.9337
  592MOL0     H79919   0.720   9.124   6.978 -0.3592 -0.4079  0.0081
  592MOL0     H79920   0.719   9.020   7.132  1.5090 -4.1552 -1.5714
  593MOL0     O79921   8.186   0.468  10.096 -0.5627 -0.0231 -0.1132
  593MOL0     C79922   8.153   0.575  10.047  0.7978 -0.0426 -1.3203
  593MOL0     O79923   8.224   0.644   9.957 -0.4883 -0.1076  0.2618
  593MOL0     C79924   8.352   0.616   9.931 -0.3124 -0.5571  0.1858
  593MOL0     C79925   8.448   0.624  10.033 -0.4081  0.9062  0.6374
  593MOL0     C79926   8.583   0.589  10.006 -0.3111 -0.4547  0.5390
  593MOL0     C79927   8.633   0.573   9.882 -0.5615 -0.3046 -0.3418
  593MOL0     O79928   8.764   0.531   9.878  0.5905  0.3353 -0.4880
  593MOL0     C79929   8.852   0.643   9.866  0.8130 -0.0549 -0.3088
  593MOL0     C79930   8.985   0.576   9.887 -0.4130  0.7425 -0.1518
  593MOL0     C79931   9.102   0.669   9.884 -0.5720 -0.0304 -0.5842
  593MOL0     C79932   9.137   0.715   9.750 -0.4899 -0.3110 -0.0781
  593MOL0     C79933   9.283   0.769   9.753 -0.9075 -0.3883  0.4503
  593MOL0     C79934   9.342   0.823   9.622  0.8394  0.1304 -0.0301
  593MOL0     C79935   9.488   0.802   9.585  0.3511  0.1939 -0.9918
  593MOL0     C79936   9.552   0.925   9.522 -0.5589 -1.3957  0.1160
  593MOL0     N79937   9.510   0.956   9.384  0.0271  1.3897 -0.2795
  593MOL0     C79938   9.485   0.869   9.280 -0.2690 -0.3695 -0.0682
  593MOL0     C79939   9.474   0.956   9.180  0.2322  0.3007  0.1872
  593MOL0     C79940   9.471   0.921   9.032 -0.1538  0.8859  0.2269
  593MOL0     C79941   9.616   0.897   8.989  0.4183  0.3730 -0.0659
  593MOL0     C79942   9.636   0.945   8.845  0.0526 -0.0121  0.0254
  593MOL0     C79943   9.541   0.885   8.734  0.5764 -0.1343  0.0016
  593MOL0     O79944   9.557   0.743   8.711 -0.6451 -0.0366 -0.5036
  593MOL0     C79945   9.655   0.683   8.637  0.9066 -0.1297  0.2586
  593MOL0     C79946   9.664   0.536   8.640  0.2043  0.8511 -0.1308
  593MOL0     C79947   9.776   0.474   8.576  0.1349 -0.1872  1.1842
  593MOL0     C79948   9.880   0.552   8.519 -1.0906  0.1815  0.7858
  593MOL0     C79949   9.999   0.487   8.451  0.1724  0.7451 -0.9037
  593MOL0     O79950   9.981   0.354   8.436 -0.3043  0.3259 -0.0052
  593MOL0     C79951  10.071   0.258   8.398  0.6859  0.2957 -0.2480
  593MOL0     C79952  10.192   0.277   8.334  0.0452  0.1018  0.2855
  593MOL0     C79953  10.288   0.174   8.306 -0.6767  0.8194  0.7586
  593MOL0     C79954  10.254   0.044   8.347  0.7979  1.0990  0.0695
  593MOL0     O79955  10.321  -0.072   8.313  0.0014  0.6771  0.3915
  593MOL0     C79956  10.461  -0.064   8.285  0.4453 -0.2929  0.6790
  593MOL0     C79957  10.545  -0.034   8.407  0.5635  0.3152  0.0801
  593MOL0     C79958  10.690  -0.088   8.398 -0.6001  0.4359 -1.0949
  593MOL0     C79959  10.699  -0.242   8.401 -0.2675 -1.2792  0.1801
  593MOL0     C79960  10.833  -0.315   8.402 -0.8670  0.3717 -0.1730
  593MOL0     C79961  10.922  -0.249   8.507 -0.0984 -0.2639 -0.9542
  593MOL0     C79962  11.062  -0.295   8.495  0.8341  0.6537 -0.7844
  593MOL0     C79963  11.142  -0.267   8.618 -0.6669 -0.7524 -0.4317
  593MOL0    Cl79964  11.309  -0.323   8.582 -0.2133 -0.2019  0.0797
  593MOL0     C79965  10.127   0.014   8.398  0.8764  0.3175  0.6558
  593MOL0     C79966  10.040   0.125   8.422 -0.5405 -0.1737 -0.7525
  593MOL0     O79967  10.096   0.550   8.440  0.4023 -0.3214  0.8745
  593MOL0     C79968   9.852   0.680   8.504  0.1625 -0.0217  0.2316
  593MOL0     C79969   9.753   0.754   8.568  0.0078 -0.1685 -0.0665
  593MOL0     N79970   9.477   1.085   9.230  0.2463 -1.0043  0.5347
  593MOL0     N79971   9.492   1.082   9.353  0.1598 -0.2318 -0.0647
  593MOL0     C79972   8.537   0.562   9.783  1.0734 -0.1706 -0.3424
  593MOL0     C79973   8.399   0.588   9.802 -0.1814 -0.3433  0.0556
  593MOL0     C79974   8.029   0.633  10.094  0.5721  0.0800 -0.9846
  593MOL0     C79975   8.001   0.765  10.046  0.2187 -0.2283 -0.6462
  593MOL0     C79976   7.883   0.834  10.095 -0.8076  0.1005 -1.0500
  593MOL0     C79977   7.796   0.766  10.183 -0.7926 -0.3474  0.3812
  593MOL0     O79978   7.676   0.816  10.226 -0.3262 -0.9264 -0.7991
  593MOL0     C79979   7.686   0.896  10.349  0.0110  0.0828  0.4369
  593MOL0     C79980   7.573   0.857  10.455  0.1935 -0.1276  0.0956
  593MOL0     C79981   7.420   0.875  10.389  0.2355  0.0454 -0.0578
  593MOL0     C79982   7.324   0.835  10.501  0.0154  0.2649  0.6361
  593MOL0     C79983   7.320   0.693  10.519  0.2293 -0.9161 -0.7745
  593MOL0     C79984   7.302   0.569  10.529 -0.2882 -0.0820  0.4752
  593MOL0     C79985   7.812   0.630  10.205 -0.1495 -0.5380 -0.4575
  593MOL0     C79986   7.931   0.563  10.175 -0.6450  0.3950  0.2176
  593MOL0     C79987   7.930   0.426  10.218 -0.4759  0.9656 -0.1256
  593MOL0     H79988   8.419   0.644  10.136 -1.5077 -0.4762  0.6294
  593MOL0     H79989   8.643   0.573  10.094  0.1546 -2.3521 -0.0766
  593MOL0     H79990   8.841   0.694   9.770 -0.7196 -1.3126 -0.8334
  593MOL0     H79991   8.842   0.730   9.933  0.6198  0.5845 -1.1552
  593MOL0     H79992   9.006   0.496   9.815 -0.8728 -1.3859  1.9555
  593MOL0     H79993   8.979   0.524   9.983 -2.8593 -0.3843 -0.8479
  593MOL0     H79994   9.188   0.611   9.919  0.6894  1.6393 -0.8413
  593MOL0     H79995   9.077   0.748   9.954  0.7119 -1.0295  1.0987
  593MOL0     H79996   9.129   0.621   9.695 -4.2858 -0.2002  0.0456
  593MOL0     H79997   9.055   0.780   9.718  0.0586 -0.2583 -1.4465
  593MOL0     H79998   9.302   0.846   9.828 -0.2121  0.3317 -0.4388
  593MOL0     H79999   9.346   0.689   9.793  1.0702  1.0028  0.2544
  593MOL0     H80000   9.289   0.775   9.539 -0.8912  1.8756 -0.0227
  593MOL0     H80001   9.318   0.930   9.622 -2.9977 -0.5730  0.2293
  593MOL0     H80002   9.503   0.718   9.516  1.6899 -2.2215  1.9542
  593MOL0     H80003   9.539   0.793   9.682 -1.2794  2.3536  0.1539
  593MOL0     H80004   9.537   1.014   9.583  2.8812  0.8968 -2.0238
  593MOL0     H80005   9.659   0.910   9.507 -0.3548  1.0713 -1.3172
  593MOL0     H80006   9.495   0.761   9.279  5.2599 -0.1433 -0.3229
  593MOL0     H80007   9.404   0.837   9.012 -1.9782  2.2155  0.4865
  593MOL0     H80008   9.431   1.003   8.971 -0.6445  0.0462 -0.6124
  593MOL0     H80009   9.685   0.958   9.049  0.9968 -0.0450 -0.3030
  593MOL0     H80010   9.641   0.791   9.005 -2.3866 -0.1075  1.9102
  593MOL0     H80011   9.741   0.920   8.828  0.3761  0.1314  1.6195
  593MOL0     H80012   9.618   1.052   8.834 -2.5070 -0.5366 -1.5457
  593MOL0     H80013   9.566   0.939   8.642  1.0380  2.9846  1.8311
  593MOL0     H80014   9.440   0.915   8.763  1.5534  5.6440 -1.2502
  593MOL0     H80015   9.589   0.472   8.684 -0.6821  1.2441 -1.0119
  593MOL0     H80016   9.773   0.366   8.584 -1.5194 -0.4759 -2.0345
  593MOL0     H80017  10.229   0.373   8.297  0.2568 -0.9995 -2.6158
  593MOL0     H80018  10.379   0.196   8.251 -0.5346 -1.2422  0.0738
  593MOL0     H80019  10.488  -0.167   8.258 -0.5775 -0.2151 -0.7632
  593MOL0     H80020  10.482   0.015   8.213  0.2769  1.0676  2.0620
  593MOL0     H80021  10.542   0.075   8.418 -1.1229  0.2624  0.4260
  593MOL0     H80022  10.496  -0.082   8.492  0.6978 -1.8527 -1.0061
  593MOL0     H80023  10.741  -0.052   8.308  2.3752  0.5430  0.5022
  593MOL0     H80024  10.739  -0.054   8.490 -1.3578  0.1075 -0.5602
  593MOL0     H80025  10.648  -0.287   8.315 -2.1804  0.9257  0.0599
  593MOL0     H80026  10.646  -0.264   8.494 -1.3675  2.1334  0.4944
  593MOL0     H80027  10.888  -0.299   8.309  0.4332  1.8894  0.7932
  593MOL0     H80028  10.813  -0.422   8.414  1.7406  0.0784  3.2170
  593MOL0     H80029  10.921  -0.140   8.509 -2.5985 -0.2211 -1.0308
  593MOL0     H80030  10.896  -0.274   8.610  5.0287  4.6113  2.1244
  593MOL0     H80031  11.108  -0.253   8.405 -0.0621 -0.3837 -1.7641
  593MOL0     H80032  11.072  -0.404   8.482 -0.1745  0.3998  0.4259
  593MOL0     H80033  11.154  -0.160   8.640  1.5454 -1.6191  3.3873
  593MOL0     H80034  11.099  -0.316   8.706  1.1427 -1.0959  0.3122
  593MOL0     H80035  10.108  -0.088   8.432  0.7057 -0.3677 -1.3549
  593MOL0     H80036   9.947   0.110   8.476 -0.4358 -0.0618 -0.5404
  593MOL0     H80037   9.913   0.747   8.445 -0.1035  1.5607  1.6688
  593MOL0     H80038   9.754   0.863   8.569 -2.8196 -0.0573  0.7949
  593MOL0     H80039   8.578   0.525   9.689  2.3813  0.7947 -0.1821
  593MOL0     H80040   8.338   0.586   9.712 -0.8170  0.8130  0.4418
  593MOL0     H80041   8.066   0.820   9.979 -0.2698 -1.4320 -2.1623
  593MOL0     H80042   7.867   0.940  10.078  1.5064  0.9222  1.1644
  593MOL0     H80043   7.662   0.994  10.305  1.2813  0.8693  1.3979
  593MOL0     H80044   7.787   0.904  10.391  0.2406 -2.2749  0.4380
  593MOL0     H80045   7.570   0.938  10.529  1.1396  0.4019 -0.4161
  593MOL0     H80046   7.593   0.760  10.501 -2.0580 -0.0567  1.3498
  593MOL0     H80047   7.400   0.813  10.301  0.7677 -0.7224  0.3425
  593MOL0     H80048   7.399   0.975  10.352  0.5985 -0.0427 -0.5156
  593MOL0     H80049   7.343   0.887  10.596 -1.9631 -1.2373  1.9304
  593MOL0     H80050   7.225   0.875  10.478  0.0672 -0.0469 -0.1250
  593MOL0     H80051   7.294   0.463  10.525 -0.1581 -0.0543 -1.7617
  593MOL0     H80052   7.735   0.588  10.269  1.4084  1.2522  2.8363
  593MOL0     H80053   7.934   0.363  10.129  2.9391  0.1660  0.4517
  593MOL0     H80054   8.003   0.400  10.296 -3.9329 -2.6468  2.3127
  593MOL0     H80055   7.832   0.414  10.265 -0.1887  2.4422  0.9363
  594MOL0     O80056   8.072  10.769  10.177  0.3577 -0.1438  0.9088
  594MOL0     C80057   7.969  10.784  10.110 -0.7627 -1.1865 -0.8927
  594MOL0     O80058   7.841  10.797  10.164 -0.5241 -0.9022  0.6229
  594MOL0     C80059   7.816  10.759  10.293 -0.0725 -1.1026 -0.1043
  594MOL0     C80060   7.704  10.669  10.325 -0.3803  0.0070 -0.0225
  594MOL0     C80061   7.683  10.634  10.460 -0.7645  0.1627  0.8827
  594MOL0     C80062   7.751  10.707  10.559  0.5902  0.1960 -0.5345
  594MOL0     O80063   7.704  10.669  10.686  0.1032  0.3544  0.1635
  594MOL0     C80064   7.710  10.763  10.794 -0.8183  0.5536  0.0523
  594MOL0     C80065   7.577  10.770  10.871  0.1259  0.5344  1.1132
  594MOL0     C80066   7.522  10.633  10.906  0.1018 -1.2667  0.6165
  594MOL0     C80067   7.591  10.550  11.010 -0.1009 -0.1004  0.1950
  594MOL0     C80068   7.559  10.397  10.988 -0.3541 -0.6991 -0.2037
  594MOL0     C80069   7.591  10.316  11.120  0.0459 -0.2893 -0.4359
  594MOL0     C80070   7.502  10.190  11.144  0.7711  0.5024  0.3330
  594MOL0     C80071   7.524  10.090  11.045  0.0623  0.3372 -0.6524
  594MOL0     N80072   7.665  10.054  11.020 -0.2668 -0.1541  0.6017
  594MOL0     C80073   7.722   9.937  11.059 -0.4193  0.3979  0.8075
  594MOL0     C80074   7.841   9.942  10.984  1.1742 -0.1712  0.7005
  594MOL0     C80075   7.950   9.844  11.010 -0.3768  0.0349  0.5255
  594MOL0     C80076   7.975   9.826  11.169 -0.0858 -0.6189 -0.2198
  594MOL0     C80077   8.105   9.894  11.219  0.0281 -0.2734  0.3290
  594MOL0     C80078   8.169   9.839  11.339 -0.0745  0.9244 -0.0846
  594MOL0     O80079   8.089   9.865  11.459  0.6264 -0.6033 -0.0113
  594MOL0     C80080   8.104   9.980  11.530 -0.1467  0.4176  0.5573
  594MOL0     C80081   8.187  10.097  11.499  0.1088 -0.3216 -0.4846
  594MOL0     C80082   8.202  10.200  11.589  0.4475 -0.4080  0.4221
  594MOL0     C80083   8.111  10.201  11.704 -0.3100  0.1107  0.3187
  594MOL0     C80084   8.103  10.324  11.792  0.3565 -0.5765  1.7269
  594MOL0     O80085   8.163  10.436  11.747  0.9940  0.0647 -0.0452
  594MOL0     C80086   8.192  10.546  11.829  0.3858  1.5229 -0.0644
  594MOL0     C80087   8.280  10.644  11.772 -0.4211  0.3937  0.1216
  594MOL0     C80088   8.307  10.767  11.837 -1.3971  0.5967 -0.6735
  594MOL0     C80089   8.246  10.794  11.954 -0.1557 -0.2297 -0.2469
  594MOL0     O80090   8.266  10.905  12.034 -0.1046  0.0495 -0.4763
  594MOL0     C80091   8.402  10.948  12.057  0.0998 -0.0716 -0.3554
  594MOL0     C80092   8.413  11.065  12.148  0.3768 -0.3053  0.3583
  594MOL0     C80093   8.532  11.156  12.124 -0.0820  0.2517  0.3595
  594MOL0     C80094   8.669  11.077  12.079 -0.3236  0.5956 -0.3769
  594MOL0     C80095   8.792  11.160  12.094  0.0381 -0.0643  0.4692
  594MOL0     C80096   8.926  11.089  12.062 -0.2124 -0.8447  0.5512
  594MOL0     C80097   9.053  11.180  12.046 -0.2300 -1.5642  0.8566
  594MOL0     C80098   9.168  11.102  12.092 -0.6068 -0.2360 -0.2882
  594MOL0    Cl80099   9.192  11.078  12.262 -0.3096 -0.4521 -0.1340
  594MOL0     C80100   8.157  10.703  12.012 -0.2305 -0.5163  0.0820
  594MOL0     C80101   8.132  10.583  11.952 -0.8455 -1.1970  0.5161
  594MOL0     O80102   8.047  10.307  11.896 -0.5888  0.4444  0.0703
  594MOL0     C80103   8.021  10.100  11.721  0.2957  0.9869 -0.2588
  594MOL0     C80104   8.015   9.997  11.636 -0.4413 -0.2568 -0.0024
  594MOL0     N80105   7.837  10.048  10.892  0.2022 -0.9706 -0.1614
  594MOL0     N80106   7.744  10.123  10.930 -0.0319 -0.1751 -0.0286
  594MOL0     C80107   7.847  10.807  10.536 -0.0676  0.1803  0.0964
  594MOL0     C80108   7.885  10.821  10.398 -0.7303 -0.6723 -1.8186
  594MOL0     C80109   7.986  10.801   9.961  0.1636  0.0626  0.9818
  594MOL0     C80110   7.874  10.760   9.875 -0.1846 -0.1830 -0.1389
  594MOL0     C80111   7.883  10.752   9.738  0.2589 -0.3955  0.5014
  594MOL0     C80112   7.999  10.794   9.678 -0.6306  0.3928  0.8650
  594MOL0     O80113   8.022  10.785   9.541  0.4024 -0.4131 -0.6241
  594MOL0     C80114   7.930  10.851   9.461  0.2408  0.2545 -0.1213
  594MOL0     C80115   7.916  11.001   9.487 -0.9493  0.8720 -0.4681
  594MOL0     C80116   8.049  11.072   9.446  0.0729  0.4873 -0.4491
  594MOL0     C80117   8.033  11.215   9.409 -0.7611 -0.4594 -0.5522
  594MOL0     C80118   7.964  11.283   9.515  0.3013 -0.1131 -0.3518
  594MOL0     C80119   7.921  11.360   9.605  1.0499 -0.6894 -1.0708
  594MOL0     C80120   8.104  10.830   9.753 -0.7661 -0.5553 -0.0225
  594MOL0     C80121   8.106  10.827   9.890  0.8780 -0.1958  0.6654
  594MOL0     C80122   8.228  10.874   9.959  0.5007 -1.5473 -0.3884
  594MOL0     H80123   7.643  10.627  10.246 -2.4580  2.6391  0.0091
  594MOL0     H80124   7.604  10.562  10.477 -0.2486 -0.2279  1.6903
  594MOL0     H80125   7.789  10.735  10.865 -0.3177 -0.4178 -0.8455
  594MOL0     H80126   7.731  10.866  10.764  1.5708  1.0260  2.9920
  594MOL0     H80127   7.511  10.829  10.807  0.7487  1.7819  1.5745
  594MOL0     H80128   7.601  10.829  10.960  2.0798  2.2030 -0.4195
  594MOL0     H80129   7.502  10.567  10.821 -1.0495 -1.9711  1.4171
  594MOL0     H80130   7.426  10.663  10.949  0.6954  0.4775  0.8265
  594MOL0     H80131   7.699  10.561  10.996 -0.2404  0.0325 -0.8337
  594MOL0     H80132   7.553  10.583  11.107 -3.3780  0.5872 -1.1800
  594MOL0     H80133   7.454  10.377  10.966  0.8676 -1.6463 -7.8761
  594MOL0     H80134   7.605  10.358  10.897 -0.0957 -0.4693 -0.1749
  594MOL0     H80135   7.698  10.294  11.111 -0.0847 -1.5176  0.6866
  594MOL0     H80136   7.572  10.390  11.199 -0.6928 -0.2457 -0.6511
  594MOL0     H80137   7.398  10.224  11.143 -0.1576 -2.1264  0.2657
  594MOL0     H80138   7.528  10.147  11.242  1.6370 -1.5043 -0.7236
  594MOL0     H80139   7.468  10.001  11.078 -0.0117  0.2944 -0.8912
  594MOL0     H80140   7.481  10.124  10.950  1.5171 -2.4573 -2.4625
  594MOL0     H80141   7.689   9.867  11.135  1.2810 -0.0278  1.2177
  594MOL0     H80142   7.944   9.755  10.947 -1.2738 -1.5256  2.6777
  594MOL0     H80143   8.034   9.902  10.971 -1.1462 -0.0063 -1.2856
  594MOL0     H80144   7.894   9.855  11.236  1.8583  1.9443  1.1771
  594MOL0     H80145   7.988   9.717  11.171  1.7602 -0.6934 -4.5769
  594MOL0     H80146   8.083   9.999  11.241 -2.1466 -0.6809  0.3328
  594MOL0     H80147   8.184   9.890  11.143 -2.2013 -0.2176 -2.1564
  594MOL0     H80148   8.266   9.890  11.344  0.5410 -0.1669 -0.5520
  594MOL0     H80149   8.181   9.730  11.332 -1.6291  0.7461 -0.3037
  594MOL0     H80150   8.250  10.116  11.412 -0.6069  2.4861 -0.4724
  594MOL0     H80151   8.244  10.296  11.560 -3.4342  0.6788 -2.3779
  594MOL0     H80152   8.312  10.643  11.668 -0.8687 -0.2058 -0.0173
  594MOL0     H80153   8.379  10.834  11.793  1.2835 -0.0988  2.2826
  594MOL0     H80154   8.459  10.870  12.108 -3.3862 -0.9708  2.5934
  594MOL0     H80155   8.439  10.968  11.956  0.4274  0.5537 -0.1108
  594MOL0     H80156   8.325  11.127  12.131  2.6930  3.1604  0.0248
  594MOL0     H80157   8.418  11.040  12.255  0.4620  0.8254  0.6300
  594MOL0     H80158   8.514  11.212  12.032  0.5383 -0.1908 -0.0495
  594MOL0     H80159   8.549  11.231  12.202  3.0193  0.4095 -0.3390
  594MOL0     H80160   8.670  11.042  11.976  3.8622 -1.0470  0.0273
  594MOL0     H80161   8.676  10.982  12.132  2.6703  0.0347 -1.6241
  594MOL0     H80162   8.807  11.187  12.199 -2.5692 -3.5682  1.9237
  594MOL0     H80163   8.786  11.247  12.027  0.1473 -0.1651  0.3278
  594MOL0     H80164   8.946  11.021  12.144 -1.9964  1.5131  3.1293
  594MOL0     H80165   8.903  11.048  11.963 -0.1049 -0.8167  0.5141
  594MOL0     H80166   9.047  11.269  12.109 -2.5247 -1.7032  0.9158
  594MOL0     H80167   9.072  11.211  11.943 -5.9282  0.1677 -0.0568
  594MOL0     H80168   9.171  11.002  12.047  0.5079 -0.1528 -0.4401
  594MOL0     H80169   9.262  11.151  12.063  0.1515 -1.8859 -0.7910
  594MOL0     H80170   8.118  10.714  12.112  0.9215 -0.3493  0.5241
  594MOL0     H80171   8.061  10.522  12.007  0.1568 -0.7206  2.4123
  594MOL0     H80172   7.931  10.106  11.782  1.6010 -5.9221  3.3291
  594MOL0     H80173   7.942   9.918  11.652 -1.5695  0.8433  0.4761
  594MOL0     H80174   7.905  10.865  10.606 -0.8169  2.0713 -0.7643
  594MOL0     H80175   7.962  10.892  10.372 -1.6183  0.6224 -1.0492
  594MOL0     H80176   7.774  10.737   9.908 -0.6929  1.7172 -0.2130
  594MOL0     H80177   7.791  10.732   9.684 -0.7316  0.3351  1.8832
  594MOL0     H80178   7.825  10.821   9.474 -0.0855  2.1201  2.2152
  594MOL0     H80179   7.964  10.843   9.357 -0.2804 -1.9160 -0.1889
  594MOL0     H80180   7.904  11.014   9.596  1.2309 -0.4410 -0.0279
  594MOL0     H80181   7.835  11.034   9.422 -3.2181 -2.3200  0.4634
  594MOL0     H80182   8.087  11.015   9.361 -1.4889 -1.2535 -0.0542
  594MOL0     H80183   8.118  11.062   9.530 -3.3076  0.8970  2.6912
  594MOL0     H80184   8.127  11.267   9.388 -0.5953  0.4596  2.1339
  594MOL0     H80185   7.970  11.226   9.320 -2.1995 -2.8393  0.0906
  594MOL0     H80186   7.879  11.402   9.694  0.5886 -1.3706 -0.9584
  594MOL0     H80187   8.185  10.853   9.685 -0.7779 -1.1476 -0.2392
  594MOL0     H80188   8.211  10.960  10.025  0.8392 -1.6626 -0.1482
  594MOL0     H80189   8.275  10.795  10.019 -0.0194  0.9653  3.6983
  594MOL0     H80190   8.301  10.908   9.885 -1.9411 -0.5230 -2.4682
  595MOL0     O80191   1.532   7.394   5.609 -0.1502 -0.2163  0.1279
  595MOL0     C80192   1.602   7.489   5.573  1.0677  0.5099  0.4185
  595MOL0     O80193   1.631   7.522   5.450  0.4948 -0.0981 -0.3749
  595MOL0     C80194   1.578   7.437   5.354  0.8403 -0.4849  0.5418
  595MOL0     C80195   1.467   7.486   5.282  0.0861  0.0663  0.2557
  595MOL0     C80196   1.412   7.420   5.170 -0.0564 -1.0001 -0.2636
  595MOL0     C80197   1.481   7.320   5.114 -0.3278  0.8429 -0.3905
  595MOL0     O80198   1.423   7.267   5.000  0.0979  0.0199  0.4928
  595MOL0     C80199   1.468   7.144   4.940  0.1033 -0.3937  0.3092
  595MOL0     C80200   1.393   7.104   4.811  0.4907 -0.2106 -0.4792
  595MOL0     C80201   1.270   7.012   4.845 -1.1293  0.2538  0.1703
  595MOL0     C80202   1.181   7.053   4.954 -0.7645  0.0167  0.5974
  595MOL0     C80203   1.046   6.981   4.943 -0.2246  0.6365 -0.0358
  595MOL0     C80204   1.051   6.832   4.969  0.4151  1.0369 -0.6953
  595MOL0     C80205   0.904   6.793   5.013 -0.1280  0.6868 -0.4527
  595MOL0     C80206   0.875   6.640   5.054 -0.2450  0.1182  0.3336
  595MOL0     N80207   0.917   6.551   4.942 -0.3414  0.6014 -0.4679
  595MOL0     C80208   1.045   6.495   4.920  0.3401 -0.0292  0.1449
  595MOL0     C80209   1.033   6.440   4.799  0.7409  0.1237  0.2178
  595MOL0     C80210   1.138   6.397   4.700 -0.6002 -0.3373 -0.3793
  595MOL0     C80211   1.194   6.249   4.707  0.1856  0.3281  0.1664
  595MOL0     C80212   1.349   6.240   4.705  0.5573 -0.4686  0.2437
  595MOL0     C80213   1.422   6.302   4.573  0.5360 -0.2954  0.0197
  595MOL0     O80214   1.385   6.215   4.469  0.4445  0.8208 -0.5310
  595MOL0     C80215   1.410   6.253   4.347  0.7602  1.3285  0.0612
  595MOL0     C80216   1.319   6.232   4.245  0.6672 -0.8786 -0.2164
  595MOL0     C80217   1.337   6.276   4.115 -0.2149 -0.2217  1.2887
  595MOL0     C80218   1.451   6.338   4.069  0.1731 -0.7737  0.1142
  595MOL0     C80219   1.477   6.386   3.934  0.6803  0.1478  0.2038
  595MOL0     O80220   1.365   6.401   3.859  0.3449  0.0596 -0.6548
  595MOL0     C80221   1.387   6.442   3.731  0.0074  0.0576  0.9401
  595MOL0     C80222   1.426   6.349   3.642 -0.3680 -0.2411 -0.1432
  595MOL0     C80223   1.443   6.379   3.507  0.0837  0.2230 -0.4895
  595MOL0     C80224   1.412   6.508   3.462  0.4415  0.1472  0.3125
  595MOL0     O80225   1.441   6.548   3.333 -0.4294  0.1906 -0.0347
  595MOL0     C80226   1.374   6.483   3.231  0.7862 -0.6635  0.5229
  595MOL0     C80227   1.240   6.553   3.202 -0.7850 -0.4718  0.9481
  595MOL0     C80228   1.266   6.700   3.149 -0.1520 -0.0652  0.1157
  595MOL0     C80229   1.136   6.761   3.084 -0.5445  0.0634  0.7262
  595MOL0     C80230   1.156   6.902   3.018 -0.5703  0.5512 -0.5942
  595MOL0     C80231   1.190   7.011   3.126 -0.6221  0.1915 -0.4063
  595MOL0     C80232   1.189   7.150   3.067  0.5957 -0.4203  0.4022
  595MOL0     C80233   1.332   7.202   3.047  0.0588 -0.4064 -0.7374
  595MOL0    Cl80234   1.406   7.203   3.213 -0.1212  0.0344  0.4093
  595MOL0     C80235   1.366   6.608   3.551  0.4385 -0.1057 -0.7481
  595MOL0     C80236   1.355   6.566   3.687 -0.0669 -0.5465 -0.1442
  595MOL0     O80237   1.593   6.380   3.892 -0.2771 -0.1441 -0.0327
  595MOL0     C80238   1.537   6.382   4.175 -0.5667  1.0511 -0.1832
  595MOL0     C80239   1.521   6.333   4.309 -0.0689  0.0651  0.2257
  595MOL0     N80240   0.895   6.436   4.765  0.2792 -0.3583 -0.1891
  595MOL0     N80241   0.826   6.502   4.848 -0.9428  0.2391 -0.4445
  595MOL0     C80242   1.598   7.263   5.185 -0.2469  0.0760  0.7750
  595MOL0     C80243   1.641   7.324   5.299 -0.4647 -0.0250 -0.1648
  595MOL0     C80244   1.657   7.582   5.678 -0.1202  0.1097  0.3436
  595MOL0     C80245   1.723   7.705   5.635  0.0872 -0.8788 -0.9384
  595MOL0     C80246   1.792   7.789   5.719  0.0979 -0.4789 -0.0830
  595MOL0     C80247   1.791   7.753   5.862  0.1414 -0.5782  0.6786
  595MOL0     O80248   1.853   7.845   5.949 -0.0913  0.3636  0.8609
  595MOL0     C80249   1.980   7.794   5.992  0.3308 -0.1940 -0.0174
  595MOL0     C80250   2.107   7.819   5.899 -0.3546  0.4975  0.3127
  595MOL0     C80251   2.112   7.961   5.826  0.1153  1.6645 -1.5447
  595MOL0     C80252   2.253   7.981   5.749 -0.3347 -0.7391  0.4725
  595MOL0     C80253   2.294   7.889   5.638  0.2032 -0.0950 -0.9333
  595MOL0     C80254   2.291   7.805   5.549 -0.8058 -0.3893  0.9242
  595MOL0     C80255   1.713   7.647   5.907 -0.9435 -0.2874  0.3288
  595MOL0     C80256   1.647   7.561   5.818 -0.1978  0.0575  1.0384
  595MOL0     C80257   1.578   7.433   5.877 -0.2041 -0.6175  0.7912
  595MOL0     H80258   1.424   7.578   5.320 -2.3515 -0.5854 -0.7312
  595MOL0     H80259   1.320   7.457   5.125 -0.1648 -0.9953 -0.0422
  595MOL0     H80260   1.576   7.155   4.922  0.3579  0.9220  2.3042
  595MOL0     H80261   1.451   7.063   5.011 -3.2638 -0.7114 -0.6704
  595MOL0     H80262   1.459   7.061   4.735 -0.0081 -1.2353 -0.3463
  595MOL0     H80263   1.356   7.193   4.761 -1.0438  0.7593  2.1928
  595MOL0     H80264   1.295   6.906   4.859 -2.1702 -0.0470 -0.1928
  595MOL0     H80265   1.209   7.012   4.754 -2.3630 -1.8885  0.9237
  595MOL0     H80266   1.229   7.027   5.049 -0.6016  0.2910  0.5911
  595MOL0     H80267   1.152   7.159   4.948 -1.6069 -0.1965  0.8036
  595MOL0     H80268   0.971   7.032   5.005 -0.6465 -0.8629  0.7295
  595MOL0     H80269   1.014   6.981   4.838  2.2725 -2.2495 -0.9437
  595MOL0     H80270   1.090   6.775   4.884  1.5503 -0.5664  0.8462
  595MOL0     H80271   1.121   6.812   5.050  2.1493 -3.2158 -2.9297
  595MOL0     H80272   0.840   6.818   4.928  1.2970 -1.3432 -2.2246
  595MOL0     H80273   0.884   6.849   5.105 -0.2780  2.4978 -1.5504
  595MOL0     H80274   0.939   6.622   5.142 -1.1380 -1.9215  0.6292
  595MOL0     H80275   0.771   6.623   5.083 -0.8215  2.1487 -0.3999
  595MOL0     H80276   1.143   6.508   4.965  0.5015 -1.5786  0.2853
  595MOL0     H80277   1.111   6.435   4.601  0.2895 -0.5544 -0.7165
  595MOL0     H80278   1.221   6.460   4.733  2.8566 -3.3026 -2.5383
  595MOL0     H80279   1.158   6.202   4.799  0.7935 -0.8478 -0.1803
  595MOL0     H80280   1.156   6.195   4.619  1.8051  0.6636 -0.7700
  595MOL0     H80281   1.374   6.135   4.717 -0.9803 -1.2690 -2.6803
  595MOL0     H80282   1.389   6.290   4.794  1.5426 -3.6782  1.7448
  595MOL0     H80283   1.531   6.304   4.584  0.3503  0.1935  2.3057
  595MOL0     H80284   1.381   6.400   4.550  1.3908 -0.2968 -1.6245
  595MOL0     H80285   1.231   6.178   4.280  0.4577 -1.1762 -1.1912
  595MOL0     H80286   1.273   6.235   4.038 -1.1349  0.0795  1.8818
  595MOL0     H80287   1.448   6.255   3.692  4.4870  1.3614  1.2317
  595MOL0     H80288   1.481   6.300   3.442  3.3239 -0.1585  1.6101
  595MOL0     H80289   1.440   6.496   3.144  1.0838  2.3931  1.0944
  595MOL0     H80290   1.370   6.375   3.251 -0.2829 -0.2438  2.8972
  595MOL0     H80291   1.196   6.501   3.116 -0.5178  2.2410 -0.9616
  595MOL0     H80292   1.187   6.548   3.298  2.8292  0.9951  3.2471
  595MOL0     H80293   1.302   6.769   3.226  2.4260 -2.3741  1.1444
  595MOL0     H80294   1.348   6.695   3.077 -1.8273  1.0088 -1.9957
  595MOL0     H80295   1.057   6.764   3.160 -1.3115  0.8556 -0.0842
  595MOL0     H80296   1.105   6.703   2.997  2.0713  3.5640 -2.9420
  595MOL0     H80297   1.063   6.930   2.967 -0.4742  2.0778  0.0063
  595MOL0     H80298   1.239   6.903   2.947  1.2168  0.2330  1.4024
  595MOL0     H80299   1.122   6.999   3.211 -1.1299  0.7981 -0.7259
  595MOL0     H80300   1.289   6.990   3.168 -0.6091 -1.3980 -1.1834
  595MOL0     H80301   1.126   7.212   3.132 -2.7023 -1.1962 -1.7499
  595MOL0     H80302   1.124   7.142   2.979  1.5344 -0.5684 -0.2863
  595MOL0     H80303   1.395   7.139   2.983  1.1408 -0.1225  0.0288
  595MOL0     H80304   1.317   7.302   3.006 -1.0158 -0.8879 -1.5844
  595MOL0     H80305   1.368   6.708   3.507  3.4576 -0.7841 -2.4859
  595MOL0     H80306   1.314   6.633   3.761 -0.0622 -1.1093  0.3727
  595MOL0     H80307   1.635   6.421   4.150  1.0153 -1.0325  2.2390
  595MOL0     H80308   1.606   6.343   4.377 -1.1490 -0.9047  1.7832
  595MOL0     H80309   1.655   7.177   5.153  0.1317  0.8154 -0.6311
  595MOL0     H80310   1.733   7.280   5.337  1.5899  3.1248 -1.1221
  595MOL0     H80311   1.725   7.730   5.529  1.6503 -1.4030 -1.0577
  595MOL0     H80312   1.840   7.869   5.665 -3.6435  0.1466 -2.8912
  595MOL0     H80313   1.976   7.687   6.013  1.2628 -0.1624  0.3490
  595MOL0     H80314   2.004   7.848   6.085 -3.2029  0.2828  0.7694
  595MOL0     H80315   2.092   7.745   5.820  0.3326  1.6763 -0.9602
  595MOL0     H80316   2.195   7.804   5.962 -1.4976  0.3701  1.9314
  595MOL0     H80317   2.081   8.036   5.899 -2.2577  1.1408 -1.9429
  595MOL0     H80318   2.039   7.962   5.744 -1.5394 -3.1532 -0.4380
  595MOL0     H80319   2.241   8.081   5.708 -0.8038 -0.5034  1.1566
  595MOL0     H80320   2.335   7.966   5.820  2.2728 -1.9799 -2.5616
  595MOL0     H80321   2.300   7.736   5.468  2.2893 -0.4639  1.2316
  595MOL0     H80322   1.717   7.624   6.013  1.5913  0.5362  0.4811
  595MOL0     H80323   1.476   7.426   5.839  0.5498  1.6867 -1.9732
  595MOL0     H80324   1.645   7.350   5.853  1.4018  0.9176 -0.2896
  595MOL0     H80325   1.588   7.442   5.986  3.4221  2.4209  0.4175
  596MOL0     O80326   3.160   6.991   5.798  0.5475  0.3112  0.2257
  596MOL0     C80327   3.193   6.875   5.827 -0.8018  0.2743 -0.5082
  596MOL0     O80328   3.321   6.826   5.824 -0.4937  0.4889  0.0647
  596MOL0     C80329   3.434   6.902   5.790 -0.0833  0.2196 -0.2652
  596MOL0     C80330   3.505   6.898   5.660  0.3081 -0.2729  0.8326
  596MOL0     C80331   3.618   6.986   5.640 -0.9741  0.2814  0.0535
  596MOL0     C80332   3.647   7.090   5.732 -1.4423  0.0047  0.1703
  596MOL0     O80333   3.743   7.190   5.715  0.2381  0.1370  1.3757
  596MOL0     C80334   3.765   7.243   5.589 -0.0830 -0.2714  0.2339
  596MOL0     C80335   3.656   7.329   5.516 -0.4885  0.7699  0.7144
  596MOL0     C80336   3.678   7.482   5.559 -0.0081  0.6104  0.6273
  596MOL0     C80337   3.554   7.566   5.521  0.3935  0.5011 -0.5195
  596MOL0     C80338   3.562   7.712   5.568 -0.9612  0.3438  0.8838
  596MOL0     C80339   3.484   7.800   5.479 -0.5364  0.3691  0.0260
  596MOL0     C80340   3.341   7.756   5.435 -0.0294 -0.1569 -0.8063
  596MOL0     C80341   3.249   7.879   5.431 -0.8576  0.2441  0.1140
  596MOL0     N80342   3.206   7.932   5.560 -0.3376  0.2543 -0.2101
  596MOL0     C80343   3.078   7.957   5.573  0.5535 -1.0562  0.0759
  596MOL0     C80344   3.059   8.031   5.690 -0.5582  0.2104  0.2067
  596MOL0     C80345   2.929   8.088   5.735 -0.1955  0.2300  1.1367
  596MOL0     C80346   2.947   8.233   5.765  0.1307 -0.1104  0.3215
  596MOL0     C80347   2.834   8.284   5.843  0.1410 -1.1477 -0.4239
  596MOL0     C80348   2.854   8.424   5.900  0.1313  0.2644  0.5432
  596MOL0     O80349   2.953   8.432   6.004 -0.0282  0.0826 -0.5229
  596MOL0     C80350   2.951   8.549   6.073  0.5846  0.8521 -0.1739
  596MOL0     C80351   2.943   8.554   6.210 -0.3210 -0.6134 -0.2122
  596MOL0     C80352   2.918   8.675   6.284 -0.0174 -0.1300  0.5244
  596MOL0     C80353   2.916   8.795   6.210 -0.4719 -0.2611 -0.1625
  596MOL0     C80354   2.907   8.930   6.267  0.1070 -0.7483  0.4536
  596MOL0     O80355   2.915   8.932   6.405  0.1407  0.0435 -0.0636
  596MOL0     C80356   2.838   9.028   6.475 -0.7294  0.9687  0.6273
  596MOL0     C80357   2.711   9.052   6.444 -0.3230 -0.2310 -0.4258
  596MOL0     C80358   2.628   9.131   6.521  0.0444  0.3949 -0.0817
  596MOL0     C80359   2.686   9.196   6.632  0.4022 -0.8471 -0.7376
  596MOL0     O80360   2.600   9.283   6.696  0.9902  0.0422 -0.3443
  596MOL0     C80361   2.649   9.401   6.760 -0.1825  0.3973 -0.4467
  596MOL0     C80362   2.540   9.498   6.796  0.7885 -0.3568  0.5876
  596MOL0     C80363   2.485   9.572   6.671  0.5013  0.0066 -0.5967
  596MOL0     C80364   2.379   9.682   6.697 -0.6248  0.4650  0.3185
  596MOL0     C80365   2.300   9.701   6.563  0.3984 -0.0527 -0.0836
  596MOL0     C80366   2.167   9.759   6.596 -0.0228 -0.3527 -0.0718
  596MOL0     C80367   2.119   9.813   6.458 -0.0633  0.1879 -0.5722
  596MOL0     C80368   1.974   9.853   6.480  0.5192 -0.4992  0.1794
  596MOL0    Cl80369   1.867   9.706   6.478 -0.3764  0.2321 -0.1429
  596MOL0     C80370   2.820   9.173   6.664  0.7785 -0.4282 -0.1281
  596MOL0     C80371   2.905   9.100   6.583  0.0409  0.5591 -0.0002
  596MOL0     O80372   2.883   9.025   6.197  0.0838  0.3911  0.1720
  596MOL0     C80373   2.937   8.789   6.063  1.2614  0.3177  0.0537
  596MOL0     C80374   2.960   8.669   5.998  0.3523 -0.0453 -1.5685
  596MOL0     N80375   3.191   8.033   5.750 -0.0890 -0.2594  0.2011
  596MOL0     N80376   3.275   7.971   5.671 -0.2407 -0.2540 -0.4330
  596MOL0     C80377   3.593   7.070   5.860  1.1010 -0.5956  0.5311
  596MOL0     C80378   3.486   6.984   5.886 -0.3039 -1.1981 -0.4227
  596MOL0     C80379   3.092   6.766   5.859  0.0513  0.5999 -0.2150
  596MOL0     C80380   3.122   6.669   5.952  0.7717  0.2928  0.1583
  596MOL0     C80381   3.033   6.569   5.982 -0.9211 -0.6505 -0.3672
  596MOL0     C80382   2.909   6.561   5.935  0.1422  0.8938  0.1601
  596MOL0     O80383   2.814   6.460   5.954  0.0994  0.4869  0.4556
  596MOL0     C80384   2.850   6.333   6.003 -0.1640 -0.2633  0.2126
  596MOL0     C80385   2.797   6.213   5.930 -0.4630 -0.2467  0.8833
  596MOL0     C80386   2.718   6.264   5.807  0.4238  0.9169 -0.3183
  596MOL0     C80387   2.642   6.142   5.748  0.1892  0.1092  0.4603
  596MOL0     C80388   2.666   6.134   5.605 -0.3124 -1.4002  0.6804
  596MOL0     C80389   2.704   6.121   5.486 -0.6114 -0.1473 -0.1295
  596MOL0     C80390   2.868   6.667   5.854  0.0015 -0.3240 -0.8319
  596MOL0     C80391   2.953   6.775   5.820  0.5192 -0.2252 -0.2118
  596MOL0     C80392   2.893   6.889   5.737 -0.4478 -0.2536  0.1747
  596MOL0     H80393   3.489   6.820   5.587 -2.6774 -1.4942  2.5749
  596MOL0     H80394   3.676   6.959   5.553 -0.0292  4.9910 -1.0408
  596MOL0     H80395   3.863   7.289   5.603  0.0334 -1.1968  2.8604
  596MOL0     H80396   3.782   7.157   5.524  0.1981  1.1166 -1.6478
  596MOL0     H80397   3.557   7.294   5.545 -1.5585  2.6898 -0.4466
  596MOL0     H80398   3.668   7.319   5.408 -0.2280 -3.0029  0.9495
  596MOL0     H80399   3.770   7.513   5.510 -0.2395 -2.4905 -2.1357
  596MOL0     H80400   3.691   7.494   5.667 -2.0232 -0.3152  1.0369
  596MOL0     H80401   3.542   7.562   5.412 -0.5690 -1.7028 -0.3815
  596MOL0     H80402   3.468   7.520   5.571 -0.6381  2.4083 -0.4294
  596MOL0     H80403   3.519   7.711   5.669 -3.8890  0.5023 -0.2825
  596MOL0     H80404   3.664   7.745   5.590 -0.7247 -1.0083  1.9948
  596MOL0     H80405   3.481   7.892   5.537 -1.3007 -0.0825  0.7225
  596MOL0     H80406   3.545   7.830   5.393 -0.2624  3.3455  1.1437
  596MOL0     H80407   3.303   7.690   5.514  0.3298  0.4866 -0.0730
  596MOL0     H80408   3.340   7.707   5.338  0.6862 -0.0211 -0.8906
  596MOL0     H80409   3.303   7.955   5.375 -0.8968  2.6326  3.0638
  596MOL0     H80410   3.169   7.850   5.363  0.5618  3.4478 -3.2347
  596MOL0     H80411   3.002   7.931   5.499  0.1959 -0.8730  0.3736
  596MOL0     H80412   2.855   8.077   5.656  2.7258 -1.4589 -1.5977
  596MOL0     H80413   2.882   8.035   5.818 -0.0925 -2.9025 -0.6787
  596MOL0     H80414   3.035   8.242   5.830  0.5277  0.8471 -0.3374
  596MOL0     H80415   2.961   8.280   5.668  1.1375 -2.8154 -0.9465
  596MOL0     H80416   2.820   8.224   5.934 -0.7014 -2.1504 -1.1995
  596MOL0     H80417   2.740   8.276   5.788 -0.2988 -2.9819  0.5156
  596MOL0     H80418   2.763   8.470   5.940  0.8058  2.4628 -0.2945
  596MOL0     H80419   2.886   8.490   5.819 -0.4585  0.5573  0.5437
  596MOL0     H80420   2.927   8.461   6.264 -3.6561  0.8652  1.6618
  596MOL0     H80421   2.901   8.663   6.390 -3.3307  1.0177  0.2291
  596MOL0     H80422   2.676   8.996   6.358 -1.4907 -2.3554  1.3241
  596MOL0     H80423   2.525   9.142   6.489 -0.1629  4.9368  1.5087
  596MOL0     H80424   2.702   9.376   6.852 -0.9598  0.5330  0.0419
  596MOL0     H80425   2.717   9.435   6.681  0.3439 -1.2489 -0.7405
  596MOL0     H80426   2.459   9.446   6.848  1.6636 -1.2491  1.0647
  596MOL0     H80427   2.583   9.574   6.862 -0.2063  0.4862  0.2894
  596MOL0     H80428   2.557   9.626   6.608  3.4384  0.2526  2.6744
  596MOL0     H80429   2.435   9.496   6.611 -1.0815 -0.2406  0.9739
  596MOL0     H80430   2.428   9.778   6.717 -0.8738  0.5519  0.5231
  596MOL0     H80431   2.310   9.654   6.777 -3.0407 -1.2550 -2.2101
  596MOL0     H80432   2.277   9.600   6.526  0.6530  0.6434 -2.2717
  596MOL0     H80433   2.358   9.736   6.477 -0.7145 -3.5806 -2.5137
  596MOL0     H80434   2.099   9.683   6.633 -2.4625  0.6585 -2.1644
  596MOL0     H80435   2.183   9.852   6.653 -3.5533  0.4777 -0.2304
  596MOL0     H80436   2.133   9.752   6.369  2.4145  1.4602 -1.1577
  596MOL0     H80437   2.170   9.910   6.452  3.3286 -1.1833  2.1258
  596MOL0     H80438   1.968   9.912   6.572  0.1637 -1.8978  1.0826
  596MOL0     H80439   1.935   9.922   6.405  2.1343 -0.8404 -1.0307
  596MOL0     H80440   2.855   9.204   6.762 -0.6225 -0.4850  0.4281
  596MOL0     H80441   3.005   9.065   6.608 -0.6310 -2.3987 -1.0618
  596MOL0     H80442   2.942   8.876   5.998 -0.0913 -1.7086 -2.9888
  596MOL0     H80443   2.984   8.674   5.893  4.9131 -0.2623 -0.7672
  596MOL0     H80444   3.624   7.131   5.944  4.5944 -2.3050  0.6216
  596MOL0     H80445   3.455   6.986   5.990 -0.4112  1.3872 -0.4410
  596MOL0     H80446   3.223   6.665   5.992  0.6226  4.0940  1.2700
  596MOL0     H80447   3.077   6.488   6.039  1.6421 -0.0103 -1.3226
  596MOL0     H80448   2.807   6.329   6.103  2.5774 -1.0523  1.4697
  596MOL0     H80449   2.958   6.314   6.009 -0.6112 -3.0539  5.3369
  596MOL0     H80450   2.733   6.150   5.991 -1.5416  0.4977  0.5617
  596MOL0     H80451   2.874   6.154   5.879 -0.3014  2.3011 -2.2036
  596MOL0     H80452   2.788   6.317   5.741 -2.8486  2.7290 -2.6379
  596MOL0     H80453   2.643   6.340   5.833 -1.2411  0.2310 -2.7851
  596MOL0     H80454   2.690   6.053   5.789  5.0927  2.6423  1.0080
  596MOL0     H80455   2.536   6.135   5.774  0.6158  0.9608  2.6506
  596MOL0     H80456   2.726   6.104   5.382  2.2537 -0.5331  0.4432
  596MOL0     H80457   2.764   6.677   5.826  0.1318 -1.4925 -1.8153
  596MOL0     H80458   2.821   6.850   5.665  0.2243 -0.6339 -0.3105
  596MOL0     H80459   2.856   6.972   5.798  1.2118  1.7151 -1.3659
  596MOL0     H80460   2.978   6.931   5.683  2.1959  1.5865  5.0561
  597MOL0     O80461   9.713   3.006   6.568 -0.0091  0.1455  0.5882
  597MOL0     C80462   9.729   3.086   6.658  0.3128  0.2932  0.2202
  597MOL0     O80463   9.695   3.061   6.791  0.1478 -0.1257 -0.3660
  597MOL0     C80464   9.663   2.939   6.835 -0.7550  0.5801 -1.1153
  597MOL0     C80465   9.555   2.924   6.921  0.7881  0.0501 -0.9490
  597MOL0     C80466   9.529   2.793   6.982 -0.0831 -0.2915  0.5412
  597MOL0     C80467   9.591   2.679   6.939  0.2984 -0.0407 -1.1886
  597MOL0     O80468   9.556   2.557   7.001 -0.1491 -0.3439  0.3363
  597MOL0     C80469   9.524   2.455   6.908  0.0629 -0.2196  0.1375
  597MOL0     C80470   9.467   2.328   6.987 -0.2290 -0.5981  0.5695
  597MOL0     C80471   9.429   2.232   6.867 -0.5372 -1.0705 -0.1132
  597MOL0     C80472   9.360   2.106   6.942 -0.6904 -0.5868 -0.6956
  597MOL0     C80473   9.307   2.004   6.832  0.1800  0.4824  0.3146
  597MOL0     C80474   9.230   1.881   6.876  0.0123  0.1287  0.5073
  597MOL0     C80475   9.216   1.790   6.758  0.4927  0.8790  0.2965
  597MOL0     C80476   9.151   1.656   6.790  0.1281  0.0784 -0.0944
  597MOL0     N80477   9.155   1.559   6.677  0.2628 -0.1775  0.3129
  597MOL0     C80478   9.260   1.471   6.660  0.3666 -0.1516  0.4191
  597MOL0     C80479   9.219   1.395   6.552 -0.6059 -0.0356 -0.4049
  597MOL0     C80480   9.285   1.273   6.490 -0.4190 -0.1506 -0.2033
  597MOL0     C80481   9.243   1.138   6.552  0.3119  1.0202  0.3612
  597MOL0     C80482   9.289   1.113   6.690 -0.0503 -0.4984  0.0408
  597MOL0     C80483   9.430   1.081   6.727 -0.3480  0.0593  0.5276
  597MOL0     O80484   9.525   1.188   6.686 -0.3451  0.1494 -0.0385
  597MOL0     C80485   9.543   1.295   6.770 -0.2134 -0.4281 -0.5388
  597MOL0     C80486   9.619   1.399   6.714  0.0546  0.8335  0.5352
  597MOL0     C80487   9.661   1.508   6.794  0.7740 -0.2672  1.0153
  597MOL0     C80488   9.611   1.531   6.918  1.3566  0.3743  0.0715
  597MOL0     C80489   9.625   1.673   6.985 -0.6085 -0.0343 -0.4232
  597MOL0     O80490   9.591   1.694   7.120 -0.4806  0.0917  0.0159
  597MOL0     C80491   9.590   1.811   7.176 -0.2373 -0.5827  0.2025
  597MOL0     C80492   9.463   1.863   7.210  0.1119 -0.2385 -0.0784
  597MOL0     C80493   9.434   1.994   7.268 -0.2943 -1.2578 -0.0904
  597MOL0     C80494   9.542   2.076   7.301  0.2694 -0.2514  0.4157
  597MOL0     O80495   9.523   2.214   7.324 -0.4030  0.4223  0.4026
  597MOL0     C80496   9.632   2.284   7.374  0.6785 -0.2337  1.3507
  597MOL0     C80497   9.686   2.372   7.262 -0.3887 -0.4658 -0.6466
  597MOL0     C80498   9.818   2.437   7.299  0.2169  0.0455  0.5602
  597MOL0     C80499   9.918   2.461   7.179  0.2511  0.1061 -0.8295
  597MOL0     C80500   9.968   2.334   7.110 -0.6262  0.1760  0.0021
  597MOL0     C80501   9.917   2.303   6.971 -0.6874  0.5354 -0.1529
  597MOL0     C80502   9.934   2.158   6.932 -0.6733 -0.4518  0.1498
  597MOL0     C80503   9.846   2.117   6.818 -0.1664 -0.8076  1.0719
  597MOL0    Cl80504   9.869   2.224   6.669  0.1911  0.5550  0.5375
  597MOL0     C80505   9.669   2.022   7.280  0.1323  0.6735 -0.7527
  597MOL0     C80506   9.694   1.886   7.225 -0.6072 -0.2663  0.0015
  597MOL0     O80507   9.669   1.767   6.913 -0.2447 -0.4361 -0.0058
  597MOL0     C80508   9.542   1.423   6.977  0.2884  0.0027 -0.5206
  597MOL0     C80509   9.499   1.316   6.900  0.2294 -0.5099  0.1789
  597MOL0     N80510   9.095   1.447   6.512  0.8110  0.5180 -0.1145
  597MOL0     N80511   9.060   1.532   6.587  0.6276 -0.8524  0.7124
  597MOL0     C80512   9.706   2.700   6.864  0.8499  0.0957  1.2437
  597MOL0     C80513   9.742   2.828   6.814 -0.1107  0.6825  0.1231
  597MOL0     C80514   9.757   3.234   6.631  0.1274  0.6676 -0.2087
  597MOL0     C80515   9.769   3.326   6.736  0.6829 -0.3176  0.7748
  597MOL0     C80516   9.823   3.458   6.716  0.0481  0.4583 -0.0971
  597MOL0     C80517   9.861   3.507   6.597 -0.2335  0.0326 -0.1411
  597MOL0     O80518   9.928   3.628   6.613  0.1764 -0.0531 -0.4539
  597MOL0     C80519   9.984   3.679   6.492  0.2507 -0.2501  1.1582
  597MOL0     C80520  10.057   3.799   6.517 -1.7038 -0.6681  0.0323
  597MOL0     C80521   9.969   3.925   6.519 -0.4338 -0.1509  0.2674
  597MOL0     C80522  10.043   4.051   6.563  0.6122  0.3979 -0.0306
  597MOL0     C80523   9.985   4.169   6.495  0.1734  0.3289  0.2486
  597MOL0     C80524   9.947   4.270   6.441 -0.6958 -0.0519 -0.2785
  597MOL0     C80525   9.835   3.418   6.489  1.2006 -0.0581 -0.3408
  597MOL0     C80526   9.789   3.289   6.506 -0.1760 -0.6474  0.2600
  597MOL0     C80527   9.754   3.211   6.385  0.3734  1.2427  0.2553
  597MOL0     H80528   9.508   3.017   6.952  0.8111 -0.7095  1.6179
  597MOL0     H80529   9.452   2.782   7.057 -1.3870  0.3926 -0.6614
  597MOL0     H80530   9.435   2.484   6.853 -0.8789 -2.2707  0.4919
  597MOL0     H80531   9.611   2.434   6.844 -0.5731 -0.4499 -0.6598
  597MOL0     H80532   9.381   2.358   7.047 -1.5414  1.1054 -1.9549
  597MOL0     H80533   9.555   2.289   7.039  2.4881  4.1915  0.1957
  597MOL0     H80534   9.523   2.212   6.815  0.6955 -0.5036  1.7889
  597MOL0     H80535   9.365   2.284   6.795  1.8298  0.6929 -1.0545
  597MOL0     H80536   9.430   2.060   7.013 -0.6310 -1.0459 -1.0420
  597MOL0     H80537   9.269   2.133   6.996 -1.2381 -0.8782 -1.4487
  597MOL0     H80538   9.239   2.051   6.761 -3.2053 -2.3185  1.3870
  597MOL0     H80539   9.394   1.973   6.772 -1.2292  0.4890 -1.8134
  597MOL0     H80540   9.273   1.836   6.966 -0.5743 -0.4296  0.5184
  597MOL0     H80541   9.128   1.907   6.907 -0.3751 -0.3066 -0.3646
  597MOL0     H80542   9.312   1.778   6.706 -0.8533  0.4782 -2.2300
  597MOL0     H80543   9.148   1.838   6.687 -2.5690 -0.9867  1.7773
  597MOL0     H80544   9.200   1.606   6.874 -1.0431  1.1103  1.2459
  597MOL0     H80545   9.045   1.670   6.811 -0.0995 -0.1428 -1.0562
  597MOL0     H80546   9.339   1.454   6.733 -0.3114 -0.4157  1.1095
  597MOL0     H80547   9.252   1.280   6.386  0.6094  0.6886 -0.5003
  597MOL0     H80548   9.393   1.289   6.492 -0.3617 -0.1503 -1.9270
  597MOL0     H80549   9.135   1.126   6.536  0.3318 -1.3330  1.6843
  597MOL0     H80550   9.290   1.062   6.489 -0.8942  2.6507 -2.7336
  597MOL0     H80551   9.230   1.023   6.707 -1.4644  0.2697 -0.7136
  597MOL0     H80552   9.246   1.200   6.741 -1.7352  0.2945 -2.5491
  597MOL0     H80553   9.457   0.993   6.667  0.2735  2.0162 -2.2272
  597MOL0     H80554   9.439   1.053   6.833  2.1086 -1.8646 -0.0766
  597MOL0     H80555   9.636   1.410   6.607 -0.6700  1.7022  0.4945
  597MOL0     H80556   9.721   1.586   6.746  1.2373  0.4084  2.6165
  597MOL0     H80557   9.375   1.806   7.181  1.0960 -0.8560 -2.0173
  597MOL0     H80558   9.330   2.024   7.279 -0.4198 -1.3606 -0.8905
  597MOL0     H80559   9.581   2.359   7.435  1.4538 -0.4284  2.2513
  597MOL0     H80560   9.687   2.229   7.451 -0.5253 -0.7440  1.8539
  597MOL0     H80561   9.703   2.311   7.173  0.8131  0.2973 -0.9653
  597MOL0     H80562   9.616   2.449   7.228 -0.5408  0.1927  1.0608
  597MOL0     H80563   9.823   2.529   7.358 -0.4259  1.6054 -1.6835
  597MOL0     H80564   9.867   2.361   7.360 -1.3490 -2.8767 -1.6018
  597MOL0     H80565  10.004   2.517   7.217  0.1150  0.0491 -0.4289
  597MOL0     H80566   9.867   2.527   7.108 -1.6568  1.2709  1.4414
  597MOL0     H80567   9.949   2.254   7.182 -0.1914  2.5128  2.9176
  597MOL0     H80568  10.076   2.345   7.098 -0.0982 -1.4301  2.5848
  597MOL0     H80569   9.810   2.323   6.963 -1.1531 -0.6268  2.2523
  597MOL0     H80570   9.975   2.367   6.904  0.6822  0.3363  0.7970
  597MOL0     H80571   9.908   2.100   7.021  1.2094 -0.0079  1.0340
  597MOL0     H80572  10.041   2.144   6.914 -0.6759  0.3568 -0.5620
  597MOL0     H80573   9.874   2.015   6.788  0.1851  0.1823 -2.2863
  597MOL0     H80574   9.743   2.126   6.853  0.1509  2.3998  1.4350
  597MOL0     H80575   9.756   2.086   7.285  0.3098  0.3844  0.1976
  597MOL0     H80576   9.798   1.854   7.220 -1.0702 -1.6904 -3.1174
  597MOL0     H80577   9.494   1.436   7.073 -1.8086  1.1915 -1.6447
  597MOL0     H80578   9.440   1.245   6.956 -1.0715  1.2495  1.1186
  597MOL0     H80579   9.778   2.622   6.839 -1.6049 -1.6295 -1.1020
  597MOL0     H80580   9.836   2.852   6.765  1.1458  0.2496  2.1990
  597MOL0     H80581   9.754   3.318   6.843  2.7783  1.3005  1.2519
  597MOL0     H80582   9.830   3.525   6.802  0.3503 -1.7799  1.7191
  597MOL0     H80583   9.908   3.703   6.418  3.3236 -1.0836 -2.5776
  597MOL0     H80584  10.056   3.611   6.444  0.3543  3.1531 -4.3608
  597MOL0     H80585  10.130   3.820   6.439  0.4094  3.0527  2.6656
  597MOL0     H80586  10.127   3.785   6.601  2.5523  2.2818 -2.6280
  597MOL0     H80587   9.884   3.899   6.582 -0.2809  0.8971  0.9305
  597MOL0     H80588   9.926   3.944   6.420 -0.8886  3.5541  1.0559
  597MOL0     H80589  10.017   4.065   6.669 -1.6759  0.0477 -0.5092
  597MOL0     H80590  10.150   4.043   6.541  0.4412  1.2253 -1.2141
  597MOL0     H80591   9.896   4.337   6.375  0.2727 -0.8739 -1.9443
  597MOL0     H80592   9.859   3.442   6.386  2.6723 -2.6345 -0.6898
  597MOL0     H80593   9.741   3.275   6.298 -2.6228  0.6176  0.1373
  597MOL0     H80594   9.819   3.124   6.378 -2.8541 -1.6528  2.7646
  597MOL0     H80595   9.656   3.164   6.399  0.2974  0.9441 -1.1460
  598MOL0     O80596   0.174   5.530   9.583  0.1732 -0.3276  0.3945
  598MOL0     C80597   0.219   5.446   9.503 -0.4621 -0.0907 -0.4534
  598MOL0     O80598   0.270   5.467   9.380  0.0643  0.8948  0.7151
  598MOL0     C80599   0.286   5.592   9.329  0.1824  0.3770  0.0263
  598MOL0     C80600   0.301   5.592   9.189 -0.1327  0.1334 -0.8163
  598MOL0     C80601   0.285   5.714   9.123 -0.1361 -0.2078 -0.1642
  598MOL0     C80602   0.283   5.835   9.187  0.1508  0.1017  0.8990
  598MOL0     O80603   0.289   5.947   9.104 -0.2770  0.1177  0.1793
  598MOL0     C80604   0.201   6.060   9.111  0.3418 -0.3693 -1.1805
  598MOL0     C80605   0.202   6.133   8.973 -0.5346 -0.3918  0.1040
  598MOL0     C80606   0.095   6.233   8.959 -0.1709  0.3734  0.0824
  598MOL0     C80607   0.114   6.319   8.831  1.0167 -0.6088 -0.6220
  598MOL0     C80608   0.012   6.433   8.837  0.5312  0.8123  0.6330
  598MOL0     C80609   0.001   6.527   8.716  0.5130 -0.4570  0.3182
  598MOL0     C80610  -0.104   6.646   8.734 -0.5639  0.2577 -0.1811
  598MOL0     C80611  -0.099   6.748   8.629  0.4739 -0.9413  0.4052
  598MOL0     N80612  -0.218   6.829   8.627 -0.1243  0.5337  0.2989
  598MOL0     C80613  -0.329   6.795   8.550 -0.6987  0.1513 -0.4148
  598MOL0     C80614  -0.434   6.831   8.622  0.4325  0.2063  0.6039
  598MOL0     C80615  -0.574   6.818   8.574 -0.3487  0.0140  0.1755
  598MOL0     C80616  -0.685   6.833   8.684 -0.2211 -0.7378  0.7693
  598MOL0     C80617  -0.668   6.737   8.800 -0.2547  0.1131  0.4167
  598MOL0     C80618  -0.654   6.583   8.771 -0.7587  0.6801  0.4434
  598MOL0     O80619  -0.660   6.504   8.893  0.3498 -0.6320 -0.2932
  598MOL0     C80620  -0.790   6.490   8.943  0.0686 -0.7226 -0.4928
  598MOL0     C80621  -0.914   6.552   8.898  0.1306  0.0759 -0.1425
  598MOL0     C80622  -1.036   6.515   8.955 -0.0460  0.9070 -0.0588
  598MOL0     C80623  -1.048   6.427   9.066 -0.9347 -0.1804 -0.3328
  598MOL0     C80624  -1.171   6.392   9.143  0.1278 -0.4541  0.0844
  598MOL0     O80625  -1.263   6.489   9.180 -0.5685  0.5898 -0.1585
  598MOL0     C80626  -1.357   6.469   9.279  0.6808  0.0630 -0.5897
  598MOL0     C80627  -1.350   6.395   9.397 -1.0720  0.5565 -0.6299
  598MOL0     C80628  -1.454   6.396   9.498 -0.1547  0.2924  0.7576
  598MOL0     C80629  -1.570   6.466   9.476  0.0327  0.2047  0.0811
  598MOL0     O80630  -1.681   6.456   9.553 -0.0240  0.2559 -0.4197
  598MOL0     C80631  -1.658   6.498   9.690 -0.6108 -0.4413  0.4457
  598MOL0     C80632  -1.779   6.516   9.765 -0.2904  0.2686 -0.7613
  598MOL0     C80633  -1.753   6.596   9.891 -0.9801 -0.6300 -0.4463
  598MOL0     C80634  -1.627   6.549   9.975  0.2694 -0.1070 -0.9589
  598MOL0     C80635  -1.609   6.599  10.116 -0.3588 -0.6816 -0.6024
  598MOL0     C80636  -1.533   6.743  10.099  0.6794  0.5261 -0.5888
  598MOL0     C80637  -1.523   6.792  10.243  0.5347  0.3262  0.6709
  598MOL0     C80638  -1.404   6.888  10.283  0.4591  0.7642 -0.6539
  598MOL0    Cl80639  -1.386   6.880  10.464 -0.4203 -0.0220  0.2327
  598MOL0     C80640  -1.574   6.551   9.360  0.5050 -0.1166 -0.1331
  598MOL0     C80641  -1.468   6.547   9.265 -0.2564  0.8133  0.1926
  598MOL0     O80642  -1.170   6.275   9.188  0.9298  0.8054  0.5977
  598MOL0     C80643  -0.924   6.377   9.118  0.2236  0.8351 -0.8142
  598MOL0     C80644  -0.804   6.404   9.047  0.3002  0.9158 -0.2952
  598MOL0     N80645  -0.386   6.889   8.742  0.3563 -0.6853 -0.1532
  598MOL0     N80646  -0.264   6.893   8.737 -0.2929  0.2183  0.1199
  598MOL0     C80647   0.296   5.833   9.324 -0.1873  0.0993 -0.2763
  598MOL0     C80648   0.292   5.716   9.400 -0.0010  0.2374  0.2488
  598MOL0     C80649   0.218   5.310   9.569 -0.2060  0.3975  0.1663
  598MOL0     C80650   0.194   5.307   9.713  1.4438  1.0625  0.4969
  598MOL0     C80651   0.179   5.174   9.763 -0.8840 -1.1177 -0.2967
  598MOL0     C80652   0.216   5.055   9.695  0.0529 -0.4711 -1.7664
  598MOL0     O80653   0.222   4.932   9.760 -0.2293 -0.0268  0.2699
  598MOL0     C80654   0.198   4.810   9.702 -0.4397 -0.1738 -0.2238
  598MOL0     C80655   0.198   4.678   9.797 -0.0732  0.0943  0.3049
  598MOL0     C80656   0.150   4.547   9.712 -0.5531 -0.1870 -0.1729
  598MOL0     C80657   0.113   4.440   9.819 -0.1710 -0.0461 -0.7431
  598MOL0     C80658   0.226   4.400   9.903  0.6235 -0.6093 -0.5842
  598MOL0     C80659   0.319   4.350   9.963 -0.3039 -0.8852  0.3781
  598MOL0     C80660   0.270   5.063   9.569 -0.2912  0.0768  1.1163
  598MOL0     C80661   0.256   5.188   9.496  0.1159 -0.1277  0.0074
  598MOL0     C80662   0.270   5.177   9.348 -0.0090  0.2157  0.2664
  598MOL0     H80663   0.316   5.499   9.134 -0.9790 -0.3741 -0.2129
  598MOL0     H80664   0.271   5.719   9.015 -0.8533 -0.2536 -0.0795
  598MOL0     H80665   0.096   6.035   9.128 -0.5517  1.7121 -3.1393
  598MOL0     H80666   0.231   6.118   9.199 -1.1127 -0.0558 -0.8578
  598MOL0     H80667   0.176   6.048   8.909 -1.6097  1.0077 -1.4057
  598MOL0     H80668   0.300   6.174   8.948 -1.5447  5.9028  4.1362
  598MOL0     H80669   0.096   6.308   9.039  3.8186  1.3220 -0.6786
  598MOL0     H80670  -0.001   6.181   8.958 -0.7622  1.3977  0.7608
  598MOL0     H80671   0.215   6.362   8.837  0.4684  0.7591 -0.9696
  598MOL0     H80672   0.097   6.262   8.739 -0.1691 -3.5548  1.2825
  598MOL0     H80673  -0.085   6.389   8.863  0.9341 -0.7517 -0.3589
  598MOL0     H80674   0.036   6.490   8.927  0.1100  1.5690  0.2763
  598MOL0     H80675   0.101   6.568   8.702  0.6225 -0.0475  2.0790
  598MOL0     H80676  -0.023   6.467   8.628 -1.4835  0.8482 -0.1001
  598MOL0     H80677  -0.085   6.694   8.831  0.3424  1.6011 -1.0050
  598MOL0     H80678  -0.204   6.600   8.733 -1.9573  3.0430 -2.7616
  598MOL0     H80679  -0.005   6.805   8.633  1.6546 -2.6060 -1.6000
  598MOL0     H80680  -0.088   6.685   8.541 -0.8990 -0.7437  0.0745
  598MOL0     H80681  -0.331   6.748   8.452 -0.4776 -0.4902 -0.1177
  598MOL0     H80682  -0.592   6.897   8.501  2.1758 -1.0982 -1.8277
  598MOL0     H80683  -0.590   6.716   8.536 -1.0843  0.6538 -1.2876
  598MOL0     H80684  -0.677   6.936   8.719 -0.0705 -0.8745  1.1347
  598MOL0     H80685  -0.789   6.818   8.652 -1.7292  4.0726  2.5746
  598MOL0     H80686  -0.742   6.755   8.878  1.2337  2.7222  1.3456
  598MOL0     H80687  -0.576   6.769   8.849  0.3717 -2.4172  1.0327
  598MOL0     H80688  -0.558   6.563   8.723 -0.7035  0.2799  0.7130
  598MOL0     H80689  -0.740   6.551   8.712  0.5382 -5.0627  1.0934
  598MOL0     H80690  -0.915   6.620   8.813 -4.0047 -1.2843 -1.4259
  598MOL0     H80691  -1.135   6.540   8.916  0.8193  1.1477 -2.2123
  598MOL0     H80692  -1.277   6.318   9.422  0.4709  2.5879  1.6103
  598MOL0     H80693  -1.465   6.340   9.590  0.2251 -1.3361 -0.1605
  598MOL0     H80694  -1.610   6.418   9.747 -1.3366  0.5475  2.5537
  598MOL0     H80695  -1.599   6.588   9.709 -2.3364  1.3507 -2.0745
  598MOL0     H80696  -1.859   6.572   9.715 -2.7648  0.0985  2.5607
  598MOL0     H80697  -1.827   6.418   9.773  2.3230 -1.3644 -3.3686
  598MOL0     H80698  -1.741   6.702   9.871 -1.8325  0.3267  3.3258
  598MOL0     H80699  -1.843   6.597   9.954 -1.0288  0.4889 -0.5268
  598MOL0     H80700  -1.536   6.561   9.915 -0.6334 -1.3215 -2.6819
  598MOL0     H80701  -1.639   6.440   9.983 -0.2393  0.0903  2.1672
  598MOL0     H80702  -1.548   6.528  10.173 -0.9642  0.8333  2.1121
  598MOL0     H80703  -1.705   6.597  10.168 -0.5277 -2.3138 -0.9348
  598MOL0     H80704  -1.432   6.731  10.059  1.9100 -1.7320  2.7869
  598MOL0     H80705  -1.576   6.816  10.029 -1.5924 -1.1641 -1.1057
  598MOL0     H80706  -1.518   6.701  10.303  3.1457 -1.7302 -2.3405
  598MOL0     H80707  -1.614   6.847  10.268 -1.3007 -1.9388 -0.6621
  598MOL0     H80708  -1.311   6.849  10.241  1.0117  0.7917  0.5162
  598MOL0     H80709  -1.422   6.991  10.253 -3.4253  0.6918  0.8552
  598MOL0     H80710  -1.662   6.606   9.326  0.4389  0.9815  1.7027
  598MOL0     H80711  -1.485   6.596   9.170  2.4848  0.7620 -0.4111
  598MOL0     H80712  -0.912   6.315   9.206  0.5370  0.1792 -1.3111
  598MOL0     H80713  -0.707   6.362   9.073 -0.8870 -0.9135  1.4566
  598MOL0     H80714   0.292   5.932   9.368  2.8873 -0.4173  1.4554
  598MOL0     H80715   0.288   5.715   9.508  0.3635 -4.1645  0.3949
  598MOL0     H80716   0.155   5.393   9.767 -3.1049  0.4751 -1.4064
  598MOL0     H80717   0.125   5.168   9.857  0.5263  1.0808  0.7258
  598MOL0     H80718   0.266   4.781   9.621 -2.4723 -0.2372 -1.9970
  598MOL0     H80719   0.102   4.812   9.649 -1.4787  1.2071  1.5885
  598MOL0     H80720   0.131   4.688   9.882 -0.5820  1.1719 -0.2116
  598MOL0     H80721   0.296   4.662   9.844 -0.0742  2.8156  1.3783
  598MOL0     H80722   0.214   4.515   9.629 -0.6026  1.0892 -0.7220
  598MOL0     H80723   0.062   4.576   9.654  1.4726  1.0756 -2.8474
  598MOL0     H80724   0.031   4.471   9.885 -0.1453 -1.5857  0.0396
  598MOL0     H80725   0.079   4.348   9.772 -2.2084  0.7197 -0.8816
  598MOL0     H80726   0.411   4.316  10.006  2.2904  4.6541  0.0703
  598MOL0     H80727   0.314   4.974   9.525  4.4682  1.6470  2.1096
  598MOL0     H80728   0.191   5.234   9.299 -0.7553  0.4838  1.7628
  598MOL0     H80729   0.370   5.197   9.308  0.0472  0.5683  0.5792
  598MOL0     H80730   0.248   5.072   9.323  0.4837  0.4764 -1.4353
  599MOL0     O80731   0.704   5.325   7.786 -0.3099  0.0062 -0.8747
  599MOL0     C80732   0.749   5.409   7.863  1.1424 -0.0582  0.0660
  599MOL0     O80733   0.878   5.453   7.856  0.1455  0.3549  0.3580
  599MOL0     C80734   0.962   5.416   7.750  0.2490 -0.3183 -0.2582
  599MOL0     C80735   0.966   5.497   7.634 -0.9090 -0.0875 -0.0616
  599MOL0     C80736   1.048   5.454   7.521  0.1902  0.2561  0.8759
  599MOL0     C80737   1.128   5.339   7.527  0.5819  0.3117  0.6720
  599MOL0     O80738   1.210   5.292   7.427 -0.0548 -0.2132  0.3831
  599MOL0     C80739   1.173   5.306   7.281  0.3477 -0.3385  0.6493
  599MOL0     C80740   1.278   5.236   7.197 -0.2001  0.4139 -0.1247
  599MOL0     C80741   1.428   5.268   7.218  0.0931 -0.1164 -0.3841
  599MOL0     C80742   1.497   5.145   7.279  0.3529 -0.0194 -0.0479
  599MOL0     C80743   1.639   5.181   7.320 -0.2200  0.0642 -0.0921
  599MOL0     C80744   1.721   5.223   7.207  0.3626  1.1800 -0.4106
  599MOL0     C80745   1.871   5.213   7.235  0.0055  0.0683 -0.0569
  599MOL0     C80746   1.940   5.297   7.341  0.1813 -0.5078  0.4981
  599MOL0     N80747   2.078   5.293   7.319 -0.5679  0.7589  0.2519
  599MOL0     C80748   2.146   5.177   7.355 -0.3570 -0.2445  0.0951
  599MOL0     C80749   2.277   5.207   7.327 -0.1789 -0.2756  0.7809
  599MOL0     C80750   2.391   5.110   7.329 -0.3208  0.7987  0.3594
  599MOL0     C80751   2.470   5.102   7.202  0.2209 -0.0590  0.4406
  599MOL0     C80752   2.609   5.044   7.227  0.5711 -0.2747  0.6009
  599MOL0     C80753   2.704   5.139   7.298  0.3652  0.0834 -0.7818
  599MOL0     O80754   2.654   5.262   7.337  0.4866 -0.8623  0.2886
  599MOL0     C80755   2.738   5.368   7.354  0.8363 -0.4134 -0.2876
  599MOL0     C80756   2.672   5.491   7.335 -0.0234  0.7205  0.2697
  599MOL0     C80757   2.745   5.606   7.357 -0.0872 -0.1929  0.3778
  599MOL0     C80758   2.887   5.605   7.400  0.4994 -0.8023  0.0691
  599MOL0     C80759   2.936   5.732   7.448 -0.0637  0.0980 -0.7199
  599MOL0     O80760   2.878   5.838   7.388 -0.4968 -0.3631  0.5189
  599MOL0     C80761   2.953   5.954   7.381 -1.2149  0.2396 -1.3456
  599MOL0     C80762   2.912   6.067   7.456 -0.7161  0.4511 -1.0905
  599MOL0     C80763   2.975   6.190   7.446 -0.4351 -0.4979 -0.4785
  599MOL0     C80764   3.093   6.201   7.363  0.3080 -0.4258  0.5353
  599MOL0     O80765   3.175   6.312   7.361 -0.8046  0.4793  0.0360
  599MOL0     C80766   3.155   6.403   7.248  0.5522  0.3725 -0.3651
  599MOL0     C80767   3.064   6.532   7.270 -0.4119 -0.3539  0.3729
  599MOL0     C80768   2.909   6.506   7.257 -0.1442 -0.4956 -0.3086
  599MOL0     C80769   2.835   6.630   7.315  0.5078 -1.0196 -0.2717
  599MOL0     C80770   2.724   6.658   7.223  0.6488  0.5636 -0.7898
  599MOL0     C80771   2.639   6.766   7.296  0.0817  0.3482  1.0807
  599MOL0     C80772   2.521   6.818   7.201  0.0325 -0.0284 -0.3729
  599MOL0     C80773   2.456   6.945   7.249 -0.0360  0.7271  0.1989
  599MOL0    Cl80774   2.399   6.950   7.421  0.4193  0.2444 -0.3503
  599MOL0     C80775   3.137   6.086   7.287 -0.6000  1.0431 -0.3203
  599MOL0     C80776   3.061   5.964   7.293 -0.1921 -0.2378  0.3496
  599MOL0     O80777   3.042   5.736   7.510 -0.9131 -0.8555 -0.7294
  599MOL0     C80778   2.947   5.484   7.403 -0.1288  0.5582 -0.1276
  599MOL0     C80779   2.880   5.366   7.382 -0.5376 -0.6206 -0.7658
  599MOL0     N80780   2.284   5.336   7.277 -0.1129  0.5749 -0.3203
  599MOL0     N80781   2.168   5.386   7.265 -0.3517  1.1566 -0.4856
  599MOL0     C80782   1.109   5.257   7.636 -0.4380 -0.0748 -0.2573
  599MOL0     C80783   1.020   5.290   7.743 -0.2511 -0.3310 -0.5016
  599MOL0     C80784   0.672   5.451   7.979 -0.1196  0.3826 -0.5352
  599MOL0     C80785   0.740   5.536   8.068  0.0695 -0.7191 -0.5690
  599MOL0     C80786   0.677   5.585   8.187 -0.4246  0.5209  0.6748
  599MOL0     C80787   0.550   5.556   8.221  0.3747  0.1099 -0.0333
  599MOL0     O80788   0.504   5.599   8.340  0.7465 -0.0744 -0.1251
  599MOL0     C80789   0.360   5.588   8.368 -0.6047 -0.6165 -1.4873
  599MOL0     C80790   0.313   5.732   8.407 -0.7119 -0.0145 -0.5723
  599MOL0     C80791   0.379   5.761   8.544 -0.4914  0.1829 -0.9223
  599MOL0     C80792   0.349   5.899   8.598 -0.7098  0.2447 -0.7319
  599MOL0     C80793   0.204   5.918   8.614 -0.9570 -0.6617  0.0593
  599MOL0     C80794   0.085   5.923   8.623  0.2427  0.1815 -0.0553
  599MOL0     C80795   0.476   5.472   8.141  0.1474  0.2728  1.1373
  599MOL0     C80796   0.529   5.428   8.014 -0.3876  0.2722 -0.6008
  599MOL0     C80797   0.434   5.342   7.920 -0.3230  0.0105 -0.4546
  599MOL0     H80798   0.910   5.590   7.634 -3.8613 -1.7019  2.2176
  599MOL0     H80799   1.062   5.516   7.432 -0.5021  2.3420  2.1609
  599MOL0     H80800   1.073   5.268   7.259  0.8021 -0.5909 -1.0596
  599MOL0     H80801   1.178   5.412   7.254  2.6873 -0.1427  1.6420
  599MOL0     H80802   1.250   5.256   7.094  0.2626  0.0448 -0.3278
  599MOL0     H80803   1.250   5.131   7.210  2.7236 -0.4642 -0.1782
  599MOL0     H80804   1.436   5.349   7.291 -0.7757 -0.1198 -0.2646
  599MOL0     H80805   1.466   5.292   7.118 -0.3297 -0.2386 -0.5767
  599MOL0     H80806   1.443   5.114   7.369  1.5291 -1.0271  0.3532
  599MOL0     H80807   1.497   5.058   7.213  3.2715 -0.0084 -0.2213
  599MOL0     H80808   1.624   5.270   7.383 -0.1753  2.0794 -2.7616
  599MOL0     H80809   1.677   5.100   7.383  0.7062  1.8485  1.7743
  599MOL0     H80810   1.697   5.166   7.116  1.5052 -0.4323  0.2493
  599MOL0     H80811   1.717   5.329   7.182 -1.0210  0.4599 -3.7655
  599MOL0     H80812   1.922   5.214   7.138  0.8382  1.2195  0.3759
  599MOL0     H80813   1.890   5.111   7.269 -1.1845 -0.5952 -1.2989
  599MOL0     H80814   1.898   5.399   7.342 -0.5302 -0.7905  0.2737
  599MOL0     H80815   1.911   5.252   7.436 -0.7799 -1.1766 -0.0966
  599MOL0     H80816   2.106   5.085   7.398 -0.0851 -0.3999  0.0196
  599MOL0     H80817   2.454   5.140   7.413 -0.2073 -0.4404  0.7336
  599MOL0     H80818   2.348   5.011   7.347  1.6162 -1.1980 -4.2282
  599MOL0     H80819   2.416   5.031   7.140  1.3218 -2.7188  2.3523
  599MOL0     H80820   2.473   5.196   7.146  0.9827 -0.5387 -0.3440
  599MOL0     H80821   2.658   5.013   7.135  0.8814  0.9880  0.3181
  599MOL0     H80822   2.611   4.946   7.275 -1.3174 -0.9997 -0.6944
  599MOL0     H80823   2.787   5.161   7.231 -0.8228 -1.5966 -2.9251
  599MOL0     H80824   2.732   5.092   7.393  2.3473  3.2506  0.3424
  599MOL0     H80825   2.568   5.488   7.305  0.5103  1.2390 -1.8145
  599MOL0     H80826   2.696   5.702   7.345  0.3092 -0.0466 -0.1370
  599MOL0     H80827   2.829   6.048   7.524  1.5902 -3.3919  1.0015
  599MOL0     H80828   2.937   6.269   7.510  0.9018  1.0000 -1.4386
  599MOL0     H80829   3.249   6.446   7.211  1.0374 -1.2155 -1.0522
  599MOL0     H80830   3.121   6.349   7.160 -0.5263  1.5468 -0.6924
  599MOL0     H80831   3.083   6.574   7.369 -1.0538 -0.6207  0.6181
  599MOL0     H80832   3.097   6.602   7.193  1.5956 -1.8487 -0.1927
  599MOL0     H80833   2.901   6.497   7.148  3.3086  1.5962 -0.9013
  599MOL0     H80834   2.893   6.409   7.303 -1.7659 -0.1548 -0.1114
  599MOL0     H80835   2.900   6.718   7.318  0.8712 -1.1408 -2.5112
  599MOL0     H80836   2.814   6.606   7.419 -1.1997 -1.1127 -0.6123
  599MOL0     H80837   2.656   6.573   7.214 -1.1960  1.5293  2.3581
  599MOL0     H80838   2.764   6.691   7.127  1.5490  0.3246 -0.5124
  599MOL0     H80839   2.592   6.724   7.386 -0.9126  1.8143  1.2771
  599MOL0     H80840   2.696   6.851   7.332  1.5947 -1.8105  4.2779
  599MOL0     H80841   2.442   6.743   7.212  0.9414 -0.8238  0.8953
  599MOL0     H80842   2.553   6.825   7.096 -1.7503  0.1876 -0.9538
  599MOL0     H80843   2.536   7.020   7.245 -0.4685  1.2698  1.2812
  599MOL0     H80844   2.384   6.983   7.177 -0.9373 -1.7975 -0.3208
  599MOL0     H80845   3.234   6.082   7.240 -0.7489 -1.1494 -0.5409
  599MOL0     H80846   3.110   5.887   7.235  1.5851 -0.4815  2.0988
  599MOL0     H80847   3.049   5.488   7.439 -0.0166  2.3052 -0.5079
  599MOL0     H80848   2.929   5.269   7.383  0.1047 -0.3443  1.6272
  599MOL0     H80849   1.163   5.163   7.635 -0.6319 -0.1870 -0.3192
  599MOL0     H80850   1.024   5.230   7.833  1.8171 -0.0947 -0.3658
  599MOL0     H80851   0.842   5.562   8.043 -0.2997  0.2117 -1.1571
  599MOL0     H80852   0.735   5.657   8.243 -0.1053  2.0521 -1.4832
  599MOL0     H80853   0.345   5.538   8.464 -0.0701 -0.8170 -1.5083
  599MOL0     H80854   0.295   5.546   8.292 -3.3768 -3.0214  1.9064
  599MOL0     H80855   0.206   5.717   8.425 -0.7399  1.4649  0.7451
  599MOL0     H80856   0.332   5.807   8.330 -2.0287  2.8339  1.6453
  599MOL0     H80857   0.487   5.742   8.534 -1.1626 -3.7096 -2.7436
  599MOL0     H80858   0.342   5.688   8.616 -2.2427  1.9672  0.0894
  599MOL0     H80859   0.395   5.903   8.697 -0.3951  2.8646 -0.9166
  599MOL0     H80860   0.393   5.973   8.531  0.9682  0.1934  0.2522
  599MOL0     H80861  -0.017   5.938   8.653  0.8907  0.7469  1.9944
  599MOL0     H80862   0.370   5.453   8.153  0.4356 -1.8627  0.8171
  599MOL0     H80863   0.340   5.396   7.914 -2.2617 -2.5480  3.0626
  599MOL0     H80864   0.485   5.322   7.825  1.8641 -0.7509  0.7823
  599MOL0     H80865   0.402   5.252   7.974 -3.4544  0.8770 -0.7228
  600MOL0     O80866  10.047   0.378   3.742 -0.5192  0.5726 -0.1127
  600MOL0     C80867  10.095   0.472   3.809  0.5416 -0.1087 -0.2384
  600MOL0     O80868  10.231   0.512   3.813  0.5532 -0.0935 -0.7800
  600MOL0     C80869  10.318   0.437   3.734  0.1822 -0.4924 -0.3877
  600MOL0     C80870  10.391   0.503   3.625 -0.7615 -0.3913 -0.3516
  600MOL0     C80871  10.490   0.428   3.549 -0.1696  0.6313 -0.5517
  600MOL0     C80872  10.515   0.297   3.575 -0.1230  1.2267 -0.6763
  600MOL0     O80873  10.601   0.224   3.492 -0.3436 -0.1696  0.7737
  600MOL0     C80874  10.617   0.079   3.486  0.8994  0.1567  1.0748
  600MOL0     C80875  10.515   0.015   3.388  0.3629 -0.2471 -0.3978
  600MOL0     C80876  10.366   0.031   3.440  0.3714  0.4653  0.5848
  600MOL0     C80877  10.271  -0.066   3.354 -0.3725 -0.7226 -0.0651
  600MOL0     C80878  10.128  -0.068   3.419  0.1825  0.1051 -0.0937
  600MOL0     C80879  10.026  -0.149   3.344 -0.9951  0.5264  0.4712
  600MOL0     C80880   9.994  -0.088   3.209  0.4260 -0.1040 -0.0215
  600MOL0     C80881   9.864  -0.143   3.150 -0.0408  0.5240 -0.4110
  600MOL0     N80882   9.845  -0.078   3.016 -0.8247 -0.6576 -0.0994
  600MOL0     C80883   9.793   0.050   2.992 -0.1496 -0.0070  0.1350
  600MOL0     C80884   9.858   0.103   2.882 -0.8728  0.5992 -0.4348
  600MOL0     C80885   9.868   0.245   2.844 -0.1218  0.1109  0.4564
  600MOL0     C80886   9.793   0.271   2.716 -0.3977 -0.2501  0.6556
  600MOL0     C80887   9.823   0.403   2.646 -0.5068  0.5828 -0.4826
  600MOL0     C80888   9.832   0.387   2.501  0.0362  0.1065  0.0231
  600MOL0     O80889   9.709   0.364   2.432  0.9493  0.5154 -0.7907
  600MOL0     C80890   9.721   0.345   2.299  1.0494 -0.2463  0.7897
  600MOL0     C80891   9.608   0.320   2.223 -0.2038  0.9997  0.3136
  600MOL0     C80892   9.595   0.303   2.087  0.9100 -0.3934  0.1200
  600MOL0     C80893   9.716   0.287   2.015  0.5160 -0.0968  0.0783
  600MOL0     C80894   9.717   0.255   1.871  0.3932 -0.5468  0.6134
  600MOL0     O80895   9.598   0.254   1.806  0.4171 -0.2167 -0.3316
  600MOL0     C80896   9.593   0.236   1.667  0.0285  0.0209 -0.8200
  600MOL0     C80897   9.589   0.352   1.592 -0.7899  0.0357  0.2343
  600MOL0     C80898   9.562   0.346   1.460 -0.1520 -1.1584  0.4699
  600MOL0     C80899   9.553   0.224   1.394  0.4679 -0.7018 -0.3435
  600MOL0     O80900   9.503   0.225   1.270  0.1502 -0.5463 -0.0171
  600MOL0     C80901   9.453   0.108   1.198  0.8772 -0.0243 -0.0799
  600MOL0     C80902   9.433   0.137   1.053  0.0077  0.4524  0.9650
  600MOL0     C80903   9.292   0.167   1.005 -0.3189 -0.2610 -0.4796
  600MOL0     C80904   9.207   0.044   1.006 -0.4768 -1.0867  0.4298
  600MOL0     C80905   9.066   0.066   0.960  0.0037  0.0599 -0.4818
  600MOL0     C80906   8.977  -0.060   0.976  0.5316  0.5302  0.1194
  600MOL0     C80907   8.833  -0.042   0.916 -0.1626 -0.4652 -0.0589
  600MOL0     C80908   8.732  -0.164   0.947  0.2784  0.5510  0.2204
  600MOL0    Cl80909   8.557  -0.118   0.945 -0.3571  0.4011 -0.3875
  600MOL0     C80910   9.558   0.103   1.466  1.4905 -0.2819 -0.8516
  600MOL0     C80911   9.581   0.108   1.606 -0.5029 -0.1728 -0.0441
  600MOL0     O80912   9.827   0.234   1.825  0.0612  0.1990  1.0636
  600MOL0     C80913   9.834   0.324   2.084 -0.2214 -0.3663 -0.4426
  600MOL0     C80914   9.838   0.355   2.220  0.2277 -0.0154  1.0469
  600MOL0     N80915   9.936   0.005   2.839 -0.1915 -0.0226  0.1297
  600MOL0     N80916   9.942  -0.100   2.916  0.4339 -0.5874  0.3394
  600MOL0     C80917  10.454   0.240   3.686 -0.6037 -0.3011  0.4592
  600MOL0     C80918  10.356   0.304   3.765 -0.5306 -0.3647 -0.2647
  600MOL0     C80919   9.993   0.549   3.893  0.2258 -0.8614  0.5859
  600MOL0     C80920   9.855   0.533   3.858  0.3634 -0.2531  0.2924
  600MOL0     C80921   9.760   0.596   3.932  1.0720 -0.7599 -0.7604
  600MOL0     C80922   9.792   0.675   4.035  0.3254  0.0714 -0.4217
  600MOL0     O80923   9.684   0.719   4.106 -0.5375 -0.2261 -0.2653
  600MOL0     C80924   9.688   0.833   4.189  0.2568 -0.1783  0.6070
  600MOL0     C80925   9.548   0.894   4.185  0.4063 -0.0625  1.0481
  600MOL0     C80926   9.514   0.966   4.045  1.1655  0.5527  0.0182
  600MOL0     C80927   9.374   1.027   4.027  0.1049  0.1501 -1.0592
  600MOL0     C80928   9.273   0.926   4.061 -0.0446 -0.4509 -0.2990
  600MOL0     C80929   9.182   0.841   4.072  0.4058 -0.4262 -0.1779
  600MOL0     C80930   9.924   0.691   4.077  0.1888 -0.6382 -0.5306
  600MOL0     C80931  10.029   0.629   4.006  0.6283 -0.6015 -1.1936
  600MOL0     C80932  10.167   0.646   4.075 -0.1513  1.2764 -0.1936
  600MOL0     H80933  10.365   0.607   3.608  1.8128  0.7612  2.0538
  600MOL0     H80934  10.533   0.473   3.460  1.6652 -2.2026 -1.2589
  600MOL0     H80935  10.714   0.070   3.436 -0.2044 -1.6320 -0.9365
  600MOL0     H80936  10.624   0.033   3.585  0.6688  0.2803  1.1490
  600MOL0     H80937  10.544  -0.089   3.369 -1.9729 -0.7614 -1.4924
  600MOL0     H80938  10.530   0.060   3.290 -0.1372 -1.9691 -1.3052
  600MOL0     H80939  10.328   0.133   3.427 -0.5390  0.1706  0.8767
  600MOL0     H80940  10.352   0.007   3.546 -1.2840  1.0778  0.5297
  600MOL0     H80941  10.270  -0.029   3.251 -0.5148 -2.4978 -0.7513
  600MOL0     H80942  10.311  -0.169   3.360  0.0515 -0.7896 -2.8036
  600MOL0     H80943  10.141  -0.111   3.518 -0.6783 -2.2900 -0.9474
  600MOL0     H80944  10.085   0.032   3.433 -1.2598 -0.5780  0.4790
  600MOL0     H80945  10.056  -0.254   3.342  0.9571  1.0593 -0.7334
  600MOL0     H80946   9.934  -0.149   3.404 -3.7886  5.1309 -3.1160
  600MOL0     H80947  10.073  -0.126   3.144  0.3871  1.4536 -1.0071
  600MOL0     H80948   9.989   0.020   3.222 -0.7985 -0.0256 -1.0438
  600MOL0     H80949   9.883  -0.248   3.124  1.7690  0.4762  0.9184
  600MOL0     H80950   9.780  -0.129   3.218  0.3789  3.9452 -0.4424
  600MOL0     H80951   9.721   0.109   3.047 -1.5171  0.7750 -2.3395
  600MOL0     H80952   9.825   0.300   2.928 -2.2890 -0.0679 -0.4801
  600MOL0     H80953   9.973   0.273   2.832 -0.9686  2.7770 -1.6619
  600MOL0     H80954   9.810   0.196   2.639 -1.3003 -0.5701  0.7612
  600MOL0     H80955   9.687   0.264   2.742 -0.4534 -1.5588  0.1485
  600MOL0     H80956   9.928   0.423   2.671 -0.8994  1.5583  0.4608
  600MOL0     H80957   9.761   0.489   2.673 -0.2466  0.8249 -0.6570
  600MOL0     H80958   9.897   0.301   2.483  1.4877  1.7445 -3.6443
  600MOL0     H80959   9.889   0.470   2.458  1.0726 -1.2365 -1.3162
  600MOL0     H80960   9.513   0.297   2.271 -0.1686 -0.3700 -0.2439
  600MOL0     H80961   9.500   0.294   2.036  0.2811  2.5993  0.5691
  600MOL0     H80962   9.581   0.450   1.638  3.2161  0.5141  0.2911
  600MOL0     H80963   9.548   0.441   1.410 -0.1916 -0.8265  1.0969
  600MOL0     H80964   9.536   0.037   1.207 -1.4972 -2.6801  4.1963
  600MOL0     H80965   9.362   0.066   1.244  1.6673 -0.1329  1.4335
  600MOL0     H80966   9.503   0.212   1.015  1.7402 -0.6919  1.7806
  600MOL0     H80967   9.465   0.053   0.991  3.1337  1.5184  0.9545
  600MOL0     H80968   9.242   0.240   1.069  0.6623  0.9295 -1.0340
  600MOL0     H80969   9.302   0.216   0.908  2.1542  0.1636 -0.0777
  600MOL0     H80970   9.194  -0.006   1.103  1.6202 -2.1676  0.1963
  600MOL0     H80971   9.255  -0.017   0.930  1.5272 -2.1804  2.4652
  600MOL0     H80972   9.059   0.094   0.855 -4.0616 -2.2122 -1.0357
  600MOL0     H80973   9.011   0.148   1.008 -1.6286 -0.5188 -1.3035
  600MOL0     H80974   9.023  -0.149   0.931  0.5712 -0.3932  1.8968
  600MOL0     H80975   8.966  -0.082   1.083 -3.0848 -0.3572 -0.3111
  600MOL0     H80976   8.839  -0.016   0.810  1.3581 -1.0881 -0.1554
  600MOL0     H80977   8.797   0.049   0.965  0.3815 -0.3453  0.1269
  600MOL0     H80978   8.743  -0.245   0.875 -0.6124 -0.1547  0.8424
  600MOL0     H80979   8.767  -0.207   1.041  0.3080  2.3345  1.0562
  600MOL0     H80980   9.527   0.007   1.425 -0.8127  0.0311  0.0040
  600MOL0     H80981   9.570   0.018   1.665 -4.6247  0.6352  0.7006
  600MOL0     H80982   9.929   0.324   2.031  0.6185  0.4896  1.0218
  600MOL0     H80983   9.933   0.383   2.263  0.0437  1.7895  0.3967
  600MOL0     H80984  10.490   0.141   3.711  3.0962  1.2298  2.0222
  600MOL0     H80985  10.308   0.265   3.854  0.5054  0.4717  0.6810
  600MOL0     H80986   9.817   0.466   3.781 -1.2897 -0.1429  0.9824
  600MOL0     H80987   9.658   0.567   3.908  0.0177  1.7894  0.3003
  600MOL0     H80988   9.765   0.902   4.151  1.3629 -1.2015  0.9243
  600MOL0     H80989   9.714   0.800   4.290  0.8426 -1.9910 -0.1052
  600MOL0     H80990   9.548   0.964   4.268  0.9660 -0.0611  1.0533
  600MOL0     H80991   9.482   0.809   4.206  0.6093  0.0348  2.1432
  600MOL0     H80992   9.519   0.890   3.967 -1.2811 -1.4863  1.6943
  600MOL0     H80993   9.588   1.046   4.032 -2.1651  3.5796 -2.4896
  600MOL0     H80994   9.371   1.110   4.099  0.4900 -1.1403  0.4904
  600MOL0     H80995   9.342   1.070   3.932  1.2624 -0.0477 -1.5636
  600MOL0     H80996   9.092   0.786   4.092  0.2086  0.3322  1.1642
  600MOL0     H80997   9.952   0.758   4.158  1.3642  0.8289 -2.0823
  600MOL0     H80998  10.185   0.564   4.145 -2.5076 -0.1697 -1.1846
  600MOL0     H80999  10.256   0.648   4.011  0.9149  2.8323  1.2469
  600MOL0     H81000  10.164   0.738   4.134 -1.8168  0.4049  1.1725
  601MOL0     O81001  10.382   7.765   2.944  0.4584 -0.8220 -0.4394
  601MOL0     C81002  10.399   7.885   2.969  0.4073  0.7858  0.0117
  601MOL0     O81003  10.314   7.980   2.929  0.1517 -0.5674 -0.6621
  601MOL0     C81004  10.183   7.940   2.909 -0.3907  0.8362 -0.3523
  601MOL0     C81005  10.126   7.928   2.783 -0.4788 -0.9030  0.2717
  601MOL0     C81006   9.996   7.879   2.751  0.0664  0.0174  0.6787
  601MOL0     C81007   9.909   7.864   2.865 -0.2149  1.1783  1.0182
  601MOL0     O81008   9.783   7.815   2.858 -0.2017  0.1975 -0.8180
  601MOL0     C81009   9.690   7.863   2.777 -0.1582 -0.1380 -1.2661
  601MOL0     C81010   9.542   7.827   2.796 -0.1708  0.1633 -0.1527
  601MOL0     C81011   9.441   7.878   2.699  0.6428 -0.1016 -0.9824
  601MOL0     C81012   9.444   8.036   2.700 -0.3505  0.1665 -0.4283
  601MOL0     C81013   9.381   8.091   2.575 -0.3653 -0.9541 -0.9265
  601MOL0     C81014   9.235   8.078   2.579  0.3147  0.1928  0.0066
  601MOL0     C81015   9.158   8.153   2.473  0.2936  0.6711  0.8005
  601MOL0     C81016   9.003   8.129   2.484 -0.7769  0.1566  0.5713
  601MOL0     N81017   8.972   7.993   2.447  0.5443 -0.1392  0.2982
  601MOL0     C81018   8.950   7.884   2.526  0.1632  0.3058  0.3247
  601MOL0     C81019   8.875   7.798   2.450 -0.2603  0.1501 -0.5933
  601MOL0     C81020   8.828   7.663   2.485  0.8616 -0.3102 -1.1990
  601MOL0     C81021   8.956   7.582   2.500 -0.0560 -0.8135  0.8502
  601MOL0     C81022   9.028   7.543   2.364 -1.2233 -0.4220 -0.5506
  601MOL0     C81023   9.178   7.502   2.374 -0.4503 -0.0681 -0.3536
  601MOL0     O81024   9.245   7.540   2.494  0.2072 -0.1141 -0.2175
  601MOL0     C81025   9.371   7.495   2.523  0.4379  0.3401 -0.3942
  601MOL0     C81026   9.391   7.454   2.655 -0.0350  0.6775  0.0567
  601MOL0     C81027   9.513   7.392   2.693  0.3030 -0.0870 -0.4615
  601MOL0     C81028   9.617   7.372   2.594 -0.2536  0.3768 -1.1277
  601MOL0     C81029   9.744   7.308   2.631  0.9598  0.4098 -1.2237
  601MOL0     O81030   9.819   7.256   2.527  0.3820 -0.3797 -0.0524
  601MOL0     C81031   9.946   7.210   2.532  0.1792  0.5860  0.7300
  601MOL0     C81032   9.988   7.116   2.618 -0.1277  0.1195  0.0864
  601MOL0     C81033  10.118   7.066   2.629  0.2480  0.3637  0.2164
  601MOL0     C81034  10.214   7.101   2.532  0.2240 -0.9423  0.1196
  601MOL0     O81035  10.339   7.050   2.500  0.4108 -0.1947  0.4668
  601MOL0     C81036  10.378   6.940   2.578 -0.1617 -0.9572  0.2995
  601MOL0     C81037  10.501   6.874   2.514 -0.0936 -0.1292  0.2304
  601MOL0     C81038  10.607   6.980   2.473 -0.1207 -0.3471 -0.4380
  601MOL0     C81039  10.742   6.904   2.447  0.4772 -0.3359 -0.3814
  601MOL0     C81040  10.862   7.002   2.425  0.1941 -0.6493 -0.4516
  601MOL0     C81041  10.860   7.065   2.287  0.1910 -1.5385 -0.5079
  601MOL0     C81042  10.939   6.959   2.198 -0.3258  0.6643 -0.2640
  601MOL0     C81043  10.948   7.006   2.056  0.2917 -0.7993  0.5035
  601MOL0    Cl81044  11.050   6.895   1.965  0.1222 -0.2390  0.1970
  601MOL0     C81045  10.168   7.201   2.440  1.2447  0.2974  0.1526
  601MOL0     C81046  10.041   7.255   2.444 -0.6685 -1.0354  0.7698
  601MOL0     O81047   9.769   7.276   2.748  0.1323  0.6565  0.3109
  601MOL0     C81048   9.596   7.418   2.461  0.3229  0.4946 -0.1010
  601MOL0     C81049   9.482   7.486   2.435  0.2165  0.1018 -0.7299
  601MOL0     N81050   8.851   7.855   2.330 -0.2488 -0.6472  0.3930
  601MOL0     N81051   8.918   7.969   2.324  1.2240 -0.7886  0.1726
  601MOL0     C81052   9.961   7.887   2.985 -1.0026  0.7141 -0.1595
  601MOL0     C81053  10.099   7.919   3.014  0.0456 -0.8909  0.0657
  601MOL0     C81054  10.508   7.910   3.055  0.0097  0.1641 -0.7715
  601MOL0     C81055  10.486   8.004   3.158 -0.1017  0.0279  0.9614
  601MOL0     C81056  10.569   8.009   3.274 -0.2427  0.2896  0.5527
  601MOL0     C81057  10.688   7.936   3.270 -0.2641 -0.1110 -0.2346
  601MOL0     O81058  10.779   7.937   3.374 -0.4334  0.5955  0.6663
  601MOL0     C81059  10.733   7.923   3.500 -0.1539 -0.1481 -0.8315
  601MOL0     C81060  10.847   7.899   3.600  0.2072 -0.0930 -0.6830
  601MOL0     C81061  10.939   8.023   3.588  0.5668  0.7629  0.3054
  601MOL0     C81062  11.001   8.074   3.717  0.2872 -0.3140 -0.7222
  601MOL0     C81063  10.919   8.174   3.788 -1.3525 -0.1281  0.5335
  601MOL0     C81064  10.836   8.244   3.839 -0.2249 -0.8412  0.3717
  601MOL0     C81065  10.714   7.848   3.161  0.2237  0.4359  0.0179
  601MOL0     C81066  10.632   7.834   3.048  0.2462  0.1613  0.9026
  601MOL0     C81067  10.662   7.752   2.933 -0.5319 -0.0080 -0.1300
  601MOL0     H81068  10.198   7.944   2.703  1.0758 -2.3328  1.3320
  601MOL0     H81069   9.967   7.862   2.648  0.1797  0.7706  0.5147
  601MOL0     H81070   9.705   7.972   2.774  1.0592 -0.3123 -2.4278
  601MOL0     H81071   9.720   7.837   2.675  0.2779  0.4824 -1.2993
  601MOL0     H81072   9.521   7.871   2.894  0.8368  2.9763 -1.0869
  601MOL0     H81073   9.530   7.718   2.799  1.9849 -0.2275 -2.1664
  601MOL0     H81074   9.342   7.837   2.720 -0.0877  0.7659 -2.5289
  601MOL0     H81075   9.473   7.838   2.602 -0.4915 -1.9067 -0.6778
  601MOL0     H81076   9.402   8.080   2.791 -0.8073 -0.4999 -0.3093
  601MOL0     H81077   9.542   8.083   2.701 -0.9204  1.6401 -3.3909
  601MOL0     H81078   9.405   8.197   2.569 -1.9661  0.0997  5.1601
  601MOL0     H81079   9.415   8.040   2.484 -2.6574  0.1161 -2.4990
  601MOL0     H81080   9.206   7.972   2.573 -2.9617  1.0647 -1.8633
  601MOL0     H81081   9.192   8.123   2.669  2.2818  3.8255 -0.6802
  601MOL0     H81082   9.182   8.114   2.374 -1.6939 -1.3319  1.0273
  601MOL0     H81083   9.197   8.255   2.477  0.1843  0.6845  2.3806
  601MOL0     H81084   8.963   8.164   2.579 -0.2626  0.2114  0.7679
  601MOL0     H81085   8.958   8.199   2.413 -0.5148 -0.3011 -0.0572
  601MOL0     H81086   8.981   7.865   2.629 -1.1587  1.3872  0.9521
  601MOL0     H81087   8.778   7.665   2.582  3.4225 -1.7810  0.2666
  601MOL0     H81088   8.763   7.626   2.405  1.2929 -0.5206 -1.4585
  601MOL0     H81089   9.032   7.628   2.563 -1.9928 -0.3089  2.9743
  601MOL0     H81090   8.945   7.488   2.555 -0.5331 -0.3622  1.5433
  601MOL0     H81091   9.034   7.626   2.293  4.0145  2.7518  2.8969
  601MOL0     H81092   8.975   7.461   2.314  1.2845 -1.2494 -2.0252
  601MOL0     H81093   9.246   7.540   2.297  2.3097 -1.5328  1.2347
  601MOL0     H81094   9.179   7.393   2.367  2.4027 -0.0264 -3.5922
  601MOL0     H81095   9.311   7.464   2.728 -0.8975 -1.1114 -0.5767
  601MOL0     H81096   9.527   7.359   2.796 -0.2074  0.3331 -0.2506
  601MOL0     H81097   9.914   7.079   2.688 -0.4321 -0.1504 -0.3700
  601MOL0     H81098  10.151   7.011   2.717 -0.2377 -1.5632 -0.7310
  601MOL0     H81099  10.412   6.972   2.677  1.8075 -0.2673 -0.5379
  601MOL0     H81100  10.295   6.874   2.603 -3.4986  2.3828 -1.0524
  601MOL0     H81101  10.539   6.801   2.586  2.1786 -1.7294 -2.3973
  601MOL0     H81102  10.484   6.815   2.423  0.2831 -1.1265  0.7875
  601MOL0     H81103  10.575   7.039   2.387  1.8149 -0.3904 -1.2517
  601MOL0     H81104  10.626   7.052   2.554  1.3820 -0.8901 -0.2668
  601MOL0     H81105  10.739   6.843   2.356  1.4866  2.0404 -2.1422
  601MOL0     H81106  10.752   6.830   2.526 -1.8435  0.7645  1.0203
  601MOL0     H81107  10.957   6.953   2.449  0.2832 -2.6626 -4.1111
  601MOL0     H81108  10.849   7.084   2.496 -6.7174  0.5227 -2.3419
  601MOL0     H81109  10.757   7.082   2.258  0.1612  1.0153  0.8501
  601MOL0     H81110  10.916   7.159   2.284  1.0625 -2.0268  0.0439
  601MOL0     H81111  10.893   6.860   2.199  0.5002  0.2648  1.1163
  601MOL0     H81112  11.039   6.930   2.231 -0.5061 -0.8384 -0.9562
  601MOL0     H81113  10.845   7.025   2.024  0.8232 -1.1140 -1.5560
  601MOL0     H81114  10.988   7.108   2.051 -0.7554 -0.3313  1.3395
  601MOL0     H81115  10.250   7.234   2.376  0.9805 -1.6696 -1.2862
  601MOL0     H81116  10.009   7.334   2.378  0.0550 -1.1484  0.2692
  601MOL0     H81117   9.670   7.417   2.382 -1.2457  0.6657 -1.6306
  601MOL0     H81118   9.469   7.534   2.339  1.9528  2.0176 -0.0668
  601MOL0     H81119   9.898   7.852   3.066 -0.5288  2.5083  1.0408
  601MOL0     H81120  10.146   7.943   3.109 -2.7064 -0.5688  1.4220
  601MOL0     H81121  10.402   8.073   3.159 -1.9076 -2.0289  2.2280
  601MOL0     H81122  10.542   8.080   3.351  1.5114  2.0788 -0.3768
  601MOL0     H81123  10.656   7.846   3.512  1.3713 -1.7028 -0.6423
  601MOL0     H81124  10.684   8.014   3.535 -0.3162 -1.9041  4.2596
  601MOL0     H81125  10.899   7.813   3.558  1.1582 -0.5104  1.2288
  601MOL0     H81126  10.819   7.878   3.703  2.3236 -0.6540 -0.1675
  601MOL0     H81127  10.887   8.098   3.529 -3.3990  0.4730  3.0811
  601MOL0     H81128  11.022   7.987   3.525  0.4369 -0.0931  0.6112
  601MOL0     H81129  11.033   7.996   3.787  0.8299  0.7213  0.2300
  601MOL0     H81130  11.086   8.137   3.688  0.0213 -0.9734 -3.1520
  601MOL0     H81131  10.765   8.320   3.865 -1.0766 -0.3093 -3.1329
  601MOL0     H81132  10.806   7.791   3.153 -1.7309 -3.4614  2.5436
  601MOL0     H81133  10.624   7.650   2.943 -2.1037  0.5369 -0.2713
  601MOL0     H81134  10.604   7.798   2.853  0.6138 -0.4216 -1.2414
  601MOL0     H81135  10.769   7.749   2.909 -0.0776  1.4936  1.5193
  602MOL0     O81136   0.216   8.963   4.614  0.5747  0.3637 -0.5026
  602MOL0     C81137   0.239   8.848   4.580  0.1880  0.4524 -1.0804
  602MOL0     O81138   0.364   8.793   4.555  1.1192 -0.6493 -0.0742
  602MOL0     C81139   0.468   8.857   4.620 -0.5928  0.5230 -0.0578
  602MOL0     C81140   0.596   8.795   4.582 -0.2269 -0.5417  0.1409
  602MOL0     C81141   0.715   8.821   4.652  0.3793  1.0783  0.0167
  602MOL0     C81142   0.709   8.928   4.735 -0.2283 -0.2632  0.3657
  602MOL0     O81143   0.827   8.963   4.797  0.1354 -0.0899  0.1930
  602MOL0     C81144   0.876   9.099   4.763  0.8180  1.0982  0.3066
  602MOL0     C81145   0.940   9.167   4.896 -0.5001  0.4021 -0.4644
  602MOL0     C81146   0.833   9.199   5.001 -0.2294 -0.9663  0.2531
  602MOL0     C81147   0.777   9.340   4.975  0.1658  0.7169  0.5034
  602MOL0     C81148   0.688   9.383   5.087 -0.3112  0.0566 -0.0073
  602MOL0     C81149   0.644   9.527   5.065  0.4968  0.0895 -0.4890
  602MOL0     C81150   0.606   9.603   5.185  0.1128 -0.1206  0.5854
  602MOL0     C81151   0.568   9.746   5.156 -0.1076 -0.5194 -1.0191
  602MOL0     N81152   0.533   9.832   5.280  0.2716 -0.9645  0.1271
  602MOL0     C81153   0.419   9.814   5.355  0.0586 -0.1206 -0.1879
  602MOL0     C81154   0.429   9.916   5.444 -0.1656  0.2558 -0.1895
  602MOL0     C81155   0.342   9.922   5.570 -0.6426 -0.4826 -0.0607
  602MOL0     C81156   0.328   9.788   5.651 -0.2195 -0.0745  0.2138
  602MOL0     C81157   0.464   9.717   5.676 -1.1076  0.2390 -0.0963
  602MOL0     C81158   0.560   9.808   5.755  0.1082  0.2063 -0.5908
  602MOL0     O81159   0.679   9.741   5.803  0.5863 -0.0984  0.7165
  602MOL0     C81160   0.767   9.700   5.702 -0.3796 -0.3307 -0.7136
  602MOL0     C81161   0.769   9.746   5.571  0.3618  0.3046 -0.4969
  602MOL0     C81162   0.853   9.692   5.471 -0.6548  0.7435 -1.2098
  602MOL0     C81163   0.953   9.588   5.507 -0.6438 -0.3977 -0.1933
  602MOL0     C81164   1.058   9.548   5.418  0.1232  0.0515 -0.1755
  602MOL0     O81165   1.036   9.579   5.286  0.9130 -0.1641 -0.1034
  602MOL0     C81166   1.103   9.521   5.187 -0.2534  0.4792 -0.4745
  602MOL0     C81167   1.128   9.384   5.178 -0.2879  0.2106  0.9173
  602MOL0     C81168   1.204   9.331   5.065  0.5360 -0.2722  0.1002
  602MOL0     C81169   1.237   9.405   4.950 -0.4199 -0.8565  0.0297
  602MOL0     O81170   1.319   9.351   4.854 -0.8518  0.3686  0.0812
  602MOL0     C81171   1.270   9.362   4.711 -0.3747 -0.9282 -0.1594
  602MOL0     C81172   1.332   9.257   4.619  0.2955 -1.0686  0.2922
  602MOL0     C81173   1.283   9.117   4.674 -1.0636 -0.2428  0.5947
  602MOL0     C81174   1.410   9.037   4.701  0.8276  0.2099  0.0717
  602MOL0     C81175   1.377   8.904   4.774  0.0778  0.4532 -1.1236
  602MOL0     C81176   1.322   8.923   4.916 -0.5590 -0.7075 -0.6284
  602MOL0     C81177   1.283   8.794   4.994 -0.0222 -0.0431  0.1195
  602MOL0     C81178   1.150   8.730   4.972 -0.0432  0.3549  0.7589
  602MOL0    Cl81179   1.020   8.828   5.027  0.1310 -0.1455 -0.4107
  602MOL0     C81180   1.195   9.537   4.958 -0.5428  0.0075  0.8880
  602MOL0     C81181   1.140   9.590   5.077  0.2564 -0.3164 -0.1380
  602MOL0     O81182   1.154   9.484   5.452 -0.2553  0.1830 -0.5263
  602MOL0     C81183   0.959   9.554   5.642  0.9574 -0.3882  0.1347
  602MOL0     C81184   0.857   9.607   5.734 -0.2251  0.6637  0.1290
  602MOL0     N81185   0.536  10.005   5.420  0.2133  0.0177 -0.0788
  602MOL0     N81186   0.606   9.942   5.326 -1.0692  0.6568 -0.1679
  602MOL0     C81187   0.594   8.985   4.775  0.7246  0.3587 -1.0612
  602MOL0     C81188   0.473   8.953   4.719 -0.4500  0.1848 -0.4658
  602MOL0     C81189   0.121   8.761   4.530 -0.2719 -0.6907  0.1036
  602MOL0     C81190   0.149   8.665   4.430 -0.4289  0.0404  0.6972
  602MOL0     C81191   0.048   8.577   4.383 -0.1692  0.7400  0.0700
  602MOL0     C81192  -0.078   8.599   4.436  0.3328  0.7081 -0.0264
  602MOL0     O81193  -0.185   8.529   4.389 -0.2277 -0.2857 -0.3819
  602MOL0     C81194  -0.202   8.393   4.447 -0.2629  0.3227  0.2948
  602MOL0     C81195  -0.295   8.402   4.569  0.3743  0.3527 -0.0078
  602MOL0     C81196  -0.427   8.483   4.535 -0.1469 -0.3945  0.8074
  602MOL0     C81197  -0.541   8.454   4.630  0.3956  0.1440 -0.4728
  602MOL0     C81198  -0.524   8.496   4.773 -0.4319 -0.4420 -0.2317
  602MOL0     C81199  -0.497   8.529   4.887  0.7394  0.2308  0.3184
  602MOL0     C81200  -0.099   8.686   4.529  0.1312 -0.1455 -0.1719
  602MOL0     C81201  -0.010   8.777   4.582 -0.3656 -0.1481  0.2781
  602MOL0     C81202  -0.063   8.878   4.681 -0.7866 -0.6540 -0.1991
  602MOL0     H81203   0.597   8.708   4.518 -1.6002  1.3165 -2.6114
  602MOL0     H81204   0.802   8.763   4.623 -0.0530  0.6091 -0.3702
  602MOL0     H81205   0.951   9.093   4.684  1.1957 -1.0671  0.7703
  602MOL0     H81206   0.789   9.151   4.721  0.4498 -0.3907 -0.8864
  602MOL0     H81207   0.998   9.253   4.861 -0.6416  0.5283 -0.3877
  602MOL0     H81208   1.017   9.100   4.934  2.1374  0.3989 -5.0086
  602MOL0     H81209   0.867   9.202   5.105 -1.9411 -0.9865  0.8428
  602MOL0     H81210   0.760   9.118   4.989  0.0444 -0.9562 -2.0021
  602MOL0     H81211   0.851   9.421   4.977 -0.8774  1.8478  5.3103
  602MOL0     H81212   0.739   9.362   4.875  0.1923  1.6277  0.6771
  602MOL0     H81213   0.597   9.323   5.097  1.0715 -1.8330  2.0711
  602MOL0     H81214   0.741   9.376   5.182  1.8966  4.2381 -0.6880
  602MOL0     H81215   0.733   9.578   5.028  1.3610 -2.2863 -1.9139
  602MOL0     H81216   0.576   9.521   4.980  1.6245 -1.0652 -1.3588
  602MOL0     H81217   0.698   9.595   5.244  0.2047 -3.6966  0.1814
  602MOL0     H81218   0.520   9.555   5.232 -1.6165  1.3922 -0.9015
  602MOL0     H81219   0.647   9.805   5.109 -2.7778  3.9665 -0.5072
  602MOL0     H81220   0.476   9.755   5.097 -2.1916  0.3223  2.1152
  602MOL0     H81221   0.337   9.743   5.353  0.3419 -0.4568 -0.0325
  602MOL0     H81222   0.388   9.996   5.636  1.9535 -2.3347  0.3854
  602MOL0     H81223   0.242   9.955   5.542 -2.9436  0.4189  7.2453
  602MOL0     H81224   0.291   9.825   5.746  1.3740  0.2631  0.7378
  602MOL0     H81225   0.263   9.714   5.604 -0.1749 -1.0253  1.5988
  602MOL0     H81226   0.515   9.676   5.589  0.5411 -1.2024  1.4659
  602MOL0     H81227   0.444   9.632   5.742 -1.3275  0.9419  0.7756
  602MOL0     H81228   0.497   9.840   5.838 -0.3617 -0.6992 -0.5819
  602MOL0     H81229   0.582   9.902   5.704  1.3660 -0.5935 -1.5945
  602MOL0     H81230   0.711   9.835   5.552  0.2878  0.4787  0.4949
  602MOL0     H81231   0.848   9.749   5.379  0.2029 -2.4560 -3.3975
  602MOL0     H81232   1.101   9.314   5.257  1.6159 -1.0900  0.5015
  602MOL0     H81233   1.228   9.226   5.052  0.7119 -0.2588  0.3124
  602MOL0     H81234   1.161   9.349   4.704 -0.2313 -2.6102  0.3228
  602MOL0     H81235   1.294   9.459   4.667 -3.3931  1.1481  2.3599
  602MOL0     H81236   1.291   9.278   4.520  0.6819  2.2079  0.7159
  602MOL0     H81237   1.441   9.264   4.618  0.2149  0.2755 -0.4068
  602MOL0     H81238   1.214   9.133   4.757 -0.1824 -0.1910  1.3313
  602MOL0     H81239   1.225   9.069   4.594  0.7578  2.5300 -2.6779
  602MOL0     H81240   1.486   9.091   4.759  1.5741 -1.0025  0.2607
  602MOL0     H81241   1.464   9.010   4.610  1.3825 -2.7534  1.1678
  602MOL0     H81242   1.465   8.840   4.766  1.1000  1.7187 -0.4922
  602MOL0     H81243   1.309   8.839   4.719  0.0405  0.3228 -0.9235
  602MOL0     H81244   1.387   8.983   4.980 -4.0262  1.3565  1.2878
  602MOL0     H81245   1.235   8.989   4.913  0.3979  0.5490 -3.1127
  602MOL0     H81246   1.293   8.808   5.102 -0.4851 -5.1999  1.0822
  602MOL0     H81247   1.358   8.718   4.969  1.9233  1.2722  1.6507
  602MOL0     H81248   1.141   8.695   4.868 -3.5956 -2.1758  1.7536
  602MOL0     H81249   1.139   8.639   5.032 -1.5365  0.2460  0.3451
  602MOL0     H81250   1.194   9.596   4.868 -1.7459  1.4933  1.8298
  602MOL0     H81251   1.113   9.694   5.089 -0.8896 -0.7196  1.0922
  602MOL0     H81252   1.041   9.489   5.672  1.6829  0.9976  1.2758
  602MOL0     H81253   0.864   9.560   5.832  3.2085 -0.0306 -0.3245
  602MOL0     H81254   0.607   9.055   4.857  1.7722 -1.5035  0.4384
  602MOL0     H81255   0.389   9.002   4.768  0.0258 -2.0536  3.0020
  602MOL0     H81256   0.248   8.661   4.386 -0.0981  0.4944  1.3835
  602MOL0     H81257   0.071   8.501   4.309  0.8125  0.3323  0.7720
  602MOL0     H81258  -0.108   8.346   4.478 -0.1294 -1.1655 -2.0994
  602MOL0     H81259  -0.244   8.316   4.381  1.4293 -0.3297 -0.0833
  602MOL0     H81260  -0.236   8.463   4.638 -1.2202 -1.0002  2.6842
  602MOL0     H81261  -0.328   8.304   4.603  1.1252  0.7659  2.0408
  602MOL0     H81262  -0.460   8.465   4.432  0.5093  0.7402  0.3807
  602MOL0     H81263  -0.411   8.590   4.549 -2.6367 -0.0258  1.0999
  602MOL0     H81264  -0.625   8.513   4.592  0.4291 -0.9321 -2.3106
  602MOL0     H81265  -0.561   8.349   4.609  1.8227  0.0681 -1.5716
  602MOL0     H81266  -0.475   8.541   4.991  3.7710 -3.9793  0.4011
  602MOL0     H81267  -0.203   8.695   4.560  0.0758  2.6718 -0.9040
  602MOL0     H81268  -0.150   8.853   4.742  0.0879 -1.0188  0.9254
  602MOL0     H81269   0.005   8.891   4.765 -0.8121 -1.1512 -0.0955
  602MOL0     H81270  -0.085   8.972   4.629 -2.0369 -1.9691 -2.2326
  603MOL0     O81271   1.265  11.455   5.637  0.4057  0.0007 -0.2308
  603MOL0     C81272   1.277  11.371   5.547 -0.3151  0.7093  0.5706
  603MOL0     O81273   1.215  11.376   5.420 -0.3809 -0.3260  0.1002
  603MOL0     C81274   1.205  11.496   5.360 -0.5643  0.7071  0.5721
  603MOL0     C81275   1.101  11.503   5.263  0.4680  0.0078 -1.0328
  603MOL0     C81276   1.090  11.615   5.176 -0.1179  0.0555  0.5512
  603MOL0     C81277   1.176  11.721   5.189 -0.1939  0.6100 -0.0229
  603MOL0     O81278   1.149  11.834   5.109  0.5274 -0.0490 -0.3055
  603MOL0     C81279   1.236  11.845   5.004  0.3875  0.5757 -0.7031
  603MOL0     C81280   1.330  11.964   5.019  0.5098  0.8540  0.1669
  603MOL0     C81281   1.373  12.006   4.872 -0.5580 -0.6334  0.4809
  603MOL0     C81282   1.261  12.095   4.818  0.3677 -1.1314  0.8041
  603MOL0     C81283   1.302  12.147   4.680  0.2263  0.0291  0.6322
  603MOL0     C81284   1.419  12.246   4.681 -0.2558 -0.5265  1.0010
  603MOL0     C81285   1.443  12.299   4.542 -0.0604 -0.0398  0.4996
  603MOL0     C81286   1.572  12.242   4.484 -0.7050  0.2301  0.5693
  603MOL0     N81287   1.570  12.090   4.468  0.5508  0.4665 -0.0628
  603MOL0     C81288   1.481  12.009   4.401 -0.2856  1.2480  0.7358
  603MOL0     C81289   1.527  11.884   4.434 -0.1202 -0.0958 -0.0601
  603MOL0     C81290   1.476  11.761   4.394 -0.0137  0.3218 -0.4665
  603MOL0     C81291   1.480  11.728   4.248 -0.4949  0.4224 -0.3141
  603MOL0     C81292   1.622  11.714   4.205 -0.3064 -0.0820 -0.2868
  603MOL0     C81293   1.618  11.672   4.063 -0.3721 -0.1499  0.6617
  603MOL0     O81294   1.746  11.632   4.009 -0.0028  0.9320 -0.6895
  603MOL0     C81295   1.779  11.653   3.882  0.8021  0.3816  1.0280
  603MOL0     C81296   1.693  11.617   3.787  0.3485 -0.5596  0.0090
  603MOL0     C81297   1.714  11.637   3.650  0.0162  1.1914 -0.0020
  603MOL0     C81298   1.825  11.714   3.611  0.6146 -0.4382  0.0962
  603MOL0     C81299   1.851  11.732   3.463  0.0381 -0.0394 -0.4022
  603MOL0     O81300   1.969  11.790   3.429 -0.2297  1.1059  0.0697
  603MOL0     C81301   1.984  11.814   3.295  0.1265 -1.3569 -0.6571
  603MOL0     C81302   1.993  11.714   3.201  0.9233 -0.1662  1.0554
  603MOL0     C81303   2.003  11.752   3.074 -0.1256  0.2140 -0.2993
  603MOL0     C81304   2.001  11.886   3.027 -0.1898 -0.0644 -0.5199
  603MOL0     O81305   1.994  11.917   2.891 -0.1496  0.3080  0.2150
  603MOL0     C81306   1.930  11.812   2.807  0.2959 -0.3786 -0.3778
  603MOL0     C81307   1.914  11.880   2.670 -0.5459 -0.0138 -0.7460
  603MOL0     C81308   1.791  11.977   2.669  0.2959  0.1213  0.4760
  603MOL0     C81309   1.752  12.042   2.528 -0.0666 -0.2739 -0.8548
  603MOL0     C81310   1.730  11.952   2.414  0.2506 -1.0363 -1.5522
  603MOL0     C81311   1.610  11.855   2.432 -1.1369  1.3185 -1.2199
  603MOL0     C81312   1.572  11.796   2.300  0.2473  0.6368 -0.4355
  603MOL0     C81313   1.501  11.665   2.314 -0.1118  0.7001 -0.2460
  603MOL0    Cl81314   1.591  11.534   2.385  0.0902 -1.1711 -0.1887
  603MOL0     C81315   1.986  11.992   3.127  0.7905  0.4231 -0.1838
  603MOL0     C81316   1.988  11.954   3.260 -0.8673  0.4326  1.0601
  603MOL0     O81317   1.760  11.695   3.387 -1.0594 -0.7669  0.5076
  603MOL0     C81318   1.915  11.760   3.711  1.2504 -0.1714 -0.4314
  603MOL0     C81319   1.896  11.722   3.841  1.2325 -0.5875 -0.0003
  603MOL0     N81320   1.633  11.895   4.521  0.1258 -0.4517 -0.2505
  603MOL0     N81321   1.661  12.014   4.532 -0.2759 -0.1422 -0.6420
  603MOL0     C81322   1.281  11.720   5.290 -0.5720  0.1850 -0.1285
  603MOL0     C81323   1.296  11.602   5.369  0.3522  0.9309 -0.1674
  603MOL0     C81324   1.354  11.251   5.581  0.2128  0.3114  0.1723
  603MOL0     C81325   1.451  11.265   5.688  0.5090 -0.7278  0.2362
  603MOL0     C81326   1.516  11.156   5.735  0.0148 -0.6661  0.0903
  603MOL0     C81327   1.512  11.035   5.669 -0.6608  0.2212  0.4352
  603MOL0     O81328   1.594  10.938   5.716  1.0977  0.4664 -0.3525
  603MOL0     C81329   1.618  10.815   5.646 -0.4316  0.0142 -0.0126
  603MOL0     C81330   1.718  10.727   5.732  0.0743  0.8305 -0.0661
  603MOL0     C81331   1.696  10.578   5.735 -0.3512  0.4828  0.0107
  603MOL0     C81332   1.790  10.504   5.836  0.9431 -0.1238 -0.2607
  603MOL0     C81333   1.930  10.526   5.805 -0.9600 -0.1768 -0.0319
  603MOL0     C81334   2.048  10.555   5.763  0.5714  0.2274 -1.2875
  603MOL0     C81335   1.432  11.021   5.561  0.1526  0.4493  0.2135
  603MOL0     C81336   1.341  11.122   5.528 -0.0345  0.4197  0.5797
  603MOL0     C81337   1.227  11.076   5.434 -0.0939 -0.3889  0.1910
  603MOL0     H81338   1.036  11.416   5.263  1.4956 -0.8156  1.0080
  603MOL0     H81339   1.018  11.622   5.095 -0.7473 -0.8907  1.0129
  603MOL0     H81340   1.290  11.753   4.979 -2.1900 -0.9320 -1.1671
  603MOL0     H81341   1.177  11.876   4.917  3.8405  2.3515 -2.6267
  603MOL0     H81342   1.413  11.940   5.087 -0.0870 -2.3404 -0.0529
  603MOL0     H81343   1.273  12.045   5.063 -2.9158 -2.2242  1.9107
  603MOL0     H81344   1.419  11.929   4.809  1.7769  1.1950 -0.1793
  603MOL0     H81345   1.458  12.074   4.882  0.9935 -1.3718 -4.6122
  603MOL0     H81346   1.168  12.038   4.827 -1.9506  2.3833  0.8569
  603MOL0     H81347   1.245  12.188   4.874 -5.4490  1.7487 -4.4934
  603MOL0     H81348   1.323  12.063   4.613 -2.2129 -0.1622  0.0170
  603MOL0     H81349   1.215  12.197   4.637  0.4097 -0.1449  0.0550
  603MOL0     H81350   1.390  12.330   4.745 -0.1641 -0.6108  1.1527
  603MOL0     H81351   1.510  12.205   4.725  0.2952  1.0647  1.4479
  603MOL0     H81352   1.449  12.408   4.549  1.5868 -0.1890  1.8455
  603MOL0     H81353   1.366  12.265   4.472  1.5409 -1.0783 -0.8456
  603MOL0     H81354   1.592  12.293   4.389 -0.8051  0.4102  0.6445
  603MOL0     H81355   1.654  12.273   4.549  2.4187 -1.7479 -2.0541
  603MOL0     H81356   1.398  12.030   4.334 -1.0623 -0.0752  1.2359
  603MOL0     H81357   1.521  11.683   4.457 -0.3916 -0.9829 -1.7687
  603MOL0     H81358   1.371  11.754   4.422  0.2550  1.9417  1.2111
  603MOL0     H81359   1.424  11.637   4.225 -0.2549  0.2353 -0.1515
  603MOL0     H81360   1.438  11.812   4.191 -0.2898  0.1162 -0.9202
  603MOL0     H81361   1.681  11.643   4.263 -2.5871 -0.3544  1.8443
  603MOL0     H81362   1.674  11.811   4.204 -0.4286  0.1371  2.8988
  603MOL0     H81363   1.583  11.750   3.995  3.0330 -0.3567 -1.5177
  603MOL0     H81364   1.557  11.582   4.051  0.8882 -1.0202  0.6093
  603MOL0     H81365   1.611  11.554   3.820 -2.6576  2.9013 -0.1917
  603MOL0     H81366   1.660  11.587   3.570 -1.2193  2.4252  0.0293
  603MOL0     H81367   1.983  11.606   3.205  2.4273 -0.3548  0.1542
  603MOL0     H81368   2.011  11.660   3.017 -0.3665  0.0057 -0.0009
  603MOL0     H81369   1.999  11.727   2.799 -0.8450 -1.1579 -2.7347
  603MOL0     H81370   1.836  11.774   2.849  0.0094  0.6623 -0.0628
  603MOL0     H81371   2.000  11.943   2.647  2.7190 -2.6886  2.8176
  603MOL0     H81372   1.896  11.802   2.595  1.1942 -1.8888  0.6789
  603MOL0     H81373   1.706  11.917   2.703 -0.7120  0.5348 -1.1840
  603MOL0     H81374   1.806  12.057   2.742  2.9100 -2.6694  3.3072
  603MOL0     H81375   1.834  12.107   2.497 -1.4724  0.7854 -2.5590
  603MOL0     H81376   1.671  12.116   2.529  0.5013  0.4250  1.7904
  603MOL0     H81377   1.818  11.890   2.398 -0.2073 -2.3631  0.5770
  603MOL0     H81378   1.727  12.008   2.321  1.7601  1.2803 -0.3000
  603MOL0     H81379   1.640  11.774   2.500 -2.5539  1.2206 -0.6774
  603MOL0     H81380   1.516  11.895   2.473 -1.3471 -1.3373  1.2659
  603MOL0     H81381   1.667  11.789   2.246  1.5364  5.6849  0.6117
  603MOL0     H81382   1.510  11.864   2.240  1.9679  1.8040 -0.9601
  603MOL0     H81383   1.411  11.682   2.374  1.7042  2.5247  2.1791
  603MOL0     H81384   1.465  11.627   2.218  2.4010 -1.6009 -0.3884
  603MOL0     H81385   1.971  12.094   3.094  0.8955  0.4185 -0.2463
  603MOL0     H81386   1.975  12.039   3.327  0.8486  0.6741  1.1210
  603MOL0     H81387   2.008  11.814   3.696  1.9339 -1.1918 -0.0306
  603MOL0     H81388   1.962  11.762   3.917 -1.1325  1.7652  0.9854
  603MOL0     H81389   1.359  11.794   5.300  0.7711 -1.4449  2.4861
  603MOL0     H81390   1.388  11.591   5.425  0.6899 -2.7804 -1.1472
  603MOL0     H81391   1.463  11.351   5.752  0.8082 -0.2006 -0.5118
  603MOL0     H81392   1.585  11.163   5.819  0.2551  0.4090 -0.1788
  603MOL0     H81393   1.655  10.835   5.545 -1.2721  1.7451 -0.0110
  603MOL0     H81394   1.520  10.767   5.636 -0.5999  0.4688 -0.5905
  603MOL0     H81395   1.717  10.768   5.833  0.1724  1.6904 -0.4076
  603MOL0     H81396   1.820  10.735   5.692 -0.5013 -3.2505 -2.9952
  603MOL0     H81397   1.719  10.544   5.633  1.3738  0.0732  0.4968
  603MOL0     H81398   1.590  10.571   5.762 -0.2612 -1.2928  0.0773
  603MOL0     H81399   1.783  10.541   5.938  3.7663  0.5744 -0.2165
  603MOL0     H81400   1.773  10.397   5.829  3.9599 -0.6375 -1.4689
  603MOL0     H81401   2.145  10.585   5.728  1.3035 -1.3157 -0.6677
  603MOL0     H81402   1.429  10.928   5.505  1.5963  1.0219 -0.8773
  603MOL0     H81403   1.133  11.122   5.464  0.2963  0.4053  0.2376
  603MOL0     H81404   1.244  11.103   5.330 -0.9357 -0.2148  0.0960
  603MOL0     H81405   1.219  10.967   5.439 -2.7644 -0.3155 -1.0788
  604MOL0     O81406   7.585   3.163  10.995 -0.6379  0.5436  0.3052
  604MOL0     C81407   7.587   3.232  10.892 -0.6600 -0.1029 -0.7997
  604MOL0     O81408   7.647   3.350  10.888  0.0491  0.4451  0.1840
  604MOL0     C81409   7.741   3.394  10.982 -0.5108  0.6143 -0.3249
  604MOL0     C81410   7.714   3.506  11.069 -0.7375  0.5191  0.1867
  604MOL0     C81411   7.828   3.556  11.144  0.5519  0.7711  0.1811
  604MOL0     C81412   7.944   3.489  11.152  0.3659 -0.2270 -0.1424
  604MOL0     O81413   8.035   3.538  11.240 -0.3567 -0.7321 -0.6979
  604MOL0     C81414   8.121   3.438  11.299  0.1595  0.4158 -0.4018
  604MOL0     C81415   8.233   3.505  11.378 -0.6373  1.1023 -0.4107
  604MOL0     C81416   8.177   3.611  11.479  0.1344 -0.1637 -0.0707
  604MOL0     C81417   8.287   3.653  11.577 -1.1571 -0.2732 -0.0174
  604MOL0     C81418   8.231   3.747  11.682 -0.7212 -0.0714 -0.0098
  604MOL0     C81419   8.340   3.807  11.758 -0.4921 -0.0068 -1.6604
  604MOL0     C81420   8.266   3.884  11.878  0.2606  0.4777  0.9756
  604MOL0     C81421   8.366   3.940  11.987  0.3530  0.1873 -0.7912
  604MOL0     N81422   8.502   3.982  11.943 -0.1477  0.9645  0.2325
  604MOL0     C81423   8.628   3.938  11.998  0.6245 -0.2356 -1.0469
  604MOL0     C81424   8.730   4.000  11.937 -0.3287  0.1713 -0.4278
  604MOL0     C81425   8.874   3.992  11.962  1.0456 -0.9072 -0.2011
  604MOL0     C81426   8.940   4.111  12.037 -0.0177  0.2745  0.3821
  604MOL0     C81427   9.081   4.068  12.082 -0.4352  0.4046 -0.0406
  604MOL0     C81428   9.169   4.169  12.149  0.1874  0.2289 -0.0831
  604MOL0     O81429   9.110   4.206  12.273  0.0374  0.1267  0.6352
  604MOL0     C81430   9.120   4.342  12.292  0.1728  0.5615 -0.5804
  604MOL0     C81431   9.019   4.422  12.255 -0.0434  0.4047  0.4796
  604MOL0     C81432   9.045   4.559  12.254  0.1314  0.0623 -0.3425
  604MOL0     C81433   9.174   4.610  12.304  0.8856 -0.3680 -0.8733
  604MOL0     C81434   9.209   4.756  12.294  0.3045 -0.4550  0.0130
  604MOL0     O81435   9.332   4.777  12.254  0.5688  0.0347 -0.2981
  604MOL0     C81436   9.363   4.900  12.224  0.7426  0.0175  0.5891
  604MOL0     C81437   9.413   4.931  12.099 -0.2005  0.2573 -0.5596
  604MOL0     C81438   9.473   5.056  12.072 -0.9148  0.0065  0.9117
  604MOL0     C81439   9.487   5.149  12.180  0.6102 -0.5322  1.1225
  604MOL0     O81440   9.550   5.270  12.157  0.5849 -0.2619 -0.3825
  604MOL0     C81441   9.691   5.275  12.170  0.4891  0.4479  0.0714
  604MOL0     C81442   9.742   5.424  12.174 -1.0037  0.6481  0.2520
  604MOL0     C81443   9.695   5.505  12.051 -0.0030 -1.1206 -0.2533
  604MOL0     C81444   9.785   5.640  12.067  1.1920  0.3396 -0.1636
  604MOL0     C81445   9.747   5.746  11.968 -0.1985  0.1399 -0.4700
  604MOL0     C81446   9.799   5.879  12.019  0.7206 -0.1303  0.9838
  604MOL0     C81447   9.772   6.001  11.919  0.1047  0.2183 -0.1893
  604MOL0     C81448   9.878   6.113  11.937  0.3599 -0.2109  0.4883
  604MOL0    Cl81449   9.881   6.233  11.796  0.1865  0.4444 -0.1889
  604MOL0     C81450   9.431   5.116  12.302 -0.6833  0.1362  0.0204
  604MOL0     C81451   9.366   4.996  12.325 -0.3421  0.4908  0.6171
  604MOL0     O81452   9.113   4.840  12.319  0.4904  0.4305 -0.1067
  604MOL0     C81453   9.270   4.518  12.347  0.6931  0.2541 -0.3653
  604MOL0     C81454   9.241   4.383  12.339  0.0497  0.6942 -1.0677
  604MOL0     N81455   8.661   4.077  11.844  0.3585  0.2549  1.1144
  604MOL0     N81456   8.535   4.065  11.845 -0.1740 -0.7612 -0.4104
  604MOL0     C81457   7.960   3.372  11.075 -0.1007  0.3045 -0.8110
  604MOL0     C81458   7.864   3.319  10.990  0.9358  0.5364  0.6648
  604MOL0     C81459   7.525   3.163  10.768 -0.4103  0.1439  0.4719
  604MOL0     C81460   7.462   3.040  10.796  0.7514 -0.6160 -0.2035
  604MOL0     C81461   7.407   2.960  10.690  0.6498  0.8621  0.9966
  604MOL0     C81462   7.399   3.016  10.558 -0.7511  0.7481 -0.4343
  604MOL0     O81463   7.325   2.967  10.450 -0.4869 -0.7859  0.1854
  604MOL0     C81464   7.230   2.865  10.469  0.8446 -0.0205 -0.2982
  604MOL0     C81465   7.125   2.831  10.370  0.3338  0.3843 -0.1276
  604MOL0     C81466   7.199   2.778  10.244 -0.7042  0.6751 -0.1224
  604MOL0     C81467   7.117   2.756  10.127  0.3884 -0.1440  0.7567
  604MOL0     C81468   7.019   2.646  10.148  0.3715  0.1167 -0.0886
  604MOL0     C81469   6.938   2.550  10.160 -0.8685  0.7724  0.7004
  604MOL0     C81470   7.477   3.131  10.534  0.3432  0.4850 -0.3140
  604MOL0     C81471   7.540   3.207  10.635  0.1914  0.2404 -0.2341
  604MOL0     C81472   7.626   3.326  10.604 -0.0493 -1.5139  0.3868
  604MOL0     H81473   7.615   3.548  11.063 -1.4765 -1.0911  0.6372
  604MOL0     H81474   7.820   3.649  11.199 -1.7666  0.6621  0.1239
  604MOL0     H81475   8.074   3.364  11.365  1.3267  0.3047  0.3511
  604MOL0     H81476   8.169   3.373  11.225  3.7497 -0.8495  2.6904
  604MOL0     H81477   8.305   3.546  11.307 -0.5452 -4.5788 -4.1718
  604MOL0     H81478   8.291   3.435  11.438 -3.3617 -0.1396  0.9671
  604MOL0     H81479   8.096   3.568  11.537 -2.2729 -0.4112 -3.3250
  604MOL0     H81480   8.128   3.696  11.431 -0.7727 -1.1224 -0.8923
  604MOL0     H81481   8.324   3.560  11.622 -2.5819  0.5394  3.0423
  604MOL0     H81482   8.365   3.707  11.523 -2.0200  2.9414  1.6701
  604MOL0     H81483   8.149   3.811  11.647 -0.9886 -0.5187 -0.2173
  604MOL0     H81484   8.174   3.685  11.752 -0.3763 -2.6080 -1.8013
  604MOL0     H81485   8.413   3.735  11.797 -2.9288 -3.3030 -2.6927
  604MOL0     H81486   8.384   3.877  11.687 -2.7122  1.4780 -1.6704
  604MOL0     H81487   8.212   3.804  11.929  0.3738 -0.3443 -0.1697
  604MOL0     H81488   8.196   3.960  11.841 -1.8461 -1.4323  0.8689
  604MOL0     H81489   8.327   4.033  12.030  1.2219  0.6131 -0.9086
  604MOL0     H81490   8.366   3.864  12.065 -0.5507  2.1163  1.1980
  604MOL0     H81491   8.633   3.890  12.096 -1.6627  0.0669 -0.7398
  604MOL0     H81492   8.909   3.904  12.017 -1.3865 -0.9836  1.4124
  604MOL0     H81493   8.912   3.992  11.859 -0.5529 -0.0057 -0.8421
  604MOL0     H81494   8.939   4.203  11.977  2.4722 -0.5790 -1.0982
  604MOL0     H81495   8.882   4.146  12.123 -1.3241  0.4973 -0.5478
  604MOL0     H81496   9.137   4.043  11.991 -2.1094 -0.0344 -1.0070
  604MOL0     H81497   9.063   3.979  12.143  0.8859 -0.7488 -1.2497
  604MOL0     H81498   9.169   4.262  12.091  0.0670  0.6370  0.5713
  604MOL0     H81499   9.272   4.130  12.148 -0.0535 -0.6527 -3.4298
  604MOL0     H81500   8.923   4.383  12.224  0.8651 -1.9595  0.4213
  604MOL0     H81501   8.960   4.626  12.237 -0.0880  0.0205  0.5402
  604MOL0     H81502   9.407   4.854  12.023 -0.0426  2.1318 -2.5625
  604MOL0     H81503   9.525   5.078  11.979  0.2048  1.8838  1.9221
  604MOL0     H81504   9.729   5.230  12.262  0.2941  2.2203  1.0485
  604MOL0     H81505   9.730   5.217  12.085 -0.2693 -0.8456  0.5639
  604MOL0     H81506   9.715   5.475  12.267 -1.3424  3.2253 -1.1696
  604MOL0     H81507   9.850   5.407  12.178 -1.2889 -1.2035  2.3861
  604MOL0     H81508   9.706   5.459  11.953  0.5083  0.3386 -0.9119
  604MOL0     H81509   9.590   5.531  12.065 -0.3631 -1.2730 -2.3376
  604MOL0     H81510   9.890   5.616  12.047  2.5661  3.0797  2.9659
  604MOL0     H81511   9.786   5.682  12.168  0.0594 -1.5640  0.6957
  604MOL0     H81512   9.638   5.750  11.959 -0.5579 -3.0870  0.8646
  604MOL0     H81513   9.794   5.723  11.871  0.7503  1.0120 -0.2332
  604MOL0     H81514   9.753   5.914  12.112 -1.4993  0.1395 -0.1442
  604MOL0     H81515   9.901   5.867  12.055  0.2034 -0.6294  2.3496
  604MOL0     H81516   9.666   6.029  11.929 -1.5373 -5.3762  1.5907
  604MOL0     H81517   9.795   5.977  11.814 -0.2854 -0.4419 -0.1315
  604MOL0     H81518   9.859   6.170  12.028 -0.5258  2.5585 -1.3022
  604MOL0     H81519   9.977   6.065  11.930 -0.4178 -1.8143 -0.0931
  604MOL0     H81520   9.435   5.188  12.384 -2.6554  2.8898 -2.0907
  604MOL0     H81521   9.335   4.967  12.425 -2.5335 -1.4214 -0.5248
  604MOL0     H81522   9.359   4.549  12.400  1.9096 -0.2796 -2.0005
  604MOL0     H81523   9.315   4.320  12.388 -0.3742  1.0623  0.0961
  604MOL0     H81524   8.053   3.318  11.058 -0.7810 -0.7693 -1.2494
  604MOL0     H81525   7.875   3.238  10.919 -0.9953 -0.4497  1.4186
  604MOL0     H81526   7.450   3.019  10.902  1.3366  0.7686  0.1576
  604MOL0     H81527   7.354   2.866  10.706  0.6856  0.0818 -2.7276
  604MOL0     H81528   7.177   2.901  10.557  1.7952  2.6428 -0.7382
  604MOL0     H81529   7.286   2.774  10.495  1.8595  0.4589 -0.7551
  604MOL0     H81530   7.059   2.912  10.339  0.8233  0.2245 -1.7115
  604MOL0     H81531   7.067   2.750  10.416  1.6513 -1.6141 -1.7631
  604MOL0     H81532   7.234   2.676  10.265 -2.2732 -0.6383 -3.1467
  604MOL0     H81533   7.283   2.841  10.216  0.1975 -0.0845  0.8321
  604MOL0     H81534   7.050   2.841  10.111 -0.4335 -1.0508 -0.8938
  604MOL0     H81535   7.178   2.734  10.039  0.0550  0.4843  0.3574
  604MOL0     H81536   6.874   2.465  10.173  0.4319 -0.1956  1.0380
  604MOL0     H81537   7.488   3.141  10.426  0.0640 -0.0330 -0.3948
  604MOL0     H81538   7.606   3.408  10.675  1.9501  0.6018 -1.3298
  604MOL0     H81539   7.732   3.303  10.614  0.2940  0.1234  0.9220
  604MOL0     H81540   7.601   3.360  10.503  0.1746 -2.4390  0.0120
  605MOL0     O81541  10.045   0.519   4.974  0.1143  0.1762  0.2424
  605MOL0     C81542   9.949   0.446   4.966  0.1256 -0.2097  0.6002
  605MOL0     O81543   9.945   0.313   4.920  0.5367  0.1530 -0.1928
  605MOL0     C81544  10.064   0.277   4.871  0.1146 -0.3552 -0.3246
  605MOL0     C81545  10.078   0.274   4.732 -0.2129  0.1132  0.7017
  605MOL0     C81546  10.186   0.215   4.666  0.4883  0.0950  0.7146
  605MOL0     C81547  10.292   0.156   4.737 -0.6209 -0.7923 -0.8813
  605MOL0     O81548  10.407   0.127   4.667 -0.6373 -1.2038 -0.6148
  605MOL0     C81549  10.527   0.119   4.735  0.8209 -0.5766 -0.1066
  605MOL0     C81550  10.632   0.132   4.612 -0.6905 -0.3491  0.7850
  605MOL0     C81551  10.781   0.133   4.661 -1.1591 -0.4634  0.1573
  605MOL0     C81552  10.885   0.136   4.549 -0.2716 -0.6262  0.3467
  605MOL0     C81553  11.022   0.155   4.613  1.3316 -0.6217  0.2899
  605MOL0     C81554  11.140   0.117   4.527 -0.1093 -0.8603 -0.0861
  605MOL0     C81555  11.171  -0.030   4.552  0.4066  0.1719 -0.1194
  605MOL0     C81556  11.283  -0.080   4.469 -0.8023  0.5402  0.3549
  605MOL0     N81557  11.231  -0.104   4.327  0.3396 -0.8088  0.3273
  605MOL0     C81558  11.122  -0.173   4.281  1.0055 -0.4939  0.3191
  605MOL0     C81559  11.123  -0.155   4.143  0.5713 -0.3779  0.4007
  605MOL0     C81560  11.025  -0.202   4.042 -0.2873  0.0008 -0.0989
  605MOL0     C81561  10.883  -0.226   4.105 -0.6477 -0.0395 -0.2275
  605MOL0     C81562  10.831  -0.101   4.176  0.4350  0.0077  0.3022
  605MOL0     C81563  10.678  -0.089   4.191  0.5161 -0.6542 -0.6019
  605MOL0     O81564  10.639  -0.210   4.261 -0.2787  0.4461  0.0017
  605MOL0     C81565  10.504  -0.228   4.272 -0.3714 -0.2774  0.5133
  605MOL0     C81566  10.463  -0.361   4.270 -1.1294  0.8417  1.2877
  605MOL0     C81567  10.333  -0.390   4.296  0.1017  0.3056  0.0058
  605MOL0     C81568  10.239  -0.292   4.334 -0.2132  0.0014  0.8915
  605MOL0     C81569  10.095  -0.322   4.348 -0.2184 -0.2367  0.1737
  605MOL0     O81570  10.012  -0.212   4.381 -0.6442 -0.0461  0.0803
  605MOL0     C81571   9.875  -0.229   4.394 -0.9412  0.6266 -0.1438
  605MOL0     C81572   9.808  -0.105   4.383  0.4158  0.1459  0.3333
  605MOL0     C81573   9.666  -0.102   4.394  1.2195  1.0618  0.2626
  605MOL0     C81574   9.596  -0.219   4.432 -0.1210  0.0923 -0.3977
  605MOL0     O81575   9.461  -0.222   4.446  0.4819 -0.4918 -0.2502
  605MOL0     C81576   9.391  -0.098   4.483 -0.9748  0.1071  0.0741
  605MOL0     C81577   9.244  -0.114   4.529  0.8698 -0.0982  0.1618
  605MOL0     C81578   9.168  -0.220   4.453 -0.9945  0.1846 -0.1420
  605MOL0     C81579   9.018  -0.190   4.460 -0.1618  0.7437 -0.0006
  605MOL0     C81580   8.924  -0.313   4.437 -0.3140 -0.1846  0.2768
  605MOL0     C81581   8.870  -0.380   4.559 -0.2091  0.9130 -0.6006
  605MOL0     C81582   8.806  -0.510   4.501 -0.2231 -0.4991 -0.3518
  605MOL0     C81583   8.764  -0.604   4.599 -0.0656  0.5265 -0.7342
  605MOL0    Cl81584   8.898  -0.646   4.707 -0.0939  0.5861 -0.6648
  605MOL0     C81585   9.663  -0.338   4.453 -0.2137 -0.1388 -0.8100
  605MOL0     C81586   9.808  -0.345   4.433 -0.0407 -0.3491 -0.2513
  605MOL0     O81587  10.062  -0.438   4.326  0.2582 -0.5793  0.5598
  605MOL0     C81588  10.275  -0.154   4.327  0.8200 -0.7719 -1.0897
  605MOL0     C81589  10.411  -0.127   4.304 -0.3814  0.7098  0.6453
  605MOL0     N81590  11.230  -0.065   4.115  0.1829 -0.6093 -0.4796
  605MOL0     N81591  11.293  -0.043   4.223 -0.0823 -0.0647 -0.5594
  605MOL0     C81592  10.276   0.145   4.875 -0.6033 -0.3173  0.0062
  605MOL0     C81593  10.164   0.206   4.945 -0.7531  0.4488  1.3091
  605MOL0     C81594   9.822   0.500   5.027  0.0587 -0.0469  0.3423
  605MOL0     C81595   9.726   0.412   5.066  1.1053  1.0601 -0.4780
  605MOL0     C81596   9.607   0.457   5.134 -0.9242 -0.0797  0.7500
  605MOL0     C81597   9.564   0.594   5.134  0.1360  1.0333  0.9984
  605MOL0     O81598   9.450   0.607   5.194  0.7230 -0.1861  0.3392
  605MOL0     C81599   9.425   0.739   5.249 -0.4338  0.3166  0.6996
  605MOL0     C81600   9.328   0.803   5.144 -1.0239  1.2931 -0.4961
  605MOL0     C81601   9.185   0.741   5.148 -0.4218 -0.4283  0.1392
  605MOL0     C81602   9.176   0.602   5.085  0.4986  1.2009  0.2218
  605MOL0     C81603   9.048   0.570   5.024 -0.1385  0.7755 -0.4191
  605MOL0     C81604   8.950   0.525   4.975 -0.0391 -0.0972 -0.0274
  605MOL0     C81605   9.660   0.687   5.084  0.2157 -0.5374  0.3326
  605MOL0     C81606   9.784   0.641   5.037  0.1541 -0.0519 -0.5213
  605MOL0     C81607   9.870   0.763   5.009 -0.3644  0.6258  1.2369
  605MOL0     H81608   9.996   0.316   4.675  0.1355 -0.3701 -0.1913
  605MOL0     H81609  10.210   0.227   4.561  0.2097  1.8425  0.8132
  605MOL0     H81610  10.524   0.206   4.800 -3.8543 -1.1924  0.8972
  605MOL0     H81611  10.536   0.025   4.790 -0.1842  0.5171  2.0411
  605MOL0     H81612  10.613   0.219   4.548  2.8327  1.3633  1.8018
  605MOL0     H81613  10.608   0.039   4.560  0.5336 -0.2147 -0.0806
  605MOL0     H81614  10.807   0.052   4.730 -1.0101 -2.2656 -1.9003
  605MOL0     H81615  10.793   0.227   4.716  0.3565  0.7188 -2.0040
  605MOL0     H81616  10.884   0.045   4.487 -1.3174 -0.6048  0.3265
  605MOL0     H81617  10.870   0.218   4.478 -0.4787 -1.9649 -1.2323
  605MOL0     H81618  11.027   0.261   4.638 -1.6412 -0.6000  1.0888
  605MOL0     H81619  11.034   0.100   4.707 -0.8796 -0.6298  0.6034
  605MOL0     H81620  11.106   0.140   4.426 -1.2231  0.7898  0.6098
  605MOL0     H81621  11.226   0.180   4.552 -2.3409  2.4513 -0.0578
  605MOL0     H81622  11.078  -0.086   4.548  0.4818 -0.1151  1.7144
  605MOL0     H81623  11.216  -0.037   4.651  2.6191 -1.5914 -1.1555
  605MOL0     H81624  11.365  -0.009   4.479  0.6807 -1.1072  0.4387
  605MOL0     H81625  11.308  -0.175   4.518 -0.2665  1.3034  1.6273
  605MOL0     H81626  11.042  -0.216   4.340 -0.6190 -0.2586 -1.5819
  605MOL0     H81627  11.018  -0.120   3.969 -1.6620  1.1759  1.2645
  605MOL0     H81628  11.062  -0.288   3.986  0.7341  0.6457 -0.4257
  605MOL0     H81629  10.821  -0.238   4.016  0.3008 -1.5520 -0.7266
  605MOL0     H81630  10.889  -0.314   4.170  2.6486  0.2579  0.0560
  605MOL0     H81631  10.870  -0.015   4.123  2.1059 -1.7004 -1.3930
  605MOL0     H81632  10.873  -0.087   4.276  0.3740  1.2240  0.1658
  605MOL0     H81633  10.624  -0.091   4.096 -1.2012  0.1035  0.3177
  605MOL0     H81634  10.647   0.002   4.242  1.6908 -0.1307 -0.7980
  605MOL0     H81635  10.534  -0.442   4.274 -4.2933 -2.1188  2.2225
  605MOL0     H81636  10.292  -0.490   4.306 -0.3298  0.6221  1.7221
  605MOL0     H81637   9.859  -0.013   4.357  2.7141 -1.3465 -0.7691
  605MOL0     H81638   9.612  -0.009   4.382 -0.7490 -0.2004 -1.6508
  605MOL0     H81639   9.441  -0.062   4.573  1.3242 -1.4195 -0.5066
  605MOL0     H81640   9.396  -0.027   4.400 -1.0786 -0.6028 -0.5572
  605MOL0     H81641   9.244  -0.146   4.633 -1.1645  2.0778  0.9314
  605MOL0     H81642   9.187  -0.021   4.519  0.2314 -0.5461 -0.4372
  605MOL0     H81643   9.203  -0.209   4.350  0.1839  1.7989  0.3894
  605MOL0     H81644   9.192  -0.319   4.495  3.0054  1.2166  0.4376
  605MOL0     H81645   8.984  -0.129   4.375 -1.0055 -1.2493 -1.1740
  605MOL0     H81646   8.985  -0.144   4.553 -1.4857 -1.7726  0.8723
  605MOL0     H81647   8.971  -0.384   4.369  2.3715  2.3352 -0.7220
  605MOL0     H81648   8.849  -0.267   4.373  0.3597  3.0214  1.5788
  605MOL0     H81649   8.950  -0.399   4.632 -1.7740 -4.6371  0.0879
  605MOL0     H81650   8.799  -0.314   4.610  1.4741  2.5310 -0.2362
  605MOL0     H81651   8.886  -0.566   4.452 -1.8600 -2.4177 -0.9620
  605MOL0     H81652   8.733  -0.496   4.421  0.6226 -0.8345 -1.2006
  605MOL0     H81653   8.688  -0.563   4.667  0.6309 -2.4956  2.1753
  605MOL0     H81654   8.722  -0.697   4.558 -2.1609  0.9739  0.2509
  605MOL0     H81655   9.609  -0.430   4.475 -3.1838  1.6325 -0.1762
  605MOL0     H81656   9.862  -0.436   4.458  1.1170  0.3425 -0.1284
  605MOL0     H81657  10.216  -0.066   4.352  3.4603  0.3582  1.8572
  605MOL0     H81658  10.452  -0.027   4.319  2.1547  0.1619 -1.8240
  605MOL0     H81659  10.341   0.087   4.939 -0.2478  0.3028  0.2220
  605MOL0     H81660  10.146   0.192   5.051  1.9189  2.5996  2.1793
  605MOL0     H81661   9.747   0.305   5.070 -1.0112  0.6144  0.3347
  605MOL0     H81662   9.533   0.388   5.175 -2.1899  0.1553 -1.0449
  605MOL0     H81663   9.512   0.800   5.273  0.1423 -1.3602  3.4040
  605MOL0     H81664   9.365   0.727   5.340 -1.8397  1.6807  0.0042
  605MOL0     H81665   9.370   0.796   5.044 -3.2662 -0.4362 -1.4064
  605MOL0     H81666   9.323   0.909   5.171  0.4083  1.1139  0.6533
  605MOL0     H81667   9.111   0.808   5.102 -0.9059  0.3256  1.9227
  605MOL0     H81668   9.158   0.738   5.254  0.2437  0.1873  0.3360
  605MOL0     H81669   9.242   0.595   4.997  0.0674 -0.7038  0.0196
  605MOL0     H81670   9.214   0.522   5.148  0.5380  0.5776 -0.5711
  605MOL0     H81671   8.855   0.490   4.939 -2.2343  2.6752  2.5433
  605MOL0     H81672   9.651   0.795   5.091 -0.2631 -0.3624 -2.0305
  605MOL0     H81673   9.944   0.723   4.938 -2.5670 -2.2338  0.3623
  605MOL0     H81674   9.809   0.840   4.962 -2.7734 -1.8677  0.0461
  605MOL0     H81675   9.922   0.782   5.103 -2.6032 -0.2100  2.7243
  606MOL0     O81676   9.903   1.670   6.614  0.7443 -0.1985 -0.2296
  606MOL0     C81677   9.976   1.772   6.622 -1.3223 -0.0881 -0.2438
  606MOL0     O81678   9.962   1.887   6.555 -0.6294  0.0437  0.2477
  606MOL0     C81679   9.838   1.943   6.512  0.4351  0.8985 -0.6190
  606MOL0     C81680   9.711   1.913   6.579  0.6678 -0.0281  0.1620
  606MOL0     C81681   9.595   1.984   6.537 -0.0198  0.2466  0.0261
  606MOL0     C81682   9.595   2.055   6.419  0.0595  0.1612 -0.2634
  606MOL0     O81683   9.480   2.114   6.363 -0.1562 -0.3385  0.0489
  606MOL0     C81684   9.484   2.255   6.339 -0.0410 -0.4108  0.9712
  606MOL0     C81685   9.450   2.327   6.469  0.5860 -0.1659 -0.0932
  606MOL0     C81686   9.417   2.482   6.444 -0.1147 -0.0973 -0.4415
  606MOL0     C81687   9.416   2.579   6.568  0.4134 -1.1625 -0.5517
  606MOL0     C81688   9.399   2.730   6.523  0.7190  0.6852  0.2865
  606MOL0     C81689   9.352   2.831   6.629 -0.9400  0.4853  0.0366
  606MOL0     C81690   9.334   2.972   6.566  0.5823 -0.0778  0.6835
  606MOL0     C81691   9.267   3.064   6.672  0.3378  0.3351  0.4058
  606MOL0     N81692   9.263   3.206   6.637  0.0510 -0.0418  0.4512
  606MOL0     C81693   9.360   3.279   6.572 -0.2984  0.1359 -0.1263
  606MOL0     C81694   9.293   3.395   6.530  0.6557 -0.5844 -0.1517
  606MOL0     C81695   9.348   3.506   6.440  0.2634 -0.1342  0.3678
  606MOL0     C81696   9.381   3.635   6.508 -0.3925 -0.0922  0.7538
  606MOL0     C81697   9.499   3.618   6.597  0.0084 -0.2552 -0.6416
  606MOL0     C81698   9.500   3.742   6.689 -0.7181 -0.0726 -0.2957
  606MOL0     O81699   9.618   3.735   6.771  0.0132 -0.9499 -0.3488
  606MOL0     C81700   9.644   3.847   6.852  0.5585  0.2033 -0.6049
  606MOL0     C81701   9.762   3.843   6.934  0.1931  0.4667  0.4681
  606MOL0     C81702   9.789   3.945   7.026  0.6726  0.5310 -0.4898
  606MOL0     C81703   9.706   4.046   7.045 -0.5979  0.3598 -0.0454
  606MOL0     C81704   9.724   4.141   7.156 -1.2027 -0.5573  0.4145
  606MOL0     O81705   9.618   4.201   7.203  0.4670  0.8573  0.1450
  606MOL0     C81706   9.606   4.236   7.334  0.7225  0.5643  0.3601
  606MOL0     C81707   9.664   4.179   7.447 -0.7128 -0.5546 -0.6322
  606MOL0     C81708   9.623   4.212   7.575 -0.6926  0.2863  0.4356
  606MOL0     C81709   9.525   4.307   7.601  0.6091  0.3943 -1.2880
  606MOL0     O81710   9.483   4.348   7.725  0.5111  0.1091 -0.9510
  606MOL0     C81711   9.537   4.296   7.852 -0.3695 -0.0233  0.1744
  606MOL0     C81712   9.494   4.150   7.879 -0.0690  0.3475 -0.8966
  606MOL0     C81713   9.341   4.131   7.876 -1.2027 -0.5127 -0.0893
  606MOL0     C81714   9.282   4.045   7.987  0.4443  0.5197 -0.1525
  606MOL0     C81715   9.321   4.076   8.134  0.2200 -0.3086 -0.0889
  606MOL0     C81716   9.238   3.999   8.227 -0.1174  0.0263 -0.8859
  606MOL0     C81717   9.098   4.057   8.238  1.4905 -0.2578 -1.5359
  606MOL0     C81718   9.083   4.180   8.329  0.0290  0.1549  0.1922
  606MOL0    Cl81719   8.909   4.218   8.373  0.0754 -0.0570  0.0476
  606MOL0     C81720   9.459   4.363   7.488 -0.7462  0.1760 -1.1606
  606MOL0     C81721   9.506   4.328   7.363 -0.7839  0.5966  0.3683
  606MOL0     O81722   9.835   4.162   7.202 -0.6842  0.0853 -0.8223
  606MOL0     C81723   9.587   4.050   6.970 -0.5777 -0.1335  0.2636
  606MOL0     C81724   9.558   3.960   6.866  0.7122 -0.3484 -0.5219
  606MOL0     N81725   9.170   3.399   6.590  0.4998  0.2121 -0.0530
  606MOL0     N81726   9.148   3.283   6.644  0.2213  0.0921  1.4804
  606MOL0     C81727   9.713   2.060   6.345 -1.0384 -0.3390 -0.1721
  606MOL0     C81728   9.834   2.011   6.393 -0.1036  0.0795 -0.0354
  606MOL0     C81729  10.094   1.776   6.714 -0.4551  0.5342  0.3311
  606MOL0     C81730  10.149   1.897   6.743 -0.9272 -0.0219 -0.1960
  606MOL0     C81731  10.234   1.914   6.853  0.5829  0.5065  0.4935
  606MOL0     C81732  10.277   1.804   6.923  0.8117 -0.0600 -1.1455
  606MOL0     O81733  10.372   1.836   7.019  0.5905  0.4653  0.0390
  606MOL0     C81734  10.422   1.719   7.088 -0.1601 -0.0112 -0.1192
  606MOL0     C81735  10.538   1.751   7.196  0.4804  0.5075  0.0131
  606MOL0     C81736  10.531   1.660   7.319 -0.2015 -0.0145  0.2224
  606MOL0     C81737  10.562   1.506   7.290  0.6448  0.3055  0.4021
  606MOL0     C81738  10.530   1.418   7.405 -1.2462 -0.5033  0.2496
  606MOL0     C81739  10.515   1.339   7.488  0.1458  0.4750  0.0987
  606MOL0     C81740  10.232   1.676   6.886  0.0309  0.1056 -0.9972
  606MOL0     C81741  10.139   1.664   6.788  1.1820  1.1433  0.2661
  606MOL0     C81742  10.088   1.527   6.745 -0.1677 -0.0595  0.2812
  606MOL0     H81743   9.704   1.836   6.655 -1.5696 -1.8807 -1.7505
  606MOL0     H81744   9.506   1.982   6.599 -2.6721  0.9400 -3.4196
  606MOL0     H81745   9.586   2.286   6.317  0.0560 -1.4703 -0.2139
  606MOL0     H81746   9.426   2.269   6.247  0.6371  0.2296  0.6290
  606MOL0     H81747   9.536   2.305   6.533 -2.2276 -4.4303  2.8015
  606MOL0     H81748   9.362   2.285   6.519  0.4053  0.9684  0.5812
  606MOL0     H81749   9.314   2.480   6.407 -0.8057 -0.2560  1.4054
  606MOL0     H81750   9.483   2.527   6.369  1.7057  0.1922  1.2325
  606MOL0     H81751   9.333   2.550   6.633  0.8362 -3.3674 -0.9190
  606MOL0     H81752   9.511   2.562   6.619  1.8636 -1.8508 -3.2768
  606MOL0     H81753   9.488   2.772   6.477  0.6203  0.9113  0.3007
  606MOL0     H81754   9.325   2.724   6.442  1.1892 -1.7922 -0.0596
  606MOL0     H81755   9.251   2.798   6.656 -0.9104 -1.4202 -1.8330
  606MOL0     H81756   9.415   2.851   6.716  0.0418  5.3206 -1.5200
  606MOL0     H81757   9.269   2.966   6.479  0.7750 -0.1605  0.5434
  606MOL0     H81758   9.430   3.016   6.537 -0.5566  1.6129 -0.7269
  606MOL0     H81759   9.166   3.021   6.676  0.6305 -0.3141  1.1154
  606MOL0     H81760   9.322   3.064   6.767 -1.0615  2.3780  1.2835
  606MOL0     H81761   9.464   3.257   6.547 -0.4109  0.2499 -0.7014
  606MOL0     H81762   9.439   3.468   6.392  0.2588 -2.0485  1.7806
  606MOL0     H81763   9.278   3.517   6.356 -1.1252 -3.4866  0.9178
  606MOL0     H81764   9.388   3.708   6.427  2.5661  0.2573  1.2148
  606MOL0     H81765   9.296   3.667   6.568 -1.8462 -0.7951 -0.8191
  606MOL0     H81766   9.597   3.600   6.551 -0.0420 -2.4666 -0.0056
  606MOL0     H81767   9.483   3.534   6.665  0.8585 -0.5570 -0.8021
  606MOL0     H81768   9.404   3.737   6.741 -1.5944 -2.4883 -1.9538
  606MOL0     H81769   9.497   3.836   6.633 -5.1191  1.3948  1.9340
  606MOL0     H81770   9.831   3.760   6.932 -0.9030 -0.4512  0.1037
  606MOL0     H81771   9.880   3.950   7.084  0.9541  0.2209 -0.8991
  606MOL0     H81772   9.751   4.114   7.443  3.1539  3.8648  2.2327
  606MOL0     H81773   9.667   4.146   7.650 -0.3603 -2.9791 -2.4031
  606MOL0     H81774   9.646   4.301   7.844 -0.2860 -1.5734  0.0649
  606MOL0     H81775   9.513   4.359   7.939  0.6144  2.0244 -0.9455
  606MOL0     H81776   9.551   4.086   7.811  0.5121  0.2480 -0.3285
  606MOL0     H81777   9.535   4.121   7.976 -0.0487 -2.4435 -1.6672
  606MOL0     H81778   9.294   4.230   7.873 -0.7358 -0.2710  0.2906
  606MOL0     H81779   9.322   4.097   7.774 -2.0971  0.4221 -0.2541
  606MOL0     H81780   9.325   3.945   7.972  3.1800  1.0021  3.1428
  606MOL0     H81781   9.173   4.049   7.980  0.2254  0.6870  2.4840
  606MOL0     H81782   9.300   4.182   8.152 -4.9618 -1.4072  2.3619
  606MOL0     H81783   9.426   4.049   8.147  0.4435  0.2020 -0.7415
  606MOL0     H81784   9.223   3.895   8.195  1.0815 -0.4910  0.1037
  606MOL0     H81785   9.288   3.998   8.324 -0.7598  1.0899 -0.5355
  606MOL0     H81786   9.035   3.975   8.276  0.6664  0.5182 -1.1938
  606MOL0     H81787   9.050   4.068   8.140  0.9793 -0.0418 -1.2700
  606MOL0     H81788   9.133   4.162   8.424  0.1221 -0.6198 -0.0002
  606MOL0     H81789   9.117   4.275   8.286 -1.4884  1.8749  2.5356
  606MOL0     H81790   9.383   4.439   7.506 -0.4486  0.7921 -2.3753
  606MOL0     H81791   9.454   4.393   7.293 -2.5943  0.1780  1.2618
  606MOL0     H81792   9.509   4.120   6.997 -0.2199 -0.8446  3.5667
  606MOL0     H81793   9.472   3.981   6.804  0.7848 -2.0820 -1.2816
  606MOL0     H81794   9.715   2.117   6.253 -0.8726  1.0892  0.6936
  606MOL0     H81795   9.922   2.005   6.330 -0.4912 -3.6484 -0.4469
  606MOL0     H81796  10.144   1.991   6.688  2.0624 -0.5144 -1.5130
  606MOL0     H81797  10.282   2.010   6.869  2.0758 -0.0346 -0.5390
  606MOL0     H81798  10.465   1.638   7.029 -0.5409 -0.0953 -0.2828
  606MOL0     H81799  10.328   1.688   7.136  0.4805  3.4679  3.9727
  606MOL0     H81800  10.523   1.855   7.227  1.8458  0.2643  1.6345
  606MOL0     H81801  10.635   1.727   7.152 -0.9311 -0.6952 -2.6874
  606MOL0     H81802  10.441   1.685   7.376 -1.1485 -0.0060 -1.2214
  606MOL0     H81803  10.621   1.698   7.367  0.5651  0.0923 -1.2418
  606MOL0     H81804  10.507   1.461   7.208  1.7906 -1.1558  0.4036
  606MOL0     H81805  10.668   1.488   7.268 -0.4196 -3.1622 -2.7986
  606MOL0     H81806  10.498   1.260   7.558 -2.2042  1.1970  0.4557
  606MOL0     H81807  10.269   1.584   6.930  0.4683  1.4637  1.7281
  606MOL0     H81808  10.143   1.439   6.779  0.1300 -1.9177 -4.2315
  606MOL0     H81809   9.982   1.527   6.771 -1.2244  0.8337 -3.4564
  606MOL0     H81810  10.090   1.505   6.638 -6.0803  1.0300 -0.3862
  607MOL0     O81811   2.944   2.196   8.425  0.3299  0.8884  0.4030
  607MOL0     C81812   2.990   2.306   8.438 -0.9988  0.0972 -0.2398
  607MOL0     O81813   2.990   2.400   8.337  0.1744 -0.6602 -0.5711
  607MOL0     C81814   2.968   2.362   8.205 -0.6513  0.0967  0.1464
  607MOL0     C81815   3.026   2.250   8.150 -0.5171  0.1858  1.0694
  607MOL0     C81816   3.003   2.204   8.017  0.9861 -0.3555 -0.2480
  607MOL0     C81817   2.912   2.281   7.939 -1.0553 -0.3028 -0.2128
  607MOL0     O81818   2.895   2.253   7.814 -0.6195  1.4117  0.3312
  607MOL0     C81819   2.958   2.335   7.727 -0.6863 -0.4388 -0.3293
  607MOL0     C81820   2.922   2.288   7.589 -0.1557  0.3915  0.4603
  607MOL0     C81821   2.780   2.356   7.549 -0.4024  0.4346 -0.3345
  607MOL0     C81822   2.712   2.256   7.456  0.4940  0.7406  0.3203
  607MOL0     C81823   2.612   2.325   7.365  0.3415 -0.6307  0.3897
  607MOL0     C81824   2.507   2.414   7.441 -1.0403  0.2232 -0.6022
  607MOL0     C81825   2.387   2.458   7.357  0.4420 -0.9991 -0.6938
  607MOL0     C81826   2.275   2.353   7.383 -0.4917  0.3840 -0.5748
  607MOL0     N81827   2.144   2.395   7.321 -0.9691  0.3984 -0.7660
  607MOL0     C81828   2.131   2.421   7.184 -0.5310 -0.6602 -0.4367
  607MOL0     C81829   2.006   2.429   7.148  0.7819 -0.3471 -0.7420
  607MOL0     C81830   1.963   2.474   7.015 -0.6053 -0.0849 -0.2551
  607MOL0     C81831   1.900   2.358   6.919 -0.5452  0.3339 -0.4435
  607MOL0     C81832   1.884   2.424   6.784 -0.1321 -0.4285  0.0630
  607MOL0     C81833   1.781   2.370   6.696 -0.0026 -0.6453 -0.6887
  607MOL0     O81834   1.801   2.228   6.678 -0.0326 -0.5513  0.9021
  607MOL0     C81835   1.908   2.185   6.606  0.3321  0.2682 -0.9448
  607MOL0     C81836   1.926   2.043   6.637  0.1792 -1.2628  0.5498
  607MOL0     C81837   2.044   1.990   6.589 -0.2004  0.5637  0.4947
  607MOL0     C81838   2.139   2.057   6.511  0.5266 -0.9196  1.0490
  607MOL0     C81839   2.261   1.990   6.465 -0.2972 -1.0789 -0.7607
  607MOL0     O81840   2.347   2.058   6.380  0.0895 -0.3968  0.7870
  607MOL0     C81841   2.466   2.012   6.339  0.8135 -1.2161  0.1105
  607MOL0     C81842   2.556   1.962   6.428  0.4461 -0.0829  0.2069
  607MOL0     C81843   2.677   1.909   6.385  0.0327  0.5038  0.4359
  607MOL0     C81844   2.712   1.917   6.255  0.0995 -0.0682  0.0393
  607MOL0     O81845   2.841   1.893   6.212 -0.4447  0.8451  0.5648
  607MOL0     C81846   2.870   1.750   6.234 -0.0342 -0.2985  0.1036
  607MOL0     C81847   3.017   1.723   6.235 -0.2705 -0.7898  0.2355
  607MOL0     C81848   3.061   1.581   6.243  0.1511  0.0655 -0.1239
  607MOL0     C81849   2.987   1.497   6.347  0.5096  0.3037 -0.7568
  607MOL0     C81850   3.035   1.354   6.390  0.7349  0.6992 -0.9319
  607MOL0     C81851   3.182   1.354   6.447 -0.7734  0.4652  0.1667
  607MOL0     C81852   3.249   1.212   6.453  0.1790 -0.8835  0.8613
  607MOL0     C81853   3.182   1.136   6.565  0.9942  0.3882 -0.8026
  607MOL0    Cl81854   3.216   1.205   6.720 -0.4924  0.5005 -0.3990
  607MOL0     C81855   2.627   1.976   6.159 -0.2822 -0.1244  0.7604
  607MOL0     C81856   2.502   2.037   6.208  0.0919 -0.3527 -0.5400
  607MOL0     O81857   2.286   1.891   6.536 -0.9122  0.2540  0.8170
  607MOL0     C81858   2.112   2.189   6.465  0.6461  0.0309  0.3224
  607MOL0     C81859   1.998   2.254   6.521 -0.3964  0.4300  0.1681
  607MOL0     N81860   1.932   2.424   7.268 -0.1216 -0.1438  0.1565
  607MOL0     N81861   2.021   2.386   7.368  0.6935 -0.4426 -0.0261
  607MOL0     C81862   2.864   2.410   7.988  0.2095 -0.4221  0.2684
  607MOL0     C81863   2.884   2.439   8.126 -0.6974 -1.2315  0.3003
  607MOL0     C81864   3.055   2.334   8.577  0.0174  0.6713 -0.9058
  607MOL0     C81865   3.091   2.219   8.660  1.1094  0.3829  0.8850
  607MOL0     C81866   3.146   2.239   8.783 -1.4271  0.2126 -1.7352
  607MOL0     C81867   3.174   2.362   8.831 -0.9229 -0.7786 -0.8997
  607MOL0     O81868   3.249   2.362   8.945  0.9033  0.1785  0.0505
  607MOL0     C81869   3.233   2.468   9.040 -0.0522 -0.4139 -0.3865
  607MOL0     C81870   3.327   2.455   9.164 -0.4584 -0.3508 -0.1326
  607MOL0     C81871   3.475   2.414   9.154  0.4653 -0.0833 -0.3801
  607MOL0     C81872   3.533   2.488   9.034  0.4111  0.0402  0.4078
  607MOL0     C81873   3.677   2.466   9.036  0.1931  0.2136 -0.6688
  607MOL0     C81874   3.799   2.463   9.048  0.4376  0.2885 -0.2316
  607MOL0     C81875   3.144   2.474   8.756 -0.1645 -0.0846  1.0503
  607MOL0     C81876   3.087   2.467   8.624  0.6842  0.5108 -0.5364
  607MOL0     C81877   3.068   2.593   8.550  0.3315  0.3858 -0.1997
  607MOL0     H81878   3.088   2.181   8.207 -1.7528  0.7604  3.2100
  607MOL0     H81879   3.050   2.113   7.983 -1.5060 -1.0132 -2.3328
  607MOL0     H81880   2.923   2.438   7.741 -3.3484 -1.0760 -1.6920
  607MOL0     H81881   3.067   2.335   7.743 -0.9164 -0.8006  1.4276
  607MOL0     H81882   2.913   2.180   7.600 -0.3370  0.5543  2.1033
  607MOL0     H81883   2.993   2.319   7.512 -2.6351  2.8510 -1.0248
  607MOL0     H81884   2.789   2.451   7.495 -0.5781 -0.0162 -1.1744
  607MOL0     H81885   2.715   2.367   7.637  0.8078  0.7533  0.5507
  607MOL0     H81886   2.774   2.199   7.387  0.4203  0.4347  0.5035
  607MOL0     H81887   2.663   2.184   7.522 -1.2167  1.7279  0.1947
  607MOL0     H81888   2.661   2.400   7.301 -0.6076  3.1571  3.6858
  607MOL0     H81889   2.566   2.255   7.294  1.1227  0.1122 -0.9035
  607MOL0     H81890   2.475   2.369   7.535  1.1988 -0.9858 -0.3356
  607MOL0     H81891   2.562   2.506   7.464  1.6365 -1.8428  2.1002
  607MOL0     H81892   2.419   2.473   7.254  1.5288 -0.2963 -0.2810
  607MOL0     H81893   2.346   2.552   7.395  1.2305 -0.5469 -0.9418
  607MOL0     H81894   2.312   2.254   7.352  1.8021 -0.5007  4.0147
  607MOL0     H81895   2.250   2.344   7.489 -2.7003 -4.7672 -1.2234
  607MOL0     H81896   2.217   2.446   7.122 -2.7426  0.2873 -3.3270
  607MOL0     H81897   1.877   2.542   7.017  0.0917  1.0980 -3.6985
  607MOL0     H81898   2.049   2.521   6.966 -0.3246 -1.8772 -1.5753
  607MOL0     H81899   1.973   2.277   6.922  1.1771  1.8512 -0.0621
  607MOL0     H81900   1.804   2.323   6.958 -0.1606 -0.0463  0.1728
  607MOL0     H81901   1.979   2.421   6.731 -1.6162  2.0300 -3.0420
  607MOL0     H81902   1.851   2.527   6.803 -0.6504 -0.2366 -1.7195
  607MOL0     H81903   1.782   2.424   6.601 -0.8929  0.0119 -0.3339
  607MOL0     H81904   1.683   2.390   6.739 -0.5395  0.1159 -2.1722
  607MOL0     H81905   1.855   1.992   6.700 -1.9874 -2.6513 -2.7278
  607MOL0     H81906   2.059   1.885   6.614 -0.6381 -0.4648 -2.9707
  607MOL0     H81907   2.540   1.957   6.535  2.6862  0.4841  0.6285
  607MOL0     H81908   2.746   1.875   6.461 -0.4639 -1.7933 -0.0696
  607MOL0     H81909   2.837   1.711   6.331 -0.5330  0.7381  0.3697
  607MOL0     H81910   2.818   1.694   6.156 -2.4365 -1.1397  2.1836
  607MOL0     H81911   3.069   1.754   6.144 -1.9163 -1.6655 -1.0558
  607MOL0     H81912   3.059   1.776   6.321 -1.2161 -0.5256  0.5403
  607MOL0     H81913   3.031   1.529   6.152 -2.6995  1.5578 -0.1373
  607MOL0     H81914   3.168   1.588   6.265  0.7318 -0.1072 -2.6455
  607MOL0     H81915   2.880   1.502   6.323  0.5171  2.6556 -0.5937
  607MOL0     H81916   2.995   1.548   6.443  0.3641 -2.1712  0.6421
  607MOL0     H81917   3.025   1.288   6.303 -1.3038 -1.8951  1.1360
  607MOL0     H81918   2.972   1.310   6.467 -0.5853 -2.0151 -3.3928
  607MOL0     H81919   3.233   1.402   6.362  3.8302 -2.0675  1.1418
  607MOL0     H81920   3.195   1.420   6.533  1.4198  0.3454 -0.0152
  607MOL0     H81921   3.353   1.230   6.480  0.1492  2.0561 -0.6134
  607MOL0     H81922   3.244   1.165   6.354 -3.5115  0.6702  0.1576
  607MOL0     H81923   3.073   1.144   6.566  0.8756 -0.5939  1.5780
  607MOL0     H81924   3.211   1.031   6.573  0.8782  0.3765 -0.4944
  607MOL0     H81925   2.667   1.996   6.061  2.4063 -0.4070  1.7246
  607MOL0     H81926   2.429   2.075   6.137  0.6525  0.7693 -0.5510
  607MOL0     H81927   2.176   2.225   6.385 -0.6249  0.8800 -0.3359
  607MOL0     H81928   1.984   2.357   6.489  2.4518  0.6754 -0.5358
  607MOL0     H81929   2.818   2.477   7.915 -0.9807  1.2908  2.4739
  607MOL0     H81930   2.851   2.539   8.153  0.5506 -0.5285 -0.6330
  607MOL0     H81931   3.074   2.125   8.608  2.3676  0.3727  0.4377
  607MOL0     H81932   3.181   2.159   8.846  2.0726  2.0507 -1.0985
  607MOL0     H81933   3.131   2.467   9.080 -0.0500 -4.4104 -0.0540
  607MOL0     H81934   3.261   2.560   8.987 -1.9202 -0.8146 -2.2466
  607MOL0     H81935   3.285   2.374   9.225  0.2949 -0.5795  0.0943
  607MOL0     H81936   3.315   2.541   9.232  0.1522 -0.4511  0.1071
  607MOL0     H81937   3.484   2.305   9.153  1.5412 -0.0032 -0.2788
  607MOL0     H81938   3.511   2.449   9.252 -1.3153  1.8609 -0.3610
  607MOL0     H81939   3.488   2.446   8.944 -1.0837 -1.1557  1.6554
  607MOL0     H81940   3.501   2.593   9.030  2.2439  0.5863 -1.2932
  607MOL0     H81941   3.906   2.461   9.038  0.5906  1.5750  0.9240
  607MOL0     H81942   3.185   2.567   8.795  1.1705 -0.3711  0.4121
  607MOL0     H81943   3.043   2.672   8.621 -1.6068 -0.9600  0.7030
  607MOL0     H81944   3.159   2.610   8.492  0.1226 -2.6695 -1.6239
  607MOL0     H81945   2.977   2.588   8.490  1.0059 -1.7991 -1.1517
  608MOL0     O81946   8.637   0.694   5.913 -0.2133 -0.3000  0.4700
  608MOL0     C81947   8.526   0.747   5.942 -0.8700 -0.2537  0.3322
  608MOL0     O81948   8.503   0.835   6.038 -0.5946 -0.4105  0.2321
  608MOL0     C81949   8.568   0.842   6.157  0.4394 -0.7961 -0.1296
  608MOL0     C81950   8.658   0.745   6.202 -0.4001  0.0002  1.3825
  608MOL0     C81951   8.720   0.780   6.323 -0.1314 -0.2457  0.7671
  608MOL0     C81952   8.684   0.889   6.400  0.5747  0.6990  0.6721
  608MOL0     O81953   8.759   0.924   6.511 -0.0014 -0.2381  0.2650
  608MOL0     C81954   8.756   1.052   6.577 -0.1652 -0.5699  0.5478
  608MOL0     C81955   8.867   1.044   6.691  0.9948 -0.0345  0.7271
  608MOL0     C81956   8.897   1.185   6.736 -0.3456 -0.1848  0.1437
  608MOL0     C81957   8.793   1.238   6.829  0.6773 -0.9942 -0.7423
  608MOL0     C81958   8.835   1.385   6.860 -0.3703  0.4116  0.0073
  608MOL0     C81959   8.752   1.448   6.967 -0.0053 -0.2322 -0.3219
  608MOL0     C81960   8.784   1.597   6.989  0.1466 -0.5363 -0.0479
  608MOL0     C81961   8.708   1.657   7.112 -0.8803 -0.8071 -0.0650
  608MOL0     N81962   8.754   1.792   7.130 -1.1028  0.3786  0.0260
  608MOL0     C81963   8.710   1.903   7.058 -0.2326 -0.4343  0.3432
  608MOL0     C81964   8.779   2.010   7.103  0.1334  0.6816 -0.5308
  608MOL0     C81965   8.796   2.145   7.049  0.1695  0.1485 -0.3401
  608MOL0     C81966   8.663   2.211   7.084 -0.1714 -0.5999 -0.1914
  608MOL0     C81967   8.649   2.264   7.225  0.5061 -0.4618 -0.2284
  608MOL0     C81968   8.577   2.159   7.319  0.6893 -1.6360  0.2224
  608MOL0     O81969   8.587   2.219   7.442 -0.9537  0.2093 -0.5770
  608MOL0     C81970   8.496   2.314   7.474  0.5855 -0.0532 -0.0734
  608MOL0     C81971   8.522   2.396   7.584 -0.7857 -1.5921  0.2733
  608MOL0     C81972   8.439   2.505   7.632  0.4509 -0.1690  0.0678
  608MOL0     C81973   8.316   2.528   7.571  0.5576 -1.1941 -0.5471
  608MOL0     C81974   8.222   2.630   7.617  0.6718  0.3090  0.4317
  608MOL0     O81975   8.251   2.691   7.741  0.1983  0.0329  0.9511
  608MOL0     C81976   8.157   2.771   7.791  1.4487  0.4882 -0.6449
  608MOL0     C81977   8.104   2.747   7.923  0.3559  0.4941 -0.5230
  608MOL0     C81978   7.990   2.808   7.967  0.1354 -0.0450 -0.5418
  608MOL0     C81979   7.924   2.895   7.884  0.1619  1.0273 -0.8198
  608MOL0     O81980   7.806   2.942   7.928 -0.7883  0.3000 -0.0400
  608MOL0     C81981   7.696   2.927   7.827  0.5575 -0.4732  0.2087
  608MOL0     C81982   7.570   2.967   7.892  0.3283 -0.1929  0.0966
  608MOL0     C81983   7.570   3.117   7.907  0.1166 -1.6389 -0.4150
  608MOL0     C81984   7.445   3.177   7.968  0.3934  0.1776  0.4338
  608MOL0     C81985   7.319   3.170   7.874 -0.0998 -0.5205  0.2397
  608MOL0     C81986   7.185   3.235   7.924 -0.0336 -0.0119 -0.2394
  608MOL0     C81987   7.090   3.255   7.808  0.2056 -0.1478  0.0251
  608MOL0     C81988   6.943   3.229   7.862  0.8708 -0.3461 -0.2501
  608MOL0    Cl81989   6.917   3.064   7.911  0.2454 -0.3496  0.2656
  608MOL0     C81990   7.984   2.939   7.763  1.0172 -0.0460  0.5252
  608MOL0     C81991   8.104   2.876   7.726  0.3355  0.4208  0.3791
  608MOL0     O81992   8.123   2.645   7.557 -0.2039  0.0651 -0.0059
  608MOL0     C81993   8.290   2.441   7.460 -0.8085  0.2444 -0.1028
  608MOL0     C81994   8.368   2.337   7.409  0.1746 -0.2479 -0.1575
  608MOL0     N81995   8.865   1.956   7.206 -0.6602  0.5311  0.2899
  608MOL0     N81996   8.858   1.830   7.216  0.3471  0.5640  0.0786
  608MOL0     C81997   8.592   0.980   6.353  0.4644 -0.8982 -0.6142
  608MOL0     C81998   8.529   0.954   6.232  0.0903 -0.1722  1.7656
  608MOL0     C81999   8.408   0.709   5.860  0.0214  0.7694  0.4566
  608MOL0     C82000   8.337   0.815   5.807 -0.0927  0.6185 -0.9684
  608MOL0     C82001   8.235   0.795   5.718 -0.1774 -1.2254 -0.6309
  608MOL0     C82002   8.209   0.668   5.666  0.3943  0.0616  0.2342
  608MOL0     O82003   8.124   0.641   5.563 -0.4326  0.1643 -0.2890
  608MOL0     C82004   8.027   0.730   5.524  0.7967  1.0426  0.3536
  608MOL0     C82005   7.941   0.667   5.415  0.1743  0.4402  0.7600
  608MOL0     C82006   7.845   0.559   5.479 -0.1064  0.3809  0.4569
  608MOL0     C82007   7.751   0.609   5.600  0.9440  0.8183 -0.3368
  608MOL0     C82008   7.686   0.742   5.569 -0.5792  0.0719 -0.7255
  608MOL0     C82009   7.656   0.862   5.543 -0.0814  0.2581 -0.0553
  608MOL0     C82010   8.271   0.562   5.725 -0.5820 -0.1843 -0.0398
  608MOL0     C82011   8.371   0.578   5.833  0.7395  0.2299 -0.4997
  608MOL0     C82012   8.448   0.469   5.901 -0.0529  0.2170  0.1090
  608MOL0     H82013   8.694   0.666   6.138 -1.6787 -0.6469  1.4351
  608MOL0     H82014   8.783   0.699   6.356 -1.0056 -0.7828  1.1526
  608MOL0     H82015   8.768   1.131   6.502  0.4385 -1.1524  0.0201
  608MOL0     H82016   8.663   1.062   6.633 -0.3287 -0.8447  0.3296
  608MOL0     H82017   8.961   1.008   6.648  2.3625  0.5773  2.9698
  608MOL0     H82018   8.842   0.983   6.779  0.4181 -1.5373 -0.4458
  608MOL0     H82019   8.897   1.239   6.640  5.7287 -0.1933 -0.2644
  608MOL0     H82020   9.001   1.201   6.768  0.7837  0.0040 -3.1922
  608MOL0     H82021   8.690   1.243   6.794  0.5867  0.9612 -0.3171
  608MOL0     H82022   8.795   1.187   6.926  2.3841 -0.6434 -0.5548
  608MOL0     H82023   8.935   1.376   6.904  0.1130 -0.4672 -1.2153
  608MOL0     H82024   8.835   1.449   6.772 -1.4210  0.4395  0.0208
  608MOL0     H82025   8.648   1.450   6.933  0.0784 -0.6024 -0.6098
  608MOL0     H82026   8.764   1.398   7.064 -0.4913  0.6333  0.1905
  608MOL0     H82027   8.762   1.650   6.896  1.4058  0.0874 -0.0195
  608MOL0     H82028   8.890   1.609   7.017  0.6966  0.2149 -2.3042
  608MOL0     H82029   8.602   1.669   7.089 -1.3063  3.8977  2.9448
  608MOL0     H82030   8.715   1.594   7.201 -2.4974  1.4083  1.7466
  608MOL0     H82031   8.618   1.897   7.000 -1.1712  0.1713  1.7126
  608MOL0     H82032   8.881   2.190   7.101 -1.3375 -0.2572  2.6577
  608MOL0     H82033   8.823   2.144   6.943  0.5442  2.0662 -0.2971
  608MOL0     H82034   8.661   2.303   7.026 -1.6632 -1.3276 -1.3771
  608MOL0     H82035   8.577   2.152   7.052 -0.0252 -0.1478 -1.4990
  608MOL0     H82036   8.587   2.354   7.221 -0.8571 -1.3536 -0.1066
  608MOL0     H82037   8.744   2.295   7.269  0.4638 -0.0391 -0.4268
  608MOL0     H82038   8.628   2.062   7.315 -0.8149 -2.5505  1.6826
  608MOL0     H82039   8.475   2.136   7.288 -0.6484  1.7445  1.6655
  608MOL0     H82040   8.612   2.373   7.640  0.0038  1.6253  0.5083
  608MOL0     H82041   8.453   2.554   7.728 -1.0965  1.1938 -0.3444
  608MOL0     H82042   8.148   2.669   7.984 -1.9045 -0.5384 -0.0995
  608MOL0     H82043   7.951   2.763   8.058  3.9691  1.2007  1.9636
  608MOL0     H82044   7.711   2.978   7.731  0.2696  1.5714  1.1818
  608MOL0     H82045   7.688   2.819   7.813  0.1877 -0.3137 -0.9075
  608MOL0     H82046   7.488   2.942   7.824  1.4467 -4.0396 -0.0833
  608MOL0     H82047   7.548   2.917   7.987  1.9669 -1.0695  0.0598
  608MOL0     H82048   7.648   3.151   7.975 -0.7832 -0.5824  0.1190
  608MOL0     H82049   7.585   3.157   7.806  1.6230 -1.3848 -0.1070
  608MOL0     H82050   7.465   3.281   7.995 -0.1051  0.3342  0.2063
  608MOL0     H82051   7.426   3.118   8.059 -1.1446 -0.8769 -0.5275
  608MOL0     H82052   7.291   3.070   7.841  0.1035 -0.9439  1.3191
  608MOL0     H82053   7.346   3.235   7.790 -1.9156  0.8807  0.6673
  608MOL0     H82054   7.141   3.168   7.998 -0.2056  0.1274 -0.2129
  608MOL0     H82055   7.208   3.333   7.966  3.2036 -0.5593 -0.5075
  608MOL0     H82056   7.113   3.192   7.721 -0.0601 -3.3439  2.0768
  608MOL0     H82057   7.099   3.358   7.774 -1.4859  0.7498  2.0217
  608MOL0     H82058   6.929   3.283   7.956 -0.9613 -2.3788  0.7154
  608MOL0     H82059   6.864   3.251   7.790 -0.9085  2.1920  2.2803
  608MOL0     H82060   7.927   3.008   7.702 -2.9556 -2.0967  1.6042
  608MOL0     H82061   8.147   2.899   7.629  2.1586 -2.7997  0.2633
  608MOL0     H82062   8.201   2.471   7.405 -1.9477 -1.5233  0.7100
  608MOL0     H82063   8.334   2.280   7.323 -0.5417 -0.5463  0.3094
  608MOL0     H82064   8.557   1.064   6.413  1.8377 -0.4850 -0.3685
  608MOL0     H82065   8.453   1.021   6.194  0.9747 -0.3581 -0.4604
  608MOL0     H82066   8.371   0.913   5.839  2.7376 -0.6763  0.4180
  608MOL0     H82067   8.191   0.890   5.690 -0.9691 -1.4893 -0.3252
  608MOL0     H82068   8.079   0.817   5.481  0.0916  2.1781  1.7260
  608MOL0     H82069   7.977   0.766   5.614 -0.0552 -1.8590  1.1249
  608MOL0     H82070   8.010   0.621   5.344 -0.3866  0.6930  0.0387
  608MOL0     H82071   7.888   0.747   5.363  0.8811  1.1066  1.0441
  608MOL0     H82072   7.921   0.489   5.513 -0.1506 -0.8031 -1.7200
  608MOL0     H82073   7.785   0.511   5.402  0.2098  0.6940  0.0103
  608MOL0     H82074   7.683   0.527   5.624 -0.0396  2.4297  2.9605
  608MOL0     H82075   7.804   0.627   5.694 -1.5085  2.7813  0.7810
  608MOL0     H82076   7.627   0.962   5.517 -0.9807  0.0243  0.0235
  608MOL0     H82077   8.244   0.463   5.689 -0.6098 -0.4437  0.6730
  608MOL0     H82078   8.389   0.377   5.906 -1.1712  0.7802 -1.7043
  608MOL0     H82079   8.538   0.446   5.843 -0.3067 -2.1706  0.5321
  608MOL0     H82080   8.476   0.500   6.002 -1.2145  0.5855  0.3268
  609MOL0     O82081  11.455   7.796   0.247  0.3265 -0.2579 -0.4647
  609MOL0     C82082  11.548   7.874   0.279  0.0551  0.2318 -0.0084
  609MOL0     O82083  11.646   7.911   0.198  0.0710  0.2035 -0.2119
  609MOL0     C82084  11.647   7.877   0.059 -0.4333 -0.0530 -0.1085
  609MOL0     C82085  11.689   7.747   0.013 -0.4347 -0.5158  0.6026
  609MOL0     C82086  11.708   7.729  -0.126  0.6989 -0.3730  0.9918
  609MOL0     C82087  11.661   7.826  -0.218 -0.1494  0.2608 -0.2689
  609MOL0     O82088  11.655   7.814  -0.354 -0.5138  0.4091  0.6207
  609MOL0     C82089  11.675   7.686  -0.409 -0.5452  0.2457  0.7432
  609MOL0     C82090  11.651   7.700  -0.560 -0.6464 -0.0595  0.3022
  609MOL0     C82091  11.753   7.793  -0.634 -0.4310  0.1236  0.2347
  609MOL0     C82092  11.707   7.803  -0.782 -0.5920 -0.7058 -0.0175
  609MOL0     C82093  11.756   7.930  -0.843  0.1656  0.1096  0.6224
  609MOL0     C82094  11.906   7.956  -0.846 -0.5373 -0.2478  0.1248
  609MOL0     C82095  11.994   7.855  -0.921 -0.2525 -0.0849 -0.5223
  609MOL0     C82096  11.975   7.850  -1.068  0.1690 -0.3807 -1.0590
  609MOL0     N82097  12.051   7.739  -1.124 -0.4391  0.8916  0.2673
  609MOL0     C82098  12.185   7.726  -1.147  0.1334  0.8829 -0.8899
  609MOL0     C82099  12.205   7.604  -1.204 -0.2567  0.2734 -0.5715
  609MOL0     C82100  12.336   7.521  -1.236  0.0240  0.3464 -0.2271
  609MOL0     C82101  12.370   7.539  -1.381 -0.1933 -0.1506  0.0220
  609MOL0     C82102  12.449   7.423  -1.447  0.0229 -0.0899  0.2771
  609MOL0     C82103  12.381   7.361  -1.568  0.9024  0.2474 -0.1258
  609MOL0     O82104  12.394   7.468  -1.666  1.1567 -0.4226  0.4007
  609MOL0     C82105  12.332   7.440  -1.788 -0.1747  0.1456  0.1095
  609MOL0     C82106  12.272   7.551  -1.853  0.1891  0.1089  0.4680
  609MOL0     C82107  12.178   7.536  -1.961 -0.6635  0.5485 -0.0654
  609MOL0     C82108  12.141   7.407  -1.999  0.5095 -0.4003  0.0393
  609MOL0     C82109  12.028   7.380  -2.093  0.5139 -0.2051 -0.7543
  609MOL0     O82110  11.956   7.263  -2.075  0.6167  1.5870  0.1007
  609MOL0     C82111  11.835   7.256  -2.150 -0.1701  0.2709  0.2099
  609MOL0     C82112  11.838   7.203  -2.283  0.9149 -0.0960  0.0365
  609MOL0     C82113  11.718   7.213  -2.358  0.4841  0.5279 -0.0508
  609MOL0     C82114  11.609   7.285  -2.312  0.0426 -0.4101 -0.3070
  609MOL0     O82115  11.507   7.280  -2.397 -0.6277 -0.1106  0.7328
  609MOL0     C82116  11.390   7.357  -2.378 -0.6194  0.2805  0.2352
  609MOL0     C82117  11.290   7.289  -2.478 -0.2588 -0.6893  0.1070
  609MOL0     C82118  11.300   7.353  -2.624 -0.4997 -0.0546  0.1047
  609MOL0     C82119  11.275   7.246  -2.734  1.0618 -0.5217  0.0572
  609MOL0     C82120  11.292   7.304  -2.876 -0.0196  0.4647 -0.0267
  609MOL0     C82121  11.267   7.182  -2.966 -0.5657  0.0433  0.6092
  609MOL0     C82122  11.261   7.221  -3.117  0.2665 -0.4620 -0.3871
  609MOL0     C82123  11.306   7.101  -3.202 -0.1543  0.3830 -0.4657
  609MOL0    Cl82124  11.268   7.153  -3.364  0.5324  0.0852  0.0211
  609MOL0     C82125  11.616   7.337  -2.185  0.1156  0.2756  0.4836
  609MOL0     C82126  11.726   7.328  -2.103  1.1085  0.1765 -0.0734
  609MOL0     O82127  12.005   7.468  -2.176 -1.0275  0.0603  0.1415
  609MOL0     C82128  12.195   7.297  -1.935 -0.4593  0.7094 -0.2817
  609MOL0     C82129  12.278   7.310  -1.826  0.3527  0.7043  0.8663
  609MOL0     N82130  12.077   7.547  -1.221 -0.6693 -0.7666 -0.2794
  609MOL0     N82131  11.992   7.621  -1.154 -0.1184 -0.1267  0.5098
  609MOL0     C82132  11.601   7.936  -0.165  0.7432 -1.0012 -1.0305
  609MOL0     C82133  11.614   7.979  -0.033  1.6628  0.0738  0.1681
  609MOL0     C82134  11.553   7.902   0.419 -0.8042  0.6144  0.8876
  609MOL0     C82135  11.674   7.911   0.481 -0.2035  1.0709 -0.5260
  609MOL0     C82136  11.680   7.961   0.616  0.4820 -0.8601 -0.3515
  609MOL0     C82137  11.562   7.998   0.681  0.5955  0.5800 -0.0963
  609MOL0     O82138  11.581   8.051   0.803  0.5654 -0.2196 -0.1323
  609MOL0     C82139  11.463   8.048   0.885  0.7232  0.5940 -0.4237
  609MOL0     C82140  11.496   8.060   1.040  0.9059  0.6505 -0.2104
  609MOL0     C82141  11.561   8.193   1.067 -0.4289 -0.4327 -0.0469
  609MOL0     C82142  11.580   8.209   1.220  0.3694 -1.7301  0.0059
  609MOL0     C82143  11.460   8.275   1.272  0.2839  0.0748 -0.0405
  609MOL0     C82144  11.369   8.321   1.333  0.4804  0.5700  0.1508
  609MOL0     C82145  11.444   7.988   0.614  0.7289  0.7820 -0.1655
  609MOL0     C82146  11.432   7.950   0.480 -0.6295 -0.6924 -0.5964
  609MOL0     C82147  11.297   7.960   0.415 -0.5471 -0.2410 -0.8377
  609MOL0     H82148  11.733   7.671   0.077  0.1449  1.0907  2.2144
  609MOL0     H82149  11.764   7.641  -0.158 -1.4546 -1.0033 -1.4199
  609MOL0     H82150  11.775   7.646  -0.390 -1.3183 -1.6311  1.0424
  609MOL0     H82151  11.601   7.622  -0.360  0.1242  2.1520  4.6476
  609MOL0     H82152  11.550   7.740  -0.569 -0.6837 -0.2532 -0.1545
  609MOL0     H82153  11.657   7.602  -0.608  1.7475  1.3386 -2.6353
  609MOL0     H82154  11.854   7.750  -0.623 -0.9049 -0.7592  1.3409
  609MOL0     H82155  11.746   7.897  -0.603 -0.1359  0.7520 -1.6818
  609MOL0     H82156  11.741   7.730  -0.856  2.1771  0.2672  0.2004
  609MOL0     H82157  11.598   7.810  -0.771 -0.5594  2.4996 -0.7169
  609MOL0     H82158  11.713   7.938  -0.944 -3.4845  2.0968  2.1192
  609MOL0     H82159  11.713   8.010  -0.782 -1.8458 -1.1315  0.9445
  609MOL0     H82160  11.912   8.055  -0.892  1.5568 -0.8580 -1.0155
  609MOL0     H82161  11.949   7.959  -0.745  0.9241 -0.6938 -0.4663
  609MOL0     H82162  11.969   7.758  -0.876 -4.6206  1.6427  1.3823
  609MOL0     H82163  12.098   7.885  -0.909 -0.2705  0.2025 -1.0328
  609MOL0     H82164  11.872   7.850  -1.104  0.3161  2.0516 -1.6587
  609MOL0     H82165  12.004   7.949  -1.104  1.8042 -0.5325 -0.2867
  609MOL0     H82166  12.271   7.787  -1.122  0.8125  0.6287 -2.4478
  609MOL0     H82167  12.420   7.539  -1.169  1.8997 -1.3428 -1.9805
  609MOL0     H82168  12.309   7.415  -1.236  0.2199  0.2952  0.5428
  609MOL0     H82169  12.278   7.547  -1.439  0.6622 -1.9262 -1.6827
  609MOL0     H82170  12.426   7.632  -1.398 -0.0872 -0.0747  0.7432
  609MOL0     H82171  12.446   7.347  -1.367 -0.7730  0.2128  0.5438
  609MOL0     H82172  12.555   7.448  -1.459 -0.3618  1.0857 -0.7658
  609MOL0     H82173  12.277   7.334  -1.547  0.8521  0.8949  0.4878
  609MOL0     H82174  12.431   7.269  -1.601 -0.7127  0.1014 -2.4248
  609MOL0     H82175  12.303   7.649  -1.816  2.9332  0.1001 -1.5056
  609MOL0     H82176  12.116   7.613  -2.007  1.0564  2.0668  0.0216
  609MOL0     H82177  11.924   7.145  -2.313  0.7215  0.0921 -0.9021
  609MOL0     H82178  11.717   7.159  -2.453 -1.4607  0.3411  0.0276
  609MOL0     H82179  11.346   7.328  -2.282 -5.3842  1.3930 -1.3752
  609MOL0     H82180  11.397   7.466  -2.389  0.2309  0.4548  2.0845
  609MOL0     H82181  11.327   7.187  -2.491 -1.8205 -1.3470  0.6355
  609MOL0     H82182  11.190   7.279  -2.435 -1.0487 -0.1998 -1.5316
  609MOL0     H82183  11.232   7.439  -2.626 -0.8766  0.1549  5.6818
  609MOL0     H82184  11.399   7.391  -2.649 -1.0771  1.7840  0.5020
  609MOL0     H82185  11.172   7.212  -2.728  2.1148 -4.1453 -0.0245
  609MOL0     H82186  11.344   7.162  -2.720  0.9139 -0.1416  4.1864
  609MOL0     H82187  11.398   7.330  -2.887  0.8015 -2.1711  0.8753
  609MOL0     H82188  11.225   7.385  -2.906  0.0087 -0.0292 -1.5236
  609MOL0     H82189  11.348   7.110  -2.958 -0.0501  0.7218  1.5633
  609MOL0     H82190  11.170   7.135  -2.943 -0.1776  0.8217  4.4193
  609MOL0     H82191  11.313   7.316  -3.133  0.2308 -0.0596  1.6011
  609MOL0     H82192  11.158   7.242  -3.146  0.4968 -0.6724 -1.4038
  609MOL0     H82193  11.410   7.069  -3.190 -0.4756 -0.5515 -0.0872
  609MOL0     H82194  11.256   7.008  -3.172  1.7833 -0.9350 -1.0892
  609MOL0     H82195  11.522   7.383  -2.158 -1.0521 -0.9245 -1.3389
  609MOL0     H82196  11.727   7.374  -2.005  0.9570  0.4051 -0.1769
  609MOL0     H82197  12.165   7.197  -1.963 -1.1633  0.7584  0.2826
  609MOL0     H82198  12.303   7.220  -1.772  1.0588 -0.6597 -1.5841
  609MOL0     H82199  11.550   8.015  -0.219 -0.2205 -1.6965 -1.1717
  609MOL0     H82200  11.580   8.076   0.002 -0.4660 -1.0904  1.5069
  609MOL0     H82201  11.766   7.889   0.428 -0.6592  1.3540 -1.4541
  609MOL0     H82202  11.777   7.977   0.661  0.0104 -0.3342  0.4998
  609MOL0     H82203  11.419   7.951   0.860  0.7080  0.6497 -0.6141
  609MOL0     H82204  11.383   8.121   0.870 -1.0252 -0.4543  2.8316
  609MOL0     H82205  11.554   7.970   1.061  0.1416  0.8175  3.1706
  609MOL0     H82206  11.409   8.053   1.106  2.2152  2.9128  1.9234
  609MOL0     H82207  11.495   8.269   1.023  0.5094  0.6775  0.3963
  609MOL0     H82208  11.658   8.195   1.016 -2.0119 -0.8856 -3.3167
  609MOL0     H82209  11.611   8.112   1.258  1.4880 -1.0674  0.8230
  609MOL0     H82210  11.665   8.275   1.239  0.4884 -1.9218  0.1344
  609MOL0     H82211  11.280   8.356   1.381 -1.6731 -0.4108 -2.8411
  609MOL0     H82212  11.349   8.025   0.651 -0.7147  0.0958 -2.9181
  609MOL0     H82213  11.267   7.861   0.380  0.7373 -1.8795  2.2286
  609MOL0     H82214  11.222   8.005   0.481  1.6399  0.9348  0.9880
  609MOL0     H82215  11.316   8.034   0.337 -1.8022  0.9853 -0.0279
  610MOL0     O82216   4.983   7.767   8.894 -0.3672 -0.1592  0.1633
  610MOL0     C82217   4.956   7.816   8.783  0.2067  0.5191  0.3309
  610MOL0     O82218   4.889   7.757   8.683 -0.6119 -0.3646  0.6110
  610MOL0     C82219   4.884   7.610   8.683 -0.3443  0.0301 -0.4751
  610MOL0     C82220   4.864   7.534   8.797 -0.5043  0.7321 -0.0112
  610MOL0     C82221   4.884   7.396   8.792 -0.4848 -1.2222 -0.4866
  610MOL0     C82222   4.890   7.336   8.667  0.6256 -0.1732 -0.3811
  610MOL0     O82223   4.900   7.203   8.677 -0.2017  0.1090 -0.6427
  610MOL0     C82224   5.014   7.143   8.609  0.3021 -0.6300 -0.0148
  610MOL0     C82225   5.139   7.148   8.696  0.2638  0.1567  1.1716
  610MOL0     C82226   5.118   7.062   8.815 -0.8155  0.7824 -0.5347
  610MOL0     C82227   5.196   7.115   8.929 -0.1331 -0.3045  0.0583
  610MOL0     C82228   5.199   7.016   9.046 -0.2297 -0.3506  0.2662
  610MOL0     C82229   5.280   6.886   9.040  0.3678  0.6664  0.5318
  610MOL0     C82230   5.281   6.816   9.174  0.7985 -0.2511 -0.2716
  610MOL0     C82231   5.376   6.881   9.268 -0.7222  1.1671 -0.0059
  610MOL0     N82232   5.513   6.875   9.222 -0.6289  0.1695  0.0129
  610MOL0     C82233   5.566   6.759   9.187 -0.2774  0.2319 -0.8023
  610MOL0     C82234   5.687   6.790   9.149  0.0431  0.1733 -0.1645
  610MOL0     C82235   5.791   6.705   9.100 -0.0512  0.3607  0.0350
  610MOL0     C82236   5.789   6.696   8.941 -0.3606  0.1495  0.9319
  610MOL0     C82237   5.899   6.631   8.870 -0.3529  0.7019  0.8172
  610MOL0     C82238   5.944   6.505   8.939 -1.8165 -0.3692  0.2777
  610MOL0     O82239   5.839   6.412   8.963 -0.2847  0.2024 -0.3308
  610MOL0     C82240   5.788   6.340   8.861  0.3378 -0.0121 -0.2209
  610MOL0     C82241   5.827   6.336   8.731 -0.9117 -0.4126  0.9533
  610MOL0     C82242   5.757   6.261   8.634 -0.1807  0.9480 -0.3912
  610MOL0     C82243   5.640   6.189   8.667 -0.7252 -0.4725 -0.4583
  610MOL0     C82244   5.560   6.108   8.563  0.0445  0.4117 -0.2669
  610MOL0     O82245   5.500   5.996   8.605  0.4231  0.5549  0.3543
  610MOL0     C82246   5.404   5.936   8.522 -0.2815  0.0232 -1.1796
  610MOL0     C82247   5.284   6.007   8.504  0.3000  0.3165  0.6806
  610MOL0     C82248   5.188   5.958   8.414 -0.6790  0.8050 -0.2436
  610MOL0     C82249   5.216   5.843   8.334  0.4472  0.9087 -0.3114
  610MOL0     O82250   5.144   5.782   8.232 -0.5218  0.2624 -0.1822
  610MOL0     C82251   5.034   5.861   8.178  0.3662  0.1231 -0.7880
  610MOL0     C82252   4.902   5.830   8.254  0.0073 -0.1510  0.2149
  610MOL0     C82253   4.834   5.702   8.219 -0.0423  0.0923 -0.3916
  610MOL0     C82254   4.742   5.710   8.100  0.2247  0.6853  0.8890
  610MOL0     C82255   4.672   5.576   8.069  0.4149 -0.4548 -0.7888
  610MOL0     C82256   4.623   5.571   7.922 -0.9922 -0.0793  0.5226
  610MOL0     C82257   4.530   5.453   7.886 -1.0924  0.4628 -0.2027
  610MOL0     C82258   4.439   5.481   7.775 -0.6730  0.9483  0.1870
  610MOL0    Cl82259   4.282   5.516   7.839 -0.1096 -0.0527  0.6614
  610MOL0     C82260   5.327   5.763   8.366 -0.0554  0.2724 -0.2763
  610MOL0     C82261   5.428   5.814   8.452  0.0428 -0.4115  0.0705
  610MOL0     O82262   5.583   6.142   8.447 -0.1538  0.4552  0.3350
  610MOL0     C82263   5.616   6.173   8.809  0.6320  0.2722 -0.5085
  610MOL0     C82264   5.686   6.254   8.899  0.2168 -0.4672  0.5431
  610MOL0     N82265   5.714   6.921   9.159 -0.0209  0.6720  0.3096
  610MOL0     N82266   5.599   6.976   9.197 -0.1503 -1.1052  0.6811
  610MOL0     C82267   4.906   7.415   8.548  0.2219  0.4293  0.1960
  610MOL0     C82268   4.902   7.551   8.556  0.2417  0.3198 -0.5159
  610MOL0     C82269   5.000   7.952   8.769  0.0988  0.1846  0.4934
  610MOL0     C82270   4.959   8.037   8.869 -0.9334  1.3256  0.0190
  610MOL0     C82271   4.987   8.169   8.865  0.0823  0.1230 -0.2310
  610MOL0     C82272   5.071   8.216   8.764  0.1525 -0.2690  0.8060
  610MOL0     O82273   5.106   8.344   8.742 -0.0711 -0.7822  1.0690
  610MOL0     C82274   5.109   8.421   8.864 -0.3058  0.1375  0.8169
  610MOL0     C82275   5.156   8.559   8.834  0.3490  0.6529 -0.8469
  610MOL0     C82276   5.308   8.554   8.809  0.6640 -0.6840 -1.0290
  610MOL0     C82277   5.343   8.670   8.717  0.3359  0.1883 -0.2688
  610MOL0     C82278   5.471   8.728   8.754 -0.1480  0.3673  0.0077
  610MOL0     C82279   5.571   8.792   8.789  0.6788  0.3153  0.4211
  610MOL0     C82280   5.109   8.133   8.657 -0.8131 -0.3744 -0.0989
  610MOL0     C82281   5.077   7.995   8.663 -0.1470 -0.4152  0.1628
  610MOL0     C82282   5.136   7.915   8.554  0.4592 -0.1095 -0.7223
  610MOL0     H82283   4.857   7.574   8.898 -0.3229  0.2481  0.1976
  610MOL0     H82284   4.869   7.345   8.886  0.3180 -2.9579 -1.2577
  610MOL0     H82285   5.000   7.037   8.588 -2.2782 -0.6497  1.3987
  610MOL0     H82286   5.031   7.189   8.511 -0.0322 -0.5451 -0.0354
  610MOL0     H82287   5.160   7.253   8.715  1.6139  0.2663 -0.6171
  610MOL0     H82288   5.221   7.099   8.641 -0.1650  0.7415 -0.0140
  610MOL0     H82289   5.149   6.961   8.789 -3.3314  0.5078 -2.9165
  610MOL0     H82290   5.011   7.058   8.840 -0.4065  0.1823  1.3161
  610MOL0     H82291   5.297   7.145   8.900  0.1073  1.7041  2.6416
  610MOL0     H82292   5.148   7.206   8.965  1.0920  1.5042 -2.6025
  610MOL0     H82293   5.227   7.072   9.136  1.8888 -0.9163 -0.0051
  610MOL0     H82294   5.094   6.985   9.056 -0.3814 -0.2608 -0.9814
  610MOL0     H82295   5.240   6.817   8.965 -1.0722  0.9656  0.9864
  610MOL0     H82296   5.381   6.905   9.003 -1.3270  3.8019 -3.1870
  610MOL0     H82297   5.310   6.712   9.155 -2.7864 -1.2655 -0.9272
  610MOL0     H82298   5.179   6.822   9.214 -0.1186  1.3440 -2.6358
  610MOL0     H82299   5.357   6.988   9.281 -1.7559  1.4144 -2.8584
  610MOL0     H82300   5.365   6.832   9.364 -0.3187  2.1312  0.5511
  610MOL0     H82301   5.522   6.660   9.195 -0.0381  0.1816 -0.0575
  610MOL0     H82302   5.887   6.745   9.134 -1.2758  5.0594 -1.2972
  610MOL0     H82303   5.764   6.602   9.125 -3.4025  1.0618 -0.3300
  610MOL0     H82304   5.704   6.634   8.911  2.0582 -3.2983  0.7224
  610MOL0     H82305   5.789   6.790   8.885  1.4810  0.1334  0.8711
  610MOL0     H82306   5.988   6.695   8.869  1.0438 -0.9486 -3.3499
  610MOL0     H82307   5.880   6.608   8.765  1.5774 -4.2573  1.2781
  610MOL0     H82308   5.990   6.533   9.035  0.7292 -0.6567 -0.7926
  610MOL0     H82309   6.022   6.469   8.872 -2.7865  0.1822 -1.2067
  610MOL0     H82310   5.915   6.393   8.706 -0.8619 -1.2505 -0.9146
  610MOL0     H82311   5.789   6.288   8.533  0.7051  3.5444  0.5040
  610MOL0     H82312   5.250   6.099   8.550  0.8154  0.5189  0.6596
  610MOL0     H82313   5.091   6.007   8.416 -0.4375  1.2997 -0.4991
  610MOL0     H82314   5.056   5.967   8.187 -0.3146  0.1475  0.8348
  610MOL0     H82315   5.024   5.832   8.073 -1.4636  0.6491 -0.7975
  610MOL0     H82316   4.920   5.827   8.362 -0.3716 -2.6903  0.2750
  610MOL0     H82317   4.834   5.908   8.220 -0.5157 -0.5175  0.4003
  610MOL0     H82318   4.906   5.620   8.204 -0.3141  0.0124 -1.3325
  610MOL0     H82319   4.772   5.684   8.307 -0.5405 -1.4529 -1.0312
  610MOL0     H82320   4.802   5.745   8.015  1.9451 -0.1831  1.7147
  610MOL0     H82321   4.657   5.778   8.117 -0.4004  0.3193 -0.5856
  610MOL0     H82322   4.581   5.566   8.129  0.0390 -0.2457 -1.3132
  610MOL0     H82323   4.743   5.500   8.100 -1.4141 -1.7142  0.5155
  610MOL0     H82324   4.579   5.667   7.892 -2.7051 -0.7507  0.7920
  610MOL0     H82325   4.717   5.574   7.866 -0.5770  2.3540  1.2255
  610MOL0     H82326   4.471   5.412   7.969  1.2141 -2.3824  0.2092
  610MOL0     H82327   4.592   5.367   7.859 -0.3204  1.0463 -0.3324
  610MOL0     H82328   4.486   5.550   7.704  1.3757  2.8081  3.0786
  610MOL0     H82329   4.427   5.378   7.743  0.0445  0.9110  0.0167
  610MOL0     H82330   5.322   5.669   8.312 -1.4640  0.3314 -0.2681
  610MOL0     H82331   5.520   5.756   8.453 -0.0262 -0.6564 -2.2935
  610MOL0     H82332   5.539   6.105   8.843 -1.8018  2.4493 -1.2915
  610MOL0     H82333   5.664   6.237   9.004  3.4786  0.4123  1.4945
  610MOL0     H82334   4.925   7.374   8.449  3.6820  1.1073  0.4485
  610MOL0     H82335   4.901   7.628   8.479 -2.2636  1.6110  0.7012
  610MOL0     H82336   4.913   8.001   8.960  1.9003  2.0042  1.8577
  610MOL0     H82337   4.956   8.238   8.943  1.6246  1.7876 -1.0216
  610MOL0     H82338   5.190   8.377   8.924  1.0504  0.9292 -0.3563
  610MOL0     H82339   5.015   8.428   8.920 -0.5639 -1.3921  0.6223
  610MOL0     H82340   5.132   8.623   8.919 -1.5327 -0.2261 -0.6615
  610MOL0     H82341   5.099   8.594   8.748 -1.6304  0.5771  0.3777
  610MOL0     H82342   5.340   8.455   8.774  0.8982 -3.2629  5.2196
  610MOL0     H82343   5.359   8.565   8.905  0.3625  2.5267 -1.1534
  610MOL0     H82344   5.339   8.637   8.613 -1.5774 -1.6375  0.3054
  610MOL0     H82345   5.267   8.749   8.723  0.8415  0.9339 -2.7733
  610MOL0     H82346   5.651   8.859   8.813  3.0242 -2.8054  2.0640
  610MOL0     H82347   5.175   8.174   8.582 -0.4994  1.1747  0.9842
  610MOL0     H82348   5.213   7.974   8.503  1.0007 -0.0452  0.1533
  610MOL0     H82349   5.184   7.831   8.606 -2.4370 -1.4870 -0.0828
  610MOL0     H82350   5.054   7.867   8.499  0.0682 -1.8953  1.3090
  611MOL0     O82351   9.902   6.532   4.979  0.3415  0.6535  0.8286
  611MOL0     C82352   9.807   6.586   4.919  0.2039 -0.1927  0.2037
  611MOL0     O82353   9.712   6.656   4.979  0.6607  0.0777  0.1898
  611MOL0     C82354   9.679   6.613   5.107 -0.0275 -0.4796 -0.3637
  611MOL0     C82355   9.596   6.502   5.119 -0.9826  0.0473 -0.3073
  611MOL0     C82356   9.571   6.465   5.247  0.5310  0.5212  0.0596
  611MOL0     C82357   9.625   6.531   5.357  0.8431 -0.3869  0.0979
  611MOL0     O82358   9.595   6.508   5.488  0.7699 -0.1347  0.0140
  611MOL0     C82359   9.515   6.389   5.519  0.4316 -0.6985 -0.6943
  611MOL0     C82360   9.363   6.419   5.498  0.2637  0.5101 -0.9653
  611MOL0     C82361   9.284   6.343   5.606 -0.3605  0.4739  0.1313
  611MOL0     C82362   9.138   6.386   5.617 -0.1622 -0.9008  0.1661
  611MOL0     C82363   9.075   6.358   5.758 -0.9796 -0.1402 -0.0746
  611MOL0     C82364   8.930   6.403   5.773 -0.7562  0.3748 -0.2763
  611MOL0     C82365   8.864   6.384   5.908  0.1614 -0.0349 -0.5489
  611MOL0     C82366   8.969   6.382   6.024 -0.5227  0.0076 -0.7466
  611MOL0     N82367   8.896   6.351   6.149  0.4434  0.1119  0.4210
  611MOL0     C82368   8.844   6.449   6.231  1.3031  0.0451 -0.1847
  611MOL0     C82369   8.785   6.375   6.328  0.2572 -0.0783 -0.2161
  611MOL0     C82370   8.714   6.434   6.438  0.4985  0.2680 -0.7203
  611MOL0     C82371   8.612   6.548   6.413 -0.2689 -0.1617  0.1148
  611MOL0     C82372   8.552   6.573   6.559  0.4441 -1.1128 -0.0815
  611MOL0     C82373   8.428   6.664   6.556 -1.5115  0.5674  0.9553
  611MOL0     O82374   8.376   6.646   6.688  0.9070  0.8929 -0.5170
  611MOL0     C82375   8.238   6.633   6.692  0.0747  0.1503  0.6369
  611MOL0     C82376   8.193   6.578   6.813  0.1194 -0.2712 -0.2398
  611MOL0     C82377   8.057   6.588   6.859 -0.6668  0.2687 -0.2666
  611MOL0     C82378   7.961   6.621   6.770 -0.0283 -0.3921  0.7325
  611MOL0     C82379   7.828   6.660   6.809 -0.0532  0.5717 -0.2441
  611MOL0     O82380   7.735   6.664   6.704 -0.6871  0.0643  0.7079
  611MOL0     C82381   7.601   6.685   6.736 -0.4755  0.6487 -0.0715
  611MOL0     C82382   7.533   6.614   6.841  0.2629 -0.6836 -0.0685
  611MOL0     C82383   7.393   6.619   6.854  1.2372 -0.3067 -0.7198
  611MOL0     C82384   7.316   6.710   6.774 -0.2209 -0.1013 -0.1340
  611MOL0     O82385   7.177   6.721   6.781  0.2286 -0.9940 -0.5302
  611MOL0     C82386   7.122   6.740   6.912  0.0127  1.3845  0.2325
  611MOL0     C82387   7.068   6.879   6.933 -0.2786  0.3136  0.6786
  611MOL0     C82388   7.151   6.971   7.022 -0.4445 -0.4537 -0.4607
  611MOL0     C82389   7.275   7.032   6.946 -0.1519  0.1613 -0.4630
  611MOL0     C82390   7.332   7.161   7.003 -0.5185 -0.3482  0.2481
  611MOL0     C82391   7.471   7.201   6.942  0.8061  0.6716 -0.9327
  611MOL0     C82392   7.577   7.197   7.051  0.0010  0.1989  0.4547
  611MOL0     C82393   7.703   7.260   6.975 -1.0498  0.0249 -0.3841
  611MOL0    Cl82394   7.826   7.318   7.100 -0.0738 -0.1754 -0.1219
  611MOL0     C82395   7.390   6.785   6.682  0.3856 -0.0477 -0.4770
  611MOL0     C82396   7.528   6.762   6.649  0.2359 -1.1568  0.2073
  611MOL0     O82397   7.806   6.685   6.929  0.7672 -0.3387  0.3307
  611MOL0     C82398   7.999   6.663   6.642 -0.0892  1.0716 -0.4582
  611MOL0     C82399   8.132   6.678   6.600 -0.3472 -0.0905 -0.6559
  611MOL0     N82400   8.804   6.240   6.292  0.4492 -0.4759 -0.3448
  611MOL0     N82401   8.873   6.224   6.187 -0.1963  0.0933  0.3498
  611MOL0     C82402   9.696   6.643   5.345  0.0680 -0.7067  0.3826
  611MOL0     C82403   9.732   6.677   5.214  1.0008 -0.4772  0.0547
  611MOL0     C82404   9.794   6.583   4.767  1.2006  0.6001 -1.1168
  611MOL0     C82405   9.686   6.632   4.697  0.8357 -0.3987 -0.0817
  611MOL0     C82406   9.686   6.659   4.559 -0.2176  0.7774  0.1283
  611MOL0     C82407   9.788   6.625   4.478 -0.2631 -0.0171 -0.6844
  611MOL0     O82408   9.787   6.616   4.339  0.0392 -1.4847 -0.2194
  611MOL0     C82409   9.674   6.661   4.262  0.0910  0.0720 -0.3822
  611MOL0     C82410   9.699   6.803   4.208 -0.1223  0.6299 -1.0206
  611MOL0     C82411   9.582   6.842   4.118 -1.0445 -0.1860 -1.3274
  611MOL0     C82412   9.598   6.962   4.026 -0.2645 -0.0133  0.0678
  611MOL0     C82413   9.704   6.918   3.935  0.1262  0.4453 -0.1477
  611MOL0     C82414   9.789   6.881   3.851  0.3300 -0.1516 -0.1831
  611MOL0     C82415   9.899   6.573   4.547 -0.1679  0.0042  0.4127
  611MOL0     C82416   9.909   6.552   4.686 -0.2540 -0.9424 -0.3253
  611MOL0     C82417  10.056   6.520   4.735 -0.1300 -0.5460 -0.0274
  611MOL0     H82418   9.562   6.450   5.030 -1.7620 -0.8363  0.4864
  611MOL0     H82419   9.506   6.379   5.259  0.1444  0.9176  0.8538
  611MOL0     H82420   9.548   6.298   5.468 -1.0693 -2.0469  0.6328
  611MOL0     H82421   9.539   6.369   5.624 -1.3202  0.2949 -0.0668
  611MOL0     H82422   9.328   6.388   5.399 -0.9525  0.3891 -0.5221
  611MOL0     H82423   9.334   6.524   5.513 -0.3682  0.0554  1.2835
  611MOL0     H82424   9.330   6.350   5.705  1.5268 -0.8681 -0.5813
  611MOL0     H82425   9.287   6.237   5.577  1.0313  0.6815 -0.6123
  611MOL0     H82426   9.114   6.491   5.598 -1.2971 -1.2141 -0.2359
  611MOL0     H82427   9.078   6.315   5.560 -1.3282 -0.0552  0.2997
  611MOL0     H82428   9.088   6.251   5.777  1.2784  0.0207 -0.5465
  611MOL0     H82429   9.140   6.415   5.824 -1.2349  1.6636 -1.3276
  611MOL0     H82430   8.937   6.510   5.752 -1.2415  0.5230  0.2997
  611MOL0     H82431   8.873   6.352   5.695  1.4896 -1.3954 -0.8696
  611MOL0     H82432   8.797   6.298   5.913  2.0667 -1.5808 -0.4128
  611MOL0     H82433   8.788   6.461   5.923 -3.2127 -3.1630 -0.1926
  611MOL0     H82434   9.057   6.318   6.007 -0.3274  0.3771 -1.1733
  611MOL0     H82435   9.017   6.480   6.039  3.7932 -2.3394  4.1879
  611MOL0     H82436   8.837   6.557   6.220 -1.9267  0.1142  1.3710
  611MOL0     H82437   8.649   6.357   6.479 -1.2532  1.7099 -0.6922
  611MOL0     H82438   8.787   6.469   6.511  0.8841 -0.2004 -0.8685
  611MOL0     H82439   8.652   6.637   6.365  1.7664  0.0256  2.0267
  611MOL0     H82440   8.532   6.523   6.342  0.4467  2.4450 -1.7432
  611MOL0     H82441   8.622   6.619   6.630 -2.2444  2.2154  0.6583
  611MOL0     H82442   8.508   6.474   6.576 -0.1676 -0.6285  1.3053
  611MOL0     H82443   8.358   6.648   6.474 -2.2953  3.0870  1.0424
  611MOL0     H82444   8.445   6.772   6.553 -1.4795  0.5412 -0.9544
  611MOL0     H82445   8.268   6.571   6.891  2.3592  1.0644 -2.1553
  611MOL0     H82446   8.028   6.562   6.960 -1.5987 -0.2342 -0.6543
  611MOL0     H82447   7.588   6.545   6.905 -2.6541 -3.0114  0.1466
  611MOL0     H82448   7.342   6.563   6.932 -0.0763 -1.2391 -2.2009
  611MOL0     H82449   7.040   6.671   6.931  2.3097 -1.1844  1.5319
  611MOL0     H82450   7.199   6.724   6.988  0.1291 -1.1273 -0.3378
  611MOL0     H82451   7.049   6.928   6.837  0.6393 -0.8274 -0.1330
  611MOL0     H82452   6.972   6.860   6.981  0.8498 -1.3511  2.4578
  611MOL0     H82453   7.091   7.059   7.047  2.1487  1.2387  0.2138
  611MOL0     H82454   7.178   6.926   7.117  1.4528 -1.9785 -1.6531
  611MOL0     H82455   7.241   7.036   6.842  0.5848  0.7425 -0.6860
  611MOL0     H82456   7.358   6.960   6.946 -1.4038 -1.4408 -3.0715
  611MOL0     H82457   7.335   7.157   7.113 -2.1065 -3.3305  0.3046
  611MOL0     H82458   7.267   7.232   6.952 -1.8224 -1.5662  0.1249
  611MOL0     H82459   7.502   7.158   6.847  1.3533 -1.1081 -0.0019
  611MOL0     H82460   7.463   7.309   6.928  0.3649  1.1554  2.1517
  611MOL0     H82461   7.594   7.096   7.089  1.6798  0.5395  0.6572
  611MOL0     H82462   7.554   7.247   7.146  1.6062 -3.3474  2.9325
  611MOL0     H82463   7.755   7.181   6.920  0.1605  0.0608  0.6626
  611MOL0     H82464   7.674   7.342   6.909 -0.8070  0.6251  0.2426
  611MOL0     H82465   7.354   6.868   6.621  1.9100 -1.3870 -3.4652
  611MOL0     H82466   7.582   6.817   6.572 -3.0180 -1.1488 -2.2817
  611MOL0     H82467   7.930   6.708   6.571  0.7410  0.3463 -1.7786
  611MOL0     H82468   8.150   6.713   6.499  0.2186  0.3003 -0.4194
  611MOL0     H82469   9.715   6.701   5.435  1.7739 -2.7768  1.4455
  611MOL0     H82470   9.805   6.753   5.189  1.1330 -0.8394 -0.6855
  611MOL0     H82471   9.589   6.660   4.739  1.1151  1.6869 -0.7062
  611MOL0     H82472   9.592   6.701   4.525 -1.6915 -3.1923 -1.2528
  611MOL0     H82473   9.575   6.647   4.307  0.7232  2.0228  1.7785
  611MOL0     H82474   9.666   6.598   4.173 -1.1385  0.2594 -0.4213
  611MOL0     H82475   9.797   6.787   4.163  2.0428  0.4027  3.2876
  611MOL0     H82476   9.709   6.871   4.293  1.1874 -0.3095 -0.4073
  611MOL0     H82477   9.504   6.867   4.190  2.7560  1.1634  2.8115
  611MOL0     H82478   9.549   6.757   4.057 -2.8956 -0.0004 -0.6418
  611MOL0     H82479   9.501   6.969   3.975 -1.1965 -1.4297  1.5465
  611MOL0     H82480   9.632   7.051   4.081 -1.8778 -1.1794  3.2210
  611MOL0     H82481   9.871   6.861   3.786  1.3641 -1.7994  1.5190
  611MOL0     H82482   9.978   6.536   4.483  0.0382  1.2525 -0.0855
  611MOL0     H82483  10.082   6.588   4.816 -1.6300 -2.4796  2.2073
  611MOL0     H82484  10.070   6.423   4.782  0.2887 -0.4873 -0.0344
  611MOL0     H82485  10.136   6.543   4.664 -0.3796  2.5969  0.5350
  612MOL0     O82486   4.016  10.468   8.310  0.5717  0.3300 -0.2867
  612MOL0     C82487   4.014  10.408   8.417  0.0652  0.2466 -0.7339
  612MOL0     O82488   4.111  10.322   8.469 -0.0192 -0.1448 -0.0542
  612MOL0     C82489   4.242  10.340   8.457 -0.2914  0.0808 -0.3378
  612MOL0     C82490   4.288  10.458   8.401  0.7197 -0.2659  0.0865
  612MOL0     C82491   4.419  10.467   8.362  0.5184 -0.1050  0.0370
  612MOL0     C82492   4.524  10.382   8.416  0.4152  0.9169  0.1401
  612MOL0     O82493   4.660  10.401   8.392 -0.3681 -0.4155  0.0503
  612MOL0     C82494   4.698  10.481   8.272  0.2156  1.4962 -0.6823
  612MOL0     C82495   4.844  10.447   8.235  0.2483 -0.2292 -0.3622
  612MOL0     C82496   4.950  10.485   8.342 -0.1590 -0.0802  0.2571
  612MOL0     C82497   4.924  10.599   8.452  0.6524  0.8918 -0.3075
  612MOL0     C82498   5.056  10.623   8.527 -0.4534 -0.3889  1.0863
  612MOL0     C82499   5.116  10.760   8.494 -0.6089  0.3853  0.3189
  612MOL0     C82500   5.149  10.785   8.345 -0.0488  0.2525 -0.6197
  612MOL0     C82501   5.242  10.910   8.325 -0.2518 -0.1464 -0.3914
  612MOL0     N82502   5.191  11.038   8.378  0.0315  0.1382 -0.1033
  612MOL0     C82503   5.248  11.107   8.476 -0.0247  0.0289  0.4113
  612MOL0     C82504   5.200  11.241   8.460 -0.0178  0.8272 -0.7831
  612MOL0     C82505   5.220  11.359   8.540 -0.2166 -0.4685 -0.3548
  612MOL0     C82506   5.372  11.384   8.556  0.0956 -0.6719  0.3708
  612MOL0     C82507   5.415  11.515   8.619  0.0453  0.3741 -0.6742
  612MOL0     C82508   5.566  11.538   8.631 -0.3167  0.4336 -0.1669
  612MOL0     O82509   5.587  11.678   8.656 -0.3898 -0.3506 -0.4489
  612MOL0     C82510   5.633  11.719   8.780  0.0506  0.2323 -0.2674
  612MOL0     C82511   5.559  11.801   8.858 -0.1340  0.4776 -0.2319
  612MOL0     C82512   5.622  11.837   8.978 -0.0427 -0.0770  0.1595
  612MOL0     C82513   5.747  11.800   9.020 -0.9762  0.5229 -0.6414
  612MOL0     C82514   5.799  11.844   9.157  0.1927 -0.4945 -0.2594
  612MOL0     O82515   5.719  11.935   9.231 -0.7224  0.7985 -0.1289
  612MOL0     C82516   5.787  11.987   9.333 -0.6100 -0.1373 -0.3095
  612MOL0     C82517   5.775  11.919   9.456 -0.4526  0.6472  0.5283
  612MOL0     C82518   5.819  11.972   9.575 -0.3259  0.0481  0.5574
  612MOL0     C82519   5.873  12.105   9.579 -0.6903  1.0047  0.3818
  612MOL0     O82520   5.902  12.150   9.706  0.2088  0.5794  0.6769
  612MOL0     C82521   5.999  12.253   9.731 -0.7324 -0.5012  0.1974
  612MOL0     C82522   6.154  12.222   9.714  0.3085 -0.7167  0.7054
  612MOL0     C82523   6.193  12.103   9.794  0.0102 -0.4162 -0.0527
  612MOL0     C82524   6.173  12.118   9.947 -0.9672 -0.7392  0.6332
  612MOL0     C82525   6.170  11.984  10.030  0.1801 -0.3644 -0.4542
  612MOL0     C82526   6.028  11.923  10.007 -1.1182  0.3233  0.7392
  612MOL0     C82527   5.993  11.808  10.100  1.0223 -1.2930 -0.0114
  612MOL0     C82528   6.039  11.812  10.242 -0.0019 -0.3761  0.4917
  612MOL0    Cl82529   5.944  11.673  10.327  0.3655 -0.3057  0.2037
  612MOL0     C82530   5.890  12.168   9.457 -0.8880  0.3000 -1.1986
  612MOL0     C82531   5.863  12.106   9.330 -0.3673 -0.0359 -0.7173
  612MOL0     O82532   5.902  11.797   9.200 -0.6308  0.8056  0.2813
  612MOL0     C82533   5.821  11.713   8.940 -0.8049 -0.5353  0.3023
  612MOL0     C82534   5.764  11.669   8.823  0.1940  0.3481  0.4772
  612MOL0     N82535   5.134  11.243   8.338  0.1854 -0.5830 -0.4870
  612MOL0     N82536   5.111  11.119   8.296  0.2741 -0.1061  0.3298
  612MOL0     C82537   4.473  10.272   8.487  0.4294  0.7156 -0.5289
  612MOL0     C82538   4.333  10.240   8.500 -0.0106  0.5573  0.0403
  612MOL0     C82539   3.877  10.399   8.472 -0.2847 -0.1351 -0.0964
  612MOL0     C82540   3.830  10.269   8.509 -0.4535 -0.7942  0.1906
  612MOL0     C82541   3.704  10.247   8.548 -0.0536 -0.3152 -1.1918
  612MOL0     C82542   3.606  10.347   8.553  0.1905 -0.1400  0.4616
  612MOL0     O82543   3.473  10.318   8.583 -0.1961 -1.1735 -0.7677
  612MOL0     C82544   3.419  10.404   8.683 -0.2292  0.0047  0.5246
  612MOL0     C82545   3.288  10.349   8.741  0.3325  1.1702 -0.5282
  612MOL0     C82546   3.206  10.463   8.816  0.0299  0.2080 -0.8021
  612MOL0     C82547   3.076  10.413   8.860 -0.0980 -0.6362 -0.3011
  612MOL0     C82548   2.991  10.390   8.741 -0.2155 -0.0475 -0.2554
  612MOL0     C82549   2.925  10.371   8.643  0.2046  0.7773  0.7097
  612MOL0     C82550   3.649  10.477   8.514 -0.0980  0.8733  0.1293
  612MOL0     C82551   3.781  10.501   8.472 -0.0457 -0.1191 -0.8266
  612MOL0     C82552   3.821  10.642   8.436 -0.7640  0.4406 -0.8506
  612MOL0     H82553   4.223  10.544   8.390 -1.8048 -1.5422  3.1911
  612MOL0     H82554   4.436  10.559   8.307 -2.9269  1.2516  1.0111
  612MOL0     H82555   4.638  10.439   8.191  0.4009  3.5738 -1.9609
  612MOL0     H82556   4.689  10.589   8.281  0.5058  1.4106  1.2771
  612MOL0     H82557   4.862  10.509   8.147  1.0769  0.0950  0.0299
  612MOL0     H82558   4.867  10.344   8.207  0.4532 -0.0610 -0.8212
  612MOL0     H82559   5.046  10.508   8.296  0.3720  0.6176  1.6445
  612MOL0     H82560   4.961  10.393   8.400  1.1124 -0.9492 -1.2901
  612MOL0     H82561   4.878  10.686   8.403 -0.6628  0.1258 -0.4793
  612MOL0     H82562   4.855  10.547   8.518  1.6199  1.7346  1.4309
  612MOL0     H82563   5.039  10.614   8.635  0.2971 -2.6466  1.0681
  612MOL0     H82564   5.128  10.545   8.503  1.2465  1.6244 -0.8132
  612MOL0     H82565   5.046  10.839   8.521  0.3371  0.6663  2.1037
  612MOL0     H82566   5.210  10.766   8.550 -1.1505 -1.1877  1.4688
  612MOL0     H82567   5.052  10.791   8.295 -1.4106 -0.7270  1.7476
  612MOL0     H82568   5.204  10.699   8.306  0.0509  0.0493 -0.0441
  612MOL0     H82569   5.341  10.896   8.370 -1.2896 -2.6682  1.2926
  612MOL0     H82570   5.249  10.895   8.217 -0.9324 -3.4767 -0.0633
  612MOL0     H82571   5.324  11.070   8.545 -1.0570  0.3517  1.7766
  612MOL0     H82572   5.167  11.446   8.501  2.6645  1.4732 -0.2853
  612MOL0     H82573   5.185  11.328   8.639  1.6978  1.5485  1.0520
  612MOL0     H82574   5.415  11.306   8.619  0.9517 -1.6140 -1.3160
  612MOL0     H82575   5.414  11.382   8.455  3.5957 -1.0081  1.6902
  612MOL0     H82576   5.379  11.517   8.723  1.8678  1.2520 -0.0088
  612MOL0     H82577   5.373  11.596   8.559  3.6437  3.1630  0.1965
  612MOL0     H82578   5.615  11.520   8.535  1.7214  1.8865  0.5328
  612MOL0     H82579   5.619  11.477   8.705 -0.8002  1.6685  1.2543
  612MOL0     H82580   5.464  11.846   8.831 -1.0946 -2.1974 -1.7921
  612MOL0     H82581   5.557  11.894   9.044 -1.7363 -1.3269 -0.3431
  612MOL0     H82582   5.727  11.823   9.471 -2.0062  1.1318 -1.0076
  612MOL0     H82583   5.788  11.925   9.668 -2.1441  0.9015  0.4373
  612MOL0     H82584   5.979  12.344   9.673 -1.5911 -0.7861  0.0228
  612MOL0     H82585   5.981  12.281   9.835 -2.8369  0.1211 -0.2862
  612MOL0     H82586   6.170  12.203   9.608 -2.3151 -3.7293  0.7066
  612MOL0     H82587   6.216  12.304   9.752 -2.5116  0.6671  2.7178
  612MOL0     H82588   6.138  12.014   9.761  2.1022 -1.9477  0.3684
  612MOL0     H82589   6.301  12.094   9.778 -0.1310  1.3454 -2.7661
  612MOL0     H82590   6.082  12.174   9.969 -1.4275 -1.2421  0.0495
  612MOL0     H82591   6.251  12.190   9.973  0.1165 -1.3807 -0.7112
  612MOL0     H82592   6.181  12.008  10.136 -2.3120 -2.9105  0.5380
  612MOL0     H82593   6.235  11.901  10.001  0.0736 -0.8296  0.5668
  612MOL0     H82594   5.951  12.000  10.018  1.8610  3.4054  1.7975
  612MOL0     H82595   6.032  11.902   9.899 -0.2226  2.8727  0.2208
  612MOL0     H82596   6.027  11.720  10.045  2.8256 -0.0481 -1.0155
  612MOL0     H82597   5.884  11.812  10.104  1.0765 -0.5912  2.3221
  612MOL0     H82598   6.145  11.786  10.242  0.2646  0.6557  0.9012
  612MOL0     H82599   6.015  11.912  10.280  1.5142 -0.3879  1.5794
  612MOL0     H82600   5.937  12.266   9.452  3.4692 -1.4588  0.2350
  612MOL0     H82601   5.883  12.152   9.234  0.8330 -1.0110 -0.9499
  612MOL0     H82602   5.921  11.680   8.968 -1.4401 -3.9367 -0.8866
  612MOL0     H82603   5.812  11.589   8.768  2.0100  2.5085 -1.3353
  612MOL0     H82604   4.556  10.216   8.530  0.4362 -0.0185 -1.4571
  612MOL0     H82605   4.295  10.145   8.534 -2.6159  0.0488 -3.7173
  612MOL0     H82606   3.899  10.187   8.498  1.7430  0.9040  0.5499
  612MOL0     H82607   3.661  10.151   8.575 -3.0246  1.8636  2.6255
  612MOL0     H82608   3.386  10.490   8.625  0.0316  0.3190  0.8443
  612MOL0     H82609   3.494  10.432   8.757 -0.5602  3.1922 -0.2027
  612MOL0     H82610   3.303  10.276   8.822  2.6014  2.3487  0.2046
  612MOL0     H82611   3.220  10.303   8.669 -1.1206 -0.4517  1.7183
  612MOL0     H82612   3.189  10.548   8.750  2.0580  1.1002 -0.2474
  612MOL0     H82613   3.258  10.490   8.908 -0.1488 -3.9850  0.7464
  612MOL0     H82614   3.081  10.321   8.919 -0.4390  0.4995  1.5945
  612MOL0     H82615   3.024  10.488   8.920  1.2710 -0.3679  0.5817
  612MOL0     H82616   2.864  10.351   8.558 -0.0497 -1.1384  1.2904
  612MOL0     H82617   3.571  10.553   8.510  1.1335  2.1969  0.7458
  612MOL0     H82618   3.844  10.634   8.329 -1.0062  2.2523 -1.0653
  612MOL0     H82619   3.734  10.707   8.444  0.1380  2.2530 -3.8696
  612MOL0     H82620   3.902  10.684   8.497  0.1004 -0.7338 -1.1429
  613MOL0     O82621   3.574  10.568   5.347 -0.4075 -0.7719 -0.3806
  613MOL0     C82622   3.623  10.499   5.256  1.1211  0.0422  0.5208
  613MOL0     O82623   3.559  10.456   5.141 -0.7174  0.4390 -0.2623
  613MOL0     C82624   3.440  10.502   5.091  0.3041  0.2801 -0.3390
  613MOL0     C82625   3.359  10.406   5.039  0.5532 -0.0189  1.1646
  613MOL0     C82626   3.233  10.435   4.981 -0.1323 -0.9975  0.4084
  613MOL0     C82627   3.183  10.566   4.980  0.1168 -0.2195  1.0567
  613MOL0     O82628   3.064  10.615   4.930 -0.3087 -0.1307 -0.3751
  613MOL0     C82629   2.966  10.519   4.887 -0.2704 -0.2947 -0.7564
  613MOL0     C82630   2.882  10.474   5.001  0.8221 -0.4794 -0.4622
  613MOL0     C82631   2.821  10.589   5.090 -0.2268 -0.3979  0.4484
  613MOL0     C82632   2.724  10.685   5.013  0.9680 -0.4811  0.2161
  613MOL0     C82633   2.669  10.791   5.103 -0.0805  0.1378 -1.4322
  613MOL0     C82634   2.762  10.913   5.098  0.0268 -1.1493 -0.8781
  613MOL0     C82635   2.717  11.027   5.189  0.2348  0.6593 -0.2611
  613MOL0     C82636   2.675  10.992   5.330 -0.4047 -0.0348 -0.0115
  613MOL0     N82637   2.795  10.948   5.408 -0.3985  0.2375  1.0939
  613MOL0     C82638   2.883  11.032   5.472 -0.0433 -0.3138 -0.0553
  613MOL0     C82639   2.956  10.950   5.556 -0.9523 -0.5883  0.5909
  613MOL0     C82640   3.068  11.001   5.644 -0.2934  0.5429 -0.7064
  613MOL0     C82641   3.081  11.157   5.662  0.5211  1.1912 -0.1759
  613MOL0     C82642   3.208  11.204   5.737 -0.0581  0.3953  0.5988
  613MOL0     C82643   3.224  11.351   5.758 -0.3204 -0.5702  0.5456
  613MOL0     O82644   3.350  11.398   5.798 -0.7786 -0.2595 -0.8956
  613MOL0     C82645   3.375  11.419   5.924 -0.6266 -0.3453 -0.9321
  613MOL0     C82646   3.498  11.481   5.947  0.1855  0.8065 -0.2262
  613MOL0     C82647   3.540  11.523   6.072  0.0561 -0.9747  0.1283
  613MOL0     C82648   3.463  11.491   6.187  0.4987 -0.5802  0.3657
  613MOL0     C82649   3.514  11.526   6.323 -0.7559 -0.2282  0.3003
  613MOL0     O82650   3.616  11.617   6.311  0.0540 -0.1430 -0.5251
  613MOL0     C82651   3.668  11.697   6.408  0.4559 -0.7178  0.3282
  613MOL0     C82652   3.643  11.686   6.542  0.0116 -0.0757  0.6154
  613MOL0     C82653   3.723  11.755   6.632 -1.1399  0.0417 -0.2535
  613MOL0     C82654   3.819  11.839   6.588  0.1921 -0.3257  0.0248
  613MOL0     O82655   3.904  11.896   6.675  0.0576  0.0254  0.3132
  613MOL0     C82656   3.869  12.027   6.718 -0.5919  0.2333 -0.7669
  613MOL0     C82657   3.949  12.072   6.846  0.2742 -0.7549  0.4375
  613MOL0     C82658   3.961  11.960   6.948 -0.1116 -0.0661  0.6465
  613MOL0     C82659   3.818  11.915   6.991  0.6863  0.1017 -0.0649
  613MOL0     C82660   3.825  11.853   7.136 -0.2521  1.0406  0.7073
  613MOL0     C82661   3.691  11.785   7.151  0.0814 -0.2884  0.1617
  613MOL0     C82662   3.687  11.694   7.275  1.0209  0.1511  1.0324
  613MOL0     C82663   3.546  11.625   7.269  0.3759  0.1659 -0.1979
  613MOL0    Cl82664   3.413  11.710   7.351  0.1610 -0.5733 -0.5629
  613MOL0     C82665   3.835  11.866   6.452  0.1009  0.8271 -1.2571
  613MOL0     C82666   3.765  11.788   6.361 -0.8275  0.6196  0.4109
  613MOL0     O82667   3.451  11.486   6.425 -0.0383  0.3033 -0.3548
  613MOL0     C82668   3.344  11.420   6.170 -0.0130  0.4675  0.3310
  613MOL0     C82669   3.298  11.394   6.040  0.6477  0.2450 -0.1009
  613MOL0     N82670   2.914  10.821   5.542 -0.3564  0.6755 -0.1481
  613MOL0     N82671   2.822  10.824   5.450  0.1951  0.4962  0.3249
  613MOL0     C82672   3.261  10.665   5.043 -0.4561 -0.0548  0.3148
  613MOL0     C82673   3.395  10.638   5.087  0.3402  0.7689 -0.4045
  613MOL0     C82674   3.762  10.448   5.269  0.3115  0.1501 -0.4797
  613MOL0     C82675   3.807  10.352   5.174  0.0126  0.3193 -0.2334
  613MOL0     C82676   3.935  10.317   5.164 -0.7227  0.6882 -0.6881
  613MOL0     C82677   4.030  10.364   5.246  0.7094  0.4581 -0.6220
  613MOL0     O82678   4.159  10.334   5.212  0.2650  0.0445 -0.3334
  613MOL0     C82679   4.275  10.365   5.302  0.0231 -0.2772  0.7248
  613MOL0     C82680   4.303  10.513   5.322 -0.4687  0.1098  0.8504
  613MOL0     C82681   4.301  10.577   5.469 -0.4649 -0.5890 -0.1397
  613MOL0     C82682   4.436  10.554   5.536  0.1695 -0.1101  0.5556
  613MOL0     C82683   4.453  10.648   5.646  0.7543 -0.9370 -1.6416
  613MOL0     C82684   4.454  10.718   5.744  0.2698 -0.7050  0.0082
  613MOL0     C82685   3.990  10.447   5.351  0.9740 -0.2231 -1.0498
  613MOL0     C82686   3.860  10.479   5.364  0.0505  0.1607 -0.2930
  613MOL0     C82687   3.820  10.569   5.487  0.1568  0.8463  0.3474
  613MOL0     H82688   3.400  10.306   5.043  3.7774  1.1395  0.0783
  613MOL0     H82689   3.177  10.349   4.945 -0.7884 -1.1108  1.6256
  613MOL0     H82690   2.920  10.573   4.804  2.0670 -0.9233 -2.5480
  613MOL0     H82691   3.013  10.433   4.840 -0.8660 -1.1005  0.0842
  613MOL0     H82692   2.935  10.409   5.071 -2.0665 -0.5626  1.8621
  613MOL0     H82693   2.800  10.429   4.945 -1.0476  1.5991  0.4410
  613MOL0     H82694   2.908  10.645   5.126  1.6037 -1.9757 -1.2590
  613MOL0     H82695   2.771  10.539   5.173  2.2518 -1.1801  1.5533
  613MOL0     H82696   2.757  10.719   4.914 -2.0967  1.0073 -0.4115
  613MOL0     H82697   2.641  10.618   4.987  0.3217  0.1569  0.6028
  613MOL0     H82698   2.563  10.809   5.084 -0.0800  3.4951  0.8614
  613MOL0     H82699   2.669  10.754   5.206  1.7014 -0.6048 -1.6544
  613MOL0     H82700   2.860  10.886   5.139 -1.0533 -1.4946  1.7110
  613MOL0     H82701   2.770  10.958   4.999  1.2918  1.6151  0.3963
  613MOL0     H82702   2.640  11.077   5.129 -0.4244  1.3333  1.0875
  613MOL0     H82703   2.799  11.098   5.201  2.7792 -2.3737  1.8498
  613MOL0     H82704   2.620  11.077   5.370 -2.0302  0.3364 -2.7673
  613MOL0     H82705   2.598  10.914   5.321 -2.6094  2.1506 -1.1281
  613MOL0     H82706   2.894  11.139   5.459  0.4356 -0.0802  1.9702
  613MOL0     H82707   3.075  10.944   5.737  0.2742  1.2761 -0.2857
  613MOL0     H82708   3.159  10.970   5.592 -0.9346  0.2716 -1.6737
  613MOL0     H82709   3.086  11.193   5.559 -3.4039 -1.6649 -1.6292
  613MOL0     H82710   2.994  11.202   5.711 -1.7861 -3.8915  1.0791
  613MOL0     H82711   3.296  11.172   5.681  0.4415  1.0173  1.0235
  613MOL0     H82712   3.206  11.151   5.832  1.7826  1.1625  1.0966
  613MOL0     H82713   3.147  11.385   5.829  1.7226  4.9996  0.5971
  613MOL0     H82714   3.194  11.396   5.664 -1.0575  2.2989  2.0293
  613MOL0     H82715   3.565  11.513   5.869 -0.3602 -1.7478 -1.8716
  613MOL0     H82716   3.636  11.573   6.075 -0.7744  0.7018  0.4786
  613MOL0     H82717   3.585  11.613   6.598 -0.3394  0.2976  0.7430
  613MOL0     H82718   3.711  11.735   6.738  4.6147 -1.8402  0.3980
  613MOL0     H82719   3.868  12.094   6.631 -1.6391  1.0316 -0.1780
  613MOL0     H82720   3.766  12.031   6.757  0.2242 -1.5013  1.8342
  613MOL0     H82721   4.046  12.108   6.812 -0.0242  1.7907  2.0577
  613MOL0     H82722   3.880  12.152   6.872  1.5387  0.9295 -1.1881
  613MOL0     H82723   4.013  11.876   6.903  1.9613  0.4479  1.9547
  613MOL0     H82724   4.012  11.989   7.041 -1.6593  0.6325  1.3091
  613MOL0     H82725   3.765  11.849   6.921 -1.4548  1.6448  0.0148
  613MOL0     H82726   3.744  11.995   7.002 -0.7299 -0.7117 -2.7396
  613MOL0     H82727   3.824  11.934   7.209 -1.3199  1.7326 -0.0516
  613MOL0     H82728   3.908  11.784   7.155 -0.1852  0.9541  0.1137
  613MOL0     H82729   3.617  11.863   7.172  1.4199  0.7361  1.2561
  613MOL0     H82730   3.670  11.723   7.063 -1.0447 -0.9598  0.8714
  613MOL0     H82731   3.699  11.754   7.366 -2.2859 -2.4546  3.4280
  613MOL0     H82732   3.754  11.608   7.276 -1.1132 -1.6170 -0.1998
  613MOL0     H82733   3.522  11.600   7.166  0.3658  1.0937 -0.4256
  613MOL0     H82734   3.545  11.529   7.323 -1.4777 -0.5566 -1.4437
  613MOL0     H82735   3.917  11.929   6.417  1.3760 -0.3725 -0.5143
  613MOL0     H82736   3.794  11.796   6.257  2.5241 -0.9402  1.0905
  613MOL0     H82737   3.274  11.406   6.252  0.8892  2.8247  1.5887
  613MOL0     H82738   3.199  11.349   6.044  0.9123 -0.2916  2.1290
  613MOL0     H82739   3.223  10.765   5.062 -3.2021 -0.8399 -0.4897
  613MOL0     H82740   3.460  10.720   5.118  0.4646  0.4435  0.2174
  613MOL0     H82741   3.746  10.315   5.092 -1.3607 -0.8634  1.2511
  613MOL0     H82742   3.976  10.245   5.093 -2.7696 -0.7062 -0.5725
  613MOL0     H82743   4.357  10.311   5.252  0.9170 -1.0302  2.9039
  613MOL0     H82744   4.256  10.320   5.400 -1.0566 -0.5367  0.4053
  613MOL0     H82745   4.233  10.570   5.260  4.4281  4.7403 -1.2237
  613MOL0     H82746   4.403  10.521   5.279 -0.8354 -1.8248 -0.4923
  613MOL0     H82747   4.222  10.542   5.536 -1.2875 -1.3037 -1.4471
  613MOL0     H82748   4.284  10.685   5.461 -0.1629 -0.3873  1.5879
  613MOL0     H82749   4.449  10.457   5.584  2.6420 -1.3727 -2.3434
  613MOL0     H82750   4.521  10.579   5.472  0.3435  0.5251  1.0180
  613MOL0     H82751   4.440  10.765   5.839  0.7306 -3.0100  1.3102
  613MOL0     H82752   4.050  10.484   5.433  0.2985 -4.4188  1.6440
  613MOL0     H82753   3.737  10.517   5.537  1.9844  0.9426  3.7628
  613MOL0     H82754   3.900  10.578   5.561  2.6660 -1.6526 -1.8574
  613MOL0     H82755   3.772  10.662   5.455  1.2677  1.4412  0.3747
  614MOL0     O82756   9.911   5.185   8.400 -0.1138  0.1564  0.1409
  614MOL0     C82757  10.020   5.179   8.347 -0.2767  0.1684 -1.7076
  614MOL0     O82758  10.048   5.195   8.206 -0.1243  0.2906 -1.1509
  614MOL0     C82759   9.935   5.199   8.128  0.3864  0.4749  0.1265
  614MOL0     C82760   9.852   5.308   8.134  0.2161  1.2674  0.7497
  614MOL0     C82761   9.737   5.313   8.055 -0.8491 -0.3955  0.2292
  614MOL0     C82762   9.713   5.211   7.965  0.7485 -1.4898  1.3773
  614MOL0     O82763   9.600   5.217   7.891  0.0820 -0.1713  0.1608
  614MOL0     C82764   9.508   5.111   7.923 -0.1683  0.6550  0.0042
  614MOL0     C82765   9.369   5.160   7.896  0.1710 -0.2102 -0.4392
  614MOL0     C82766   9.322   5.261   8.004  0.4349 -0.0749 -0.0019
  614MOL0     C82767   9.205   5.347   7.940 -0.0149  0.2933  0.5631
  614MOL0     C82768   9.188   5.470   8.028  0.4202  0.4267 -0.6110
  614MOL0     C82769   9.137   5.444   8.172 -0.9978  0.2146  0.2553
  614MOL0     C82770   9.118   5.568   8.255  0.2061 -0.0617  0.1912
  614MOL0     C82771   9.234   5.661   8.289 -0.1665 -0.6488  1.2978
  614MOL0     N82772   9.331   5.612   8.375 -0.2041 -0.1190 -0.7552
  614MOL0     C82773   9.430   5.513   8.342  0.0713 -0.2772 -0.3415
  614MOL0     C82774   9.497   5.495   8.464 -0.2645  0.4728  0.4030
  614MOL0     C82775   9.597   5.388   8.475  0.2209 -0.0990  0.4287
  614MOL0     C82776   9.526   5.254   8.508  0.5892  0.4976  0.0684
  614MOL0     C82777   9.520   5.227   8.655  0.6432  0.2169 -0.2327
  614MOL0     C82778   9.499   5.079   8.681  0.0952  0.8767 -0.2554
  614MOL0     O82779   9.510   5.050   8.821  0.8031  0.4999 -0.7688
  614MOL0     C82780   9.633   5.051   8.886  0.4169 -0.2789 -0.0034
  614MOL0     C82781   9.639   5.067   9.023  0.1707 -0.5288  1.2001
  614MOL0     C82782   9.757   5.058   9.090 -1.1517  0.2007  0.2063
  614MOL0     C82783   9.881   5.029   9.026 -0.7628 -0.4626 -0.0801
  614MOL0     C82784  10.009   5.018   9.094 -0.7875  0.1727 -0.6672
  614MOL0     O82785  10.121   5.020   9.015 -1.0824  0.5626  0.3869
  614MOL0     C82786  10.246   5.030   9.090  0.0539 -0.1494 -1.1821
  614MOL0     C82787  10.343   4.927   9.073  1.1850 -0.3238  0.8264
  614MOL0     C82788  10.467   4.938   9.145 -0.5823  0.6553  0.9147
  614MOL0     C82789  10.494   5.046   9.226  0.5316  0.3186  0.2383
  614MOL0     O82790  10.619   5.050   9.282 -0.1262 -0.4231 -0.0019
  614MOL0     C82791  10.687   5.172   9.274 -0.7558 -0.9266 -1.2355
  614MOL0     C82792  10.828   5.155   9.206  0.9895  0.0921 -0.4680
  614MOL0     C82793  10.813   5.132   9.051 -0.2269 -0.4081 -0.2282
  614MOL0     C82794  10.953   5.109   8.980 -0.1842 -0.0583  0.3795
  614MOL0     C82795  11.034   4.993   9.032 -0.3701 -0.0670  0.0581
  614MOL0     C82796  11.176   4.989   8.974  0.4868 -0.5805 -0.3119
  614MOL0     C82797  11.230   4.838   8.976  0.2140 -0.0158  0.7843
  614MOL0     C82798  11.377   4.831   8.922 -0.1139  0.3893 -0.2966
  614MOL0    Cl82799  11.492   4.937   8.996 -0.1907  0.6423  0.0146
  614MOL0     C82800  10.392   5.136   9.254 -0.7611  0.1712 -0.2688
  614MOL0     C82801  10.273   5.135   9.184 -0.1135  0.0298 -0.5842
  614MOL0     O82802  10.003   5.020   9.217 -0.3971 -0.6754 -0.2335
  614MOL0     C82803   9.868   4.996   8.887  0.4637 -0.4383 -0.6944
  614MOL0     C82804   9.751   5.015   8.815  0.2506 -0.2065 -1.1060
  614MOL0     N82805   9.450   5.582   8.553  0.3222  0.3756 -0.1200
  614MOL0     N82806   9.347   5.648   8.504 -0.6136 -0.5647 -0.0908
  614MOL0     C82807   9.803   5.105   7.939  0.3383  1.4318 -0.1079
  614MOL0     C82808   9.914   5.100   8.023  0.5354 -0.9847  0.8934
  614MOL0     C82809  10.148   5.143   8.420  0.4917  0.5587 -0.0918
  614MOL0     C82810  10.258   5.098   8.351 -0.6569  0.1242 -0.1022
  614MOL0     C82811  10.375   5.060   8.421  0.4615 -0.3363  0.0349
  614MOL0     C82812  10.381   5.047   8.560  0.1103 -0.5570 -0.2560
  614MOL0     O82813  10.499   5.005   8.604  0.4455 -0.2810  0.3070
  614MOL0     C82814  10.495   4.936   8.733  1.0931 -0.0344  0.1710
  614MOL0     C82815  10.604   4.847   8.751  0.0352  0.2666  1.1690
  614MOL0     C82816  10.599   4.730   8.642 -0.5666 -0.4626  0.0706
  614MOL0     C82817  10.710   4.635   8.664 -0.0072  0.0330  0.9977
  614MOL0     C82818  10.836   4.704   8.634  0.5079  0.3507 -0.0750
  614MOL0     C82819  10.937   4.763   8.595 -0.3427  0.6943 -0.8018
  614MOL0     C82820  10.275   5.105   8.620 -0.2471 -0.0320 -0.1630
  614MOL0     C82821  10.155   5.153   8.562  0.2331 -0.0753  0.5708
  614MOL0     C82822  10.041   5.200   8.649 -0.8639  0.0477  0.0345
  614MOL0     H82823   9.874   5.395   8.196  0.9360  2.2209 -0.7947
  614MOL0     H82824   9.673   5.399   8.076 -1.1893 -0.9578  1.5536
  614MOL0     H82825   9.520   5.024   7.858 -2.4045  0.1775  0.1636
  614MOL0     H82826   9.518   5.085   8.029 -2.2914  1.0218  0.3388
  614MOL0     H82827   9.304   5.074   7.915 -0.4500  0.9530  3.7111
  614MOL0     H82828   9.363   5.200   7.794 -2.9768 -2.2586 -1.1750
  614MOL0     H82829   9.408   5.326   8.021  0.3729  0.0543 -0.1792
  614MOL0     H82830   9.287   5.205   8.091 -2.3250 -0.5548 -1.3188
  614MOL0     H82831   9.243   5.375   7.841  1.7638  0.3229  1.2084
  614MOL0     H82832   9.112   5.290   7.935 -1.2079  1.8525  3.0349
  614MOL0     H82833   9.283   5.522   8.045  0.5615 -0.0854  0.2613
  614MOL0     H82834   9.127   5.549   7.983  2.3225  1.1909 -2.0075
  614MOL0     H82835   9.036   5.403   8.162 -0.1968 -2.0745  0.8969
  614MOL0     H82836   9.191   5.373   8.236 -2.5980  1.1718  2.8061
  614MOL0     H82837   9.072   5.530   8.347  2.1211  0.0881  1.2604
  614MOL0     H82838   9.051   5.636   8.203  1.9026  1.1970 -0.4356
  614MOL0     H82839   9.283   5.705   8.201  3.5000  0.1371  3.5163
  614MOL0     H82840   9.180   5.746   8.330 -0.8641 -0.4002 -0.0785
  614MOL0     H82841   9.441   5.457   8.250 -4.0293  1.0051 -1.8629
  614MOL0     H82842   9.659   5.388   8.385 -2.5768 -0.2997 -1.6349
  614MOL0     H82843   9.665   5.414   8.557 -0.4337  3.4404  0.0267
  614MOL0     H82844   9.421   5.253   8.477  1.5070  0.5909 -3.4184
  614MOL0     H82845   9.567   5.167   8.457  3.2279  0.4540  2.0359
  614MOL0     H82846   9.448   5.295   8.702  0.5489  0.1839 -0.3301
  614MOL0     H82847   9.624   5.234   8.688  0.4243 -2.9456  1.5259
  614MOL0     H82848   9.573   5.021   8.626 -0.1709 -2.8355  2.8593
  614MOL0     H82849   9.397   5.052   8.651  0.5074  0.9666 -1.8092
  614MOL0     H82850   9.547   5.079   9.080  0.6277  2.0117  1.5114
  614MOL0     H82851   9.768   5.086   9.194 -2.5920  0.1994  0.3739
  614MOL0     H82852  10.325   4.835   9.020  3.5939 -0.2156 -0.2672
  614MOL0     H82853  10.546   4.867   9.126  1.2462  3.3723 -2.8395
  614MOL0     H82854  10.622   5.245   9.224 -1.1418 -0.4090 -0.0118
  614MOL0     H82855  10.696   5.208   9.377 -0.9549  0.7266 -1.7598
  614MOL0     H82856  10.902   5.234   9.222  1.1186  0.7350 -3.5503
  614MOL0     H82857  10.874   5.069   9.255 -1.1307 -0.4572  0.6585
  614MOL0     H82858  10.751   5.044   9.029 -0.5758 -0.4887  1.0074
  614MOL0     H82859  10.755   5.212   9.004 -1.2926 -3.4271 -4.7827
  614MOL0     H82860  11.012   5.201   8.987 -0.2342  0.0588 -0.6346
  614MOL0     H82861  10.926   5.085   8.877 -3.4367  0.7992  0.9306
  614MOL0     H82862  10.972   4.905   9.010  0.7988 -1.0524  0.6076
  614MOL0     H82863  11.035   5.003   9.141  1.3675 -1.0563  0.1626
  614MOL0     H82864  11.178   5.027   8.872 -0.1269 -3.7813 -1.6297
  614MOL0     H82865  11.247   5.039   9.041  1.2031 -1.1621 -0.6148
  614MOL0     H82866  11.167   4.783   8.905  1.7246 -0.6727 -0.0791
  614MOL0     H82867  11.223   4.795   9.076 -0.1991  1.2864  1.3455
  614MOL0     H82868  11.410   4.728   8.937 -0.5770  0.0737 -1.3832
  614MOL0     H82869  11.369   4.855   8.816 -3.7952 -1.5196 -0.6044
  614MOL0     H82870  10.395   5.215   9.328  2.1118  1.1706 -1.3209
  614MOL0     H82871  10.208   5.222   9.190 -0.3047 -0.0978 -0.7737
  614MOL0     H82872   9.957   4.978   8.827 -0.1504 -4.2461 -0.7030
  614MOL0     H82873   9.757   4.995   8.708  1.2837 -2.6058 -0.6618
  614MOL0     H82874   9.786   5.028   7.864 -4.9749 -1.0630  3.0142
  614MOL0     H82875   9.984   5.017   8.018 -0.0794 -1.4297 -1.4115
  614MOL0     H82876  10.263   5.092   8.242 -1.3388  1.0619 -0.1972
  614MOL0     H82877  10.449   5.016   8.356 -2.1337 -0.0938 -3.3625
  614MOL0     H82878  10.398   4.885   8.731  1.1852 -0.2239 -2.0961
  614MOL0     H82879  10.493   5.003   8.820 -2.8897 -1.9440  1.8530
  614MOL0     H82880  10.614   4.797   8.847  0.2372  1.4901  1.7989
  614MOL0     H82881  10.688   4.912   8.725 -0.0239 -1.1781 -3.6985
  614MOL0     H82882  10.596   4.787   8.548 -1.4654  1.4166  1.1783
  614MOL0     H82883  10.509   4.670   8.656 -2.4394  1.9827 -0.5441
  614MOL0     H82884  10.717   4.608   8.770 -3.2337 -2.4866  0.7449
  614MOL0     H82885  10.699   4.545   8.602  0.4091 -0.7010  1.9619
  614MOL0     H82886  11.021   4.822   8.565  2.5420 -1.5609  2.0903
  614MOL0     H82887  10.275   5.118   8.728 -1.5878  4.7492 -0.5475
  614MOL0     H82888   9.966   5.120   8.642 -0.8111  0.1019 -5.2370
  614MOL0     H82889  10.076   5.223   8.750  1.3138 -2.0850 -0.1410
  614MOL0     H82890   9.994   5.293   8.614  0.8725  1.1788  0.6135
  615MOL0     O82891   2.004   4.370   0.679  0.3496 -0.1356 -0.2214
  615MOL0     C82892   1.903   4.332   0.621  0.1367  0.8851 -0.5385
  615MOL0     O82893   1.898   4.294   0.489 -0.4590 -0.0359  0.6235
  615MOL0     C82894   2.018   4.266   0.428  0.3820 -0.6897 -0.3493
  615MOL0     C82895   2.035   4.136   0.374  0.7840  0.5559 -0.7426
  615MOL0     C82896   2.159   4.099   0.318 -0.2713  0.0744 -0.3467
  615MOL0     C82897   2.259   4.200   0.303  0.1755 -0.2165 -1.2553
  615MOL0     O82898   2.388   4.178   0.251  0.3875  0.0910 -0.7506
  615MOL0     C82899   2.411   4.059   0.178  0.6866  0.2003 -0.4763
  615MOL0     C82900   2.556   4.026   0.173 -0.6632  0.0373  0.5730
  615MOL0     C82901   2.649   4.138   0.123  0.5325  0.9545 -0.4230
  615MOL0     C82902   2.795   4.098   0.130 -0.0100  0.3231 -0.2952
  615MOL0     C82903   2.844   3.985   0.038  0.1560  0.2417  0.2847
  615MOL0     C82904   2.917   3.873   0.097 -0.2872  0.1307 -0.5470
  615MOL0     C82905   2.818   3.794   0.209 -0.0855  0.7223  0.2819
  615MOL0     C82906   2.895   3.700   0.291 -0.3609  0.2843 -0.4209
  615MOL0     N82907   2.841   3.630   0.411 -0.0851 -0.1670  0.3392
  615MOL0     C82908   2.713   3.661   0.458  0.1672 -0.1532  0.7070
  615MOL0     C82909   2.685   3.551   0.530  0.0645  0.4846  0.2004
  615MOL0     C82910   2.545   3.517   0.582 -1.0157 -0.5219 -0.4773
  615MOL0     C82911   2.479   3.638   0.644  0.5932  0.3045 -0.6736
  615MOL0     C82912   2.344   3.605   0.713  0.4659  0.2366 -0.3088
  615MOL0     C82913   2.279   3.732   0.761  0.2711  0.2221  0.9404
  615MOL0     O82914   2.138   3.713   0.787  0.4535  0.1124 -0.3593
  615MOL0     C82915   2.113   3.626   0.893  0.2308  0.2034 -0.1802
  615MOL0     C82916   2.053   3.509   0.862  0.4852 -0.4234 -0.4572
  615MOL0     C82917   2.040   3.403   0.949 -0.2870 -0.1151  0.2459
  615MOL0     C82918   2.084   3.425   1.080 -0.3244 -0.1280 -0.3945
  615MOL0     C82919   2.066   3.306   1.171  0.2382 -0.3662  0.6029
  615MOL0     O82920   1.961   3.232   1.149  0.2942 -0.3656 -0.2858
  615MOL0     C82921   1.914   3.122   1.221  0.6048  0.3054 -0.4416
  615MOL0     C82922   1.978   3.036   1.316  0.3800 -0.0718  0.3033
  615MOL0     C82923   1.909   2.939   1.387 -0.5500 -0.2334 -0.1133
  615MOL0     C82924   1.776   2.911   1.362 -0.3700  0.2600  0.4253
  615MOL0     O82925   1.697   2.824   1.428  0.2715 -0.0036  0.4364
  615MOL0     C82926   1.728   2.790   1.561  0.0286 -0.7804  0.1081
  615MOL0     C82927   1.595   2.795   1.641  0.1901  0.5089 -0.3156
  615MOL0     C82928   1.604   2.713   1.775 -0.1369 -0.2819 -0.1145
  615MOL0     C82929   1.480   2.734   1.856  0.3806  0.3232 -0.2409
  615MOL0     C82930   1.494   2.846   1.948  0.4533  0.2994  0.4225
  615MOL0     C82931   1.401   2.839   2.067 -0.1237  0.7731 -0.1794
  615MOL0     C82932   1.458   2.744   2.175 -0.5355 -1.3855  0.2946
  615MOL0     C82933   1.395   2.603   2.184 -0.1724 -0.0253  0.1131
  615MOL0    Cl82934   1.469   2.498   2.319 -0.5239  0.2713  0.2535
  615MOL0     C82935   1.710   2.989   1.259  0.0772 -0.4558 -0.9065
  615MOL0     C82936   1.777   3.092   1.200  0.3466  0.7739 -0.1628
  615MOL0     O82937   2.148   3.299   1.263 -0.1254 -0.2986  0.1633
  615MOL0     C82938   2.156   3.536   1.119 -0.2700  0.2640  0.1174
  615MOL0     C82939   2.181   3.632   1.017  0.2727 -0.6202 -0.1419
  615MOL0     N82940   2.790   3.462   0.538  0.1913  0.0790  0.0499
  615MOL0     N82941   2.880   3.513   0.466  0.3542 -0.7261  0.0624
  615MOL0     C82942   2.234   4.330   0.343 -0.0584 -0.2231 -0.2491
  615MOL0     C82943   2.117   4.358   0.413 -0.6068  0.7917 -0.4011
  615MOL0     C82944   1.776   4.332   0.699 -0.2256 -0.8913  0.1402
  615MOL0     C82945   1.705   4.217   0.692 -1.1888 -1.0261  0.5794
  615MOL0     C82946   1.576   4.212   0.760  0.0584 -0.1792  0.5157
  615MOL0     C82947   1.528   4.307   0.857  0.1812 -0.1489  0.0328
  615MOL0     O82948   1.405   4.320   0.928 -0.7316  0.0230 -0.3788
  615MOL0     C82949   1.309   4.225   0.871 -0.4004 -1.4317 -0.5173
  615MOL0     C82950   1.331   4.079   0.901  0.1062  1.2783 -0.6633
  615MOL0     C82951   1.262   4.042   1.029 -0.8305  0.1664 -0.8541
  615MOL0     C82952   1.288   4.128   1.148 -0.1996  1.1002 -0.4501
  615MOL0     C82953   1.206   4.107   1.265  0.4161  0.2522  0.3497
  615MOL0     C82954   1.121   4.074   1.352 -0.6630 -0.6415  0.3446
  615MOL0     C82955   1.623   4.418   0.872 -0.4300  0.5524  0.1874
  615MOL0     C82956   1.741   4.427   0.802  0.2118  0.4628  0.8634
  615MOL0     C82957   1.819   4.550   0.826  0.0384  0.1178  0.5001
  615MOL0     H82958   1.953   4.067   0.390  2.6509 -1.4540  0.7496
  615MOL0     H82959   2.167   3.999   0.276 -1.8247  0.5301 -1.8702
  615MOL0     H82960   2.376   3.980   0.245  2.3059 -0.4181 -0.3253
  615MOL0     H82961   2.359   4.056   0.082 -3.9671 -4.5142  1.6814
  615MOL0     H82962   2.570   3.944   0.101  2.7547  2.2506 -1.5544
  615MOL0     H82963   2.584   3.998   0.275 -0.4211  0.8252  0.7246
  615MOL0     H82964   2.634   4.232   0.177  3.3536  0.7972  0.8505
  615MOL0     H82965   2.634   4.155   0.016 -2.3374 -2.3433 -0.6971
  615MOL0     H82966   2.854   4.190   0.123  2.5078 -0.7810  3.3927
  615MOL0     H82967   2.819   4.069   0.233  1.8782  0.8968 -0.5414
  615MOL0     H82968   2.753   3.947  -0.010  0.3087  1.8247 -1.4107
  615MOL0     H82969   2.904   4.026  -0.044  0.0182 -0.4781 -0.1893
  615MOL0     H82970   2.929   3.801   0.016  0.3520 -1.1230  0.6346
  615MOL0     H82971   3.014   3.897   0.141 -0.4972 -1.2955  0.7908
  615MOL0     H82972   2.747   3.736   0.149  1.3568 -2.3169  1.2903
  615MOL0     H82973   2.770   3.869   0.273  0.2462  0.0565  1.3431
  615MOL0     H82974   2.927   3.630   0.213 -0.8385  0.9881 -1.2711
  615MOL0     H82975   2.990   3.742   0.326  0.1561 -2.5472  1.9625
  615MOL0     H82976   2.654   3.751   0.446  0.8190  0.3829  1.4380
  615MOL0     H82977   2.493   3.479   0.494 -0.3391 -1.3585 -0.5300
  615MOL0     H82978   2.541   3.437   0.657  0.3689  1.1154  1.4684
  615MOL0     H82979   2.551   3.675   0.718  1.3505 -2.7594  0.2736
  615MOL0     H82980   2.468   3.718   0.571 -2.0459  0.9061  0.2787
  615MOL0     H82981   2.368   3.543   0.799  1.7170 -2.5378 -2.4915
  615MOL0     H82982   2.282   3.553   0.639  2.4156 -0.2616 -1.6857
  615MOL0     H82983   2.292   3.814   0.690  1.7233 -1.3186 -0.6490
  615MOL0     H82984   2.327   3.765   0.854 -0.2075  0.5898  1.0600
  615MOL0     H82985   2.013   3.496   0.761  1.1327 -0.6380 -0.6923
  615MOL0     H82986   1.993   3.309   0.924 -0.6985  0.5555 -1.6354
  615MOL0     H82987   2.077   3.065   1.350  0.3025 -3.6293  4.3516
  615MOL0     H82988   1.960   2.888   1.468  0.2009 -0.4295 -0.7012
  615MOL0     H82989   1.770   2.689   1.571  1.4406 -0.1100  1.2406
  615MOL0     H82990   1.800   2.856   1.611 -0.3254 -2.4200  3.0267
  615MOL0     H82991   1.574   2.900   1.658 -0.7230  0.2008  0.5191
  615MOL0     H82992   1.527   2.749   1.568 -0.8298  2.2705 -0.5215
  615MOL0     H82993   1.630   2.610   1.750  0.0231 -0.4031  0.5262
  615MOL0     H82994   1.688   2.746   1.837  0.1225 -0.6621 -0.2610
  615MOL0     H82995   1.469   2.639   1.907  2.7049 -0.1781 -0.5601
  615MOL0     H82996   1.387   2.747   1.800  0.1723  0.1634  0.0683
  615MOL0     H82997   1.475   2.932   1.884 -0.7400 -0.1146  0.1978
  615MOL0     H82998   1.597   2.868   1.980  0.4120  0.4696  0.4383
  615MOL0     H82999   1.393   2.938   2.114 -0.7581  0.5459  0.2055
  615MOL0     H83000   1.301   2.804   2.040  0.5413 -1.0943 -0.3616
  615MOL0     H83001   1.450   2.791   2.273 -1.3725 -1.7030  0.3857
  615MOL0     H83002   1.564   2.730   2.151 -0.0960  1.8712 -0.0509
  615MOL0     H83003   1.289   2.606   2.210 -0.4226  0.6851 -0.9097
  615MOL0     H83004   1.392   2.543   2.092 -0.3833  1.6130 -0.9797
  615MOL0     H83005   1.607   2.960   1.242  0.6344 -1.6167 -2.6645
  615MOL0     H83006   1.729   3.161   1.131  1.7247  0.6112 -1.3559
  615MOL0     H83007   2.210   3.539   1.213 -1.1830 -2.2656  0.8094
  615MOL0     H83008   2.247   3.716   1.035  0.4217 -0.3885 -1.6058
  615MOL0     H83009   2.314   4.404   0.340  2.1968 -2.5039  0.0023
  615MOL0     H83010   2.106   4.459   0.450  1.4781  0.4288  1.4217
  615MOL0     H83011   1.741   4.137   0.628 -0.3994  2.1070 -3.2754
  615MOL0     H83012   1.502   4.139   0.727 -0.4792  1.8848 -3.5119
  615MOL0     H83013   1.301   4.244   0.764 -1.2952  1.2174 -0.0369
  615MOL0     H83014   1.213   4.260   0.910  0.5989 -1.7017  2.4530
  615MOL0     H83015   1.438   4.053   0.901 -0.2175 -0.4930 -3.3242
  615MOL0     H83016   1.286   4.016   0.825 -2.2090 -0.7006  2.1574
  615MOL0     H83017   1.300   3.944   1.059  3.2899  1.9761  0.4936
  615MOL0     H83018   1.153   4.040   1.013 -0.6711  1.7164 -2.4354
  615MOL0     H83019   1.391   4.108   1.176 -1.2664 -0.4470  2.7452
  615MOL0     H83020   1.281   4.235   1.124 -0.1969  1.4139  0.8853
  615MOL0     H83021   1.041   4.056   1.422 -1.6519  2.9048  0.2877
  615MOL0     H83022   1.590   4.487   0.949  0.1269 -0.1725  1.0950
  615MOL0     H83023   1.898   4.536   0.901 -0.0610  0.2260  0.6259
  615MOL0     H83024   1.857   4.575   0.726  3.0634  0.3707  1.6041
  615MOL0     H83025   1.742   4.617   0.865 -2.9538 -2.3808 -0.6561
  616MOL0     O83026   4.919   0.137   1.844 -0.3158  0.1134 -0.5304
  616MOL0     C83027   5.024   0.118   1.911  0.3995  0.6501 -0.1584
  616MOL0     O83028   5.111   0.209   1.968  0.0999 -0.2406  0.2571
  616MOL0     C83029   5.084   0.343   1.956 -0.1098 -0.1710  0.4087
  616MOL0     C83030   5.101   0.404   2.081  0.0714  0.6523  0.2359
  616MOL0     C83031   5.068   0.539   2.089  0.6022  0.2007 -0.9935
  616MOL0     C83032   4.996   0.609   1.996 -0.1852  1.1427  0.3454
  616MOL0     O83033   4.951   0.741   2.005  0.0467 -0.4858 -0.0745
  616MOL0     C83034   5.002   0.817   2.115  0.4515 -0.3202 -0.5884
  616MOL0     C83035   4.971   0.952   2.053  0.6187 -0.2752  0.8580
  616MOL0     C83036   5.017   1.061   2.160 -0.0618 -0.2672  0.7519
  616MOL0     C83037   4.967   1.203   2.120  0.2205 -0.9876  0.3120
  616MOL0     C83038   5.046   1.245   1.990 -0.9523 -0.9739  1.3405
  616MOL0     C83039   5.181   1.284   2.017 -0.3665  0.5496 -0.2147
  616MOL0     C83040   5.265   1.291   1.885  0.1331 -1.0289 -0.1857
  616MOL0     C83041   5.219   1.398   1.785  1.2404  0.4502 -0.5744
  616MOL0     N83042   5.315   1.407   1.674  0.8654  0.3356  0.0975
  616MOL0     C83043   5.346   1.302   1.593 -0.4326  0.2660 -0.5766
  616MOL0     C83044   5.434   1.348   1.498  0.0858  0.2977  0.4590
  616MOL0     C83045   5.482   1.254   1.390  0.0280  0.2061  0.2098
  616MOL0     C83046   5.600   1.165   1.438  0.1517 -0.8321 -0.3696
  616MOL0     C83047   5.635   1.067   1.328  0.2092  0.2325 -0.2863
  616MOL0     C83048   5.770   0.991   1.356 -0.1230  0.3342 -0.0684
  616MOL0     O83049   5.880   1.089   1.361  1.0460  0.2233  0.5377
  616MOL0     C83050   6.010   1.046   1.349  0.0941  0.5267 -0.7087
  616MOL0     C83051   6.105   1.139   1.326  0.2008  0.2697 -0.8174
  616MOL0     C83052   6.241   1.100   1.322  0.9721 -0.4971 -0.6604
  616MOL0     C83053   6.287   0.970   1.337 -0.7470 -0.2937  0.2874
  616MOL0     C83054   6.427   0.933   1.333  0.2542  0.5117 -0.1325
  616MOL0     O83055   6.460   0.802   1.335 -0.5601 -0.3175 -0.5984
  616MOL0     C83056   6.591   0.752   1.318  1.2330  0.6365 -0.1920
  616MOL0     C83057   6.714   0.813   1.337 -0.4982  0.5465  0.1063
  616MOL0     C83058   6.833   0.736   1.330  0.0993  0.4245  0.8571
  616MOL0     C83059   6.832   0.591   1.303  0.2323 -0.7686  1.0336
  616MOL0     O83060   6.941   0.508   1.297  0.3670  0.3737 -0.0011
  616MOL0     C83061   7.074   0.558   1.279 -0.4125 -0.3069 -0.3046
  616MOL0     C83062   7.142   0.441   1.194  0.4893 -0.9349  0.0551
  616MOL0     C83063   7.248   0.481   1.092 -0.1202 -0.2366  0.3411
  616MOL0     C83064   7.377   0.498   1.171 -0.1848 -0.6916 -0.3071
  616MOL0     C83065   7.490   0.512   1.068 -0.6987  0.2677 -0.1765
  616MOL0     C83066   7.532   0.372   1.006 -0.5673 -0.3847 -0.8076
  616MOL0     C83067   7.636   0.392   0.896 -0.6312  0.7530  0.3596
  616MOL0     C83068   7.786   0.374   0.941  1.0540  0.4279  0.4705
  616MOL0    Cl83069   7.842   0.207   0.934  0.4094  0.1501  0.2820
  616MOL0     C83070   6.701   0.538   1.283 -0.3685  0.2903 -0.0844
  616MOL0     C83071   6.586   0.614   1.282 -0.1371  0.3586  0.4883
  616MOL0     O83072   6.514   1.022   1.324  0.2976 -0.2104  0.0627
  616MOL0     C83073   6.185   0.874   1.366 -0.0099  0.0905  0.5067
  616MOL0     C83074   6.051   0.914   1.375  0.7294 -0.9671  0.6143
  616MOL0     N83075   5.450   1.481   1.525  0.0373  0.0536  1.3061
  616MOL0     N83076   5.388   1.518   1.635 -0.2227  0.4794 -0.2151
  616MOL0     C83077   4.972   0.539   1.882 -0.6651 -0.1479  1.7375
  616MOL0     C83078   5.021   0.412   1.852 -0.5938  0.3024 -1.1949
  616MOL0     C83079   5.068  -0.026   1.922 -0.4357 -1.1661 -0.0413
  616MOL0     C83080   5.133  -0.063   2.039  0.1654 -0.8660  0.2105
  616MOL0     C83081   5.177  -0.191   2.059 -0.3158 -0.1184  0.2695
  616MOL0     C83082   5.175  -0.284   1.954  0.5493  0.1916 -0.7130
  616MOL0     O83083   5.225  -0.409   1.971 -0.7564 -0.2001  0.1002
  616MOL0     C83084   5.309  -0.448   2.079  0.0639  0.6612  0.1745
  616MOL0     C83085   5.448  -0.398   2.071 -0.1229  0.0308  0.1349
  616MOL0     C83086   5.542  -0.515   2.117 -0.8212  0.4181 -0.7078
  616MOL0     C83087   5.537  -0.524   2.275 -0.7058 -0.5105 -0.5137
  616MOL0     C83088   5.604  -0.648   2.330 -0.5033 -0.2143  0.3104
  616MOL0     C83089   5.644  -0.757   2.357 -0.2677 -0.5203 -0.6992
  616MOL0     C83090   5.115  -0.254   1.838 -0.1882  0.4459 -0.6658
  616MOL0     C83091   5.046  -0.129   1.826 -0.9530 -0.0353  0.2582
  616MOL0     C83092   4.979  -0.103   1.698  0.0797 -0.0302 -0.4208
  616MOL0     H83093   5.151   0.352   2.162  0.1290  0.0455 -0.1805
  616MOL0     H83094   5.090   0.586   2.184 -1.0728  0.5350 -0.7434
  616MOL0     H83095   4.960   0.807   2.215  0.6230 -0.8713 -0.5682
  616MOL0     H83096   5.109   0.796   2.117  0.7938  1.1489 -1.5254
  616MOL0     H83097   4.868   0.965   2.019  1.5569 -1.7136 -3.0654
  616MOL0     H83098   5.035   0.946   1.964 -1.8562  1.7100 -1.2332
  616MOL0     H83099   5.124   1.044   2.170 -0.2392 -0.5297  2.5313
  616MOL0     H83100   4.985   1.039   2.263 -0.1967 -0.9557  0.5682
  616MOL0     H83101   4.859   1.203   2.100  0.0052  0.4942  1.3512
  616MOL0     H83102   4.972   1.290   2.185  1.6736  0.4295 -1.5750
  616MOL0     H83103   5.060   1.169   1.913  5.1953 -1.1765  2.1278
  616MOL0     H83104   4.999   1.338   1.958 -1.8027 -0.9863  2.4903
  616MOL0     H83105   5.185   1.370   2.084  1.7474 -0.9139  1.6976
  616MOL0     H83106   5.236   1.210   2.077 -0.3480  0.7410  0.0021
  616MOL0     H83107   5.259   1.196   1.832  2.2796 -0.2039 -2.0950
  616MOL0     H83108   5.371   1.307   1.905 -0.7365  0.6501  4.1442
  616MOL0     H83109   5.119   1.384   1.745  0.4635 -0.5621  1.5608
  616MOL0     H83110   5.225   1.500   1.825 -0.0772  0.8859 -1.4144
  616MOL0     H83111   5.307   1.201   1.592  0.5521 -0.2115  1.8487
  616MOL0     H83112   5.394   1.196   1.361 -0.6925  1.8716 -1.0910
  616MOL0     H83113   5.520   1.315   1.307  1.8872 -1.3992 -0.1955
  616MOL0     H83114   5.691   1.222   1.460 -0.6032  0.9141 -1.5572
  616MOL0     H83115   5.564   1.114   1.528 -0.4501 -3.3025 -1.9382
  616MOL0     H83116   5.649   1.125   1.236 -2.5527  2.1237  0.3581
  616MOL0     H83117   5.556   0.994   1.309 -2.0299  2.3665  0.2585
  616MOL0     H83118   5.784   0.920   1.274  1.0429  1.0884 -0.5440
  616MOL0     H83119   5.763   0.935   1.449 -1.4530  1.1982  0.3842
  616MOL0     H83120   6.068   1.240   1.307  3.3405  2.1487  1.9892
  616MOL0     H83121   6.302   1.189   1.306  1.6270 -0.8728 -0.2559
  616MOL0     H83122   6.728   0.919   1.355 -1.5191  0.6240  0.4814
  616MOL0     H83123   6.935   0.772   1.337  1.2308 -2.3530  0.0516
  616MOL0     H83124   7.074   0.653   1.226 -0.3592 -0.0377  0.1716
  616MOL0     H83125   7.134   0.558   1.370 -2.5334 -1.1162  1.1775
  616MOL0     H83126   7.196   0.377   1.264  4.0934  2.9557  1.2307
  616MOL0     H83127   7.065   0.388   1.137 -0.7039  1.5974 -0.8447
  616MOL0     H83128   7.247   0.415   1.004 -2.3953 -0.1067  0.2219
  616MOL0     H83129   7.221   0.578   1.049  0.6335 -0.3764 -0.4976
  616MOL0     H83130   7.397   0.406   1.228  0.2134 -0.8260 -0.6587
  616MOL0     H83131   7.374   0.577   1.246 -2.2353  0.0846 -1.1424
  616MOL0     H83132   7.584   0.531   1.121 -0.8543 -2.5358  1.3069
  616MOL0     H83133   7.472   0.592   0.995 -0.3679 -0.0858 -0.6558
  616MOL0     H83134   7.573   0.306   1.083  0.2461 -0.9228 -1.6797
  616MOL0     H83135   7.440   0.339   0.959 -2.5223  2.3596  0.8057
  616MOL0     H83136   7.630   0.486   0.839 -3.1708  1.0381  0.9835
  616MOL0     H83137   7.616   0.308   0.829  1.3309 -0.6083  1.3633
  616MOL0     H83138   7.845   0.422   0.862  0.7052 -0.6028 -0.4531
  616MOL0     H83139   7.809   0.424   1.035 -0.4603 -0.1913  1.2041
  616MOL0     H83140   6.682   0.431   1.286 -1.5859  0.5075  1.6218
  616MOL0     H83141   6.500   0.558   1.245  0.6803  0.0178 -0.9656
  616MOL0     H83142   6.204   0.768   1.354 -2.1373 -0.1317 -1.5683
  616MOL0     H83143   5.983   0.834   1.399 -1.3270  1.0846  2.1232
  616MOL0     H83144   4.914   0.587   1.804  0.2651 -1.3319  0.2763
  616MOL0     H83145   5.011   0.378   1.749 -0.2709  2.1672 -1.8838
  616MOL0     H83146   5.143   0.014   2.115  0.2339 -0.7708  0.1064
  616MOL0     H83147   5.220  -0.224   2.153 -1.3692 -1.4789  0.3105
  616MOL0     H83148   5.300  -0.555   2.058  1.2315  0.5171  0.3330
  616MOL0     H83149   5.259  -0.447   2.177  0.5867 -0.2437  0.4638
  616MOL0     H83150   5.453  -0.317   2.145 -4.8058  1.1529 -0.4536
  616MOL0     H83151   5.456  -0.356   1.971  0.1690  1.0863  0.5841
  616MOL0     H83152   5.648  -0.497   2.094 -0.5252 -0.2587  0.0784
  616MOL0     H83153   5.512  -0.613   2.079  0.4263 -0.4886  0.5271
  616MOL0     H83154   5.591  -0.435   2.309  0.5591 -0.7362 -1.8872
  616MOL0     H83155   5.434  -0.518   2.313 -1.2698  0.1417 -2.0634
  616MOL0     H83156   5.670  -0.857   2.383  0.5502 -1.0100 -3.1749
  616MOL0     H83157   5.113  -0.322   1.754 -2.0320  1.1301 -1.2193
  616MOL0     H83158   4.882  -0.054   1.708  1.5354  2.9886  0.1192
  616MOL0     H83159   5.035  -0.034   1.634  0.8562 -1.6592 -1.5828
  616MOL0     H83160   4.969  -0.192   1.635 -0.9977  0.6996 -1.3272
  617MOL0     O83161   2.518   7.904   1.272  0.5967  0.1145 -0.3614
  617MOL0     C83162   2.603   7.976   1.218 -0.7605 -0.3200 -0.4501
  617MOL0     O83163   2.687   7.938   1.115  0.3363 -0.1311 -0.2223
  617MOL0     C83164   2.673   7.825   1.049 -0.3186  0.0663  0.7990
  617MOL0     C83165   2.768   7.816   0.945  1.4223 -1.2421 -0.0207
  617MOL0     C83166   2.762   7.719   0.844  0.3857  1.9707 -0.7633
  617MOL0     C83167   2.663   7.616   0.862 -0.0421 -0.8179 -0.1799
  617MOL0     O83168   2.670   7.519   0.772 -0.4353 -0.7048 -0.5088
  617MOL0     C83169   2.553   7.439   0.731  0.6265 -0.0523 -0.3156
  617MOL0     C83170   2.598   7.322   0.638  0.6956 -0.4823 -0.2514
  617MOL0     C83171   2.570   7.355   0.484  0.2431 -0.4090  0.1564
  617MOL0     C83172   2.669   7.458   0.437  0.0542  0.3371  0.2555
  617MOL0     C83173   2.626   7.607   0.451 -0.1061 -0.1582 -0.8547
  617MOL0     C83174   2.699   7.694   0.348 -0.2388 -0.1808  0.1087
  617MOL0     C83175   2.643   7.847   0.348 -0.4878  0.0801  0.0888
  617MOL0     C83176   2.670   7.930   0.225  0.6218  0.9415 -0.6648
  617MOL0     N83177   2.607   8.064   0.236  0.4756  0.8469  0.2639
  617MOL0     C83178   2.484   8.097   0.191 -0.0642 -1.0023 -0.5203
  617MOL0     C83179   2.476   8.231   0.213 -0.5073 -0.6564 -0.2401
  617MOL0     C83180   2.366   8.315   0.152 -0.2787  0.4031  1.0747
  617MOL0     C83181   2.314   8.412   0.252 -0.0686  0.6127  0.9742
  617MOL0     C83182   2.187   8.489   0.225  0.1658  0.1378 -0.3812
  617MOL0     C83183   2.199   8.569   0.097 -0.0718 -0.0868 -0.9446
  617MOL0     O83184   2.317   8.659   0.110 -0.0237 -0.6837  0.0054
  617MOL0     C83185   2.284   8.789   0.144 -0.4563 -0.0663 -0.0081
  617MOL0     C83186   2.327   8.849   0.263 -1.3719  0.7377  0.2992
  617MOL0     C83187   2.290   8.978   0.283  0.1929 -0.8160 -0.7521
  617MOL0     C83188   2.216   9.047   0.185 -0.9156  0.0430  0.0429
  617MOL0     C83189   2.198   9.189   0.211  1.0452 -0.3160  0.1101
  617MOL0     O83190   2.192   9.231   0.338  0.1263  0.6834 -0.0097
  617MOL0     C83191   2.214   9.360   0.372  0.5300 -0.3069 -0.0985
  617MOL0     C83192   2.293   9.448   0.304 -0.0354 -0.0593 -0.3603
  617MOL0     C83193   2.342   9.552   0.386  0.2290 -0.8717  0.6378
  617MOL0     C83194   2.290   9.592   0.506  0.3366  0.2277  0.3510
  617MOL0     O83195   2.338   9.702   0.571 -0.1646 -0.1247  0.8225
  617MOL0     C83196   2.482   9.726   0.561  0.3900 -0.1464 -0.3456
  617MOL0     C83197   2.546   9.813   0.665  0.1717 -0.1233  0.9629
  617MOL0     C83198   2.468   9.941   0.707 -0.3394  0.3695 -0.2585
  617MOL0     C83199   2.528  10.022   0.822 -0.2036 -0.0315  0.5050
  617MOL0     C83200   2.608  10.134   0.763 -0.5804 -0.6022 -0.4035
  617MOL0     C83201   2.667  10.242   0.858 -0.0152  0.0324  0.1231
  617MOL0     C83202   2.811  10.225   0.898 -0.1005  0.2172 -0.3981
  617MOL0     C83203   2.838  10.096   0.977 -0.8734  0.3517  0.3772
  617MOL0    Cl83204   2.967  10.129   1.098 -0.1350 -0.3883 -0.0366
  617MOL0     C83205   2.204   9.508   0.571 -0.5108 -0.0643 -0.7961
  617MOL0     C83206   2.169   9.392   0.507  1.0057  0.4793 -0.2386
  617MOL0     O83207   2.190   9.261   0.117  0.0344 -0.6005 -0.3013
  617MOL0     C83208   2.163   8.985   0.072 -0.1033  0.3014  0.9082
  617MOL0     C83209   2.201   8.852   0.049 -0.6846 -0.4782  0.9899
  617MOL0     N83210   2.591   8.271   0.278 -0.0268 -0.6929  0.0310
  617MOL0     N83211   2.667   8.172   0.299  0.3879  0.1879  0.1623
  617MOL0     C83212   2.564   7.625   0.966  0.7483  0.3240 -0.3542
  617MOL0     C83213   2.567   7.721   1.063  0.2943  0.2729 -0.8774
  617MOL0     C83214   2.613   8.117   1.278 -0.6156 -0.6535  0.4889
  617MOL0     C83215   2.631   8.123   1.418 -0.3162 -0.5285  1.0808
  617MOL0     C83216   2.651   8.244   1.478 -0.2046 -0.1655 -0.3155
  617MOL0     C83217   2.663   8.366   1.401 -0.5583 -1.3375 -1.0002
  617MOL0     O83218   2.684   8.495   1.468  0.5931  0.0937  0.4379
  617MOL0     C83219   2.650   8.619   1.406  0.5013  0.1171 -0.7280
  617MOL0     C83220   2.496   8.637   1.401 -0.5191  0.2236  0.9215
  617MOL0     C83221   2.448   8.751   1.312  0.4803 -0.1284  0.5860
  617MOL0     C83222   2.298   8.740   1.277  0.0660 -0.0613 -0.0179
  617MOL0     C83223   2.261   8.638   1.173  0.4671 -0.9395 -0.1124
  617MOL0     C83224   2.238   8.539   1.110  0.8018 -0.3870  0.7042
  617MOL0     C83225   2.653   8.356   1.260 -0.1074 -1.3536 -0.3351
  617MOL0     C83226   2.632   8.233   1.200 -0.7196 -0.3520 -0.4375
  617MOL0     C83227   2.607   8.225   1.052 -0.0511  0.3770  0.0699
  617MOL0     H83228   2.855   7.881   0.954  2.1851 -2.5150  3.6544
  617MOL0     H83229   2.826   7.735   0.758  2.3005 -1.3868 -0.1338
  617MOL0     H83230   2.510   7.394   0.821  0.2779  0.5220 -0.1925
  617MOL0     H83231   2.471   7.498   0.690 -1.5261  0.3306  3.9414
  617MOL0     H83232   2.539   7.235   0.666  1.4124 -1.3847 -1.4456
  617MOL0     H83233   2.702   7.299   0.661  1.5119  4.6328  2.7963
  617MOL0     H83234   2.470   7.398   0.473  0.2877  0.2850  2.0414
  617MOL0     H83235   2.572   7.265   0.422  1.0209  1.5329 -2.8378
  617MOL0     H83236   2.766   7.443   0.487  1.1719  1.0575 -1.5756
  617MOL0     H83237   2.690   7.431   0.333 -2.1147  2.8560 -0.9475
  617MOL0     H83238   2.517   7.607   0.438 -0.2530 -2.0408  0.0167
  617MOL0     H83239   2.649   7.640   0.553 -2.2137  1.8201 -0.9363
  617MOL0     H83240   2.803   7.697   0.382  0.5839  1.4588 -2.2959
  617MOL0     H83241   2.704   7.654   0.246  1.9243  1.2434 -0.4180
  617MOL0     H83242   2.690   7.905   0.428 -3.2112 -0.0192  1.9397
  617MOL0     H83243   2.535   7.840   0.364 -1.1129 -4.0283 -4.0157
  617MOL0     H83244   2.777   7.949   0.212  1.9120 -1.0253  4.3711
  617MOL0     H83245   2.625   7.875   0.142 -0.4467  1.0057 -0.1572
  617MOL0     H83246   2.404   8.042   0.142 -0.2059 -0.2358 -1.1684
  617MOL0     H83247   2.410   8.365   0.066  1.0210 -2.9819 -0.4219
  617MOL0     H83248   2.284   8.253   0.114 -1.8923  3.4214 -0.7473
  617MOL0     H83249   2.303   8.346   0.339  1.3989 -0.1519  0.6196
  617MOL0     H83250   2.394   8.483   0.274  0.9652  0.3195 -1.5447
  617MOL0     H83251   2.172   8.559   0.308 -2.3620  0.0921 -0.7156
  617MOL0     H83252   2.095   8.431   0.231  0.8571 -0.8593  2.8220
  617MOL0     H83253   2.101   8.617   0.084 -0.7329 -0.8366  0.8308
  617MOL0     H83254   2.210   8.500   0.014 -0.0607  0.1011 -1.0994
  617MOL0     H83255   2.393   8.801   0.335  0.0387  1.3893 -0.5171
  617MOL0     H83256   2.338   9.032   0.364  1.3209 -0.7427 -1.4521
  617MOL0     H83257   2.341   9.426   0.209  2.8685  5.9051 -0.7635
  617MOL0     H83258   2.416   9.612   0.335 -1.7860 -0.5225 -2.1276
  617MOL0     H83259   2.525   9.627   0.577 -2.5136 -1.4079  0.3113
  617MOL0     H83260   2.499   9.779   0.466  0.4659  0.3960 -0.0338
  617MOL0     H83261   2.555   9.750   0.754  1.4408 -1.5721 -0.1464
  617MOL0     H83262   2.650   9.821   0.633  0.0253 -1.3809  0.0796
  617MOL0     H83263   2.464   9.990   0.609  1.2455 -1.2180 -1.1614
  617MOL0     H83264   2.369   9.906   0.739  0.8121 -2.6121  0.3613
  617MOL0     H83265   2.606   9.952   0.852  1.9487  1.9613 -0.1199
  617MOL0     H83266   2.453  10.057   0.894  0.3998  3.0153 -0.1973
  617MOL0     H83267   2.538  10.183   0.695 -0.3521  0.7448  0.3092
  617MOL0     H83268   2.694  10.095   0.707  1.6347 -0.1337  2.4685
  617MOL0     H83269   2.656  10.345   0.822  2.0601  0.2840  0.0641
  617MOL0     H83270   2.616  10.234   0.954 -0.8281  0.2436 -0.2831
  617MOL0     H83271   2.836  10.315   0.956 -0.6027 -0.9852  1.8025
  617MOL0     H83272   2.886  10.226   0.819  1.3877  2.3546  0.9416
  617MOL0     H83273   2.743  10.069   1.024 -1.8346 -0.8433 -2.0703
  617MOL0     H83274   2.860  10.020   0.901  1.0045  0.5349  0.6839
  617MOL0     H83275   2.173   9.533   0.672  2.7182  0.8150  0.0976
  617MOL0     H83276   2.126   9.317   0.571  1.5135  0.6925  0.3636
  617MOL0     H83277   2.114   9.045  -0.004  3.1418  1.2839 -0.5547
  617MOL0     H83278   2.183   8.803  -0.046  0.4440  2.3715 -0.8406
  617MOL0     H83279   2.498   7.542   0.988  2.2985 -0.4127  1.8496
  617MOL0     H83280   2.486   7.714   1.135  3.1235 -1.9200  2.4301
  617MOL0     H83281   2.624   8.026   1.467 -2.8790 -2.6734 -3.0610
  617MOL0     H83282   2.660   8.242   1.586  2.2310 -0.4860 -0.4563
  617MOL0     H83283   2.681   8.631   1.302 -0.0506 -2.2500 -1.2200
  617MOL0     H83284   2.700   8.708   1.445  0.1596  0.5157 -1.1890
  617MOL0     H83285   2.461   8.647   1.504 -1.1937  2.2253  0.5486
  617MOL0     H83286   2.446   8.554   1.351 -3.3373  1.9057  0.7686
  617MOL0     H83287   2.512   8.759   1.223  0.0239  1.4355  0.3606
  617MOL0     H83288   2.460   8.849   1.359  1.0560  0.6140 -1.0264
  617MOL0     H83289   2.234   8.721   1.363 -0.1485 -1.9059 -0.5367
  617MOL0     H83290   2.258   8.837   1.245 -1.3997 -1.0890 -1.5042
  617MOL0     H83291   2.208   8.453   1.053  0.0560 -0.6059  1.4108
  617MOL0     H83292   2.678   8.448   1.209 -0.9481 -0.0789  1.4678
  617MOL0     H83293   2.498   8.213   1.048 -0.1046  0.2320  1.4188
  617MOL0     H83294   2.635   8.320   1.006  0.1509  0.6579  0.7671
  617MOL0     H83295   2.661   8.143   1.004 -0.5736 -0.4122  0.8055
  618MOL0     O83296   7.138   1.607   1.427 -0.2210  0.2915  0.0396
  618MOL0     C83297   7.096   1.517   1.498 -0.4567 -0.5320  0.5507
  618MOL0     O83298   6.999   1.424   1.458  0.4408  0.7711  0.6813
  618MOL0     C83299   6.948   1.411   1.329 -0.2003  0.0524  0.5850
  618MOL0     C83300   6.913   1.288   1.292  0.0741  0.5524  0.2419
  618MOL0     C83301   6.830   1.266   1.182  0.9207  0.3871  0.2245
  618MOL0     C83302   6.785   1.375   1.104  0.1220 -0.8299  0.0818
  618MOL0     O83303   6.690   1.359   1.010  0.2779 -0.1970  0.3336
  618MOL0     C83304   6.573   1.284   1.039 -0.0436  0.3235 -1.3194
  618MOL0     C83305   6.499   1.271   0.910 -0.5065  0.2390 -0.6154
  618MOL0     C83306   6.388   1.163   0.913  0.5544 -0.1656  0.5261
  618MOL0     C83307   6.240   1.219   0.923 -0.5031  0.4210 -0.5438
  618MOL0     C83308   6.129   1.127   0.949  0.6710 -1.0983  0.5425
  618MOL0     C83309   6.137   0.988   0.890  0.1048  0.1544 -1.2990
  618MOL0     C83310   6.017   0.910   0.942  0.0478  0.0715  0.2942
  618MOL0     C83311   6.027   0.761   0.920 -0.5872 -0.1346 -1.1200
  618MOL0     N83312   5.912   0.695   0.979 -0.5092 -0.5588  0.0177
  618MOL0     C83313   5.817   0.612   0.925 -0.5406  0.2446 -0.4385
  618MOL0     C83314   5.766   0.547   1.038 -1.0001 -0.4765 -0.1300
  618MOL0     C83315   5.659   0.445   1.025 -0.7690 -0.3073 -0.7120
  618MOL0     C83316   5.713   0.303   1.032 -0.1559  0.1437 -0.0883
  618MOL0     C83317   5.611   0.204   0.984 -0.0263 -0.8044 -0.3610
  618MOL0     C83318   5.661   0.069   1.030  0.1288  0.7091  0.1189
  618MOL0     O83319   5.781   0.055   0.964 -0.5361  0.9462 -0.4233
  618MOL0     C83320   5.871  -0.028   1.026  0.2655  0.4289 -0.5145
  618MOL0     C83321   6.005   0.000   1.023 -0.9932 -0.3428 -0.2704
  618MOL0     C83322   6.089  -0.083   1.089  0.2543 -0.1824  1.3031
  618MOL0     C83323   6.045  -0.201   1.154 -0.2318  0.3225  0.3705
  618MOL0     C83324   6.133  -0.289   1.237 -0.1811 -0.2335  0.1536
  618MOL0     O83325   6.091  -0.415   1.259 -0.7568  0.3508  0.2855
  618MOL0     C83326   6.179  -0.503   1.328  0.4750 -0.0316  0.2999
  618MOL0     C83327   6.197  -0.502   1.464  0.1740 -0.9939 -0.4700
  618MOL0     C83328   6.292  -0.590   1.528  0.7255  0.5099  0.4561
  618MOL0     C83329   6.355  -0.694   1.450 -0.6861 -0.2904 -0.7936
  618MOL0     O83330   6.424  -0.793   1.505 -0.4170  0.7965 -1.1417
  618MOL0     C83331   6.446  -0.924   1.450 -0.1741 -0.1219  0.5967
  618MOL0     C83332   6.578  -0.919   1.367 -0.1609  0.5634  0.7019
  618MOL0     C83333   6.600  -1.050   1.293 -0.0685  0.4267  0.6286
  618MOL0     C83334   6.539  -1.064   1.149 -0.8148  0.8658 -0.4921
  618MOL0     C83335   6.441  -1.178   1.140  0.0252  0.7144 -0.4264
  618MOL0     C83336   6.493  -1.319   1.134  0.2532  0.3792 -0.4512
  618MOL0     C83337   6.387  -1.421   1.100  0.7954 -0.1035  0.4976
  618MOL0     C83338   6.437  -1.569   1.141  1.0131 -0.2002 -0.3449
  618MOL0    Cl83339   6.610  -1.608   1.095 -0.0771 -0.1592  0.3644
  618MOL0     C83340   6.318  -0.703   1.314 -0.3039 -0.8054  0.1830
  618MOL0     C83341   6.243  -0.601   1.252  0.4708  0.2370 -0.4080
  618MOL0     O83342   6.239  -0.235   1.272  0.5560 -0.0402  0.5632
  618MOL0     C83343   5.905  -0.234   1.147 -0.5122  0.2464  0.5018
  618MOL0     C83344   5.819  -0.142   1.089 -0.7990  0.1462 -0.0837
  618MOL0     N83345   5.813   0.608   1.158  0.0560 -0.1809  0.6161
  618MOL0     N83346   5.896   0.693   1.120  0.0842  0.1127  0.4972
  618MOL0     C83347   6.834   1.500   1.132 -0.1580 -0.8957 -0.9173
  618MOL0     C83348   6.905   1.519   1.248 -0.5159 -0.0830  0.2734
  618MOL0     C83349   7.135   1.499   1.627 -0.6467 -0.3011 -0.5378
  618MOL0     C83350   7.039   1.466   1.726  0.0668 -0.0369 -0.4065
  618MOL0     C83351   7.073   1.448   1.857  0.5669  0.1328  0.5569
  618MOL0     C83352   7.206   1.459   1.895  0.0670 -0.9114  0.6233
  618MOL0     O83353   7.249   1.457   2.028  0.3765  0.4821  0.0935
  618MOL0     C83354   7.192   1.365   2.128 -0.6398  0.2278  0.6065
  618MOL0     C83355   7.260   1.221   2.118  0.4745 -0.7465 -0.7282
  618MOL0     C83356   7.403   1.210   2.184 -0.4448 -0.8846 -0.3777
  618MOL0     C83357   7.503   1.314   2.139  0.4307  0.4541  0.3373
  618MOL0     C83358   7.624   1.307   2.219 -0.6103 -0.0975 -0.1673
  618MOL0     C83359   7.738   1.301   2.274 -0.3090 -0.3190 -0.2919
  618MOL0     C83360   7.314   1.495   1.805 -0.2805  0.3763 -1.0552
  618MOL0     C83361   7.274   1.506   1.666 -0.4436  0.0715 -0.0212
  618MOL0     C83362   7.386   1.536   1.570 -0.8462 -0.2693  0.1000
  618MOL0     H83363   6.946   1.203   1.351  1.0190  2.2904  2.3771
  618MOL0     H83364   6.790   1.165   1.175  0.5242  0.3965  1.9107
  618MOL0     H83365   6.594   1.187   1.085 -0.4326  0.5095 -0.7324
  618MOL0     H83366   6.510   1.334   1.113  2.7022 -0.2902  1.6261
  618MOL0     H83367   6.574   1.244   0.834 -1.2148 -0.8688 -0.9481
  618MOL0     H83368   6.456   1.370   0.889 -2.8972 -0.2932  1.2843
  618MOL0     H83369   6.401   1.092   0.996  1.1094  1.7157  2.1136
  618MOL0     H83370   6.391   1.102   0.822 -2.2946 -1.4875  1.1945
  618MOL0     H83371   6.240   1.295   1.001 -3.9491  1.2515 -1.1880
  618MOL0     H83372   6.236   1.270   0.826  0.9270  1.2078 -0.2263
  618MOL0     H83373   6.106   1.124   1.056  1.2197  0.1190  0.7107
  618MOL0     H83374   6.045   1.182   0.904  2.3217 -1.6880 -3.7688
  618MOL0     H83375   6.140   1.006   0.782 -2.8353  0.0797 -1.4725
  618MOL0     H83376   6.227   0.932   0.914 -1.1971 -1.4944 -0.0719
  618MOL0     H83377   5.930   0.944   0.887 -0.6130  1.8869  2.3253
  618MOL0     H83378   6.003   0.938   1.047  0.2577  1.0982  0.0611
  618MOL0     H83379   6.032   0.739   0.813 -1.6419  1.6270 -1.5711
  618MOL0     H83380   6.115   0.719   0.968 -1.4137  0.0073  0.5939
  618MOL0     H83381   5.787   0.599   0.821 -1.5432  1.8841 -0.3786
  618MOL0     H83382   5.577   0.457   1.097  2.2796  0.5317  2.9275
  618MOL0     H83383   5.617   0.469   0.927 -3.0134 -0.1639  0.2194
  618MOL0     H83384   5.782   0.298   0.947  0.4891  2.0789  0.2791
  618MOL0     H83385   5.747   0.287   1.134 -2.3692 -3.5787  0.2681
  618MOL0     H83386   5.597   0.218   0.877 -0.7005  1.9310 -0.0121
  618MOL0     H83387   5.516   0.215   1.037 -0.5578 -0.1633 -1.4152
  618MOL0     H83388   5.590  -0.010   1.007 -0.3024  0.5731  1.8071
  618MOL0     H83389   5.682   0.081   1.137  0.8854 -0.0071  0.0561
  618MOL0     H83390   6.043   0.081   0.961 -0.0345 -2.2742 -2.3232
  618MOL0     H83391   6.195  -0.061   1.082 -0.2467  1.8112 -1.4187
  618MOL0     H83392   6.148  -0.426   1.523  2.8331 -0.6118  1.4562
  618MOL0     H83393   6.325  -0.585   1.631  1.2857 -1.0619  0.3933
  618MOL0     H83394   6.467  -0.999   1.527 -0.8450 -0.9325  0.0262
  618MOL0     H83395   6.365  -0.960   1.386  0.3835  2.5043 -1.7892
  618MOL0     H83396   6.571  -0.838   1.293 -4.4705 -0.7568 -0.6246
  618MOL0     H83397   6.660  -0.890   1.434  2.2667 -0.6433 -1.5445
  618MOL0     H83398   6.707  -1.061   1.274 -0.0636 -0.4692  1.1413
  618MOL0     H83399   6.583  -1.134   1.360 -1.7159  1.7726  2.0021
  618MOL0     H83400   6.614  -1.081   1.071 -2.3472 -1.8589 -1.4866
  618MOL0     H83401   6.480  -0.975   1.125 -2.3195  0.3529  1.0945
  618MOL0     H83402   6.397  -1.160   1.042 -2.6099  1.7166  0.8635
  618MOL0     H83403   6.377  -1.157   1.225  1.3092  0.0588  0.7467
  618MOL0     H83404   6.579  -1.339   1.070  0.9871 -0.9517  0.8879
  618MOL0     H83405   6.532  -1.330   1.235  1.8898  0.4961 -1.0353
  618MOL0     H83406   6.377  -1.404   0.992 -0.7622  0.8947  0.7737
  618MOL0     H83407   6.293  -1.408   1.154  1.1749  3.2859  0.5430
  618MOL0     H83408   6.424  -1.557   1.249  0.2998  1.8252 -0.6062
  618MOL0     H83409   6.373  -1.651   1.109  0.7830 -0.6495  1.2133
  618MOL0     H83410   6.361  -0.783   1.255  0.8734  1.2334 -1.8595
  618MOL0     H83411   6.229  -0.610   1.145 -1.2673 -0.2062 -0.1694
  618MOL0     H83412   5.858  -0.330   1.166 -0.4661 -0.3948 -2.2212
  618MOL0     H83413   5.719  -0.184   1.090 -0.7724 -0.0415 -1.6067
  618MOL0     H83414   6.828   1.589   1.070  3.1570 -0.8636 -1.3613
  618MOL0     H83415   6.951   1.613   1.277  1.0722 -1.0983  1.2215
  618MOL0     H83416   6.941   1.449   1.682 -0.2419  1.2931 -0.2687
  618MOL0     H83417   6.989   1.425   1.923  1.3244  0.6574  1.7401
  618MOL0     H83418   7.083   1.362   2.123 -0.7632 -0.0317  2.6148
  618MOL0     H83419   7.220   1.407   2.225  1.5568  3.8272 -1.3422
  618MOL0     H83420   7.260   1.179   2.018  3.4229 -0.3874 -0.9632
  618MOL0     H83421   7.194   1.158   2.179 -0.0548 -0.8742 -1.4219
  618MOL0     H83422   7.438   1.110   2.156  1.0292 -0.7124  0.7495
  618MOL0     H83423   7.411   1.205   2.293 -1.2182 -1.7040 -0.3481
  618MOL0     H83424   7.517   1.309   2.031  1.9801 -0.2206  0.5379
  618MOL0     H83425   7.467   1.417   2.141  3.5426  1.7120 -0.9397
  618MOL0     H83426   7.826   1.290   2.334 -1.8184 -0.3228  2.0964
  618MOL0     H83427   7.417   1.506   1.835 -0.7536  0.0397  0.8534
  618MOL0     H83428   7.479   1.541   1.626 -2.4610  0.5732  2.9270
  618MOL0     H83429   7.382   1.460   1.491 -1.1822 -0.2527  0.0992
  618MOL0     H83430   7.376   1.634   1.524 -1.3827 -0.4912 -0.2759
  619MOL0     O83431   5.112   9.755   6.228 -0.0875  0.4851 -0.6882
  619MOL0     C83432   5.181   9.840   6.291 -0.7786 -0.3858  0.8240
  619MOL0     O83433   5.156   9.878   6.414 -0.4945 -0.7119 -0.7707
  619MOL0     C83434   5.105   9.788   6.504  0.0275 -0.4297  0.7162
  619MOL0     C83435   5.181   9.781   6.618  0.3488 -0.2581  0.6645
  619MOL0     C83436   5.139   9.700   6.727  0.7424 -0.5059  0.0984
  619MOL0     C83437   5.013   9.634   6.723  0.1223 -0.6340  0.1307
  619MOL0     O83438   4.964   9.557   6.826 -0.3026 -0.3835  0.2366
  619MOL0     C83439   5.026   9.536   6.953  0.2511  0.1342 -0.3272
  619MOL0     C83440   5.005   9.651   7.048 -0.3212 -0.8235  1.0738
  619MOL0     C83441   4.866   9.671   7.098 -0.1331 -0.8008 -1.0279
  619MOL0     C83442   4.850   9.808   7.161 -0.1590 -0.2618  0.6671
  619MOL0     C83443   4.696   9.819   7.181 -0.6163 -0.2146  1.0913
  619MOL0     C83444   4.646   9.954   7.205 -1.1711 -0.3647 -0.0263
  619MOL0     C83445   4.499   9.984   7.245  0.4304  0.2115 -0.5590
  619MOL0     C83446   4.398   9.997   7.125 -0.3575  0.3541 -0.2215
  619MOL0     N83447   4.266  10.003   7.165 -0.0085  0.3326 -0.0289
  619MOL0     C83448   4.203  10.124   7.190 -0.4529  1.1239  0.1323
  619MOL0     C83449   4.093  10.090   7.254  0.7001  0.8708 -0.0143
  619MOL0     C83450   3.991  10.200   7.294 -0.6286 -0.7824 -0.1274
  619MOL0     C83451   3.886  10.154   7.399  0.1210 -0.3532 -0.5027
  619MOL0     C83452   3.787  10.269   7.435 -0.3790  0.4100  0.0544
  619MOL0     C83453   3.648  10.250   7.413  1.2745 -0.1796 -0.3994
  619MOL0     O83454   3.573  10.219   7.536 -0.3907  0.1631  0.8332
  619MOL0     C83455   3.520  10.318   7.611  0.5730 -0.1043 -0.2042
  619MOL0     C83456   3.581  10.433   7.652 -0.3692  0.4334 -0.4462
  619MOL0     C83457   3.531  10.531   7.740 -0.5424  0.2247 -0.2582
  619MOL0     C83458   3.401  10.499   7.794 -0.5268  0.3285  0.1317
  619MOL0     C83459   3.357  10.578   7.912 -0.9504 -0.0057  0.5591
  619MOL0     O83460   3.458  10.651   7.973  0.1763  0.4464  0.4365
  619MOL0     C83461   3.415  10.746   8.071 -0.8011  0.8520 -0.2020
  619MOL0     C83462   3.305  10.831   8.059  0.6670  0.2408  1.3327
  619MOL0     C83463   3.261  10.913   8.163 -0.1747  0.8464 -0.7836
  619MOL0     C83464   3.351  10.920   8.278 -1.2443 -0.0671  0.1814
  619MOL0     O83465   3.339  11.012   8.382  0.5463 -0.7163  0.6912
  619MOL0     C83466   3.204  11.043   8.421  0.2103  0.0265 -0.8218
  619MOL0     C83467   3.131  10.945   8.523 -0.1410  0.2257 -0.8521
  619MOL0     C83468   3.203  10.931   8.658 -0.3990  0.4873 -0.1479
  619MOL0     C83469   3.336  10.849   8.663 -0.6248 -0.0994  0.1201
  619MOL0     C83470   3.391  10.813   8.796  0.0611  0.0109 -0.4506
  619MOL0     C83471   3.539  10.769   8.797  1.0107  0.8300  0.0776
  619MOL0     C83472   3.581  10.707   8.928  0.2977 -0.9138 -0.4446
  619MOL0     C83473   3.568  10.801   9.050  0.0743  0.5580 -0.2688
  619MOL0    Cl83474   3.645  10.729   9.183  0.1160 -0.2509 -0.0891
  619MOL0     C83475   3.467  10.840   8.287 -0.8576  0.1008  0.7484
  619MOL0     C83476   3.494  10.750   8.186 -0.3661  0.1007 -0.3567
  619MOL0     O83477   3.241  10.571   7.942  0.2262 -0.7237  0.6848
  619MOL0     C83478   3.326  10.393   7.747 -1.1216  0.1629  0.1339
  619MOL0     C83479   3.384  10.295   7.660 -0.0438 -0.8127  0.4846
  619MOL0     N83480   4.089   9.953   7.280  0.2982  0.1495  0.6697
  619MOL0     N83481   4.190   9.910   7.225 -0.6349  0.8457  0.7583
  619MOL0     C83482   4.935   9.648   6.607 -0.6985  0.6832 -0.1541
  619MOL0     C83483   4.978   9.723   6.500 -0.1384 -0.1105 -0.0610
  619MOL0     C83484   5.290   9.917   6.226  0.2489 -0.1222 -0.2711
  619MOL0     C83485   5.355  10.022   6.294  0.5977 -0.0551 -0.3476
  619MOL0     C83486   5.468  10.085   6.248  0.1466  0.4293  0.3556
  619MOL0     C83487   5.520  10.053   6.121  1.4055 -0.4235 -0.0996
  619MOL0     O83488   5.613  10.125   6.061  0.3346  0.0450  0.5675
  619MOL0     C83489   5.631  10.260   6.104 -0.2681 -0.1893  0.2228
  619MOL0     C83490   5.734  10.332   6.021 -0.4852 -0.6172 -0.3644
  619MOL0     C83491   5.668  10.385   5.891 -1.5459 -0.2943 -0.0705
  619MOL0     C83492   5.769  10.482   5.818  0.4588  0.0762  0.5677
  619MOL0     C83493   5.703  10.609   5.808  0.3587 -0.8165 -0.0668
  619MOL0     C83494   5.641  10.710   5.775 -0.6122  0.2976 -0.3217
  619MOL0     C83495   5.450   9.964   6.045  0.3024  0.1628  0.4983
  619MOL0     C83496   5.333   9.900   6.098  0.4308  0.1635 -0.0478
  619MOL0     C83497   5.266   9.818   5.987 -0.5158 -0.2336  0.1640
  619MOL0     H83498   5.279   9.828   6.617  0.3563 -0.2726 -1.2321
  619MOL0     H83499   5.197   9.700   6.818 -2.0476 -1.9572  2.0346
  619MOL0     H83500   4.989   9.443   6.995 -0.9205  1.2174  1.1481
  619MOL0     H83501   5.136   9.540   6.945  0.2371  0.7098 -0.2776
  619MOL0     H83502   5.035   9.738   6.989 -1.1669 -1.5975 -0.5675
  619MOL0     H83503   5.075   9.635   7.131  3.5115 -0.7519 -1.8409
  619MOL0     H83504   4.862   9.585   7.166  1.0694 -1.3437 -1.6225
  619MOL0     H83505   4.788   9.636   7.030  2.4155 -2.5754 -3.2256
  619MOL0     H83506   4.907   9.829   7.252  1.9715 -0.4738 -0.5554
  619MOL0     H83507   4.878   9.887   7.090  0.8027  1.8894  3.2438
  619MOL0     H83508   4.648   9.786   7.088 -1.5306 -2.5565  2.2992
  619MOL0     H83509   4.676   9.743   7.258  0.7351 -0.9285  0.7598
  619MOL0     H83510   4.709   9.983   7.289 -2.2835  0.0034  0.7177
  619MOL0     H83511   4.666  10.015   7.116 -2.5234 -0.1121 -0.1861
  619MOL0     H83512   4.493  10.078   7.301 -0.7830  0.0272 -0.3620
  619MOL0     H83513   4.455   9.906   7.308 -3.6526 -0.8322 -4.2206
  619MOL0     H83514   4.424  10.087   7.068  0.1059  0.6941  0.5113
  619MOL0     H83515   4.400   9.906   7.065  0.1012  0.5986 -0.5865
  619MOL0     H83516   4.238  10.224   7.164  0.6697  0.7654  0.2248
  619MOL0     H83517   4.051  10.279   7.340  2.2726 -1.1980 -2.8701
  619MOL0     H83518   3.945  10.238   7.202 -2.0274  1.0628  1.2497
  619MOL0     H83519   3.822  10.085   7.344 -0.0002  0.6473 -1.6675
  619MOL0     H83520   3.937  10.117   7.488  0.8664  3.4410  0.8508
  619MOL0     H83521   3.823  10.338   7.359  3.4535 -0.1550  1.1523
  619MOL0     H83522   3.806  10.319   7.530 -1.7782 -0.3411  0.7690
  619MOL0     H83523   3.634  10.158   7.356  1.4992  0.1563 -1.0082
  619MOL0     H83524   3.609  10.336   7.358  4.4391  2.7390  1.4944
  619MOL0     H83525   3.682  10.444   7.615  0.3672 -1.9690  0.6695
  619MOL0     H83526   3.593  10.617   7.763 -1.9856  1.9093 -2.2197
  619MOL0     H83527   3.226  10.835   7.984  0.3781 -1.7453  1.4812
  619MOL0     H83528   3.164  10.962   8.163 -0.6366  0.0829  1.7793
  619MOL0     H83529   3.219  11.133   8.481  2.1034 -0.6560 -0.2092
  619MOL0     H83530   3.134  11.089   8.350 -0.0567  0.7318 -0.1189
  619MOL0     H83531   3.030  10.980   8.546  0.3716 -0.2222  2.5156
  619MOL0     H83532   3.113  10.845   8.482  0.6908 -0.0727 -0.5102
  619MOL0     H83533   3.224  11.032   8.693  1.7965  0.0833 -0.1440
  619MOL0     H83534   3.134  10.879   8.725 -2.9955  2.9259 -0.7588
  619MOL0     H83535   3.402  10.926   8.624 -1.6083  0.8462  0.2877
  619MOL0     H83536   3.333  10.766   8.591  3.5574  0.7301 -1.2688
  619MOL0     H83537   3.333  10.736   8.849 -0.5479  0.3271 -0.6512
  619MOL0     H83538   3.382  10.903   8.857 -2.5312  0.8789 -1.9731
  619MOL0     H83539   3.538  10.688   8.724  0.2590  1.7145 -0.9296
  619MOL0     H83540   3.602  10.851   8.761 -2.2433  1.5454 -5.0605
  619MOL0     H83541   3.689  10.694   8.921  0.2826 -0.5504 -1.6284
  619MOL0     H83542   3.521  10.618   8.949 -0.7747 -0.3861 -1.1894
  619MOL0     H83543   3.621  10.892   9.019 -0.1199  0.6744 -0.2592
  619MOL0     H83544   3.466  10.825   9.080  0.7155  0.7981  1.9268
  619MOL0     H83545   3.535  10.861   8.369 -2.0153 -0.7478  1.9554
  619MOL0     H83546   3.588  10.696   8.178 -0.1782  0.1671  1.1366
  619MOL0     H83547   3.239  10.363   7.804  0.1301 -3.1900  0.4866
  619MOL0     H83548   3.318  10.214   7.632 -0.4559  0.0884 -1.2457
  619MOL0     H83549   4.847   9.584   6.611  0.5465 -1.2601 -1.7706
  619MOL0     H83550   4.918   9.737   6.411 -3.1984  1.9543  2.1531
  619MOL0     H83551   5.319  10.049   6.392 -2.7217  0.1845 -1.4802
  619MOL0     H83552   5.515  10.164   6.305 -0.1385  2.2823 -1.8503
  619MOL0     H83553   5.689  10.254   6.197  1.3651  3.8209 -0.3500
  619MOL0     H83554   5.535  10.312   6.103 -0.5334 -0.6692 -0.1534
  619MOL0     H83555   5.819  10.272   5.987 -0.5633  0.9602 -3.6387
  619MOL0     H83556   5.781  10.414   6.076  0.9410  0.4764 -3.0364
  619MOL0     H83557   5.580  10.444   5.919 -0.4563  0.4338  2.0789
  619MOL0     H83558   5.634  10.304   5.825  1.4872  0.4167 -2.7666
  619MOL0     H83559   5.859  10.485   5.879 -0.1962 -0.9154  1.6100
  619MOL0     H83560   5.791  10.445   5.717  0.2267 -0.7058  0.7993
  619MOL0     H83561   5.579  10.796   5.759 -0.8978  0.1057 -0.2489
  619MOL0     H83562   5.477   9.937   5.943  0.8217 -1.3765  1.0007
  619MOL0     H83563   5.257   9.718   6.032 -1.4221  0.6597  2.0625
  619MOL0     H83564   5.168   9.861   5.966 -0.4867  0.4663  1.3534
  619MOL0     H83565   5.311   9.816   5.887 -1.1085  1.3657 -0.1592
  620MOL0     O83566   4.996   3.364   3.861  0.3753  0.1383 -0.9726
  620MOL0     C83567   5.088   3.442   3.876 -0.1795  0.2978 -0.2023
  620MOL0     O83568   5.199   3.459   3.793  0.0893  0.0501 -0.3286
  620MOL0     C83569   5.183   3.416   3.665  0.2146 -0.5080  0.2486
  620MOL0     C83570   5.064   3.424   3.585  0.8260  0.1427 -0.0939
  620MOL0     C83571   5.055   3.381   3.449  0.0747 -0.4070 -0.4772
  620MOL0     C83572   5.179   3.334   3.394  0.3633  0.8299  0.6262
  620MOL0     O83573   5.183   3.289   3.257  0.0114  0.6718  0.4554
  620MOL0     C83574   5.248   3.368   3.164 -0.8681  0.7504 -0.5873
  620MOL0     C83575   5.161   3.360   3.030 -1.1707 -0.3333 -0.3145
  620MOL0     C83576   5.218   3.466   2.931 -0.0139 -0.1121 -0.1373
  620MOL0     C83577   5.151   3.456   2.799 -0.3900 -0.2556  0.1061
  620MOL0     C83578   5.126   3.589   2.740 -0.0803  0.7044  0.6192
  620MOL0     C83579   5.062   3.580   2.595 -0.1478 -0.4358 -0.1622
  620MOL0     C83580   5.178   3.615   2.511 -0.6215 -0.2102 -0.0168
  620MOL0     C83581   5.134   3.611   2.369 -0.2888  0.2064  0.6630
  620MOL0     N83582   5.234   3.633   2.262 -0.5390 -0.3644  0.2518
  620MOL0     C83583   5.265   3.540   2.170 -0.6197 -0.5131 -0.1184
  620MOL0     C83584   5.373   3.601   2.108  0.0984 -0.2775  0.7183
  620MOL0     C83585   5.467   3.519   2.020 -0.0988  1.0801  0.9830
  620MOL0     C83586   5.393   3.408   1.936  0.6765  0.1099  0.1062
  620MOL0     C83587   5.455   3.390   1.798  0.1024 -0.4996 -0.0635
  620MOL0     C83588   5.381   3.282   1.715 -0.4581 -0.2058 -0.3393
  620MOL0     O83589   5.427   3.150   1.745 -0.0584  0.4977 -0.0234
  620MOL0     C83590   5.368   3.035   1.698  0.5273 -0.8472  0.2074
  620MOL0     C83591   5.384   2.923   1.790 -0.0521 -0.4020  0.6706
  620MOL0     C83592   5.321   2.806   1.760  0.4600 -0.2282  0.8089
  620MOL0     C83593   5.241   2.781   1.649 -0.6906  0.1817 -0.0748
  620MOL0     C83594   5.155   2.654   1.625  0.4767  0.7171  0.9918
  620MOL0     O83595   5.065   2.642   1.516 -0.5272 -0.7932 -0.8284
  620MOL0     C83596   5.022   2.510   1.483  0.5409  0.3412  0.4988
  620MOL0     C83597   4.889   2.476   1.483 -0.3014  0.0373 -0.1530
  620MOL0     C83598   4.847   2.342   1.450  0.5095 -0.8195 -0.9797
  620MOL0     C83599   4.938   2.242   1.432 -1.5250 -0.4488  0.0479
  620MOL0     O83600   4.896   2.119   1.395  0.2822  0.5953  0.3387
  620MOL0     C83601   4.976   2.014   1.447  0.3030 -0.8384  0.1609
  620MOL0     C83602   4.951   1.874   1.381  0.3974  0.5747  0.1640
  620MOL0     C83603   5.034   1.759   1.449  0.1037  0.0711  0.3144
  620MOL0     C83604   4.989   1.628   1.380  0.0976 -0.2129 -1.6724
  620MOL0     C83605   5.050   1.493   1.433  0.0918  0.3364  0.2316
  620MOL0     C83606   4.954   1.370   1.405  1.1843 -0.7759 -0.4451
  620MOL0     C83607   4.945   1.336   1.259  0.1323  0.6148  0.5119
  620MOL0     C83608   5.067   1.281   1.190 -0.8830  1.0886 -0.1519
  620MOL0    Cl83609   5.119   1.125   1.278  0.3793 -0.0503 -0.2337
  620MOL0     C83610   5.075   2.285   1.413  0.0425 -0.4355 -0.7154
  620MOL0     C83611   5.114   2.416   1.441  0.4852  1.0033  0.1165
  620MOL0     O83612   5.172   2.568   1.713  0.3097  0.7870 -0.5884
  620MOL0     C83613   5.223   2.899   1.566  0.5136 -0.0543  0.4513
  620MOL0     C83614   5.278   3.024   1.585 -0.7041  0.3541 -0.7850
  620MOL0     N83615   5.388   3.729   2.150  0.2193  0.8600 -0.1227
  620MOL0     N83616   5.307   3.741   2.246 -0.9103 -0.2651  0.2346
  620MOL0     C83617   5.290   3.328   3.475 -0.9884 -0.3688 -0.6581
  620MOL0     C83618   5.298   3.373   3.606 -0.4068 -0.5809  0.2385
  620MOL0     C83619   5.088   3.528   3.997 -0.7403 -0.5681  0.8004
  620MOL0     C83620   5.018   3.657   3.986 -0.1209  0.4459 -0.2790
  620MOL0     C83621   5.016   3.737   4.099  0.0367 -0.5906  0.7516
  620MOL0     C83622   5.072   3.696   4.222  0.2184 -0.3081 -0.1114
  620MOL0     O83623   5.062   3.786   4.328 -0.8747  0.1925 -0.6798
  620MOL0     C83624   5.083   3.750   4.470 -0.2869 -0.2664 -0.2161
  620MOL0     C83625   5.167   3.850   4.551  0.5749  0.0231  1.2169
  620MOL0     C83626   5.153   3.813   4.697 -0.5836  0.2812 -0.7548
  620MOL0     C83627   5.270   3.875   4.779 -0.6002  0.7752 -0.0793
  620MOL0     C83628   5.276   4.016   4.773  0.0850  0.7703  0.1418
  620MOL0     C83629   5.284   4.136   4.744  0.9967 -0.2492 -0.0807
  620MOL0     C83630   5.146   3.579   4.224  0.2243  0.2375  0.0508
  620MOL0     C83631   5.163   3.494   4.117  0.0455 -0.3408 -0.2700
  620MOL0     C83632   5.229   3.366   4.135  0.0118  0.4220  0.2359
  620MOL0     H83633   4.969   3.465   3.616 -0.3741 -0.9126 -2.1730
  620MOL0     H83634   4.961   3.367   3.397  0.2796 -3.0336 -0.2464
  620MOL0     H83635   5.265   3.470   3.200  1.0332  0.0793  0.5501
  620MOL0     H83636   5.352   3.339   3.148 -0.3537  1.9344  0.3840
  620MOL0     H83637   5.059   3.386   3.061 -0.6513  3.3692 -1.2103
  620MOL0     H83638   5.172   3.258   2.992  0.2649 -0.3061 -0.0472
  620MOL0     H83639   5.325   3.464   2.909  0.0376 -0.6421  0.1408
  620MOL0     H83640   5.204   3.566   2.972 -0.4282 -0.3684  0.3606
  620MOL0     H83641   5.210   3.384   2.742 -0.2288 -0.1453  0.1327
  620MOL0     H83642   5.056   3.404   2.812 -1.4986  1.8286  0.8057
  620MOL0     H83643   5.052   3.623   2.813  0.0602  0.4671  0.8748
  620MOL0     H83644   5.215   3.652   2.747 -0.8003  1.5725  2.9371
  620MOL0     H83645   5.014   3.482   2.598  0.1022 -0.5403  0.6638
  620MOL0     H83646   4.992   3.663   2.582  3.5900  2.7718 -2.2767
  620MOL0     H83647   5.263   3.551   2.535  0.3141  1.6584  1.9602
  620MOL0     H83648   5.215   3.716   2.533 -1.4356 -0.4105  2.4804
  620MOL0     H83649   5.091   3.514   2.342  0.9209 -0.8977  2.4867
  620MOL0     H83650   5.051   3.681   2.357 -0.4873 -0.1755 -0.2894
  620MOL0     H83651   5.228   3.439   2.157 -0.2482 -0.5751 -0.7467
  620MOL0     H83652   5.509   3.593   1.950  0.3235  1.9908  2.1653
  620MOL0     H83653   5.549   3.480   2.080  0.8274 -1.0776 -1.4939
  620MOL0     H83654   5.379   3.314   1.989  0.1452  0.3950  0.4743
  620MOL0     H83655   5.291   3.441   1.915 -0.0310 -1.9264  0.1536
  620MOL0     H83656   5.563   3.370   1.793  0.2375 -1.9462  4.2795
  620MOL0     H83657   5.444   3.485   1.746  1.9623 -0.3581 -0.2722
  620MOL0     H83658   5.404   3.298   1.609  0.5250  1.5169  0.0999
  620MOL0     H83659   5.272   3.287   1.726 -0.4552 -0.7062 -0.0248
  620MOL0     H83660   5.436   2.934   1.885 -1.6193 -0.4646  1.5782
  620MOL0     H83661   5.342   2.713   1.813 -0.9039 -1.1555 -0.1991
  620MOL0     H83662   4.822   2.545   1.533  1.7052 -0.2772  3.2655
  620MOL0     H83663   4.744   2.311   1.438  1.0530 -2.2099 -2.4155
  620MOL0     H83664   5.083   2.034   1.434 -0.1278  0.2772 -2.3597
  620MOL0     H83665   4.957   2.006   1.554  1.1640  0.1277  0.3967
  620MOL0     H83666   4.844   1.851   1.385  0.4568  0.4079  1.4030
  620MOL0     H83667   4.984   1.868   1.277 -0.1852  0.9720 -0.0469
  620MOL0     H83668   5.141   1.760   1.429  0.1730 -0.6432  0.6073
  620MOL0     H83669   5.031   1.760   1.559  2.2053 -1.6728  0.4541
  620MOL0     H83670   4.993   1.627   1.270  0.6897  2.4015 -1.7261
  620MOL0     H83671   4.883   1.618   1.405  0.3674 -0.4420 -0.5772
  620MOL0     H83672   5.074   1.489   1.540  0.7247 -3.0966  0.1002
  620MOL0     H83673   5.148   1.482   1.386 -0.4443 -2.2219 -0.4833
  620MOL0     H83674   4.996   1.286   1.462  1.7440 -0.5961 -0.5857
  620MOL0     H83675   4.855   1.399   1.441  1.9407  0.9956  0.3362
  620MOL0     H83676   4.899   1.424   1.214 -0.0715  0.1151 -0.2609
  620MOL0     H83677   4.878   1.253   1.239  2.5906 -0.9505 -1.9731
  620MOL0     H83678   5.045   1.265   1.083 -3.7455  1.2623  0.3118
  620MOL0     H83679   5.152   1.348   1.195  1.3292 -1.3425 -2.0507
  620MOL0     H83680   5.153   2.216   1.382  0.4371 -0.1755 -0.3092
  620MOL0     H83681   5.214   2.453   1.420 -0.7256  2.5801 -3.8295
  620MOL0     H83682   5.147   2.891   1.489 -0.5527 -1.5499  1.6066
  620MOL0     H83683   5.256   3.104   1.515  0.7810  1.8306  0.3596
  620MOL0     H83684   5.384   3.286   3.442  0.6443  0.2334  2.7671
  620MOL0     H83685   5.394   3.354   3.654  0.8019  1.0569 -1.3873
  620MOL0     H83686   4.975   3.700   3.896  0.6763  2.0401  0.0642
  620MOL0     H83687   4.967   3.834   4.107 -0.0809 -0.3233 -2.2253
  620MOL0     H83688   5.150   3.663   4.473 -0.3490 -0.5443 -3.3420
  620MOL0     H83689   4.988   3.730   4.519 -0.0438  3.0242  1.9255
  620MOL0     H83690   5.124   3.950   4.541 -4.5853 -1.9118  0.9340
  620MOL0     H83691   5.272   3.863   4.523  0.5296 -0.6286  0.7305
  620MOL0     H83692   5.143   3.704   4.701  0.4796  0.1938 -0.3709
  620MOL0     H83693   5.055   3.850   4.730 -1.0926 -1.0643 -0.6997
  620MOL0     H83694   5.241   3.854   4.883 -3.8254  1.8469 -0.6294
  620MOL0     H83695   5.367   3.841   4.742 -1.0081  0.7671 -1.1855
  620MOL0     H83696   5.285   4.238   4.712 -0.8232 -0.5631 -1.3359
  620MOL0     H83697   5.212   3.563   4.308 -1.2363  0.7072  1.3217
  620MOL0     H83698   5.233   3.312   4.040 -3.0279  1.3709 -0.5363
  620MOL0     H83699   5.330   3.369   4.176  0.0604 -2.0873  0.4740
  620MOL0     H83700   5.160   3.310   4.199 -0.7219  1.1314  0.0842
  621MOL0     O83701   1.688  11.204   8.722 -0.7245 -0.3847  0.2124
  621MOL0     C83702   1.622  11.166   8.817 -0.5152 -1.0375 -0.9588
  621MOL0     O83703   1.672  11.142   8.939 -0.1791 -0.0310 -0.5676
  621MOL0     C83704   1.812  11.128   8.954 -0.2996 -0.0539 -0.5292
  621MOL0     C83705   1.886  11.238   9.007 -0.5388  0.4976  0.2959
  621MOL0     C83706   2.031  11.224   9.028 -0.0630 -0.2601 -0.6184
  621MOL0     C83707   2.097  11.107   8.986  0.0682  0.4137  0.2308
  621MOL0     O83708   2.232  11.114   9.024  0.7356 -0.2826 -0.1794
  621MOL0     C83709   2.329  11.008   8.995 -0.6586  0.6340 -0.0798
  621MOL0     C83710   2.304  10.893   9.094 -0.0939 -0.6820  1.4269
  621MOL0     C83711   2.343  10.756   9.034  0.5963  0.5630 -1.2773
  621MOL0     C83712   2.492  10.707   9.059  0.2475 -0.2878 -0.4565
  621MOL0     C83713   2.532  10.591   8.970 -0.9449 -0.0956  0.7422
  621MOL0     C83714   2.525  10.609   8.814  0.4784 -0.3599 -0.3963
  621MOL0     C83715   2.584  10.496   8.729  1.2223 -0.8094 -0.0619
  621MOL0     C83716   2.500  10.373   8.712 -0.2949  1.0134 -0.5901
  621MOL0     N83717   2.549  10.296   8.594  0.6674  0.2978  0.5491
  621MOL0     C83718   2.495  10.337   8.472  0.3437  0.9787 -0.2309
  621MOL0     C83719   2.531  10.235   8.385 -0.4989 -0.3752  0.3101
  621MOL0     C83720   2.505  10.233   8.234 -0.4801 -0.1337  0.0691
  621MOL0     C83721   2.564  10.357   8.162 -0.3886 -0.6826  0.0927
  621MOL0     C83722   2.505  10.388   8.023 -0.1808 -0.0657  0.4065
  621MOL0     C83723   2.584  10.477   7.928  0.6870  1.0232 -0.0120
  621MOL0     O83724   2.546  10.448   7.788 -0.5501 -0.7547 -0.4889
  621MOL0     C83725   2.649  10.414   7.704 -0.3056 -0.6005 -0.1017
  621MOL0     C83726   2.634  10.449   7.568 -0.9963 -0.7553 -0.2302
  621MOL0     C83727   2.730  10.413   7.485 -0.5579  0.7811  0.7403
  621MOL0     C83728   2.848  10.344   7.522 -0.5278  0.1604  1.2606
  621MOL0     C83729   2.947  10.317   7.417  0.2048 -0.1878  0.2374
  621MOL0     O83730   3.064  10.243   7.445  0.5981 -0.8353  0.1946
  621MOL0     C83731   3.167  10.257   7.350 -0.7888  0.5499 -0.6708
  621MOL0     C83732   3.234  10.380   7.346  0.0708 -0.5049 -0.3548
  621MOL0     C83733   3.337  10.399   7.254  0.5703 -0.1379 -1.4442
  621MOL0     C83734   3.378  10.295   7.173 -0.4875  0.6579 -0.3378
  621MOL0     O83735   3.480  10.313   7.084 -0.0881 -0.3460  0.5997
  621MOL0     C83736   3.435  10.288   6.945 -0.6261  0.6139 -0.4219
  621MOL0     C83737   3.444  10.415   6.866 -0.0609  0.0931  0.8767
  621MOL0     C83738   3.411  10.394   6.715 -0.6853 -0.5357  1.7818
  621MOL0     C83739   3.264  10.401   6.680  0.1122 -0.8919 -0.7237
  621MOL0     C83740   3.234  10.334   6.545  0.2179  0.4500  0.5526
  621MOL0     C83741   3.085  10.338   6.511 -0.3697  0.8735  0.1492
  621MOL0     C83742   3.069  10.327   6.354  0.1457 -0.3778  0.2303
  621MOL0     C83743   2.924  10.289   6.315  0.2808  0.3705 -1.1169
  621MOL0    Cl83744   2.910  10.261   6.139 -0.5821 -0.0052 -0.4609
  621MOL0     C83745   3.317  10.167   7.179  0.2954  0.0545 -1.2549
  621MOL0     C83746   3.210  10.151   7.267  0.5884 -0.4548 -1.1159
  621MOL0     O83747   2.931  10.367   7.308  1.2634 -0.5348 -0.1437
  621MOL0     C83748   2.866  10.307   7.655  0.4363 -0.4931  0.1685
  621MOL0     C83749   2.758  10.326   7.738  0.3746 -0.4809 -0.4007
  621MOL0     N83750   2.591  10.139   8.458 -0.3379 -0.0365 -0.2687
  621MOL0     N83751   2.609  10.178   8.580 -0.7105  0.9665 -0.1857
  621MOL0     C83752   2.026  10.994   8.945 -0.8100 -1.9474 -0.0482
  621MOL0     C83753   1.883  11.006   8.922  0.0189  0.5868 -0.5977
  621MOL0     C83754   1.480  11.184   8.807 -0.2122 -0.9381  0.1349
  621MOL0     C83755   1.411  11.211   8.930  0.0291 -1.0854 -0.1796
  621MOL0     C83756   1.277  11.224   8.932  0.7874 -0.4041 -1.3595
  621MOL0     C83757   1.208  11.226   8.820  0.9821  1.2800  0.7499
  621MOL0     O83758   1.074  11.231   8.815  0.4519 -0.4390 -1.0796
  621MOL0     C83759   1.009  11.366   8.819 -0.8619  0.6499  0.3783
  621MOL0     C83760   1.018  11.427   8.676 -0.1913 -0.2795 -0.8013
  621MOL0     C83761   0.925  11.550   8.671 -0.2850 -0.0711  0.1506
  621MOL0     C83762   0.953  11.624   8.544  0.3950  0.6532  1.0040
  621MOL0     C83763   0.875  11.744   8.558 -0.3546  0.6247 -1.0629
  621MOL0     C83764   0.807  11.839   8.579  1.0726 -0.0637 -0.5123
  621MOL0     C83765   1.270  11.195   8.691  0.6321  0.1501 -1.1161
  621MOL0     C83766   1.406  11.172   8.685 -0.8769  0.9362  1.0758
  621MOL0     C83767   1.461  11.123   8.554 -0.5401 -0.1398  0.2503
  621MOL0     H83768   1.844  11.336   9.031 -1.6311  0.2288 -0.4469
  621MOL0     H83769   2.094  11.301   9.074  0.8999  0.3475 -2.8330
  621MOL0     H83770   2.325  10.962   8.896  3.3009 -0.6391  0.2012
  621MOL0     H83771   2.432  11.037   9.017  0.2617 -0.8838 -2.0697
  621MOL0     H83772   2.196  10.882   9.112 -0.2849  0.2767  0.9398
  621MOL0     H83773   2.355  10.904   9.190 -0.0383 -0.4545  1.3733
  621MOL0     H83774   2.313  10.754   8.929 -3.3810  0.3168 -0.2914
  621MOL0     H83775   2.271  10.687   9.079  0.0249  0.8588 -1.7188
  621MOL0     H83776   2.562  10.790   9.047  1.4982 -1.3271 -0.5109
  621MOL0     H83777   2.484  10.668   9.161 -1.0569 -1.3012 -0.9117
  621MOL0     H83778   2.637  10.561   8.983 -0.6313 -0.0594 -1.3941
  621MOL0     H83779   2.479  10.507   9.015 -2.8844  0.2865 -0.7295
  621MOL0     H83780   2.422  10.635   8.788  1.9202  2.3337 -4.3968
  621MOL0     H83781   2.567  10.707   8.788 -0.8277  0.0868 -0.8996
  621MOL0     H83782   2.685  10.463   8.755  1.7681  1.5745  1.1290
  621MOL0     H83783   2.592  10.549   8.633 -0.0055  2.2545  1.3911
  621MOL0     H83784   2.510  10.307   8.799 -1.5758 -0.3335 -1.4205
  621MOL0     H83785   2.395  10.401   8.697 -0.7061  0.1095  0.4068
  621MOL0     H83786   2.433  10.424   8.449 -4.1577 -1.8956 -0.1748
  621MOL0     H83787   2.534  10.137   8.190 -0.5653  1.2204 -3.3017
  621MOL0     H83788   2.400  10.262   8.220  0.0976  2.4826  0.7280
  621MOL0     H83789   2.548  10.446   8.222 -0.8292  0.4813 -1.6812
  621MOL0     H83790   2.671  10.336   8.150 -0.6695 -0.6304 -4.0492
  621MOL0     H83791   2.404  10.426   8.043  0.0124 -0.9918  3.7287
  621MOL0     H83792   2.494  10.290   7.975  1.3477 -0.7845  1.4512
  621MOL0     H83793   2.682  10.437   7.957 -0.1433  0.1169  1.7282
  621MOL0     H83794   2.566  10.583   7.947 -2.8913  0.8394 -1.7273
  621MOL0     H83795   2.554  10.516   7.536  0.7400  1.7183  0.2752
  621MOL0     H83796   2.707  10.435   7.381  0.4392  2.4453  0.8284
  621MOL0     H83797   3.197  10.457   7.413  2.0535 -0.8700  1.2497
  621MOL0     H83798   3.378  10.499   7.246 -1.9019  1.1560  0.5024
  621MOL0     H83799   3.496  10.207   6.904 -1.6578 -0.5522  0.2757
  621MOL0     H83800   3.335  10.244   6.940 -0.8924  1.1024  0.3324
  621MOL0     H83801   3.359  10.474   6.900  0.1869  0.6759  0.4975
  621MOL0     H83802   3.545  10.455   6.865  0.3274 -0.8486  1.4521
  621MOL0     H83803   3.461  10.473   6.659 -0.6360 -2.1550 -0.5721
  621MOL0     H83804   3.457  10.302   6.679 -1.5708 -0.5908  0.7172
  621MOL0     H83805   3.227  10.504   6.674  1.0572 -0.4823  0.2926
  621MOL0     H83806   3.211  10.343   6.756 -1.3039  2.7344  1.3037
  621MOL0     H83807   3.257  10.227   6.545 -4.1029 -0.7177 -2.2917
  621MOL0     H83808   3.293  10.385   6.468  0.1887  2.2127  1.6225
  621MOL0     H83809   3.023  10.260   6.556  0.5874  1.3785  2.4939
  621MOL0     H83810   3.049  10.430   6.558 -3.5390  1.3389 -2.8248
  621MOL0     H83811   3.132  10.253   6.303  0.9658 -0.0955  0.8172
  621MOL0     H83812   3.096  10.420   6.303  0.3384 -0.9640 -0.7639
  621MOL0     H83813   2.889  10.204   6.375  1.5965  1.2651  1.0546
  621MOL0     H83814   2.846  10.362   6.339  0.1821 -0.3031  0.8476
  621MOL0     H83815   3.344  10.086   7.112  0.1381 -2.6988  1.7302
  621MOL0     H83816   3.150  10.062   7.276 -3.6328  2.2377  0.1618
  621MOL0     H83817   2.949  10.242   7.680  0.9957 -0.0744 -0.5575
  621MOL0     H83818   2.770  10.266   7.827  0.9851  0.3278  0.0658
  621MOL0     H83819   2.085  10.911   8.907  0.7004 -1.3529  0.9030
  621MOL0     H83820   1.828  10.916   8.893  1.2224  0.2028 -1.8298
  621MOL0     H83821   1.466  11.204   9.024  1.4129  3.0294 -0.5003
  621MOL0     H83822   1.232  11.232   9.030  0.0071  0.1694 -1.7551
  621MOL0     H83823   1.053  11.421   8.903 -1.7901 -1.1246  2.1145
  621MOL0     H83824   0.903  11.354   8.839 -1.2328  3.4729  0.4839
  621MOL0     H83825   0.984  11.352   8.605  0.1518 -2.8579  1.5912
  621MOL0     H83826   1.122  11.456   8.658  0.3348 -0.5589  1.4506
  621MOL0     H83827   0.939  11.612   8.760 -2.2822  1.2005 -0.3421
  621MOL0     H83828   0.822  11.514   8.680 -0.5439  0.9926  1.7980
  621MOL0     H83829   1.057  11.647   8.516 -0.2161  0.7905 -1.3382
  621MOL0     H83830   0.909  11.563   8.465  0.7417  1.6103  0.0414
  621MOL0     H83831   0.748  11.929   8.573  1.8132  0.3340 -2.1920
  621MOL0     H83832   1.200  11.171   8.611  0.6582  1.7113 -1.6587
  621MOL0     H83833   1.540  11.049   8.569 -0.7384  0.0881  2.8340
  621MOL0     H83834   1.379  11.090   8.490 -2.3239  1.7200  1.4523
  621MOL0     H83835   1.500  11.209   8.498 -3.6423  0.3633 -1.3841
  622MOL0     O83836   0.224   8.847   1.305  1.1285 -0.1584  1.0806
  622MOL0     C83837   0.145   8.926   1.244  1.2600 -0.1480 -0.8811
  622MOL0     O83838   0.149   9.063   1.266  0.0413  0.8925  0.5915
  622MOL0     C83839   0.173   9.123   1.382  0.0607  0.3895  0.2781
  622MOL0     C83840   0.176   9.266   1.384  0.3844  0.1334  0.2695
  622MOL0     C83841   0.170   9.336   1.506  0.2941  0.4812 -0.4330
  622MOL0     C83842   0.182   9.273   1.625  0.3177 -0.7527 -0.6060
  622MOL0     O83843   0.169   9.347   1.740 -0.3575 -0.1870  0.4301
  622MOL0     C83844   0.265   9.444   1.779 -0.5623  0.3761 -0.5952
  622MOL0     C83845   0.382   9.352   1.825  0.3199 -0.1291 -0.8731
  622MOL0     C83846   0.499   9.348   1.727  0.2837 -0.6472 -0.4324
  622MOL0     C83847   0.564   9.480   1.702  0.3710 -1.0310  0.0130
  622MOL0     C83848   0.717   9.466   1.661 -0.0378  0.1847 -0.3297
  622MOL0     C83849   0.777   9.599   1.659 -0.8652 -0.3822  0.6005
  622MOL0     C83850   0.916   9.604   1.618  0.0373  0.0867  0.5779
  622MOL0     C83851   0.981   9.752   1.594 -0.6679  0.0646  0.2036
  622MOL0     N83852   1.119   9.734   1.539 -0.5314  0.1439  0.5917
  622MOL0     C83853   1.225   9.687   1.610 -0.2081  0.0910  0.1235
  622MOL0     C83854   1.319   9.691   1.517  0.0051  0.3365 -0.7066
  622MOL0     C83855   1.464   9.663   1.553 -0.0647  0.0779 -0.0092
  622MOL0     C83856   1.572   9.776   1.555 -0.0950  0.3367  0.2554
  622MOL0     C83857   1.557   9.869   1.676 -0.5848 -1.2014 -0.2036
  622MOL0     C83858   1.653   9.985   1.698  0.6295 -0.4883  0.0138
  622MOL0     O83859   1.635  10.082   1.592 -0.0826  0.0238  0.1317
  622MOL0     C83860   1.706  10.201   1.589 -0.3115  0.3141  0.0303
  622MOL0     C83861   1.745  10.269   1.706  0.7698 -0.0324  0.8426
  622MOL0     C83862   1.811  10.393   1.690 -0.3191  0.6517  0.3308
  622MOL0     C83863   1.854  10.434   1.560 -0.0623  0.3252  0.1953
  622MOL0     C83864   1.941  10.558   1.554 -0.4587 -0.4137  0.1010
  622MOL0     O83865   2.011  10.579   1.659 -0.0057  0.4358  0.3232
  622MOL0     C83866   2.090  10.690   1.659 -0.2052 -0.7538  1.0752
  622MOL0     C83867   2.213  10.687   1.597  0.4482 -0.3639  0.8809
  622MOL0     C83868   2.286  10.805   1.592 -0.1830 -0.4906  0.3820
  622MOL0     C83869   2.231  10.920   1.648 -0.2518  0.0028 -1.4247
  622MOL0     O83870   2.308  11.032   1.637  0.1489  0.2776 -1.1624
  622MOL0     C83871   2.256  11.163   1.656 -0.1042 -0.8757  1.1573
  622MOL0     C83872   2.155  11.207   1.548  0.1208 -0.5899  0.1900
  622MOL0     C83873   2.127  11.360   1.558  0.8107 -0.1253 -0.4937
  622MOL0     C83874   2.051  11.411   1.439  0.4142 -0.1235  0.7785
  622MOL0     C83875   1.975  11.534   1.494  0.2770  0.3083 -0.7743
  622MOL0     C83876   1.876  11.606   1.411  0.5152 -0.1859  0.6274
  622MOL0     C83877   1.805  11.728   1.470 -0.1020 -0.3241 -0.1173
  622MOL0     C83878   1.676  11.763   1.393 -0.2346 -0.5832  0.2203
  622MOL0    Cl83879   1.716  11.799   1.227  0.5302  0.0841 -0.0764
  622MOL0     C83880   2.099  10.917   1.708 -0.0391 -0.2056  0.1555
  622MOL0     C83881   2.033  10.800   1.719 -0.5694  0.8005  0.5291
  622MOL0     O83882   1.947  10.616   1.446  0.0296  1.1274 -0.2457
  622MOL0     C83883   1.812  10.364   1.448  0.3925  0.1211 -0.5429
  622MOL0     C83884   1.734  10.255   1.467  0.1949  0.5749 -0.4960
  622MOL0     N83885   1.282   9.746   1.395 -0.2144 -0.8171 -0.8909
  622MOL0     N83886   1.154   9.762   1.412 -0.0745 -0.3827  0.1068
  622MOL0     C83887   0.202   9.133   1.626 -0.2208 -0.0514 -0.6682
  622MOL0     C83888   0.195   9.061   1.509  0.3115 -0.1080  1.6771
  622MOL0     C83889   0.053   8.869   1.147  0.2452  0.0544 -0.2936
  622MOL0     C83890  -0.009   8.966   1.068 -0.1224  1.1512  0.3348
  622MOL0     C83891  -0.099   8.933   0.967  0.5752  0.7956  0.4300
  622MOL0     C83892  -0.143   8.795   0.950 -0.2689 -0.0043  0.2636
  622MOL0     O83893  -0.246   8.760   0.856  0.6333 -0.1938 -0.2859
  622MOL0     C83894  -0.291   8.854   0.763 -0.0727  0.4643 -0.4523
  622MOL0     C83895  -0.394   8.787   0.661 -0.6689 -0.1517 -0.3666
  622MOL0     C83896  -0.511   8.714   0.734 -0.2884 -0.3319 -0.2073
  622MOL0     C83897  -0.581   8.803   0.832 -0.2429 -0.3015 -0.1197
  622MOL0     C83898  -0.628   8.923   0.774  0.3055 -0.2469 -0.8365
  622MOL0     C83899  -0.677   9.020   0.723  0.5431  0.7764  0.5676
  622MOL0     C83900  -0.087   8.705   1.039 -0.0194  0.9733 -0.7586
  622MOL0     C83901   0.003   8.735   1.133  0.3808 -0.5210  0.4360
  622MOL0     C83902   0.048   8.618   1.214 -0.3206 -0.4683  0.0917
  622MOL0     H83903   0.152   9.317   1.291  1.7422 -1.2519 -0.8959
  622MOL0     H83904   0.152   9.443   1.505 -0.5037  0.3613 -0.0107
  622MOL0     H83905   0.282   9.521   1.704  1.4207 -0.7683 -1.3944
  622MOL0     H83906   0.219   9.500   1.862 -0.0639 -3.3436  2.4889
  622MOL0     H83907   0.353   9.248   1.840  0.2337 -0.1701 -1.3215
  622MOL0     H83908   0.427   9.394   1.916 -0.9529 -1.7595  0.5925
  622MOL0     H83909   0.461   9.321   1.628 -0.3741  1.3468 -0.7776
  622MOL0     H83910   0.572   9.274   1.763  0.6966 -0.4033 -0.7557
  622MOL0     H83911   0.516   9.523   1.613 -0.2053 -1.7840 -0.0491
  622MOL0     H83912   0.545   9.565   1.768 -0.9064 -1.0250 -0.3328
  622MOL0     H83913   0.769   9.405   1.736  0.8985  2.4451  0.9468
  622MOL0     H83914   0.731   9.415   1.565 -2.0858  0.4374 -0.8159
  622MOL0     H83915   0.714   9.644   1.582 -1.0859 -1.0222  0.3999
  622MOL0     H83916   0.754   9.652   1.751 -1.8763 -1.2627  0.8740
  622MOL0     H83917   0.905   9.550   1.523 -3.5155  0.4032  0.7117
  622MOL0     H83918   0.982   9.545   1.682  1.2644  0.6600 -0.1219
  622MOL0     H83919   0.921   9.823   1.537 -1.3289 -1.3907 -0.9842
  622MOL0     H83920   0.996   9.800   1.691  1.2486 -3.2852  1.7516
  622MOL0     H83921   1.227   9.659   1.715  1.3631 -1.3245 -0.2519
  622MOL0     H83922   1.465   9.605   1.645 -0.4815  2.5274  1.6597
  622MOL0     H83923   1.488   9.590   1.476 -4.1244  1.0282 -2.4985
  622MOL0     H83924   1.676   9.741   1.556  0.2674  0.9054 -3.4365
  622MOL0     H83925   1.557   9.840   1.468 -2.6429 -0.0053  0.3602
  622MOL0     H83926   1.574   9.801   1.760 -0.7952  0.7033  1.4644
  622MOL0     H83927   1.459   9.918   1.673  1.4137  3.4908  1.6634
  622MOL0     H83928   1.760   9.963   1.690  0.4641 -0.6371 -3.0480
  622MOL0     H83929   1.641  10.040   1.792  2.1975 -0.7318  0.3974
  622MOL0     H83930   1.727  10.229   1.805  1.9709  0.8419  1.4293
  622MOL0     H83931   1.829  10.443   1.785 -0.2807 -1.2066  1.3494
  622MOL0     H83932   2.260  10.602   1.548  0.8557  1.5273 -2.2134
  622MOL0     H83933   2.381  10.811   1.540 -1.4633  0.0555 -2.0056
  622MOL0     H83934   2.208  11.176   1.754 -1.1934 -0.5968  0.6048
  622MOL0     H83935   2.338  11.232   1.635 -0.5048 -0.8807 -0.5564
  622MOL0     H83936   2.215  11.187   1.458  1.1354 -2.5666  1.2354
  622MOL0     H83937   2.064  11.146   1.541 -0.1777  0.0501 -3.2572
  622MOL0     H83938   2.075  11.372   1.654 -1.5439  0.1143 -1.7175
  622MOL0     H83939   2.226  11.405   1.564  1.6873 -2.0560  0.2478
  622MOL0     H83940   1.978  11.332   1.417 -0.2269  0.4037  0.9674
  622MOL0     H83941   2.109  11.434   1.350 -4.3740  2.6483 -2.0719
  622MOL0     H83942   2.047  11.610   1.527  0.4433 -0.5259  0.9179
  622MOL0     H83943   1.934  11.502   1.591  1.4334 -4.3286 -1.5682
  622MOL0     H83944   1.914  11.630   1.311 -3.3408  2.6171 -0.4082
  622MOL0     H83945   1.795  11.533   1.407 -0.4124  0.8570 -1.0155
  622MOL0     H83946   1.875  11.812   1.456 -1.1964  1.2780  3.0048
  622MOL0     H83947   1.790  11.726   1.578  1.5350  2.3367  0.2768
  622MOL0     H83948   1.605  11.681   1.405  1.4305 -1.9910  0.8755
  622MOL0     H83949   1.644  11.852   1.448  0.5402 -0.5563  0.6404
  622MOL0     H83950   2.052  11.001   1.758 -4.6906 -1.4442 -1.6254
  622MOL0     H83951   1.943  10.791   1.780 -1.9364 -2.3175 -1.6795
  622MOL0     H83952   1.831  10.394   1.345 -0.7520  0.0229 -0.7979
  622MOL0     H83953   1.701  10.194   1.384  0.3442  1.6226 -1.3441
  622MOL0     H83954   0.194   9.079   1.720  1.1031 -0.3829 -0.7358
  622MOL0     H83955   0.196   8.953   1.505  0.0322 -0.1853  3.0386
  622MOL0     H83956   0.000   9.073   1.088 -4.5056  1.4491  1.9626
  622MOL0     H83957  -0.145   9.012   0.909 -1.3246 -1.2300 -0.9764
  622MOL0     H83958  -0.204   8.885   0.703  1.0600  1.0641  1.4258
  622MOL0     H83959  -0.328   8.943   0.815 -2.6944 -2.1473  2.5316
  622MOL0     H83960  -0.337   8.709   0.610 -1.1409 -0.4849 -0.3916
  622MOL0     H83961  -0.437   8.860   0.592 -3.0963 -1.3812 -0.2592
  622MOL0     H83962  -0.469   8.626   0.784  0.7814 -0.2379 -0.9109
  622MOL0     H83963  -0.587   8.677   0.664  1.8951 -0.9009 -2.3990
  622MOL0     H83964  -0.671   8.753   0.869 -1.5613  1.2780 -1.0493
  622MOL0     H83965  -0.520   8.821   0.921  0.3531  0.3270 -0.6448
  622MOL0     H83966  -0.707   9.113   0.681 -0.8123  1.0717  2.0761
  622MOL0     H83967  -0.144   8.614   1.046  1.8075 -0.1054  4.5341
  622MOL0     H83968   0.004   8.617   1.315  0.9552 -2.3324  0.6879
  622MOL0     H83969   0.034   8.519   1.169  0.5919 -1.4815  1.9084
  622MOL0     H83970   0.157   8.620   1.225 -0.4071 -0.7049  1.1503
  623MOL0     O83971   8.278   4.198   9.549  0.1879 -0.5371  0.1367
  623MOL0     C83972   8.168   4.203   9.501 -0.6221  0.8641 -0.1208
  623MOL0     O83973   8.063   4.116   9.534  0.4404  0.5779  0.1900
  623MOL0     C83974   8.093   4.031   9.639  0.6818  0.3078 -0.2626
  623MOL0     C83975   8.032   4.070   9.759  0.3287 -0.3515 -0.0674
  623MOL0     C83976   8.067   4.011   9.883 -0.3026 -0.5387  0.4389
  623MOL0     C83977   8.153   3.911   9.883  0.4656  1.1692 -0.1859
  623MOL0     O83978   8.198   3.868  10.008 -0.1786  0.2444 -0.2044
  623MOL0     C83979   8.337   3.888  10.045  0.1691  0.0870  0.3986
  623MOL0     C83980   8.418   3.752  10.040  0.6339 -0.0836 -0.0395
  623MOL0     C83981   8.373   3.646  10.142 -0.6988 -0.2881 -0.4259
  623MOL0     C83982   8.488   3.543  10.157  0.1488 -0.5044 -0.0168
  623MOL0     C83983   8.435   3.436  10.252 -0.1943 -0.0648 -0.5214
  623MOL0     C83984   8.544   3.336  10.306 -0.3788  0.3170 -1.3096
  623MOL0     C83985   8.489   3.260  10.426  0.4637 -0.8612  0.0543
  623MOL0     C83986   8.579   3.134  10.435 -0.1395 -0.2948  0.1444
  623MOL0     N83987   8.556   3.027  10.531  0.1879  0.5169 -0.6898
  623MOL0     C83988   8.468   2.924  10.514  0.8846 -0.2223  0.1946
  623MOL0     C83989   8.487   2.848  10.623  0.7215  0.2228  0.1705
  623MOL0     C83990   8.418   2.718  10.653  0.1149 -1.0389  0.4296
  623MOL0     C83991   8.258   2.749  10.656  0.2143  0.4694 -0.2040
  623MOL0     C83992   8.182   2.624  10.598  0.6502  1.3528  0.5903
  623MOL0     C83993   8.222   2.492  10.672  1.2146  0.7615  0.1459
  623MOL0     O83994   8.254   2.523  10.809 -0.7021 -0.3357 -0.3565
  623MOL0     C83995   8.164   2.521  10.911 -0.2037 -0.3003  0.5031
  623MOL0     C83996   8.208   2.491  11.035 -1.2400  0.7712  0.2658
  623MOL0     C83997   8.129   2.479  11.141 -0.0768 -0.1017  0.8643
  623MOL0     C83998   7.985   2.482  11.126  0.6213  0.2450 -0.0809
  623MOL0     C83999   7.902   2.425  11.227  0.5845 -0.3774  0.4113
  623MOL0     O84000   7.760   2.452  11.218  0.3033  0.2450 -0.3802
  623MOL0     C84001   7.669   2.434  11.324  0.4152 -0.1487  0.5757
  623MOL0     C84002   7.703   2.462  11.459  0.1919 -0.9771 -0.1748
  623MOL0     C84003   7.619   2.423  11.569  0.1777 -0.2108 -0.1590
  623MOL0     C84004   7.489   2.371  11.544  1.1556 -0.5365 -0.5794
  623MOL0     O84005   7.400   2.358  11.643  0.0758  0.7017  0.1427
  623MOL0     C84006   7.451   2.303  11.774 -0.5371 -0.6810  0.3542
  623MOL0     C84007   7.343   2.320  11.873  0.8699 -0.3701 -0.8419
  623MOL0     C84008   7.297   2.466  11.904 -0.5926  0.1230 -0.0550
  623MOL0     C84009   7.201   2.470  12.028  1.2828 -0.2784  0.5735
  623MOL0     C84010   7.207   2.590  12.126 -0.7370  0.4804 -0.0067
  623MOL0     C84011   7.184   2.723  12.059  0.6038 -0.3302 -0.4725
  623MOL0     C84012   7.274   2.834  12.126 -0.2551  0.1093  0.0577
  623MOL0     C84013   7.240   2.967  12.055 -0.3986  1.3061 -0.5673
  623MOL0    Cl84014   7.080   3.027  12.089  0.3294 -0.2676 -0.2410
  623MOL0     C84015   7.458   2.347  11.405  0.2771 -0.2381 -0.5294
  623MOL0     C84016   7.541   2.385  11.301  0.6509 -0.2581 -0.0140
  623MOL0     O84017   7.960   2.364  11.319 -0.5659 -0.2640  0.7593
  623MOL0     C84018   7.939   2.522  10.999  0.8561 -0.6425  0.4508
  623MOL0     C84019   8.027   2.541  10.887 -0.0547 -0.6680  0.1686
  623MOL0     N84020   8.585   2.901  10.700  1.3116 -0.3697  0.1301
  623MOL0     N84021   8.622   3.015  10.649 -0.0715  0.1866  0.4560
  623MOL0     C84022   8.215   3.862   9.766  0.3750 -0.3007 -0.4474
  623MOL0     C84023   8.178   3.918   9.633 -1.0917  0.5800 -0.3641
  623MOL0     C84024   8.152   4.305   9.396 -1.0529 -0.1805  0.9441
  623MOL0     C84025   8.035   4.292   9.321 -0.1487 -0.4996  0.2176
  623MOL0     C84026   8.011   4.378   9.222 -0.0227  0.6373  0.2130
  623MOL0     C84027   8.098   4.477   9.181  0.5468  0.5650  0.4970
  623MOL0     O84028   8.086   4.556   9.073 -0.8016 -0.7104  0.3420
  623MOL0     C84029   7.987   4.515   8.970 -1.5332 -0.9583  0.7133
  623MOL0     C84030   8.046   4.536   8.834  0.6720  0.3610 -0.1695
  623MOL0     C84031   8.180   4.451   8.807 -0.3755 -1.2920  0.2023
  623MOL0     C84032   8.166   4.305   8.760  0.6030 -0.4163  0.8163
  623MOL0     C84033   8.110   4.302   8.623  0.0153 -1.2083  0.4043
  623MOL0     C84034   8.088   4.311   8.501 -0.3066  0.6907 -0.4495
  623MOL0     C84035   8.215   4.485   9.250  0.2990  0.4650  0.1976
  623MOL0     C84036   8.246   4.411   9.368 -0.3584 -0.8433  0.2634
  623MOL0     C84037   8.374   4.453   9.442 -0.4164  0.0908  0.6962
  623MOL0     H84038   7.962   4.153   9.772 -0.4955 -0.4569 -3.0243
  623MOL0     H84039   8.037   4.038   9.984  0.4147 -1.0380  0.8018
  623MOL0     H84040   8.397   3.945   9.974  3.1177 -2.8817  0.2604
  623MOL0     H84041   8.348   3.955  10.130 -3.2255  3.7487 -1.7032
  623MOL0     H84042   8.525   3.773  10.049  0.6686  1.8518 -3.2043
  623MOL0     H84043   8.412   3.714   9.938 -2.6154 -1.5088  0.5523
  623MOL0     H84044   8.293   3.590  10.092 -0.9492  0.2912 -0.6965
  623MOL0     H84045   8.341   3.689  10.237 -1.0098 -0.7511 -0.3190
  623MOL0     H84046   8.542   3.507  10.069  0.3202 -0.2811 -0.0053
  623MOL0     H84047   8.568   3.582  10.221 -0.2233 -0.7593  0.6188
  623MOL0     H84048   8.376   3.488  10.328 -0.2017 -1.9817  0.8607
  623MOL0     H84049   8.357   3.378  10.201 -0.6441  1.6710 -1.9017
  623MOL0     H84050   8.589   3.276  10.227  0.6190 -3.1021  1.6009
  623MOL0     H84051   8.628   3.389  10.351  0.0327 -0.9195 -0.5799
  623MOL0     H84052   8.386   3.228  10.408  0.1794 -0.2923  0.6437
  623MOL0     H84053   8.508   3.313  10.520  0.7890 -0.2969 -0.3289
  623MOL0     H84054   8.593   3.093  10.335  0.6922  1.6372 -0.5823
  623MOL0     H84055   8.676   3.172  10.467 -0.3813 -0.4895  1.1802
  623MOL0     H84056   8.409   2.901  10.426  0.9224  2.0087 -0.4819
  623MOL0     H84057   8.433   2.644  10.574  0.0851  0.0585 -0.6336
  623MOL0     H84058   8.468   2.683  10.743  0.7035 -0.5746  0.2905
  623MOL0     H84059   8.228   2.774  10.758  0.2175 -1.8810  0.4346
  623MOL0     H84060   8.245   2.836  10.590  2.8457  0.3059 -1.0588
  623MOL0     H84061   8.208   2.628  10.492 -2.6750  0.8320 -0.3791
  623MOL0     H84062   8.072   2.623  10.597  0.6248  0.8549  1.8747
  623MOL0     H84063   8.321   2.454  10.643  0.0718 -2.3040 -0.1411
  623MOL0     H84064   8.151   2.410  10.655  1.3365  1.1956 -2.8458
  623MOL0     H84065   8.311   2.457  11.031 -1.6102 -0.3261 -0.3323
  623MOL0     H84066   8.187   2.433  11.221  1.6735 -1.0016 -0.8265
  623MOL0     H84067   7.795   2.517  11.473 -1.0423  1.2327 -0.3185
  623MOL0     H84068   7.635   2.439  11.675 -3.1279 -3.2546  0.9697
  623MOL0     H84069   7.468   2.196  11.758 -1.4561 -0.6313 -1.2238
  623MOL0     H84070   7.541   2.355  11.809  2.2754 -2.8225 -2.9383
  623MOL0     H84071   7.259   2.256  11.847  0.4186  0.5610 -1.7287
  623MOL0     H84072   7.384   2.285  11.969  3.9939  1.7311 -1.2570
  623MOL0     H84073   7.381   2.533  11.924 -1.3517  0.3003  3.0263
  623MOL0     H84074   7.240   2.502  11.818  0.4568  2.3427  0.1002
  623MOL0     H84075   7.219   2.381  12.089 -0.0740 -1.6415 -0.9303
  623MOL0     H84076   7.101   2.456  11.986  1.2990 -1.1834  0.8247
  623MOL0     H84077   7.310   2.585  12.163 -1.2258  1.6523  1.5928
  623MOL0     H84078   7.138   2.566  12.207 -0.1047 -0.4144  0.2821
  623MOL0     H84079   7.186   2.720  11.950  1.7468 -0.6537 -0.4587
  623MOL0     H84080   7.080   2.752  12.078  1.1222  2.0531 -0.8772
  623MOL0     H84081   7.378   2.801  12.130 -0.4243 -1.2946 -3.5240
  623MOL0     H84082   7.234   2.840  12.228  0.5119 -2.8987  0.6473
  623MOL0     H84083   7.320   3.037  12.080  1.0786 -0.0987 -1.1728
  623MOL0     H84084   7.247   2.937  11.950  4.2481 -1.8335  0.2898
  623MOL0     H84085   7.360   2.307  11.383  1.6051 -3.1106 -1.6982
  623MOL0     H84086   7.501   2.361  11.203  1.4528 -1.0937 -0.1513
  623MOL0     H84087   7.835   2.552  10.989  0.1741 -2.4657  1.6554
  623MOL0     H84088   7.993   2.564  10.787 -1.0732 -1.3623  0.3390
  623MOL0     H84089   8.294   3.788   9.769  0.9121  0.2390  2.9830
  623MOL0     H84090   8.214   3.880   9.538 -0.8237  1.1552 -0.4950
  623MOL0     H84091   7.967   4.212   9.349  0.9922 -1.7570 -0.4669
  623MOL0     H84092   7.920   4.350   9.168  0.9428 -3.5014  0.4230
  623MOL0     H84093   7.889   4.561   8.986 -0.9569  0.3926  0.5287
  623MOL0     H84094   7.960   4.409   8.972 -1.2699 -1.0525  3.7428
  623MOL0     H84095   8.071   4.643   8.827  4.4085 -0.4170 -0.6491
  623MOL0     H84096   7.975   4.515   8.754  0.9754 -2.3383  0.1995
  623MOL0     H84097   8.246   4.450   8.894 -1.5240  2.6836  1.3237
  623MOL0     H84098   8.248   4.502   8.738  2.0308  1.2472  4.0760
  623MOL0     H84099   8.264   4.258   8.753  1.8135  2.1596 -1.9835
  623MOL0     H84100   8.111   4.258   8.842 -1.4107  2.7454  1.5014
  623MOL0     H84101   8.080   4.324   8.395  3.4144 -1.9924 -1.2613
  623MOL0     H84102   8.294   4.552   9.217  0.9490 -0.2468  0.2818
  623MOL0     H84103   8.444   4.369   9.432 -0.5146 -0.1076  1.5627
  623MOL0     H84104   8.425   4.540   9.400  0.5884 -0.3767  0.9058
  623MOL0     H84105   8.356   4.469   9.549  1.4064  2.0249  0.7811
  624MOL0     O84106   1.878   1.306   2.986 -0.7049  0.3472 -1.0058
  624MOL0     C84107   1.787   1.350   3.050  0.4091  0.2880  0.8254
  624MOL0     O84108   1.784   1.374   3.188  0.0776  0.2880  0.0148
  624MOL0     C84109   1.901   1.386   3.255 -0.7078 -0.7820 -0.2376
  624MOL0     C84110   1.898   1.489   3.351  0.1214 -0.1935  0.0097
  624MOL0     C84111   2.009   1.504   3.434 -0.0399 -0.4868 -0.1925
  624MOL0     C84112   2.114   1.417   3.441  0.1364 -0.0697 -0.3576
  624MOL0     O84113   2.224   1.443   3.521  0.3947  0.3431 -0.8499
  624MOL0     C84114   2.319   1.521   3.442 -0.3175 -0.2072  0.3990
  624MOL0     C84115   2.450   1.451   3.459  0.2428  0.2726 -0.5266
  624MOL0     C84116   2.516   1.487   3.591 -0.2335  0.7267 -0.6949
  624MOL0     C84117   2.631   1.388   3.618 -0.7628 -0.2644 -0.6498
  624MOL0     C84118   2.717   1.441   3.729  0.8598  0.9370 -0.2316
  624MOL0     C84119   2.776   1.331   3.805  0.2086  0.8161  0.2150
  624MOL0     C84120   2.913   1.271   3.746  0.9659 -0.1882 -0.5847
  624MOL0     C84121   2.991   1.246   3.879 -0.6651 -0.2946 -0.1537
  624MOL0     N84122   3.128   1.189   3.879  0.3477  0.5569 -0.1687
  624MOL0     C84123   3.176   1.100   3.975  0.2424 -0.2602 -0.9139
  624MOL0     C84124   3.294   1.080   3.936 -0.2449 -0.2987 -0.5699
  624MOL0     C84125   3.383   0.985   4.013 -0.0128 -0.0483  0.5572
  624MOL0     C84126   3.448   1.044   4.140 -0.2567 -0.1437 -0.4795
  624MOL0     C84127   3.508   0.918   4.212 -1.1888 -0.8382 -0.2361
  624MOL0     C84128   3.569   0.952   4.347 -0.3532  0.2813  0.6010
  624MOL0     O84129   3.697   1.021   4.319  0.0974 -0.7690 -0.3595
  624MOL0     C84130   3.780   1.036   4.428 -0.3473 -0.4187  0.6219
  624MOL0     C84131   3.739   1.133   4.524 -0.6861  0.3455 -0.3452
  624MOL0     C84132   3.818   1.168   4.639  0.9144 -0.0321 -0.4320
  624MOL0     C84133   3.948   1.106   4.644  0.3545  0.0994 -0.2388
  624MOL0     C84134   4.040   1.150   4.757 -0.2349  0.4493 -0.4615
  624MOL0     O84135   4.150   1.076   4.788  0.6536  0.7604 -1.1259
  624MOL0     C84136   4.235   1.119   4.892 -0.3970  0.1351 -0.4347
  624MOL0     C84137   4.375   1.116   4.873 -0.2656 -0.1422 -0.2164
  624MOL0     C84138   4.461   1.143   4.971 -0.9365  0.2107  0.7709
  624MOL0     C84139   4.416   1.185   5.096 -0.2816  0.1534  0.1118
  624MOL0     O84140   4.498   1.190   5.205  0.1881  0.6947  0.3904
  624MOL0     C84141   4.632   1.207   5.185 -0.1087  1.3371 -0.4319
  624MOL0     C84142   4.716   1.241   5.305 -0.8825 -0.4696 -0.4122
  624MOL0     C84143   4.701   1.385   5.359 -0.4208 -0.0994  0.6562
  624MOL0     C84144   4.794   1.492   5.294  0.3044  0.4864  1.0747
  624MOL0     C84145   4.914   1.521   5.387  0.1220  1.0370  0.6022
  624MOL0     C84146   5.023   1.603   5.317  0.0954  0.2662 -1.0204
  624MOL0     C84147   4.978   1.738   5.268  0.2507  0.9699  0.2352
  624MOL0     C84148   4.923   1.823   5.389 -0.0989  0.8365 -0.4505
  624MOL0    Cl84149   5.047   1.898   5.499  0.5762 -0.4107  0.3796
  624MOL0     C84150   4.285   1.190   5.130  0.4099  0.9215  1.4558
  624MOL0     C84151   4.186   1.157   5.027  0.3900  1.1283 -0.5349
  624MOL0     O84152   4.019   1.260   4.798 -0.6206 -0.3682 -0.1141
  624MOL0     C84153   3.987   1.011   4.550  0.2917 -1.0006 -0.0468
  624MOL0     C84154   3.909   0.984   4.436  0.4274 -0.5721  0.5711
  624MOL0     N84155   3.313   1.138   3.812  0.7397  0.1108  0.6799
  624MOL0     N84156   3.214   1.213   3.779 -0.1216  0.3769 -1.4884
  624MOL0     C84157   2.117   1.315   3.344  0.7258 -0.0314  0.4948
  624MOL0     C84158   2.008   1.297   3.259 -1.0408  0.2027  2.1312
  624MOL0     C84159   1.650   1.363   2.984 -0.0223  0.7512 -0.0984
  624MOL0     C84160   1.536   1.375   3.069  0.2808  0.7497  0.7239
  624MOL0     C84161   1.406   1.400   3.019  0.3025 -0.9128  0.2419
  624MOL0     C84162   1.384   1.396   2.879  0.4418 -0.8214 -0.8542
  624MOL0     O84163   1.264   1.413   2.811 -0.1117  0.1564 -0.6941
  624MOL0     C84164   1.148   1.463   2.871  0.3438  1.5231  0.2056
  624MOL0     C84165   1.074   1.529   2.754  0.1072  0.0814 -0.3326
  624MOL0     C84166   0.994   1.429   2.672 -1.0460 -0.0804 -0.2985
  624MOL0     C84167   0.905   1.495   2.564 -0.7544 -0.4891  0.5840
  624MOL0     C84168   0.783   1.527   2.628 -0.4687 -0.7398 -0.1980
  624MOL0     C84169   0.679   1.552   2.680 -0.8096 -0.2582 -0.6204
  624MOL0     C84170   1.490   1.374   2.798 -0.4037 -0.9517  0.1332
  624MOL0     C84171   1.626   1.351   2.846 -0.1819 -0.1705 -0.5910
  624MOL0     C84172   1.736   1.342   2.738  0.1390  0.5675 -0.0355
  624MOL0     H84173   1.812   1.554   3.364 -0.3985 -0.7770 -0.4946
  624MOL0     H84174   1.998   1.588   3.501 -1.8316 -0.0848 -0.9033
  624MOL0     H84175   2.286   1.521   3.338 -1.8873 -2.7990  0.8031
  624MOL0     H84176   2.327   1.626   3.471  0.7150  0.7622 -3.0279
  624MOL0     H84177   2.521   1.475   3.380  2.2139  0.4987  1.2131
  624MOL0     H84178   2.432   1.344   3.448  0.0438  0.3279 -0.7376
  624MOL0     H84179   2.442   1.481   3.672  1.0024 -1.1008  0.3834
  624MOL0     H84180   2.565   1.584   3.580  0.1600  0.6916  0.6092
  624MOL0     H84181   2.577   1.299   3.652  1.1824 -0.9744  0.7145
  624MOL0     H84182   2.685   1.361   3.526 -2.4642  1.4931 -2.2682
  624MOL0     H84183   2.793   1.501   3.676  0.2940 -0.4487 -2.7667
  624MOL0     H84184   2.658   1.505   3.795  3.1354  1.2127  1.6823
  624MOL0     H84185   2.807   1.377   3.899  3.0079 -0.3130 -0.0795
  624MOL0     H84186   2.707   1.248   3.821  0.7951  0.0525 -1.0403
  624MOL0     H84187   2.970   1.343   3.687  1.2732 -0.1064 -0.1935
  624MOL0     H84188   2.892   1.187   3.680 -1.6175  1.0303 -1.4561
  624MOL0     H84189   3.005   1.342   3.929 -0.2460 -0.2810 -0.2939
  624MOL0     H84190   2.941   1.186   3.956  1.7991 -0.4034  1.4717
  624MOL0     H84191   3.123   1.060   4.061  0.4387 -1.3664 -1.2892
  624MOL0     H84192   3.317   0.899   4.029 -1.6145  0.4173 -2.7186
  624MOL0     H84193   3.466   0.948   3.951  0.3918  0.5863  0.7057
  624MOL0     H84194   3.524   1.115   4.106  1.2075 -1.9064 -1.0144
  624MOL0     H84195   3.367   1.091   4.197 -1.9357  0.1245 -2.9193
  624MOL0     H84196   3.584   0.866   4.154  1.1286  1.2711  0.7479
  624MOL0     H84197   3.425   0.850   4.235 -0.6629 -0.5757  2.8800
  624MOL0     H84198   3.593   0.862   4.404 -0.9572 -0.9282 -0.9736
  624MOL0     H84199   3.499   1.012   4.406  2.6395  3.5499  1.1605
  624MOL0     H84200   3.646   1.187   4.508  0.0037  2.0575  1.0019
  624MOL0     H84201   3.786   1.216   4.731  0.9770 -1.5509  0.4157
  624MOL0     H84202   4.414   1.100   4.774  2.2568  0.7975  0.5450
  624MOL0     H84203   4.568   1.138   4.954 -0.8965 -0.2712  1.1522
  624MOL0     H84204   4.679   1.113   5.153 -1.7193 -1.0154  3.3863
  624MOL0     H84205   4.650   1.288   5.114 -3.8691  2.3585 -0.4277
  624MOL0     H84206   4.704   1.170   5.388 -0.3295 -0.1614 -0.0584
  624MOL0     H84207   4.818   1.235   5.264 -0.9093  0.3962 -0.6395
  624MOL0     H84208   4.602   1.425   5.334 -0.4876 -0.3666  0.4931
  624MOL0     H84209   4.700   1.396   5.468 -2.2943 -0.9416  0.7766
  624MOL0     H84210   4.734   1.579   5.267 -1.6396 -0.9969  0.4457
  624MOL0     H84211   4.821   1.461   5.193  1.8734  2.1808  0.9024
  624MOL0     H84212   4.964   1.429   5.420 -3.1403 -0.7372  1.0415
  624MOL0     H84213   4.875   1.569   5.477 -1.4480  2.7902 -0.9316
  624MOL0     H84214   5.106   1.604   5.387 -0.1735 -2.9762 -0.5074
  624MOL0     H84215   5.069   1.539   5.242  0.3565  1.0282 -1.5235
  624MOL0     H84216   4.904   1.736   5.188  0.3277  3.0009  0.0615
  624MOL0     H84217   5.062   1.785   5.217 -1.8363  1.9272 -2.5586
  624MOL0     H84218   4.860   1.902   5.348  0.0160 -0.1004 -2.5769
  624MOL0     H84219   4.857   1.758   5.447  1.2057 -1.2971 -1.2222
  624MOL0     H84220   4.267   1.194   5.237  2.7731 -3.9570  2.3199
  624MOL0     H84221   4.081   1.148   5.055  1.2353 -2.5049  2.1362
  624MOL0     H84222   4.082   0.961   4.569  2.4674  1.9824 -2.2148
  624MOL0     H84223   3.950   0.920   4.359  2.3753  0.2566  0.8726
  624MOL0     H84224   2.202   1.250   3.331 -0.0043 -0.7414 -0.9248
  624MOL0     H84225   2.009   1.205   3.201  2.5028 -0.2452  2.7012
  624MOL0     H84226   1.540   1.358   3.177  1.8165 -0.8812  0.4573
  624MOL0     H84227   1.339   1.423   3.102  1.2703 -0.2835  0.8685
  624MOL0     H84228   1.168   1.537   2.950  1.8592  0.1963  1.1206
  624MOL0     H84229   1.093   1.381   2.918  0.4503  2.0366  1.2501
  624MOL0     H84230   1.149   1.587   2.700 -1.4993  1.3495 -1.3089
  624MOL0     H84231   0.994   1.594   2.793 -0.7043 -0.3550 -1.2308
  624MOL0     H84232   0.930   1.366   2.734 -2.1845 -0.0610 -1.4148
  624MOL0     H84233   1.075   1.377   2.619  0.6034  2.2994 -0.3003
  624MOL0     H84234   0.949   1.585   2.520 -2.0843  0.0803  0.3633
  624MOL0     H84235   0.861   1.426   2.490  0.4806 -0.0116 -0.6325
  624MOL0     H84236   0.606   1.591   2.749  0.8659  0.7042  0.6857
  624MOL0     H84237   1.456   1.371   2.695 -3.0879 -0.4421  0.9281
  624MOL0     H84238   1.821   1.277   2.760 -1.6175 -0.9969  2.8072
  624MOL0     H84239   1.699   1.325   2.637  0.4585 -1.3384  0.1339
  624MOL0     H84240   1.775   1.443   2.725  0.4268  0.5072  0.3462
  625MOL0     O84241   5.792   4.104  10.382  0.4775 -1.0251 -0.2945
  625MOL0     C84242   5.817   4.092  10.263 -0.4041  0.6065  1.1702
  625MOL0     O84243   5.941   4.073  10.203  0.4769  0.0606  0.3820
  625MOL0     C84244   6.057   4.080  10.280  0.8955  0.5117  0.3997
  625MOL0     C84245   6.073   4.200  10.361 -0.0229  0.5700 -0.0613
  625MOL0     C84246   6.188   4.221  10.435  0.0668 -0.3695  0.7748
  625MOL0     C84247   6.282   4.116  10.441  1.0781 -0.9584  0.1065
  625MOL0     O84248   6.392   4.139  10.517  0.4059 -0.2970  0.5295
  625MOL0     C84249   6.446   4.030  10.591 -0.0640  1.0952 -0.4864
  625MOL0     C84250   6.527   4.097  10.692 -0.0262 -0.0968 -0.0779
  625MOL0     C84251   6.605   4.014  10.793 -0.3864  0.8089 -0.7939
  625MOL0     C84252   6.709   4.090  10.883  0.6993 -0.8072  0.3951
  625MOL0     C84253   6.658   4.221  10.952  0.2141 -1.0965 -0.5936
  625MOL0     C84254   6.667   4.358  10.864  0.1310  0.4522 -0.1968
  625MOL0     C84255   6.689   4.488  10.940  0.1366  0.1411 -0.5714
  625MOL0     C84256   6.618   4.498  11.075 -0.0298 -0.0610 -0.0865
  625MOL0     N84257   6.479   4.480  11.053  0.2806 -0.0077  0.5095
  625MOL0     C84258   6.394   4.540  10.967  0.2730 -0.2873 -0.5100
  625MOL0     C84259   6.280   4.478  10.983  0.4877 -0.4146 -0.6143
  625MOL0     C84260   6.163   4.523  10.906 -0.0327  0.1065  0.5116
  625MOL0     C84261   6.049   4.417  10.906 -0.5655  0.8933 -0.8238
  625MOL0     C84262   5.930   4.453  10.804  0.1589 -0.4255  1.1014
  625MOL0     C84263   5.859   4.329  10.759  0.8431  0.0298  0.0609
  625MOL0     O84264   5.803   4.264  10.870  0.2164 -0.4959 -0.0202
  625MOL0     C84265   5.729   4.151  10.850  0.4934 -0.7101  0.3672
  625MOL0     C84266   5.706   4.080  10.734  0.1073 -0.2990 -0.0429
  625MOL0     C84267   5.645   3.957  10.736  0.8087 -0.7015 -0.0544
  625MOL0     C84268   5.584   3.908  10.860 -0.5977  0.0046 -0.1238
  625MOL0     C84269   5.502   3.785  10.851  0.0450 -0.8599 -0.7085
  625MOL0     O84270   5.380   3.777  10.932  0.2668  0.2641  0.2703
  625MOL0     C84271   5.287   3.675  10.903  0.4999  0.3297  0.0330
  625MOL0     C84272   5.164   3.719  10.859  0.1528 -0.0989 -0.5610
  625MOL0     C84273   5.065   3.632  10.804 -0.2163  0.3078 -0.0866
  625MOL0     C84274   5.094   3.497  10.817 -0.9232  0.5513  0.5690
  625MOL0     O84275   5.014   3.396  10.781  0.6656  0.0398 -0.0216
  625MOL0     C84276   4.926   3.420  10.668  0.3131  0.3797 -0.1965
  625MOL0     C84277   4.899   3.300  10.587  0.0410  0.2338  0.5947
  625MOL0     C84278   4.800   3.337  10.468 -0.0235  0.4046  0.3928
  625MOL0     C84279   4.801   3.223  10.368 -0.0105  0.0915  0.3369
  625MOL0     C84280   4.852   3.262  10.223 -0.1250  0.5243 -0.6378
  625MOL0     C84281   4.754   3.324  10.127  0.3160  0.4018  0.1377
  625MOL0     C84282   4.824   3.337   9.980 -0.5602  0.2732  0.2669
  625MOL0     C84283   4.915   3.461   9.980 -0.2165  0.1995 -0.4588
  625MOL0    Cl84284   4.834   3.605  10.041  0.0971 -0.2755  0.2282
  625MOL0     C84285   5.219   3.452  10.858 -0.3029  0.6083 -0.3991
  625MOL0     C84286   5.319   3.537  10.901 -0.8204  0.6093 -0.4622
  625MOL0     O84287   5.549   3.702  10.778  0.9699 -0.2970  1.4389
  625MOL0     C84288   5.584   3.990  10.971  0.0370  0.0661 -0.6967
  625MOL0     C84289   5.665   4.103  10.964 -0.4576 -0.2950  0.2190
  625MOL0     N84290   6.287   4.385  11.083 -0.5527 -0.0883 -0.2073
  625MOL0     N84291   6.401   4.386  11.121  0.3009  0.1173 -0.3679
  625MOL0     C84292   6.265   3.996  10.366 -0.8414 -0.5330 -1.0247
  625MOL0     C84293   6.150   3.973  10.295  0.4142 -0.7026  0.4119
  625MOL0     C84294   5.698   4.080  10.162 -0.2338  0.1455 -0.1833
  625MOL0     C84295   5.722   4.118  10.027 -1.0997  0.1079 -0.9555
  625MOL0     C84296   5.608   4.143   9.946  0.0913 -0.2622  0.6488
  625MOL0     C84297   5.480   4.130   9.993  1.0801 -0.9353  0.7126
  625MOL0     O84298   5.365   4.141   9.914 -0.2397  0.4604 -0.2699
  625MOL0     C84299   5.381   4.199   9.783  0.0872 -0.1729  0.3249
  625MOL0     C84300   5.246   4.202   9.727  0.2279 -0.2884  0.5739
  625MOL0     C84301   5.236   4.235   9.575  0.8010 -0.0412 -0.3051
  625MOL0     C84302   5.094   4.202   9.521  0.0862  0.6473  0.1682
  625MOL0     C84303   5.095   4.251   9.381  0.0350  0.9651 -0.4989
  625MOL0     C84304   5.103   4.288   9.265  0.3443  0.0031 -0.4155
  625MOL0     C84305   5.457   4.082  10.123  0.5665  0.0239  1.2122
  625MOL0     C84306   5.563   4.061  10.213 -0.9054 -0.5088  0.3998
  625MOL0     C84307   5.516   4.005  10.349 -0.2984 -1.0560 -0.1993
  625MOL0     H84308   6.010   4.287  10.347 -1.6813 -0.6595 -0.7199
  625MOL0     H84309   6.204   4.320  10.478  2.3038  1.3233 -3.2614
  625MOL0     H84310   6.369   3.982  10.651 -1.2765  2.2527 -1.0501
  625MOL0     H84311   6.504   3.968  10.523  1.6272  3.6032 -1.4807
  625MOL0     H84312   6.461   4.157  10.756  1.9577  1.8303  0.2535
  625MOL0     H84313   6.596   4.166  10.644  0.2916  0.4611  1.1415
  625MOL0     H84314   6.655   3.932  10.739 -2.7618 -0.9998 -0.4211
  625MOL0     H84315   6.536   3.968  10.863  0.1921  0.3386 -0.5220
  625MOL0     H84316   6.756   4.030  10.961  1.7090  2.2720  2.3513
  625MOL0     H84317   6.787   4.108  10.809  1.4982 -2.3544  0.8321
  625MOL0     H84318   6.556   4.197  10.984 -0.0400 -1.6573 -1.7540
  625MOL0     H84319   6.708   4.246  11.046 -0.4218  0.0713 -0.5411
  625MOL0     H84320   6.753   4.342  10.798 -0.7798 -0.2164 -1.2668
  625MOL0     H84321   6.580   4.375  10.800 -1.1121  0.5702  1.4493
  625MOL0     H84322   6.646   4.566  10.877 -2.1581  0.5480  1.3311
  625MOL0     H84323   6.794   4.504  10.964 -0.0150  5.5924 -2.1982
  625MOL0     H84324   6.646   4.420  11.147 -4.3666 -1.7095  0.0811
  625MOL0     H84325   6.640   4.590  11.130  1.4762 -0.8374  0.6761
  625MOL0     H84326   6.428   4.617  10.899  1.3553 -0.0392  0.2816
  625MOL0     H84327   6.140   4.618  10.954  0.1556 -0.0459  0.9135
  625MOL0     H84328   6.193   4.533  10.801  2.0338  0.1513  1.0739
  625MOL0     H84329   6.099   4.321  10.893  2.6298  2.2962  0.2765
  625MOL0     H84330   6.013   4.411  11.009 -3.0696  1.2958 -1.5973
  625MOL0     H84331   5.977   4.499  10.717 -0.6384 -1.9145 -0.1803
  625MOL0     H84332   5.856   4.522  10.846  0.0688  0.2219 -0.0733
  625MOL0     H84333   5.934   4.268  10.708  0.8847  2.4890 -3.1544
  625MOL0     H84334   5.784   4.352  10.682  2.6074 -0.2658 -1.8358
  625MOL0     H84335   5.730   4.108  10.631 -1.5847  3.6260  0.4356
  625MOL0     H84336   5.658   3.904  10.643  1.5494 -2.7009  1.1205
  625MOL0     H84337   5.159   3.827  10.856  2.3693  0.0145 -2.0860
  625MOL0     H84338   4.975   3.677  10.764 -0.5901  0.8720  1.3501
  625MOL0     H84339   4.837   3.452  10.724 -0.3753 -1.2683 -0.3191
  625MOL0     H84340   4.970   3.501  10.609  4.4841  1.3341  3.6274
  625MOL0     H84341   4.983   3.259  10.530 -0.9547 -0.6423 -0.2963
  625MOL0     H84342   4.860   3.228  10.659 -1.1452 -0.7923 -0.9920
  625MOL0     H84343   4.701   3.331  10.515 -1.0058  3.7161 -0.9091
  625MOL0     H84344   4.814   3.434  10.420 -0.2979  0.3723  0.2418
  625MOL0     H84345   4.701   3.179  10.361 -0.2616  0.6969  0.0841
  625MOL0     H84346   4.866   3.142  10.405  1.0978 -0.0208 -1.6983
  625MOL0     H84347   4.893   3.168  10.185  1.9407  0.4228  1.6450
  625MOL0     H84348   4.939   3.324  10.241  0.1903 -0.6949  2.6133
  625MOL0     H84349   4.658   3.273  10.116  0.0358  1.3721 -3.0226
  625MOL0     H84350   4.722   3.425  10.156  2.9436  2.4634 -3.2390
  625MOL0     H84351   4.751   3.337   9.898 -3.2444 -3.6764  2.3482
  625MOL0     H84352   4.884   3.246   9.964 -1.2875 -0.3857  1.1981
  625MOL0     H84353   4.995   3.445  10.053 -1.2381  1.5239  1.0364
  625MOL0     H84354   4.953   3.487   9.881 -1.2021  1.7282 -0.4704
  625MOL0     H84355   5.246   3.348  10.860 -1.6780  0.2338 -0.0688
  625MOL0     H84356   5.422   3.506  10.911 -1.0146  0.1936  0.2786
  625MOL0     H84357   5.525   3.969  11.059 -1.1513  1.5659 -1.0889
  625MOL0     H84358   5.675   4.148  11.063  1.4755  4.3648 -1.7765
  625MOL0     H84359   6.335   3.913  10.368 -0.8191 -0.5440 -1.9921
  625MOL0     H84360   6.140   3.876  10.248 -1.8336  0.2074 -1.1623
  625MOL0     H84361   5.820   4.121   9.981 -1.0381  0.7904 -0.7795
  625MOL0     H84362   5.631   4.156   9.840  0.9527 -3.3716  0.3431
  625MOL0     H84363   5.441   4.137   9.716  0.0880 -0.6680  0.7769
  625MOL0     H84364   5.431   4.295   9.797 -1.6589  0.6648  1.0954
  625MOL0     H84365   5.189   4.286   9.769 -1.1258  1.2178 -3.7775
  625MOL0     H84366   5.190   4.111   9.753 -1.5068  0.5055 -0.2486
  625MOL0     H84367   5.309   4.172   9.524  0.3773  0.1228 -1.1374
  625MOL0     H84368   5.261   4.341   9.569 -0.7664  0.2795 -2.2574
  625MOL0     H84369   5.062   4.097   9.528  3.7455 -0.9859 -3.5681
  625MOL0     H84370   5.031   4.267   9.582  0.7095  0.6224  0.8577
  625MOL0     H84371   5.090   4.331   9.167 -3.0607 -2.9816 -1.4866
  625MOL0     H84372   5.359   4.044  10.148  0.8227 -3.3475 -1.9333
  625MOL0     H84373   5.575   3.916  10.373  3.0176  0.9708 -0.1952
  625MOL0     H84374   5.549   4.080  10.422  0.6345  0.1054 -1.7415
  625MOL0     H84375   5.407   3.994  10.348 -0.4743 -0.0950  2.1349
  626MOL0     O84376  10.811   7.324   3.859 -0.6654 -0.2602  1.2302
  626MOL0     C84377  10.761   7.407   3.777  0.1575 -0.4092 -0.1896
  626MOL0     O84378  10.832   7.506   3.699 -0.4077  0.2465  0.6357
  626MOL0     C84379  10.967   7.519   3.729  0.2582 -0.1958 -0.5541
  626MOL0     C84380  11.071   7.432   3.698 -0.2882 -0.2271 -0.7039
  626MOL0     C84381  11.198   7.481   3.726 -0.1696 -0.5391  0.6871
  626MOL0     C84382  11.227   7.607   3.779 -0.7625 -0.5577 -0.0980
  626MOL0     O84383  11.362   7.631   3.801 -0.0761  0.6346  0.0668
  626MOL0     C84384  11.406   7.767   3.792 -0.8240  0.3062  0.1714
  626MOL0     C84385  11.399   7.818   3.647  0.4420  0.5316  0.8760
  626MOL0     C84386  11.414   7.969   3.656 -0.3912  0.0690 -0.4379
  626MOL0     C84387  11.562   8.014   3.661 -0.6426 -0.0079 -0.3630
  626MOL0     C84388  11.570   8.170   3.638 -0.1118  0.5537  0.1694
  626MOL0     C84389  11.710   8.219   3.682 -0.0319  0.4372  0.0921
  626MOL0     C84390  11.816   8.234   3.573 -0.3499 -0.1375  0.7972
  626MOL0     C84391  11.945   8.271   3.647 -0.3999  0.2183  0.6164
  626MOL0     N84392  12.056   8.250   3.545 -0.0953  0.5951  0.7297
  626MOL0     C84393  12.074   8.331   3.438 -0.2971 -0.2328 -0.8513
  626MOL0     C84394  12.195   8.311   3.383  0.6983 -0.1601 -0.0698
  626MOL0     C84395  12.249   8.370   3.256 -0.1111 -0.9292 -0.0828
  626MOL0     C84396  12.372   8.459   3.281  0.9299  0.4303  1.1773
  626MOL0     C84397  12.448   8.498   3.148  0.1507 -1.0431  0.0602
  626MOL0     C84398  12.592   8.541   3.169 -0.3088  0.1345 -0.1683
  626MOL0     O84399  12.596   8.646   3.271  0.0983 -0.0797  0.0685
  626MOL0     C84400  12.718   8.710   3.294 -0.0921  0.1394 -0.0286
  626MOL0     C84401  12.829   8.699   3.211 -0.4764  0.0956  0.7997
  626MOL0     C84402  12.947   8.777   3.244  0.0688  0.7490 -0.3795
  626MOL0     C84403  12.939   8.867   3.360 -0.5236  0.1696 -0.2935
  626MOL0     C84404  13.057   8.948   3.381  0.3518 -0.4947 -0.3737
  626MOL0     O84405  13.042   9.056   3.463 -0.3172 -0.5196 -0.3229
  626MOL0     C84406  13.139   9.158   3.477 -0.8901  0.7166  0.0877
  626MOL0     C84407  13.279   9.131   3.502  0.8192 -0.1746 -0.5065
  626MOL0     C84408  13.362   9.235   3.541  0.2363  0.7075  0.0433
  626MOL0     C84409  13.320   9.364   3.540  0.5445  0.3079 -0.4451
  626MOL0     O84410  13.407   9.456   3.584  0.0410  0.1340  0.1298
  626MOL0     C84411  13.349   9.543   3.684 -0.6379 -0.2189  1.1907
  626MOL0     C84412  13.462   9.623   3.757 -0.4083 -0.6538  0.3432
  626MOL0     C84413  13.562   9.530   3.822 -0.5548 -0.3042  0.3245
  626MOL0     C84414  13.696   9.595   3.831  0.3974 -0.3729  0.4028
  626MOL0     C84415  13.808   9.492   3.850  0.3973  0.2798  0.2195
  626MOL0     C84416  13.941   9.572   3.862 -0.4618  0.1990  0.6540
  626MOL0     C84417  14.045   9.473   3.902 -0.1389 -0.0626 -0.1650
  626MOL0     C84418  14.185   9.529   3.883 -0.0011  0.0172 -0.1758
  626MOL0    Cl84419  14.211   9.665   3.983  0.0078 -0.2544  0.2449
  626MOL0     C84420  13.180   9.387   3.527  0.1098 -0.3834 -0.5139
  626MOL0     C84421  13.098   9.282   3.490  0.3749 -1.1226 -1.0710
  626MOL0     O84422  13.160   8.921   3.320 -0.5776  0.1793 -1.0000
  626MOL0     C84423  12.827   8.866   3.448 -0.3149 -0.0174 -0.1897
  626MOL0     C84424  12.714   8.795   3.410 -0.0361  0.5735  0.2212
  626MOL0     N84425  12.245   8.207   3.459  0.1842  0.5453 -0.3795
  626MOL0     N84426  12.164   8.175   3.554 -0.2520  0.3628  0.2178
  626MOL0     C84427  11.123   7.693   3.810  0.4207  0.6474  0.0405
  626MOL0     C84428  10.996   7.643   3.780 -0.4035 -0.3058 -0.1976
  626MOL0     C84429  10.613   7.427   3.771 -0.2201  0.3511  0.5772
  626MOL0     C84430  10.562   7.509   3.668 -1.3815  0.4551 -0.1420
  626MOL0     C84431  10.429   7.517   3.655 -0.5685  0.1356 -0.6594
  626MOL0     C84432  10.333   7.455   3.734 -0.4761 -0.8736  0.7935
  626MOL0     O84433  10.201   7.469   3.706 -0.0197  0.3005  0.4277
  626MOL0     C84434  10.118   7.347   3.716  0.2863  0.4794  0.4317
  626MOL0     C84435   9.965   7.371   3.692 -0.5947  0.8266 -0.8991
  626MOL0     C84436   9.887   7.277   3.782 -0.6214 -0.0711  0.1229
  626MOL0     C84437   9.733   7.307   3.778  0.1749 -0.3744  0.0964
  626MOL0     C84438   9.709   7.411   3.877  0.6639 -0.4740  1.5305
  626MOL0     C84439   9.682   7.491   3.959 -0.8733 -0.7763  0.0742
  626MOL0     C84440  10.382   7.381   3.839 -0.0470  0.0108 -0.1652
  626MOL0     C84441  10.519   7.362   3.857  0.5786  0.6614 -0.1358
  626MOL0     C84442  10.552   7.279   3.980 -0.0353  0.0627  0.8638
  626MOL0     H84443  11.063   7.328   3.667  3.4953 -0.4429 -1.4916
  626MOL0     H84444  11.275   7.413   3.692 -2.4502 -3.9549  1.8129
  626MOL0     H84445  11.351   7.833   3.860  0.5560 -0.6072  2.2793
  626MOL0     H84446  11.505   7.754   3.836 -0.7779  1.9133  0.6104
  626MOL0     H84447  11.303   7.792   3.601  0.8749 -1.8172  1.1679
  626MOL0     H84448  11.489   7.774   3.601  0.0104 -2.6677  2.8082
  626MOL0     H84449  11.364   8.013   3.743 -1.3611  0.8038 -1.3339
  626MOL0     H84450  11.381   8.008   3.559  0.3542 -0.6471 -0.9880
  626MOL0     H84451  11.606   7.975   3.754 -2.0117 -0.5472  0.0908
  626MOL0     H84452  11.622   7.960   3.588  1.4854 -1.4310  2.2543
  626MOL0     H84453  11.555   8.194   3.533 -0.3146  0.9720  0.2929
  626MOL0     H84454  11.488   8.215   3.695  0.2635  1.5970 -0.0928
  626MOL0     H84455  11.693   8.314   3.733 -3.2065  0.5464 -0.9600
  626MOL0     H84456  11.738   8.146   3.758 -5.6624 -2.2682  0.0635
  626MOL0     H84457  11.784   8.316   3.508 -2.2476 -1.0061  0.5652
  626MOL0     H84458  11.837   8.146   3.511  2.2156 -0.2853  1.7271
  626MOL0     H84459  11.955   8.374   3.682  0.2326  0.5792 -0.6082
  626MOL0     H84460  11.963   8.215   3.740  1.4827 -2.3791 -1.1585
  626MOL0     H84461  11.996   8.387   3.387  1.1375  0.7833 -1.9994
  626MOL0     H84462  12.287   8.293   3.189 -0.9182 -1.2205 -0.2255
  626MOL0     H84463  12.167   8.425   3.208  0.4612 -0.8698 -1.0038
  626MOL0     H84464  12.342   8.543   3.344  3.4483  1.8392  0.6416
  626MOL0     H84465  12.443   8.398   3.337  2.4568  2.0454  1.1259
  626MOL0     H84466  12.397   8.580   3.097  2.9086  0.3337 -0.6891
  626MOL0     H84467  12.442   8.403   3.094 -1.6077 -1.7474  1.4161
  626MOL0     H84468  12.635   8.573   3.073 -0.6853  2.4494  0.3673
  626MOL0     H84469  12.666   8.473   3.212  0.8376  0.9629 -0.7541
  626MOL0     H84470  12.842   8.637   3.123  2.1883  1.3289  0.2338
  626MOL0     H84471  13.038   8.767   3.186  0.8252  0.9130  0.7357
  626MOL0     H84472  13.328   9.034   3.496  0.9023 -0.0638 -2.3359
  626MOL0     H84473  13.470   9.222   3.547  0.3918  2.0938  0.8599
  626MOL0     H84474  13.282   9.616   3.639 -1.7704 -1.2975  1.0679
  626MOL0     H84475  13.298   9.496   3.768  1.3932  1.1954  3.3478
  626MOL0     H84476  13.507   9.699   3.692  3.0606 -2.6464  0.1612
  626MOL0     H84477  13.421   9.687   3.835 -6.8458  0.4662 -3.2759
  626MOL0     H84478  13.520   9.509   3.921  0.0201 -1.1338  0.4001
  626MOL0     H84479  13.560   9.431   3.777  1.6193 -0.6577  0.9022
  626MOL0     H84480  13.692   9.681   3.898 -0.0591  0.2151 -0.3658
  626MOL0     H84481  13.711   9.641   3.733 -0.3963  0.0057  0.4531
  626MOL0     H84482  13.815   9.425   3.764 -1.8219  1.1078 -0.6602
  626MOL0     H84483  13.798   9.441   3.947  2.3413  3.2609  2.1869
  626MOL0     H84484  13.961   9.620   3.766 -0.8945  2.7005  1.7527
  626MOL0     H84485  13.943   9.641   3.946  0.3173  1.1010 -0.0910
  626MOL0     H84486  14.036   9.378   3.847  0.2187 -0.8747  1.1445
  626MOL0     H84487  14.026   9.452   4.007  0.4297  0.0072 -0.0470
  626MOL0     H84488  14.260   9.454   3.910  2.0078  1.5814 -1.0796
  626MOL0     H84489  14.198   9.555   3.777 -1.0499  0.8669 -0.1050
  626MOL0     H84490  13.132   9.484   3.542  1.6142  0.0210  2.4305
  626MOL0     H84491  12.991   9.300   3.479  0.9395  1.8354 -2.7205
  626MOL0     H84492  12.817   8.929   3.536  2.1108  0.9387 -0.5151
  626MOL0     H84493  12.618   8.801   3.461  0.2045 -2.6065  1.2783
  626MOL0     H84494  11.132   7.790   3.860 -0.2029  1.7760 -1.9502
  626MOL0     H84495  10.909   7.701   3.810  0.1539 -0.2513  1.3989
  626MOL0     H84496  10.625   7.554   3.592 -0.6693  0.6543  0.5471
  626MOL0     H84497  10.391   7.566   3.566 -0.0508 -2.2721 -2.3123
  626MOL0     H84498  10.127   7.303   3.815 -0.6849 -0.1672  0.2404
  626MOL0     H84499  10.162   7.286   3.636  2.7453  2.5392  0.0451
  626MOL0     H84500   9.933   7.353   3.589 -0.9924  0.8875 -0.7890
  626MOL0     H84501   9.932   7.465   3.737  3.1878  1.8079  0.1729
  626MOL0     H84502   9.923   7.285   3.885 -0.5649 -4.9747  0.7556
  626MOL0     H84503   9.901   7.172   3.755 -0.4585  0.3865 -1.7168
  626MOL0     H84504   9.688   7.336   3.682 -1.9673  2.4141  1.7870
  626MOL0     H84505   9.690   7.212   3.811 -1.2919 -0.6404 -2.3339
  626MOL0     H84506   9.666   7.574   4.024  0.8986  1.5662 -2.2640
  626MOL0     H84507  10.317   7.324   3.904  1.5038  1.1151  2.5200
  626MOL0     H84508  10.645   7.295   4.035  0.8690  0.5361 -0.7211
  626MOL0     H84509  10.469   7.288   4.050  0.3507 -1.3557  1.5416
  626MOL0     H84510  10.560   7.176   3.945  1.9064  0.7008 -0.8188
  627MOL0     O84511   7.366  10.386   8.888  0.3760 -0.0884 -0.0966
  627MOL0     C84512   7.245  10.403   8.898  0.2597  0.6723 -0.4366
  627MOL0     O84513   7.165  10.331   8.980 -1.0204 -0.2851 -0.4080
  627MOL0     C84514   7.220  10.242   9.069 -0.3388 -0.2862 -0.4251
  627MOL0     C84515   7.263  10.285   9.194 -0.8324 -1.0727 -0.1630
  627MOL0     C84516   7.304  10.194   9.295  0.1951  1.0730  0.0085
  627MOL0     C84517   7.285  10.057   9.263  0.8417 -0.1519 -0.1623
  627MOL0     O84518   7.301   9.958   9.354 -0.0859 -0.0639  0.0840
  627MOL0     C84519   7.418   9.957   9.442  0.6858  1.0307  0.1761
  627MOL0     C84520   7.540   9.911   9.373 -1.2192 -0.5798  0.3282
  627MOL0     C84521   7.643   9.840   9.469  0.3518 -0.3962 -0.5770
  627MOL0     C84522   7.693   9.938   9.574 -0.1226  0.8000 -0.7625
  627MOL0     C84523   7.805   9.864   9.663  0.3090  0.9474  0.9259
  627MOL0     C84524   7.854   9.970   9.762 -0.4090  0.1196 -1.0077
  627MOL0     C84525   7.920   9.913   9.896 -0.5031 -0.4492  0.1082
  627MOL0     C84526   7.981  10.031   9.988 -0.0752 -0.3666  0.0539
  627MOL0     N84527   8.046   9.991  10.112 -0.0437 -0.4523  0.7228
  627MOL0     C84528   7.984   9.982  10.237 -0.5212 -0.7994  0.3242
  627MOL0     C84529   8.086   9.943  10.318  1.6187  0.7153 -0.0634
  627MOL0     C84530   8.087   9.930  10.465 -0.6301  0.0462  0.3135
  627MOL0     C84531   8.012   9.829  10.539  0.3178  0.4668  0.1944
  627MOL0     C84532   8.065   9.691  10.521 -1.1763  0.9303 -1.0491
  627MOL0     C84533   8.216   9.667  10.512 -0.1650 -0.1772 -0.0765
  627MOL0     O84534   8.278   9.703  10.637 -0.4668 -0.5143  0.1291
  627MOL0     C84535   8.302   9.614  10.736  0.8529  1.3084  0.4787
  627MOL0     C84536   8.341   9.484  10.707  0.1915  0.1419  0.0537
  627MOL0     C84537   8.369   9.389  10.812  0.7178  0.1267  0.5189
  627MOL0     C84538   8.341   9.427  10.939  0.1070  0.2184  1.2286
  627MOL0     C84539   8.347   9.311  11.042 -0.5008 -0.7570  0.5392
  627MOL0     O84540   8.348   9.348  11.174  0.8293 -1.0827  1.0730
  627MOL0     C84541   8.358   9.255  11.272 -1.2053 -0.1677  0.6152
  627MOL0     C84542   8.288   9.137  11.277  0.2198 -0.1801  0.6724
  627MOL0     C84543   8.301   9.051  11.387  1.0873 -0.0762  0.3592
  627MOL0     C84544   8.381   9.074  11.503  0.3729  0.0153 -0.6822
  627MOL0     O84545   8.396   8.972  11.598 -0.2418 -0.5024  0.2391
  627MOL0     C84546   8.506   8.981  11.690 -0.1252  0.8332 -0.5648
  627MOL0     C84547   8.491   8.868  11.793 -0.2044 -0.2636  0.0986
  627MOL0     C84548   8.613   8.857  11.882 -0.2053 -0.3262  0.1092
  627MOL0     C84549   8.607   8.745  11.992 -0.1923 -0.0971  0.0211
  627MOL0     C84550   8.672   8.774  12.124 -0.0054  0.5422 -0.3972
  627MOL0     C84551   8.825   8.771  12.122  0.2641 -0.2805 -0.5709
  627MOL0     C84552   8.892   8.791  12.260  0.5919  0.1228 -0.1967
  627MOL0     C84553   9.042   8.754  12.264 -0.8226 -0.2977 -0.8864
  627MOL0    Cl84554   9.106   8.762  12.442  0.0347  0.1133 -0.4143
  627MOL0     C84555   8.448   9.195  11.503 -0.4657 -0.1576 -0.8023
  627MOL0     C84556   8.439   9.286  11.386 -0.3422 -0.5090 -1.1191
  627MOL0     O84557   8.356   9.196  10.998  0.2318  0.7161 -0.9121
  627MOL0     C84558   8.329   9.562  10.968  0.3472  0.4114 -0.0434
  627MOL0     C84559   8.303   9.650  10.867 -0.8529 -0.9645 -0.0423
  627MOL0     N84560   8.199   9.925  10.241 -0.7166 -0.3348  0.3598
  627MOL0     N84561   8.171   9.949  10.120 -0.6927  0.3942 -0.0817
  627MOL0     C84562   7.245  10.021   9.137  0.9244 -0.6124  0.6936
  627MOL0     C84563   7.215  10.111   9.041 -0.3244 -0.1328  0.4732
  627MOL0     C84564   7.177  10.499   8.810 -0.2643  1.2377  0.2197
  627MOL0     C84565   7.046  10.473   8.775  0.2468  0.1962 -0.3791
  627MOL0     C84566   6.977  10.566   8.692 -0.4610 -0.1854  0.1473
  627MOL0     C84567   7.034  10.685   8.646 -0.3074 -0.5005  0.1325
  627MOL0     O84568   6.975  10.767   8.549 -0.5299 -0.2732 -1.3468
  627MOL0     C84569   6.831  10.757   8.544  0.0810  0.0246  0.4460
  627MOL0     C84570   6.775  10.847   8.439  1.1128  0.2642 -0.5006
  627MOL0     C84571   6.815  10.817   8.291 -0.5367  1.1295  0.7743
  627MOL0     C84572   6.744  10.901   8.179 -1.4241  0.0389 -0.1186
  627MOL0     C84573   6.604  10.924   8.200  0.1678 -0.5189  0.5503
  627MOL0     C84574   6.486  10.959   8.200  0.4377  0.7891 -0.1267
  627MOL0     C84575   7.166  10.712   8.691 -0.5565  0.3701  0.1495
  627MOL0     C84576   7.242  10.630   8.766  0.3346  0.7692 -0.9717
  627MOL0     C84577   7.383  10.668   8.803 -0.1818  0.0605  0.5256
  627MOL0     H84578   7.279  10.391   9.211 -1.1537 -1.4057  2.6617
  627MOL0     H84579   7.342  10.230   9.390  1.7005  0.6007 -0.3981
  627MOL0     H84580   7.436  10.044   9.506 -0.7663 -0.7292  3.1966
  627MOL0     H84581   7.390   9.882   9.516 -2.2802  2.2800  0.4361
  627MOL0     H84582   7.591   9.999   9.332  0.9167  0.3547  4.4260
  627MOL0     H84583   7.508   9.849   9.289  1.9347 -0.4782 -1.0933
  627MOL0     H84584   7.718   9.797   9.401  0.7056 -1.7985  0.6517
  627MOL0     H84585   7.585   9.758   9.510 -4.2234  2.3159 -0.9267
  627MOL0     H84586   7.745  10.022   9.528 -0.8553  3.3466  2.6577
  627MOL0     H84587   7.611   9.989   9.627 -1.7482 -0.1258 -2.2511
  627MOL0     H84588   7.754   9.788   9.723  0.5633  0.8998  1.0817
  627MOL0     H84589   7.885   9.811   9.611  1.1904 -0.1958  3.3069
  627MOL0     H84590   7.933  10.023   9.707  1.1084 -1.3625 -0.3535
  627MOL0     H84591   7.786  10.049   9.794  2.8536  1.6605  3.1816
  627MOL0     H84592   8.005   9.849   9.869  0.6007  0.0578  2.1431
  627MOL0     H84593   7.848   9.855   9.954  1.8053 -5.3541 -1.3921
  627MOL0     H84594   8.050  10.083   9.921 -2.4139 -0.0744 -2.3251
  627MOL0     H84595   7.908  10.108  10.016 -1.3417 -0.8531 -1.6761
  627MOL0     H84596   7.885  10.008  10.271 -0.7382 -2.7098  1.2796
  627MOL0     H84597   8.190   9.935  10.500  0.1497 -2.9869 -1.2026
  627MOL0     H84598   8.042  10.028  10.484  1.5147  0.6845  2.5174
  627MOL0     H84599   8.028   9.851  10.645  1.0226 -2.2482  0.7256
  627MOL0     H84600   7.906   9.829  10.510  0.3486 -0.4239  0.0690
  627MOL0     H84601   8.027   9.643  10.430  3.3162 -5.0535 -0.3411
  627MOL0     H84602   8.027   9.628  10.602  2.2132  0.6509  0.5045
  627MOL0     H84603   8.234   9.736  10.429 -3.2769 -0.1439 -0.8602
  627MOL0     H84604   8.255   9.570  10.481 -3.1542 -2.5547  2.7353
  627MOL0     H84605   8.355   9.457  10.603 -0.1479  0.0571  0.0293
  627MOL0     H84606   8.392   9.286  10.788 -0.5439 -0.0757  0.1105
  627MOL0     H84607   8.253   9.081  11.191 -0.0561 -0.2355  0.8192
  627MOL0     H84608   8.256   8.952  11.380  0.9758  0.0127 -0.1855
  627MOL0     H84609   8.601   8.965  11.637  1.6820 -2.5336  3.1422
  627MOL0     H84610   8.511   9.079  11.737 -3.6561  0.4575  0.8703
  627MOL0     H84611   8.406   8.886  11.859  1.2734  6.1291  0.8874
  627MOL0     H84612   8.479   8.772  11.741 -2.1413 -0.8002  1.4208
  627MOL0     H84613   8.705   8.846  11.825 -0.7527 -0.2196 -0.8171
  627MOL0     H84614   8.609   8.957  11.928 -1.9110  0.8326 -2.3097
  627MOL0     H84615   8.634   8.644  11.958 -1.7276 -0.8148  0.8483
  627MOL0     H84616   8.500   8.728  12.005 -0.8102  2.6072 -0.7793
  627MOL0     H84617   8.638   8.688  12.182 -2.1651  0.1076 -2.1895
  627MOL0     H84618   8.625   8.863  12.168 -0.2203  0.7617 -1.0524
  627MOL0     H84619   8.854   8.673  12.084 -1.1495 -0.6491 -0.7344
  627MOL0     H84620   8.858   8.844  12.047  0.1756  2.0508  1.5334
  627MOL0     H84621   8.842   8.712  12.316  3.9085 -1.3456  0.9762
  627MOL0     H84622   8.863   8.884  12.311  2.7039 -0.1105  1.5548
  627MOL0     H84623   9.068   8.660  12.216  1.1331  0.0168 -0.5184
  627MOL0     H84624   9.090   8.837  12.211  0.1933 -1.4019 -1.7553
  627MOL0     H84625   8.500   9.240  11.587 -1.1286 -0.3043 -0.3129
  627MOL0     H84626   8.495   9.379  11.396 -0.3870 -0.6196  0.4200
  627MOL0     H84627   8.323   9.597  11.071  5.0443  0.4472  0.4296
  627MOL0     H84628   8.275   9.752  10.890  2.9159 -0.1989  2.1347
  627MOL0     H84629   7.253   9.916   9.110 -0.4266 -0.4809 -0.3462
  627MOL0     H84630   7.192  10.080   8.940  0.1783 -0.6410  0.5070
  627MOL0     H84631   6.996  10.380   8.801 -2.9722  2.0635  0.6430
  627MOL0     H84632   6.879  10.525   8.668 -0.9368  2.4063 -2.9538
  627MOL0     H84633   6.785  10.771   8.642 -0.2620  2.4896 -0.0049
  627MOL0     H84634   6.814  10.654   8.509  0.8384  0.0077  0.1084
  627MOL0     H84635   6.796  10.952   8.462 -0.8435 -0.0969  3.9790
  627MOL0     H84636   6.667  10.843   8.456  1.1779  1.1235  0.2145
  627MOL0     H84637   6.803  10.711   8.269 -0.5653  1.7072 -2.5301
  627MOL0     H84638   6.920  10.845   8.276 -0.4834 -0.2584 -2.2823
  627MOL0     H84639   6.811  10.987   8.175 -2.0531  0.6678  1.7777
  627MOL0     H84640   6.751  10.844   8.086 -1.3693  0.3722 -0.3173
  627MOL0     H84641   6.388  10.998   8.217  0.3550  0.7880 -0.6153
  627MOL0     H84642   7.198  10.808   8.651  0.3105 -0.0836 -0.2847
  627MOL0     H84643   7.424  10.620   8.892 -3.0059 -3.6072  0.0949
  627MOL0     H84644   7.451  10.658   8.718  1.1201  4.2727  0.8093
  627MOL0     H84645   7.382  10.774   8.831 -0.0001  0.1470  0.2163
  628MOL0     O84646   6.924   9.424   3.680 -0.3130  1.0347 -0.3940
  628MOL0     C84647   6.888   9.539   3.660 -0.0920  0.7583  0.1172
  628MOL0     O84648   6.963   9.651   3.694 -0.4170 -0.2836 -0.6000
  628MOL0     C84649   7.090   9.637   3.740 -0.1009  0.4090 -0.5909
  628MOL0     C84650   7.115   9.605   3.881 -0.9803 -1.1738  0.3275
  628MOL0     C84651   7.245   9.599   3.925 -0.4158 -0.2239 -0.1694
  628MOL0     C84652   7.353   9.602   3.831 -0.7760  0.2887 -0.7298
  628MOL0     O84653   7.472   9.555   3.853 -0.3183 -0.3467 -0.1893
  628MOL0     C84654   7.522   9.554   3.995  0.2998 -0.2968  1.3240
  628MOL0     C84655   7.663   9.518   4.001  0.0952 -0.3533 -0.4231
  628MOL0     C84656   7.701   9.398   3.924  0.0310 -0.2695  0.0775
  628MOL0     C84657   7.812   9.319   4.008  0.0170 -0.1048 -0.5501
  628MOL0     C84658   7.889   9.220   3.925 -0.9763  0.2491  0.8670
  628MOL0     C84659   7.993   9.153   4.008  0.7862  0.1501  0.3972
  628MOL0     C84660   8.083   9.056   3.919 -0.8645  0.1873  0.1448
  628MOL0     C84661   8.163   8.966   4.007  0.2396 -0.3147  0.4511
  628MOL0     N84662   8.281   9.032   4.073  0.0338  0.2952 -0.4014
  628MOL0     C84663   8.399   9.043   4.005 -0.1224  1.0684  0.1216
  628MOL0     C84664   8.486   9.067   4.101 -1.1037  0.2095  0.4886
  628MOL0     C84665   8.634   9.069   4.097 -0.7144  0.3960 -0.1668
  628MOL0     C84666   8.684   8.917   4.086 -0.7338 -0.1826 -0.4746
  628MOL0     C84667   8.809   8.907   3.995 -0.3548  0.5539 -0.3107
  628MOL0     C84668   8.936   8.983   4.038  0.2032 -0.7559 -0.4640
  628MOL0     O84669   8.912   9.123   4.032  0.3525  0.4064  0.4817
  628MOL0     C84670   9.022   9.200   4.023 -0.4131 -1.0594  0.9632
  628MOL0     C84671   9.152   9.163   4.043 -0.1224  0.2435 -1.1587
  628MOL0     C84672   9.263   9.238   4.001  0.4701 -0.4151 -0.4724
  628MOL0     C84673   9.246   9.359   3.934 -0.2946  0.6766 -0.0175
  628MOL0     C84674   9.351   9.435   3.862 -0.7622  0.2262  0.1354
  628MOL0     O84675   9.314   9.563   3.817 -0.3359  0.0522 -0.3468
  628MOL0     C84676   9.395   9.639   3.734 -0.1846  0.0203 -0.3658
  628MOL0     C84677   9.463   9.751   3.787  0.9229 -0.2310  0.1053
  628MOL0     C84678   9.536   9.830   3.703 -0.7685  0.3389  0.0379
  628MOL0     C84679   9.553   9.806   3.565 -0.0789 -1.0834  0.0056
  628MOL0     O84680   9.625   9.896   3.489  0.3988 -0.3317 -0.0653
  628MOL0     C84681   9.683   9.856   3.363 -0.0249  0.3998  0.0112
  628MOL0     C84682   9.783   9.969   3.324  0.2486  0.4002 -0.1764
  628MOL0     C84683   9.909   9.985   3.417  1.4623 -0.4361 -0.9703
  628MOL0     C84684  10.000  10.113   3.404 -0.3289  0.0102  0.5941
  628MOL0     C84685  10.048  10.142   3.266 -0.6788 -0.6697 -0.5989
  628MOL0     C84686   9.946  10.225   3.186  0.3727  0.3227 -0.2647
  628MOL0     C84687  10.016  10.269   3.050 -0.1386  0.3444  0.7325
  628MOL0     C84688   9.942  10.377   2.979  0.4510 -0.1433 -0.4420
  628MOL0    Cl84689  10.047  10.450   2.847  0.1104 -0.4500  0.0516
  628MOL0     C84690   9.482   9.699   3.514 -0.1078  0.9770 -0.4970
  628MOL0     C84691   9.404   9.616   3.597 -0.4669  0.4540  0.5575
  628MOL0     O84692   9.462   9.384   3.862  0.4341  0.2191  0.1002
  628MOL0     C84693   9.113   9.403   3.922 -0.0381  0.3344 -0.1761
  628MOL0     C84694   9.007   9.316   3.947  0.0169 -0.0814  0.0790
  628MOL0     N84695   8.416   9.052   4.224  0.2831  0.0938  0.7116
  628MOL0     N84696   8.298   9.044   4.207 -0.2316 -0.9735  0.3930
  628MOL0     C84697   7.325   9.632   3.699  0.1322 -0.4327  0.6588
  628MOL0     C84698   7.195   9.662   3.650 -0.0557  0.1172 -0.5352
  628MOL0     C84699   6.755   9.573   3.606  0.3527  0.0980 -0.2010
  628MOL0     C84700   6.719   9.706   3.631 -0.1524  0.6217  0.7251
  628MOL0     C84701   6.581   9.726   3.605  0.7717 -0.8107  0.1625
  628MOL0     C84702   6.492   9.637   3.547  0.1511 -0.0610 -0.1963
  628MOL0     O84703   6.366   9.688   3.518 -0.2872  0.3564  0.0553
  628MOL0     C84704   6.283   9.613   3.432  0.3554  0.4899  0.5099
  628MOL0     C84705   6.170   9.711   3.395  0.3414  0.7642  0.8988
  628MOL0     C84706   6.094   9.745   3.524  0.1708 -0.2044 -0.5789
  628MOL0     C84707   5.948   9.725   3.518  0.4304 -0.5811 -0.0311
  628MOL0     C84708   5.896   9.833   3.433  0.0364 -0.5587 -1.2095
  628MOL0     C84709   5.852   9.921   3.361 -0.9432  0.1538  0.8718
  628MOL0     C84710   6.526   9.509   3.534 -0.5885 -1.0038  0.0504
  628MOL0     C84711   6.656   9.475   3.562  0.2404  0.4523 -0.8045
  628MOL0     C84712   6.699   9.331   3.525  0.3033  0.1974  0.0111
  628MOL0     H84713   7.031   9.613   3.949 -0.9526  4.3560  0.1357
  628MOL0     H84714   7.265   9.573   4.028 -0.0215 -1.0519 -0.4495
  628MOL0     H84715   7.520   9.655   4.039  1.3603  1.1274 -1.6480
  628MOL0     H84716   7.468   9.471   4.041 -0.0465 -2.3843 -2.4753
  628MOL0     H84717   7.685   9.509   4.108  2.2554  0.9999 -0.6917
  628MOL0     H84718   7.728   9.603   3.981  1.0745 -1.3577 -1.6682
  628MOL0     H84719   7.735   9.439   3.829 -1.4998  0.5868 -0.1307
  628MOL0     H84720   7.628   9.319   3.904  2.2707 -2.2180 -0.9449
  628MOL0     H84721   7.888   9.377   4.062 -2.5459 -1.6661  5.5882
  628MOL0     H84722   7.764   9.259   4.086  1.2186  0.7131  0.8859
  628MOL0     H84723   7.822   9.144   3.884 -1.2863  1.4709 -0.9923
  628MOL0     H84724   7.951   9.261   3.844  3.7708 -2.7909  2.4965
  628MOL0     H84725   8.051   9.221   4.071 -0.2664  1.2275  0.2409
  628MOL0     H84726   7.953   9.086   4.085  1.4474 -2.1995 -1.1954
  628MOL0     H84727   8.156   9.106   3.854 -0.1529  2.0409  2.2559
  628MOL0     H84728   8.017   8.988   3.864  1.7760 -2.8032  0.3646
  628MOL0     H84729   8.099   8.912   4.077 -1.3690  0.4191 -0.4063
  628MOL0     H84730   8.217   8.890   3.949  1.6467  1.1182 -0.2046
  628MOL0     H84731   8.423   9.031   3.899  1.7458  1.2720  0.4921
  628MOL0     H84732   8.666   9.129   4.011  0.9773 -0.8918 -0.5083
  628MOL0     H84733   8.679   9.111   4.187  2.6443 -0.4836 -1.2939
  628MOL0     H84734   8.702   8.881   4.187 -1.0243 -0.3236 -0.4710
  628MOL0     H84735   8.617   8.840   4.046 -1.0408 -1.5917  2.4809
  628MOL0     H84736   8.769   8.953   3.904 -1.4436 -1.2462 -0.7754
  628MOL0     H84737   8.836   8.802   3.986 -0.4664  0.1488  2.9912
  628MOL0     H84738   9.006   8.952   3.961  0.7150  1.7726 -1.0918
  628MOL0     H84739   8.960   8.939   4.136 -0.7370 -2.6101 -0.9986
  628MOL0     H84740   9.182   9.062   4.067 -2.2278 -0.3393 -0.7501
  628MOL0     H84741   9.359   9.189   4.017 -1.4874 -4.0189  1.8777
  628MOL0     H84742   9.453   9.764   3.894  0.1513  1.4142 -0.1355
  628MOL0     H84743   9.572   9.920   3.754  1.1213 -0.3069 -0.1023
  628MOL0     H84744   9.744   9.767   3.381  0.2619  0.2767 -1.4132
  628MOL0     H84745   9.604   9.848   3.288  0.8786  0.1941 -0.9424
  628MOL0     H84746   9.802   9.938   3.221  0.6670 -2.1823  0.6123
  628MOL0     H84747   9.732  10.066   3.328 -0.9808 -0.1536 -1.4004
  628MOL0     H84748   9.891   9.970   3.524  1.3190 -2.7229 -1.2743
  628MOL0     H84749   9.977   9.908   3.381  0.0631 -3.8049  2.7377
  628MOL0     H84750  10.094  10.105   3.460 -0.0223  1.0705  0.2340
  628MOL0     H84751   9.941  10.194   3.447 -3.5937 -2.4861  1.2023
  628MOL0     H84752  10.076  10.059   3.201 -0.0879  1.0771 -2.7085
  628MOL0     H84753  10.138  10.204   3.277  0.1106 -1.6061 -1.5236
  628MOL0     H84754   9.848  10.176   3.176 -0.2262  0.8656  2.2502
  628MOL0     H84755   9.932  10.301   3.263  0.1626 -0.7664  0.8151
  628MOL0     H84756  10.019  10.175   2.995  1.3389  1.8339 -1.9186
  628MOL0     H84757  10.120  10.298   3.063  0.1944 -0.9766  1.1542
  628MOL0     H84758   9.864  10.321   2.927 -0.5204 -0.6105  1.4127
  628MOL0     H84759   9.898  10.445   3.052 -3.3535  0.1061 -2.7085
  628MOL0     H84760   9.483   9.671   3.409  2.2988  1.1197 -0.5539
  628MOL0     H84761   9.342   9.535   3.559  1.0045 -0.0415 -0.9169
  628MOL0     H84762   9.093   9.497   3.871  0.8402 -0.4168 -2.0119
  628MOL0     H84763   8.911   9.351   3.911  0.4843  1.4153  0.2097
  628MOL0     H84764   7.403   9.645   3.625 -0.3513  0.5605  0.2975
  628MOL0     H84765   7.191   9.705   3.550 -0.0515  2.4983  0.4180
  628MOL0     H84766   6.774   9.785   3.680 -0.1367  0.3356  1.1698
  628MOL0     H84767   6.547   9.829   3.619 -3.9940 -1.8416 -1.7700
  628MOL0     H84768   6.248   9.519   3.475 -1.4943  1.8273  2.1132
  628MOL0     H84769   6.338   9.591   3.340  1.0559  3.1822  0.2042
  628MOL0     H84770   6.112   9.665   3.314  4.1490  0.4636 -1.9066
  628MOL0     H84771   6.208   9.801   3.347 -1.1852  0.9980  0.0419
  628MOL0     H84772   6.103   9.852   3.545 -0.8064 -0.5383  1.7671
  628MOL0     H84773   6.136   9.682   3.603  1.1292 -0.5617 -1.3492
  628MOL0     H84774   5.905   9.630   3.485 -2.2369  1.1556 -1.9107
  628MOL0     H84775   5.901   9.745   3.614  0.3269  0.5283 -0.2954
  628MOL0     H84776   5.817   9.978   3.278 -2.0962 -0.6429  0.7857
  628MOL0     H84777   6.450   9.437   3.504 -0.7848 -0.7606 -0.0468
  628MOL0     H84778   6.782   9.345   3.456  0.4285 -1.1481 -0.1264
  628MOL0     H84779   6.729   9.276   3.614 -1.3268  1.9871  1.7990
  628MOL0     H84780   6.616   9.274   3.482 -0.5695  1.2193  0.2762
  629MOL0     O84781  10.552   1.164   9.876 -0.6335 -0.7876  0.2542
  629MOL0     C84782  10.466   1.120   9.806 -0.2215  0.3843  0.4542
  629MOL0     O84783  10.375   1.203   9.735 -0.0120  0.0913  0.8143
  629MOL0     C84784  10.369   1.336   9.758 -0.1314 -0.2432  0.0021
  629MOL0     C84785  10.329   1.381   9.883  0.3028  0.2250 -0.7923
  629MOL0     C84786  10.312   1.518   9.910 -0.3931  0.8844 -0.5337
  629MOL0     C84787  10.346   1.609   9.804 -0.1204 -1.2832  0.3134
  629MOL0     O84788  10.333   1.748   9.817 -0.1686 -0.7641  0.8154
  629MOL0     C84789  10.333   1.806   9.953  0.7212 -0.0459 -0.2714
  629MOL0     C84790  10.184   1.819   9.996 -0.9453 -0.0938  0.6759
  629MOL0     C84791  10.163   1.904  10.121  0.1675 -0.4527  0.2665
  629MOL0     C84792  10.024   1.914  10.166  0.6371 -0.4950  0.0086
  629MOL0     C84793  10.030   1.968  10.308  0.6409 -0.0768 -0.5359
  629MOL0     C84794   9.880   2.007  10.350  0.8272  0.1785  1.1373
  629MOL0     C84795   9.878   2.078  10.485 -0.2721  0.1340 -0.5326
  629MOL0     C84796   9.736   2.087  10.548 -0.9327  0.1959 -0.0042
  629MOL0     N84797   9.675   1.962  10.575 -0.0534 -0.4679  0.2201
  629MOL0     C84798   9.611   1.879  10.485 -0.3217  1.0228  0.5894
  629MOL0     C84799   9.572   1.778  10.564 -0.1671 -0.0847  0.0091
  629MOL0     C84800   9.488   1.662  10.517  0.8341 -0.8432 -1.2074
  629MOL0     C84801   9.336   1.703  10.524  0.0418 -1.2296  0.0727
  629MOL0     C84802   9.253   1.634  10.636  0.5675 -0.8016 -0.5561
  629MOL0     C84803   9.106   1.664  10.610 -0.5316 -0.3844 -0.7828
  629MOL0     O84804   9.045   1.613  10.730  0.0671 -0.7252 -0.0855
  629MOL0     C84805   8.912   1.636  10.754 -0.4477 -0.1190 -0.6143
  629MOL0     C84806   8.857   1.599  10.876 -0.2829 -0.2197  0.0898
  629MOL0     C84807   8.718   1.602  10.913 -1.0901  0.1372  0.1169
  629MOL0     C84808   8.627   1.648  10.815 -1.2266 -0.3008 -0.3289
  629MOL0     C84809   8.478   1.656  10.836 -0.3718  0.5712  0.1713
  629MOL0     O84810   8.431   1.657  10.971 -0.3792 -0.0265 -0.1612
  629MOL0     C84811   8.303   1.678  11.003 -0.1134  0.4417 -0.2753
  629MOL0     C84812   8.255   1.596  11.111  0.0197  0.9939  0.2375
  629MOL0     C84813   8.121   1.618  11.162 -0.5774 -0.0891 -0.1650
  629MOL0     C84814   8.045   1.723  11.112 -0.3485 -0.5572 -0.5019
  629MOL0     O84815   7.929   1.746  11.188  0.4670 -0.5854  0.2772
  629MOL0     C84816   7.820   1.810  11.128 -0.2161  0.0035 -0.7775
  629MOL0     C84817   7.824   1.949  11.186  0.1080 -0.0028 -0.5894
  629MOL0     C84818   7.770   1.961  11.325 -0.7400 -0.2864 -0.5757
  629MOL0     C84819   7.621   1.935  11.342  0.7396  0.7295 -0.3539
  629MOL0     C84820   7.565   1.976  11.477 -0.5719 -0.4625 -0.1598
  629MOL0     C84821   7.418   1.936  11.497 -0.4220 -0.4538 -0.7309
  629MOL0     C84822   7.331   1.973  11.371 -0.3215  0.1954  0.3274
  629MOL0     C84823   7.181   1.951  11.405 -0.5241 -0.2569  0.6789
  629MOL0    Cl84824   7.161   1.772  11.429  0.0531  0.0019  0.5553
  629MOL0     C84825   8.091   1.796  10.993  0.3745  0.3203  0.2322
  629MOL0     C84826   8.218   1.776  10.941  0.3746 -0.3394  0.1327
  629MOL0     O84827   8.412   1.632  10.734  0.5882 -1.1357  0.9933
  629MOL0     C84828   8.687   1.686  10.690 -0.4850  0.6788  0.3920
  629MOL0     C84829   8.821   1.681  10.660  0.3098 -0.7266 -0.2526
  629MOL0     N84830   9.611   1.789  10.697 -0.4828  0.1832  0.0178
  629MOL0     N84831   9.684   1.900  10.696  0.0794  0.4614  0.2414
  629MOL0     C84832  10.371   1.565   9.671 -0.3784 -0.2563  0.1511
  629MOL0     C84833  10.383   1.423   9.651 -0.5304 -0.5576  0.5211
  629MOL0     C84834  10.451   0.972   9.795  0.2234  0.6345 -0.1883
  629MOL0     C84835  10.381   0.911   9.682 -0.2857 -0.4949 -0.6772
  629MOL0     C84836  10.384   0.773   9.664  0.8090 -0.4733  0.0042
  629MOL0     C84837  10.440   0.687   9.754 -0.2557 -0.8142  0.5052
  629MOL0     O84838  10.436   0.548   9.730 -0.6282 -0.7290  0.8025
  629MOL0     C84839  10.563   0.498   9.682 -0.2415 -0.2318  0.7066
  629MOL0     C84840  10.579   0.489   9.530  0.1848 -0.2445 -0.2894
  629MOL0     C84841  10.497   0.370   9.467 -0.5771 -0.0445  1.0075
  629MOL0     C84842  10.526   0.353   9.320 -0.6319 -0.1205  0.3585
  629MOL0     C84843  10.661   0.319   9.279  0.2544  0.1326 -0.0542
  629MOL0     C84844  10.774   0.289   9.248 -1.1491 -0.6454  0.3212
  629MOL0     C84845  10.495   0.747   9.866  0.0766  0.1196  0.7320
  629MOL0     C84846  10.509   0.881   9.885 -1.0539  0.8898 -0.5971
  629MOL0     C84847  10.558   0.918  10.021  0.0221  0.3372 -0.4214
  629MOL0     H84848  10.316   1.300   9.952  2.1966  0.5419  0.0082
  629MOL0     H84849  10.276   1.551  10.007  1.0811  1.9379 -0.3087
  629MOL0     H84850  10.375   1.748  10.036 -2.0693 -1.9163 -0.0022
  629MOL0     H84851  10.382   1.903   9.942  2.6643 -1.1768 -2.3759
  629MOL0     H84852  10.133   1.724  10.015 -1.9805  0.3148  0.0401
  629MOL0     H84853  10.127   1.860   9.912  0.6035  1.8239  0.5054
  629MOL0     H84854  10.203   2.005  10.107 -0.4519 -0.1759  0.4437
  629MOL0     H84855  10.225   1.853  10.196 -0.2361 -1.9444 -0.3721
  629MOL0     H84856   9.976   1.978  10.091 -2.5850 -2.0868  0.5399
  629MOL0     H84857   9.973   1.817  10.164  2.8930 -1.7971  1.5307
  629MOL0     H84858  10.058   1.884  10.372  2.2402 -1.7183 -3.2136
  629MOL0     H84859  10.089   2.060  10.319  1.3000 -0.4926 -0.5446
  629MOL0     H84860   9.827   2.066  10.275  1.0344  1.0458  1.6591
  629MOL0     H84861   9.828   1.911  10.351  2.0933 -0.5639 -0.0240
  629MOL0     H84862   9.908   2.181  10.464 -1.7057  1.0510  1.6004
  629MOL0     H84863   9.939   2.020  10.555 -2.0172  1.2934  2.0694
  629MOL0     H84864   9.744   2.148  10.639  0.0009 -0.0410  0.0835
  629MOL0     H84865   9.668   2.135  10.478 -2.9098 -2.4031  0.0073
  629MOL0     H84866   9.603   1.894  10.377 -2.9109  0.5060  0.6633
  629MOL0     H84867   9.511   1.622  10.418 -1.4113 -1.3528 -1.5707
  629MOL0     H84868   9.500   1.577  10.585 -0.3485 -1.1804 -1.3988
  629MOL0     H84869   9.331   1.812  10.523 -1.0013 -1.2452 -1.3996
  629MOL0     H84870   9.290   1.685  10.426  0.4675  0.0561 -0.3830
  629MOL0     H84871   9.277   1.672  10.736 -1.3763 -0.6775 -0.1113
  629MOL0     H84872   9.247   1.525  10.641 -1.5407 -0.6668  0.9700
  629MOL0     H84873   9.065   1.607  10.526  1.0430 -1.3949 -0.9159
  629MOL0     H84874   9.085   1.771  10.601 -0.8990 -0.5531 -2.1715
  629MOL0     H84875   8.928   1.559  10.948 -2.6072 -2.0356  1.4935
  629MOL0     H84876   8.671   1.587  11.010 -1.0953  3.8026  0.8012
  629MOL0     H84877   8.305   1.520  11.170  0.7709  1.5427  0.3355
  629MOL0     H84878   8.095   1.555  11.247 -0.1911  0.6287  0.4955
  629MOL0     H84879   7.831   1.813  11.020 -0.9765  1.8556 -0.8279
  629MOL0     H84880   7.723   1.763  11.150  1.1987 -1.5706  3.0882
  629MOL0     H84881   7.923   1.995  11.180 -0.5081  1.8218  1.6853
  629MOL0     H84882   7.758   2.015  11.129  0.4048  0.6893 -0.1465
  629MOL0     H84883   7.831   1.900  11.392  0.7333  1.9455  0.2418
  629MOL0     H84884   7.785   2.063  11.363 -0.8515 -0.1544 -0.8838
  629MOL0     H84885   7.593   1.833  11.312 -0.6805  0.5203  1.5400
  629MOL0     H84886   7.576   1.997  11.264  0.0954  0.9486  0.1914
  629MOL0     H84887   7.563   2.085  11.481  0.8629 -0.3436 -1.8162
  629MOL0     H84888   7.627   1.927  11.552  2.9349  2.4461 -0.9264
  629MOL0     H84889   7.417   1.829  11.518  0.9236 -1.0375 -3.2230
  629MOL0     H84890   7.375   1.976  11.590  0.0391 -1.1157 -0.2272
  629MOL0     H84891   7.350   1.917  11.279 -1.3262 -3.7036  2.2973
  629MOL0     H84892   7.348   2.081  11.359  1.3623  0.2033  2.2561
  629MOL0     H84893   7.141   2.005  11.491  0.7194  1.2732  0.3558
  629MOL0     H84894   7.128   1.985  11.316  0.1395  1.0760  0.7686
  629MOL0     H84895   8.031   1.879  10.959  2.0180  0.7920 -1.6947
  629MOL0     H84896   8.237   1.838  10.854  2.7597 -1.2948 -0.1055
  629MOL0     H84897   8.628   1.728  10.609  0.6085  0.4120 -0.5581
  629MOL0     H84898   8.857   1.711  10.562  0.5820 -0.5778 -0.1053
  629MOL0     H84899  10.376   1.640   9.593  1.8601  0.3567  0.7992
  629MOL0     H84900  10.402   1.389   9.550  1.6363  2.8239 -0.3852
  629MOL0     H84901  10.348   0.969   9.597  0.7362  1.5255  0.2011
  629MOL0     H84902  10.344   0.739   9.569 -0.1649  0.0589  0.2195
  629MOL0     H84903  10.578   0.402   9.731  1.6618 -2.0403 -3.0612
  629MOL0     H84904  10.645   0.562   9.717  0.1978 -0.2295 -0.3067
  629MOL0     H84905  10.685   0.474   9.508  0.3521  0.3089  0.1145
  629MOL0     H84906  10.560   0.588   9.488  2.7535  0.2746 -0.4308
  629MOL0     H84907  10.391   0.394   9.468 -0.9106 -1.2737 -0.6876
  629MOL0     H84908  10.515   0.276   9.520 -0.1947  0.1338  1.1946
  629MOL0     H84909  10.463   0.270   9.286  0.7874 -1.3890  0.6857
  629MOL0     H84910  10.493   0.445   9.272  0.2359  1.8062  3.2212
  629MOL0     H84911  10.865   0.256   9.204 -2.4891 -2.6492 -1.1265
  629MOL0     H84912  10.536   0.668   9.929 -2.4572 -3.4221 -1.6460
  629MOL0     H84913  10.504   1.005  10.060 -0.7724 -0.2748 -0.1360
  629MOL0     H84914  10.549   0.843  10.099  0.2035  0.2946 -0.4401
  629MOL0     H84915  10.665   0.939  10.013  0.2508  0.0556  1.4216
  630MOL0     O84916   1.916   9.055   6.371 -1.0085 -0.2673  0.2280
  630MOL0     C84917   1.971   9.130   6.453 -0.2088  0.2207 -0.3756
  630MOL0     O84918   1.985   9.261   6.436  0.5013 -0.4564 -0.4299
  630MOL0     C84919   1.974   9.317   6.310  1.5748 -0.3634  0.7930
  630MOL0     C84920   1.850   9.375   6.265  0.7460 -0.7762 -0.6049
  630MOL0     C84921   1.839   9.432   6.142  0.6676 -0.1290  0.8995
  630MOL0     C84922   1.964   9.446   6.063  1.3260 -1.1636  1.2576
  630MOL0     O84923   1.976   9.510   5.946 -0.4111  0.1827  0.2117
  630MOL0     C84924   1.898   9.632   5.929 -1.7629 -0.4650  0.3871
  630MOL0     C84925   1.886   9.636   5.776  0.1396 -0.2183 -0.7290
  630MOL0     C84926   1.767   9.540   5.738 -0.2036 -0.4070  0.1190
  630MOL0     C84927   1.738   9.519   5.588  0.0183  0.9142  0.5020
  630MOL0     C84928   1.610   9.437   5.572  0.0028 -0.4467  0.4448
  630MOL0     C84929   1.545   9.439   5.438 -0.1472  0.1395  0.0739
  630MOL0     C84930   1.625   9.370   5.326 -0.3291 -0.1983  0.0579
  630MOL0     C84931   1.539   9.376   5.194 -0.8061  0.2809 -0.9565
  630MOL0     N84932   1.580   9.271   5.093  0.0370  0.1871 -0.8090
  630MOL0     C84933   1.707   9.268   5.035  0.2192  0.1782  0.0250
  630MOL0     C84934   1.718   9.135   4.998 -0.7926 -0.2388 -0.7246
  630MOL0     C84935   1.836   9.092   4.915  0.4570 -0.7987  0.4223
  630MOL0     C84936   1.860   8.943   4.880 -0.1489 -0.5723  0.2972
  630MOL0     C84937   1.746   8.894   4.792  0.7502  0.4603 -0.2210
  630MOL0     C84938   1.773   8.752   4.739 -0.0830 -0.1792  0.9572
  630MOL0     O84939   1.872   8.778   4.631 -0.4353 -0.4868 -0.4320
  630MOL0     C84940   1.954   8.681   4.584  0.5891  0.1708 -0.0835
  630MOL0     C84941   2.049   8.720   4.497  0.0595  0.4540  0.1274
  630MOL0     C84942   2.139   8.628   4.436  1.3645 -0.2454  1.1443
  630MOL0     C84943   2.112   8.488   4.451  0.9923  0.8906  1.0023
  630MOL0     C84944   2.185   8.382   4.374  0.2625  0.8310 -0.0797
  630MOL0     O84945   2.237   8.416   4.257 -0.1456 -0.8472  0.7968
  630MOL0     C84946   2.344   8.355   4.190  0.3103  0.4475  0.1284
  630MOL0     C84947   2.477   8.338   4.240 -0.2743 -0.2257 -0.0175
  630MOL0     C84948   2.585   8.284   4.154  0.0648 -0.1544 -0.3160
  630MOL0     C84949   2.559   8.278   4.017 -0.8273 -0.0067  0.8751
  630MOL0     O84950   2.653   8.225   3.928  0.4451 -0.3327  0.7114
  630MOL0     C84951   2.721   8.319   3.854  0.9874  0.7521 -0.6274
  630MOL0     C84952   2.790   8.251   3.744 -0.2802 -0.5439  0.9177
  630MOL0     C84953   2.697   8.184   3.643  0.2631 -0.8946 -1.2402
  630MOL0     C84954   2.784   8.104   3.539 -0.1802  0.5959  0.4010
  630MOL0     C84955   2.712   7.982   3.476  0.1166  0.0979  0.5783
  630MOL0     C84956   2.778   7.927   3.351 -0.0465 -0.2497  0.3723
  630MOL0     C84957   2.711   7.798   3.296  0.0125  0.2906 -0.2953
  630MOL0     C84958   2.812   7.711   3.212  0.1248 -0.1341 -0.5612
  630MOL0    Cl84959   2.865   7.818   3.076  0.1132 -0.1959  0.2487
  630MOL0     C84960   2.425   8.295   3.969 -1.1720 -0.9697  0.4377
  630MOL0     C84961   2.324   8.336   4.052  1.1301  0.4393  0.0421
  630MOL0     O84962   2.197   8.270   4.421 -0.2080 -0.1043 -0.2362
  630MOL0     C84963   2.012   8.451   4.546 -0.0170 -0.9154  1.0220
  630MOL0     C84964   1.936   8.549   4.611  0.2279 -0.2191 -0.4923
  630MOL0     N84965   1.606   9.059   5.039 -0.7755  0.6352  0.0261
  630MOL0     N84966   1.538   9.143   5.101  0.0068  0.5716  0.0144
  630MOL0     C84967   2.081   9.376   6.109  0.6413 -1.0690 -0.2061
  630MOL0     C84968   2.089   9.318   6.231  1.2127 -0.9477 -0.0197
  630MOL0     C84969   2.035   9.056   6.562 -0.5927 -0.3914  0.5231
  630MOL0     C84970   1.987   8.934   6.600  0.2748  0.1313 -0.9156
  630MOL0     C84971   2.054   8.853   6.696 -0.2931 -0.3220  0.1679
  630MOL0     C84972   2.158   8.909   6.771  0.2021 -0.5063  0.6550
  630MOL0     O84973   2.218   8.811   6.850  0.0224  0.2189 -0.0095
  630MOL0     C84974   2.310   8.863   6.945 -0.5544  0.2005  0.9047
  630MOL0     C84975   2.238   8.955   7.040  0.7499  0.9846 -0.1198
  630MOL0     C84976   2.124   8.887   7.115 -1.0199 -0.5042 -0.0920
  630MOL0     C84977   2.013   8.982   7.162 -0.1293  0.5993 -0.2733
  630MOL0     C84978   2.057   9.065   7.285 -0.4271 -0.4789  0.1409
  630MOL0     C84979   2.084   9.124   7.388 -0.6031  0.4169  0.4545
  630MOL0     C84980   2.202   9.035   6.735 -0.0158  1.3756  0.1561
  630MOL0     C84981   2.144   9.113   6.631 -0.4956  0.0486  0.6158
  630MOL0     C84982   2.208   9.245   6.605  0.9485 -0.3089  0.3270
  630MOL0     H84983   1.760   9.373   6.326  0.3881  0.4241 -1.0643
  630MOL0     H84984   1.746   9.471   6.101  1.5136  0.0841 -0.8991
  630MOL0     H84985   1.800   9.622   5.977 -1.7931  0.6653  0.5797
  630MOL0     H84986   1.950   9.721   5.966 -1.8332 -0.1076 -0.3536
  630MOL0     H84987   1.982   9.613   5.729  0.3089 -1.8113  0.3192
  630MOL0     H84988   1.852   9.739   5.758 -1.8236 -0.1506  2.4357
  630MOL0     H84989   1.679   9.587   5.783  0.3763  0.6722  0.1787
  630MOL0     H84990   1.784   9.442   5.784 -0.7000 -0.9864 -0.9040
  630MOL0     H84991   1.741   9.616   5.538  0.7673  0.0856 -1.1311
  630MOL0     H84992   1.817   9.466   5.534 -2.9695 -2.2440 -1.2193
  630MOL0     H84993   1.627   9.331   5.594 -1.2791 -1.2426 -2.0181
  630MOL0     H84994   1.532   9.476   5.639  0.5416 -2.5268  2.3948
  630MOL0     H84995   1.444   9.400   5.450  0.1058  0.0713  2.3483
  630MOL0     H84996   1.526   9.544   5.412 -0.3202 -0.4657 -2.5949
  630MOL0     H84997   1.644   9.263   5.344 -1.3814 -1.4062 -4.7806
  630MOL0     H84998   1.712   9.434   5.310 -2.3899  3.0662  1.0970
  630MOL0     H84999   1.431   9.368   5.212 -0.9505  0.2173 -1.7988
  630MOL0     H85000   1.556   9.479   5.159 -1.6199  1.5197  1.9921
  630MOL0     H85001   1.771   9.354   5.025 -0.5067  0.7250 -0.0130
  630MOL0     H85002   1.864   9.145   4.823 -2.0024 -0.4101 -0.1668
  630MOL0     H85003   1.923   9.116   4.977  2.4083 -4.3725 -0.6276
  630MOL0     H85004   1.961   8.934   4.841 -1.2396 -1.5687 -2.5521
  630MOL0     H85005   1.860   8.884   4.972 -4.5212 -0.5407  0.5374
  630MOL0     H85006   1.719   8.960   4.710 -3.6417 -1.0990 -0.3065
  630MOL0     H85007   1.657   8.901   4.857  0.5574 -0.6482 -0.3322
  630MOL0     H85008   1.688   8.706   4.689  0.2377  1.4336 -1.2360
  630MOL0     H85009   1.807   8.687   4.820 -0.7881  1.4295  2.6030
  630MOL0     H85010   2.047   8.829   4.497  0.6426  0.5340 -2.2840
  630MOL0     H85011   2.215   8.660   4.365 -0.2015 -0.7095 -0.8430
  630MOL0     H85012   2.500   8.381   4.337 -1.1163 -1.1416  0.6122
  630MOL0     H85013   2.680   8.270   4.205  0.3055  1.0962 -0.3913
  630MOL0     H85014   2.657   8.402   3.820 -0.7261  0.0150  0.6577
  630MOL0     H85015   2.800   8.350   3.922 -0.4763 -1.8325  2.5409
  630MOL0     H85016   2.852   8.328   3.696  0.5477 -2.6671 -1.6411
  630MOL0     H85017   2.865   8.186   3.791  1.4215  1.3373  0.9936
  630MOL0     H85018   2.639   8.104   3.689  1.1105 -2.2332 -2.4204
  630MOL0     H85019   2.636   8.254   3.586  2.0731  0.6273 -1.4114
  630MOL0     H85020   2.867   8.059   3.594 -0.2575  1.9452  1.6556
  630MOL0     H85021   2.819   8.169   3.458 -3.3499  1.8907 -0.0579
  630MOL0     H85022   2.608   8.004   3.450  0.7295  2.4649 -0.0931
  630MOL0     H85023   2.702   7.905   3.553 -0.9292 -2.8944 -2.3236
  630MOL0     H85024   2.789   8.009   3.278  3.1063  1.9543  3.0242
  630MOL0     H85025   2.882   7.900   3.373  0.3683  0.7113 -0.3251
  630MOL0     H85026   2.627   7.823   3.232 -2.5897 -2.6528  1.6834
  630MOL0     H85027   2.675   7.742   3.382 -1.9803 -0.0791 -1.3046
  630MOL0     H85028   2.892   7.682   3.281 -1.1234 -5.5181 -0.9307
  630MOL0     H85029   2.765   7.618   3.179  1.8650 -0.7456 -1.4333
  630MOL0     H85030   2.415   8.278   3.862 -3.0010 -2.3220  0.7653
  630MOL0     H85031   2.229   8.367   4.011 -1.2598 -1.3102  3.6459
  630MOL0     H85032   1.990   8.346   4.562 -1.2475 -0.5400  1.9003
  630MOL0     H85033   1.869   8.519   4.690 -0.5899  1.3977 -0.5168
  630MOL0     H85034   2.172   9.379   6.050 -0.7374  1.7060 -2.4694
  630MOL0     H85035   2.186   9.275   6.256  2.5252  1.4986 -0.5597
  630MOL0     H85036   1.919   8.871   6.544 -0.4471  1.6308 -1.8044
  630MOL0     H85037   2.038   8.748   6.717  0.0693 -0.1463  1.3703
  630MOL0     H85038   2.385   8.923   6.890 -0.7673 -0.7078 -0.4269
  630MOL0     H85039   2.346   8.783   7.009 -1.9252 -0.6931  0.5813
  630MOL0     H85040   2.212   9.051   6.994  2.0508  2.1060  1.3515
  630MOL0     H85041   2.309   8.980   7.120  0.9615  0.7479 -0.2327
  630MOL0     H85042   2.169   8.826   7.194 -1.7767 -2.8713 -1.3939
  630MOL0     H85043   2.064   8.816   7.058  1.3414 -2.3948 -0.4113
  630MOL0     H85044   1.993   9.051   7.079  0.2206 -0.3096 -1.1374
  630MOL0     H85045   1.926   8.924   7.194  1.3030 -1.6705 -0.2926
  630MOL0     H85046   2.100   9.196   7.466  0.8123 -0.8239  1.3527
  630MOL0     H85047   2.288   9.088   6.774  0.5821  0.9030 -0.5164
  630MOL0     H85048   2.134   9.324   6.618 -1.7471 -2.9467  2.4254
  630MOL0     H85049   2.289   9.272   6.674 -0.9783  1.1685  2.1311
  630MOL0     H85050   2.243   9.248   6.501  0.1086  0.5080  0.0486
  631MOL0     O85051   4.952   3.061   4.133  0.0442  0.4628 -1.2322
  631MOL0     C85052   5.068   3.039   4.120  0.1603 -0.7285 -0.1858
  631MOL0     O85053   5.153   3.021   4.228  0.5665  0.1779 -0.3041
  631MOL0     C85054   5.104   2.960   4.340 -0.2684 -0.7797  0.0334
  631MOL0     C85055   5.115   2.823   4.349 -0.4082  0.4119  0.4371
  631MOL0     C85056   5.061   2.754   4.459  0.0511  1.1378  0.2672
  631MOL0     C85057   4.997   2.818   4.572 -0.3479  0.1168  0.4295
  631MOL0     O85058   4.972   2.753   4.690 -0.7999  0.6160 -0.2441
  631MOL0     C85059   5.006   2.608   4.687  0.6859 -0.5541  0.4389
  631MOL0     C85060   5.019   2.521   4.819  0.0474 -0.4903  0.2442
  631MOL0     C85061   5.060   2.596   4.943  0.2601  0.5542  0.5919
  631MOL0     C85062   5.103   2.506   5.061 -0.4798  0.4543 -0.6652
  631MOL0     C85063   4.985   2.450   5.141  0.2265 -0.4549 -0.0301
  631MOL0     C85064   5.027   2.350   5.258  0.4008  1.1888  0.1125
  631MOL0     C85065   4.908   2.317   5.362 -0.0761  0.7379  0.1863
  631MOL0     C85066   4.953   2.256   5.493 -0.1206  0.2705 -0.2286
  631MOL0     N85067   4.858   2.202   5.590  0.6981  1.0267  0.1239
  631MOL0     C85068   4.795   2.276   5.690  0.6646 -0.7859  0.0470
  631MOL0     C85069   4.718   2.192   5.758 -0.4553  0.7696  0.9284
  631MOL0     C85070   4.618   2.234   5.860 -0.0506  0.2560 -0.0355
  631MOL0     C85071   4.505   2.311   5.800 -0.8026 -0.6973 -0.2240
  631MOL0     C85072   4.415   2.400   5.906 -0.0283  0.4865  0.7726
  631MOL0     C85073   4.282   2.425   5.849  0.0230 -0.7904 -0.7306
  631MOL0     O85074   4.284   2.487   5.724  0.5634  0.1246  0.0761
  631MOL0     C85075   4.332   2.615   5.706 -0.7588  0.3926 -0.7087
  631MOL0     C85076   4.330   2.659   5.576  0.4017  0.2508 -0.0006
  631MOL0     C85077   4.377   2.789   5.544  0.4422 -0.3700 -0.5185
  631MOL0     C85078   4.434   2.874   5.641  0.3112 -0.8470  0.5278
  631MOL0     C85079   4.495   3.004   5.591 -0.0050  0.7452 -0.4477
  631MOL0     O85080   4.524   3.028   5.460  0.5153  0.0229  0.1322
  631MOL0     C85081   4.618   3.121   5.424  0.4639  0.4134  0.2143
  631MOL0     C85082   4.741   3.151   5.487  0.2149  0.1801 -0.4114
  631MOL0     C85083   4.828   3.242   5.430  0.8045 -0.2616 -0.0776
  631MOL0     C85084   4.804   3.305   5.310  0.0632  0.7327 -0.4147
  631MOL0     O85085   4.888   3.398   5.263 -0.3152 -0.4897  1.1343
  631MOL0     C85086   4.830   3.517   5.204 -0.4702  0.1275  0.1838
  631MOL0     C85087   4.946   3.606   5.159  0.5125  0.4793  0.1332
  631MOL0     C85088   4.925   3.708   5.049  0.6717  0.0884 -0.5051
  631MOL0     C85089   4.827   3.825   5.079 -0.0503  1.6865 -0.8887
  631MOL0     C85090   4.798   3.913   4.959 -0.9688  0.0599 -0.9898
  631MOL0     C85091   4.771   3.847   4.823 -0.3053  0.3494  0.1367
  631MOL0     C85092   4.708   3.949   4.714  0.0782  0.0146 -0.4894
  631MOL0     C85093   4.630   3.886   4.597  0.0940 -0.5458 -0.7336
  631MOL0    Cl85094   4.572   4.011   4.492 -0.3207 -0.6351  0.3798
  631MOL0     C85095   4.681   3.270   5.246  0.1014 -0.2559 -0.2125
  631MOL0     C85096   4.591   3.189   5.307 -0.9201 -0.0911 -0.6891
  631MOL0     O85097   4.516   3.089   5.684 -0.2643  0.0819 -0.3912
  631MOL0     C85098   4.424   2.840   5.774  0.5106  0.6437  1.1821
  631MOL0     C85099   4.380   2.708   5.811 -0.0703 -0.5014 -1.0717
  631MOL0     N85100   4.735   2.064   5.698  0.2266 -0.4470 -0.4148
  631MOL0     N85101   4.827   2.068   5.608 -0.8327 -1.0958  0.7794
  631MOL0     C85102   4.974   2.952   4.555 -0.5538  0.5907  0.2082
  631MOL0     C85103   5.030   3.020   4.442  0.3842 -1.4609  0.0701
  631MOL0     C85104   5.135   3.050   3.989  0.6430  0.1539 -0.0112
  631MOL0     C85105   5.051   3.040   3.876 -0.8267 -1.1778  0.7119
  631MOL0     C85106   5.103   3.029   3.745 -0.2531 -0.0105  1.0441
  631MOL0     C85107   5.244   3.017   3.731 -0.6728 -0.4763  0.2754
  631MOL0     O85108   5.312   2.977   3.619  0.1838 -0.5824 -0.3757
  631MOL0     C85109   5.252   2.992   3.490  0.4750 -0.5960 -1.0342
  631MOL0     C85110   5.350   2.983   3.387  0.4916 -0.3077  0.0156
  631MOL0     C85111   5.418   2.851   3.370  0.2142  0.3928  0.0797
  631MOL0     C85112   5.318   2.740   3.308 -0.4712 -0.5199  0.7695
  631MOL0     C85113   5.385   2.660   3.204 -0.4739  1.3337  0.5183
  631MOL0     C85114   5.451   2.616   3.117 -0.6043 -0.1997  0.9325
  631MOL0     C85115   5.321   3.024   3.847  0.2813 -0.1242  0.7963
  631MOL0     C85116   5.273   3.045   3.974 -0.0626  1.2022 -0.0073
  631MOL0     C85117   5.371   3.040   4.087  0.7316 -1.0110  0.4623
  631MOL0     H85118   5.153   2.764   4.267 -1.3286  2.3403 -1.4757
  631MOL0     H85119   5.081   2.648   4.447 -1.0322  0.9016  0.3997
  631MOL0     H85120   4.918   2.569   4.635  0.0777  0.9616  0.2781
  631MOL0     H85121   5.106   2.596   4.644  1.4432 -0.7675  2.1942
  631MOL0     H85122   5.101   2.451   4.798 -1.2902 -1.8797 -0.5787
  631MOL0     H85123   4.932   2.459   4.841  1.1980 -2.1058  0.4576
  631MOL0     H85124   4.984   2.674   4.961 -2.1938 -0.5523 -3.5829
  631MOL0     H85125   5.150   2.644   4.905  1.3535 -2.1168 -0.4472
  631MOL0     H85126   5.162   2.420   5.027 -5.0621 -2.5219 -2.1285
  631MOL0     H85127   5.152   2.577   5.127 -2.0170  2.4540 -1.5876
  631MOL0     H85128   4.919   2.532   5.174 -1.6170 -1.3590 -1.3233
  631MOL0     H85129   4.918   2.396   5.074  0.3479  0.7722 -1.1849
  631MOL0     H85130   5.051   2.254   5.211 -0.7789  0.5310  0.8018
  631MOL0     H85131   5.108   2.382   5.324  1.2990 -3.0555  1.4181
  631MOL0     H85132   4.830   2.254   5.318 -0.0117  0.7085  0.1113
  631MOL0     H85133   4.857   2.401   5.409 -0.0522  0.1184  1.3516
  631MOL0     H85134   5.004   2.169   5.452  0.7066  0.9676 -0.7163
  631MOL0     H85135   5.022   2.326   5.541 -1.3489  0.4075  1.4328
  631MOL0     H85136   4.795   2.383   5.708  1.6366 -0.6484 -0.6752
  631MOL0     H85137   4.592   2.141   5.912  0.9162 -0.0840 -0.1343
  631MOL0     H85138   4.677   2.303   5.921  3.4068 -0.1529 -2.5997
  631MOL0     H85139   4.543   2.386   5.729  0.7138  0.3008  1.5569
  631MOL0     H85140   4.449   2.248   5.731 -0.6125 -0.3909 -0.6668
  631MOL0     H85141   4.467   2.492   5.934  1.0790 -0.2072  1.0903
  631MOL0     H85142   4.406   2.338   5.995 -1.4357 -0.0495  0.2772
  631MOL0     H85143   4.215   2.479   5.916 -0.6483 -1.1361 -1.1159
  631MOL0     H85144   4.244   2.324   5.831  3.4404 -2.3029 -0.3387
  631MOL0     H85145   4.295   2.595   5.495  1.9585 -1.4205  0.5597
  631MOL0     H85146   4.369   2.810   5.438 -0.2007  2.0420 -0.0536
  631MOL0     H85147   4.746   3.096   5.580 -0.8314  2.2551  0.9473
  631MOL0     H85148   4.913   3.271   5.490  0.1596 -0.2251  0.8284
  631MOL0     H85149   4.780   3.489   5.111 -0.5139  1.3309 -0.1608
  631MOL0     H85150   4.754   3.569   5.263  1.2500  1.8028  1.0160
  631MOL0     H85151   4.968   3.663   5.250  2.0936 -1.3991  1.0126
  631MOL0     H85152   5.024   3.535   5.130 -2.4362 -2.7925 -0.4712
  631MOL0     H85153   5.017   3.742   5.001 -0.0056  0.9446 -1.2472
  631MOL0     H85154   4.875   3.650   4.971  0.5317  1.8065 -1.7692
  631MOL0     H85155   4.860   3.891   5.161 -0.3808  1.2759 -0.4223
  631MOL0     H85156   4.737   3.778   5.119  1.2755 -1.4245 -1.2503
  631MOL0     H85157   4.878   3.983   4.936 -0.4967 -0.8011 -2.0411
  631MOL0     H85158   4.709   3.968   4.989  0.1712  1.2028  0.4164
  631MOL0     H85159   4.860   3.805   4.777  0.8976  2.2266  0.6544
  631MOL0     H85160   4.689   3.776   4.841 -0.4711  0.2068 -1.1020
  631MOL0     H85161   4.794   4.001   4.671  1.1172 -0.9763  0.3158
  631MOL0     H85162   4.641   4.016   4.769  0.3068  2.6837 -3.1934
  631MOL0     H85163   4.696   3.814   4.549  2.5899  0.3539  1.1132
  631MOL0     H85164   4.546   3.830   4.639 -0.2146  1.3111  1.2985
  631MOL0     H85165   4.645   3.311   5.152 -0.9415 -2.1200 -0.6589
  631MOL0     H85166   4.490   3.186   5.268 -0.6631 -1.3895 -1.2835
  631MOL0     H85167   4.471   2.904   5.849 -1.5243  0.0763  3.0453
  631MOL0     H85168   4.375   2.682   5.916 -0.6774 -1.6263 -1.3663
  631MOL0     H85169   4.913   2.997   4.633  1.5520  1.0548  1.6767
  631MOL0     H85170   5.006   3.126   4.440 -1.5201 -1.8639 -0.9834
  631MOL0     H85171   4.944   3.033   3.894 -1.5077  0.7185 -1.9145
  631MOL0     H85172   5.044   2.996   3.660  0.9791 -4.3118  1.5814
  631MOL0     H85173   5.204   3.090   3.485  2.0847  0.2527 -0.5803
  631MOL0     H85174   5.178   2.913   3.475 -0.9276  0.3315  0.6850
  631MOL0     H85175   5.430   3.054   3.410  4.4502 -1.8944 -6.1465
  631MOL0     H85176   5.315   3.004   3.286  4.2165  3.0088 -0.8358
  631MOL0     H85177   5.466   2.819   3.462  1.8333  1.7084 -0.2645
  631MOL0     H85178   5.498   2.862   3.296  0.4176 -4.0948 -0.6844
  631MOL0     H85179   5.283   2.678   3.391 -0.2331  2.6045  3.3793
  631MOL0     H85180   5.230   2.774   3.252 -0.0174 -1.4551 -0.5781
  631MOL0     H85181   5.514   2.586   3.035 -1.9477  1.4651 -0.8249
  631MOL0     H85182   5.429   3.014   3.840  0.1429 -0.4019 -3.2211
  631MOL0     H85183   5.358   3.131   4.146 -1.4859 -0.3854 -0.9036
  631MOL0     H85184   5.369   2.944   4.139  3.0684 -0.4107  1.8277
  631MOL0     H85185   5.475   3.044   4.051  0.9288 -0.2989  1.0659
  632MOL0     O85186  10.718  10.316   6.354  1.1093  0.2065 -0.4979
  632MOL0     C85187  10.816  10.366   6.396 -0.3232  0.6651 -0.9737
  632MOL0     O85188  10.927  10.290   6.434  0.3767  0.3120 -0.4197
  632MOL0     C85189  10.934  10.154   6.437 -0.0917 -1.0170 -0.4566
  632MOL0     C85190  10.876  10.067   6.349 -0.2741 -0.1390 -1.1432
  632MOL0     C85191  10.870   9.931   6.375  0.1277 -0.5585 -0.2876
  632MOL0     C85192  10.915   9.887   6.499 -1.0919 -0.4357 -1.1294
  632MOL0     O85193  10.872   9.758   6.535  0.3623  0.3899  0.4737
  632MOL0     C85194  10.865   9.729   6.682  0.4153 -0.8954 -0.5396
  632MOL0     C85195  10.771   9.610   6.715 -0.3524  0.3795  0.4384
  632MOL0     C85196  10.634   9.616   6.638  0.7505 -0.0261 -0.1682
  632MOL0     C85197  10.567   9.738   6.693  0.4333 -0.1466 -0.3324
  632MOL0     C85198  10.415   9.733   6.648  0.1665  0.6416 -0.8979
  632MOL0     C85199  10.393   9.766   6.496  0.7857 -0.0433 -0.6485
  632MOL0     C85200  10.444   9.899   6.446  0.5907  0.1626 -0.2878
  632MOL0     C85201  10.406   9.927   6.301  0.2185  0.1267  0.2807
  632MOL0     N85202  10.519   9.878   6.218  0.2782 -0.0312  0.1266
  632MOL0     C85203  10.563   9.748   6.190  0.4196 -0.2931 -0.2322
  632MOL0     C85204  10.671   9.760   6.109  0.2374  0.0225 -0.1535
  632MOL0     C85205  10.739   9.647   6.048 -0.4428  0.2540  0.2301
  632MOL0     C85206  10.744   9.534   6.146 -0.6035  0.5881  0.1405
  632MOL0     C85207  10.852   9.560   6.255 -0.4130  1.3834 -0.6500
  632MOL0     C85208  10.867   9.438   6.350  0.2673  0.1524  0.3303
  632MOL0     O85209  10.903   9.323   6.285 -0.0005  0.7930 -0.1436
  632MOL0     C85210  10.939   9.217   6.358  0.1372  0.5313 -0.1986
  632MOL0     C85211  11.026   9.226   6.465 -0.8764 -0.6886 -0.6281
  632MOL0     C85212  11.072   9.117   6.522 -0.5547  0.7530  1.2634
  632MOL0     C85213  11.026   8.987   6.480 -0.2856  0.1443  0.5927
  632MOL0     C85214  11.075   8.859   6.540  0.7876  0.4095 -0.2910
  632MOL0     O85215  11.193   8.871   6.603  0.6915 -0.4570  0.1844
  632MOL0     C85216  11.259   8.777   6.663  0.0795 -0.0486  1.0922
  632MOL0     C85217  11.291   8.652   6.596 -0.1899 -0.1598 -0.0395
  632MOL0     C85218  11.369   8.550   6.655 -0.6135 -0.7130  0.0036
  632MOL0     C85219  11.393   8.572   6.793 -0.2535 -0.1164 -0.9542
  632MOL0     O85220  11.457   8.470   6.862  0.4054 -0.4279 -0.0441
  632MOL0     C85221  11.538   8.513   6.974 -0.3277 -1.4448  0.0612
  632MOL0     C85222  11.623   8.381   7.015  0.0318 -0.2264 -0.2148
  632MOL0     C85223  11.765   8.424   7.053  0.0278  0.7696  0.1449
  632MOL0     C85224  11.837   8.418   6.909 -0.7055 -0.0918  0.5011
  632MOL0     C85225  11.957   8.507   6.913  0.6918  0.1871 -0.1816
  632MOL0     C85226  12.050   8.490   6.793  0.6995 -0.0388 -0.0762
  632MOL0     C85227  11.970   8.533   6.660  0.1319  0.3437 -0.2406
  632MOL0     C85228  12.069   8.587   6.552  0.0373  0.4799 -0.7715
  632MOL0    Cl85229  11.972   8.660   6.419  0.3004 -0.3468  0.3910
  632MOL0     C85230  11.370   8.698   6.857 -0.7058  0.5261 -0.2188
  632MOL0     C85231  11.301   8.799   6.795 -0.1957  0.3223  0.0116
  632MOL0     O85232  11.009   8.757   6.519  0.2748  0.1835  0.5051
  632MOL0     C85233  10.936   8.977   6.377  0.5621 -0.0579 -1.0297
  632MOL0     C85234  10.886   9.089   6.314  0.5115 -0.3658 -0.2440
  632MOL0     N85235  10.686   9.899   6.083  0.5697 -0.3025 -0.0414
  632MOL0     N85236  10.604   9.965   6.160  0.0093  0.0490  0.4473
  632MOL0     C85237  11.006   9.972   6.578  0.6017 -0.0825  0.6614
  632MOL0     C85238  11.007  10.108   6.555  0.6023 -0.3263 -0.0751
  632MOL0     C85239  10.841  10.506   6.380  0.0845 -0.2885 -0.1903
  632MOL0     C85240  10.937  10.552   6.290  0.2704 -0.3110 -0.2761
  632MOL0     C85241  10.955  10.683   6.255  0.8488 -0.7159  0.8146
  632MOL0     C85242  10.886  10.775   6.328 -0.3075 -0.2305 -1.9228
  632MOL0     O85243  10.892  10.906   6.292 -0.0042 -0.9113 -0.1495
  632MOL0     C85244  10.985  10.980   6.377 -0.0955  0.8317 -0.5213
  632MOL0     C85245  10.998  11.118   6.307 -0.1556 -0.0531 -0.4882
  632MOL0     C85246  11.080  11.113   6.178 -0.5573  0.7063  0.3504
  632MOL0     C85247  11.006  11.031   6.068  0.1006 -0.1904  0.6790
  632MOL0     C85248  11.071  11.055   5.934  1.0565 -0.8867 -0.8031
  632MOL0     C85249  11.104  11.074   5.816  0.1701  0.0216  0.3307
  632MOL0     C85250  10.808  10.734   6.436  0.1023 -0.8025 -0.1652
  632MOL0     C85251  10.778  10.600   6.457 -0.0814 -0.5276  1.0803
  632MOL0     C85252  10.667  10.567   6.563  0.4203 -0.0872 -0.0579
  632MOL0     H85253  10.857  10.090   6.245 -2.2748 -0.0081 -0.7898
  632MOL0     H85254  10.813   9.860   6.317 -1.0446  0.3992 -0.3277
  632MOL0     H85255  10.964   9.710   6.724  1.3080 -1.4266 -2.7240
  632MOL0     H85256  10.818   9.816   6.728 -0.5027 -2.1153  0.9408
  632MOL0     H85257  10.745   9.603   6.821 -0.4457  1.7301  0.5281
  632MOL0     H85258  10.828   9.519   6.696 -1.2894 -0.3024  0.7898
  632MOL0     H85259  10.567   9.531   6.653 -2.8991  2.5416 -0.7055
  632MOL0     H85260  10.650   9.617   6.530 -3.0956 -0.9896 -0.8927
  632MOL0     H85261  10.574   9.731   6.802  2.5997 -3.3002 -0.5163
  632MOL0     H85262  10.618   9.829   6.661  4.4218 -1.7409  0.9066
  632MOL0     H85263  10.367   9.636   6.665 -0.1134  0.8097 -0.7263
  632MOL0     H85264  10.363   9.817   6.696  2.6029  1.3534  0.6722
  632MOL0     H85265  10.427   9.685   6.431 -1.5560 -1.5422 -0.1268
  632MOL0     H85266  10.284   9.773   6.486  0.3953 -1.9757  1.4593
  632MOL0     H85267  10.551   9.915   6.463  0.8656 -0.4530 -1.3529
  632MOL0     H85268  10.387   9.982   6.490  1.7010 -0.0092  1.5735
  632MOL0     H85269  10.305   9.890   6.283  0.2511 -0.1809  0.7058
  632MOL0     H85270  10.416  10.035   6.291  1.3234  0.0202  0.0274
  632MOL0     H85271  10.513   9.661   6.230 -1.0025  0.2879 -0.6730
  632MOL0     H85272  10.670   9.600   5.977 -2.5959  0.1839  2.2343
  632MOL0     H85273  10.833   9.678   6.001 -0.8309  0.6773 -0.2802
  632MOL0     H85274  10.645   9.512   6.188 -1.7607 -0.3260 -2.8387
  632MOL0     H85275  10.778   9.442   6.099  2.8059  2.7034 -1.9496
  632MOL0     H85276  10.825   9.650   6.310  1.2814  1.7884 -0.4389
  632MOL0     H85277  10.953   9.574   6.216  0.9266  0.0038  2.0436
  632MOL0     H85278  10.770   9.423   6.397 -0.0442 -2.4511 -0.9555
  632MOL0     H85279  10.942   9.469   6.424  0.7887 -1.4239  0.5028
  632MOL0     H85280  11.072   9.318   6.500  2.6321 -1.8001 -1.9142
  632MOL0     H85281  11.150   9.118   6.598 -0.9552 -0.6236  1.7252
  632MOL0     H85282  11.277   8.665   6.489 -1.6124  1.2042  0.2750
  632MOL0     H85283  11.410   8.463   6.606  1.5811 -0.9772  2.1283
  632MOL0     H85284  11.603   8.596   6.944 -0.0658 -1.7149 -0.1256
  632MOL0     H85285  11.482   8.540   7.064  1.8199  1.3728  0.7181
  632MOL0     H85286  11.574   8.340   7.104  1.6805  3.2448  2.4639
  632MOL0     H85287  11.625   8.296   6.945  1.1004  0.0646 -0.5566
  632MOL0     H85288  11.757   8.520   7.104 -1.2184  0.7525  0.0151
  632MOL0     H85289  11.810   8.343   7.113 -2.1944 -4.5851 -4.4794
  632MOL0     H85290  11.784   8.452   6.819 -0.1770 -1.4768 -0.3670
  632MOL0     H85291  11.872   8.314   6.901  0.7653  0.0887  3.3898
  632MOL0     H85292  12.014   8.491   7.005  3.2047 -0.9595 -1.8203
  632MOL0     H85293  11.915   8.606   6.927 -0.4557 -0.2650 -0.3266
  632MOL0     H85294  12.139   8.552   6.809  2.6765 -2.7462  0.1892
  632MOL0     H85295  12.069   8.383   6.787  0.9160  0.0681 -2.3149
  632MOL0     H85296  11.904   8.619   6.674 -0.4797  0.2165 -2.0173
  632MOL0     H85297  11.924   8.440   6.626 -0.9786 -0.3563  2.8586
  632MOL0     H85298  12.135   8.667   6.586  1.0948 -1.1133  1.1540
  632MOL0     H85299  12.136   8.503   6.529  2.2285  0.9237  3.1540
  632MOL0     H85300  11.392   8.721   6.961  2.1153  0.4365 -0.6963
  632MOL0     H85301  11.280   8.888   6.853 -2.2891 -1.2947  1.9451
  632MOL0     H85302  10.907   8.879   6.341 -2.8701  0.2316  0.5006
  632MOL0     H85303  10.822   9.094   6.227  2.3321  0.6770 -1.6036
  632MOL0     H85304  11.055   9.935   6.667  1.3075  0.8412  0.6762
  632MOL0     H85305  11.062  10.181   6.613 -0.2927  2.5059 -2.5253
  632MOL0     H85306  11.001  10.477   6.245  0.0849 -1.0454  0.6751
  632MOL0     H85307  11.025  10.719   6.181  1.3133 -0.1439  1.5157
  632MOL0     H85308  11.082  10.930   6.381 -1.1069 -1.4505 -2.4557
  632MOL0     H85309  10.962  10.989   6.484 -0.9527 -1.0113 -0.5133
  632MOL0     H85310  11.055  11.188   6.369  0.0975 -1.1688  0.5627
  632MOL0     H85311  10.895  11.152   6.290 -0.8533 -2.4390 -1.4230
  632MOL0     H85312  11.181  11.074   6.192 -1.9246 -3.4774  0.0244
  632MOL0     H85313  11.097  11.218   6.154  0.6942  1.2161  3.0887
  632MOL0     H85314  11.000  10.923   6.083  0.9668 -0.4950 -0.9667
  632MOL0     H85315  10.906  11.070   6.048 -0.3131 -1.4833  0.1060
  632MOL0     H85316  11.138  11.095   5.717 -0.9925  1.6660  0.2210
  632MOL0     H85317  10.744  10.797   6.498  0.1783  0.5774 -1.4275
  632MOL0     H85318  10.614  10.476   6.532  0.3493  0.2361 -0.9153
  632MOL0     H85319  10.719  10.546   6.657  0.1908 -1.7497 -0.2649
  632MOL0     H85320  10.588  10.643   6.564  1.0257  0.5629 -0.6897
  633MOL0     O85321   3.546   4.114   4.677  0.0149 -0.3338  0.9534
  633MOL0     C85322   3.440   4.182   4.674  0.6576  0.6094 -0.7481
  633MOL0     O85323   3.439   4.309   4.613 -0.3494 -0.4762 -0.8670
  633MOL0     C85324   3.556   4.356   4.561  0.6023  0.2793 -0.2779
  633MOL0     C85325   3.563   4.402   4.431  0.6310 -0.2953  0.2462
  633MOL0     C85326   3.684   4.451   4.376  0.9295 -0.4405 -0.5571
  633MOL0     C85327   3.798   4.472   4.459  0.7541  0.1897  0.6873
  633MOL0     O85328   3.908   4.538   4.412 -0.0350 -0.4158  0.3456
  633MOL0     C85329   3.933   4.559   4.276 -0.3229  0.4134 -0.5373
  633MOL0     C85330   4.069   4.626   4.280 -0.8072  0.2791 -0.5524
  633MOL0     C85331   4.126   4.654   4.133  0.4206 -0.3716  0.0929
  633MOL0     C85332   4.255   4.736   4.151 -0.0351  0.6602 -0.5550
  633MOL0     C85333   4.291   4.775   4.004  0.1747  0.8518 -0.3717
  633MOL0     C85334   4.406   4.876   4.015  0.3968 -0.0267  0.5211
  633MOL0     C85335   4.403   4.967   3.894 -0.6482  0.9957 -0.0647
  633MOL0     C85336   4.518   5.054   3.865 -0.0180 -0.1404 -0.5527
  633MOL0     N85337   4.544   5.152   3.968 -0.1841  0.8959 -0.6337
  633MOL0     C85338   4.616   5.123   4.080  0.1735 -0.4659 -0.4679
  633MOL0     C85339   4.610   5.252   4.139 -0.0911  0.9210 -0.0159
  633MOL0     C85340   4.673   5.288   4.273  1.5814 -0.3591  0.1578
  633MOL0     C85341   4.629   5.219   4.404 -1.4295  0.2946 -0.2630
  633MOL0     C85342   4.492   5.264   4.435 -0.4084  0.3003 -0.2199
  633MOL0     C85343   4.396   5.155   4.384  0.5774 -0.2252  1.1780
  633MOL0     O85344   4.265   5.200   4.413 -0.1217  0.4263 -0.0076
  633MOL0     C85345   4.155   5.119   4.382 -0.5098 -0.2537  0.5807
  633MOL0     C85346   4.134   5.076   4.245  0.1679 -0.4264 -0.4390
  633MOL0     C85347   4.023   5.017   4.207  0.5243  0.0461  0.4387
  633MOL0     C85348   3.927   4.994   4.300 -0.5438 -0.2272 -0.2872
  633MOL0     C85349   3.796   4.938   4.268 -0.3780  0.4127 -0.7034
  633MOL0     O85350   3.721   4.880   4.373 -0.5644 -0.2530  0.2231
  633MOL0     C85351   3.594   4.842   4.357  0.4446 -0.6724  0.0367
  633MOL0     C85352   3.501   4.873   4.257  0.0293 -0.0187  0.7864
  633MOL0     C85353   3.369   4.819   4.249  0.0814 -0.1915  0.0694
  633MOL0     C85354   3.345   4.714   4.337 -0.4683  0.7855 -1.0081
  633MOL0     O85355   3.222   4.651   4.352 -0.0959 -0.2333 -0.1905
  633MOL0     C85356   3.151   4.601   4.238  0.3171  0.0319  0.0159
  633MOL0     C85357   3.038   4.509   4.295  0.5515 -0.0250  0.4315
  633MOL0     C85358   3.085   4.374   4.351 -0.0338  0.0430  0.0107
  633MOL0     C85359   3.156   4.279   4.253  0.0854  0.0069 -0.4885
  633MOL0     C85360   3.222   4.148   4.312  0.0017 -0.2503 -0.1801
  633MOL0     C85361   3.117   4.052   4.374  0.1395  0.0495  0.0335
  633MOL0     C85362   3.177   3.915   4.410 -0.1855  0.2602  0.3248
  633MOL0     C85363   3.070   3.836   4.471  0.1647  0.5395 -0.3954
  633MOL0    Cl85364   2.971   3.752   4.339 -0.3176  0.4309  0.2088
  633MOL0     C85365   3.430   4.687   4.438  0.6414  0.3618  0.4043
  633MOL0     C85366   3.546   4.759   4.457 -1.0416  0.2073  0.4952
  633MOL0     O85367   3.762   4.940   4.149 -0.3344  0.1353  0.7072
  633MOL0     C85368   3.946   5.040   4.433  0.0140 -1.1247  0.6556
  633MOL0     C85369   4.054   5.114   4.472  0.2623 -0.8816  0.3617
  633MOL0     N85370   4.542   5.346   4.063  1.0239 -0.3424  0.5686
  633MOL0     N85371   4.503   5.283   3.956 -0.2592 -0.0799  0.6016
  633MOL0     C85372   3.788   4.435   4.590  0.0139 -0.1018 -0.1117
  633MOL0     C85373   3.673   4.378   4.645  0.2800 -0.0719  0.1710
  633MOL0     C85374   3.314   4.139   4.742 -0.3480 -0.3825 -0.5831
  633MOL0     C85375   3.207   4.238   4.756 -0.3456 -0.3457 -0.8151
  633MOL0     C85376   3.080   4.206   4.812  0.1553 -0.1301 -0.3721
  633MOL0     C85377   3.063   4.076   4.859  1.1848  0.0556 -0.6450
  633MOL0     O85378   2.943   4.034   4.912  0.5132 -1.1164  0.8485
  633MOL0     C85379   2.858   3.983   4.806 -0.0356  0.0055 -0.3340
  633MOL0     C85380   2.822   4.087   4.690 -0.1015  0.6360  0.3790
  633MOL0     C85381   2.724   4.023   4.590 -0.1382 -0.2259 -0.0496
  633MOL0     C85382   2.651   4.128   4.496  0.0283  0.3732  0.7035
  633MOL0     C85383   2.572   4.074   4.391  0.1631  1.0884 -0.1948
  633MOL0     C85384   2.504   4.034   4.300  0.0599 -0.3180  0.3175
  633MOL0     C85385   3.166   3.985   4.862 -0.0453 -0.3650  0.3484
  633MOL0     C85386   3.290   4.013   4.800  0.0061  1.8474  0.2533
  633MOL0     C85387   3.402   3.900   4.797 -0.1706  1.4984 -0.0568
  633MOL0     H85388   3.465   4.416   4.388 -0.1724  2.4351  2.6284
  633MOL0     H85389   3.680   4.502   4.280 -0.4465  2.1278  0.7590
  633MOL0     H85390   3.935   4.468   4.214  1.5370  0.9204 -1.3153
  633MOL0     H85391   3.851   4.624   4.245 -1.4045  0.5438  2.3132
  633MOL0     H85392   4.139   4.570   4.342  1.4246  0.5926 -2.6858
  633MOL0     H85393   4.054   4.720   4.335 -2.6986 -1.5434  2.3168
  633MOL0     H85394   4.050   4.710   4.078  1.3345  1.8676  0.9526
  633MOL0     H85395   4.141   4.560   4.079 -2.1516 -1.8791  1.7904
  633MOL0     H85396   4.238   4.828   4.208 -0.6687 -1.2283  2.5502
  633MOL0     H85397   4.329   4.675   4.202  0.2253  1.2744 -0.1884
  633MOL0     H85398   4.321   4.690   3.943  2.9484 -0.8704  3.0264
  633MOL0     H85399   4.207   4.824   3.954  0.8461  1.1257 -1.2587
  633MOL0     H85400   4.399   4.941   4.103  0.2277  0.9276 -0.1816
  633MOL0     H85401   4.507   4.832   4.015  0.3267 -0.3883 -2.7575
  633MOL0     H85402   4.313   5.023   3.921 -1.4829 -0.3902  0.1276
  633MOL0     H85403   4.379   4.909   3.804 -1.6497 -0.7779  1.2690
  633MOL0     H85404   4.607   4.990   3.872 -0.0328  0.0268  3.0950
  633MOL0     H85405   4.512   5.097   3.764 -1.1456 -0.5298 -0.6636
  633MOL0     H85406   4.652   5.031   4.124 -0.5686 -1.3205 -1.5972
  633MOL0     H85407   4.778   5.264   4.258  1.5845  0.8608 -2.3350
  633MOL0     H85408   4.668   5.397   4.274  0.8161 -0.3288 -1.9069
  633MOL0     H85409   4.635   5.110   4.398 -0.5808  0.4063 -2.0933
  633MOL0     H85410   4.699   5.244   4.484 -1.6625 -2.3583  0.8535
  633MOL0     H85411   4.467   5.367   4.408  0.6600  1.6137  3.1847
  633MOL0     H85412   4.483   5.276   4.544 -3.3619 -0.4658 -0.2886
  633MOL0     H85413   4.414   5.059   4.433 -0.4070 -0.4041  1.2089
  633MOL0     H85414   4.411   5.158   4.276  0.3863  1.3189  1.1610
  633MOL0     H85415   4.219   5.103   4.183  0.8977 -0.9395  0.3279
  633MOL0     H85416   3.999   4.988   4.105 -2.6163 -1.6569  1.5230
  633MOL0     H85417   3.525   4.950   4.184 -1.8241 -1.3911 -1.4320
  633MOL0     H85418   3.288   4.851   4.184 -3.4283 -2.0758  3.1235
  633MOL0     H85419   3.105   4.675   4.172 -0.2889  0.0767  0.4768
  633MOL0     H85420   3.217   4.541   4.175  2.4107  1.7197  0.5038
  633MOL0     H85421   2.982   4.563   4.372  0.4533  0.0201  0.3305
  633MOL0     H85422   2.959   4.493   4.220 -0.8862  0.2192  1.8347
  633MOL0     H85423   3.147   4.407   4.435  0.4158 -1.3009  0.2259
  633MOL0     H85424   2.998   4.321   4.391 -0.8906 -1.0961 -3.0534
  633MOL0     H85425   3.242   4.337   4.220 -0.3590  1.5693  0.9701
  633MOL0     H85426   3.089   4.245   4.172 -1.0786  1.0133  0.0178
  633MOL0     H85427   3.305   4.171   4.381 -1.0393  0.8062  0.7750
  633MOL0     H85428   3.260   4.095   4.224 -0.3659 -0.1919 -0.3724
  633MOL0     H85429   3.082   4.099   4.466  0.0263 -1.6920  0.9142
  633MOL0     H85430   3.031   4.030   4.310  0.1592 -1.5902  0.5107
  633MOL0     H85431   3.269   3.926   4.467  2.0022 -1.3364 -2.6178
  633MOL0     H85432   3.228   3.864   4.327  2.9363  3.1483  0.2648
  633MOL0     H85433   3.118   3.757   4.530 -1.0795 -0.3450 -0.5401
  633MOL0     H85434   3.014   3.896   4.543  1.5698 -1.2093  2.3647
  633MOL0     H85435   3.388   4.616   4.510  1.4327 -2.6486 -1.9130
  633MOL0     H85436   3.613   4.738   4.539  0.5339 -0.4312 -0.9049
  633MOL0     H85437   3.862   5.031   4.501  1.0860 -2.2473  1.8794
  633MOL0     H85438   4.072   5.153   4.572 -1.4597 -1.8351  1.0949
  633MOL0     H85439   3.881   4.449   4.644  0.3369 -3.6619  0.5394
  633MOL0     H85440   3.663   4.349   4.750 -1.9696  1.4592  0.4502
  633MOL0     H85441   3.220   4.336   4.713  0.1473  1.4239  3.0018
  633MOL0     H85442   2.994   4.271   4.801  0.3583 -0.1023 -2.0927
  633MOL0     H85443   2.763   3.959   4.854  0.3109  0.9823  0.8984
  633MOL0     H85444   2.915   3.899   4.765  0.2258  0.5984 -1.2183
  633MOL0     H85445   2.915   4.109   4.636  0.3890 -0.5664  0.7012
  633MOL0     H85446   2.779   4.180   4.727 -3.7808 -0.6275 -0.3204
  633MOL0     H85447   2.647   3.975   4.651 -1.9453  2.1217 -0.3351
  633MOL0     H85448   2.784   3.963   4.521  1.9750  0.9764  0.6072
  633MOL0     H85449   2.591   4.199   4.554 -2.2050  0.4345 -1.5504
  633MOL0     H85450   2.736   4.184   4.456  0.1848  0.3684  1.0196
  633MOL0     H85451   2.444   4.009   4.215 -0.2389  3.0259 -0.5763
  633MOL0     H85452   3.151   3.888   4.909 -0.7802 -0.9845 -1.1191
  633MOL0     H85453   3.472   3.911   4.880  0.8833  0.8766 -0.8263
  633MOL0     H85454   3.353   3.802   4.808 -0.2495  1.3483 -1.5102
  633MOL0     H85455   3.435   3.894   4.693 -1.0482  0.1865 -0.2966
  634MOL0     O85456   6.558   6.022   8.428 -0.2206  0.3891  0.0077
  634MOL0     C85457   6.600   5.919   8.382  0.4270  0.7019  0.5629
  634MOL0     O85458   6.553   5.785   8.404 -1.0799 -0.3618 -0.3467
  634MOL0     C85459   6.442   5.760   8.481 -0.4645 -0.6242 -0.6402
  634MOL0     C85460   6.364   5.646   8.438 -0.2197 -0.1800  0.9599
  634MOL0     C85461   6.258   5.589   8.506  0.4040  0.6668 -0.1306
  634MOL0     C85462   6.216   5.652   8.619  0.0166  0.0071 -0.0768
  634MOL0     O85463   6.131   5.607   8.707 -0.1600  0.8071 -0.4503
  634MOL0     C85464   6.022   5.528   8.662 -0.4563 -0.3024 -0.9779
  634MOL0     C85465   6.034   5.382   8.701 -0.4786  0.4038 -0.1972
  634MOL0     C85466   5.897   5.311   8.697 -0.5968  0.2399 -0.0469
  634MOL0     C85467   5.829   5.301   8.560  0.5572 -0.3467 -0.0221
  634MOL0     C85468   5.711   5.200   8.573  0.5755  0.4207 -0.2034
  634MOL0     C85469   5.644   5.148   8.439 -0.2016 -0.3609  0.3515
  634MOL0     C85470   5.571   5.271   8.375  0.0470 -0.2099 -0.6777
  634MOL0     C85471   5.436   5.227   8.304  0.2140 -0.5809 -0.0376
  634MOL0     N85472   5.328   5.175   8.399 -0.0226 -0.6801  0.7601
  634MOL0     C85473   5.304   5.041   8.426 -0.7744  0.2364 -0.1793
  634MOL0     C85474   5.193   5.040   8.495 -0.1242 -0.0747  0.6730
  634MOL0     C85475   5.133   4.926   8.571 -0.2283  0.4843 -0.6814
  634MOL0     C85476   5.135   4.941   8.729 -0.1551 -0.8216  0.1133
  634MOL0     C85477   5.279   4.947   8.788  0.2990 -0.3889  0.2538
  634MOL0     C85478   5.283   5.028   8.917 -1.0055 -0.2907 -0.0644
  634MOL0     O85479   5.418   5.068   8.944  0.3111 -0.1182 -0.6236
  634MOL0     C85480   5.434   5.132   9.064 -0.1084  0.4627 -0.7519
  634MOL0     C85481   5.554   5.204   9.081 -0.1106  0.8361  0.8921
  634MOL0     C85482   5.591   5.264   9.199 -0.0349 -0.2981  0.1754
  634MOL0     C85483   5.512   5.265   9.310 -0.4888  0.5197  0.3365
  634MOL0     C85484   5.554   5.326   9.441  0.2601  0.5217 -0.9431
  634MOL0     O85485   5.679   5.366   9.464 -0.6628 -0.9269 -0.8411
  634MOL0     C85486   5.717   5.452   9.570 -0.4911  0.4189  0.3229
  634MOL0     C85487   5.834   5.416   9.627 -1.6703  0.0363 -0.2101
  634MOL0     C85488   5.884   5.493   9.739 -0.7947  0.5810 -0.4668
  634MOL0     C85489   5.806   5.602   9.789 -0.1997 -0.1202 -0.1848
  634MOL0     O85490   5.846   5.672   9.896 -0.0142 -0.2940  0.0541
  634MOL0     C85491   5.826   5.603  10.015  0.5475 -0.2282 -0.3281
  634MOL0     C85492   5.799   5.702  10.123 -0.1088 -0.6646 -0.0829
  634MOL0     C85493   5.684   5.802  10.089 -0.9783  0.1631 -1.0573
  634MOL0     C85494   5.647   5.892  10.212  0.7444  0.4742  0.3264
  634MOL0     C85495   5.538   6.010  10.193 -0.0578  0.5483 -0.4714
  634MOL0     C85496   5.506   6.104  10.315 -0.7141 -0.2224  0.2392
  634MOL0     C85497   5.376   6.182  10.277  0.3538 -0.1952  0.3166
  634MOL0     C85498   5.274   6.186  10.393 -0.6041  0.1995  0.1199
  634MOL0    Cl85499   5.137   6.290  10.347  0.0200  0.1729  0.0318
  634MOL0     C85500   5.681   5.633   9.733  0.2652  0.3350  0.2999
  634MOL0     C85501   5.646   5.561   9.619 -0.4873 -0.6528 -0.6624
  634MOL0     O85502   5.463   5.349   9.521  0.0245  0.2390  0.1024
  634MOL0     C85503   5.387   5.213   9.297 -0.5231  0.6627  0.7668
  634MOL0     C85504   5.342   5.149   9.171  0.2977  0.0534  0.2250
  634MOL0     N85505   5.141   5.166   8.499  0.4368 -0.0151  0.4125
  634MOL0     N85506   5.222   5.249   8.444  0.5538 -0.1622 -0.4240
  634MOL0     C85507   6.278   5.770   8.661 -0.4581 -0.3798  0.7522
  634MOL0     C85508   6.389   5.826   8.591  0.3293 -0.3138  0.6934
  634MOL0     C85509   6.738   5.929   8.302 -1.1134 -0.5861 -0.7192
  634MOL0     C85510   6.802   5.807   8.289  0.1517 -0.1815 -1.6375
  634MOL0     C85511   6.926   5.787   8.227 -1.0893 -0.6503 -0.5297
  634MOL0     C85512   6.992   5.897   8.179  0.5624 -0.5601  0.4085
  634MOL0     O85513   7.111   5.888   8.108  0.2071  0.0451  0.7842
  634MOL0     C85514   7.176   5.763   8.072 -0.6402  0.5349 -0.4521
  634MOL0     C85515   7.264   5.711   8.188  0.1882  0.3974 -0.8430
  634MOL0     C85516   7.404   5.651   8.159  0.0124  0.0931 -0.1973
  634MOL0     C85517   7.485   5.611   8.285 -0.8212 -0.3568 -0.0167
  634MOL0     C85518   7.433   5.498   8.358  1.4587  0.4185 -0.1115
  634MOL0     C85519   7.384   5.396   8.405  0.6303 -0.4730  0.8318
  634MOL0     C85520   6.932   6.023   8.186  0.8606 -0.0420 -0.1660
  634MOL0     C85521   6.809   6.043   8.248  0.4675  0.6008 -1.0670
  634MOL0     C85522   6.737   6.170   8.248 -0.6412 -0.4922 -0.2474
  634MOL0     H85523   6.393   5.599   8.344  0.6607 -1.6780  1.9276
  634MOL0     H85524   6.221   5.499   8.460 -1.8785  1.4890 -0.0638
  634MOL0     H85525   5.934   5.575   8.707  0.3740 -0.5261  0.9691
  634MOL0     H85526   6.005   5.529   8.554 -2.1181  1.8337 -0.7827
  634MOL0     H85527   6.066   5.358   8.803 -2.7288  2.0938  1.0120
  634MOL0     H85528   6.100   5.335   8.627 -0.9937  2.1744 -1.8551
  634MOL0     H85529   5.836   5.360   8.774  1.3069  1.2514  0.8942
  634MOL0     H85530   5.921   5.208   8.728 -2.3230  0.0752  0.8868
  634MOL0     H85531   5.783   5.397   8.533  2.8183 -0.1136 -3.6894
  634MOL0     H85532   5.904   5.265   8.490  1.0459  0.7362 -0.0779
  634MOL0     H85533   5.741   5.107   8.621 -2.7234 -1.1698 -0.9294
  634MOL0     H85534   5.635   5.239   8.642 -0.7408  1.4785 -2.1429
  634MOL0     H85535   5.718   5.095   8.379 -1.7557 -0.2067 -1.8368
  634MOL0     H85536   5.560   5.083   8.465 -0.9200  1.4986  3.1896
  634MOL0     H85537   5.637   5.303   8.294 -1.3530 -0.7934 -2.0936
  634MOL0     H85538   5.559   5.357   8.442  0.7575 -1.0741  0.6057
  634MOL0     H85539   5.393   5.311   8.250 -1.7755 -1.3518  0.2520
  634MOL0     H85540   5.459   5.164   8.218 -3.1003  0.9813 -2.2502
  634MOL0     H85541   5.362   4.953   8.401 -0.6738 -1.5799  5.1192
  634MOL0     H85542   5.034   4.901   8.534  0.0969  0.0001 -1.2377
  634MOL0     H85543   5.179   4.834   8.534  0.0372  0.0398  0.6718
  634MOL0     H85544   5.082   5.034   8.753  1.0145  0.4217 -1.8370
  634MOL0     H85545   5.095   4.855   8.784  1.0675  0.5088  3.2982
  634MOL0     H85546   5.347   4.978   8.708  2.8245 -2.3210  1.5164
  634MOL0     H85547   5.292   4.842   8.818 -0.3307 -0.2976  0.8595
  634MOL0     H85548   5.246   4.966   8.999 -0.4690 -1.0647 -0.3949
  634MOL0     H85549   5.215   5.112   8.895  0.5619  1.1400  0.3264
  634MOL0     H85550   5.627   5.209   9.001 -1.0341 -3.4234 -0.5176
  634MOL0     H85551   5.679   5.328   9.193  0.6266 -1.1796  0.1885
  634MOL0     H85552   5.885   5.337   9.573 -3.8016 -0.8189 -1.0568
  634MOL0     H85553   5.978   5.478   9.791 -1.6865  3.8028  2.5230
  634MOL0     H85554   5.744   5.530  10.018 -0.2812  0.6722 -0.6518
  634MOL0     H85555   5.913   5.537  10.024  1.1409  0.5248 -0.4839
  634MOL0     H85556   5.780   5.644  10.214 -1.8225  0.3160  0.2352
  634MOL0     H85557   5.899   5.746  10.123  0.4953 -1.9822  0.0817
  634MOL0     H85558   5.714   5.871  10.009 -2.2577 -0.7483 -2.3704
  634MOL0     H85559   5.594   5.753  10.053 -0.7806  0.3103 -1.7754
  634MOL0     H85560   5.739   5.933  10.254  0.1679  0.9980  1.1082
  634MOL0     H85561   5.607   5.835  10.297  0.8057 -1.6042 -0.9767
  634MOL0     H85562   5.445   5.967  10.154 -0.0651  0.0860  0.0408
  634MOL0     H85563   5.586   6.083  10.128  1.1180 -0.9137 -1.3230
  634MOL0     H85564   5.476   6.047  10.403 -3.7245  2.1801  0.9442
  634MOL0     H85565   5.593   6.166  10.342 -0.9019  0.0514  0.2154
  634MOL0     H85566   5.318   6.134  10.198  1.0403  3.5291 -2.7943
  634MOL0     H85567   5.391   6.284  10.239  1.0496  0.3693  2.0071
  634MOL0     H85568   5.237   6.088  10.425 -1.5292  0.3763 -0.3875
  634MOL0     H85569   5.335   6.229  10.473  0.2706 -0.3055 -0.2659
  634MOL0     H85570   5.615   5.712   9.769  0.2665  0.3460  0.2772
  634MOL0     H85571   5.556   5.580   9.561  0.0752 -0.3467 -1.4591
  634MOL0     H85572   5.320   5.206   9.383  0.9677 -2.7972  1.8247
  634MOL0     H85573   5.242   5.107   9.177 -0.5170  2.0588  1.5552
  634MOL0     H85574   6.229   5.811   8.749 -1.4370  4.5410 -1.7422
  634MOL0     H85575   6.426   5.924   8.619 -3.2087  1.9585 -1.7495
  634MOL0     H85576   6.754   5.723   8.337 -0.6946  2.6101  3.0753
  634MOL0     H85577   6.975   5.690   8.220  0.4717 -0.1283  1.9435
  634MOL0     H85578   7.235   5.773   7.981  0.3810 -0.7771  0.0407
  634MOL0     H85579   7.095   5.692   8.052 -1.1758  0.9599  0.1668
  634MOL0     H85580   7.206   5.643   8.251 -2.0050  3.8251  1.2050
  634MOL0     H85581   7.288   5.794   8.256  2.0657 -0.7778  0.0010
  634MOL0     H85582   7.470   5.719   8.104  0.7131 -1.1754 -0.9826
  634MOL0     H85583   7.380   5.566   8.095 -0.7407  1.4325 -1.7698
  634MOL0     H85584   7.589   5.594   8.256 -0.8892 -1.6787  0.4499
  634MOL0     H85585   7.495   5.702   8.345 -2.1331  0.0557 -0.3980
  634MOL0     H85586   7.355   5.295   8.425 -0.8747 -0.3981 -0.7336
  634MOL0     H85587   6.981   6.099   8.126  0.5956 -0.8703 -1.4706
  634MOL0     H85588   6.817   6.246   8.243 -1.8521  1.0436  2.0362
  634MOL0     H85589   6.659   6.169   8.172  1.2986 -1.5559 -2.3610
  634MOL0     H85590   6.687   6.188   8.343  0.0259 -1.1498  0.2333
  635MOL0     O85591  11.438   8.824   3.902 -0.6673 -1.0603 -0.2488
  635MOL0     C85592  11.523   8.828   3.999 -0.1319  0.5838 -0.2667
  635MOL0     O85593  11.564   8.717   4.073  0.6088 -0.6987 -0.6087
  635MOL0     C85594  11.490   8.610   4.056  0.3110 -0.1610 -0.4697
  635MOL0     C85595  11.554   8.490   4.021 -0.2054 -1.3731  0.2311
  635MOL0     C85596  11.487   8.371   4.006 -0.1242 -0.7716 -0.1395
  635MOL0     C85597  11.352   8.354   4.043  0.1495 -0.3542 -0.0771
  635MOL0     O85598  11.289   8.229   4.026  0.1443 -0.6347 -0.7812
  635MOL0     C85599  11.162   8.207   4.102 -0.2744  0.0016  0.6668
  635MOL0     C85600  11.125   8.060   4.074 -0.1195 -0.7214  0.0416
  635MOL0     C85601  10.987   8.033   4.133  0.4587 -0.9267 -0.2720
  635MOL0     C85602  10.984   8.010   4.275  0.0130  0.4204 -0.0661
  635MOL0     C85603  10.838   7.993   4.313 -0.3578 -0.7713 -0.8138
  635MOL0     C85604  10.808   7.925   4.449  0.0894  0.3396  0.7102
  635MOL0     C85605  10.673   7.863   4.470  1.0278 -0.6020  0.1655
  635MOL0     C85606  10.566   7.973   4.503  0.0239 -0.1740 -0.1637
  635MOL0     N85607  10.584   8.024   4.636 -0.5642  0.0009 -0.4841
  635MOL0     C85608  10.573   7.941   4.747 -1.1328 -1.0996 -0.2593
  635MOL0     C85609  10.557   8.026   4.848 -0.2874  0.1195 -0.0445
  635MOL0     C85610  10.521   7.976   4.987 -0.1119 -0.4427 -0.0202
  635MOL0     C85611  10.435   7.849   4.996 -1.2015  0.4892 -0.5740
  635MOL0     C85612  10.287   7.870   4.968 -0.6532 -0.1272  0.0146
  635MOL0     C85613  10.228   7.735   4.917  0.3151 -0.2736 -0.9021
  635MOL0     O85614  10.228   7.654   5.033  0.3269 -0.3103 -0.5267
  635MOL0     C85615  10.106   7.649   5.101  0.5268  0.6964 -0.3563
  635MOL0     C85616   9.995   7.738   5.079 -0.1343 -0.0402 -0.1029
  635MOL0     C85617   9.882   7.710   5.155  0.3897  0.1855  1.6091
  635MOL0     C85618   9.869   7.612   5.247 -0.7149  0.2157 -0.1922
  635MOL0     C85619   9.735   7.594   5.320 -0.6034  1.0051 -0.0272
  635MOL0     O85620   9.629   7.665   5.267  0.4514 -0.3874  0.1144
  635MOL0     C85621   9.537   7.582   5.202 -0.0929 -0.1643 -0.0095
  635MOL0     C85622   9.554   7.451   5.152  0.8863 -0.4022 -0.2882
  635MOL0     C85623   9.440   7.379   5.099 -0.4920  0.0834  1.0231
  635MOL0     C85624   9.316   7.439   5.096 -0.4707  0.4023  0.4526
  635MOL0     O85625   9.195   7.380   5.058 -0.1363  0.1374 -0.2642
  635MOL0     C85626   9.204   7.272   4.962  0.2767 -0.2633  0.4475
  635MOL0     C85627   9.064   7.198   4.963 -0.3109  0.0802  0.2285
  635MOL0     C85628   9.043   7.090   4.860 -1.6572 -1.1678  0.6894
  635MOL0     C85629   9.007   7.150   4.708  0.1850 -0.6224  0.5031
  635MOL0     C85630   8.859   7.127   4.682 -0.0886 -0.1906  0.7013
  635MOL0     C85631   8.810   7.177   4.544 -0.8464  0.7825 -0.2129
  635MOL0     C85632   8.808   7.331   4.533 -0.0904 -0.1360 -1.0725
  635MOL0     C85633   8.777   7.370   4.386 -0.1009  0.6234 -0.3899
  635MOL0    Cl85634   8.748   7.552   4.382 -0.4415  0.0300  0.3137
  635MOL0     C85635   9.306   7.569   5.139  1.4563  0.2733 -0.7614
  635MOL0     C85636   9.414   7.644   5.189  0.5216  0.0853  0.6226
  635MOL0     O85637   9.723   7.518   5.415  0.2526 -0.3222 -1.0315
  635MOL0     C85638   9.979   7.517   5.278 -1.7803 -1.2203  0.1624
  635MOL0     C85639  10.092   7.538   5.189  0.3096  0.2987  0.6885
  635MOL0     N85640  10.573   8.157   4.801 -0.0317 -0.9667  0.0329
  635MOL0     N85641  10.592   8.157   4.673 -0.1522  0.0777  0.5633
  635MOL0     C85642  11.284   8.472   4.077  0.4847 -1.0819  0.1258
  635MOL0     C85643  11.355   8.596   4.091  1.1576 -0.6802 -0.1792
  635MOL0     C85644  11.600   8.952   4.001 -0.1559 -0.4218  0.7406
  635MOL0     C85645  11.645   9.016   3.873  0.2127  0.4648 -0.3794
  635MOL0     C85646  11.712   9.132   3.882  0.1342 -0.3603 -0.3262
  635MOL0     C85647  11.742   9.203   4.005  0.1214  0.6055  1.0206
  635MOL0     O85648  11.814   9.324   4.014 -0.0242 -0.6425 -0.2904
  635MOL0     C85649  11.949   9.290   4.039 -0.4650 -0.7466  0.1843
  635MOL0     C85650  12.046   9.374   3.952  0.8109 -0.3867 -0.2081
  635MOL0     C85651  12.079   9.295   3.824 -0.8458  0.5639  0.0987
  635MOL0     C85652  12.228   9.265   3.792  0.2542  0.0950 -0.7199
  635MOL0     C85653  12.293   9.391   3.789  1.1530  0.2145  0.0417
  635MOL0     C85654  12.337   9.501   3.808 -0.0189  0.9087  0.8789
  635MOL0     C85655  11.698   9.144   4.121  0.1014  0.6807  0.3245
  635MOL0     C85656  11.625   9.024   4.126  1.1082  0.6345 -0.0151
  635MOL0     C85657  11.564   8.975   4.263  0.6597  0.6360  0.2419
  635MOL0     H85658  11.661   8.475   4.017  0.5300  2.7510  0.8080
  635MOL0     H85659  11.554   8.290   3.978  1.5815 -0.6483  3.0912
  635MOL0     H85660  11.167   8.235   4.207  2.3858  0.1631  0.5763
  635MOL0     H85661  11.082   8.263   4.053 -1.9086 -3.5400 -1.0417
  635MOL0     H85662  11.199   7.992   4.118 -1.3699 -1.2772  1.3654
  635MOL0     H85663  11.129   8.061   3.965  4.4406  2.2870 -0.0019
  635MOL0     H85664  10.950   7.946   4.077  0.7609 -0.9675 -0.4120
  635MOL0     H85665  10.924   8.119   4.110 -0.4217 -1.5157 -0.1159
  635MOL0     H85666  11.036   7.922   4.314 -1.2597  0.3160  1.5491
  635MOL0     H85667  11.026   8.097   4.326  1.7398  0.3113 -1.2368
  635MOL0     H85668  10.808   8.098   4.322  0.7149 -0.4153 -1.2559
  635MOL0     H85669  10.781   7.942   4.234 -3.3678  1.7378 -0.4842
  635MOL0     H85670  10.891   7.856   4.466  0.6717  1.2899  1.8441
  635MOL0     H85671  10.820   8.010   4.516  1.2532  0.3080  0.5594
  635MOL0     H85672  10.674   7.794   4.555  1.5573  0.8845  1.4126
  635MOL0     H85673  10.648   7.807   4.379 -1.4114  0.3858  0.1485
  635MOL0     H85674  10.559   8.053   4.429  0.6780 -0.1595 -0.2131
  635MOL0     H85675  10.475   7.912   4.506 -0.8175  1.0443  0.0806
  635MOL0     H85676  10.568   7.833   4.738 -0.0496 -1.1320 -0.5617
  635MOL0     H85677  10.615   7.956   5.040 -1.5658 -0.6810  2.6213
  635MOL0     H85678  10.471   8.051   5.048  0.8782 -1.0721  1.6294
  635MOL0     H85679  10.491   7.780   4.932  2.6377  0.7043  2.2057
  635MOL0     H85680  10.441   7.804   5.095 -0.7559 -0.2262 -0.9155
  635MOL0     H85681  10.265   7.958   4.906 -1.4151  0.3223  0.9001
  635MOL0     H85682  10.236   7.893   5.062  2.0825  1.9627  1.1301
  635MOL0     H85683  10.288   7.678   4.845 -1.6488 -3.7470 -0.0406
  635MOL0     H85684  10.127   7.742   4.876 -0.5920 -0.4117  1.1967
  635MOL0     H85685   9.982   7.825   5.016 -3.0038  0.9020  1.5795
  635MOL0     H85686   9.798   7.777   5.140  1.5839  0.8706 -4.6283
  635MOL0     H85687   9.654   7.409   5.145 -0.1910 -2.8118 -3.5755
  635MOL0     H85688   9.439   7.277   5.063  1.1924  0.2426  0.4263
  635MOL0     H85689   9.242   7.308   4.865 -2.0633  0.7150 -0.1674
  635MOL0     H85690   9.260   7.185   4.998 -0.8863 -1.9838 -1.6837
  635MOL0     H85691   9.037   7.159   5.062  0.4603  3.4236  1.9188
  635MOL0     H85692   8.985   7.273   4.950 -2.5818 -1.8550  1.9435
  635MOL0     H85693   9.143   7.049   4.844 -1.2148  0.5679 -1.4822
  635MOL0     H85694   8.970   7.012   4.882 -3.2236 -0.1558 -0.6711
  635MOL0     H85695   9.061   7.100   4.627  1.7528 -1.3187  1.9296
  635MOL0     H85696   9.022   7.258   4.696  1.1763 -0.6102  1.6613
  635MOL0     H85697   8.803   7.175   4.763 -0.9923 -2.8859  1.7733
  635MOL0     H85698   8.837   7.020   4.691  1.1170 -0.5105  0.0715
  635MOL0     H85699   8.885   7.140   4.473  1.0792 -2.6644  3.2332
  635MOL0     H85700   8.714   7.132   4.519 -1.9151  2.4931  0.7099
  635MOL0     H85701   8.902   7.374   4.570  0.6420 -2.0255 -0.6381
  635MOL0     H85702   8.724   7.363   4.595  0.5333  0.8346 -0.6969
  635MOL0     H85703   8.853   7.327   4.320 -1.5862 -0.9796 -1.1569
  635MOL0     H85704   8.678   7.330   4.359  0.1441 -0.1222 -0.2067
  635MOL0     H85705   9.212   7.623   5.133  1.0129 -0.6051 -2.2970
  635MOL0     H85706   9.392   7.740   5.233 -1.3230 -0.7052  1.5106
  635MOL0     H85707   9.970   7.443   5.357  1.1904 -0.3476  1.4770
  635MOL0     H85708  10.180   7.475   5.191 -0.2831 -0.5422  1.5859
  635MOL0     H85709  11.177   8.485   4.088  0.4779  1.9765 -2.0622
  635MOL0     H85710  11.294   8.677   4.128  1.6338  0.9232 -2.6556
  635MOL0     H85711  11.630   8.968   3.777  1.7104 -1.8009  0.4331
  635MOL0     H85712  11.739   9.182   3.789  0.0043 -1.2163 -0.8371
  635MOL0     H85713  11.974   9.183   4.037  0.4407 -0.5775  1.4002
  635MOL0     H85714  11.963   9.319   4.143  1.0934  1.2667 -0.5139
  635MOL0     H85715  12.131   9.387   4.020 -0.4695 -0.6013  1.5257
  635MOL0     H85716  11.989   9.463   3.922 -0.2106  0.3724  3.4745
  635MOL0     H85717  12.050   9.362   3.743  0.8285 -0.9822 -1.8568
  635MOL0     H85718  12.009   9.211   3.836 -2.3951  2.0569  2.4320
  635MOL0     H85719  12.277   9.210   3.873  0.1389 -0.8751 -1.3041
  635MOL0     H85720  12.254   9.216   3.698 -2.9851  0.5723 -1.9776
  635MOL0     H85721  12.367   9.602   3.793  3.3484 -0.4813 -5.8917
  635MOL0     H85722  11.722   9.201   4.211 -0.3419  0.4825  0.5743
  635MOL0     H85723  11.645   8.927   4.318  2.9991  0.6056 -2.9259
  635MOL0     H85724  11.530   9.057   4.327 -2.2825  0.6752 -1.1809
  635MOL0     H85725  11.478   8.908   4.250 -0.7195  2.3281  0.1919
  636MOL0     O85726   3.393   8.050   6.350 -0.2328  0.2164  0.5695
  636MOL0     C85727   3.407   7.929   6.336  1.2689 -0.3395 -1.2347
  636MOL0     O85728   3.485   7.873   6.242  0.1310 -0.1431 -0.3798
  636MOL0     C85729   3.536   7.947   6.146  0.2299  0.3092 -1.5040
  636MOL0     C85730   3.460   7.969   6.033  0.2461 -0.4362  0.0868
  636MOL0     C85731   3.512   8.060   5.934  0.7753 -0.8776 -0.4503
  636MOL0     C85732   3.634   8.115   5.952  0.2775 -0.2315  1.0199
  636MOL0     O85733   3.652   8.207   5.855 -0.5269  0.6154 -0.4500
  636MOL0     C85734   3.785   8.257   5.818  0.1522  0.0630  0.2212
  636MOL0     C85735   3.780   8.384   5.741 -0.8400 -0.6933  0.2449
  636MOL0     C85736   3.759   8.503   5.833  0.3730 -0.6533  0.2771
  636MOL0     C85737   3.887   8.550   5.909  0.1485  0.2503  1.6715
  636MOL0     C85738   3.849   8.622   6.029  0.0695  0.1866  0.2174
  636MOL0     C85739   3.789   8.760   5.998 -0.4260 -0.4492 -0.0302
  636MOL0     C85740   3.749   8.819   6.136 -0.2160  0.2993  0.9047
  636MOL0     C85741   3.864   8.847   6.235 -0.6063 -0.5855 -0.2131
  636MOL0     N85742   3.811   8.895   6.367  0.4009  0.9013  0.0968
  636MOL0     C85743   3.763   8.809   6.466 -0.0901  0.4160 -0.8936
  636MOL0     C85744   3.710   8.900   6.556  0.8633 -0.7138  0.3850
  636MOL0     C85745   3.646   8.842   6.684  0.4895  0.2524  0.4036
  636MOL0     C85746   3.525   8.769   6.656 -0.1496 -0.6428 -0.1800
  636MOL0     C85747   3.482   8.668   6.760 -0.4880 -0.4457  0.4651
  636MOL0     C85748   3.348   8.593   6.740 -0.0586  0.4343  0.5215
  636MOL0     O85749   3.334   8.486   6.834  0.0866  0.3531  0.4713
  636MOL0     C85750   3.410   8.369   6.809  0.1942 -0.1297 -0.4972
  636MOL0     C85751   3.481   8.301   6.903  0.2476 -0.5158  0.7130
  636MOL0     C85752   3.550   8.180   6.885 -0.7357  0.3872 -0.3650
  636MOL0     C85753   3.560   8.133   6.752  1.3837 -0.2681  0.2631
  636MOL0     C85754   3.650   8.022   6.709 -0.2472  0.3695 -0.1340
  636MOL0     O85755   3.632   7.952   6.587  0.0325 -0.1910 -0.1534
  636MOL0     C85756   3.740   7.881   6.549 -0.2294 -0.1248  0.1367
  636MOL0     C85757   3.854   7.953   6.515 -0.7034 -0.0325  0.7013
  636MOL0     C85758   3.956   7.883   6.461 -0.1053 -0.9667 -1.0639
  636MOL0     C85759   3.958   7.753   6.427  0.5651 -0.1714  0.6682
  636MOL0     O85760   4.061   7.681   6.371 -0.7635 -0.0132 -0.7848
  636MOL0     C85761   4.192   7.744   6.363 -0.0763  0.0095 -0.4736
  636MOL0     C85762   4.290   7.665   6.281  1.0904 -0.2230  0.5022
  636MOL0     C85763   4.246   7.649   6.131 -0.3560 -0.3541 -0.3020
  636MOL0     C85764   4.364   7.586   6.063 -0.0147 -0.5620  0.5658
  636MOL0     C85765   4.307   7.532   5.919  0.1311  0.7309  0.0152
  636MOL0     C85766   4.417   7.436   5.859 -0.0906 -0.4681 -0.8786
  636MOL0     C85767   4.382   7.385   5.714 -0.3228  0.1515  0.1422
  636MOL0     C85768   4.241   7.349   5.698  0.1371 -0.2073  0.7213
  636MOL0    Cl85769   4.216   7.198   5.806 -0.0125  0.5568 -0.2376
  636MOL0     C85770   3.847   7.682   6.450  0.4446  0.8160 -0.0157
  636MOL0     C85771   3.733   7.746   6.510 -0.3996  0.4352  0.4127
  636MOL0     O85772   3.740   8.007   6.796  0.0992 -0.1208  0.7170
  636MOL0     C85773   3.487   8.193   6.650 -0.2967  1.4943 -0.9569
  636MOL0     C85774   3.414   8.305   6.680 -0.2035 -0.0379 -0.5121
  636MOL0     N85775   3.723   9.033   6.503  0.3176 -0.9950 -0.2719
  636MOL0     N85776   3.796   9.025   6.406 -0.9363 -0.4290  0.9337
  636MOL0     C85777   3.718   8.075   6.056  0.1499 -0.0210 -0.6396
  636MOL0     C85778   3.664   7.995   6.151 -0.0425  0.2818 -0.1125
  636MOL0     C85779   3.335   7.830   6.423  0.7563 -0.0002 -0.6326
  636MOL0     C85780   3.390   7.701   6.415  0.1129 -0.2788 -0.5964
  636MOL0     C85781   3.319   7.600   6.485 -0.2915  0.2753 -0.9341
  636MOL0     C85782   3.206   7.634   6.573  0.0541  1.3598  0.5022
  636MOL0     O85783   3.155   7.531   6.649 -0.1527  0.1160 -0.0239
  636MOL0     C85784   3.247   7.475   6.741 -0.1262  0.0037  0.6284
  636MOL0     C85785   3.240   7.329   6.704  0.4183  0.7359 -0.0665
  636MOL0     C85786   3.115   7.258   6.759  0.5707 -0.2214  0.3254
  636MOL0     C85787   3.112   7.107   6.733  0.3611 -0.8531  0.1089
  636MOL0     C85788   2.993   7.043   6.790  1.1071 -0.2557 -0.3625
  636MOL0     C85789   2.889   7.006   6.852 -0.0806 -0.1746  1.1821
  636MOL0     C85790   3.159   7.759   6.583  0.2841  0.0617 -0.6870
  636MOL0     C85791   3.224   7.860   6.507 -0.7283 -0.3325 -0.6608
  636MOL0     C85792   3.176   8.000   6.542 -0.3936  0.5336  0.4747
  636MOL0     H85793   3.356   7.940   6.022 -0.6153  2.6741 -1.2040
  636MOL0     H85794   3.454   8.095   5.849  0.8097  0.0164 -0.1185
  636MOL0     H85795   3.847   8.277   5.906  4.5292 -1.8033 -2.1225
  636MOL0     H85796   3.835   8.175   5.766  2.1427  0.9822  0.5760
  636MOL0     H85797   3.713   8.398   5.655  2.2995 -2.5717 -2.8115
  636MOL0     H85798   3.881   8.388   5.700 -0.5234 -2.9973  0.6484
  636MOL0     H85799   3.701   8.466   5.917 -0.6102  1.6939  0.6794
  636MOL0     H85800   3.697   8.581   5.788  0.2243  1.1970  3.4604
  636MOL0     H85801   3.955   8.468   5.936 -0.4546 -1.1931 -0.8442
  636MOL0     H85802   3.947   8.626   5.858 -1.9990  1.5431  0.9021
  636MOL0     H85803   3.781   8.566   6.094  0.6959 -1.9780 -0.8892
  636MOL0     H85804   3.942   8.623   6.086  0.2818 -4.8054  0.4374
  636MOL0     H85805   3.870   8.821   5.956  1.4397 -1.0643  2.4324
  636MOL0     H85806   3.702   8.751   5.932 -2.8880 -0.8487  3.0722
  636MOL0     H85807   3.672   8.753   6.177  0.2573  0.1409  1.5637
  636MOL0     H85808   3.694   8.913   6.133  0.2089  0.5516 -2.6764
  636MOL0     H85809   3.939   8.771   6.261 -0.0340  1.5409  5.8627
  636MOL0     H85810   3.927   8.926   6.192  0.8467 -1.4501  0.2627
  636MOL0     H85811   3.761   8.701   6.468  0.6740  0.4030  0.5373
  636MOL0     H85812   3.719   8.776   6.731  0.3761 -1.3876 -1.5927
  636MOL0     H85813   3.625   8.921   6.757 -3.5873 -0.4768  0.2589
  636MOL0     H85814   3.450   8.847   6.643  1.5867  1.5572  1.9411
  636MOL0     H85815   3.527   8.724   6.557  2.5857  1.3342 -1.1558
  636MOL0     H85816   3.462   8.728   6.850  0.9615  2.2579 -0.9125
  636MOL0     H85817   3.559   8.592   6.774 -1.1076 -0.9365  1.2944
  636MOL0     H85818   3.344   8.565   6.635  3.8827  1.7983 -0.1488
  636MOL0     H85819   3.267   8.663   6.765  0.0702  0.1938  1.6608
  636MOL0     H85820   3.475   8.336   7.005 -1.5389 -0.2954  0.5758
  636MOL0     H85821   3.611   8.150   6.969 -0.6983 -0.1785 -0.5909
  636MOL0     H85822   3.867   8.058   6.542 -0.6886 -0.2600  1.6214
  636MOL0     H85823   4.033   7.956   6.437 -0.5611 -0.1139 -0.0021
  636MOL0     H85824   4.195   7.846   6.326 -0.0846 -1.0921 -3.8436
  636MOL0     H85825   4.229   7.755   6.465  0.3747 -0.0465 -0.6276
  636MOL0     H85826   4.387   7.715   6.284  0.6158  0.7882  3.8071
  636MOL0     H85827   4.300   7.565   6.326 -0.1682 -0.7095 -0.2726
  636MOL0     H85828   4.153   7.591   6.126 -0.6752  0.2353 -2.7943
  636MOL0     H85829   4.221   7.744   6.083 -0.6492 -0.9566 -1.4050
  636MOL0     H85830   4.406   7.514   6.134 -0.5978 -1.1798  0.2891
  636MOL0     H85831   4.450   7.652   6.049  0.4893 -0.7238  2.5320
  636MOL0     H85832   4.307   7.613   5.846  0.2018 -0.0416 -0.8583
  636MOL0     H85833   4.216   7.472   5.928  1.1393 -0.6476  1.6995
  636MOL0     H85834   4.513   7.490   5.857  0.7520 -1.8938 -3.4370
  636MOL0     H85835   4.418   7.350   5.927 -3.4134 -1.9413 -2.4858
  636MOL0     H85836   4.431   7.287   5.707 -3.6693 -1.8524  2.0177
  636MOL0     H85837   4.406   7.457   5.635  0.3588 -0.1815  0.0366
  636MOL0     H85838   4.180   7.436   5.724  0.8829  0.1653  1.2792
  636MOL0     H85839   4.202   7.334   5.597  0.4944 -2.4276  0.8691
  636MOL0     H85840   3.842   7.575   6.430 -0.7050  0.9066 -0.2446
  636MOL0     H85841   3.638   7.694   6.517 -0.6253  0.1862 -3.0374
  636MOL0     H85842   3.482   8.156   6.548  2.0370 -1.8968 -0.0123
  636MOL0     H85843   3.350   8.340   6.599  1.0744  0.9961 -1.0955
  636MOL0     H85844   3.816   8.121   6.066 -0.3710  1.7903 -2.9832
  636MOL0     H85845   3.728   7.962   6.232  0.4478 -0.7718 -0.9068
  636MOL0     H85846   3.465   7.659   6.348 -0.8470 -5.6310  1.1302
  636MOL0     H85847   3.345   7.494   6.489 -1.3702  0.0055 -0.7544
  636MOL0     H85848   3.209   7.493   6.842 -4.1700 -1.8565 -0.3678
  636MOL0     H85849   3.352   7.506   6.728 -0.4848  1.5383  1.1214
  636MOL0     H85850   3.328   7.289   6.754 -0.5076 -1.2564  0.1037
  636MOL0     H85851   3.250   7.305   6.597  3.9772  0.5295  0.2139
  636MOL0     H85852   3.027   7.301   6.710 -0.0481 -0.8921  0.8295
  636MOL0     H85853   3.099   7.279   6.865  2.0448 -1.6258  0.8755
  636MOL0     H85854   3.128   7.080   6.628  0.3389  0.2832 -0.2051
  636MOL0     H85855   3.192   7.065   6.795  0.4591  2.6448  2.6194
  636MOL0     H85856   2.799   6.978   6.902 -1.6470  2.7363  0.2262
  636MOL0     H85857   3.068   7.762   6.642  0.3241 -0.6283 -0.5816
  636MOL0     H85858   3.084   8.007   6.600 -0.2163 -1.0489  0.9967
  636MOL0     H85859   3.250   8.046   6.607  2.7194 -2.9070 -0.3034
  636MOL0     H85860   3.169   8.054   6.447  2.0112  1.1918  0.6221
  637MOL0     O85861   1.621   9.278   1.433 -0.3764 -0.3979 -0.4462
  637MOL0     C85862   1.651   9.301   1.550 -0.8418 -0.1045  0.2398
  637MOL0     O85863   1.612   9.224   1.660 -0.4066  0.8673 -0.4808
  637MOL0     C85864   1.563   9.096   1.646  0.0731  0.0663  0.4316
  637MOL0     C85865   1.636   8.991   1.696  0.4186 -0.4827 -0.9163
  637MOL0     C85866   1.615   8.855   1.674  0.7826 -0.7521 -0.1838
  637MOL0     C85867   1.509   8.823   1.589 -0.3492  0.0828 -0.8155
  637MOL0     O85868   1.491   8.691   1.557 -0.1821  0.5598  0.3515
  637MOL0     C85869   1.432   8.613   1.665 -0.2000  0.5168  0.4570
  637MOL0     C85870   1.286   8.575   1.644 -0.8926 -0.4429  0.7691
  637MOL0     C85871   1.262   8.515   1.500  0.1687 -0.2171  1.0161
  637MOL0     C85872   1.116   8.490   1.473  0.5149 -0.0072 -0.3514
  637MOL0     C85873   1.101   8.433   1.340 -0.3250  0.5979  0.3508
  637MOL0     C85874   0.964   8.380   1.316 -0.1264 -0.8115  0.7721
  637MOL0     C85875   0.956   8.272   1.213 -0.6519  0.3171 -0.4256
  637MOL0     C85876   0.828   8.197   1.212 -0.3268 -0.4966 -0.0121
  637MOL0     N85877   0.801   8.162   1.075  0.6735 -0.5457 -0.9073
  637MOL0     C85878   0.800   8.235   0.957 -0.0612 -0.0938  0.5342
  637MOL0     C85879   0.758   8.155   0.858  0.3585 -0.8055  0.1289
  637MOL0     C85880   0.734   8.210   0.723 -0.2112  0.2396 -0.2161
  637MOL0     C85881   0.588   8.249   0.725  0.2058  0.0276 -0.5913
  637MOL0     C85882   0.525   8.308   0.590 -0.1666  0.6930  0.3173
  637MOL0     C85883   0.570   8.444   0.556  0.0167 -0.4235 -0.9026
  637MOL0     O85884   0.544   8.464   0.415 -0.7206 -0.0605 -0.6331
  637MOL0     C85885   0.440   8.549   0.385  0.4847  0.8995  0.3412
  637MOL0     C85886   0.303   8.510   0.371 -0.0463  0.8892 -0.8814
  637MOL0     C85887   0.210   8.596   0.317 -0.0598  0.2577  0.3812
  637MOL0     C85888   0.229   8.727   0.295 -0.5667  0.2564 -0.5823
  637MOL0     C85889   0.111   8.796   0.256 -0.0384 -0.2064 -0.0059
  637MOL0     O85890  -0.015   8.734   0.260 -0.8900 -0.1699  0.6482
  637MOL0     C85891  -0.126   8.817   0.251  0.6736 -0.2658  0.6491
  637MOL0     C85892  -0.162   8.887   0.360  0.8057 -0.3308 -0.2775
  637MOL0     C85893  -0.279   8.972   0.354 -0.0113 -0.2885  0.1544
  637MOL0     C85894  -0.356   8.983   0.243  0.3719 -1.1092  0.1199
  637MOL0     O85895  -0.469   9.060   0.229  0.6103  0.0663 -0.0329
  637MOL0     C85896  -0.472   9.183   0.301  0.1962  0.2076 -0.8575
  637MOL0     C85897  -0.544   9.289   0.224 -0.5540  0.0496  0.1552
  637MOL0     C85898  -0.540   9.425   0.304 -0.0130  1.0656  0.8891
  637MOL0     C85899  -0.579   9.551   0.211  0.2462  1.4337  0.9640
  637MOL0     C85900  -0.486   9.598   0.098 -0.3730 -0.0125  1.2363
  637MOL0     C85901  -0.373   9.688   0.157 -0.0302 -0.4254 -0.0594
  637MOL0     C85902  -0.431   9.828   0.198  0.3768 -0.7225  0.4663
  637MOL0     C85903  -0.320   9.937   0.205 -0.3692  0.2093 -0.3885
  637MOL0    Cl85904  -0.211   9.893   0.343  0.0540 -0.3149  0.2651
  637MOL0     C85905  -0.317   8.908   0.130 -0.6790  0.2396  0.1485
  637MOL0     C85906  -0.201   8.818   0.137  0.1931 -0.0582 -0.5241
  637MOL0     O85907   0.136   8.918   0.210 -0.2702 -0.2563  0.9639
  637MOL0     C85908   0.361   8.774   0.326 -0.4655 -0.1973  0.2061
  637MOL0     C85909   0.467   8.685   0.367 -0.3411  0.1678 -0.2775
  637MOL0     N85910   0.723   8.039   0.915 -0.0903  0.7097  0.7723
  637MOL0     N85911   0.757   8.038   1.034 -0.7943 -0.0425 -0.6851
  637MOL0     C85912   1.425   8.919   1.543 -0.2672  0.0735 -0.5694
  637MOL0     C85913   1.458   9.061   1.556 -0.9259  0.4696 -0.2203
  637MOL0     C85914   1.748   9.419   1.583  0.5605  0.6424  0.3305
  637MOL0     C85915   1.763   9.453   1.722 -0.4952 -0.1414 -0.0742
  637MOL0     C85916   1.828   9.577   1.755 -0.1824  0.4216 -0.3971
  637MOL0     C85917   1.899   9.653   1.670  0.0940  0.3495  0.6515
  637MOL0     O85918   1.972   9.759   1.720 -0.2734  0.0021 -0.5004
  637MOL0     C85919   2.051   9.834   1.625 -0.2316 -0.6783  1.1192
  637MOL0     C85920   2.113   9.963   1.693 -0.3598  0.8809  0.6505
  637MOL0     C85921   2.225   9.935   1.809  0.6184  0.3986  0.3009
  637MOL0     C85922   2.159   9.925   1.951 -0.1302  0.1152  0.1392
  637MOL0     C85923   2.138  10.068   1.993  0.3511 -0.0083 -0.0009
  637MOL0     C85924   2.138  10.186   2.017 -0.0005  0.6020 -0.9964
  637MOL0     C85925   1.895   9.613   1.533  1.1512 -0.3251 -0.9615
  637MOL0     C85926   1.819   9.497   1.490  0.3407 -0.3419 -0.3325
  637MOL0     C85927   1.811   9.469   1.337  0.9611 -0.9754 -0.4026
  637MOL0     H85928   1.724   8.996   1.760 -0.6532  0.0064  0.5883
  637MOL0     H85929   1.680   8.779   1.717 -0.6893 -0.0918  3.6140
  637MOL0     H85930   1.494   8.523   1.669 -0.0122  0.6813  3.2045
  637MOL0     H85931   1.445   8.652   1.766 -2.2088  2.6639 -0.0368
  637MOL0     H85932   1.223   8.665   1.647  0.9612  0.8881  1.5055
  637MOL0     H85933   1.258   8.513   1.729 -0.5941  0.3959  1.4849
  637MOL0     H85934   1.326   8.428   1.490  0.5826  0.1842 -0.0632
  637MOL0     H85935   1.284   8.594   1.427 -4.1758  1.6123  1.3627
  637MOL0     H85936   1.067   8.424   1.545  0.6878  0.8509  0.5650
  637MOL0     H85937   1.058   8.582   1.475  0.7381  0.1213  0.4600
  637MOL0     H85938   1.132   8.489   1.251 -1.5263 -0.0691 -0.5121
  637MOL0     H85939   1.171   8.350   1.330 -2.4677 -0.9776 -2.9018
  637MOL0     H85940   0.921   8.328   1.402  0.7571 -0.4000  1.4847
  637MOL0     H85941   0.903   8.462   1.279  2.4877  0.4858 -0.9727
  637MOL0     H85942   1.037   8.199   1.221 -0.4655  0.2891 -2.1160
  637MOL0     H85943   0.967   8.320   1.115 -3.5817 -1.5403 -1.8072
  637MOL0     H85944   0.825   8.103   1.267  2.2823 -0.3950  0.4294
  637MOL0     H85945   0.746   8.260   1.247  0.7574  1.0068 -0.0843
  637MOL0     H85946   0.830   8.338   0.940 -1.2304  0.4186  1.4133
  637MOL0     H85947   0.788   8.304   0.704  2.0979 -0.8250  0.6795
  637MOL0     H85948   0.766   8.137   0.648  2.4603  0.2450  0.7973
  637MOL0     H85949   0.536   8.153   0.724 -1.3502  0.8258 -2.7798
  637MOL0     H85950   0.562   8.312   0.810 -2.0622 -1.6537  0.0712
  637MOL0     H85951   0.416   8.321   0.598 -0.1093  0.9428  0.7094
  637MOL0     H85952   0.560   8.240   0.512 -3.2492 -1.1097  0.2987
  637MOL0     H85953   0.678   8.461   0.564  0.0922 -1.2654  0.0646
  637MOL0     H85954   0.527   8.524   0.617 -2.9518  0.0402 -3.3737
  637MOL0     H85955   0.267   8.408   0.382 -0.3443  0.9997 -0.8185
  637MOL0     H85956   0.122   8.545   0.279 -0.0468  0.4880  0.0367
  637MOL0     H85957  -0.109   8.887   0.455 -1.3500 -2.1291  1.0401
  637MOL0     H85958  -0.309   9.030   0.441 -2.1924  0.0618 -0.7785
  637MOL0     H85959  -0.542   9.162   0.382  0.0412 -3.3433 -1.7180
  637MOL0     H85960  -0.376   9.218   0.340 -1.4580  2.6911  1.2830
  637MOL0     H85961  -0.486   9.300   0.133  4.0349 -3.1820  2.3263
  637MOL0     H85962  -0.647   9.259   0.200 -0.5725  1.2650 -1.4897
  637MOL0     H85963  -0.610   9.418   0.387  2.2171 -1.9490  2.7375
  637MOL0     H85964  -0.444   9.435   0.355  1.0508 -2.8829  0.0103
  637MOL0     H85965  -0.613   9.633   0.274 -0.2071  0.8264  1.5262
  637MOL0     H85966  -0.676   9.519   0.172  0.0772  0.2667  2.2457
  637MOL0     H85967  -0.532   9.659   0.019 -0.0573  1.1679  1.9319
  637MOL0     H85968  -0.467   9.503   0.049 -4.2893  0.6687 -2.1927
  637MOL0     H85969  -0.343   9.637   0.250  5.4726 -0.7391 -1.6812
  637MOL0     H85970  -0.284   9.693   0.094  0.1634 -2.8989 -0.0685
  637MOL0     H85971  -0.496   9.827   0.286  1.9694  2.3650  1.8536
  637MOL0     H85972  -0.498   9.851   0.114  1.0931 -1.6353 -0.3847
  637MOL0     H85973  -0.262   9.937   0.112  0.4401  1.5735  0.0786
  637MOL0     H85974  -0.373  10.030   0.228 -4.4109 -1.5949 -1.5805
  637MOL0     H85975  -0.357   8.927   0.031  1.6060  0.2649 -0.8324
  637MOL0     H85976  -0.153   8.754   0.064 -0.1398 -2.0195  0.8690
  637MOL0     H85977   0.386   8.878   0.309 -1.2180  0.3998  2.3911
  637MOL0     H85978   0.568   8.715   0.396 -0.2623  0.4585 -0.8441
  637MOL0     H85979   1.338   8.888   1.485  0.9458 -2.8509 -1.0264
  637MOL0     H85980   1.389   9.134   1.514  0.4041  0.3053 -2.8639
  637MOL0     H85981   1.720   9.394   1.802  1.3410 -1.9595 -0.3471
  637MOL0     H85982   1.832   9.608   1.859  0.6914  2.5184 -1.0036
  637MOL0     H85983   1.987   9.875   1.546  0.6867  2.9570  2.0800
  637MOL0     H85984   2.141   9.782   1.592 -0.8152 -3.4883  3.4778
  637MOL0     H85985   2.035  10.027   1.735  0.2794  1.6312  0.6900
  637MOL0     H85986   2.164  10.010   1.609 -3.7381 -1.7259 -3.3415
  637MOL0     H85987   2.318   9.992   1.813  2.0296 -1.8291  4.2058
  637MOL0     H85988   2.265   9.836   1.787  0.4838  1.0156 -3.4118
  637MOL0     H85989   2.070   9.861   1.948 -0.0708 -0.0212  0.9605
  637MOL0     H85990   2.228   9.877   2.021 -0.1508  2.7560  2.1207
  637MOL0     H85991   2.136  10.292   2.033 -1.3105  0.3108  1.2580
  637MOL0     H85992   1.939   9.679   1.459  0.8811  1.3042  0.2782
  637MOL0     H85993   1.877   9.531   1.276  0.5704  1.2430  1.3252
  637MOL0     H85994   1.847   9.368   1.315 -1.0303 -1.8507  0.1310
  637MOL0     H85995   1.709   9.464   1.296  0.5265 -2.5886  0.7577
  638MOL0     O85996   6.147   7.091  11.504  0.2431  0.7487  0.2309
  638MOL0     C85997   6.096   7.038  11.409  0.1875 -0.4985  1.3135
  638MOL0     O85998   6.157   6.973  11.307 -0.0580  0.1046  0.1482
  638MOL0     C85999   6.297   6.966  11.310 -0.4954 -0.2055  0.1612
  638MOL0     C86000   6.355   7.085  11.266 -0.4667  0.5723 -0.4421
  638MOL0     C86001   6.492   7.083  11.233 -0.6080 -0.1780 -0.1811
  638MOL0     C86002   6.573   6.972  11.247  0.6862 -0.7890 -0.4475
  638MOL0     O86003   6.705   6.991  11.211  0.2063  0.3144 -0.5099
  638MOL0     C86004   6.812   6.888  11.227 -0.2183  0.6937  0.2762
  638MOL0     C86005   6.807   6.814  11.099  0.5608 -0.0546  0.5944
  638MOL0     C86006   6.832   6.907  10.977 -0.5335 -0.0787 -0.6908
  638MOL0     C86007   6.906   6.832  10.872 -0.3428  0.1667  0.3793
  638MOL0     C86008   6.970   6.925  10.769 -0.2556  0.0689  0.2335
  638MOL0     C86009   6.865   6.990  10.678 -0.8048  0.0321  0.1984
  638MOL0     C86010   6.935   7.089  10.587 -0.1346 -0.2007 -0.3423
  638MOL0     C86011   6.828   7.133  10.482 -0.4816 -0.7418 -0.2033
  638MOL0     N86012   6.860   7.261  10.430  0.1370 -0.4665 -1.0799
  638MOL0     C86013   6.801   7.382  10.458  0.4390  0.6746  0.0973
  638MOL0     C86014   6.840   7.465  10.358  0.1157 -1.1505 -0.1609
  638MOL0     C86015   6.790   7.603  10.320 -0.8060 -0.1259 -0.3771
  638MOL0     C86016   6.888   7.686  10.255  0.8120 -0.8112  1.1540
  638MOL0     C86017   6.875   7.834  10.289 -0.4043  0.3269 -0.2865
  638MOL0     C86018   6.753   7.910  10.218 -0.6607 -0.3109  0.2835
  638MOL0     O86019   6.748   8.035  10.291  0.2501  0.3270  0.4685
  638MOL0     C86020   6.642   8.111  10.246 -0.5962 -0.1091  0.6007
  638MOL0     C86021   6.548   8.073  10.142 -0.2189  0.0283 -0.2059
  638MOL0     C86022   6.440   8.154  10.114 -0.0288  0.0014  0.6350
  638MOL0     C86023   6.420   8.277  10.161  0.6154 -0.0054 -0.5558
  638MOL0     C86024   6.307   8.366  10.125  0.3541  0.2800  0.0822
  638MOL0     O86025   6.227   8.313  10.025  0.6823 -0.2183  0.4336
  638MOL0     C86026   6.091   8.354  10.015  0.4388  0.9146 -0.3175
  638MOL0     C86027   5.999   8.257   9.990  0.0023  0.1749 -0.4684
  638MOL0     C86028   5.872   8.292   9.952  0.0291 -0.2324 -0.7190
  638MOL0     C86029   5.836   8.429   9.952 -0.0710  0.0850 -0.4166
  638MOL0     O86030   5.696   8.446   9.955 -0.8140 -0.3132 -0.0356
  638MOL0     C86031   5.633   8.569   9.999 -0.1889  0.0136  0.2576
  638MOL0     C86032   5.622   8.594  10.150 -0.0964  1.2446  0.2274
  638MOL0     C86033   5.591   8.467  10.230  0.2425 -0.1528  0.5534
  638MOL0     C86034   5.616   8.501  10.381 -0.1472  1.1811  0.3759
  638MOL0     C86035   5.565   8.389  10.473 -0.1903  0.2318  0.2509
  638MOL0     C86036   5.604   8.392  10.621  0.5955 -0.2771 -0.8054
  638MOL0     C86037   5.529   8.296  10.717 -0.1678  0.1022 -0.1380
  638MOL0     C86038   5.569   8.321  10.866  0.4767  0.5411 -0.0159
  638MOL0    Cl86039   5.508   8.476  10.926 -0.2492  0.1365 -0.1531
  638MOL0     C86040   5.923   8.529   9.979 -0.4185  0.1680  0.2841
  638MOL0     C86041   6.054   8.488  10.000  0.5100 -0.5725 -1.4226
  638MOL0     O86042   6.296   8.480  10.171 -0.1322 -0.0924 -1.0884
  638MOL0     C86043   6.511   8.319  10.256  0.5276 -0.1659  0.6875
  638MOL0     C86044   6.616   8.235  10.300  0.0601 -0.5224 -0.2700
  638MOL0     N86045   6.919   7.392  10.270 -0.5938  0.3305 -0.0524
  638MOL0     N86046   6.936   7.278  10.318  0.0643  0.6989  0.1737
  638MOL0     C86047   6.505   6.852  11.279  0.0283  0.2062  0.3341
  638MOL0     C86048   6.374   6.853  11.315 -0.3783 -0.0511 -0.1058
  638MOL0     C86049   5.947   7.038  11.396  0.1383  0.0530 -0.6883
  638MOL0     C86050   5.880   7.065  11.518 -0.3940  0.2990  0.6048
  638MOL0     C86051   5.744   7.079  11.521  1.0368 -0.1261  0.5281
  638MOL0     C86052   5.663   7.029  11.418 -1.3928  0.3831  0.2678
  638MOL0     O86053   5.532   6.992  11.433 -0.4597  0.0239 -1.0531
  638MOL0     C86054   5.468   7.010  11.568  1.1799 -0.1479  1.0157
  638MOL0     C86055   5.318   6.989  11.581 -0.5892  0.0085  0.4591
  638MOL0     C86056   5.255   7.054  11.710 -0.2619 -0.4553 -0.3277
  638MOL0     C86057   5.104   7.027  11.736  0.9369 -0.2625 -0.0921
  638MOL0     C86058   5.100   6.885  11.784 -0.0590  0.6609 -0.3594
  638MOL0     C86059   5.075   6.772  11.818  0.6639  0.0293  0.3034
  638MOL0     C86060   5.731   7.004  11.298 -1.4650 -0.2265 -0.2131
  638MOL0     C86061   5.867   7.016  11.278  0.1047 -0.7594  0.0368
  638MOL0     C86062   5.925   6.987  11.143 -0.2346  0.1460 -0.9345
  638MOL0     H86063   6.298   7.177  11.263 -2.2793 -0.3923  1.6522
  638MOL0     H86064   6.536   7.177  11.202 -0.4276  0.5341  2.0999
  638MOL0     H86065   6.917   6.918  11.234 -0.2202  0.2913  4.0824
  638MOL0     H86066   6.804   6.830  11.319 -0.8597  1.8360  0.9609
  638MOL0     H86067   6.706   6.772  11.095  0.5370 -0.3127  2.6235
  638MOL0     H86068   6.873   6.727  11.097 -0.7402 -1.0921  1.3384
  638MOL0     H86069   6.896   6.992  11.002  2.0624 -1.2203 -2.8636
  638MOL0     H86070   6.740   6.956  10.944 -0.9280 -1.4147 -1.6347
  638MOL0     H86071   6.987   6.767  10.907  0.5635 -0.0918 -1.9670
  638MOL0     H86072   6.827   6.777  10.820 -0.2525  1.3390 -1.0664
  638MOL0     H86073   7.035   7.001  10.813 -2.5210  1.8311  0.7626
  638MOL0     H86074   7.019   6.867  10.690 -1.0739 -0.5373  0.1529
  638MOL0     H86075   6.802   6.920  10.623 -0.6716  0.3774 -0.4036
  638MOL0     H86076   6.803   7.054  10.741 -0.5675 -0.3379  0.8167
  638MOL0     H86077   7.007   7.032  10.527  0.4853 -0.3737  0.5399
  638MOL0     H86078   6.987   7.170  10.640 -0.4593 -0.6395  0.6704
  638MOL0     H86079   6.825   7.059  10.402 -0.2225 -0.7884 -0.1716
  638MOL0     H86080   6.724   7.122  10.514 -0.0397 -0.6904  1.3175
  638MOL0     H86081   6.726   7.390  10.536 -0.0115  2.3897 -0.4542
  638MOL0     H86082   6.704   7.583  10.255 -1.2174 -1.4453  0.5229
  638MOL0     H86083   6.746   7.652  10.408 -2.8902 -0.1182 -1.3730
  638MOL0     H86084   6.985   7.653  10.293  3.0153  0.5440 -2.7759
  638MOL0     H86085   6.886   7.684  10.146  1.5976  1.4644  1.0608
  638MOL0     H86086   6.968   7.875  10.249  1.9997 -4.1968  0.0809
  638MOL0     H86087   6.876   7.845  10.398 -0.7462 -0.5951 -0.1833
  638MOL0     H86088   6.664   7.847  10.229 -1.3674  0.8725  1.6380
  638MOL0     H86089   6.774   7.934  10.113  1.5514 -0.4482  0.6578
  638MOL0     H86090   6.549   7.976  10.092  0.9211  0.3458 -0.8317
  638MOL0     H86091   6.362   8.131  10.041 -2.4973 -0.3817  3.2211
  638MOL0     H86092   6.038   8.157  10.003  0.6158  0.4434 -0.2186
  638MOL0     H86093   5.806   8.208   9.935  1.1614 -0.9913 -1.5618
  638MOL0     H86094   5.685   8.652   9.951  1.2269 -1.5636 -1.0558
  638MOL0     H86095   5.529   8.568   9.965 -1.1006 -0.4938  2.8045
  638MOL0     H86096   5.719   8.631  10.187  0.6815  1.5900 -2.0075
  638MOL0     H86097   5.544   8.666  10.178 -1.7767 -0.1038 -0.8187
  638MOL0     H86098   5.487   8.440  10.210 -0.1409  2.1860 -1.1108
  638MOL0     H86099   5.648   8.380  10.196 -0.7787 -0.4971 -0.3293
  638MOL0     H86100   5.557   8.592  10.396 -1.6137  0.2631  0.3480
  638MOL0     H86101   5.720   8.525  10.404 -0.6063  2.9328  0.7969
  638MOL0     H86102   5.608   8.294  10.439  0.0085  0.5809 -0.4921
  638MOL0     H86103   5.456   8.378  10.471 -0.0841 -1.1514 -2.0032
  638MOL0     H86104   5.713   8.388  10.629  0.4254 -1.0688  3.4875
  638MOL0     H86105   5.577   8.492  10.657  0.4153 -0.4972 -0.3344
  638MOL0     H86106   5.561   8.195  10.688 -1.7254  0.1849 -2.4473
  638MOL0     H86107   5.420   8.308  10.715  0.0856  2.7599 -1.5333
  638MOL0     H86108   5.527   8.239  10.925  1.5072  0.8179  1.1403
  638MOL0     H86109   5.677   8.316  10.880  0.3575  0.1964  0.8466
  638MOL0     H86110   5.898   8.635   9.979  1.4894  0.6738 -0.9973
  638MOL0     H86111   6.128   8.566  10.019 -0.0395 -0.9906  4.0788
  638MOL0     H86112   6.510   8.417  10.303 -1.9646  0.7269 -1.0317
  638MOL0     H86113   6.685   8.261  10.379 -0.8424 -1.3140  0.8149
  638MOL0     H86114   6.567   6.765  11.295 -1.5253 -1.1042 -0.5870
  638MOL0     H86115   6.317   6.762  11.329  1.1602 -1.4885 -2.6057
  638MOL0     H86116   5.936   7.081  11.610  2.8449 -3.5024 -0.4520
  638MOL0     H86117   5.703   7.099  11.620  1.5976  0.5746  0.6301
  638MOL0     H86118   5.471   7.115  11.596 -2.2925  0.3135  0.0968
  638MOL0     H86119   5.524   6.959  11.647  1.2665 -1.6188  0.0611
  638MOL0     H86120   5.297   6.882  11.573 -0.3148  0.0527 -1.2311
  638MOL0     H86121   5.287   7.043  11.491  3.3019  1.4011 -0.2555
  638MOL0     H86122   5.263   7.163  11.699  0.7074 -0.3015  1.4472
  638MOL0     H86123   5.323   7.038  11.794  0.3524 -0.3125 -0.7934
  638MOL0     H86124   5.054   7.098  11.803 -1.2024 -2.7637  1.1723
  638MOL0     H86125   5.039   7.030  11.649 -3.7389  1.5692  3.0750
  638MOL0     H86126   5.054   6.670  11.841 -1.0194 -0.2617 -2.1747
  638MOL0     H86127   5.679   6.963  11.211  0.0205 -0.0409 -1.2230
  638MOL0     H86128   5.979   7.076  11.109  0.8905 -0.2786 -0.3412
  638MOL0     H86129   5.995   6.902  11.148  0.0804  0.4489 -0.1322
  638MOL0     H86130   5.847   6.970  11.069 -0.9206  0.1351 -0.2132
  639MOL0     O86131   5.216   7.192   3.659 -0.8164  1.0041  0.2623
  639MOL0     C86132   5.238   7.084   3.603 -0.9084 -0.6894 -0.0924
  639MOL0     O86133   5.262   6.970   3.665  0.3004  0.1055 -0.2290
  639MOL0     C86134   5.223   6.949   3.788  0.0135 -0.1219 -0.8692
  639MOL0     C86135   5.088   6.944   3.832  1.3044 -0.3304 -0.0700
  639MOL0     C86136   5.055   6.906   3.968  0.2957 -0.1955 -0.5546
  639MOL0     C86137   5.159   6.870   4.053  0.4503 -0.9361 -0.2013
  639MOL0     O86138   5.125   6.831   4.180 -0.1705  0.3198  0.1741
  639MOL0     C86139   5.084   6.694   4.202  0.1278 -0.1975 -0.2729
  639MOL0     C86140   5.207   6.611   4.212  0.1705 -0.0997 -0.2015
  639MOL0     C86141   5.154   6.477   4.267 -1.3768  0.6900  0.3683
  639MOL0     C86142   5.265   6.379   4.299 -0.0133  0.9808 -0.2780
  639MOL0     C86143   5.209   6.240   4.325 -0.4579  0.4761 -0.0799
  639MOL0     C86144   5.322   6.143   4.353  0.0032  0.6384  0.2631
  639MOL0     C86145   5.440   6.181   4.441 -0.8123 -0.1663 -0.3061
  639MOL0     C86146   5.394   6.219   4.582  0.8464  0.4007 -0.0767
  639MOL0     N86147   5.495   6.205   4.687  0.6621 -0.5343 -0.2392
  639MOL0     C86148   5.519   6.095   4.770  0.5589 -0.2114 -0.1384
  639MOL0     C86149   5.643   6.122   4.817 -0.4910  0.8290 -0.2647
  639MOL0     C86150   5.736   6.028   4.887  0.6516  0.2110  0.4077
  639MOL0     C86151   5.845   5.966   4.794  0.1675 -0.1604  0.2059
  639MOL0     C86152   5.790   5.853   4.702  0.0738  0.2970 -0.4908
  639MOL0     C86153   5.894   5.760   4.638  0.3648 -0.4487  0.1152
  639MOL0     O86154   5.838   5.657   4.569  0.2017 -0.1094 -0.2864
  639MOL0     C86155   5.765   5.557   4.633  0.0197 -0.2121 -0.4870
  639MOL0     C86156   5.628   5.552   4.639 -0.2343  0.5691 -0.0543
  639MOL0     C86157   5.559   5.447   4.696  1.0049 -0.6827 -0.2361
  639MOL0     C86158   5.626   5.345   4.758 -0.5561  0.1316 -0.4661
  639MOL0     C86159   5.553   5.231   4.829  0.2522 -0.0128 -0.8858
  639MOL0     O86160   5.626   5.118   4.843 -0.2219  0.8074  0.1972
  639MOL0     C86161   5.559   5.008   4.863 -0.0990  1.5572 -0.2710
  639MOL0     C86162   5.538   4.958   4.999 -1.0152  0.0625  0.0570
  639MOL0     C86163   5.495   4.829   5.021  0.0623 -0.0838 -0.1421
  639MOL0     C86164   5.475   4.744   4.911  0.2093  0.3367 -1.0704
  639MOL0     O86165   5.423   4.619   4.923  0.3833 -0.8184 -1.1025
  639MOL0     C86166   5.460   4.542   5.043  0.3351 -0.6441 -0.2623
  639MOL0     C86167   5.430   4.393   5.024 -0.3629 -0.7166 -0.1537
  639MOL0     C86168   5.462   4.324   5.155 -0.1070  0.4694 -0.4974
  639MOL0     C86169   5.455   4.172   5.136  0.0903 -0.0537 -0.0935
  639MOL0     C86170   5.314   4.119   5.186 -0.8987  0.1823  0.5605
  639MOL0     C86171   5.288   3.969   5.165 -0.4784 -0.5815 -0.4632
  639MOL0     C86172   5.337   3.897   5.296 -0.3360 -0.1729 -0.5603
  639MOL0     C86173   5.336   3.738   5.274  0.5604 -0.0585  0.5105
  639MOL0    Cl86174   5.422   3.670   5.416  0.0765  0.4806 -0.3286
  639MOL0     C86175   5.488   4.786   4.779 -0.9803  0.0345 -0.3375
  639MOL0     C86176   5.537   4.923   4.756  0.0642  0.6465  0.2874
  639MOL0     O86177   5.426   5.243   4.841 -0.7614  0.2471 -0.5842
  639MOL0     C86178   5.765   5.348   4.743 -0.5758  1.2049  0.5661
  639MOL0     C86179   5.840   5.452   4.683  0.3766  0.4591  0.3604
  639MOL0     N86180   5.687   6.248   4.776 -0.5340  0.0921  0.1833
  639MOL0     N86181   5.597   6.292   4.692 -0.4344 -0.6646  0.1572
  639MOL0     C86182   5.294   6.867   4.011 -0.1852 -0.0918  0.5516
  639MOL0     C86183   5.323   6.906   3.882  0.6343  0.6480 -0.3792
  639MOL0     C86184   5.250   7.082   3.456  0.1018 -1.1655 -0.2159
  639MOL0     C86185   5.329   6.990   3.404 -0.0380  0.7288  0.2303
  639MOL0     C86186   5.350   6.970   3.269 -0.3844 -0.1785  0.6249
  639MOL0     C86187   5.280   7.044   3.175  0.5079 -0.6086  0.9113
  639MOL0     O86188   5.293   7.004   3.043  0.1474  0.0110 -0.1948
  639MOL0     C86189   5.233   7.072   2.936  0.3471 -0.3341  0.1603
  639MOL0     C86190   5.297   7.209   2.900 -0.1179  0.5847 -0.7090
  639MOL0     C86191   5.429   7.196   2.822 -0.3588  0.0232  0.4203
  639MOL0     C86192   5.540   7.117   2.898 -0.3781  0.3370  0.7585
  639MOL0     C86193   5.567   7.180   3.028  0.5262 -0.6262  0.4864
  639MOL0     C86194   5.591   7.248   3.126 -0.2419  0.6146 -0.4556
  639MOL0     C86195   5.198   7.148   3.222 -0.2795  0.2689 -0.5143
  639MOL0     C86196   5.178   7.169   3.363 -0.3005 -0.5048  0.4718
  639MOL0     C86197   5.091   7.279   3.403 -0.4700 -0.3563 -0.7569
  639MOL0     H86198   5.001   6.982   3.779  0.8954  0.4229  1.0778
  639MOL0     H86199   4.954   6.896   4.004  1.2553  0.2832  2.5622
  639MOL0     H86200   5.027   6.690   4.296  0.7077 -3.5709  0.0329
  639MOL0     H86201   5.014   6.657   4.126  2.9336  2.1750 -4.4172
  639MOL0     H86202   5.282   6.654   4.279  0.8774  1.3318 -1.8392
  639MOL0     H86203   5.257   6.593   4.117  0.3339 -0.5542 -0.0315
  639MOL0     H86204   5.089   6.428   4.195  0.3747 -0.2733 -0.6375
  639MOL0     H86205   5.102   6.492   4.362 -0.4650 -2.7335  1.5759
  639MOL0     H86206   5.344   6.379   4.223 -1.4765  0.9452 -1.8461
  639MOL0     H86207   5.302   6.419   4.394  0.9311  1.0727 -0.6752
  639MOL0     H86208   5.129   6.246   4.399 -0.1798  2.9690  0.0843
  639MOL0     H86209   5.157   6.209   4.234  2.3020  0.6830 -1.8566
  639MOL0     H86210   5.280   6.051   4.394 -1.6701 -0.0689 -2.7364
  639MOL0     H86211   5.362   6.127   4.252  2.2562  2.0707  0.8395
  639MOL0     H86212   5.505   6.261   4.404 -0.3634 -0.7444 -0.7904
  639MOL0     H86213   5.507   6.094   4.436 -0.6373 -0.0426 -0.1130
  639MOL0     H86214   5.360   6.323   4.580  2.1967  0.8522 -0.4257
  639MOL0     H86215   5.311   6.156   4.615  2.0450 -1.3485 -0.2940
  639MOL0     H86216   5.465   6.003   4.791  1.7235 -0.7213  0.7152
  639MOL0     H86217   5.784   6.087   4.966  2.8221 -0.0234 -0.6779
  639MOL0     H86218   5.676   5.945   4.927 -0.8191  0.2979 -1.4602
  639MOL0     H86219   5.888   6.049   4.738 -2.4474  0.1221 -1.5674
  639MOL0     H86220   5.925   5.930   4.859 -0.5099 -0.2588  1.0130
  639MOL0     H86221   5.715   5.889   4.631 -1.3656  1.1319  1.3530
  639MOL0     H86222   5.726   5.796   4.769  0.7433 -0.4646 -0.4776
  639MOL0     H86223   5.950   5.726   4.725 -1.0300  0.3817  1.3825
  639MOL0     H86224   5.950   5.814   4.561 -1.0016 -2.1323 -2.1845
  639MOL0     H86225   5.572   5.635   4.597 -1.9150 -0.9372 -0.9095
  639MOL0     H86226   5.451   5.450   4.680  0.9958  3.7392 -0.5757
  639MOL0     H86227   5.572   5.019   5.082 -1.8143  2.7120 -1.4443
  639MOL0     H86228   5.473   4.788   5.119  0.0178 -0.4112 -0.2879
  639MOL0     H86229   5.567   4.559   5.059 -0.2961  0.7918  3.6493
  639MOL0     H86230   5.404   4.570   5.133  1.9222 -1.7844  1.1568
  639MOL0     H86231   5.326   4.370   4.997 -0.2654  1.7231 -3.1119
  639MOL0     H86232   5.493   4.355   4.944 -2.0776 -0.1568 -1.8465
  639MOL0     H86233   5.566   4.353   5.171 -0.1025 -0.0136  0.4381
  639MOL0     H86234   5.413   4.367   5.242 -0.1111 -0.7786  0.1476
  639MOL0     H86235   5.535   4.123   5.192 -1.3114  1.5777  3.6616
  639MOL0     H86236   5.470   4.138   5.033 -0.1413  0.1085 -0.1806
  639MOL0     H86237   5.246   4.182   5.128  0.0135  1.6233  0.9850
  639MOL0     H86238   5.292   4.141   5.291 -1.3488  0.0725  0.4912
  639MOL0     H86239   5.186   3.956   5.128 -1.4508 -0.1069  1.8642
  639MOL0     H86240   5.359   3.936   5.089 -0.0434  0.2987 -0.4633
  639MOL0     H86241   5.273   3.927   5.380  0.2031 -0.6498  0.0342
  639MOL0     H86242   5.434   3.943   5.320 -0.9282  1.7408 -1.5819
  639MOL0     H86243   5.232   3.704   5.276 -0.2298  2.2424  0.4315
  639MOL0     H86244   5.376   3.704   5.178 -1.0203 -0.6681  0.0316
  639MOL0     H86245   5.470   4.732   4.686 -0.3523  4.4328 -3.3126
  639MOL0     H86246   5.561   4.970   4.661 -0.2352  3.3264  1.4527
  639MOL0     H86247   5.815   5.265   4.792 -4.3283 -1.8399 -0.1747
  639MOL0     H86248   5.949   5.456   4.676  0.3232  1.7055 -0.1545
  639MOL0     H86249   5.371   6.835   4.081 -0.9203 -1.7452  0.6465
  639MOL0     H86250   5.428   6.900   3.853  0.0800 -1.9635 -2.1254
  639MOL0     H86251   5.386   6.925   3.471  1.6506 -0.5099 -2.2331
  639MOL0     H86252   5.410   6.883   3.242 -0.9604 -0.6698  0.8961
  639MOL0     H86253   5.125   7.083   2.950  0.7594  0.5147  3.7775
  639MOL0     H86254   5.250   7.001   2.855  1.4666  1.3670 -1.1661
  639MOL0     H86255   5.305   7.263   2.995 -1.9788  0.7549 -0.5984
  639MOL0     H86256   5.229   7.262   2.832 -0.6952  1.9511  0.8529
  639MOL0     H86257   5.472   7.297   2.815 -1.5912  0.6278  1.2347
  639MOL0     H86258   5.424   7.149   2.723  0.2007 -0.8383  0.7881
  639MOL0     H86259   5.505   7.016   2.923  1.2491 -0.7028 -0.9130
  639MOL0     H86260   5.630   7.110   2.835 -0.4346  0.2304  0.6871
  639MOL0     H86261   5.618   7.313   3.206 -0.7630 -2.4217  2.3961
  639MOL0     H86262   5.152   7.207   3.144  0.3712  1.3830 -0.0784
  639MOL0     H86263   5.039   7.252   3.495  2.3962  1.1613  1.4674
  639MOL0     H86264   5.147   7.370   3.427 -2.4241  0.6126  0.3413
  639MOL0     H86265   5.017   7.300   3.325 -3.0148 -2.2960  0.9676
  640MOL0     O86266   0.255  11.376   3.594 -0.2527  0.3547  1.1739
  640MOL0     C86267   0.265  11.328   3.708 -0.4559 -0.3708 -0.0062
  640MOL0     O86268   0.187  11.371   3.807 -0.2013 -0.3481 -0.4730
  640MOL0     C86269   0.121  11.490   3.803  0.4574 -0.0943  0.2057
  640MOL0     C86270   0.161  11.612   3.753 -0.6341  0.4846 -0.5446
  640MOL0     C86271   0.096  11.733   3.774 -0.8073  0.4253  0.3269
  640MOL0     C86272  -0.016  11.741   3.856  0.2709 -0.5797  0.5601
  640MOL0     O86273  -0.086  11.855   3.891  0.5215  0.2853  0.0348
  640MOL0     C86274  -0.016  11.978   3.875 -0.0272  0.3568 -1.0005
  640MOL0     C86275  -0.083  12.089   3.949  0.5082 -0.7060  0.5989
  640MOL0     C86276  -0.233  12.123   3.936  0.3277  0.2675 -0.6152
  640MOL0     C86277  -0.333  12.020   3.997  0.5553  0.1574  0.4766
  640MOL0     C86278  -0.465  12.093   4.006  0.1961  0.0866 -0.0626
  640MOL0     C86279  -0.523  12.137   3.865 -0.0728  0.2346  0.7739
  640MOL0     C86280  -0.636  12.240   3.885 -0.0514  0.7042 -0.3866
  640MOL0     C86281  -0.675  12.295   3.757  0.3559 -0.0207 -0.9284
  640MOL0     N86282  -0.809  12.362   3.762  0.4614  0.6568  0.1466
  640MOL0     C86283  -0.937  12.298   3.778 -0.7483  0.0547  0.4443
  640MOL0     C86284  -1.021  12.395   3.752  0.0356  0.1110  0.3424
  640MOL0     C86285  -1.174  12.391   3.768 -1.0111  0.4959 -1.5199
  640MOL0     C86286  -1.238  12.522   3.810  0.4052  0.4048  0.1546
  640MOL0     C86287  -1.389  12.516   3.869  0.6207  0.9741 -0.2404
  640MOL0     C86288  -1.462  12.642   3.882  1.3299 -0.1193 -0.4180
  640MOL0     O86289  -1.469  12.673   4.024 -0.3623 -0.9728 -1.1533
  640MOL0     C86290  -1.419  12.791   4.072 -0.4328  0.4958 -0.2450
  640MOL0     C86291  -1.332  12.881   4.005  0.9624  0.0608  0.8235
  640MOL0     C86292  -1.292  12.994   4.074  0.5671  0.7636 -0.4017
  640MOL0     C86293  -1.334  13.020   4.205 -0.1301 -0.2649  0.4820
  640MOL0     C86294  -1.295  13.150   4.273 -0.4669 -0.1990  0.1224
  640MOL0     O86295  -1.210  13.233   4.193 -0.1307  0.0722  0.3598
  640MOL0     C86296  -1.185  13.362   4.219  0.0849  0.1537  0.4181
  640MOL0     C86297  -1.247  13.431   4.324  0.7880 -0.4878  0.1609
  640MOL0     C86298  -1.203  13.558   4.351 -0.3608  0.4946  0.0923
  640MOL0     C86299  -1.098  13.616   4.280 -0.2163 -0.4704  0.7423
  640MOL0     O86300  -1.058  13.735   4.311  0.3848 -0.6962  0.7569
  640MOL0     C86301  -0.929  13.755   4.369 -0.0585  0.7055 -0.1713
  640MOL0     C86302  -0.962  13.765   4.528  0.8291 -0.4226  0.0421
  640MOL0     C86303  -1.071  13.864   4.557  0.3753 -0.4260 -0.8564
  640MOL0     C86304  -1.061  13.920   4.699 -0.1737  0.2745 -0.4504
  640MOL0     C86305  -1.173  14.005   4.740  0.8098 -0.6759  0.1789
  640MOL0     C86306  -1.150  14.151   4.686 -0.0406 -0.2702  0.2606
  640MOL0     C86307  -1.272  14.239   4.714  0.9529 -1.2192 -0.3129
  640MOL0     C86308  -1.254  14.394   4.682  1.1266 -0.6719 -0.1257
  640MOL0    Cl86309  -1.176  14.415   4.517  0.0440 -0.2380 -0.3575
  640MOL0     C86310  -1.041  13.547   4.172 -0.4050  0.6625  0.6955
  640MOL0     C86311  -1.099  13.428   4.124 -0.2368  0.4368 -0.2514
  640MOL0     O86312  -1.336  13.172   4.386  0.4869 -0.5014 -0.5641
  640MOL0     C86313  -1.418  12.932   4.273  0.4092  0.0731 -0.2953
  640MOL0     C86314  -1.457  12.823   4.200  0.2168 -0.9493 -0.5483
  640MOL0     N86315  -0.950  12.515   3.728 -0.0738 -1.0866  0.1586
  640MOL0     N86316  -0.822  12.494   3.724  0.2348 -0.8497 -0.4006
  640MOL0     C86317  -0.064  11.616   3.899  0.4008  0.5640 -0.3221
  640MOL0     C86318   0.001  11.498   3.882 -0.4154 -0.6254 -0.8537
  640MOL0     C86319   0.360  11.214   3.718 -0.1819  0.9642  0.2391
  640MOL0     C86320   0.492  11.232   3.762 -0.5596 -0.4078 -0.3422
  640MOL0     C86321   0.579  11.120   3.774  0.4511 -1.0625 -0.4227
  640MOL0     C86322   0.537  10.989   3.737  0.1616  0.8643  0.1571
  640MOL0     O86323   0.607  10.870   3.739  0.0460  0.0762  0.0660
  640MOL0     C86324   0.740  10.877   3.775 -0.3118  0.0580  0.4259
  640MOL0     C86325   0.749  10.859   3.927  0.2659  0.4298 -0.0401
  640MOL0     C86326   0.703  10.720   3.991  1.1117 -0.3030  0.5333
  640MOL0     C86327   0.763  10.708   4.131 -0.2918 -0.5205 -0.3427
  640MOL0     C86328   0.697  10.794   4.234 -0.6968 -0.8695  1.0768
  640MOL0     C86329   0.649  10.854   4.330  0.3731  0.2606  0.0073
  640MOL0     C86330   0.414  10.976   3.677 -0.5757 -0.0459 -0.2386
  640MOL0     C86331   0.320  11.082   3.680  0.4028 -0.0876 -0.3827
  640MOL0     C86332   0.186  11.045   3.632 -0.3598 -0.1296 -0.4450
  640MOL0     H86333   0.256  11.607   3.700 -0.6208  1.9915 -0.7036
  640MOL0     H86334   0.136  11.819   3.722 -0.4253  1.3833  2.1070
  640MOL0     H86335   0.081  11.984   3.926 -1.6576  1.5652  2.2430
  640MOL0     H86336  -0.001  11.989   3.767  0.6781 -2.6075 -1.3020
  640MOL0     H86337  -0.033  12.173   3.900  0.6783 -1.6779 -0.9351
  640MOL0     H86338  -0.054  12.085   4.055 -0.6596  4.4468  1.3754
  640MOL0     H86339  -0.247  12.126   3.828 -0.9452 -2.3106 -0.5851
  640MOL0     H86340  -0.245  12.224   3.979 -0.3313 -0.3437  0.6970
  640MOL0     H86341  -0.330  11.925   3.943  3.0866  1.1889 -1.4172
  640MOL0     H86342  -0.302  11.994   4.099  1.7961 -2.1681 -0.4112
  640MOL0     H86343  -0.532  12.030   4.066  1.7860 -1.0298  0.6108
  640MOL0     H86344  -0.451  12.186   4.063  0.3784 -0.0229  0.0733
  640MOL0     H86345  -0.446  12.176   3.798 -1.6860 -0.5762 -1.7177
  640MOL0     H86346  -0.557  12.045   3.817  1.4811  0.7943 -1.5333
  640MOL0     H86347  -0.582  12.323   3.931  0.1938  2.0889 -2.9841
  640MOL0     H86348  -0.727  12.196   3.926 -0.3707  0.8865 -0.8973
  640MOL0     H86349  -0.592  12.358   3.725 -0.1422  0.3938 -1.4363
  640MOL0     H86350  -0.685  12.203   3.699 -0.5720 -1.7274  1.7285
  640MOL0     H86351  -0.966  12.196   3.801  2.6538 -1.2564 -0.6057
  640MOL0     H86352  -1.214  12.378   3.667  0.7179  0.4342 -2.2312
  640MOL0     H86353  -1.214  12.304   3.822 -1.5262  0.7660 -1.4582
  640MOL0     H86354  -1.185  12.577   3.888 -0.0699  2.1231 -0.6957
  640MOL0     H86355  -1.242  12.587   3.722  1.5791 -0.0052 -0.2169
  640MOL0     H86356  -1.378  12.482   3.972 -0.2705  1.8776  0.1701
  640MOL0     H86357  -1.455  12.452   3.810  0.1555  1.2691 -0.0449
  640MOL0     H86358  -1.564  12.619   3.850  0.7182 -1.5801  2.2691
  640MOL0     H86359  -1.411  12.714   3.818  0.4973  2.0779  1.2804
  640MOL0     H86360  -1.297  12.867   3.903  1.4759 -1.5790  1.1943
  640MOL0     H86361  -1.221  13.059   4.024 -0.6449  1.6208 -1.0502
  640MOL0     H86362  -1.335  13.401   4.380  1.7908 -1.5963  1.1935
  640MOL0     H86363  -1.261  13.624   4.415 -0.5561  0.5172 -0.1071
  640MOL0     H86364  -0.858  13.675   4.344 -2.0545 -1.2804  0.2366
  640MOL0     H86365  -0.872  13.844   4.339  0.0385  1.0678  1.0277
  640MOL0     H86366  -0.987  13.664   4.560  1.2287 -1.3733 -2.4579
  640MOL0     H86367  -0.869  13.792   4.581  0.2472  0.5570  0.6095
  640MOL0     H86368  -1.054  13.944   4.484  0.6277  1.3680  1.0594
  640MOL0     H86369  -1.165  13.810   4.543  0.4147 -0.6935 -0.1247
  640MOL0     H86370  -0.967  13.972   4.716  0.0656 -0.7886  1.9679
  640MOL0     H86371  -1.067  13.833   4.766 -0.0956  0.3459 -0.3505
  640MOL0     H86372  -1.188  14.009   4.848  0.0006 -0.3582  0.0647
  640MOL0     H86373  -1.266  13.962   4.700  0.9120  1.9422 -3.3282
  640MOL0     H86374  -1.052  14.186   4.722  0.8135 -0.0075 -2.1478
  640MOL0     H86375  -1.135  14.147   4.578  2.8900  0.1947  0.5609
  640MOL0     H86376  -1.297  14.238   4.820 -0.8710  2.5914 -0.5537
  640MOL0     H86377  -1.351  14.195   4.653  1.4971 -3.0589  0.2431
  640MOL0     H86378  -1.344  14.455   4.697  2.2771  1.1380 -0.2291
  640MOL0     H86379  -1.191  14.443   4.757 -0.9550  1.3078  0.4441
  640MOL0     H86380  -0.959  13.583   4.111 -0.9525 -3.6732 -3.1563
  640MOL0     H86381  -1.054  13.372   4.042  2.7650 -0.6344  1.9424
  640MOL0     H86382  -1.462  12.943   4.372 -0.1349 -0.1571 -0.5113
  640MOL0     H86383  -1.527  12.758   4.253 -0.1823  0.1414  0.3011
  640MOL0     H86384  -0.153  11.603   3.960  0.0817 -2.6454 -1.2907
  640MOL0     H86385  -0.049  11.418   3.937 -2.3046  0.8557 -0.3035
  640MOL0     H86386   0.527  11.326   3.803 -0.4139 -1.8384  3.1264
  640MOL0     H86387   0.674  11.149   3.819 -1.1560  0.7493  2.0999
  640MOL0     H86388   0.777  10.975   3.745 -3.5643  0.1233 -4.5037
  640MOL0     H86389   0.805  10.803   3.729  1.3796  0.7434  1.6182
  640MOL0     H86390   0.675  10.925   3.972 -1.1925 -1.7301  0.8593
  640MOL0     H86391   0.849  10.880   3.965 -0.2467 -1.1779  2.4488
  640MOL0     H86392   0.738  10.638   3.927  0.0719  0.5286 -1.1775
  640MOL0     H86393   0.594  10.725   3.999  1.1619 -1.2440  2.4210
  640MOL0     H86394   0.765  10.602   4.160 -0.7563 -1.6181 -3.8797
  640MOL0     H86395   0.870  10.722   4.114 -0.7685  1.5555 -2.0484
  640MOL0     H86396   0.612  10.886   4.425 -0.0295  1.6974 -0.6048
  640MOL0     H86397   0.374  10.882   3.641 -1.2249 -0.2012  0.8409
  640MOL0     H86398   0.153  10.957   3.688 -0.5129  0.3097  0.1832
  640MOL0     H86399   0.119  11.127   3.661  2.5332  1.7034  1.6863
  640MOL0     H86400   0.189  11.031   3.524  1.4706 -1.5994 -0.2378
  641MOL0     O86401  10.618   6.955   8.449 -0.4406  0.0936  0.7963
  641MOL0     C86402  10.683   7.060   8.434 -0.7830 -0.2683  0.3418
  641MOL0     O86403  10.723   7.107   8.307 -0.3474 -0.4298 -0.1768
  641MOL0     C86404  10.721   7.029   8.196 -1.0457 -0.8316  0.0906
  641MOL0     C86405  10.591   7.014   8.140 -1.5628  0.1934  0.6513
  641MOL0     C86406  10.582   6.937   8.024 -0.8375  0.9329  0.5732
  641MOL0     C86407  10.696   6.863   7.974 -0.3664 -1.1748  0.0111
  641MOL0     O86408  10.669   6.766   7.886 -0.1669  0.3176  0.2507
  641MOL0     C86409  10.768   6.747   7.783  0.5319  0.0979  1.0291
  641MOL0     C86410  10.711   6.745   7.646 -0.3412  0.6054  0.1669
  641MOL0     C86411  10.699   6.883   7.583 -0.4685  0.3945  0.0880
  641MOL0     C86412  10.813   6.919   7.486  0.6325  1.1222 -0.6024
  641MOL0     C86413  10.804   7.054   7.414 -0.4567  0.1507  0.0471
  641MOL0     C86414  10.882   7.080   7.288 -0.1156 -0.1594  0.5741
  641MOL0     C86415  11.028   7.069   7.308 -0.6331  0.3261 -0.0549
  641MOL0     C86416  11.089   7.145   7.186  0.4819 -0.3610  0.6570
  641MOL0     N86417  11.230   7.164   7.184 -0.2501 -0.1426 -0.3830
  641MOL0     C86418  11.290   7.282   7.236  0.4216 -0.3279 -0.6880
  641MOL0     C86419  11.428   7.253   7.229  0.5285 -0.0461 -0.0952
  641MOL0     C86420  11.544   7.339   7.285 -0.6621  0.3311  0.9980
  641MOL0     C86421  11.583   7.341   7.438 -0.0147 -0.3305  0.3143
  641MOL0     C86422  11.563   7.199   7.491 -0.3685  1.3976 -0.5459
  641MOL0     C86423  11.630   7.185   7.621  0.6242  0.5905 -0.5769
  641MOL0     O86424  11.768   7.197   7.599  0.1346  0.9609 -0.3659
  641MOL0     C86425  11.842   7.192   7.707 -0.6252  0.7833  0.2296
  641MOL0     C86426  11.877   7.301   7.797 -0.7382 -0.8872 -1.2380
  641MOL0     C86427  11.953   7.294   7.910  1.3282 -0.5648 -0.5934
  641MOL0     C86428  11.987   7.163   7.952  0.8232  0.5306  0.0672
  641MOL0     C86429  12.051   7.143   8.082  0.4338 -0.3813 -0.4179
  641MOL0     O86430  12.053   7.249   8.160 -0.3107  0.4830 -0.2659
  641MOL0     C86431  12.115   7.258   8.283  0.4119  0.2111  0.5171
  641MOL0     C86432  12.130   7.385   8.328 -0.2571 -0.9466  0.1053
  641MOL0     C86433  12.195   7.409   8.442  0.0169  0.0476 -0.3369
  641MOL0     C86434  12.242   7.312   8.530 -0.6549  1.0261  0.3219
  641MOL0     O86435  12.285   7.356   8.651 -0.3954 -0.0814  0.1684
  641MOL0     C86436  12.413   7.290   8.691 -0.4090 -0.4651 -0.4370
  641MOL0     C86437  12.503   7.385   8.773  0.0429 -0.0561  0.4551
  641MOL0     C86438  12.457   7.387   8.919  0.1958  0.0999  0.5363
  641MOL0     C86439  12.557   7.459   9.006 -0.3766  0.2238 -0.2176
  641MOL0     C86440  12.578   7.391   9.142 -0.8095  0.1714  0.5526
  641MOL0     C86441  12.645   7.479   9.247  0.7509 -0.0696  0.2404
  641MOL0     C86442  12.665   7.386   9.365  0.3064 -0.0543  0.0544
  641MOL0     C86443  12.775   7.450   9.462  0.9918  1.2410  0.6151
  641MOL0    Cl86444  12.847   7.312   9.551  0.4646  0.8169  0.0302
  641MOL0     C86445  12.225   7.185   8.482 -0.4500  0.5029 -0.3517
  641MOL0     C86446  12.169   7.153   8.359  0.6295 -0.4668  0.3894
  641MOL0     O86447  12.090   7.030   8.114  0.3046 -0.5006  0.4439
  641MOL0     C86448  11.948   7.056   7.868  0.4629  1.2176 -0.0798
  641MOL0     C86449  11.873   7.071   7.757 -0.0911 -0.3332  0.3998
  641MOL0     N86450  11.451   7.120   7.189  0.1916  0.5811 -1.1077
  641MOL0     N86451  11.332   7.067   7.173  0.2679 -0.8647  0.2230
  641MOL0     C86452  10.820   6.889   8.026 -0.1499 -0.1362 -0.0022
  641MOL0     C86453  10.835   6.969   8.139  0.2765 -0.3217  0.0955
  641MOL0     C86454  10.720   7.150   8.542  0.4161 -0.0821  0.1585
  641MOL0     C86455  10.846   7.211   8.536 -0.0913 -0.1464 -0.5147
  641MOL0     C86456  10.875   7.300   8.644 -0.1189 -0.2469  0.4431
  641MOL0     C86457  10.802   7.319   8.761  0.9899 -0.4630  0.1623
  641MOL0     O86458  10.862   7.392   8.859  0.6688 -0.5070  0.3998
  641MOL0     C86459  10.796   7.437   8.984 -0.0374 -0.4690  0.4960
  641MOL0     C86460  10.787   7.588   9.012 -0.0494 -0.0730  0.3842
  641MOL0     C86461  10.919   7.650   9.010  0.1252 -0.8567 -1.1425
  641MOL0     C86462  11.000   7.619   9.136  1.1106 -0.2024  0.0423
  641MOL0     C86463  11.127   7.695   9.134 -0.0430 -0.9992  0.4024
  641MOL0     C86464  11.238   7.749   9.133 -0.0746 -0.0189  0.2572
  641MOL0     C86465  10.677   7.252   8.768  0.1060 -0.6353  0.1804
  641MOL0     C86466  10.638   7.177   8.655  0.0822 -0.2131 -0.5981
  641MOL0     C86467  10.494   7.137   8.658 -0.3740 -0.7382  0.3013
  641MOL0     H86468  10.507   7.075   8.171 -1.3736  0.3604  0.8371
  641MOL0     H86469  10.487   6.922   7.975  0.2465  3.1238 -2.5658
  641MOL0     H86470  10.846   6.823   7.778 -0.5528  1.3713  2.5372
  641MOL0     H86471  10.810   6.649   7.810 -1.8410 -0.5836  2.5701
  641MOL0     H86472  10.610   6.705   7.636 -0.1400 -0.2890  1.5524
  641MOL0     H86473  10.775   6.679   7.587 -1.4035  0.4644 -0.8631
  641MOL0     H86474  10.686   6.962   7.657  1.4024 -0.1210  1.0479
  641MOL0     H86475  10.605   6.884   7.529  0.4843  1.1930 -1.6345
  641MOL0     H86476  10.912   6.912   7.533  0.9039  1.8377 -1.0429
  641MOL0     H86477  10.821   6.843   7.407  0.6834 -2.3548  2.4908
  641MOL0     H86478  10.698   7.065   7.386 -0.2464  0.2256 -0.7438
  641MOL0     H86479  10.814   7.128   7.494  1.5243  0.3761 -0.3690
  641MOL0     H86480  10.853   7.005   7.214 -1.2247  0.2445  0.5696
  641MOL0     H86481  10.858   7.172   7.234  0.5021 -0.6182 -0.5107
  641MOL0     H86482  11.056   6.963   7.304  0.3116  0.5583  0.2405
  641MOL0     H86483  11.073   7.113   7.397  0.2678 -0.5191 -0.0704
  641MOL0     H86484  11.054   7.099   7.093  1.0566  3.4871 -1.6805
  641MOL0     H86485  11.036   7.240   7.179  1.6801  0.3572  1.0546
  641MOL0     H86486  11.252   7.364   7.295 -1.7317 -2.1652  0.6623
  641MOL0     H86487  11.633   7.312   7.227  0.5250  0.8839  2.5098
  641MOL0     H86488  11.516   7.441   7.260 -1.5132  0.1294  1.0962
  641MOL0     H86489  11.688   7.374   7.437 -0.4635  2.0159  4.7831
  641MOL0     H86490  11.539   7.422   7.497  3.0286  2.0039 -0.3732
  641MOL0     H86491  11.601   7.121   7.424 -2.9112 -1.3264  0.9323
  641MOL0     H86492  11.458   7.175   7.510  0.4384 -2.0510  0.2315
  641MOL0     H86493  11.614   7.085   7.664  0.0814  0.9690  0.1247
  641MOL0     H86494  11.588   7.258   7.691  0.6324 -0.2285  0.3083
  641MOL0     H86495  11.851   7.402   7.767 -0.1516  0.0194  1.0859
  641MOL0     H86496  11.967   7.392   7.954 -2.4366  1.0741 -2.5973
  641MOL0     H86497  12.109   7.475   8.271  2.3478  0.0733  0.5892
  641MOL0     H86498  12.208   7.511   8.475  0.8025  0.1144 -0.8426
  641MOL0     H86499  12.393   7.206   8.759  0.8736 -1.6977 -1.5082
  641MOL0     H86500  12.473   7.258   8.605 -0.2836  2.4494 -1.5416
  641MOL0     H86501  12.601   7.338   8.760  0.7125  1.9563 -2.9346
  641MOL0     H86502  12.493   7.481   8.721 -2.8192  0.2861  1.4403
  641MOL0     H86503  12.357   7.429   8.932 -1.2176 -3.3779  2.1823
  641MOL0     H86504  12.442   7.285   8.955 -2.9710 -0.2170 -1.3545
  641MOL0     H86505  12.517   7.560   9.019 -1.1510 -0.0816 -0.1588
  641MOL0     H86506  12.654   7.453   8.956 -1.4455  0.6780 -2.4847
  641MOL0     H86507  12.639   7.301   9.137  1.6992  1.7661  0.7844
  641MOL0     H86508  12.482   7.357   9.183  0.7127 -0.3489  4.0220
  641MOL0     H86509  12.733   7.526   9.201  0.1161 -0.4890 -1.5070
  641MOL0     H86510  12.584   7.564   9.276 -0.2083 -0.0465 -1.6668
  641MOL0     H86511  12.709   7.291   9.335 -2.0777 -1.8184  1.7136
  641MOL0     H86512  12.577   7.353   9.422 -0.6349  0.7706 -0.8746
  641MOL0     H86513  12.857   7.502   9.411  2.9030 -1.1057  1.1395
  641MOL0     H86514  12.722   7.506   9.539 -0.2651  1.3013 -0.2562
  641MOL0     H86515  12.275   7.101   8.530  0.0758  1.4524  0.8404
  641MOL0     H86516  12.177   7.053   8.317 -1.2879 -0.2474 -0.6259
  641MOL0     H86517  11.962   6.956   7.909 -0.4122  0.9818 -0.3348
  641MOL0     H86518  11.835   6.987   7.700 -3.4891  2.9844 -2.7774
  641MOL0     H86519  10.915   6.848   7.994 -0.0562  0.4892 -0.5577
  641MOL0     H86520  10.930   6.965   8.191  1.4482  0.2578 -1.9009
  641MOL0     H86521  10.926   7.203   8.463  2.8594  2.1978  2.1992
  641MOL0     H86522  10.971   7.350   8.648  0.0439 -0.6134  1.3417
  641MOL0     H86523  10.860   7.396   9.064 -0.5294 -2.1652  0.0577
  641MOL0     H86524  10.693   7.403   8.990 -0.1852 -0.0133  0.5529
  641MOL0     H86525  10.733   7.605   9.106  0.2266  0.4964  0.4451
  641MOL0     H86526  10.725   7.636   8.935  0.6073 -0.7654 -0.5974
  641MOL0     H86527  10.902   7.758   9.015  0.4895 -0.7787 -1.4368
  641MOL0     H86528  10.972   7.634   8.915  1.9563 -0.0558 -0.3216
  641MOL0     H86529  10.947   7.650   9.227 -0.1832 -3.7673  0.6711
  641MOL0     H86530  11.009   7.511   9.129 -3.0540 -0.6698 -1.0544
  641MOL0     H86531  11.337   7.790   9.134 -0.7527  1.7063  1.1871
  641MOL0     H86532  10.603   7.276   8.845 -1.8639 -1.0809 -1.4862
  641MOL0     H86533  10.452   7.134   8.557 -0.9839 -0.4089  0.5450
  641MOL0     H86534  10.475   7.043   8.712 -1.0454  0.1962  1.7611
  641MOL0     H86535  10.444   7.218   8.711  1.1405 -0.9110  2.1103
  642MOL0     O86536   5.713   2.914   1.590  0.4283 -0.4380 -0.3440
  642MOL0     C86537   5.826   2.872   1.584 -0.3769 -0.5786  0.1311
  642MOL0     O86538   5.858   2.742   1.594  0.8833  0.2438  0.4612
  642MOL0     C86539   5.786   2.625   1.569 -0.7478 -0.0533 -0.4260
  642MOL0     C86540   5.654   2.607   1.540  0.7953  0.1285  0.7543
  642MOL0     C86541   5.598   2.481   1.526  0.8470 -1.0855  0.7917
  642MOL0     C86542   5.680   2.364   1.522  0.7668 -0.0617 -0.3908
  642MOL0     O86543   5.625   2.236   1.502 -0.6432  0.7747 -0.5787
  642MOL0     C86544   5.495   2.230   1.447  0.1867 -0.4474  0.2442
  642MOL0     C86545   5.453   2.080   1.452  0.1222  0.4964 -0.1714
  642MOL0     C86546   5.448   2.029   1.599 -0.5458  0.3026 -0.7838
  642MOL0     C86547   5.365   1.899   1.620 -0.0608  1.0747 -0.0030
  642MOL0     C86548   5.332   1.852   1.757 -0.8374 -0.2272  0.0053
  642MOL0     C86549   5.458   1.853   1.849 -0.2195  0.1319  0.0514
  642MOL0     C86550   5.408   1.811   1.997 -0.6324 -0.0222  0.5712
  642MOL0     C86551   5.363   1.664   1.996  0.4981  0.2072 -0.5699
  642MOL0     N86552   5.339   1.607   2.131  0.2852 -0.7862 -0.5634
  642MOL0     C86553   5.437   1.561   2.212  0.1572  0.2502 -0.4262
  642MOL0     C86554   5.375   1.547   2.338  0.1867  0.2338  0.5319
  642MOL0     C86555   5.442   1.491   2.459  0.4130 -0.7795  0.3448
  642MOL0     C86556   5.505   1.351   2.430 -0.2819  0.1024 -0.5046
  642MOL0     C86557   5.561   1.281   2.563  1.0292  1.1330 -0.2023
  642MOL0     C86558   5.522   1.140   2.576  0.0433 -0.1871  0.5372
  642MOL0     O86559   5.376   1.150   2.575  0.8354  0.2124 -0.1844
  642MOL0     C86560   5.313   1.024   2.559 -0.4866  0.1036  0.5518
  642MOL0     C86561   5.366   0.902   2.592 -0.8825  0.6966  0.9494
  642MOL0     C86562   5.303   0.775   2.570 -0.8817  0.2422  0.5899
  642MOL0     C86563   5.167   0.774   2.520  0.3237  1.3684  0.1628
  642MOL0     C86564   5.100   0.642   2.511 -1.3995 -0.7810  0.8382
  642MOL0     O86565   5.166   0.536   2.573  0.2312 -0.3190  0.7837
  642MOL0     C86566   5.125   0.409   2.552  0.6508  0.1260 -0.7656
  642MOL0     C86567   5.227   0.318   2.559 -0.2444 -0.3391  1.2558
  642MOL0     C86568   5.204   0.188   2.525  0.4889 -0.3357 -0.2706
  642MOL0     C86569   5.079   0.141   2.483 -0.9661 -0.2822  0.3475
  642MOL0     O86570   5.071   0.009   2.461  0.4662 -0.5183 -0.5729
  642MOL0     C86571   4.946  -0.048   2.423 -0.0278  0.2582  0.2822
  642MOL0     C86572   4.961  -0.207   2.400  0.8781 -0.6011 -0.3654
  642MOL0     C86573   5.030  -0.255   2.526 -0.0005  0.1465 -0.0045
  642MOL0     C86574   5.091  -0.402   2.490  0.7743 -0.4337  1.0776
  642MOL0     C86575   5.137  -0.471   2.620  0.0978 -0.6830  0.2471
  642MOL0     C86576   5.243  -0.383   2.691 -0.7386  0.0876  0.4676
  642MOL0     C86577   5.328  -0.459   2.795  0.0805  0.9195 -0.6637
  642MOL0     C86578   5.255  -0.579   2.884  0.5526 -0.2707  0.2056
  642MOL0    Cl86579   5.149  -0.504   2.995 -0.2638 -0.1809  0.1149
  642MOL0     C86580   4.978   0.233   2.467 -0.5030  0.3604 -0.9417
  642MOL0     C86581   4.993   0.369   2.494 -0.3145 -0.1400 -0.7359
  642MOL0     O86582   4.996   0.646   2.449  0.4629  0.3910  0.2747
  642MOL0     C86583   5.112   0.898   2.499  0.4728  0.1061  0.7641
  642MOL0     C86584   5.180   1.025   2.507 -0.5871 -0.5370 -0.3535
  642MOL0     N86585   5.244   1.569   2.319  0.1201 -0.0361 -1.0010
  642MOL0     N86586   5.220   1.599   2.198  0.1756  0.2718 -0.4991
  642MOL0     C86587   5.817   2.383   1.547 -0.3175  0.2440  0.3519
  642MOL0     C86588   5.864   2.508   1.583  0.0800  0.1651 -0.3700
  642MOL0     C86589   5.937   2.975   1.591  0.3247 -0.2214 -0.4917
  642MOL0     C86590   6.059   2.928   1.579  0.7866  0.5163 -0.1252
  642MOL0     C86591   6.169   3.009   1.560  0.1023  0.0271 -1.6901
  642MOL0     C86592   6.152   3.145   1.557  0.6315 -0.2718  0.2698
  642MOL0     O86593   6.264   3.224   1.540  0.5652 -0.9211 -1.2503
  642MOL0     C86594   6.386   3.173   1.596 -0.0294 -0.0161 -0.4508
  642MOL0     C86595   6.480   3.282   1.607 -0.8401  0.6943  0.8280
  642MOL0     C86596   6.609   3.244   1.675  0.4110  0.0543  0.1923
  642MOL0     C86597   6.690   3.149   1.585  1.7155  0.0491  0.5302
  642MOL0     C86598   6.779   3.230   1.502 -0.1736 -0.0100 -0.4282
  642MOL0     C86599   6.870   3.287   1.446 -0.1209  0.2223  0.9829
  642MOL0     C86600   6.024   3.203   1.572  0.6448  0.5723 -1.1394
  642MOL0     C86601   5.914   3.119   1.598  0.2569 -0.3340  0.2573
  642MOL0     C86602   5.773   3.182   1.608  0.2341  0.2038  0.0989
  642MOL0     H86603   5.580   2.687   1.542 -1.9045 -2.1166 -0.8083
  642MOL0     H86604   5.491   2.466   1.516  0.8923 -3.5824  2.9246
  642MOL0     H86605   5.422   2.283   1.509  1.3700  0.0206  1.2756
  642MOL0     H86606   5.494   2.269   1.345  1.6966  0.9635  0.7165
  642MOL0     H86607   5.535   2.029   1.401 -0.9270  0.4830 -1.9066
  642MOL0     H86608   5.369   2.051   1.389  0.6115 -1.2376 -0.0550
  642MOL0     H86609   5.391   2.096   1.664 -1.6711 -2.2814  1.0649
  642MOL0     H86610   5.550   2.023   1.640 -1.1377 -0.8682  0.5827
  642MOL0     H86611   5.266   1.917   1.577 -1.5892  0.5607  2.9653
  642MOL0     H86612   5.418   1.816   1.573  0.1239  2.0318 -1.5317
  642MOL0     H86613   5.256   1.917   1.802 -0.4579  1.3163 -1.4739
  642MOL0     H86614   5.278   1.757   1.753 -4.5427  1.6810 -3.8184
  642MOL0     H86615   5.537   1.787   1.811  0.3194  2.5299 -3.4591
  642MOL0     H86616   5.502   1.954   1.849 -1.4425  0.6866  1.1469
  642MOL0     H86617   5.337   1.885   2.035  1.8823  3.2201 -0.6262
  642MOL0     H86618   5.506   1.818   2.046  0.3584  1.3967 -1.4652
  642MOL0     H86619   5.263   1.668   1.950 -0.6813  0.5122  1.8678
  642MOL0     H86620   5.422   1.591   1.940 -1.9079 -3.2407  1.0496
  642MOL0     H86621   5.541   1.532   2.197  0.2144 -2.9566  4.1921
  642MOL0     H86622   5.525   1.559   2.482 -0.7700  1.2822 -1.0850
  642MOL0     H86623   5.371   1.474   2.541  2.1652 -1.3721  1.7977
  642MOL0     H86624   5.428   1.297   2.375  1.0585 -0.2873 -2.1181
  642MOL0     H86625   5.583   1.367   2.354 -1.3360  4.7600 -0.9381
  642MOL0     H86626   5.556   1.347   2.650  1.2028  0.5335  0.2629
  642MOL0     H86627   5.668   1.261   2.552  1.5104  0.8327  3.7100
  642MOL0     H86628   5.556   1.097   2.671 -1.2132  0.7331  1.4402
  642MOL0     H86629   5.557   1.073   2.496  0.5324 -0.3253  0.8614
  642MOL0     H86630   5.471   0.901   2.620 -0.1617  1.2247 -1.4946
  642MOL0     H86631   5.363   0.689   2.599 -1.7655 -0.4688  0.3178
  642MOL0     H86632   5.326   0.353   2.586 -0.4219  2.5658 -1.3361
  642MOL0     H86633   5.283   0.116   2.545  0.5204 -1.1223 -2.9025
  642MOL0     H86634   4.873  -0.035   2.503 -1.2365  3.7569 -1.1613
  642MOL0     H86635   4.903  -0.018   2.327  1.3397 -1.7338 -1.0312
  642MOL0     H86636   4.867  -0.257   2.375  1.2681 -0.3416 -2.5959
  642MOL0     H86637   5.023  -0.236   2.314  3.2101 -2.7761  1.8954
  642MOL0     H86638   5.116  -0.195   2.557 -0.4864  1.0224 -0.3049
  642MOL0     H86639   4.956  -0.272   2.605 -3.5354 -0.7219 -3.1930
  642MOL0     H86640   5.178  -0.380   2.428  0.5100  2.1650  1.4966
  642MOL0     H86641   5.010  -0.458   2.445  2.2159 -0.6439 -1.4329
  642MOL0     H86642   5.180  -0.568   2.592  1.4667  0.1206 -0.4859
  642MOL0     H86643   5.059  -0.488   2.696  3.1804 -1.1756  3.6024
  642MOL0     H86644   5.315  -0.326   2.632 -1.0508  1.2269  1.1382
  642MOL0     H86645   5.183  -0.315   2.752 -0.2008 -0.8109  2.0636
  642MOL0     H86646   5.387  -0.394   2.861 -0.3167 -2.2787  3.2961
  642MOL0     H86647   5.399  -0.525   2.744 -0.2163 -1.2395  1.5115
  642MOL0     H86648   5.204  -0.662   2.833  2.4063 -2.5349  1.8482
  642MOL0     H86649   5.325  -0.634   2.947 -0.0680 -1.9349 -0.4878
  642MOL0     H86650   4.876   0.211   2.437 -2.2348 -0.5798  4.3889
  642MOL0     H86651   4.908   0.433   2.474 -1.3088 -1.7518 -1.9467
  642MOL0     H86652   5.006   0.893   2.478  0.8018 -3.0973 -0.6819
  642MOL0     H86653   5.133   1.121   2.494  0.1333  0.0213  0.9098
  642MOL0     H86654   5.877   2.292   1.549 -2.3348 -1.1998 -0.7309
  642MOL0     H86655   5.963   2.523   1.625  0.4566  1.2173 -1.5485
  642MOL0     H86656   6.077   2.821   1.574 -0.9560  0.2213 -0.7125
  642MOL0     H86657   6.257   2.947   1.550 -0.8371 -1.5807 -0.4244
  642MOL0     H86658   6.425   3.094   1.531  4.6124  1.2432  0.4570
  642MOL0     H86659   6.367   3.137   1.698  1.1094 -1.4309 -0.7056
  642MOL0     H86660   6.429   3.353   1.673  0.1393  0.4075  1.9284
  642MOL0     H86661   6.490   3.325   1.507 -0.1244 -1.4708 -0.0983
  642MOL0     H86662   6.580   3.191   1.767 -0.2121  0.4298  0.2147
  642MOL0     H86663   6.676   3.327   1.698  1.3953 -0.9539  1.0876
  642MOL0     H86664   6.751   3.085   1.649  1.4356 -0.3437  0.4128
  642MOL0     H86665   6.634   3.091   1.510 -1.8593 -1.1267  3.7657
  642MOL0     H86666   6.965   3.310   1.402 -0.6310  1.2217  0.3525
  642MOL0     H86667   6.006   3.309   1.587 -4.4472 -0.4083  1.9976
  642MOL0     H86668   5.726   3.150   1.701  1.4651 -1.1793  0.2893
  642MOL0     H86669   5.773   3.290   1.596 -0.9362  0.1423 -0.5610
  642MOL0     H86670   5.702   3.149   1.532  0.6573  1.6397 -0.9660
  643MOL0     O86671   2.380  10.216   0.157  0.2755 -0.3525  0.5483
  643MOL0     C86672   2.465  10.137   0.101  0.2999 -0.7602 -0.1327
  643MOL0     O86673   2.437  10.007   0.063 -0.0746 -0.0013  0.1383
  643MOL0     C86674   2.333   9.941   0.108  0.0249  0.1547 -0.6188
  643MOL0     C86675   2.280   9.854   0.015  0.0099  1.0119 -0.1006
  643MOL0     C86676   2.187   9.751   0.052  0.1104  0.0162 -0.4352
  643MOL0     C86677   2.133   9.744   0.182 -0.0178 -0.5507  0.4663
  643MOL0     O86678   2.022   9.660   0.188  0.0105 -0.2615  0.1887
  643MOL0     C86679   1.953   9.632   0.308  0.8020 -0.7459 -0.3669
  643MOL0     C86680   1.803   9.675   0.293 -0.0232 -0.2542  0.9233
  643MOL0     C86681   1.796   9.821   0.263 -0.9591 -0.0331 -0.3114
  643MOL0     C86682   1.660   9.875   0.307  0.4953  0.2011 -0.5341
  643MOL0     C86683   1.643  10.020   0.297 -0.9041 -0.1742 -0.5202
  643MOL0     C86684   1.503  10.057   0.339  1.1371  1.4902  0.0232
  643MOL0     C86685   1.489  10.212   0.344  0.3070 -0.6167  0.3451
  643MOL0     C86686   1.530  10.273   0.471  1.5626 -0.9063 -0.6566
  643MOL0     N86687   1.437  10.230   0.577  0.0186 -0.2539  0.7040
  643MOL0     C86688   1.302  10.257   0.581 -0.4085  0.1300 -0.5124
  643MOL0     C86689   1.269  10.199   0.698  0.0125 -0.2113 -0.4686
  643MOL0     C86690   1.136  10.182   0.760 -0.1099  0.3314 -0.0535
  643MOL0     C86691   1.037  10.096   0.668  0.1051  0.3944  0.1415
  643MOL0     C86692   0.934  10.016   0.735 -0.1255  0.5750 -0.1158
  643MOL0     C86693   0.826  10.103   0.796  0.5702  0.8541 -0.4504
  643MOL0     O86694   0.748  10.019   0.888 -0.0478  0.3136  0.2504
  643MOL0     C86695   0.667   9.924   0.833  0.0808 -0.0601  0.7440
  643MOL0     C86696   0.569   9.957   0.738 -0.1249 -0.1812  0.2959
  643MOL0     C86697   0.478   9.855   0.688  0.9907 -0.1999 -0.4436
  643MOL0     C86698   0.486   9.725   0.740 -0.1513  0.6753  0.5335
  643MOL0     C86699   0.392   9.625   0.684  0.8288 -0.0879  0.1408
  643MOL0     O86700   0.296   9.674   0.592  0.1555  0.2957 -0.5077
  643MOL0     C86701   0.219   9.574   0.530  0.1438  0.2671  0.6585
  643MOL0     C86702   0.091   9.616   0.501 -0.6805  0.0251 -0.2395
  643MOL0     C86703   0.002   9.530   0.424 -0.1155 -0.2385  0.0188
  643MOL0     C86704   0.050   9.410   0.380  0.3150 -0.1101  0.4339
  643MOL0     O86705  -0.031   9.327   0.303 -0.1130 -0.1425  0.0466
  643MOL0     C86706   0.037   9.234   0.215  0.4831 -0.1807  0.2707
  643MOL0     C86707  -0.066   9.184   0.112  0.2503 -0.6133 -0.4461
  643MOL0     C86708  -0.153   9.297   0.040 -0.2352 -0.2574 -0.5491
  643MOL0     C86709  -0.084   9.407  -0.036  0.2506 -0.5482  1.0170
  643MOL0     C86710  -0.182   9.460  -0.146 -0.8832 -0.5967 -0.1179
  643MOL0     C86711  -0.104   9.558  -0.230 -0.0228 -0.9377  0.9294
  643MOL0     C86712  -0.195   9.620  -0.338 -0.4397 -0.5822  0.2645
  643MOL0     C86713  -0.141   9.746  -0.411  0.0408  0.4858 -0.7526
  643MOL0    Cl86714   0.017   9.695  -0.485 -0.4429  0.4562  0.0859
  643MOL0     C86715   0.173   9.366   0.417 -0.0884 -0.3211  0.2811
  643MOL0     C86716   0.261   9.439   0.493 -0.7123  0.5750 -0.8563
  643MOL0     O86717   0.397   9.515   0.739  1.0409  0.8475 -0.0306
  643MOL0     C86718   0.577   9.697   0.847  0.1534 -0.7166  0.9993
  643MOL0     C86719   0.658   9.800   0.893 -0.8179  0.4450 -0.6843
  643MOL0     N86720   1.375  10.136   0.754 -0.4932  0.7320 -1.2303
  643MOL0     N86721   1.478  10.150   0.679  0.4026  0.0972 -0.0088
  643MOL0     C86722   2.178   9.843   0.266  0.0190 -0.1502 -0.7189
  643MOL0     C86723   2.277   9.940   0.234 -0.8535  0.1999 -0.4513
  643MOL0     C86724   2.595  10.197   0.057  0.3460 -0.3307  0.6561
  643MOL0     C86725   2.718  10.119   0.068  0.2093  0.2124 -0.5281
  643MOL0     C86726   2.839  10.172   0.034 -0.3408  0.4565 -0.2845
  643MOL0     C86727   2.847  10.300  -0.017  0.5568 -0.1767  0.4394
  643MOL0     O86728   2.969  10.354  -0.061  0.2039 -0.2424 -0.2191
  643MOL0     C86729   3.058  10.388   0.045 -0.5894 -0.6166  0.0660
  643MOL0     C86730   3.024  10.518   0.129 -1.2358 -0.1849  0.0962
  643MOL0     C86731   3.154  10.590   0.192  0.0910 -0.4799 -0.3113
  643MOL0     C86732   3.104  10.707   0.281 -0.2670  0.5328  0.9272
  643MOL0     C86733   3.004  10.795   0.215  0.3779  0.5987 -1.2307
  643MOL0     C86734   2.928  10.859   0.139  1.0128  0.3845 -0.6575
  643MOL0     C86735   2.726  10.368  -0.051  0.2721  0.3199  0.2520
  643MOL0     C86736   2.602  10.322  -0.023 -0.8024  0.7433 -0.9633
  643MOL0     C86737   2.467  10.384  -0.068 -0.4174  0.1999  0.3790
  643MOL0     H86738   2.327   9.860  -0.083  1.4516 -2.6248  0.2263
  643MOL0     H86739   2.148   9.676  -0.015 -2.1768 -1.2785  2.1244
  643MOL0     H86740   1.971   9.525   0.322  2.1174 -0.3788  0.9586
  643MOL0     H86741   2.005   9.673   0.395  0.0788  1.9798 -1.1474
  643MOL0     H86742   1.748   9.644   0.383 -2.0500 -2.7773 -1.0323
  643MOL0     H86743   1.745   9.617   0.221 -0.1534  2.1157 -1.0226
  643MOL0     H86744   1.806   9.822   0.154 -3.6068 -3.5571 -0.7895
  643MOL0     H86745   1.880   9.877   0.304  1.2272 -0.7077 -3.4369
  643MOL0     H86746   1.580   9.830   0.247 -2.8598  3.5508  0.9860
  643MOL0     H86747   1.653   9.847   0.412  2.2626  2.9822  0.4065
  643MOL0     H86748   1.715  10.058   0.371  1.0850 -2.9113 -0.8776
  643MOL0     H86749   1.667  10.063   0.199 -0.5252  4.8127  1.4532
  643MOL0     H86750   1.427  10.014   0.273  0.8206  0.0009  1.2971
  643MOL0     H86751   1.479  10.009   0.434 -0.8862 -0.3714 -1.3161
  643MOL0     H86752   1.388  10.244   0.318  0.7489  2.1920  1.7380
  643MOL0     H86753   1.552  10.244   0.261 -0.7665 -1.3391 -0.7835
  643MOL0     H86754   1.632  10.244   0.498  1.1553 -1.5021  0.2856
  643MOL0     H86755   1.537  10.382   0.470  1.3591 -0.8629  0.6842
  643MOL0     H86756   1.230  10.294   0.508 -2.1404  0.1174  1.1202
  643MOL0     H86757   1.155  10.124   0.850  1.3018  2.0975  0.8420
  643MOL0     H86758   1.100  10.278   0.799  1.9866  0.3767  1.9877
  643MOL0     H86759   0.980  10.162   0.602  0.0218  0.4631  0.2813
  643MOL0     H86760   1.090  10.021   0.608 -1.0414 -0.2227 -0.1326
  643MOL0     H86761   0.978   9.949   0.810  1.9265 -0.4491 -2.1043
  643MOL0     H86762   0.877   9.957   0.662 -1.7220  1.8304  0.0620
  643MOL0     H86763   0.757  10.156   0.730 -0.3852  0.3919  0.1519
  643MOL0     H86764   0.865  10.179   0.864  0.1547  0.4798  0.2172
  643MOL0     H86765   0.575  10.057   0.697 -2.5457 -0.9053 -2.1168
  643MOL0     H86766   0.401   9.887   0.618 -0.5288  3.3780  2.4930
  643MOL0     H86767   0.055   9.714   0.529 -2.5861 -0.3605 -1.1794
  643MOL0     H86768  -0.094   9.557   0.382 -0.0255 -0.6454 -0.4556
  643MOL0     H86769   0.116   9.284   0.158  0.2343  1.2137  1.0911
  643MOL0     H86770   0.078   9.146   0.266 -0.9039 -0.9466  0.1143
  643MOL0     H86771  -0.009   9.120   0.044  0.6059 -2.2359  1.2796
  643MOL0     H86772  -0.137   9.115   0.159 -1.5623  0.2708 -1.7518
  643MOL0     H86773  -0.210   9.233  -0.028  1.2559 -4.3894  1.7496
  643MOL0     H86774  -0.220   9.344   0.112  1.3839  0.6896  0.3904
  643MOL0     H86775   0.009   9.381  -0.086  2.1246  1.2717  3.3041
  643MOL0     H86776  -0.060   9.485   0.037  2.5049 -1.0208  0.8630
  643MOL0     H86777  -0.259   9.516  -0.093 -0.4756 -0.7770  0.6891
  643MOL0     H86778  -0.214   9.376  -0.208 -1.2352 -2.0750  1.9477
  643MOL0     H86779  -0.048   9.633  -0.174 -0.6209  0.1331  0.1268
  643MOL0     H86780  -0.020   9.510  -0.281  1.4796  1.6561  0.8047
  643MOL0     H86781  -0.283   9.655  -0.282 -2.1109 -0.9408 -2.0033
  643MOL0     H86782  -0.227   9.537  -0.401 -1.7143 -1.3665  1.8566
  643MOL0     H86783  -0.207   9.772  -0.494  1.1484 -2.2712 -2.6530
  643MOL0     H86784  -0.117   9.828  -0.342  3.2036 -0.0146 -1.1016
  643MOL0     H86785   0.208   9.263   0.405  0.7029 -0.0672  0.3215
  643MOL0     H86786   0.350   9.401   0.542 -1.0696  0.9104  0.0607
  643MOL0     H86787   0.584   9.592   0.875  3.5884 -1.6411 -2.3358
  643MOL0     H86788   0.695   9.781   0.993 -2.3632 -1.7228 -0.4448
  643MOL0     H86789   2.143   9.829   0.368 -1.8294  1.4199 -1.0636
  643MOL0     H86790   2.321  10.004   0.309  0.9725  1.4075 -2.4337
  643MOL0     H86791   2.702  10.016   0.101 -2.1148  1.0211  1.1820
  643MOL0     H86792   2.932  10.119   0.053  0.9225  2.8768  0.7373
  643MOL0     H86793   3.160  10.402   0.009 -0.8514 -0.8080 -0.7707
  643MOL0     H86794   3.051  10.306   0.117  3.9097 -1.5368 -0.2976
  643MOL0     H86795   2.958  10.502   0.215 -0.3815 -1.5020  0.5550
  643MOL0     H86796   2.983  10.578   0.048  1.8099  1.0770 -0.6472
  643MOL0     H86797   3.226  10.631   0.119 -0.0434  0.5378  0.1189
  643MOL0     H86798   3.204  10.519   0.259  1.8350 -0.5666 -1.6112
  643MOL0     H86799   3.050  10.661   0.365 -0.7666  1.6709  1.2422
  643MOL0     H86800   3.189  10.761   0.323  0.4027 -2.1856  3.3873
  643MOL0     H86801   2.861  10.913   0.075  2.0470  1.3167 -0.9764
  643MOL0     H86802   2.729  10.464  -0.101 -0.1667 -0.9062 -2.3046
  643MOL0     H86803   2.420  10.305  -0.127  3.0512  0.4251 -3.1292
  643MOL0     H86804   2.398  10.415   0.011 -1.0025  1.7611 -0.6899
  643MOL0     H86805   2.499  10.471  -0.126  2.2433  1.2515  3.1942
  644MOL0     O86806   0.385   8.149   8.059 -0.4909  0.0020 -0.6707
  644MOL0     C86807   0.309   8.071   8.107 -0.9239 -0.2205  1.2051
  644MOL0     O86808   0.176   8.064   8.073  0.6557  0.0773 -0.5367
  644MOL0     C86809   0.145   8.139   7.962  0.3159 -0.2594 -0.8094
  644MOL0     C86810   0.149   8.081   7.838  0.9221  0.4591  0.7244
  644MOL0     C86811   0.117   8.153   7.717 -0.3807 -0.8971  1.7664
  644MOL0     C86812   0.105   8.299   7.729  0.4105  0.0101 -0.0699
  644MOL0     O86813   0.062   8.387   7.636 -0.3218 -0.0173  0.0095
  644MOL0     C86814   0.088   8.336   7.501  0.2873 -0.2431 -0.6890
  644MOL0     C86815   0.110   8.464   7.412 -0.2528  0.8460 -1.0372
  644MOL0     C86816  -0.015   8.553   7.412  0.3480 -0.0968  0.5382
  644MOL0     C86817   0.020   8.690   7.347 -0.4007  0.6298 -0.5607
  644MOL0     C86818  -0.100   8.783   7.343  1.3982 -0.7186 -0.1761
  644MOL0     C86819  -0.218   8.737   7.260  0.2863 -0.9781 -0.1814
  644MOL0     C86820  -0.327   8.829   7.306  0.3758 -0.8469  0.5286
  644MOL0     C86821  -0.458   8.775   7.260 -0.3167  0.2864 -0.2070
  644MOL0     N86822  -0.567   8.875   7.239  0.0755  0.2219 -0.3643
  644MOL0     C86823  -0.698   8.860   7.267  0.1967 -0.1155  0.3307
  644MOL0     C86824  -0.749   8.982   7.235  0.0907  0.1695  0.5130
  644MOL0     C86825  -0.894   9.017   7.237  0.9478  0.6064  0.4710
  644MOL0     C86826  -0.955   9.002   7.097 -0.7590 -0.4195 -0.8120
  644MOL0     C86827  -1.107   9.029   7.105  1.0853 -0.2778  0.7400
  644MOL0     C86828  -1.193   8.918   7.178 -0.3202 -0.5396 -0.2902
  644MOL0     O86829  -1.230   8.949   7.307 -0.1725  0.2934 -0.7295
  644MOL0     C86830  -1.359   8.917   7.321  1.0050  0.2172  0.3894
  644MOL0     C86831  -1.390   8.795   7.371 -0.0177 -0.6202  0.1061
  644MOL0     C86832  -1.518   8.749   7.387  0.1082  0.5127  0.2048
  644MOL0     C86833  -1.630   8.834   7.360 -0.6993 -0.3243 -0.4632
  644MOL0     C86834  -1.761   8.782   7.382  0.1500 -0.9089  0.7323
  644MOL0     O86835  -1.870   8.856   7.337 -0.2512 -0.3522 -0.6998
  644MOL0     C86836  -1.997   8.797   7.351 -0.6012  0.1812  0.4017
  644MOL0     C86837  -2.086   8.819   7.240 -0.2010  0.5125  1.0734
  644MOL0     C86838  -2.215   8.759   7.234 -0.3949 -0.3596 -0.1189
  644MOL0     C86839  -2.269   8.713   7.352  0.1058  0.2042 -0.0274
  644MOL0     O86840  -2.404   8.674   7.354 -1.0695  0.1582  0.6482
  644MOL0     C86841  -2.492   8.777   7.314  0.4797  0.3303 -0.1444
  644MOL0     C86842  -2.574   8.810   7.437 -0.1937 -0.1283  0.2785
  644MOL0     C86843  -2.668   8.924   7.387 -0.3127 -0.2726 -0.3191
  644MOL0     C86844  -2.595   9.065   7.385 -0.3976  0.0080 -0.8800
  644MOL0     C86845  -2.688   9.186   7.351 -0.7725 -0.2206  0.4416
  644MOL0     C86846  -2.713   9.189   7.200  0.0028  0.7918 -0.3684
  644MOL0     C86847  -2.853   9.133   7.150 -0.3172 -0.6745  0.4634
  644MOL0     C86848  -2.842   9.090   7.004 -0.4960 -0.0438 -1.0870
  644MOL0    Cl86849  -2.772   8.933   7.014 -0.9970 -0.5531  0.0450
  644MOL0     C86850  -2.186   8.695   7.470  0.4225 -0.2931 -0.3122
  644MOL0     C86851  -2.048   8.726   7.464  0.2874 -1.3037  0.5075
  644MOL0     O86852  -1.765   8.678   7.436 -0.3342 -0.1627  0.3090
  644MOL0     C86853  -1.600   8.966   7.325  0.0269 -0.8044 -0.8128
  644MOL0     C86854  -1.465   9.010   7.302 -0.4836  0.7416 -1.2975
  644MOL0     N86855  -0.649   9.064   7.200 -0.5797 -0.4690  0.3798
  644MOL0     N86856  -0.542   9.002   7.215 -0.4296  0.1149 -0.1331
  644MOL0     C86857   0.100   8.349   7.861 -0.9663  0.0259  0.2475
  644MOL0     C86858   0.112   8.275   7.978  0.1781  0.4264  0.4932
  644MOL0     C86859   0.368   7.982   8.217  0.5578 -0.3649  0.4014
  644MOL0     C86860   0.284   7.869   8.251 -0.0449  0.2802 -0.7443
  644MOL0     C86861   0.330   7.775   8.353  0.4767 -0.4010  0.0917
  644MOL0     C86862   0.454   7.795   8.411 -1.5597 -0.2844  0.0172
  644MOL0     O86863   0.478   7.717   8.533  0.7390 -0.8969  0.5734
  644MOL0     C86864   0.560   7.773   8.646 -0.1490  0.5115  0.4767
  644MOL0     C86865   0.578   7.673   8.758 -0.3315 -0.6067  0.2945
  644MOL0     C86866   0.458   7.627   8.850  1.6919 -0.3367  0.4290
  644MOL0     C86867   0.518   7.532   8.958 -0.4801 -0.2606 -0.4127
  644MOL0     C86868   0.531   7.405   8.898  0.1258  0.6579 -0.7965
  644MOL0     C86869   0.545   7.291   8.849  0.2030 -0.2696 -0.5465
  644MOL0     C86870   0.546   7.889   8.363  1.0194 -0.0971 -0.5307
  644MOL0     C86871   0.507   7.979   8.262 -0.3993  0.1188 -0.4876
  644MOL0     C86872   0.618   8.071   8.209  0.1798 -0.9276  0.6427
  644MOL0     H86873   0.168   7.974   7.836  1.1259  0.4999  0.3305
  644MOL0     H86874   0.127   8.101   7.622 -1.6364  3.7329 -1.2137
  644MOL0     H86875   0.178   8.277   7.482  0.8058  0.8812 -1.9117
  644MOL0     H86876  -0.001   8.286   7.461 -0.7691 -0.4666  1.7695
  644MOL0     H86877   0.137   8.432   7.311 -2.4693  0.8524 -1.6988
  644MOL0     H86878   0.193   8.515   7.461 -1.4046 -0.2115  2.3357
  644MOL0     H86879  -0.063   8.565   7.509  0.9809 -2.1140  1.1448
  644MOL0     H86880  -0.086   8.503   7.346 -0.8361  0.5489  1.2868
  644MOL0     H86881   0.109   8.731   7.394  1.5854 -0.6378 -2.9729
  644MOL0     H86882   0.070   8.692   7.250  2.4431  3.2420  0.7785
  644MOL0     H86883  -0.133   8.780   7.447  2.0670  1.0110  0.1184
  644MOL0     H86884  -0.072   8.886   7.320  0.2837 -1.0460 -3.3964
  644MOL0     H86885  -0.194   8.751   7.155  0.3144 -0.5594 -0.1197
  644MOL0     H86886  -0.242   8.637   7.299  0.2501 -0.4614  1.1796
  644MOL0     H86887  -0.315   8.927   7.258 -0.8894 -0.8679  0.1132
  644MOL0     H86888  -0.328   8.853   7.412 -1.3293 -2.0307  0.8178
  644MOL0     H86889  -0.440   8.719   7.168 -1.0494  0.0606 -0.2181
  644MOL0     H86890  -0.483   8.698   7.333  4.4632 -2.3609 -0.8958
  644MOL0     H86891  -0.748   8.767   7.294  0.5298 -0.3772  0.0660
  644MOL0     H86892  -0.953   8.952   7.302  2.1247 -0.2935  0.6921
  644MOL0     H86893  -0.906   9.118   7.279 -1.6740 -1.1905  4.6864
  644MOL0     H86894  -0.925   9.084   7.031 -1.1789  0.7472  0.3910
  644MOL0     H86895  -0.944   8.904   7.052 -2.4866  0.5301 -3.5312
  644MOL0     H86896  -1.142   9.027   7.002 -1.2755  1.2696  1.4470
  644MOL0     H86897  -1.133   9.127   7.146  2.6743  0.9024 -0.9036
  644MOL0     H86898  -1.128   8.830   7.175 -1.0220 -1.1186 -4.4785
  644MOL0     H86899  -1.275   8.880   7.116 -1.8619 -0.9409  1.8911
  644MOL0     H86900  -1.313   8.729   7.409 -2.0973 -2.6031  1.1330
  644MOL0     H86901  -1.534   8.645   7.414 -0.6828 -0.8891 -4.6817
  644MOL0     H86902  -2.019   8.861   7.166 -0.2719 -0.3829  0.4897
  644MOL0     H86903  -2.274   8.757   7.143 -0.5347 -4.0501 -0.0685
  644MOL0     H86904  -2.423   8.858   7.289  2.6212 -2.1189 -2.8175
  644MOL0     H86905  -2.555   8.746   7.231 -2.9289  2.5610  1.3900
  644MOL0     H86906  -2.641   8.726   7.454  1.0476 -1.9005 -2.8267
  644MOL0     H86907  -2.512   8.822   7.527 -0.8925  2.4325  0.5004
  644MOL0     H86908  -2.708   8.898   7.288  0.9993  2.6915 -1.7504
  644MOL0     H86909  -2.750   8.936   7.459  1.8127  2.1297  1.9024
  644MOL0     H86910  -2.504   9.057   7.325 -1.0325  0.7806 -1.9835
  644MOL0     H86911  -2.540   9.096   7.474  3.3828  0.2732 -3.0668
  644MOL0     H86912  -2.631   9.275   7.377  0.3303 -0.0522 -2.1662
  644MOL0     H86913  -2.784   9.188   7.402  0.0238 -0.0656  1.9754
  644MOL0     H86914  -2.701   9.290   7.158 -0.2016 -0.3155 -3.3005
  644MOL0     H86915  -2.630   9.131   7.158  0.1735 -1.0767  2.2973
  644MOL0     H86916  -2.918   9.221   7.151 -1.1233 -1.1644  4.1850
  644MOL0     H86917  -2.893   9.065   7.226 -2.0451  2.1565  2.2800
  644MOL0     H86918  -2.943   9.074   6.965  0.7164 -3.5163 -3.1926
  644MOL0     H86919  -2.784   9.166   6.950 -2.3646  0.6664 -2.2410
  644MOL0     H86920  -2.226   8.640   7.555  3.9038 -0.8756  1.1246
  644MOL0     H86921  -1.971   8.711   7.538  0.8359  2.6769  0.9627
  644MOL0     H86922  -1.686   9.027   7.299  1.1101  0.9526 -0.4379
  644MOL0     H86923  -1.467   9.113   7.269 -0.7192  1.4640  0.8348
  644MOL0     H86924   0.076   8.455   7.864 -0.2180  0.2318 -0.9113
  644MOL0     H86925   0.104   8.325   8.073 -3.4757  1.2118 -0.1016
  644MOL0     H86926   0.181   7.870   8.216  0.2311  0.0243 -1.6055
  644MOL0     H86927   0.258   7.699   8.382 -0.1247  0.2728  0.3881
  644MOL0     H86928   0.517   7.859   8.698  3.8854  2.0449  1.6433
  644MOL0     H86929   0.655   7.810   8.607 -0.9455  1.0440 -1.0770
  644MOL0     H86930   0.645   7.718   8.833  0.3989 -0.3374 -0.5023
  644MOL0     H86931   0.625   7.581   8.721 -0.8732 -0.5785 -0.4790
  644MOL0     H86932   0.391   7.572   8.783  1.6409  0.8890 -0.5795
  644MOL0     H86933   0.403   7.711   8.895 -0.1789 -2.4373  2.2797
  644MOL0     H86934   0.613   7.568   8.999 -2.1125  1.5369  2.0347
  644MOL0     H86935   0.446   7.524   9.040 -1.3757 -0.8273 -1.2394
  644MOL0     H86936   0.550   7.187   8.823  0.5460 -0.0203 -1.5351
  644MOL0     H86937   0.644   7.907   8.406 -0.5381  0.2921  3.2848
  644MOL0     H86938   0.586   8.175   8.201  1.3157 -0.5602  0.6880
  644MOL0     H86939   0.706   8.071   8.274  1.5987  1.5989 -1.0914
  644MOL0     H86940   0.659   8.036   8.114 -0.6968 -0.5591  0.1192
  645MOL0     O86941   8.844   5.709   6.203  0.4041  0.3074  0.4615
  645MOL0     C86942   8.758   5.772   6.136  1.0511 -0.8917 -0.3136
  645MOL0     O86943   8.670   5.858   6.199  0.4112 -1.0877 -0.7250
  645MOL0     C86944   8.666   5.871   6.337 -0.6926 -0.0797  0.5094
  645MOL0     C86945   8.546   5.922   6.396  0.4901 -0.6984  0.3489
  645MOL0     C86946   8.532   5.959   6.530 -0.8637 -0.2160 -0.3725
  645MOL0     C86947   8.646   5.940   6.615  0.0366 -0.5813 -0.1679
  645MOL0     O86948   8.668   5.971   6.746  0.5121 -0.0564  0.3317
  645MOL0     C86949   8.568   6.051   6.812  0.2669 -0.1244 -0.5146
  645MOL0     C86950   8.561   6.185   6.755 -0.3694 -0.4224  0.5432
  645MOL0     C86951   8.526   6.287   6.855  0.4212  0.0979 -0.2179
  645MOL0     C86952   8.630   6.397   6.874 -0.8831  0.0307 -0.2022
  645MOL0     C86953   8.655   6.452   7.013  0.2094  0.7890  0.6962
  645MOL0     C86954   8.524   6.521   7.066  0.0905 -0.0575 -0.1004
  645MOL0     C86955   8.497   6.475   7.208 -0.1489  0.3636 -0.8090
  645MOL0     C86956   8.601   6.526   7.311 -0.4311 -0.2998 -0.1992
  645MOL0     N86957   8.576   6.477   7.441 -0.6839  0.1875 -0.2193
  645MOL0     C86958   8.491   6.540   7.523 -0.0773 -0.2682  0.6096
  645MOL0     C86959   8.473   6.460   7.628  0.5690  0.3203  0.1198
  645MOL0     C86960   8.380   6.467   7.746 -0.2595  0.1794  0.7134
  645MOL0     C86961   8.222   6.463   7.723 -1.6010 -0.0932 -0.4534
  645MOL0     C86962   8.140   6.425   7.835  0.3900 -0.2115 -0.9346
  645MOL0     C86963   8.175   6.504   7.963 -0.6048  0.0654 -0.5824
  645MOL0     O86964   8.068   6.488   8.070 -0.0332  0.1541  0.7503
  645MOL0     C86965   7.963   6.578   8.087  1.3214  0.9614  0.4737
  645MOL0     C86966   7.896   6.581   8.205 -0.0286  0.3809  0.7384
  645MOL0     C86967   7.781   6.663   8.209 -0.3669  0.4134  0.9512
  645MOL0     C86968   7.727   6.739   8.106 -0.5590 -0.2080 -0.3713
  645MOL0     C86969   7.613   6.826   8.135  0.0909  0.7762 -0.3625
  645MOL0     O86970   7.566   6.904   8.031 -0.2159 -0.3436 -0.0848
  645MOL0     C86971   7.437   6.957   8.037 -0.5713 -0.0913  0.4856
  645MOL0     C86972   7.415   7.095   8.012 -0.6187  0.0002  0.0585
  645MOL0     C86973   7.286   7.144   8.006 -0.0755 -0.5928 -0.2010
  645MOL0     C86974   7.181   7.062   8.028  0.9521  0.6321  0.0271
  645MOL0     O86975   7.050   7.114   8.034 -0.6401 -0.4583 -0.3272
  645MOL0     C86976   7.040   7.254   8.082 -0.0148  0.2414 -0.4316
  645MOL0     C86977   6.920   7.284   8.165  0.6795 -1.2350  0.1120
  645MOL0     C86978   6.777   7.258   8.092 -0.4541  1.0210 -0.3075
  645MOL0     C86979   6.699   7.146   8.153 -0.8124 -0.6844  0.0210
  645MOL0     C86980   6.576   7.115   8.074 -0.8824  0.6919  0.6634
  645MOL0     C86981   6.500   7.007   8.155 -0.1220  0.2890 -0.0331
  645MOL0     C86982   6.385   7.068   8.237  0.0921  0.4112  0.2938
  645MOL0     C86983   6.282   6.955   8.287  0.1605 -0.1228 -0.2695
  645MOL0    Cl86984   6.196   6.889   8.141 -0.0245  0.1900  0.1222
  645MOL0     C86985   7.205   6.935   8.050 -0.4382 -1.0930  0.5125
  645MOL0     C86986   7.329   6.877   8.056 -0.7768  0.7415 -0.0173
  645MOL0     O86987   7.558   6.820   8.243 -1.3402 -0.0940  0.3909
  645MOL0     C86988   7.799   6.722   7.980  0.0187 -0.1073  0.0930
  645MOL0     C86989   7.912   6.643   7.974 -0.0367 -0.0194 -0.0911
  645MOL0     N86990   8.563   6.358   7.607 -0.5638 -0.3148  0.7819
  645MOL0     N86991   8.635   6.376   7.504  0.4509  0.0722  0.5761
  645MOL0     C86992   8.764   5.904   6.555  0.0387 -0.3277  1.1848
  645MOL0     C86993   8.781   5.865   6.418  0.0895 -0.2528  0.2872
  645MOL0     C86994   8.740   5.762   5.986  0.4984 -0.4299 -0.3824
  645MOL0     C86995   8.726   5.875   5.905  0.9686  0.0408  0.5920
  645MOL0     C86996   8.710   5.862   5.763  0.4804  0.4908  0.3221
  645MOL0     C86997   8.693   5.737   5.700 -0.2964 -0.3595 -0.3425
  645MOL0     O86998   8.672   5.704   5.564  0.0344 -0.6741 -0.0906
  645MOL0     C86999   8.736   5.780   5.465  0.3283 -0.1798 -0.9505
  645MOL0     C87000   8.838   5.684   5.414 -0.5686  0.7681  0.2401
  645MOL0     C87001   8.940   5.765   5.332 -0.2251  0.6613 -0.3993
  645MOL0     C87002   8.878   5.824   5.202 -0.5979  0.2510  0.4811
  645MOL0     C87003   8.818   5.721   5.115  0.1085  0.3757  0.4464
  645MOL0     C87004   8.790   5.642   5.023 -0.4177 -0.4503  0.4949
  645MOL0     C87005   8.709   5.620   5.784  0.1395 -0.4474  0.0470
  645MOL0     C87006   8.724   5.639   5.926  0.1622 -0.2436  0.3836
  645MOL0     C87007   8.721   5.516   6.011 -0.7550  0.1036  1.4363
  645MOL0     H87008   8.469   5.927   6.320  0.1002 -1.7857  0.6534
  645MOL0     H87009   8.435   5.998   6.559 -0.7670 -1.2505  1.5311
  645MOL0     H87010   8.465   6.013   6.811  0.2978 -0.2267 -0.0871
  645MOL0     H87011   8.604   6.053   6.915 -2.2173 -2.8287  0.5685
  645MOL0     H87012   8.482   6.184   6.680 -0.0903 -2.9049  0.1721
  645MOL0     H87013   8.651   6.215   6.701 -0.3576  3.2975  2.3610
  645MOL0     H87014   8.512   6.250   6.957 -1.7648  1.5618  0.0794
  645MOL0     H87015   8.425   6.328   6.845 -0.6232 -1.0569  3.7848
  645MOL0     H87016   8.725   6.366   6.830 -2.4185  0.2021 -3.9855
  645MOL0     H87017   8.602   6.481   6.811 -0.4057  0.0466 -0.3965
  645MOL0     H87018   8.677   6.368   7.078 -1.9320  0.3864  0.9606
  645MOL0     H87019   8.733   6.529   7.007 -0.2501  1.1641 -3.3917
  645MOL0     H87020   8.533   6.629   7.048 -1.9501  0.1418 -0.1912
  645MOL0     H87021   8.435   6.480   7.017 -0.3809  0.9852 -0.1660
  645MOL0     H87022   8.501   6.367   7.191  0.4138  0.1589  0.5312
  645MOL0     H87023   8.395   6.505   7.234  0.9006  2.4486  1.3104
  645MOL0     H87024   8.701   6.494   7.282 -1.5287 -5.0534  0.3534
  645MOL0     H87025   8.595   6.633   7.328  1.7418 -0.4487  2.0802
  645MOL0     H87026   8.437   6.634   7.513 -1.9966 -1.1174  2.2661
  645MOL0     H87027   8.405   6.387   7.816  1.5064  0.7154  0.7389
  645MOL0     H87028   8.394   6.553   7.811  0.8890 -0.1883  0.9793
  645MOL0     H87029   8.183   6.558   7.685 -2.6250 -0.5581 -0.6015
  645MOL0     H87030   8.203   6.389   7.644 -0.2031 -1.0188  0.0311
  645MOL0     H87031   8.130   6.319   7.860 -2.9487  0.2709  0.2721
  645MOL0     H87032   8.043   6.462   7.799  2.0902  4.2243 -1.7023
  645MOL0     H87033   8.188   6.610   7.941  0.5957 -0.1643 -1.1070
  645MOL0     H87034   8.265   6.470   8.014 -0.6380  2.7600  1.4581
  645MOL0     H87035   7.934   6.528   8.292  0.3338  0.4010  0.5961
  645MOL0     H87036   7.719   6.656   8.298  0.9750  0.0244  1.8839
  645MOL0     H87037   7.498   7.164   8.001 -1.4857  1.2496  1.0710
  645MOL0     H87038   7.271   7.251   7.998  3.2834 -0.0768 -0.8717
  645MOL0     H87039   7.127   7.276   8.145  1.3713 -2.7600 -1.1079
  645MOL0     H87040   7.049   7.321   7.996  1.7451 -0.0561 -0.5204
  645MOL0     H87041   6.921   7.220   8.254 -2.2928  0.6904  1.7283
  645MOL0     H87042   6.913   7.386   8.205 -2.5392 -1.1768 -0.2866
  645MOL0     H87043   6.723   7.352   8.111 -1.3506  0.0612  2.3708
  645MOL0     H87044   6.786   7.237   7.985 -1.2521  0.9534 -0.3659
  645MOL0     H87045   6.666   7.181   8.251 -1.1618 -0.4759 -0.1725
  645MOL0     H87046   6.775   7.067   8.157  1.4672  1.0634 -3.2171
  645MOL0     H87047   6.596   7.082   7.972 -1.8687  2.6083 -0.1839
  645MOL0     H87048   6.517   7.206   8.066 -0.1737  1.4973  3.4975
  645MOL0     H87049   6.464   6.928   8.088  0.5792 -1.7394  1.8771
  645MOL0     H87050   6.563   6.949   8.223  0.5184 -1.3947 -1.9571
  645MOL0     H87051   6.332   7.146   8.182 -0.1695 -0.0285 -0.0832
  645MOL0     H87052   6.425   7.117   8.326 -1.0324  1.9173  0.0024
  645MOL0     H87053   6.324   6.875   8.349  0.4477 -1.9818 -2.7122
  645MOL0     H87054   6.219   7.018   8.351  2.9711  1.6942  0.9218
  645MOL0     H87055   7.118   6.877   8.078 -3.3383  3.0764  1.1371
  645MOL0     H87056   7.341   6.778   8.097  1.8806  0.4836 -1.2216
  645MOL0     H87057   7.751   6.767   7.893  0.2382  0.8703  0.4637
  645MOL0     H87058   7.963   6.621   7.881 -0.6777 -4.6865  0.4025
  645MOL0     H87059   8.850   5.909   6.622  0.1728 -2.5474  1.2493
  645MOL0     H87060   8.878   5.825   6.393  0.6962  1.5356 -0.3326
  645MOL0     H87061   8.748   5.973   5.947  0.5016 -0.2695  1.5994
  645MOL0     H87062   8.727   5.946   5.696 -0.6403  0.3208 -0.2060
  645MOL0     H87063   8.786   5.866   5.511  2.6519 -1.0668 -1.6939
  645MOL0     H87064   8.675   5.818   5.382  2.0736  1.8588 -1.4001
  645MOL0     H87065   8.795   5.593   5.373 -2.3885  2.2240 -1.2263
  645MOL0     H87066   8.901   5.650   5.498  0.7225  0.1382 -0.9409
  645MOL0     H87067   9.022   5.696   5.312 -0.9398 -0.0047 -1.0975
  645MOL0     H87068   8.969   5.850   5.394 -1.5250 -0.2773  1.5866
  645MOL0     H87069   8.802   5.897   5.230  0.2212  0.4833  2.2053
  645MOL0     H87070   8.956   5.875   5.145 -1.3963  0.5835 -0.3435
  645MOL0     H87071   8.775   5.564   4.951  3.4052 -2.7523  1.9294
  645MOL0     H87072   8.693   5.522   5.740 -0.5214  0.6572 -2.3086
  645MOL0     H87073   8.816   5.465   6.028 -1.0351  0.4321  4.6923
  645MOL0     H87074   8.677   5.548   6.106  0.0230  1.8564  1.2423
  645MOL0     H87075   8.658   5.444   5.958  2.3765 -2.3295  0.7327
  646MOL0     O87076   7.832  10.647   1.514 -0.2739  0.3404  0.1187
  646MOL0     C87077   7.819  10.582   1.618 -0.2724 -0.4478  0.2535
  646MOL0     O87078   7.923  10.540   1.698  0.5062 -0.3610 -0.6461
  646MOL0     C87079   8.060  10.574   1.666  0.1622  0.0947  0.1554
  646MOL0     C87080   8.103  10.708   1.625 -1.0547  0.3769 -0.5744
  646MOL0     C87081   8.238  10.735   1.595  0.0600 -0.7572 -0.2797
  646MOL0     C87082   8.328  10.629   1.614 -1.4490  0.0122 -0.8287
  646MOL0     O87083   8.467  10.659   1.616  0.4767  0.2857 -0.2073
  646MOL0     C87084   8.520  10.760   1.532 -0.2500  0.2780 -0.0628
  646MOL0     C87085   8.639  10.716   1.442 -0.2077 -0.2466  0.5275
  646MOL0     C87086   8.772  10.681   1.517 -0.3520  0.1466 -0.4082
  646MOL0     C87087   8.861  10.593   1.438 -0.1763 -0.0733  0.8111
  646MOL0     C87088   8.991  10.556   1.498  0.0926 -0.9957  0.3146
  646MOL0     C87089   9.081  10.677   1.518 -0.5858  0.2874 -0.1486
  646MOL0     C87090   9.222  10.644   1.568 -0.6282 -0.1619  0.2644
  646MOL0     C87091   9.227  10.578   1.708  0.3320  0.1002 -0.5314
  646MOL0     N87092   9.364  10.590   1.770  0.2777  0.9543  0.3963
  646MOL0     C87093   9.406  10.676   1.857  0.5185 -1.5316 -1.1016
  646MOL0     C87094   9.518  10.616   1.914 -0.0939 -0.7613 -0.3274
  646MOL0     C87095   9.575  10.660   2.045 -0.5079 -0.2084  0.5640
  646MOL0     C87096   9.719  10.704   2.043 -0.2912 -0.3403  0.7438
  646MOL0     C87097   9.747  10.827   1.947 -0.0057  0.4748  0.0794
  646MOL0     C87098   9.670  10.961   1.973  0.0427  0.5262 -0.4049
  646MOL0     O87099   9.706  11.060   1.881 -0.0206 -0.7627 -0.1889
  646MOL0     C87100   9.799  11.152   1.910  0.3946 -0.2122 -0.3170
  646MOL0     C87101   9.805  11.271   1.844  0.0685 -0.1502 -0.5662
  646MOL0     C87102   9.893  11.373   1.899 -0.3379  0.6217 -0.1792
  646MOL0     C87103   9.980  11.350   2.005 -0.8480 -0.7383 -0.2516
  646MOL0     C87104  10.065  11.458   2.059 -0.2196 -0.1850  0.4907
  646MOL0     O87105  10.070  11.573   1.989  0.4212 -0.4209 -0.3745
  646MOL0     C87106  10.161  11.680   2.021  1.3549 -0.5734  0.3591
  646MOL0     C87107  10.200  11.719   2.146 -1.2035  0.2792 -0.1078
  646MOL0     C87108  10.290  11.825   2.164 -0.0167  0.1738 -0.4793
  646MOL0     C87109  10.346  11.889   2.050 -0.7295 -0.7461  0.0131
  646MOL0     O87110  10.437  11.994   2.058 -0.2531 -0.1004  0.1947
  646MOL0     C87111  10.474  12.053   2.181 -0.3201 -0.9487 -0.5756
  646MOL0     C87112  10.486  12.205   2.156  0.5965 -0.4235 -0.1442
  646MOL0     C87113  10.603  12.236   2.062  0.2466 -0.2279 -0.9105
  646MOL0     C87114  10.612  12.396   2.054  0.3482  0.2712  0.0987
  646MOL0     C87115  10.717  12.457   1.963  0.4868 -0.4478  0.0352
  646MOL0     C87116  10.861  12.405   1.989 -0.6470  0.0850 -0.8098
  646MOL0     C87117  10.904  12.278   1.906 -0.3978 -0.0474  0.7778
  646MOL0     C87118  11.056  12.260   1.915 -0.1226 -0.2630 -0.7883
  646MOL0    Cl87119  11.080  12.136   2.036 -0.0857 -0.4576 -0.0958
  646MOL0     C87120  10.309  11.846   1.923 -0.1034  0.1457 -0.7793
  646MOL0     C87121  10.216  11.745   1.909 -0.7522 -0.0992  0.3852
  646MOL0     O87122  10.138  11.433   2.155 -0.4013 -0.2791 -0.6100
  646MOL0     C87123   9.981  11.230   2.067  0.6956  0.1021  0.1961
  646MOL0     C87124   9.886  11.130   2.020  0.3818 -0.4373  0.2556
  646MOL0     N87125   9.550  10.503   1.843  0.2695  0.2400  0.3256
  646MOL0     N87126   9.458  10.490   1.751 -0.7189 -1.2168  0.1625
  646MOL0     C87127   8.284  10.504   1.658 -0.6101  0.5116  0.1486
  646MOL0     C87128   8.156  10.475   1.676  0.6174 -0.1485 -0.2796
  646MOL0     C87129   7.686  10.531   1.631 -0.3155  0.2016  0.2654
  646MOL0     C87130   7.632  10.434   1.549  0.3682  0.5495 -1.5895
  646MOL0     C87131   7.496  10.405   1.574  0.0541  0.4152  0.8824
  646MOL0     C87132   7.411  10.469   1.670 -0.2679  0.4336  0.6661
  646MOL0     O87133   7.275  10.444   1.668  0.0090  0.0638 -0.6871
  646MOL0     C87134   7.216  10.345   1.586  1.0587  0.7937 -0.6785
  646MOL0     C87135   7.081  10.397   1.526 -0.8459 -1.1727  0.6965
  646MOL0     C87136   7.104  10.471   1.386 -1.2662 -0.0353  0.2324
  646MOL0     C87137   7.198  10.595   1.364  0.2996 -0.2067 -0.6109
  646MOL0     C87138   7.154  10.683   1.252  0.2747  0.5601  0.1974
  646MOL0     C87139   7.123  10.750   1.155 -0.2162  0.3422 -0.1648
  646MOL0     C87140   7.473  10.562   1.750 -0.5264 -0.6617  0.2244
  646MOL0     C87141   7.603  10.603   1.720  0.7335 -0.1461  0.7898
  646MOL0     C87142   7.664  10.719   1.799  0.6545  0.5241  0.0858
  646MOL0     H87143   8.023  10.780   1.616 -2.4279 -0.9136  0.7156
  646MOL0     H87144   8.276  10.834   1.572  0.4184 -0.4701  1.4402
  646MOL0     H87145   8.443  10.802   1.468 -1.8309 -1.2550  0.7545
  646MOL0     H87146   8.565  10.837   1.596  1.4950  1.5226 -2.6307
  646MOL0     H87147   8.656  10.801   1.375 -0.5945  1.8904  2.9548
  646MOL0     H87148   8.613  10.633   1.376 -3.5381  1.2458 -0.2338
  646MOL0     H87149   8.747  10.630   1.611 -1.3658  1.7282  0.2215
  646MOL0     H87150   8.825  10.775   1.536  1.2239 -0.8230  0.1399
  646MOL0     H87151   8.815  10.494   1.435  0.6595 -0.4370 -0.6727
  646MOL0     H87152   8.864  10.640   1.339  2.9631 -0.4132  0.6653
  646MOL0     H87153   8.984  10.500   1.592  4.3256  1.3444  2.3244
  646MOL0     H87154   9.037  10.481   1.434 -3.3814 -3.3659  0.3299
  646MOL0     H87155   9.089  10.742   1.431 -1.2499  2.6093  1.4456
  646MOL0     H87156   9.033  10.742   1.592 -2.1945 -1.7246  0.6866
  646MOL0     H87157   9.271  10.742   1.573  0.8611 -0.8965  0.5445
  646MOL0     H87158   9.269  10.583   1.490 -0.1260  0.0690  0.3817
  646MOL0     H87159   9.145  10.621   1.765 -0.0844 -0.8768 -0.3860
  646MOL0     H87160   9.191  10.475   1.703 -1.7096  0.6421  1.4404
  646MOL0     H87161   9.346  10.756   1.900  2.0441 -1.4854  1.1152
  646MOL0     H87162   9.511  10.740   2.086  0.4949  1.7473 -1.4627
  646MOL0     H87163   9.574  10.585   2.125  3.1530  1.3007  2.2787
  646MOL0     H87164   9.760  10.734   2.140 -0.6417  1.9985  0.2039
  646MOL0     H87165   9.781  10.621   2.007  0.2722 -1.0296  3.0726
  646MOL0     H87166   9.721  10.791   1.847 -1.8072 -0.9332  1.0079
  646MOL0     H87167   9.856  10.840   1.951 -0.1888  3.4392 -1.6836
  646MOL0     H87168   9.672  10.988   2.079  1.6938  0.4746 -0.3913
  646MOL0     H87169   9.568  10.934   1.944  0.0106 -0.5562  0.6326
  646MOL0     H87170   9.732  11.278   1.764 -0.4896  0.4607 -0.0197
  646MOL0     H87171   9.902  11.472   1.854 -0.3599  1.3109  1.2889
  646MOL0     H87172  10.155  11.668   2.231 -0.4258  1.6847  1.1969
  646MOL0     H87173  10.329  11.832   2.266 -0.7061 -4.3287  0.3000
  646MOL0     H87174  10.410  12.023   2.265  0.8586  1.0696  1.1132
  646MOL0     H87175  10.564  12.006   2.221  1.1304 -1.0237 -3.5990
  646MOL0     H87176  10.395  12.254   2.120  0.4967  1.8405  2.7904
  646MOL0     H87177  10.516  12.247   2.253 -0.4227 -0.6639  0.2853
  646MOL0     H87178  10.698  12.203   2.104 -0.2395  1.8968  2.2223
  646MOL0     H87179  10.594  12.191   1.963 -1.3054 -2.9726  0.3635
  646MOL0     H87180  10.628  12.428   2.157  2.8002  0.2123 -0.2118
  646MOL0     H87181  10.515  12.436   2.024  0.3590 -0.1323 -0.4744
  646MOL0     H87182  10.711  12.566   1.969 -2.6725 -0.5497  0.6624
  646MOL0     H87183  10.690  12.432   1.860 -2.0105  3.2218 -0.3891
  646MOL0     H87184  10.924  12.490   1.961  0.8106 -1.2103 -1.6362
  646MOL0     H87185  10.884  12.381   2.093 -2.5846 -2.0241 -0.7773
  646MOL0     H87186  10.870  12.297   1.804 -4.0871  0.4337  1.9548
  646MOL0     H87187  10.854  12.185   1.934 -4.8508  2.5280  2.4112
  646MOL0     H87188  11.092  12.226   1.818  2.3321  0.0684 -0.0861
  646MOL0     H87189  11.105  12.356   1.934  0.7491 -0.9010  0.3426
  646MOL0     H87190  10.341  11.893   1.830  2.5106  0.3172  0.0997
  646MOL0     H87191  10.168  11.725   1.813  0.6351  1.7483 -0.7579
  646MOL0     H87192  10.037  11.205   2.157  0.6435  0.8203  0.4320
  646MOL0     H87193   9.876  11.035   2.071  1.3007  0.2024  1.7130
  646MOL0     H87194   8.368  10.445   1.693 -1.3180  0.0331  1.0683
  646MOL0     H87195   8.131  10.377   1.717 -2.3397 -1.3355 -4.2483
  646MOL0     H87196   7.702  10.383   1.482 -0.3639 -1.5667 -0.8300
  646MOL0     H87197   7.460  10.323   1.513  3.3367 -0.7247  0.2454
  646MOL0     H87198   7.201  10.255   1.647 -0.7740  0.8945 -0.9131
  646MOL0     H87199   7.266  10.314   1.495 -0.2333  0.2827 -1.2450
  646MOL0     H87200   7.029  10.471   1.587 -4.4966 -0.4656 -2.8367
  646MOL0     H87201   7.013  10.312   1.521 -4.7074  1.4984  2.7653
  646MOL0     H87202   7.010  10.519   1.356 -1.9199 -2.3621 -1.7170
  646MOL0     H87203   7.138  10.400   1.311  0.8687  2.5372 -1.4449
  646MOL0     H87204   7.203  10.659   1.453  2.0514  1.5043 -1.8636
  646MOL0     H87205   7.296  10.549   1.354  0.1162 -0.7383 -0.0578
  646MOL0     H87206   7.084  10.801   1.069 -1.7640 -0.8981 -0.2403
  646MOL0     H87207   7.410  10.609   1.825  2.1588  1.1575  1.4842
  646MOL0     H87208   7.735  10.778   1.740 -0.2832  0.2704 -1.3551
  646MOL0     H87209   7.579  10.781   1.827  0.9109  1.5200 -1.2523
  646MOL0     H87210   7.713  10.682   1.890  0.5732  2.8695  1.1379
  647MOL0     O87211   0.996  10.038   4.625 -0.3156  0.0549 -0.1179
  647MOL0     C87212   1.070   9.972   4.698 -0.4086  0.4578 -0.2778
  647MOL0     O87213   1.050   9.945   4.831  0.4275  0.3859  0.6152
  647MOL0     C87214   0.987  10.049   4.897  0.0034  0.8052 -0.8006
  647MOL0     C87215   1.013  10.187   4.862  0.6539  0.1291 -0.1178
  647MOL0     C87216   0.930  10.292   4.918  0.1781 -1.3592 -0.4656
  647MOL0     C87217   0.822  10.251   5.003 -1.0242  0.4920  0.3211
  647MOL0     O87218   0.730  10.341   5.051 -0.4349 -0.9019 -0.4920
  647MOL0     C87219   0.598  10.339   4.982  0.2599 -0.8790 -0.2763
  647MOL0     C87220   0.522  10.464   5.016 -0.2075 -0.3521  0.7530
  647MOL0     C87221   0.604  10.567   5.099  0.2458  0.3102  0.1606
  647MOL0     C87222   0.514  10.678   5.139 -0.7071 -0.1760  0.4341
  647MOL0     C87223   0.429  10.644   5.257  0.4895 -0.9312 -0.5735
  647MOL0     C87224   0.361  10.761   5.330  0.0293 -0.7366  0.1943
  647MOL0     C87225   0.251  10.721   5.433 -0.7974 -0.3585 -0.4137
  647MOL0     C87226   0.209  10.851   5.509  0.1783 -0.4188 -0.0772
  647MOL0     N87227   0.124  10.929   5.418  0.9700  0.1980  0.3301
  647MOL0     C87228  -0.013  10.920   5.404  0.6564  0.0423  0.0931
  647MOL0     C87229  -0.049  11.039   5.340  0.5368 -0.1359 -0.6243
  647MOL0     C87230  -0.190  11.088   5.293  0.7219 -0.1660 -0.9404
  647MOL0     C87231  -0.248  11.198   5.384  0.1076  0.4993  0.2812
  647MOL0     C87232  -0.362  11.266   5.296 -0.2979  0.5711 -0.8590
  647MOL0     C87233  -0.431  11.373   5.369  0.9435  1.2864  0.3023
  647MOL0     O87234  -0.344  11.484   5.396 -0.0988 -0.1066 -0.6107
  647MOL0     C87235  -0.390  11.611   5.401 -0.4526 -0.8116 -0.6161
  647MOL0     C87236  -0.290  11.708   5.390 -0.1204 -0.0513  0.6987
  647MOL0     C87237  -0.320  11.844   5.407  0.0998 -0.4225 -0.0745
  647MOL0     C87238  -0.452  11.889   5.414 -0.3677 -0.2834 -0.0931
  647MOL0     C87239  -0.480  12.029   5.432  0.1074 -1.0422  0.1989
  647MOL0     O87240  -0.605  12.066   5.421 -0.4649 -0.7648 -0.4600
  647MOL0     C87241  -0.634  12.206   5.411 -0.0619  0.5165 -0.5598
  647MOL0     C87242  -0.693  12.264   5.521 -0.2871 -0.0917  1.2513
  647MOL0     C87243  -0.708  12.407   5.529  0.5435  0.5579  0.3845
  647MOL0     C87244  -0.683  12.492   5.417  0.2719  1.1627 -1.2733
  647MOL0     O87245  -0.716  12.627   5.415 -0.6504 -0.2170 -0.1150
  647MOL0     C87246  -0.617  12.723   5.367  0.5765  1.0298  0.2075
  647MOL0     C87247  -0.670  12.860   5.392  0.2915 -0.0537 -0.0918
  647MOL0     C87248  -0.568  12.971   5.351  0.2951  0.6045  0.2001
  647MOL0     C87249  -0.603  13.119   5.380  0.2194  0.0481 -0.2251
  647MOL0     C87250  -0.544  13.161   5.513  0.1291  0.1948  0.3833
  647MOL0     C87251  -0.553  13.316   5.522  0.0130 -0.1643  0.0635
  647MOL0     C87252  -0.498  13.370   5.663  0.7015 -0.4062  1.3043
  647MOL0     C87253  -0.467  13.524   5.676  0.3303  0.1246  0.8616
  647MOL0    Cl87254  -0.338  13.579   5.545 -0.1228  0.7389 -0.0535
  647MOL0     C87255  -0.624  12.429   5.313 -0.5197  0.1366  0.1622
  647MOL0     C87256  -0.594  12.293   5.313 -0.3802 -0.2000  0.5142
  647MOL0     O87257  -0.383  12.105   5.430  1.2371  0.1848  0.4886
  647MOL0     C87258  -0.557  11.781   5.415 -0.4203 -0.0508 -0.9265
  647MOL0     C87259  -0.526  11.650   5.403 -0.2366 -0.4858  0.5570
  647MOL0     N87260   0.065  11.115   5.327 -0.4982  0.5297  0.7899
  647MOL0     N87261   0.163  11.044   5.368 -0.3991  0.5700  0.4708
  647MOL0     C87262   0.811  10.116   5.042  0.9478 -0.2809  0.4573
  647MOL0     C87263   0.891  10.016   4.992  0.1175  0.0823 -0.6349
  647MOL0     C87264   1.177   9.893   4.630  0.2564  0.2322 -1.3097
  647MOL0     C87265   1.140   9.803   4.533  1.1287 -0.6388  0.0112
  647MOL0     C87266   1.242   9.730   4.473 -0.8211 -0.0628  0.4184
  647MOL0     C87267   1.378   9.734   4.513 -0.3533 -0.3740 -1.8493
  647MOL0     O87268   1.474   9.681   4.425  0.5102 -0.4855 -0.3972
  647MOL0     C87269   1.615   9.670   4.457 -0.2376 -0.2480  0.1786
  647MOL0     C87270   1.674   9.568   4.366 -0.5614  0.7746 -0.2936
  647MOL0     C87271   1.689   9.597   4.216 -0.1984 -0.1286  0.0561
  647MOL0     C87272   1.803   9.694   4.191 -0.4154 -0.2431  0.4948
  647MOL0     C87273   1.930   9.627   4.215 -0.0697 -0.1023  0.6576
  647MOL0     C87274   2.029   9.564   4.240 -0.7681  0.6807  0.8519
  647MOL0     C87275   1.414   9.832   4.612 -0.5679  0.1467  0.1011
  647MOL0     C87276   1.311   9.909   4.676  0.3351  0.7531  0.2975
  647MOL0     C87277   1.357   9.999   4.789 -0.4296  0.4929  0.5897
  647MOL0     H87278   1.095  10.207   4.794 -1.1024 -0.2934 -2.5156
  647MOL0     H87279   0.945  10.399   4.913  2.6918 -1.5258  1.7554
  647MOL0     H87280   0.625  10.336   4.876  0.5464  2.3389 -0.3834
  647MOL0     H87281   0.541  10.252   5.015  1.7971 -1.8650 -0.1186
  647MOL0     H87282   0.430  10.438   5.069  1.2937 -2.5588  2.4892
  647MOL0     H87283   0.486  10.509   4.923  1.1353 -2.7507 -1.0495
  647MOL0     H87284   0.686  10.604   5.036 -0.9700 -0.4288 -1.9360
  647MOL0     H87285   0.635  10.522   5.194  0.5380 -2.0879 -1.0077
  647MOL0     H87286   0.577  10.767   5.147 -2.4203  1.0848  0.2850
  647MOL0     H87287   0.450  10.708   5.056 -1.8874  0.4883  1.5336
  647MOL0     H87288   0.364  10.558   5.239 -2.3878  0.7228  1.1228
  647MOL0     H87289   0.501  10.611   5.332 -0.3621 -2.6787 -0.4730
  647MOL0     H87290   0.442  10.813   5.382  0.1642 -1.8230  1.1244
  647MOL0     H87291   0.308  10.818   5.254  1.5398 -1.9147 -1.8212
  647MOL0     H87292   0.297  10.644   5.494  2.9800  1.0528 -1.1979
  647MOL0     H87293   0.162  10.677   5.387 -0.5003  0.0140 -1.3933
  647MOL0     H87294   0.164  10.813   5.601  0.3914  0.4732  0.4140
  647MOL0     H87295   0.300  10.903   5.539  1.5666 -3.6676  1.7810
  647MOL0     H87296  -0.069  10.838   5.447  1.1853  0.3868  1.4939
  647MOL0     H87297  -0.157  11.131   5.198  1.7193 -0.1558 -0.5964
  647MOL0     H87298  -0.257  11.002   5.286  0.9225 -0.3903 -0.1432
  647MOL0     H87299  -0.286  11.153   5.476  2.3375  1.1078  1.5640
  647MOL0     H87300  -0.173  11.272   5.412 -0.1883  1.4725 -1.3111
  647MOL0     H87301  -0.437  11.189   5.273  0.2666  0.5764 -2.9616
  647MOL0     H87302  -0.326  11.307   5.201 -2.0601 -0.3743 -1.9929
  647MOL0     H87303  -0.480  11.342   5.461  2.4624 -0.4516  0.5735
  647MOL0     H87304  -0.516  11.407   5.309 -1.6552 -1.9039  1.8626
  647MOL0     H87305  -0.190  11.665   5.388 -1.2670 -3.0152  1.3193
  647MOL0     H87306  -0.237  11.914   5.405 -1.5236  1.6978 -3.7103
  647MOL0     H87307  -0.733  12.200   5.599 -0.6418  0.0780  1.2144
  647MOL0     H87308  -0.743  12.453   5.621  3.8171 -2.3416  3.3690
  647MOL0     H87309  -0.518  12.719   5.414  0.6937  0.6812 -0.0674
  647MOL0     H87310  -0.609  12.717   5.258 -1.4416  0.3857  0.0526
  647MOL0     H87311  -0.766  12.869   5.341  0.6621 -0.6638 -0.9141
  647MOL0     H87312  -0.688  12.868   5.500  0.3989 -1.1622  0.0199
  647MOL0     H87313  -0.467  12.959   5.392 -0.3965 -1.6667  1.3862
  647MOL0     H87314  -0.562  12.964   5.242  3.8878 -3.3525  0.3722
  647MOL0     H87315  -0.712  13.134   5.374  0.1911  0.0992  0.3114
  647MOL0     H87316  -0.562  13.176   5.297 -1.6573  1.1312 -0.4655
  647MOL0     H87317  -0.439  13.133   5.506 -0.2988 -1.0804 -1.4239
  647MOL0     H87318  -0.601  13.105   5.588 -0.2589 -0.4861 -0.4147
  647MOL0     H87319  -0.490  13.361   5.445 -2.3297  1.3366 -1.1291
  647MOL0     H87320  -0.655  13.350   5.499  0.5713  0.2053 -2.1056
  647MOL0     H87321  -0.405  13.322   5.695  0.1227 -1.8552  0.8756
  647MOL0     H87322  -0.571  13.350   5.742 -0.7932  0.0508  0.0879
  647MOL0     H87323  -0.563  13.577   5.678  0.0153 -0.4490  1.4981
  647MOL0     H87324  -0.428  13.548   5.775 -1.7405  3.3801  1.0209
  647MOL0     H87325  -0.586  12.492   5.234  3.0045 -0.0420  1.5172
  647MOL0     H87326  -0.533  12.254   5.232  0.8793  2.1082  0.2365
  647MOL0     H87327  -0.663  11.807   5.415 -0.2648  0.6897  0.2990
  647MOL0     H87328  -0.610  11.582   5.394 -0.3902 -0.3589  1.0259
  647MOL0     H87329   0.728  10.102   5.111  0.5872  2.4004  0.6554
  647MOL0     H87330   0.889   9.916   5.034  2.2145  0.8996  1.6432
  647MOL0     H87331   1.044   9.795   4.483  1.8549 -3.4118 -1.1228
  647MOL0     H87332   1.203   9.676   4.386  0.0738  1.5751 -1.0704
  647MOL0     H87333   1.624   9.626   4.557  1.4951 -0.9011 -0.2380
  647MOL0     H87334   1.654   9.770   4.436 -1.1565 -0.2043 -1.4961
  647MOL0     H87335   1.604   9.486   4.385 -0.2822  1.0867  2.4947
  647MOL0     H87336   1.770   9.528   4.401  0.3499  1.8315 -1.5041
  647MOL0     H87337   1.601   9.650   4.178  1.6564  1.9291 -1.6549
  647MOL0     H87338   1.690   9.499   4.168 -0.2999 -0.5138  0.8240
  647MOL0     H87339   1.807   9.709   4.082  0.7881  1.5986  0.7457
  647MOL0     H87340   1.802   9.792   4.240  2.0780  0.0797 -0.0047
  647MOL0     H87341   2.123   9.514   4.248 -1.3746 -0.4495  1.1759
  647MOL0     H87342   1.522   9.836   4.628 -0.9067  2.2969  2.5737
  647MOL0     H87343   1.322  10.102   4.776  2.1405  1.2145 -1.7927
  647MOL0     H87344   1.315   9.955   4.879  0.9413  1.3520  1.6960
  647MOL0     H87345   1.466   9.986   4.797 -0.6052  0.2942  4.5659
  648MOL0     O87346   9.015   1.477   8.498  0.2228  0.4327 -0.4423
  648MOL0     C87347   8.975   1.590   8.516  0.7820 -0.2421 -0.3896
  648MOL0     O87348   9.048   1.715   8.510 -0.6907  0.2616 -0.3721
  648MOL0     C87349   9.183   1.711   8.525 -0.3099 -0.4895  0.5509
  648MOL0     C87350   9.244   1.820   8.460 -0.0959  0.1295 -0.1216
  648MOL0     C87351   9.382   1.820   8.455 -0.0070  0.5314  0.4039
  648MOL0     C87352   9.462   1.719   8.508  0.0768  0.1577 -0.2842
  648MOL0     O87353   9.589   1.723   8.496  0.6543  0.1694  0.1322
  648MOL0     C87354   9.645   1.747   8.366  0.3422  0.5869 -0.1720
  648MOL0     C87355   9.790   1.717   8.382 -0.2811  0.2519 -0.7024
  648MOL0     C87356   9.887   1.815   8.452 -0.0437 -1.0904 -0.4457
  648MOL0     C87357   9.899   1.951   8.370 -0.5048  0.9124 -0.1198
  648MOL0     C87358   9.955   2.068   8.450 -0.0815 -0.3422  0.7257
  648MOL0     C87359  10.103   2.049   8.485 -0.0141  0.0126  1.5125
  648MOL0     C87360  10.158   2.175   8.550 -0.4039  0.2330  0.9421
  648MOL0     C87361  10.302   2.148   8.600  0.2132 -0.3802  0.5884
  648MOL0     N87362  10.370   2.276   8.636 -0.3972 -0.8248  0.2435
  648MOL0     C87363  10.351   2.346   8.754  0.0246  0.4541 -0.1020
  648MOL0     C87364  10.431   2.452   8.740 -0.2734  0.2894 -0.1040
  648MOL0     C87365  10.416   2.577   8.828  0.0829 -0.6746  0.1721
  648MOL0     C87366  10.533   2.594   8.927 -0.6764 -0.7253 -0.7842
  648MOL0     C87367  10.519   2.652   9.067  0.7327  0.0376 -0.4394
  648MOL0     C87368  10.450   2.788   9.076 -0.2028 -0.2731  0.1204
  648MOL0     O87369  10.442   2.827   9.211  0.0490 -0.2005  0.4398
  648MOL0     C87370  10.427   2.961   9.246  0.3404  0.4571  0.2752
  648MOL0     C87371  10.403   3.068   9.156 -0.0568  0.4713 -0.5318
  648MOL0     C87372  10.386   3.194   9.205  0.0721 -0.5509 -0.4024
  648MOL0     C87373  10.392   3.223   9.338  0.7800 -0.4555 -0.5648
  648MOL0     C87374  10.381   3.369   9.381 -0.5593  0.9719  0.3442
  648MOL0     O87375  10.335   3.393   9.506  0.0868 -0.4047 -0.9257
  648MOL0     C87376  10.300   3.518   9.550  0.1131 -0.2733 -0.2553
  648MOL0     C87377  10.289   3.640   9.480  0.0015 -0.5087 -0.5056
  648MOL0     C87378  10.264   3.758   9.554 -0.5039  0.4346 -0.2597
  648MOL0     C87379  10.235   3.756   9.693 -0.0273 -0.9521 -0.2475
  648MOL0     O87380  10.213   3.881   9.752 -0.5318 -0.3969  0.2407
  648MOL0     C87381  10.182   3.889   9.892 -0.3703 -0.4196 -0.5144
  648MOL0     C87382  10.115   4.031   9.918 -0.4235 -0.8323 -0.8265
  648MOL0     C87383  10.192   4.144   9.849 -0.0358  0.7229 -0.6435
  648MOL0     C87384  10.328   4.179   9.912  0.3145 -0.8119  0.4243
  648MOL0     C87385  10.378   4.312   9.844 -0.6626  0.1713 -0.9582
  648MOL0     C87386  10.495   4.372   9.911 -0.1209  1.2458 -0.7682
  648MOL0     C87387  10.562   4.475   9.834 -0.3335  0.4818 -0.0348
  648MOL0     C87388  10.643   4.427   9.709  0.3131 -0.1827  0.6136
  648MOL0    Cl87389  10.634   4.536   9.565 -0.1292  0.0619 -0.3162
  648MOL0     C87390  10.236   3.631   9.755 -0.1847 -0.5538 -0.4498
  648MOL0     C87391  10.258   3.515   9.684 -0.2947 -0.3112  0.1992
  648MOL0     O87392  10.418   3.446   9.296  0.6974 -0.1438  0.0405
  648MOL0     C87393  10.412   3.120   9.427  0.9426  0.4176  0.4327
  648MOL0     C87394  10.433   2.989   9.382  0.5711 -0.0446  0.7655
  648MOL0     N87395  10.496   2.451   8.621 -0.4817 -0.3552 -0.0794
  648MOL0     N87396  10.468   2.336   8.562 -0.2938  0.0542  0.3839
  648MOL0     C87397   9.393   1.618   8.580 -0.1994 -0.0810  0.6278
  648MOL0     C87398   9.254   1.618   8.598  0.1182  0.0539 -0.4382
  648MOL0     C87399   8.826   1.593   8.546 -0.2075  0.9139 -0.7438
  648MOL0     C87400   8.750   1.494   8.475 -0.1975 -0.3845 -0.2947
  648MOL0     C87401   8.614   1.492   8.477 -0.0335  0.5082 -0.5065
  648MOL0     C87402   8.544   1.578   8.553 -0.2732 -0.1297  0.7623
  648MOL0     O87403   8.411   1.566   8.544 -0.1379 -0.7775  0.4861
  648MOL0     C87404   8.351   1.643   8.435  0.4147  0.1026 -0.0757
  648MOL0     C87405   8.198   1.639   8.459  0.4195 -0.1498  0.2410
  648MOL0     C87406   8.143   1.493   8.434 -0.4431  0.0056  0.2495
  648MOL0     C87407   7.991   1.492   8.396 -0.2235 -0.0427 -0.2602
  648MOL0     C87408   7.922   1.543   8.519 -0.6456  0.1056  0.4477
  648MOL0     C87409   7.864   1.572   8.620  0.3645  0.1018 -1.0356
  648MOL0     C87410   8.609   1.667   8.637  0.1582 -0.0976  0.4732
  648MOL0     C87411   8.750   1.674   8.630 -1.1642  0.1350  0.7656
  648MOL0     C87412   8.821   1.761   8.719  0.3877  0.1890 -0.1376
  648MOL0     H87413   9.190   1.901   8.411  0.0465 -0.8535 -1.9477
  648MOL0     H87414   9.427   1.905   8.405 -1.1862 -0.4912 -2.6541
  648MOL0     H87415   9.606   1.683   8.286 -1.1841 -1.0587  1.7597
  648MOL0     H87416   9.621   1.848   8.332  2.1907  0.9414 -0.5624
  648MOL0     H87417   9.832   1.703   8.282 -1.4890  0.5442 -1.2694
  648MOL0     H87418   9.788   1.622   8.436  0.9023  0.4138 -0.3428
  648MOL0     H87419   9.986   1.767   8.451 -0.0740 -1.2151  0.8500
  648MOL0     H87420   9.858   1.841   8.555  0.7232  0.8193 -0.6680
  648MOL0     H87421   9.968   1.940   8.286 -1.2491  0.0525 -0.6349
  648MOL0     H87422   9.803   1.972   8.322 -0.3959 -2.8820 -2.3330
  648MOL0     H87423   9.963   2.159   8.389  2.0876 -0.8838  0.1397
  648MOL0     H87424   9.893   2.083   8.538 -2.3061 -0.6530 -0.6975
  648MOL0     H87425  10.108   1.966   8.556 -1.9079 -2.7126 -1.2629
  648MOL0     H87426  10.162   2.014   8.400 -2.2348  0.1572 -0.1938
  648MOL0     H87427  10.092   2.197   8.635 -1.7020 -0.6799  0.1880
  648MOL0     H87428  10.149   2.258   8.479 -2.9827 -0.3684  0.4714
  648MOL0     H87429  10.289   2.075   8.681  4.9386 -2.4432 -0.2132
  648MOL0     H87430  10.353   2.103   8.515 -4.8028 -1.3697 -2.3163
  648MOL0     H87431  10.277   2.324   8.830 -0.2741 -2.8402 -1.2103
  648MOL0     H87432  10.401   2.662   8.761  1.2690 -1.8179 -1.6154
  648MOL0     H87433  10.322   2.546   8.874 -0.4583  0.4059 -0.1641
  648MOL0     H87434  10.578   2.495   8.942  2.5309  0.9187  1.8479
  648MOL0     H87435  10.607   2.656   8.875 -0.3669  0.5059  1.0169
  648MOL0     H87436  10.618   2.679   9.106  0.7250  0.4217 -0.6813
  648MOL0     H87437  10.479   2.573   9.131  1.0824  1.8531  2.2194
  648MOL0     H87438  10.356   2.808   9.023  0.3659  4.8628  0.5309
  648MOL0     H87439  10.512   2.855   9.015 -1.7071  3.8249  2.6570
  648MOL0     H87440  10.366   3.046   9.057  0.7215  0.9409 -0.9316
  648MOL0     H87441  10.346   3.268   9.137 -1.5916 -0.2064  0.8845
  648MOL0     H87442  10.311   3.654   9.375  0.0819 -0.5983 -0.5007
  648MOL0     H87443  10.255   3.853   9.502 -3.5404 -0.1770 -1.0699
  648MOL0     H87444  10.107   3.819   9.929 -0.5190 -0.0092 -0.0289
  648MOL0     H87445  10.275   3.880   9.949 -0.8168 -2.6296 -0.0576
  648MOL0     H87446  10.011   4.026   9.884 -0.1549 -0.4255 -1.7422
  648MOL0     H87447  10.095   4.061  10.021  1.6771 -3.0400  0.3296
  648MOL0     H87448  10.198   4.119   9.742  1.1572 -0.0951 -0.4092
  648MOL0     H87449  10.127   4.230   9.870  0.8396  1.1401  0.4580
  648MOL0     H87450  10.392   4.097   9.878 -0.7279 -1.4594 -0.0703
  648MOL0     H87451  10.323   4.183  10.021 -0.4167 -1.9232  0.4566
  648MOL0     H87452  10.303   4.391   9.831  0.6906  1.7376  0.2539
  648MOL0     H87453  10.417   4.291   9.744  2.4214  1.9481 -0.2767
  648MOL0     H87454  10.467   4.411  10.010 -1.1228  1.2084 -1.0269
  648MOL0     H87455  10.563   4.290   9.937 -0.4185  0.9369 -0.9593
  648MOL0     H87456  10.627   4.530   9.902  0.8525 -2.3767  1.3316
  648MOL0     H87457  10.486   4.546   9.799  3.2687  4.0185 -1.3934
  648MOL0     H87458  10.749   4.409   9.731  0.4470 -0.0520  0.1102
  648MOL0     H87459  10.616   4.329   9.668 -1.7808  0.7858 -0.4626
  648MOL0     H87460  10.216   3.620   9.861  3.1286  1.3170  0.4932
  648MOL0     H87461  10.253   3.428   9.748  1.8883  0.6568  1.8089
  648MOL0     H87462  10.425   3.136   9.533  2.2078 -2.5933  0.8361
  648MOL0     H87463  10.463   2.910   9.450  1.4671 -1.9969 -1.7268
  648MOL0     H87464   9.444   1.536   8.630 -0.4178  0.6116  2.0480
  648MOL0     H87465   9.202   1.550   8.665 -0.3546  2.3761  1.6987
  648MOL0     H87466   8.791   1.425   8.402  1.8801  0.9422 -0.4506
  648MOL0     H87467   8.565   1.414   8.420 -0.1300  1.0560 -1.1837
  648MOL0     H87468   8.368   1.607   8.333 -0.2730 -0.9324  0.1541
  648MOL0     H87469   8.390   1.745   8.437 -0.2426  0.5288 -3.4490
  648MOL0     H87470   8.161   1.712   8.386  1.1991  0.6884  0.6716
  648MOL0     H87471   8.168   1.676   8.558  1.4605  1.7322 -0.0901
  648MOL0     H87472   8.157   1.429   8.521 -2.1202 -0.2097  0.3949
  648MOL0     H87473   8.193   1.446   8.349  0.4990 -1.5210  1.5786
  648MOL0     H87474   7.975   1.566   8.317  0.0952 -0.3181 -0.5840
  648MOL0     H87475   7.955   1.396   8.360 -4.1040  1.1935 -0.1218
  648MOL0     H87476   7.803   1.596   8.705 -0.0626 -1.7575 -0.7760
  648MOL0     H87477   8.547   1.727   8.703  0.5054  1.2316 -0.3457
  648MOL0     H87478   8.748   1.783   8.798 -0.0523  0.0277 -0.4905
  648MOL0     H87479   8.906   1.705   8.758  1.8435  1.0761 -1.8701
  648MOL0     H87480   8.850   1.862   8.688 -2.9747  1.2318 -0.3566
  649MOL0     O87481   0.553   2.406  10.366 -0.0265  0.6072 -0.2475
  649MOL0     C87482   0.477   2.410  10.263 -1.2109 -0.3900 -0.2283
  649MOL0     O87483   0.417   2.515  10.223  0.2516 -0.6271 -0.3468
  649MOL0     C87484   0.435   2.630  10.295  0.4702  0.0096 -0.7495
  649MOL0     C87485   0.554   2.705  10.295 -0.1205 -0.6445  0.6282
  649MOL0     C87486   0.577   2.815  10.372  0.0835  1.1286 -0.4226
  649MOL0     C87487   0.486   2.856  10.464  0.5724 -0.1016 -0.4048
  649MOL0     O87488   0.500   2.961  10.556 -0.0818  0.2498 -0.5984
  649MOL0     C87489   0.620   3.039  10.559 -2.1177  0.8795  0.9472
  649MOL0     C87490   0.574   3.184  10.607 -0.4555  0.1752 -0.3528
  649MOL0     C87491   0.517   3.188  10.752 -0.6097  0.9143  0.8324
  649MOL0     C87492   0.477   3.329  10.800  0.5936 -0.5608 -0.1037
  649MOL0     C87493   0.519   3.371  10.946 -0.8396  0.1559 -0.3330
  649MOL0     C87494   0.460   3.293  11.050  0.3449 -0.2193 -0.3741
  649MOL0     C87495   0.484   3.349  11.189  1.6160  0.7946 -0.0734
  649MOL0     C87496   0.631   3.341  11.234 -0.2478  0.4315 -0.1958
  649MOL0     N87497   0.714   3.222  11.208  0.3452  1.2719 -0.9505
  649MOL0     C87498   0.813   3.230  11.110  0.2679 -0.0110  0.6492
  649MOL0     C87499   0.893   3.127  11.145 -0.4074 -0.4561  0.6148
  649MOL0     C87500   1.008   3.064  11.071 -0.0879 -0.1493  0.5147
  649MOL0     C87501   1.109   3.174  11.043 -0.3497 -0.7880  0.5278
  649MOL0     C87502   1.236   3.108  10.981 -0.7544 -0.2588  0.3771
  649MOL0     C87503   1.335   3.214  10.928 -0.3337  0.2108  0.0657
  649MOL0     O87504   1.454   3.149  10.874  0.2696 -0.3657  0.7745
  649MOL0     C87505   1.452   3.075  10.757  0.7340  0.0049 -0.4227
  649MOL0     C87506   1.356   3.099  10.658  0.0648  0.4124  0.8378
  649MOL0     C87507   1.361   3.019  10.534 -0.2161 -0.8430 -0.2295
  649MOL0     C87508   1.446   2.909  10.531  0.4325 -0.5030  0.8516
  649MOL0     C87509   1.461   2.822  10.405  0.6175  0.1483 -0.6272
  649MOL0     O87510   1.390   2.845  10.289 -0.5230 -0.4242 -0.3723
  649MOL0     C87511   1.419   2.750  10.191 -0.6384 -0.0822 -0.1957
  649MOL0     C87512   1.479   2.787  10.069 -0.3022  0.4614 -0.4872
  649MOL0     C87513   1.504   2.697   9.969  0.3095 -0.7355  1.0113
  649MOL0     C87514   1.473   2.564   9.982  0.3816 -0.5786  0.0390
  649MOL0     O87515   1.512   2.461   9.899  0.9407 -0.3515  0.6254
  649MOL0     C87516   1.516   2.508   9.757 -0.2224 -0.6430  1.2720
  649MOL0     C87517   1.669   2.527   9.725  1.5223 -0.5496  1.0253
  649MOL0     C87518   1.740   2.395   9.724 -0.3107 -0.3320 -0.5923
  649MOL0     C87519   1.882   2.412   9.766  0.2816 -0.5581 -0.8888
  649MOL0     C87520   1.965   2.282   9.748  0.1541  0.0583  0.3755
  649MOL0     C87521   2.108   2.283   9.781 -0.1480  0.2423 -0.5413
  649MOL0     C87522   2.177   2.149   9.769  0.6383  1.3509  0.2489
  649MOL0     C87523   2.126   2.035   9.867 -0.0157 -0.3798  0.4083
  649MOL0    Cl87524   2.152   2.108  10.034 -0.4797  0.1640 -0.1146
  649MOL0     C87525   1.411   2.532  10.104 -0.0063 -0.0730 -1.0360
  649MOL0     C87526   1.380   2.621  10.212 -1.1296  0.0314 -0.1534
  649MOL0     O87527   1.550   2.741  10.420  0.3664 -0.3331  0.4688
  649MOL0     C87528   1.523   2.884  10.649 -0.1061 -0.6215 -0.4695
  649MOL0     C87529   1.522   2.963  10.762 -0.1900  0.2636 -0.5956
  649MOL0     N87530   0.836   3.050  11.250  0.6560 -0.1632  0.5547
  649MOL0     N87531   0.727   3.103  11.281  0.8015 -0.2615 -0.2439
  649MOL0     C87532   0.360   2.789  10.457  0.9018 -0.0632  0.2856
  649MOL0     C87533   0.331   2.684  10.370  0.4806 -0.3646 -0.3728
  649MOL0     C87534   0.478   2.294  10.177 -0.0086  0.6292 -0.3554
  649MOL0     C87535   0.447   2.314  10.043  0.5356 -0.7443 -0.1216
  649MOL0     C87536   0.438   2.208   9.949 -0.8079  0.5643 -0.0558
  649MOL0     C87537   0.458   2.080   9.996  1.3329 -0.4344  0.2641
  649MOL0     O87538   0.479   1.978   9.910  0.2579  0.1699  0.2620
  649MOL0     C87539   0.365   1.889   9.888  0.0971  0.0985  0.6870
  649MOL0     C87540   0.274   1.862  10.005 -0.2963  1.1905 -0.6874
  649MOL0     C87541   0.157   1.773   9.963  0.7338 -0.1156  0.8116
  649MOL0     C87542   0.210   1.642   9.905  0.0308 -0.0294  0.6460
  649MOL0     C87543   0.214   1.625   9.756 -0.0776  0.1097  1.2110
  649MOL0     C87544   0.193   1.613   9.635  1.1266 -0.5350 -0.2433
  649MOL0     C87545   0.499   2.057  10.130  0.3715  0.1933 -0.6178
  649MOL0     C87546   0.496   2.163  10.223 -0.4856 -0.2098  0.5776
  649MOL0     C87547   0.520   2.129  10.365  0.1184  0.2292  0.2680
  649MOL0     H87548   0.626   2.670  10.223 -1.0492 -5.4706  1.6453
  649MOL0     H87549   0.672   2.867  10.372  1.1760 -0.7803 -0.1431
  649MOL0     H87550   0.705   2.984  10.600 -1.3702  2.0716  1.0441
  649MOL0     H87551   0.656   3.049  10.456 -0.3684 -1.4815  1.2370
  649MOL0     H87552   0.486   3.208  10.547 -1.0937  0.2697  0.5912
  649MOL0     H87553   0.658   3.254  10.602 -0.4423  0.3176  1.2825
  649MOL0     H87554   0.590   3.145  10.821 -1.1347 -0.1308  0.7504
  649MOL0     H87555   0.431   3.121  10.760  2.3646 -3.6023 -0.8100
  649MOL0     H87556   0.530   3.410  10.749  1.4891 -0.3864  1.0619
  649MOL0     H87557   0.370   3.339  10.778  0.5997  0.4388  0.2589
  649MOL0     H87558   0.628   3.363  10.946 -0.9597 -1.9746 -0.1419
  649MOL0     H87559   0.497   3.475  10.972  1.7267  0.4786  0.8403
  649MOL0     H87560   0.351   3.283  11.047  0.3141 -0.4716  0.8265
  649MOL0     H87561   0.490   3.187  11.050 -0.6171 -0.5178  0.7353
  649MOL0     H87562   0.425   3.288  11.258 -2.0000  0.9166 -2.7816
  649MOL0     H87563   0.438   3.449  11.189  1.6833  0.8248 -0.3633
  649MOL0     H87564   0.681   3.431  11.197  0.7724 -0.5235 -1.2205
  649MOL0     H87565   0.636   3.339  11.343 -3.9080 -0.6231  0.0945
  649MOL0     H87566   0.805   3.293  11.022 -2.3587  0.2411  0.9918
  649MOL0     H87567   1.051   2.976  11.121  0.1135 -1.3667 -1.6758
  649MOL0     H87568   0.970   3.013  10.983  0.3575  0.4719 -0.0450
  649MOL0     H87569   1.060   3.242  10.972 -2.4580 -0.4383  2.2272
  649MOL0     H87570   1.127   3.233  11.133 -0.3497 -2.3147  1.5701
  649MOL0     H87571   1.212   3.036  10.902  1.6184 -0.8786  0.1618
  649MOL0     H87572   1.283   3.053  11.063 -2.9515  3.2812  4.4321
  649MOL0     H87573   1.378   3.266  11.014 -0.0356  0.6626 -0.3475
  649MOL0     H87574   1.280   3.282  10.862 -1.0572  0.4970  0.9409
  649MOL0     H87575   1.293   3.187  10.653 -2.1133 -1.1333 -1.3987
  649MOL0     H87576   1.287   3.039  10.457 -0.1055 -2.0363 -0.6668
  649MOL0     H87577   1.504   2.892  10.056 -2.8378  1.2847  0.6529
  649MOL0     H87578   1.548   2.734   9.877 -1.3153  0.4692  0.6801
  649MOL0     H87579   1.466   2.437   9.690  0.6050  1.0552 -1.3187
  649MOL0     H87580   1.484   2.610   9.732 -0.1808 -0.0168  3.5512
  649MOL0     H87581   1.694   2.572   9.628  3.0209  1.3849  2.2250
  649MOL0     H87582   1.704   2.595   9.803 -1.9203  0.5842  1.7323
  649MOL0     H87583   1.688   2.329   9.793 -0.4431  4.0154  4.0879
  649MOL0     H87584   1.755   2.358   9.622  0.4598 -1.0932 -0.2111
  649MOL0     H87585   1.897   2.465   9.860 -0.3128  0.4888 -1.3661
  649MOL0     H87586   1.930   2.486   9.701 -1.6179  3.1564  1.5342
  649MOL0     H87587   1.942   2.254   9.644  1.5149 -1.1801  0.3768
  649MOL0     H87588   1.923   2.208   9.817  2.0675  1.3753  3.1256
  649MOL0     H87589   2.168   2.352   9.720  0.1665  0.8044  0.3871
  649MOL0     H87590   2.107   2.327   9.881  0.9557  2.7679 -1.5286
  649MOL0     H87591   2.286   2.152   9.781  0.4730  0.2039  2.6197
  649MOL0     H87592   2.152   2.109   9.671 -0.0859  0.9892  0.5762
  649MOL0     H87593   2.023   2.004   9.851  0.7749 -1.8792 -2.6038
  649MOL0     H87594   2.176   1.940   9.843 -1.8552 -1.0432 -0.9921
  649MOL0     H87595   1.403   2.426  10.128 -0.6887 -0.0179 -1.0086
  649MOL0     H87596   1.342   2.590  10.308 -1.2097 -2.2816 -0.8844
  649MOL0     H87597   1.593   2.801  10.647 -1.7596 -2.2310  2.6089
  649MOL0     H87598   1.584   2.944  10.849 -2.0088 -3.2798  0.1121
  649MOL0     H87599   0.286   2.821  10.530  0.4216 -0.6214  0.0468
  649MOL0     H87600   0.230   2.646  10.366 -1.1102  3.0600  2.1151
  649MOL0     H87601   0.437   2.412   9.998 -0.4874 -1.8661 -2.5326
  649MOL0     H87602   0.419   2.224   9.844 -0.7955  0.5945 -0.0535
  649MOL0     H87603   0.410   1.798   9.846 -0.5841 -0.2512  0.7096
  649MOL0     H87604   0.308   1.933   9.806 -0.5774  2.5626  2.3893
  649MOL0     H87605   0.219   1.955  10.025 -1.0389  0.8355 -1.0290
  649MOL0     H87606   0.330   1.826  10.092 -1.1381 -0.2889 -0.7097
  649MOL0     H87607   0.098   1.816   9.881 -0.6389  0.5245  2.0777
  649MOL0     H87608   0.090   1.751  10.046 -1.0450 -0.3922 -0.6226
  649MOL0     H87609   0.312   1.626   9.941  1.0074  2.4295 -0.7787
  649MOL0     H87610   0.143   1.565   9.946  1.6120 -3.1202 -2.0831
  649MOL0     H87611   0.175   1.595   9.531 -5.1187 -1.5558  0.6257
  649MOL0     H87612   0.541   1.960  10.152 -3.1596 -1.8035 -1.7671
  649MOL0     H87613   0.435   2.172  10.418  0.7251  0.9183  0.6996
  649MOL0     H87614   0.517   2.021  10.384  1.8595  0.0044 -0.5841
  649MOL0     H87615   0.612   2.167  10.412 -1.1167  1.2563  1.9912
  650MOL0     O87616   3.512  10.812  10.076 -0.1488 -0.3906 -0.0444
  650MOL0     C87617   3.524  10.873  10.186  1.1889  0.3183 -0.1230
  650MOL0     O87618   3.434  10.940  10.245  0.6975 -0.6854  0.3539
  650MOL0     C87619   3.305  10.944  10.204 -0.2904  0.3629  0.4209
  650MOL0     C87620   3.216  10.902  10.298 -0.2113 -0.3241 -0.5058
  650MOL0     C87621   3.078  10.903  10.258 -0.2914 -0.5956 -0.3353
  650MOL0     C87622   3.043  10.970  10.147  1.6427  0.1538 -0.8841
  650MOL0     O87623   2.914  10.974  10.098  0.4742  0.3364  0.2533
  650MOL0     C87624   2.799  10.916  10.157  0.9331 -0.5483 -0.7754
  650MOL0     C87625   2.685  10.936  10.060 -0.2396 -0.1326 -0.0871
  650MOL0     C87626   2.668  11.088  10.017 -0.6138 -0.3157 -0.0394
  650MOL0     C87627   2.546  11.105   9.925 -0.0223  0.0051 -0.3641
  650MOL0     C87628   2.539  11.239   9.856  0.8276 -0.0084 -0.0613
  650MOL0     C87629   2.532  11.366   9.940 -0.2643 -0.0326 -0.0275
  650MOL0     C87630   2.531  11.493   9.859  0.3063  1.4770 -0.1201
  650MOL0     C87631   2.672  11.528   9.821  0.5002 -0.2860  0.2119
  650MOL0     N87632   2.648  11.647   9.745 -0.0653 -0.4209 -0.9260
  650MOL0     C87633   2.624  11.668   9.615  0.8164 -0.1723 -0.7592
  650MOL0     C87634   2.600  11.801   9.603 -0.4301 -0.4624  1.0533
  650MOL0     C87635   2.578  11.875   9.474  0.8557  0.1953 -0.1878
  650MOL0     C87636   2.684  11.980   9.458  0.8296 -0.5455  0.3887
  650MOL0     C87637   2.668  12.080   9.340  0.4698 -0.4090 -0.1395
  650MOL0     C87638   2.786  12.186   9.332 -0.3544 -1.1882 -0.9979
  650MOL0     O87639   2.768  12.300   9.242 -1.1449  0.1251 -0.1445
  650MOL0     C87640   2.746  12.253   9.116 -0.8236  0.9893  0.0432
  650MOL0     C87641   2.826  12.166   9.040 -0.1630  0.5723 -0.8690
  650MOL0     C87642   2.814  12.154   8.898 -0.5754  0.4630 -0.4510
  650MOL0     C87643   2.705  12.218   8.842  0.2401 -0.0621 -0.7448
  650MOL0     C87644   2.672  12.214   8.693  0.0998  0.4234 -0.8443
  650MOL0     O87645   2.565  12.276   8.654 -0.3767 -0.2829  0.6874
  650MOL0     C87646   2.522  12.254   8.523 -0.9059 -0.1705 -0.3536
  650MOL0     C87647   2.602  12.245   8.405  0.2830  0.1497  0.4186
  650MOL0     C87648   2.529  12.217   8.285 -0.5549  0.2947  0.2613
  650MOL0     C87649   2.397  12.189   8.287  0.0682 -0.5072  0.4523
  650MOL0     O87650   2.347  12.168   8.160  0.5469 -0.0136 -0.1607
  650MOL0     C87651   2.237  12.082   8.156  0.7427  0.2974 -0.0423
  650MOL0     C87652   2.194  12.072   8.003  0.4414 -0.5376  0.8415
  650MOL0     C87653   2.289  12.020   7.894  0.1924 -0.9865  0.4245
  650MOL0     C87654   2.323  11.879   7.916  0.3751 -0.2917 -0.2367
  650MOL0     C87655   2.440  11.824   7.828  0.1326  0.2321 -0.2044
  650MOL0     C87656   2.471  11.670   7.831 -0.8011  0.0818  0.7031
  650MOL0     C87657   2.590  11.641   7.736 -0.7141 -0.2303 -0.7788
  650MOL0     C87658   2.629  11.494   7.747 -0.4070  0.0320  0.7713
  650MOL0    Cl87659   2.668  11.434   7.908 -0.4320  0.2605 -0.1400
  650MOL0     C87660   2.325  12.192   8.404  0.6946 -0.2156 -0.1704
  650MOL0     C87661   2.392  12.229   8.517 -0.0506 -0.3839 -0.0719
  650MOL0     O87662   2.758  12.161   8.624  0.0799  1.2621 -0.1187
  650MOL0     C87663   2.614  12.283   8.925 -0.3276 -0.1754  0.5344
  650MOL0     C87664   2.639  12.306   9.060  0.3078  0.1589  0.2223
  650MOL0     N87665   2.617  11.856   9.729 -0.0658 -0.3898 -0.3905
  650MOL0     N87666   2.650  11.768   9.808  0.2052 -0.4440 -0.5582
  650MOL0     C87667   3.131  11.019  10.056  0.7516 -0.4727 -0.4941
  650MOL0     C87668   3.266  11.013  10.087 -0.5363 -0.1683  0.7391
  650MOL0     C87669   3.662  10.888  10.244  0.4137  0.9258  0.5245
  650MOL0     C87670   3.674  10.889  10.389 -1.1723 -0.3291  0.1313
  650MOL0     C87671   3.804  10.888  10.445 -0.6080  0.1449 -0.1429
  650MOL0     C87672   3.919  10.902  10.362 -0.3284 -0.5915  0.2300
  650MOL0     O87673   4.051  10.908  10.401  0.3554 -0.5730 -0.5141
  650MOL0     C87674   4.085  10.829  10.519  0.0053 -0.0599  0.1546
  650MOL0     C87675   4.233  10.797  10.514  0.0124  0.7535  0.0183
  650MOL0     C87676   4.279  10.752  10.651  0.1494 -0.9460  0.1502
  650MOL0     C87677   4.273  10.608  10.683  0.1643 -0.1149 -0.8013
  650MOL0     C87678   4.373  10.538  10.612 -0.0577 -0.1666  0.3860
  650MOL0     C87679   4.479  10.498  10.558  0.8197  0.0140  0.2194
  650MOL0     C87680   3.898  10.911  10.227  0.8866  1.1032  0.4813
  650MOL0     C87681   3.774  10.901  10.162  0.2415 -0.1295 -0.0109
  650MOL0     C87682   3.779  10.901  10.007  0.6675  0.0007  0.2133
  650MOL0     H87683   3.241  10.852  10.391  2.3882  0.9066 -0.4547
  650MOL0     H87684   3.006  10.848  10.317  1.3078 -3.3708 -0.8283
  650MOL0     H87685   2.816  10.813  10.190  2.2952  0.0504  0.5809
  650MOL0     H87686   2.783  10.973  10.249  2.1917 -1.1174 -0.1703
  650MOL0     H87687   2.587  10.904  10.096 -0.4395 -1.8601 -1.9692
  650MOL0     H87688   2.702  10.868   9.976  1.8255  3.6875 -3.0441
  650MOL0     H87689   2.750  11.126   9.956 -0.6234  0.5719  0.4793
  650MOL0     H87690   2.661  11.142  10.112 -2.6547 -0.2421 -0.1993
  650MOL0     H87691   2.538  11.030   9.846  1.3100 -0.9233  0.3353
  650MOL0     H87692   2.454  11.095   9.984  1.3598 -0.1808  1.8688
  650MOL0     H87693   2.620  11.247   9.782 -0.6472 -0.3898 -1.7867
  650MOL0     H87694   2.444  11.241   9.802 -1.0903 -0.9277  3.0758
  650MOL0     H87695   2.441  11.356   9.999 -1.0082  3.6006 -0.2943
  650MOL0     H87696   2.623  11.371  10.000 -0.0386  1.7785 -0.4637
  650MOL0     H87697   2.482  11.569   9.921 -1.1116 -0.9371  1.9006
  650MOL0     H87698   2.466  11.461   9.777  0.9817 -0.5922  0.1122
  650MOL0     H87699   2.723  11.551   9.915 -0.1805 -3.1028  1.3610
  650MOL0     H87700   2.731  11.453   9.767 -2.0209 -0.6619 -2.3138
  650MOL0     H87701   2.618  11.588   9.542 -1.6201  0.0835 -0.9313
  650MOL0     H87702   2.600  11.798   9.399 -0.2397 -1.6333  1.2765
  650MOL0     H87703   2.473  11.901   9.457  1.2488 -0.2430 -4.3719
  650MOL0     H87704   2.697  12.046   9.544  1.7700  2.6650 -2.0323
  650MOL0     H87705   2.775  11.919   9.454  2.7044  2.1348 -2.2169
  650MOL0     H87706   2.567  12.120   9.349  0.1419 -1.1681 -0.4076
  650MOL0     H87707   2.661  12.016   9.251  0.9727 -1.4321  0.5381
  650MOL0     H87708   2.880  12.135   9.308 -1.0434 -2.8873 -0.2474
  650MOL0     H87709   2.809  12.222   9.432  4.3125 -0.2810 -2.1404
  650MOL0     H87710   2.908  12.120   9.094  0.1928  0.7128 -1.2804
  650MOL0     H87711   2.891  12.107   8.838 -1.1117 -0.5864 -0.3555
  650MOL0     H87712   2.710  12.246   8.410  0.5575  1.9073 -2.8324
  650MOL0     H87713   2.596  12.200   8.201 -0.8507 -2.2328  0.4654
  650MOL0     H87714   2.259  11.985   8.201  3.8703  1.3652  1.0009
  650MOL0     H87715   2.150  12.132   8.198  0.3710 -1.6605  1.6771
  650MOL0     H87716   2.107  12.005   8.005 -0.1917  0.1249 -1.2785
  650MOL0     H87717   2.153  12.166   7.966 -1.0185 -1.9008 -1.2922
  650MOL0     H87718   2.239  12.034   7.798 -1.2437 -2.9768  0.8090
  650MOL0     H87719   2.380  12.081   7.893  0.1299 -0.8183 -2.1986
  650MOL0     H87720   2.237  11.812   7.901  1.8457 -1.6633 -3.6903
  650MOL0     H87721   2.349  11.869   8.022 -0.4072 -1.2436 -0.1152
  650MOL0     H87722   2.527  11.881   7.860  0.5426 -0.0625 -0.7750
  650MOL0     H87723   2.415  11.862   7.728 -3.4158  1.1293  0.8574
  650MOL0     H87724   2.503  11.645   7.933  1.8521  1.6910  0.3902
  650MOL0     H87725   2.380  11.612   7.814  0.1670 -1.4481  0.5477
  650MOL0     H87726   2.674  11.700   7.771  0.5593 -1.6998 -1.2314
  650MOL0     H87727   2.563  11.670   7.634  1.7262 -0.9414 -1.6901
  650MOL0     H87728   2.551  11.434   7.700 -1.3828  0.2641  2.0509
  650MOL0     H87729   2.719  11.487   7.684  1.5305 -0.5553  3.4423
  650MOL0     H87730   2.217  12.185   8.399  0.5634  1.8245 -0.7784
  650MOL0     H87731   2.333  12.254   8.605 -1.0997  1.5174 -1.2436
  650MOL0     H87732   2.531  12.333   8.877 -0.1176 -0.9450 -0.6786
  650MOL0     H87733   2.570  12.364   9.122 -1.5996 -0.7952 -0.9135
  650MOL0     H87734   3.102  11.067   9.963 -0.4180  0.2551  0.2274
  650MOL0     H87735   3.333  11.071  10.025 -1.9411  0.5878 -0.1335
  650MOL0     H87736   3.586  10.891  10.452 -0.5216  0.7874  1.0395
  650MOL0     H87737   3.822  10.904  10.551  1.9789  3.7392 -0.9596
  650MOL0     H87738   4.028  10.736  10.518 -4.4799  2.3882  1.6356
  650MOL0     H87739   4.049  10.881  10.608 -1.6244  1.1999 -1.1912
  650MOL0     H87740   4.298  10.881  10.489 -1.9325  2.8462  1.5114
  650MOL0     H87741   4.243  10.727  10.430 -2.8037  1.3938 -0.9666
  650MOL0     H87742   4.230  10.815  10.725 -3.6276 -0.7991 -2.2075
  650MOL0     H87743   4.384  10.782  10.659 -0.4737  2.0881 -1.3203
  650MOL0     H87744   4.302  10.591  10.787 -2.2252 -2.7139 -0.4510
  650MOL0     H87745   4.168  10.582  10.667 -0.5819  2.0760  0.1476
  650MOL0     H87746   4.575  10.468  10.519  1.5767 -0.4279  2.2656
  650MOL0     H87747   3.995  10.922  10.179  0.5754  1.3605 -0.0977
  650MOL0     H87748   3.716  10.980   9.964 -0.1863 -2.1792 -2.9341
  650MOL0     H87749   3.881  10.925   9.977  1.3010  0.1665  2.3090
  650MOL0     H87750   3.752  10.804   9.965 -0.7816 -0.6977  2.5175
  651MOL0     O87751   0.973   0.605   6.250 -0.0080 -0.0854  0.0190
  651MOL0     C87752   0.959   0.705   6.178  0.3747  0.0518  0.2173
  651MOL0     O87753   0.982   0.830   6.223 -0.1807  0.1663  0.0024
  651MOL0     C87754   0.999   0.861   6.364  0.5858 -0.1138  0.1867
  651MOL0     C87755   0.957   0.990   6.392  0.1605 -0.2424 -0.2689
  651MOL0     C87756   0.962   1.033   6.521  0.0179 -0.7091  0.3288
  651MOL0     C87757   1.022   0.958   6.620 -0.6672  0.3606 -0.3987
  651MOL0     O87758   1.026   1.008   6.750 -0.2693 -0.3118 -0.1476
  651MOL0     C87759   1.143   0.961   6.821  0.3484  0.2569 -0.2069
  651MOL0     C87760   1.159   1.058   6.948  0.8409 -0.5965 -0.5270
  651MOL0     C87761   1.284   1.045   7.037 -0.1656 -0.1108  0.4187
  651MOL0     C87762   1.319   0.897   7.064  0.2854 -0.4715 -0.7524
  651MOL0     C87763   1.448   0.858   6.992  1.0256 -0.2182  0.0058
  651MOL0     C87764   1.482   0.710   7.017 -0.3131 -0.0435  0.2263
  651MOL0     C87765   1.627   0.674   6.955 -0.8005  0.4821 -0.6276
  651MOL0     C87766   1.620   0.603   6.824  1.4313 -0.5062  0.1067
  651MOL0     N87767   1.542   0.678   6.721  0.1542 -0.0809  0.1542
  651MOL0     C87768   1.577   0.774   6.627 -0.7226 -0.5693 -0.4184
  651MOL0     C87769   1.470   0.782   6.550  0.9538  1.4294 -0.2866
  651MOL0     C87770   1.461   0.877   6.441  0.4280 -0.2999 -0.0634
  651MOL0     C87771   1.407   1.013   6.493  0.0484 -0.2703  0.3157
  651MOL0     C87772   1.401   1.111   6.380  0.2326 -0.6998  0.5927
  651MOL0     C87773   1.308   1.068   6.268 -0.0375 -0.1023 -0.5387
  651MOL0     O87774   1.318   1.165   6.159  0.1350 -0.2613 -0.0199
  651MOL0     C87775   1.285   1.135   6.030 -1.0432  0.5867 -0.4827
  651MOL0     C87776   1.238   1.011   5.994 -0.5962  0.2726 -0.2351
  651MOL0     C87777   1.239   0.977   5.856 -0.4488 -1.1420  1.1316
  651MOL0     C87778   1.285   1.067   5.751  0.4340  0.5743  0.1137
  651MOL0     C87779   1.275   1.016   5.615  0.7482  0.0187 -1.1976
  651MOL0     O87780   1.343   1.091   5.519 -0.2113  0.3294  0.6054
  651MOL0     C87781   1.276   1.095   5.392  0.4574  1.6585 -0.6596
  651MOL0     C87782   1.257   0.973   5.320 -0.3848 -0.3447 -0.6390
  651MOL0     C87783   1.187   0.975   5.195  0.1003  0.1366  0.6244
  651MOL0     C87784   1.134   1.097   5.152 -0.3232  0.2810 -0.2479
  651MOL0     O87785   1.057   1.108   5.037 -0.1247 -0.0377 -0.3825
  651MOL0     C87786   1.102   1.033   4.929  0.0840 -0.0078  0.5025
  651MOL0     C87787   1.074   1.099   4.788 -0.1976 -0.2848  0.1328
  651MOL0     C87788   1.098   1.004   4.668 -0.1228  0.8099 -0.0337
  651MOL0     C87789   1.074   1.070   4.532 -0.5686  0.1257  0.5375
  651MOL0     C87790   1.084   0.968   4.415  0.4945 -0.2320  0.8195
  651MOL0     C87791   1.065   1.042   4.283 -0.6724 -0.4346  0.6143
  651MOL0     C87792   1.064   0.937   4.156 -0.8010 -0.6464 -0.2236
  651MOL0     C87793   1.207   0.918   4.096  0.3954  0.4940 -0.5813
  651MOL0    Cl87794   1.222   0.822   3.937  0.4803  0.3041 -0.2384
  651MOL0     C87795   1.161   1.216   5.228 -0.8371  0.1152 -0.3813
  651MOL0     C87796   1.229   1.216   5.344  0.4175 -0.1376 -0.5062
  651MOL0     O87797   1.211   0.913   5.603 -0.2099 -0.0915  0.3621
  651MOL0     C87798   1.324   1.189   5.794 -0.2112  0.1650  0.8012
  651MOL0     C87799   1.337   1.218   5.933  0.6059  0.7907 -0.7953
  651MOL0     N87800   1.371   0.688   6.595 -0.4761 -0.9265 -0.2269
  651MOL0     N87801   1.420   0.627   6.694  0.8127  0.9922 -0.4134
  651MOL0     C87802   1.080   0.837   6.592 -0.1318  0.3779 -0.1405
  651MOL0     C87803   1.057   0.788   6.464 -0.4077  0.0444 -0.2892
  651MOL0     C87804   0.911   0.691   6.049 -0.2563  0.3286  0.5294
  651MOL0     C87805   0.892   0.810   5.975 -0.0539  0.4613  0.6111
  651MOL0     C87806   0.840   0.805   5.842 -1.0790  0.2432  0.2101
  651MOL0     C87807   0.819   0.687   5.766 -0.3314 -0.3116 -1.0316
  651MOL0     O87808   0.775   0.685   5.636  0.0043  0.6749  0.7772
  651MOL0     C87809   0.793   0.784   5.541 -0.4279  0.6030 -0.6173
  651MOL0     C87810   0.745   0.732   5.405 -0.7467  0.2356  0.8803
  651MOL0     C87811   0.794   0.831   5.290 -0.3412 -0.1998 -0.0692
  651MOL0     C87812   0.876   0.762   5.170 -0.3111  0.0494 -0.3398
  651MOL0     C87813   0.981   0.677   5.224  0.0464 -0.1887 -0.2316
  651MOL0     C87814   1.052   0.597   5.285 -0.3784 -0.0172  0.4997
  651MOL0     C87815   0.835   0.571   5.849  0.6802  0.0568 -0.2429
  651MOL0     C87816   0.875   0.566   5.986  1.2281  0.0687  0.8509
  651MOL0     C87817   0.896   0.430   6.060  0.5395 -0.2810 -0.2846
  651MOL0     H87818   0.936   1.058   6.310 -0.0371 -0.4045 -0.3512
  651MOL0     H87819   0.924   1.133   6.540 -3.1720 -2.2975  3.4886
  651MOL0     H87820   1.134   0.857   6.855 -0.5800 -0.0513 -1.3381
  651MOL0     H87821   1.239   0.976   6.772  0.1770  3.0762  0.1812
  651MOL0     H87822   1.067   1.057   7.008  0.0851 -1.3832 -1.6502
  651MOL0     H87823   1.159   1.162   6.914  2.7160 -0.8899 -1.5350
  651MOL0     H87824   1.274   1.099   7.132 -3.1806  0.1947  0.0195
  651MOL0     H87825   1.361   1.103   6.987 -0.3753 -1.5670 -1.7113
  651MOL0     H87826   1.322   0.872   7.171 -5.5950 -1.7736 -0.5034
  651MOL0     H87827   1.235   0.840   7.022 -1.2756 -0.2013  1.7541
  651MOL0     H87828   1.444   0.885   6.886 -0.6351  1.9654  0.5366
  651MOL0     H87829   1.524   0.925   7.034  2.3697 -1.1998 -0.7979
  651MOL0     H87830   1.491   0.703   7.125 -1.8450 -1.6872  0.2993
  651MOL0     H87831   1.404   0.642   6.980  1.7244 -3.4753  1.7747
  651MOL0     H87832   1.690   0.619   7.026 -1.5058 -0.5640 -0.7896
  651MOL0     H87833   1.679   0.767   6.929  1.0379 -1.0293 -2.8137
  651MOL0     H87834   1.721   0.580   6.792  1.3424 -4.1674  1.9512
  651MOL0     H87835   1.581   0.502   6.841  0.8955 -0.2674  0.3440
  651MOL0     H87836   1.666   0.834   6.611 -0.7817 -0.1141  0.7855
  651MOL0     H87837   1.559   0.894   6.394  0.3714 -1.9619 -0.8773
  651MOL0     H87838   1.390   0.836   6.368 -0.6447  1.4785 -0.0807
  651MOL0     H87839   1.306   1.006   6.534 -1.3191  0.5374 -2.6209
  651MOL0     H87840   1.479   1.054   6.564  1.1042  0.7147 -1.2646
  651MOL0     H87841   1.499   1.124   6.333  0.1950  2.9574  1.2737
  651MOL0     H87842   1.379   1.215   6.403  2.7325  0.0547 -0.1138
  651MOL0     H87843   1.207   1.063   6.309  0.0880 -3.4352 -0.3326
  651MOL0     H87844   1.326   0.972   6.218  0.6442  0.3070 -1.0887
  651MOL0     H87845   1.196   0.942   6.066  0.5225  0.2299  0.3932
  651MOL0     H87846   1.206   0.878   5.825  1.8196 -1.4049 -0.6518
  651MOL0     H87847   1.281   0.879   5.368 -1.6090  0.7318  2.2964
  651MOL0     H87848   1.175   0.884   5.137  2.0238  1.1634 -1.5579
  651MOL0     H87849   1.211   1.020   4.936  0.2298  1.5435  1.4067
  651MOL0     H87850   1.074   0.927   4.926  0.7415 -0.3074  3.1818
  651MOL0     H87851   0.966   1.115   4.778 -0.8859 -4.5672 -1.4402
  651MOL0     H87852   1.131   1.192   4.778  1.6952 -1.3860  0.4257
  651MOL0     H87853   1.207   0.990   4.668  0.3279  0.6737  7.4648
  651MOL0     H87854   1.060   0.902   4.679  2.0042  0.0105  0.4083
  651MOL0     H87855   1.141   1.155   4.517  1.6481 -1.6343 -0.0294
  651MOL0     H87856   0.969   1.102   4.527 -0.3790  0.6512 -3.9091
  651MOL0     H87857   1.008   0.891   4.426 -1.8466  2.1184  2.2409
  651MOL0     H87858   1.182   0.920   4.408  0.3668 -0.3064 -1.1271
  651MOL0     H87859   0.982   1.112   4.279  1.3011  2.0492  0.6959
  651MOL0     H87860   1.160   1.097   4.276  1.0761 -2.6271  4.0563
  651MOL0     H87861   0.999   0.991   4.087 -2.0913  0.6222  1.8784
  651MOL0     H87862   1.007   0.847   4.181 -2.6095  0.4507 -0.2081
  651MOL0     H87863   1.219   1.023   4.068 -0.8930  0.9128  0.3108
  651MOL0     H87864   1.275   0.876   4.171 -1.0960 -5.2088 -1.9810
  651MOL0     H87865   1.116   1.309   5.193 -2.6438  1.3767  4.5054
  651MOL0     H87866   1.241   1.306   5.404  1.5401  1.2270 -2.6622
  651MOL0     H87867   1.358   1.270   5.731  1.2696 -0.3760  0.8639
  651MOL0     H87868   1.382   1.315   5.952  0.7011  0.9971 -1.9833
  651MOL0     H87869   1.126   0.773   6.667 -0.2742 -1.2282 -1.3632
  651MOL0     H87870   1.092   0.688   6.440  0.8804  0.6083 -0.8410
  651MOL0     H87871   0.921   0.912   6.000  0.4503  0.9917 -1.9194
  651MOL0     H87872   0.818   0.898   5.792 -2.4323  1.1073  2.2621
  651MOL0     H87873   0.901   0.804   5.535 -0.1832  1.0731  3.1768
  651MOL0     H87874   0.753   0.882   5.569 -0.9584  0.3487 -0.4706
  651MOL0     H87875   0.636   0.726   5.410 -0.6904 -1.9476  0.4990
  651MOL0     H87876   0.784   0.630   5.395 -3.2348 -0.8955  1.9055
  651MOL0     H87877   0.850   0.917   5.327  0.0272  1.1219 -3.3354
  651MOL0     H87878   0.713   0.884   5.240  0.1767  0.9449  0.2732
  651MOL0     H87879   0.814   0.712   5.094  0.1223 -4.3499  1.8792
  651MOL0     H87880   0.920   0.844   5.112 -2.6514  1.5758 -0.0976
  651MOL0     H87881   1.116   0.538   5.347  2.3636  3.4687  1.2876
  651MOL0     H87882   0.824   0.473   5.804 -0.3885 -1.2385  2.5516
  651MOL0     H87883   0.856   0.350   5.997 -0.9011 -0.2349  0.5346
  651MOL0     H87884   1.000   0.411   6.087 -0.2511 -1.1820  2.4058
  651MOL0     H87885   0.838   0.420   6.152  2.1086 -0.9453  0.6644
  652MOL0     O87886  10.817   7.325   5.515  0.4161  0.0354  0.5476
  652MOL0     C87887  10.903   7.258   5.559 -0.5665 -0.2487 -0.0979
  652MOL0     O87888  11.031   7.275   5.540 -0.5842 -0.3549  0.3165
  652MOL0     C87889  11.071   7.345   5.428  0.8311 -0.2716  0.0575
  652MOL0     C87890  11.074   7.486   5.427  0.8243 -0.0329  0.5586
  652MOL0     C87891  11.122   7.547   5.315 -0.2956 -0.4704 -0.3894
  652MOL0     C87892  11.179   7.482   5.213 -0.0952 -0.9971  0.2355
  652MOL0     O87893  11.221   7.564   5.104 -0.3523 -0.8078  0.6846
  652MOL0     C87894  11.215   7.505   4.974  0.2898  0.8884 -0.1203
  652MOL0     C87895  11.250   7.606   4.862 -0.1173 -0.4463 -0.0973
  652MOL0     C87896  11.396   7.636   4.853 -0.0010 -0.3906 -0.0243
  652MOL0     C87897  11.432   7.704   4.724  0.7981  0.0459  0.4302
  652MOL0     C87898  11.583   7.737   4.737 -0.6353  0.4448 -0.4042
  652MOL0     C87899  11.626   7.776   4.600  0.7694 -1.4505  0.3613
  652MOL0     C87900  11.633   7.664   4.494  0.1172 -0.3916  0.7823
  652MOL0     C87901  11.779   7.607   4.454  0.2187 -0.7074  0.0318
  652MOL0     N87902  11.883   7.708   4.405  0.1371 -0.4977  0.0593
  652MOL0     C87903  11.862   7.837   4.381  0.2055 -0.3600  0.6152
  652MOL0     C87904  11.987   7.878   4.349  0.2854  0.1204 -0.6622
  652MOL0     C87905  12.028   8.010   4.296 -0.5506 -0.1432  0.1390
  652MOL0     C87906  12.072   7.986   4.147 -0.2298 -0.4713  0.3892
  652MOL0     C87907  12.114   8.120   4.078  0.3960  0.0886  0.3603
  652MOL0     C87908  12.194   8.095   3.955  0.4473 -0.6871  0.9759
  652MOL0     O87909  12.214   8.215   3.881 -0.4982 -0.0633  0.0884
  652MOL0     C87910  12.334   8.275   3.901 -0.8537  0.1501  0.0389
  652MOL0     C87911  12.385   8.358   3.796  0.5312 -0.3762 -0.9634
  652MOL0     C87912  12.506   8.431   3.804 -0.1000 -0.1542 -0.1310
  652MOL0     C87913  12.588   8.418   3.921  0.7702  0.5540  0.6153
  652MOL0     C87914  12.713   8.509   3.940 -0.1366 -0.1189 -0.1308
  652MOL0     O87915  12.769   8.573   3.832  0.6131 -0.0044  0.5465
  652MOL0     C87916  12.853   8.681   3.849 -0.3469  0.0513  1.2266
  652MOL0     C87917  12.966   8.689   3.763  0.5315  0.0818 -0.0018
  652MOL0     C87918  13.033   8.810   3.750  0.0898 -0.5303 -1.0498
  652MOL0     C87919  12.991   8.924   3.829  0.8847  0.8967  0.2394
  652MOL0     O87920  13.054   9.044   3.829 -0.2153 -0.3876  0.0428
  652MOL0     C87921  13.160   9.065   3.924  0.9539 -0.0685  1.4164
  652MOL0     C87922  13.276   9.141   3.856 -0.0285 -0.4726  0.1976
  652MOL0     C87923  13.384   9.173   3.953 -0.1570  0.6165  0.2617
  652MOL0     C87924  13.471   9.050   3.990  0.9066 -0.3575 -0.5937
  652MOL0     C87925  13.599   9.106   4.051 -0.0880  0.3038  0.0625
  652MOL0     C87926  13.725   9.021   4.012  0.4235  0.2947  0.4986
  652MOL0     C87927  13.725   8.880   4.070  0.2157  0.3998 -0.2196
  652MOL0     C87928  13.842   8.797   4.011 -0.9625  0.4131  0.0851
  652MOL0    Cl87929  13.807   8.740   3.842  0.4814 -0.2603 -0.0365
  652MOL0     C87930  12.888   8.917   3.916 -0.2003 -0.4094  0.4307
  652MOL0     C87931  12.825   8.793   3.928 -0.4118  0.0193  0.6497
  652MOL0     O87932  12.754   8.519   4.055 -0.8258  0.0168 -0.3990
  652MOL0     C87933  12.548   8.322   4.021 -0.1127 -0.3186  0.4951
  652MOL0     C87934  12.420   8.255   4.013  0.0926  0.1993 -0.8922
  652MOL0     N87935  12.081   7.780   4.359  0.2393  0.4777 -0.0939
  652MOL0     N87936  12.015   7.668   4.390 -0.6656  0.5317 -0.1500
  652MOL0     C87937  11.188   7.337   5.216  0.4473 -0.6646  0.7711
  652MOL0     C87938  11.126   7.269   5.320  0.1007  0.1784 -0.8494
  652MOL0     C87939  10.869   7.142   5.641 -0.7726  0.5918 -0.2289
  652MOL0     C87940  10.736   7.098   5.638 -0.0373 -0.1147 -0.0218
  652MOL0     C87941  10.685   7.014   5.735 -0.2539 -0.3794  0.0760
  652MOL0     C87942  10.760   6.953   5.833 -0.4160 -0.6920  0.2956
  652MOL0     O87943  10.721   6.862   5.924  0.2011  0.3405 -0.6337
  652MOL0     C87944  10.586   6.817   5.927  0.1398  0.6550  0.1394
  652MOL0     C87945  10.540   6.760   6.063  0.2971  0.3467 -0.6172
  652MOL0     C87946  10.592   6.617   6.084 -1.1883 -0.4521  0.5977
  652MOL0     C87947  10.565   6.577   6.230  0.6491 -0.1468  0.2347
  652MOL0     C87948  10.657   6.646   6.315 -0.6233  0.4632 -0.3802
  652MOL0     C87949  10.749   6.665   6.391 -0.4261  0.8632  0.4295
  652MOL0     C87950  10.898   6.990   5.836  0.5660 -0.2499  0.2460
  652MOL0     C87951  10.954   7.084   5.744 -0.4923  0.6441 -0.6113
  652MOL0     C87952  11.097   7.127   5.778  1.2110  0.5012  0.0361
  652MOL0     H87953  11.035   7.558   5.499 -0.6000  1.0708 -1.2334
  652MOL0     H87954  11.118   7.655   5.324  3.4704 -0.3330  1.1123
  652MOL0     H87955  11.289   7.426   4.968  0.0560  0.7431 -1.2909
  652MOL0     H87956  11.124   7.446   4.964  3.6630 -4.7862 -1.2107
  652MOL0     H87957  11.198   7.701   4.873 -1.5358 -1.4024  2.0071
  652MOL0     H87958  11.223   7.562   4.765  1.5745  1.1122 -1.3602
  652MOL0     H87959  11.456   7.545   4.859  3.6882  1.9929  2.7492
  652MOL0     H87960  11.433   7.691   4.939  1.0673 -1.0317 -0.0578
  652MOL0     H87961  11.403   7.646   4.636 -1.1031 -1.0900  1.7524
  652MOL0     H87962  11.373   7.795   4.713  3.1115  1.3103 -4.8030
  652MOL0     H87963  11.594   7.820   4.807  0.4369 -0.7989  0.9592
  652MOL0     H87964  11.640   7.648   4.764  0.5443  0.2659 -3.1112
  652MOL0     H87965  11.568   7.851   4.545  3.7418  1.1964  0.5339
  652MOL0     H87966  11.719   7.833   4.608 -1.8124  3.1635  2.0071
  652MOL0     H87967  11.581   7.697   4.404 -4.5719 -2.1959  2.5154
  652MOL0     H87968  11.572   7.577   4.520 -1.5173  0.0908 -1.1657
  652MOL0     H87969  11.819   7.546   4.535 -1.0199  0.9689  2.0095
  652MOL0     H87970  11.754   7.537   4.373  1.2322  1.2809 -2.1263
  652MOL0     H87971  11.771   7.893   4.364  2.5848  2.8027 -4.0107
  652MOL0     H87972  11.945   8.080   4.287 -1.0472 -0.8994 -1.4754
  652MOL0     H87973  12.114   8.054   4.348 -2.2474  0.9153  2.2205
  652MOL0     H87974  12.161   7.923   4.145 -0.6921 -1.1059 -0.4871
  652MOL0     H87975  12.002   7.937   4.080 -0.8883 -0.9561  1.4008
  652MOL0     H87976  12.169   8.198   4.132  1.7501 -0.3354 -0.3615
  652MOL0     H87977  12.023   8.174   4.049 -0.8017 -1.5745  0.8818
  652MOL0     H87978  12.129   8.032   3.893 -0.3689  0.3224  0.7846
  652MOL0     H87979  12.285   8.037   3.974  0.6810 -0.2949  1.0500
  652MOL0     H87980  12.334   8.357   3.700  2.5466  2.4115 -2.2131
  652MOL0     H87981  12.545   8.488   3.720  1.3778 -2.6199 -1.2021
  652MOL0     H87982  12.981   8.609   3.692 -2.2107 -1.8349  1.4058
  652MOL0     H87983  13.104   8.824   3.669 -0.5170  0.9064 -1.3656
  652MOL0     H87984  13.133   9.129   4.008  0.3330  3.3567 -1.1649
  652MOL0     H87985  13.199   8.971   3.965 -0.0252 -0.2101  2.0310
  652MOL0     H87986  13.309   9.084   3.768 -1.1535 -0.8533  0.0160
  652MOL0     H87987  13.238   9.233   3.811 -0.2928 -1.8079 -2.5440
  652MOL0     H87988  13.450   9.246   3.904 -3.8786  2.8447 -1.9073
  652MOL0     H87989  13.345   9.226   4.041  0.8017  1.3374  0.2763
  652MOL0     H87990  13.488   8.999   3.895  3.0075 -0.9298  0.0499
  652MOL0     H87991  13.422   8.991   4.069  0.6402  1.3674  0.5809
  652MOL0     H87992  13.588   9.100   4.159 -3.9476  2.5678 -0.0078
  652MOL0     H87993  13.629   9.209   4.030 -0.5328  0.5147  0.4288
  652MOL0     H87994  13.712   9.007   3.904  0.2501 -0.6170  0.6319
  652MOL0     H87995  13.818   9.071   4.039 -0.3445  0.3969  3.2005
  652MOL0     H87996  13.628   8.832   4.057  0.4352 -0.9155  2.3187
  652MOL0     H87997  13.734   8.890   4.179 -2.6481 -4.7792  0.8110
  652MOL0     H87998  13.933   8.857   4.008 -2.5416  2.9378 -1.6645
  652MOL0     H87999  13.850   8.709   4.076 -0.8352 -0.0736 -0.5827
  652MOL0     H88000  12.844   8.997   3.975  0.9172  0.5215  0.0393
  652MOL0     H88001  12.746   8.784   4.002  0.9628 -2.4931  1.9380
  652MOL0     H88002  12.601   8.281   4.107 -1.4447  0.1072  1.5625
  652MOL0     H88003  12.390   8.192   4.096 -0.0037  1.0530 -0.2606
  652MOL0     H88004  11.224   7.281   5.130 -0.0097  1.0908 -0.6176
  652MOL0     H88005  11.140   7.163   5.334 -0.2244  0.3884  1.4180
  652MOL0     H88006  10.668   7.133   5.561 -1.3630 -1.1915  0.6171
  652MOL0     H88007  10.580   6.989   5.722 -0.0834 -2.3587  1.9727
  652MOL0     H88008  10.566   6.743   5.849  0.8138  1.0828 -0.4570
  652MOL0     H88009  10.515   6.897   5.908 -0.8213 -0.0311  0.7612
  652MOL0     H88010  10.432   6.754   6.051 -0.1377  2.5900  1.3535
  652MOL0     H88011  10.556   6.823   6.152 -1.7738  0.0937 -0.0123
  652MOL0     H88012  10.699   6.629   6.070 -1.4161  2.4514  0.7218
  652MOL0     H88013  10.565   6.536   6.016 -0.8128  0.8850 -1.2022
  652MOL0     H88014  10.465   6.616   6.252  1.3628  0.5977  2.4737
  652MOL0     H88015  10.555   6.469   6.245  1.4548 -0.4449 -1.2501
  652MOL0     H88016  10.811   6.672   6.478 -0.9792  0.0056  0.8992
  652MOL0     H88017  10.962   6.951   5.915  0.0834 -1.6588 -0.0281
  652MOL0     H88018  11.099   7.236   5.791 -2.0185  0.3132  5.0901
  652MOL0     H88019  11.142   7.087   5.869 -1.2658  0.8577  1.5141
  652MOL0     H88020  11.160   7.085   5.700 -0.9681  1.3995 -2.3805
  653MOL0     O88021  11.220   6.705   4.285 -1.0524 -0.3140  0.3146
  653MOL0     C88022  11.295   6.799   4.292  0.3595  0.1791 -0.2182
  653MOL0     O88023  11.251   6.928   4.291 -0.2903 -0.0110 -0.1371
  653MOL0     C88024  11.114   6.954   4.277 -0.3158 -0.2574  0.7324
  653MOL0     C88025  11.052   7.012   4.164 -0.4741  0.3322  0.1208
  653MOL0     C88026  10.931   7.065   4.176  0.5905  0.0649 -0.7839
  653MOL0     C88027  10.858   7.055   4.295  0.0734 -0.4816 -0.6522
  653MOL0     O88028  10.729   7.107   4.290 -0.2872 -0.6353  0.2942
  653MOL0     C88029  10.632   7.038   4.370  0.4359  0.0571 -0.0356
  653MOL0     C88030  10.491   7.067   4.328  0.0851  0.4089 -1.6470
  653MOL0     C88031  10.448   7.204   4.377  0.2297  0.3023  0.1123
  653MOL0     C88032  10.305   7.239   4.340  0.7696 -0.7654 -0.4495
  653MOL0     C88033  10.252   7.379   4.383 -0.4862 -0.0697 -0.3323
  653MOL0     C88034  10.262   7.475   4.276  0.3905 -0.4746  0.8984
  653MOL0     C88035  10.248   7.615   4.318  1.2815  1.1780 -0.7488
  653MOL0     C88036  10.107   7.662   4.353 -0.4402  0.5454  0.0982
  653MOL0     N88037  10.117   7.785   4.436  0.3880  0.1963  0.1038
  653MOL0     C88038  10.090   7.904   4.368 -0.7066  0.2035  0.5491
  653MOL0     C88039  10.094   7.998   4.459  0.0215  0.1471  0.3187
  653MOL0     C88040  10.055   8.138   4.440 -0.4854  0.1662 -0.0443
  653MOL0     C88041  10.063   8.229   4.567 -0.0279  0.1239 -0.8808
  653MOL0     C88042  10.205   8.283   4.591  0.8585 -0.2127  0.1710
  653MOL0     C88043  10.219   8.372   4.706  0.0573 -0.0820  0.0090
  653MOL0     O88044  10.104   8.453   4.738 -0.3999  0.0599 -0.7638
  653MOL0     C88045  10.125   8.593   4.735 -0.0254 -1.0912  0.1223
  653MOL0     C88046  10.222   8.657   4.666 -0.1103  0.2886  0.2745
  653MOL0     C88047  10.240   8.790   4.671  0.3854 -0.0429 -0.4911
  653MOL0     C88048  10.168   8.868   4.769  0.8334 -0.5280  0.2490
  653MOL0     C88049  10.186   9.012   4.776  0.3386 -1.7320 -0.0880
  653MOL0     O88050  10.237   9.084   4.670  0.0187 -0.1539 -0.3330
  653MOL0     C88051  10.307   9.203   4.685 -1.0526 -0.2197  0.3535
  653MOL0     C88052  10.301   9.304   4.584  0.6272 -0.0837 -0.8641
  653MOL0     C88053  10.386   9.411   4.584 -0.1772 -0.7464 -0.6717
  653MOL0     C88054  10.477   9.424   4.685  0.4016 -0.3038 -0.8790
  653MOL0     O88055  10.563   9.532   4.678  0.0142  0.2435 -0.0822
  653MOL0     C88056  10.686   9.541   4.762 -0.2089 -0.6205 -0.1873
  653MOL0     C88057  10.775   9.668   4.732 -0.5741  0.4341  0.3154
  653MOL0     C88058  10.823   9.686   4.590  0.5400 -0.2647  0.2114
  653MOL0     C88059  10.908   9.563   4.554 -0.3930 -0.3830 -0.3478
  653MOL0     C88060  10.991   9.574   4.423  0.3218  0.3233  0.0545
  653MOL0     C88061  11.102   9.676   4.429 -0.0947  0.6949  0.2278
  653MOL0     C88062  11.188   9.662   4.298  0.3774  0.3316 -0.5925
  653MOL0     C88063  11.301   9.768   4.297 -0.3689 -0.1830 -0.0287
  653MOL0    Cl88064  11.418   9.754   4.433  0.4422  0.1674  0.0656
  653MOL0     C88065  10.482   9.331   4.794 -0.3851  0.8283 -0.3528
  653MOL0     C88066  10.395   9.224   4.793  0.2566  0.6721  0.0816
  653MOL0     O88067  10.177   9.059   4.888 -0.0047 -0.9577 -0.7622
  653MOL0     C88068  10.069   8.808   4.842 -0.2549  0.3794  0.0534
  653MOL0     C88069  10.046   8.672   4.821  0.6920 -0.1222  0.9173
  653MOL0     N88070  10.118   7.930   4.576  0.1924 -0.5833  0.1564
  653MOL0     N88071  10.140   7.811   4.565  0.1184  0.3137  1.3016
  653MOL0     C88072  10.922   6.998   4.408 -0.4290 -0.2440  0.2253
  653MOL0     C88073  11.052   6.952   4.397 -0.1252  0.9184 -0.0108
  653MOL0     C88074  11.435   6.770   4.301 -0.0322 -0.1917  0.0671
  653MOL0     C88075  11.530   6.825   4.206 -0.1811  0.5261 -0.7634
  653MOL0     C88076  11.664   6.777   4.210 -0.6736  0.2788 -0.7307
  653MOL0     C88077  11.715   6.671   4.289 -0.2504 -0.0263  0.1123
  653MOL0     O88078  11.836   6.607   4.285 -0.3751  0.3116  0.4541
  653MOL0     C88079  11.947   6.669   4.347  0.5698  0.7485  0.7367
  653MOL0     C88080  12.029   6.557   4.416 -0.4093  0.9325  0.5003
  653MOL0     C88081  11.977   6.509   4.554 -0.4123 -0.5708 -0.3266
  653MOL0     C88082  11.863   6.409   4.553 -0.6292 -0.5705  1.2793
  653MOL0     C88083  11.869   6.307   4.655  0.0287 -0.6741  0.0523
  653MOL0     C88084  11.873   6.218   4.733  0.3213  0.9281 -0.6217
  653MOL0     C88085  11.618   6.613   4.372  0.3921 -0.8214 -0.4771
  653MOL0     C88086  11.486   6.667   4.385  0.4049  0.0345 -0.6308
  653MOL0     C88087  11.395   6.595   4.493  0.4308 -0.3127  0.5095
  653MOL0     H88088  11.112   7.020   4.074  1.5576  1.2809  1.4739
  653MOL0     H88089  10.885   7.100   4.084 -1.7955 -0.5644  0.0853
  653MOL0     H88090  10.641   6.930   4.354 -0.8925 -0.1619  0.5994
  653MOL0     H88091  10.656   7.048   4.476 -0.4070 -0.7291  0.2417
  653MOL0     H88092  10.431   6.990   4.377  1.2327  2.3163  3.4072
  653MOL0     H88093  10.463   7.057   4.223 -1.5415 -3.2024 -1.0137
  653MOL0     H88094  10.521   7.270   4.329  0.8169 -2.2905 -2.9110
  653MOL0     H88095  10.467   7.210   4.485  1.4707 -0.6131 -0.0366
  653MOL0     H88096  10.299   7.238   4.231  0.6359 -2.0318 -0.4413
  653MOL0     H88097  10.255   7.157   4.393 -0.3745  0.2141  0.0523
  653MOL0     H88098  10.152   7.370   4.427 -0.1337 -1.9969  0.1809
  653MOL0     H88099  10.319   7.410   4.463 -0.0173 -2.0758  0.1299
  653MOL0     H88100  10.357   7.464   4.222  1.3356 -0.2166  2.4454
  653MOL0     H88101  10.184   7.445   4.206 -0.9986  1.5328  1.4904
  653MOL0     H88102  10.284   7.685   4.242  2.3234 -0.1970 -1.5622
  653MOL0     H88103  10.306   7.624   4.410 -2.4146  1.5614  1.7630
  653MOL0     H88104  10.057   7.699   4.263  0.6099  2.1469  0.1332
  653MOL0     H88105  10.040   7.589   4.400  0.2790 -1.7937 -2.2530
  653MOL0     H88106  10.061   7.908   4.263  0.2422 -0.4662  0.2483
  653MOL0     H88107  10.113   8.186   4.361 -0.3624 -0.3526 -0.2701
  653MOL0     H88108   9.952   8.128   4.405 -0.3740 -1.3306 -0.0019
  653MOL0     H88109   9.988   8.305   4.546  1.8850  1.5943 -2.8390
  653MOL0     H88110  10.022   8.175   4.653  2.3409 -0.0017  0.2756
  653MOL0     H88111  10.219   8.341   4.499 -1.7862 -2.7097 -1.9948
  653MOL0     H88112  10.276   8.200   4.602 -2.1427 -2.6554  3.0900
  653MOL0     H88113  10.318   8.419   4.709 -1.2350  3.2015 -2.2559
  653MOL0     H88114  10.223   8.296   4.784 -0.8687 -0.6616 -0.4999
  653MOL0     H88115  10.279   8.601   4.592 -2.7870 -1.3815 -0.6720
  653MOL0     H88116  10.313   8.843   4.611  1.3205  0.9700  1.4534
  653MOL0     H88117  10.222   9.306   4.509 -1.2837  1.1521  1.0608
  653MOL0     H88118  10.371   9.487   4.508 -1.7439 -0.3658 -0.0052
  653MOL0     H88119  10.646   9.548   4.863  2.1142  2.3285  0.6549
  653MOL0     H88120  10.748   9.452   4.750 -0.5861 -0.8533 -0.4307
  653MOL0     H88121  10.711   9.753   4.757 -2.8296 -1.2990  0.7805
  653MOL0     H88122  10.864   9.671   4.796  0.2771  1.6265 -0.8767
  653MOL0     H88123  10.739   9.687   4.520  0.6689 -0.9119  0.0407
  653MOL0     H88124  10.876   9.781   4.586  1.0937 -0.5880 -0.4344
  653MOL0     H88125  10.832   9.486   4.537 -1.0243 -0.6438  2.9540
  653MOL0     H88126  10.979   9.532   4.631  1.1840 -1.8346 -2.2840
  653MOL0     H88127  10.933   9.609   4.337  2.1887  1.8374 -0.6549
  653MOL0     H88128  11.025   9.477   4.386 -0.4891 -0.0796  0.3394
  653MOL0     H88129  11.059   9.777   4.434  0.2578  0.7644  2.4366
  653MOL0     H88130  11.169   9.661   4.513  0.1164 -2.4487 -0.3945
  653MOL0     H88131  11.130   9.661   4.205  0.7677  1.7391 -0.8794
  653MOL0     H88132  11.244   9.568   4.296  1.6949  1.0358  1.0160
  653MOL0     H88133  11.355   9.756   4.202  0.1252  2.5175 -0.1849
  653MOL0     H88134  11.269   9.873   4.296  0.0247 -0.0572 -0.5662
  653MOL0     H88135  10.565   9.328   4.865 -0.7969 -3.6222  0.2569
  653MOL0     H88136  10.409   9.144   4.865  1.9486  0.4879 -0.4019
  653MOL0     H88137  10.007   8.868   4.908 -0.2374  1.7040 -1.0843
  653MOL0     H88138   9.960   8.637   4.876  0.4889 -0.2512  0.5246
  653MOL0     H88139  10.869   7.003   4.502 -1.7296  5.0039 -0.4791
  653MOL0     H88140  11.114   6.917   4.479  0.4339 -0.8461 -1.1309
  653MOL0     H88141  11.495   6.912   4.150 -0.7210 -0.9660 -2.8591
  653MOL0     H88142  11.735   6.834   4.150  2.3060  0.3707  2.5536
  653MOL0     H88143  11.916   6.737   4.427 -1.9497  0.9305 -0.2850
  653MOL0     H88144  12.002   6.729   4.274  0.2637  0.6538  0.4236
  653MOL0     H88145  12.130   6.594   4.437 -0.3735 -0.0689  2.3305
  653MOL0     H88146  12.050   6.476   4.347  0.6218 -1.9337  3.8669
  653MOL0     H88147  11.940   6.596   4.609 -1.0305 -1.9684  1.5848
  653MOL0     H88148  12.063   6.471   4.609 -0.2231 -0.0698 -0.2771
  653MOL0     H88149  11.772   6.470   4.566 -1.0743 -1.2956  1.6098
  653MOL0     H88150  11.857   6.372   4.450  0.3883 -0.8688  1.3198
  653MOL0     H88151  11.892   6.134   4.797  1.6070  1.1019 -0.7453
  653MOL0     H88152  11.644   6.534   4.442  0.4899 -1.1037 -0.8276
  653MOL0     H88153  11.402   6.487   4.480  2.4119 -0.0191 -1.5135
  653MOL0     H88154  11.422   6.612   4.598  0.8365  0.2678  0.3150
  653MOL0     H88155  11.292   6.631   4.492 -0.2651 -2.2101 -0.8365
  654MOL0     O88156   6.007   0.256   7.344  0.3612  0.1251 -0.6679
  654MOL0     C88157   6.026   0.143   7.385 -0.0634  0.2884  0.2093
  654MOL0     O88158   5.956   0.035   7.347  0.6824  0.0804 -0.2327
  654MOL0     C88159   5.868   0.024   7.245 -0.1606  0.7119  0.5703
  654MOL0     C88160   5.858   0.098   7.128 -0.3523 -0.2340 -1.0912
  654MOL0     C88161   5.750   0.071   7.038 -0.8814  0.0823  0.9841
  654MOL0     C88162   5.661  -0.033   7.052 -0.0955  0.3017 -0.5869
  654MOL0     O88163   5.568  -0.075   6.966 -0.1429  0.4979  1.3321
  654MOL0     C88164   5.486   0.034   6.923 -0.2298  0.2376  0.1884
  654MOL0     C88165   5.383  -0.024   6.819  0.6897 -0.2966  0.2897
  654MOL0     C88166   5.303  -0.154   6.839  0.3083  0.2268 -0.5884
  654MOL0     C88167   5.292  -0.215   6.689 -0.4746  0.0929 -0.5698
  654MOL0     C88168   5.170  -0.309   6.679 -0.7781  0.7303  0.0800
  654MOL0     C88169   5.169  -0.431   6.777 -1.0717  0.2671  0.0058
  654MOL0     C88170   5.079  -0.549   6.731 -0.8275  0.0001 -0.6276
  654MOL0     C88171   4.932  -0.511   6.718  0.1613  0.4755  0.5738
  654MOL0     N88172   4.856  -0.632   6.684  0.1370 -0.9212 -0.2652
  654MOL0     C88173   4.797  -0.669   6.569  0.0758 -0.1317 -0.0866
  654MOL0     C88174   4.712  -0.774   6.589  0.2994  0.5040  0.2207
  654MOL0     C88175   4.614  -0.839   6.497  1.3402 -0.7831  0.1711
  654MOL0     C88176   4.482  -0.868   6.572 -0.9709  0.4351  0.3493
  654MOL0     C88177   4.350  -0.897   6.497 -0.2537  1.0123  0.6686
  654MOL0     C88178   4.231  -0.855   6.569  0.1318  0.6573 -0.5827
  654MOL0     O88179   4.120  -0.939   6.527  0.0980 -0.2934 -0.4502
  654MOL0     C88180   4.050  -0.887   6.429 -0.2663  0.2455  0.5353
  654MOL0     C88181   4.045  -0.939   6.294  0.3975  0.2033 -0.3059
  654MOL0     C88182   3.970  -0.889   6.185  0.0991  0.2502 -0.4174
  654MOL0     C88183   3.901  -0.767   6.205  0.0598 -0.7141 -0.2384
  654MOL0     C88184   3.808  -0.711   6.106 -0.7626  0.5927  0.1602
  654MOL0     O88185   3.816  -0.771   5.984  0.2463  0.8460 -0.2851
  654MOL0     C88186   3.750  -0.724   5.878 -0.0349 -0.3287  0.2681
  654MOL0     C88187   3.762  -0.595   5.829  0.1755  0.4108 -0.2775
  654MOL0     C88188   3.697  -0.553   5.711  0.2938  0.8543 -0.1078
  654MOL0     C88189   3.614  -0.645   5.649 -0.1785  0.1848  0.5884
  654MOL0     O88190   3.536  -0.596   5.546  0.4460  0.6573 -0.1331
  654MOL0     C88191   3.574  -0.467   5.477  0.5609  0.1491  0.3365
  654MOL0     C88192   3.505  -0.468   5.331 -0.2637  0.4452 -0.0605
  654MOL0     C88193   3.369  -0.397   5.335  0.1203 -0.1795 -0.5258
  654MOL0     C88194   3.279  -0.393   5.205  0.3896  0.0943 -0.2808
  654MOL0     C88195   3.154  -0.312   5.217 -0.7288  0.1830 -0.2420
  654MOL0     C88196   3.051  -0.313   5.100  0.4939 -0.1849  0.0244
  654MOL0     C88197   3.086  -0.218   4.990 -0.0391  0.8261 -0.3105
  654MOL0     C88198   2.982  -0.231   4.875 -0.7370  0.7263 -1.0302
  654MOL0    Cl88199   3.020  -0.372   4.760 -0.5749 -0.6488 -0.4613
  654MOL0     C88200   3.601  -0.770   5.690 -0.5333  0.6538 -1.0851
  654MOL0     C88201   3.667  -0.810   5.812 -0.3223  0.6594  0.2786
  654MOL0     O88202   3.743  -0.611   6.129 -0.4204  0.6708 -0.2810
  654MOL0     C88203   3.902  -0.713   6.337 -0.6477 -0.5474  0.0753
  654MOL0     C88204   3.970  -0.768   6.450 -1.1508 -0.3857  0.1315
  654MOL0     N88205   4.735  -0.808   6.724 -0.2000  0.1214  0.3519
  654MOL0     N88206   4.799  -0.711   6.774  0.2432  0.5910 -0.6189
  654MOL0     C88207   5.681  -0.111   7.162  0.6114 -0.3123 -0.5535
  654MOL0     C88208   5.780  -0.087   7.259 -0.0572 -0.0274 -0.0575
  654MOL0     C88209   6.157   0.124   7.452  0.2135  0.0369 -0.0454
  654MOL0     C88210   6.260   0.207   7.405  0.0444  0.6523 -0.0033
  654MOL0     C88211   6.389   0.179   7.458  0.3356 -0.9521  0.5283
  654MOL0     C88212   6.415   0.083   7.557  0.4970  0.0748 -0.0555
  654MOL0     O88213   6.546   0.052   7.586  0.1595 -0.3321 -0.3392
  654MOL0     C88214   6.568  -0.019   7.716 -0.3745  0.5835 -0.2572
  654MOL0     C88215   6.719   0.009   7.752  0.0795 -0.2607  0.0595
  654MOL0     C88216   6.832  -0.029   7.668 -0.2558 -0.0666 -0.0081
  654MOL0     C88217   6.804  -0.167   7.607 -0.2978 -0.2406 -0.0006
  654MOL0     C88218   6.917  -0.197   7.518 -0.7080 -0.5199  0.0808
  654MOL0     C88219   7.023  -0.196   7.464 -0.3070 -1.0809 -0.4164
  654MOL0     C88220   6.311   0.008   7.604  0.6704  0.3848 -0.5822
  654MOL0     C88221   6.178   0.024   7.554 -0.3891  0.6995 -0.0171
  654MOL0     C88222   6.059  -0.039   7.622 -0.1896  0.3458  0.1828
  654MOL0     H88223   5.934   0.174   7.116 -1.5873  1.3905  0.8024
  654MOL0     H88224   5.748   0.132   6.948  2.8372 -1.6897 -0.4763
  654MOL0     H88225   5.431   0.076   7.008 -2.1878 -0.7515 -0.5295
  654MOL0     H88226   5.545   0.112   6.874 -1.6277 -0.3215 -2.5810
  654MOL0     H88227   5.439  -0.034   6.725  2.6402 -0.6145  1.4283
  654MOL0     H88228   5.312   0.056   6.797  4.4158  2.8849 -1.3700
  654MOL0     H88229   5.202  -0.137   6.877  0.5954 -0.7419  0.6827
  654MOL0     H88230   5.360  -0.224   6.902  0.5660  3.4028  3.0782
  654MOL0     H88231   5.287  -0.135   6.614 -0.9037 -0.1597 -0.8135
  654MOL0     H88232   5.382  -0.275   6.679 -0.5911 -0.7645  2.4450
  654MOL0     H88233   5.081  -0.248   6.695  1.3747  4.1875 -0.0812
  654MOL0     H88234   5.167  -0.354   6.579 -1.1638 -0.2296  0.5138
  654MOL0     H88235   5.267  -0.474   6.801 -1.5427 -2.4447 -2.3934
  654MOL0     H88236   5.139  -0.384   6.871  1.1505  1.7838  0.0464
  654MOL0     H88237   5.087  -0.617   6.817 -0.7612  1.6675  0.7349
  654MOL0     H88238   5.118  -0.587   6.636 -0.4331  0.7949 -0.7939
  654MOL0     H88239   4.898  -0.462   6.810 -0.0628  0.3371  0.5665
  654MOL0     H88240   4.916  -0.443   6.634 -3.0949  0.6015  1.1441
  654MOL0     H88241   4.815  -0.608   6.481 -0.3900 -0.0799 -0.1488
  654MOL0     H88242   4.590  -0.766   6.418 -1.6637 -1.5025  0.2763
  654MOL0     H88243   4.658  -0.930   6.456  3.0351  0.1148 -0.0949
  654MOL0     H88244   4.501  -0.949   6.644 -0.8617  1.6388  1.7093
  654MOL0     H88245   4.464  -0.779   6.632 -0.0633  1.1097 -0.3526
  654MOL0     H88246   4.348  -1.006   6.482 -1.6002  0.7411  2.4995
  654MOL0     H88247   4.350  -0.846   6.400 -1.4616 -1.4977 -0.7551
  654MOL0     H88248   4.207  -0.749   6.555 -0.5557  1.2668  3.7355
  654MOL0     H88249   4.253  -0.870   6.675  3.0967 -1.0464 -1.3155
  654MOL0     H88250   4.124  -1.012   6.277  1.2398  0.6024  1.6919
  654MOL0     H88251   3.965  -0.937   6.088  1.3255  1.5158 -1.1505
  654MOL0     H88252   3.826  -0.525   5.880 -0.7643 -0.9198  3.0253
  654MOL0     H88253   3.726  -0.451   5.686  5.9934  0.1471  2.1327
  654MOL0     H88254   3.555  -0.384   5.545  2.0220  0.8401 -0.0602
  654MOL0     H88255   3.679  -0.465   5.444  0.4664  0.1904  0.0342
  654MOL0     H88256   3.573  -0.418   5.261  0.0862 -0.7213 -0.5848
  654MOL0     H88257   3.496  -0.574   5.304 -1.5892  0.5172  0.0232
  654MOL0     H88258   3.310  -0.439   5.417 -0.4372 -0.1388 -0.8974
  654MOL0     H88259   3.387  -0.291   5.358  0.2005 -0.3421  0.1885
  654MOL0     H88260   3.253  -0.491   5.164  0.6620  0.3149 -0.9928
  654MOL0     H88261   3.340  -0.338   5.132 -0.8165  2.1390  0.1968
  654MOL0     H88262   3.191  -0.210   5.231  1.0091 -0.4362 -0.0998
  654MOL0     H88263   3.109  -0.355   5.307 -3.3736 -1.2846 -2.1095
  654MOL0     H88264   3.029  -0.414   5.064  0.1570  0.2618 -1.0835
  654MOL0     H88265   2.953  -0.286   5.143 -0.3185  1.4017 -2.5984
  654MOL0     H88266   3.185  -0.240   4.949  0.7738 -0.9440  2.2668
  654MOL0     H88267   3.076  -0.113   5.021 -0.1463  1.2123 -1.6290
  654MOL0     H88268   2.882  -0.239   4.918 -0.9915 -0.2842 -1.7579
  654MOL0     H88269   2.984  -0.145   4.808 -0.6097 -0.3920 -2.5269
  654MOL0     H88270   3.531  -0.836   5.639 -2.7441  2.2059 -0.1864
  654MOL0     H88271   3.665  -0.917   5.834 -4.4468  0.7922  1.4158
  654MOL0     H88272   3.833  -0.631   6.356 -0.4131  0.9155 -4.3633
  654MOL0     H88273   3.964  -0.729   6.550  0.0108 -0.6248  0.3145
  654MOL0     H88274   5.622  -0.202   7.166 -3.2121  1.9164 -1.0834
  654MOL0     H88275   5.801  -0.151   7.345  3.3211  0.4669 -0.3695
  654MOL0     H88276   6.249   0.280   7.326  1.9512 -0.1138 -1.0462
  654MOL0     H88277   6.473   0.238   7.424 -1.9308  1.6674 -0.9530
  654MOL0     H88278   6.556  -0.127   7.704  1.6420  0.4518 -1.5422
  654MOL0     H88279   6.496   0.017   7.789 -0.4756 -1.5502  0.7828
  654MOL0     H88280   6.737  -0.039   7.849 -0.6912 -2.3772 -0.7856
  654MOL0     H88281   6.721   0.117   7.764  0.9000 -0.2704  0.0773
  654MOL0     H88282   6.925  -0.035   7.725  0.9994  1.3424 -1.7901
  654MOL0     H88283   6.845   0.053   7.596  0.0028 -0.0627  0.0431
  654MOL0     H88284   6.772  -0.244   7.677 -1.7109  1.6889  1.6018
  654MOL0     H88285   6.718  -0.170   7.540 -0.6005 -0.7088  0.4033
  654MOL0     H88286   7.121  -0.206   7.421  0.2814  0.5667  0.4235
  654MOL0     H88287   6.323  -0.083   7.661 -1.7060  0.4468  0.1059
  654MOL0     H88288   5.988   0.031   7.666 -1.9374 -1.3884  0.2735
  654MOL0     H88289   6.012  -0.104   7.546  1.2183  1.4430 -1.7247
  654MOL0     H88290   6.095  -0.100   7.705 -1.3261 -1.4330 -0.5667
  655MOL0     O88291   8.259   6.952   2.453  0.5870 -0.5564  0.4715
  655MOL0     C88292   8.345   6.949   2.370  0.1377  0.3737 -0.0109
  655MOL0     O88293   8.364   7.041   2.274  0.3131 -0.3557  0.2200
  655MOL0     C88294   8.301   7.161   2.248  0.7230 -0.6094 -0.3445
  655MOL0     C88295   8.225   7.224   2.350  0.4148 -0.3358  0.7892
  655MOL0     C88296   8.161   7.348   2.317  0.0430  0.7387 -0.0933
  655MOL0     C88297   8.152   7.399   2.186 -0.7305  0.2939  0.5128
  655MOL0     O88298   8.084   7.518   2.159 -0.5904 -0.2300  0.2230
  655MOL0     C88299   8.168   7.629   2.117  0.1821 -0.9063  0.0015
  655MOL0     C88300   8.294   7.657   2.201  0.3055  0.5482  0.0901
  655MOL0     C88301   8.277   7.676   2.345 -0.2470 -0.4275 -0.0877
  655MOL0     C88302   8.402   7.624   2.424 -0.0106 -0.3168 -0.4687
  655MOL0     C88303   8.415   7.672   2.564 -0.1332  0.7956 -0.1091
  655MOL0     C88304   8.322   7.596   2.659 -0.2991 -0.9049  0.3121
  655MOL0     C88305   8.335   7.649   2.805  0.1001 -0.9681  0.1635
  655MOL0     C88306   8.452   7.576   2.876  0.0106  0.3499  0.3717
  655MOL0     N88307   8.544   7.675   2.945 -0.3513  0.0983 -0.4938
  655MOL0     C88308   8.504   7.730   3.063  0.3156 -0.1981  0.5589
  655MOL0     C88309   8.597   7.818   3.083 -0.6104 -1.0365  0.0317
  655MOL0     C88310   8.611   7.910   3.207  0.1732 -0.2567 -0.6579
  655MOL0     C88311   8.550   8.055   3.190 -0.2550 -0.5060  0.2141
  655MOL0     C88312   8.538   8.132   3.328 -0.4531 -0.4266 -0.3062
  655MOL0     C88313   8.453   8.254   3.326  0.4117 -1.0460 -0.0362
  655MOL0     O88314   8.444   8.302   3.459  0.4065  0.5901 -0.2343
  655MOL0     C88315   8.550   8.364   3.507 -0.5631 -0.2639 -0.1825
  655MOL0     C88316   8.638   8.437   3.425 -0.3624 -0.5719 -0.2101
  655MOL0     C88317   8.747   8.497   3.482 -0.0145 -1.6934 -0.5355
  655MOL0     C88318   8.764   8.503   3.623  0.4895  0.5934 -0.0159
  655MOL0     C88319   8.877   8.562   3.685  0.2830 -0.1685 -1.2879
  655MOL0     O88320   8.992   8.577   3.604  0.4970  0.8750 -0.9279
  655MOL0     C88321   9.109   8.643   3.632  0.1059 -0.0116 -0.9571
  655MOL0     C88322   9.228   8.618   3.557 -0.1246 -1.3116  1.5557
  655MOL0     C88323   9.350   8.677   3.600  0.5602 -0.3329 -0.4276
  655MOL0     C88324   9.354   8.763   3.710  0.1733 -0.3415  0.5774
  655MOL0     O88325   9.478   8.805   3.755  0.2553  0.1314 -0.3931
  655MOL0     C88326   9.499   8.902   3.856 -1.7565 -0.3980 -0.5968
  655MOL0     C88327   9.634   8.978   3.831  1.1915 -0.1407  0.1505
  655MOL0     C88328   9.755   8.911   3.878 -0.3393 -0.1250 -0.6461
  655MOL0     C88329   9.802   8.786   3.789 -0.2070 -0.8025 -0.5619
  655MOL0     C88330   9.809   8.815   3.630  0.9438  0.0578 -0.8047
  655MOL0     C88331   9.880   8.706   3.546  0.1530  0.6779  0.6601
  655MOL0     C88332   9.787   8.585   3.546 -0.0329  0.2242  0.1073
  655MOL0     C88333   9.691   8.604   3.425  0.1141 -0.2165  0.5235
  655MOL0    Cl88334   9.573   8.474   3.438 -0.0279  0.3465  0.0120
  655MOL0     C88335   9.243   8.794   3.773 -0.3210 -0.3432  0.4003
  655MOL0     C88336   9.124   8.731   3.740  0.0299 -0.1611  0.6271
  655MOL0     O88337   8.873   8.591   3.805 -0.0520 -0.2726 -0.1955
  655MOL0     C88338   8.681   8.434   3.703  0.0181  0.3923 -0.3189
  655MOL0     C88339   8.576   8.364   3.646 -0.0373  0.1246 -0.1431
  655MOL0     N88340   8.682   7.818   2.975 -0.5526 -0.9760 -0.0541
  655MOL0     N88341   8.639   7.738   2.885  0.2163 -0.0121 -0.1744
  655MOL0     C88342   8.222   7.328   2.083 -0.0512  0.5265 -0.4317
  655MOL0     C88343   8.301   7.214   2.111 -0.2271 -0.5240 -0.5006
  655MOL0     C88344   8.427   6.831   2.362  0.6683  0.4394 -0.6623
  655MOL0     C88345   8.566   6.852   2.385 -0.1557  0.4765  0.0206
  655MOL0     C88346   8.660   6.749   2.385  0.1826  0.4192 -0.7066
  655MOL0     C88347   8.614   6.622   2.368  0.5038 -0.3838  0.1317
  655MOL0     O88348   8.712   6.530   2.391 -0.5645  0.3433 -0.1731
  655MOL0     C88349   8.683   6.393   2.370  1.3074  0.2273 -0.1042
  655MOL0     C88350   8.789   6.311   2.439 -0.0496  0.0667  0.0577
  655MOL0     C88351   8.788   6.332   2.596  0.6157 -0.3365 -0.1973
  655MOL0     C88352   8.889   6.255   2.672  0.3704  0.2767  0.0423
  655MOL0     C88353   9.028   6.234   2.623  0.1034 -0.0932 -0.5565
  655MOL0     C88354   9.134   6.207   2.580  0.7662 -0.5466 -0.1424
  655MOL0     C88355   8.475   6.592   2.342 -0.7847 -0.4621 -0.5485
  655MOL0     C88356   8.387   6.702   2.336  0.1144 -0.2919 -0.4190
  655MOL0     C88357   8.246   6.672   2.288 -0.8062  0.0472 -0.0455
  655MOL0     H88358   8.212   7.193   2.453  0.0468 -2.4687  0.1553
  655MOL0     H88359   8.096   7.396   2.390  0.3012 -1.8764  2.0470
  655MOL0     H88360   8.187   7.610   2.011 -3.5370  0.2672 -1.0529
  655MOL0     H88361   8.112   7.723   2.120  1.3588  0.0709 -3.7450
  655MOL0     H88362   8.351   7.744   2.167 -1.6898  3.0589  2.6818
  655MOL0     H88363   8.353   7.565   2.194  0.2086  0.4261  0.7957
  655MOL0     H88364   8.198   7.617   2.392  1.3012 -1.4581  1.3515
  655MOL0     H88365   8.246   7.778   2.365  4.5824  1.0386  1.3189
  655MOL0     H88366   8.402   7.515   2.431 -3.2156 -0.4082 -0.5571
  655MOL0     H88367   8.495   7.655   2.374 -0.4538  1.8291 -0.0807
  655MOL0     H88368   8.520   7.648   2.581 -0.0313  0.9937 -0.4548
  655MOL0     H88369   8.420   7.780   2.580  0.3528  0.7616 -0.0316
  655MOL0     H88370   8.219   7.626   2.635 -0.5831 -3.5783 -2.5402
  655MOL0     H88371   8.329   7.489   2.639  2.2891 -0.3949 -2.2222
  655MOL0     H88372   8.243   7.642   2.864 -0.0987  2.2532  0.4272
  655MOL0     H88373   8.342   7.758   2.818 -1.4392 -1.1521  3.7193
  655MOL0     H88374   8.407   7.506   2.946 -0.1488  1.8342  1.8210
  655MOL0     H88375   8.500   7.516   2.798  0.3702  1.2793 -0.1404
  655MOL0     H88376   8.410   7.722   3.117 -0.6736 -0.1398 -1.1014
  655MOL0     H88377   8.557   7.863   3.290  0.9824 -0.3072 -0.1463
  655MOL0     H88378   8.710   7.927   3.251 -0.5338  3.1341 -0.0695
  655MOL0     H88379   8.610   8.114   3.120 -1.0418 -0.3003 -0.3013
  655MOL0     H88380   8.448   8.044   3.151 -0.7712 -1.5440  1.7602
  655MOL0     H88381   8.635   8.174   3.355 -1.2401  0.1237  1.8674
  655MOL0     H88382   8.521   8.068   3.415 -0.3488 -1.7036 -1.2029
  655MOL0     H88383   8.358   8.223   3.282  0.8962 -1.8197 -0.5837
  655MOL0     H88384   8.489   8.324   3.249 -1.0280  0.2726  0.4436
  655MOL0     H88385   8.640   8.443   3.317  2.5083  2.1276 -0.1458
  655MOL0     H88386   8.821   8.540   3.416 -1.2565 -0.8671 -1.4331
  655MOL0     H88387   9.231   8.546   3.475 -1.8205  0.2781  0.0033
  655MOL0     H88388   9.438   8.633   3.553 -0.4301 -1.5683 -1.2045
  655MOL0     H88389   9.418   8.976   3.855 -1.4548 -0.0734 -1.5655
  655MOL0     H88390   9.498   8.863   3.959  1.8998 -3.1114 -1.3720
  655MOL0     H88391   9.641   9.002   3.725 -0.3821  1.6901  0.4086
  655MOL0     H88392   9.626   9.076   3.877  1.3320  0.9218 -1.9800
  655MOL0     H88393   9.836   8.985   3.880  0.1529 -0.6100  1.9222
  655MOL0     H88394   9.758   8.888   3.985  0.3235 -1.8340 -0.9903
  655MOL0     H88395   9.725   8.709   3.801 -1.0733 -0.0808 -1.4079
  655MOL0     H88396   9.902   8.751   3.818  0.4753  0.6233 -1.0917
  655MOL0     H88397   9.865   8.908   3.621  1.1955  0.1348  1.0765
  655MOL0     H88398   9.705   8.834   3.601  0.0592 -1.9271  0.7920
  655MOL0     H88399   9.902   8.737   3.443 -0.4352  1.9357  0.8896
  655MOL0     H88400   9.972   8.676   3.595  0.5186 -0.8921 -0.8755
  655MOL0     H88401   9.712   8.577   3.625  2.1720 -0.3777  2.2727
  655MOL0     H88402   9.844   8.492   3.543 -0.6885 -0.2193  0.8602
  655MOL0     H88403   9.622   8.686   3.446 -3.2178 -2.2412 -1.4620
  655MOL0     H88404   9.741   8.612   3.328 -0.3607  1.1385  0.3665
  655MOL0     H88405   9.246   8.868   3.852 -1.0907 -0.2793  0.3734
  655MOL0     H88406   9.060   8.748   3.826  0.9987  0.5543  1.2254
  655MOL0     H88407   8.688   8.419   3.810 -2.9636 -1.4079 -0.2385
  655MOL0     H88408   8.523   8.312   3.724  1.5723  0.2628  1.1124
  655MOL0     H88409   8.212   7.348   1.977  2.3297 -3.0207 -1.5052
  655MOL0     H88410   8.355   7.154   2.038 -1.3990 -1.7622 -0.3901
  655MOL0     H88411   8.613   6.949   2.393  0.9753  0.2548 -2.7017
  655MOL0     H88412   8.765   6.775   2.392  0.2455 -0.1038  0.5226
  655MOL0     H88413   8.680   6.372   2.263  1.4066 -2.2074  0.3173
  655MOL0     H88414   8.585   6.373   2.413  0.7994  2.8828  0.1878
  655MOL0     H88415   8.886   6.329   2.393 -0.1917 -2.9799 -1.6833
  655MOL0     H88416   8.754   6.209   2.419 -0.7823  0.5447 -1.1936
  655MOL0     H88417   8.691   6.303   2.638 -0.2091  1.8384 -0.4378
  655MOL0     H88418   8.797   6.438   2.621 -2.4032  0.9398 -3.6132
  655MOL0     H88419   8.886   6.299   2.771 -1.1306  0.6086 -0.1225
  655MOL0     H88420   8.849   6.155   2.692  0.4581 -0.0119 -1.1480
  655MOL0     H88421   9.209   6.164   2.517 -0.3797  0.2081 -2.1182
  655MOL0     H88422   8.438   6.491   2.329  1.4193 -0.9341 -5.0228
  655MOL0     H88423   8.208   6.744   2.214 -2.6835  0.4872  1.2646
  655MOL0     H88424   8.230   6.579   2.233 -1.4574  1.1223 -1.7630
  655MOL0     H88425   8.175   6.673   2.372  0.7909 -2.0359  1.4218
  656MOL0     O88426   6.249   2.891  10.644 -0.2681  0.0126  1.1563
  656MOL0     C88427   6.361   2.843  10.667  1.2931  0.6346 -1.2028
  656MOL0     O88428   6.378   2.708  10.670  0.0054 -0.5261  0.8309
  656MOL0     C88429   6.264   2.617  10.662 -0.6900  0.9372 -0.0615
  656MOL0     C88430   6.141   2.628  10.718 -0.5372  0.2987  0.0791
  656MOL0     C88431   6.049   2.513  10.709  0.8343 -0.0133 -1.1618
  656MOL0     C88432   6.074   2.396  10.640  0.8173  0.1892  0.9349
  656MOL0     O88433   5.979   2.298  10.629  0.2318  0.8806 -0.3074
  656MOL0     C88434   6.016   2.169  10.586  0.3046 -0.7156  0.8993
  656MOL0     C88435   5.887   2.094  10.542 -0.8430 -0.3029  0.2613
  656MOL0     C88436   5.919   1.942  10.550  1.4721 -0.6212  0.7257
  656MOL0     C88437   5.801   1.861  10.502 -0.1834 -0.7348 -0.4661
  656MOL0     C88438   5.833   1.703  10.512 -0.0160  0.1744  0.8001
  656MOL0     C88439   5.757   1.626  10.403  0.7665 -0.5521  0.6767
  656MOL0     C88440   5.758   1.473  10.417 -0.4927 -0.2692  0.3399
  656MOL0     C88441   5.897   1.408  10.441 -0.5810  0.0818  0.7022
  656MOL0     N88442   5.990   1.430  10.328 -0.2522  0.5199  0.3943
  656MOL0     C88443   5.985   1.380  10.201 -0.6952 -0.3279  0.0157
  656MOL0     C88444   6.079   1.450  10.127 -0.2322  0.2383  0.5006
  656MOL0     C88445   6.098   1.441   9.972  0.6061 -0.7337 -0.4076
  656MOL0     C88446   6.160   1.309   9.938  0.1722 -0.8054  0.0290
  656MOL0     C88447   6.077   1.183   9.962  0.2353  0.0063 -0.3907
  656MOL0     C88448   5.934   1.201   9.917 -0.4046 -0.7751  0.7675
  656MOL0     O88449   5.854   1.081   9.923  0.2296 -0.4604 -0.0498
  656MOL0     C88450   5.787   1.067  10.046 -0.2031  1.0238 -0.1345
  656MOL0     C88451   5.851   0.983  10.136 -0.0916  0.1534  0.0303
  656MOL0     C88452   5.822   0.993  10.271 -0.0082 -0.1772  0.0414
  656MOL0     C88453   5.716   1.072  10.319  0.5168 -0.4541 -1.1841
  656MOL0     C88454   5.693   1.082  10.466 -0.2565  0.7331  0.8166
  656MOL0     O88455   5.567   1.100  10.517 -0.4517 -1.0500 -1.2698
  656MOL0     C88456   5.552   1.119  10.653  0.3062  0.1350  0.5029
  656MOL0     C88457   5.616   1.218  10.729 -0.6335 -0.7697 -0.5242
  656MOL0     C88458   5.587   1.229  10.870 -0.2767  0.7054  0.7072
  656MOL0     C88459   5.520   1.126  10.935 -0.0394 -0.8048 -0.3343
  656MOL0     O88460   5.504   1.134  11.069  0.4658 -0.3820 -0.4038
  656MOL0     C88461   5.545   1.023  11.153 -1.0298 -0.0778  0.9297
  656MOL0     C88462   5.659   1.066  11.241 -0.0030  0.6569 -0.2542
  656MOL0     C88463   5.611   1.135  11.369  0.7202  0.7102  0.6858
  656MOL0     C88464   5.725   1.189  11.455 -0.2739 -0.9929  0.4190
  656MOL0     C88465   5.845   1.255  11.382  0.4658 -0.2561 -0.7176
  656MOL0     C88466   5.963   1.282  11.476 -0.4049  0.5360 -0.1676
  656MOL0     C88467   5.927   1.361  11.602 -0.2996  0.4240 -0.6793
  656MOL0     C88468   6.059   1.422  11.658 -0.1684 -0.5469 -0.1651
  656MOL0    Cl88469   6.081   1.577  11.562  0.0686 -0.1765 -0.2700
  656MOL0     C88470   5.453   1.032  10.854 -0.8263 -1.3464 -0.8933
  656MOL0     C88471   5.462   1.032  10.713  0.2186  0.4310  0.5915
  656MOL0     O88472   5.798   1.074  10.529  0.1085 -0.3140  0.9535
  656MOL0     C88473   5.638   1.136  10.224  0.7171  0.2639  0.3737
  656MOL0     C88474   5.669   1.134  10.088 -0.1389 -1.5026 -0.9997
  656MOL0     N88475   6.133   1.546  10.217  0.8746  0.6664  0.2104
  656MOL0     N88476   6.083   1.529  10.333  0.6474  1.1375  0.2471
  656MOL0     C88477   6.206   2.382  10.592  0.7550  0.6823 -0.1855
  656MOL0     C88478   6.294   2.493  10.605  0.6110  0.2609 -0.2027
  656MOL0     C88479   6.476   2.922  10.716 -0.7829 -0.4369 -0.6323
  656MOL0     C88480   6.581   2.854  10.784 -0.2162 -0.2664 -0.2125
  656MOL0     C88481   6.699   2.927  10.822  0.4467  0.4278 -0.1961
  656MOL0     C88482   6.716   3.062  10.790 -1.1401  0.1133 -0.3506
  656MOL0     O88483   6.822   3.141  10.815 -0.0258  1.0596  0.2062
  656MOL0     C88484   6.910   3.116  10.920 -0.1414 -0.1498  0.3311
  656MOL0     C88485   6.997   3.243  10.943  0.9884 -0.7553  0.8022
  656MOL0     C88486   7.092   3.223  11.059 -0.0542 -0.9012 -0.2821
  656MOL0     C88487   7.206   3.323  11.058  0.4005 -0.7644 -0.1868
  656MOL0     C88488   7.292   3.329  11.176  0.7681  0.9684  0.4685
  656MOL0     C88489   7.364   3.350  11.269 -0.5218  0.3112 -0.2128
  656MOL0     C88490   6.606   3.122  10.734  0.4695 -0.0922  1.1577
  656MOL0     C88491   6.491   3.058  10.677  0.1556  0.0548 -0.5058
  656MOL0     C88492   6.411   3.134  10.572 -0.4957  0.7147  0.4954
  656MOL0     H88493   6.110   2.719  10.769  1.9844  0.8286  0.7802
  656MOL0     H88494   5.946   2.505  10.744  1.0581  0.7596 -0.2783
  656MOL0     H88495   6.087   2.170  10.503 -1.5713 -0.9544 -0.7799
  656MOL0     H88496   6.072   2.114  10.663  2.1917  2.1362  1.7541
  656MOL0     H88497   5.838   2.118  10.447  0.3977 -0.1367 -0.3558
  656MOL0     H88498   5.810   2.102  10.620  0.4530 -0.9646  1.6547
  656MOL0     H88499   5.945   1.909  10.651  1.3779  0.7226  1.2089
  656MOL0     H88500   6.013   1.918  10.499  0.5408  2.5487 -2.9206
  656MOL0     H88501   5.705   1.876  10.553  0.2948 -2.7116  1.1866
  656MOL0     H88502   5.787   1.894  10.399 -1.6606 -0.8600 -0.3202
  656MOL0     H88503   5.943   1.697  10.506  0.1524  1.5935  2.0345
  656MOL0     H88504   5.802   1.653  10.604  0.4760  0.4294  1.1103
  656MOL0     H88505   5.657   1.668  10.416  1.9546  1.6324  4.2726
  656MOL0     H88506   5.798   1.655  10.306  0.9505  2.2518  1.5079
  656MOL0     H88507   5.706   1.426  10.332 -1.8029 -2.7164  2.3591
  656MOL0     H88508   5.693   1.446  10.501 -0.6494 -1.1357 -0.0427
  656MOL0     H88509   5.946   1.468  10.519 -1.0922  3.0359 -1.0814
  656MOL0     H88510   5.893   1.300  10.457 -2.0652 -0.4801 -2.5693
  656MOL0     H88511   5.915   1.301  10.176 -0.6967 -0.9116  1.7797
  656MOL0     H88512   5.997   1.442   9.929  0.6837  2.0352 -0.7080
  656MOL0     H88513   6.147   1.527   9.926  1.1842 -0.3953  0.8126
  656MOL0     H88514   6.198   1.320   9.836 -1.1371  1.3466 -0.2974
  656MOL0     H88515   6.245   1.293  10.005  1.3403  0.0911 -1.1907
  656MOL0     H88516   6.088   1.159  10.068 -0.3548  0.2360 -0.2721
  656MOL0     H88517   6.112   1.103   9.897  0.8531  1.0163 -1.3307
  656MOL0     H88518   5.925   1.238   9.814 -0.7649  2.8923  1.9603
  656MOL0     H88519   5.882   1.279   9.973 -1.6193  0.6387 -2.1107
  656MOL0     H88520   5.944   0.936  10.107  0.6202  1.0164  0.8606
  656MOL0     H88521   5.887   0.942  10.342  2.0508  2.8922  0.5640
  656MOL0     H88522   5.673   1.296  10.681 -0.7954 -0.8530 -0.8583
  656MOL0     H88523   5.627   1.307  10.933 -0.7749  0.2841  1.5665
  656MOL0     H88524   5.458   0.984  11.205 -1.0258 -0.3218  0.7569
  656MOL0     H88525   5.578   0.940  11.089 -3.3369  0.1319 -0.6594
  656MOL0     H88526   5.710   0.976  11.277 -0.6559  0.3520 -0.0864
  656MOL0     H88527   5.726   1.129  11.181  0.3365 -0.1337 -0.7126
  656MOL0     H88528   5.556   1.224  11.336 -0.9437 -1.1353 -1.8927
  656MOL0     H88529   5.553   1.067  11.431 -0.8616  0.2334 -1.2142
  656MOL0     H88530   5.772   1.102  11.501  1.3287 -0.7749 -0.6970
  656MOL0     H88531   5.673   1.258  11.521 -0.1084 -0.0349 -0.4219
  656MOL0     H88532   5.807   1.347  11.336  2.2630  2.3676  2.5978
  656MOL0     H88533   5.888   1.195  11.302  3.2373  0.3567  0.1941
  656MOL0     H88534   6.019   1.195  11.510  1.3863  1.5722 -0.3239
  656MOL0     H88535   6.029   1.347  11.417 -0.6221 -1.1289 -2.3887
  656MOL0     H88536   5.877   1.290  11.669  0.6695  0.5957  0.2525
  656MOL0     H88537   5.857   1.442  11.578 -0.8685 -0.6043 -2.6974
  656MOL0     H88538   6.066   1.442  11.765  3.2526 -1.4786 -0.0916
  656MOL0     H88539   6.148   1.360  11.640 -0.6337 -0.4521 -3.4145
  656MOL0     H88540   5.379   0.971  10.905 -1.8040 -0.5733 -1.3608
  656MOL0     H88541   5.406   0.970  10.644  1.2850  0.4591 -0.3249
  656MOL0     H88542   5.554   1.201  10.247 -0.8692 -1.8095  0.6613
  656MOL0     H88543   5.611   1.199  10.024  1.4593  0.2655 -0.7015
  656MOL0     H88544   6.238   2.289  10.548  2.3701  0.5295  1.2051
  656MOL0     H88545   6.395   2.473  10.570  1.0413  3.4789 -1.2238
  656MOL0     H88546   6.582   2.748  10.809 -0.3734 -0.4601 -1.0104
  656MOL0     H88547   6.778   2.870  10.869 -0.2838 -0.1499  0.3650
  656MOL0     H88548   6.982   3.037  10.897  0.6862  0.8599 -0.6389
  656MOL0     H88549   6.853   3.095  11.011 -1.2522 -1.7401 -0.6621
  656MOL0     H88550   6.928   3.320  10.977  2.6246 -0.8638  4.9543
  656MOL0     H88551   7.047   3.269  10.849  3.6381  2.1515  2.8248
  656MOL0     H88552   7.137   3.123  11.057  0.5262 -0.7118  1.3977
  656MOL0     H88553   7.034   3.238  11.151 -1.1125  1.0220 -1.2091
  656MOL0     H88554   7.262   3.298  10.967 -0.0325 -0.5961 -0.5092
  656MOL0     H88555   7.165   3.425  11.054  3.1425  0.4309 -0.5614
  656MOL0     H88556   7.410   3.406  11.348 -0.4364  0.2126 -0.1938
  656MOL0     H88557   6.638   3.222  10.704  0.6707 -0.4148  0.2544
  656MOL0     H88558   6.439   3.239  10.555 -0.1026  0.7158  1.1421
  656MOL0     H88559   6.417   3.069  10.484  0.1851  0.5479  0.6619
  656MOL0     H88560   6.305   3.135  10.601 -1.9111 -3.0806 -3.4961
  657MOL0     O88561   2.102   6.338   9.242 -0.4402  0.2530  0.1393
  657MOL0     C88562   2.105   6.231   9.294 -0.5790  0.4141 -0.4403
  657MOL0     O88563   2.049   6.192   9.415  0.4842 -1.1102 -0.3152
  657MOL0     C88564   1.985   6.289   9.482  0.6415  0.2265 -0.1941
  657MOL0     C88565   1.844   6.300   9.472  0.2357 -0.9153 -0.0834
  657MOL0     C88566   1.783   6.399   9.553  0.4477  0.1109  0.5642
  657MOL0     C88567   1.850   6.474   9.644  0.1700 -0.7772 -0.3350
  657MOL0     O88568   1.776   6.562   9.723  0.1887 -0.4491  0.8446
  657MOL0     C88569   1.797   6.537   9.868 -0.0231 -0.8936  0.3178
  657MOL0     C88570   1.686   6.439   9.909  0.2501 -0.9269 -0.5919
  657MOL0     C88571   1.734   6.293   9.949 -0.8350 -0.0039  0.6199
  657MOL0     C88572   1.621   6.198   9.973 -0.6869  0.5077 -0.3130
  657MOL0     C88573   1.510   6.176   9.872 -0.2282 -1.1677 -0.6152
  657MOL0     C88574   1.563   6.126   9.740 -0.5784 -0.1788 -0.6354
  657MOL0     C88575   1.449   6.127   9.640  0.2400 -0.7099  0.1439
  657MOL0     C88576   1.344   6.015   9.665  0.0058  0.3483 -0.0148
  657MOL0     N88577   1.237   6.033   9.559 -0.1490 -0.0458  0.6245
  657MOL0     C88578   1.126   6.122   9.557 -0.0655 -0.0968  0.2455
  657MOL0     C88579   1.062   6.082   9.452  0.3744 -0.5456  0.5428
  657MOL0     C88580   0.932   6.146   9.414  0.1688  0.1057  0.5757
  657MOL0     C88581   0.824   6.051   9.358  0.3171 -0.2264  0.2943
  657MOL0     C88582   0.747   5.961   9.462 -0.0490 -0.3463 -0.3601
  657MOL0     C88583   0.807   5.820   9.465  0.8059  0.2616 -0.1145
  657MOL0     O88584   0.702   5.734   9.512  0.4097  0.6035  0.3485
  657MOL0     C88585   0.717   5.599   9.504 -0.1642  0.4008 -0.1810
  657MOL0     C88586   0.836   5.533   9.471 -0.1501  0.3435 -0.3169
  657MOL0     C88587   0.850   5.391   9.457  0.6675 -0.2499  0.2121
  657MOL0     C88588   0.739   5.314   9.468  0.6873 -0.4024  0.5775
  657MOL0     C88589   0.750   5.161   9.476 -0.5106  1.2001  0.1840
  657MOL0     O88590   0.647   5.095   9.539  0.1061 -0.3828 -0.1678
  657MOL0     C88591   0.623   4.959   9.523 -0.3990  0.1993 -0.9024
  657MOL0     C88592   0.566   4.897   9.628  0.4921 -0.5347 -0.7679
  657MOL0     C88593   0.547   4.764   9.641 -0.7598  0.0067  0.8413
  657MOL0     C88594   0.590   4.681   9.529  0.1560  0.7414 -1.2512
  657MOL0     O88595   0.574   4.540   9.515  0.1166 -0.2568 -0.7215
  657MOL0     C88596   0.570   4.468   9.641 -0.5776  1.6812 -0.1668
  657MOL0     C88597   0.650   4.340   9.635  0.0833  1.5955  0.5069
  657MOL0     C88598   0.662   4.260   9.770  0.6046  0.2896  0.1697
  657MOL0     C88599   0.754   4.146   9.730 -0.3263 -0.0224  0.9557
  657MOL0     C88600   0.903   4.188   9.708 -0.8483 -0.4980  0.3075
  657MOL0     C88601   0.999   4.070   9.699  0.4015  0.3948  0.0428
  657MOL0     C88602   1.024   4.011   9.839 -0.1944 -0.6502 -0.0653
  657MOL0     C88603   1.064   4.111   9.947 -0.1171 -0.6605  0.4557
  657MOL0    Cl88604   1.121   4.032  10.096  0.3380 -0.2005  0.2627
  657MOL0     C88605   0.636   4.743   9.415  0.5722 -0.9047 -0.3123
  657MOL0     C88606   0.650   4.883   9.409  0.2823  0.5757 -0.7927
  657MOL0     O88607   0.849   5.099   9.431 -0.1106 -0.1667 -0.6219
  657MOL0     C88608   0.618   5.380   9.502  0.1329 -0.6301  1.6311
  657MOL0     C88609   0.602   5.520   9.515 -0.9234  0.3555  0.1083
  657MOL0     N88610   1.129   5.988   9.388 -0.1016 -0.0314  0.8470
  657MOL0     N88611   1.234   5.954   9.448  0.8014  0.0906  0.0514
  657MOL0     C88612   1.986   6.462   9.653 -0.8427  0.4837 -0.0493
  657MOL0     C88613   2.054   6.367   9.571  0.8807 -0.6937 -0.3389
  657MOL0     C88614   2.178   6.125   9.235 -0.1443  0.6459  0.9822
  657MOL0     C88615   2.271   6.050   9.310 -0.6054  0.5477  0.4238
  657MOL0     C88616   2.339   5.941   9.261  0.9250  0.6607  0.3657
  657MOL0     C88617   2.322   5.900   9.126  0.7047  0.3991 -0.5742
  657MOL0     O88618   2.383   5.784   9.087 -0.1435 -0.9713 -0.0544
  657MOL0     C88619   2.324   5.712   8.968 -0.1018  0.4879 -1.1344
  657MOL0     C88620   2.186   5.659   9.002  0.1093  1.0013  0.3977
  657MOL0     C88621   2.198   5.547   9.119  0.6578 -0.8334 -0.3095
  657MOL0     C88622   2.152   5.590   9.260  0.2798 -0.2398 -0.2956
  657MOL0     C88623   2.194   5.493   9.361 -0.7570  0.1949  0.1516
  657MOL0     C88624   2.200   5.427   9.467  0.3676 -0.6073  1.0138
  657MOL0     C88625   2.240   5.977   9.049  0.2306 -0.6226  0.3373
  657MOL0     C88626   2.161   6.083   9.102 -1.1398  0.0281  0.7163
  657MOL0     C88627   2.072   6.156   9.005 -0.3987 -0.2631  0.3943
  657MOL0     H88628   1.777   6.242   9.410 -1.2051  0.6111 -0.0079
  657MOL0     H88629   1.675   6.407   9.545  0.6186  0.5285 -2.2053
  657MOL0     H88630   1.895   6.500   9.900  0.8312  2.8396  2.7285
  657MOL0     H88631   1.798   6.631   9.924  0.5576 -1.5681  1.4803
  657MOL0     H88632   1.624   6.426   9.820  0.9906 -0.8707 -1.1314
  657MOL0     H88633   1.639   6.494   9.991  2.1069 -0.2471  0.0644
  657MOL0     H88634   1.801   6.289  10.035 -0.9755  2.4814  0.8921
  657MOL0     H88635   1.790   6.256   9.862  1.4330  0.9207  1.6099
  657MOL0     H88636   1.667   6.099   9.982 -1.3494 -0.0077 -2.0769
  657MOL0     H88637   1.574   6.229  10.066  0.2860  1.5126 -0.1350
  657MOL0     H88638   1.444   6.094   9.902 -1.2400 -0.3577 -0.5634
  657MOL0     H88639   1.443   6.262   9.857 -2.0948 -2.5211 -0.4268
  657MOL0     H88640   1.642   6.199   9.719  2.5891 -1.2205  5.2573
  657MOL0     H88641   1.617   6.031   9.755 -0.5721 -0.0048  0.5634
  657MOL0     H88642   1.497   6.101   9.545  2.7129  0.2513  1.0607
  657MOL0     H88643   1.410   6.226   9.614  2.0809 -0.4328 -1.8437
  657MOL0     H88644   1.386   5.915   9.649 -0.3533  0.4507 -1.8119
  657MOL0     H88645   1.305   6.019   9.767 -2.1118  2.2376 -0.8035
  657MOL0     H88646   1.094   6.198   9.628  2.0516  0.2715  0.8989
  657MOL0     H88647   0.883   6.192   9.500  0.3759  0.4509  0.5148
  657MOL0     H88648   0.953   6.229   9.346  2.8802 -0.6252  0.4223
  657MOL0     H88649   0.743   6.107   9.313  0.7485  2.5456  2.6773
  657MOL0     H88650   0.865   5.988   9.278 -0.8643  0.9372 -1.2871
  657MOL0     H88651   0.641   5.957   9.436 -0.7320 -0.3334  2.1782
  657MOL0     H88652   0.755   5.999   9.564 -2.8478 -4.2347  1.5940
  657MOL0     H88653   0.893   5.817   9.532  0.6777 -3.3266  0.0712
  657MOL0     H88654   0.834   5.785   9.365 -2.0977  1.6510 -1.5144
  657MOL0     H88655   0.926   5.594   9.471  1.1614 -1.4974  0.5360
  657MOL0     H88656   0.943   5.337   9.442 -0.3793 -1.7403 -1.3924
  657MOL0     H88657   0.540   4.956   9.715 -1.1986  3.1511 -3.5211
  657MOL0     H88658   0.516   4.741   9.743  0.3105 -1.7602  0.8054
  657MOL0     H88659   0.604   4.522   9.730  1.5114 -1.6965  1.2713
  657MOL0     H88660   0.470   4.425   9.653 -0.9081  1.1072 -3.8177
  657MOL0     H88661   0.596   4.277   9.564 -1.2311 -0.5949  3.2414
  657MOL0     H88662   0.752   4.366   9.606  1.6930 -1.7317  2.6184
  657MOL0     H88663   0.710   4.320   9.848 -3.0965  2.6018  0.9420
  657MOL0     H88664   0.569   4.216   9.807  0.5318 -2.3470 -2.8294
  657MOL0     H88665   0.716   4.099   9.639  2.1842  0.3232 -0.3722
  657MOL0     H88666   0.745   4.067   9.806 -2.5687  0.8637  1.6882
  657MOL0     H88667   0.925   4.267   9.781  0.7855 -0.6520  0.0147
  657MOL0     H88668   0.911   4.240   9.612 -3.9018  1.4371  0.9526
  657MOL0     H88669   0.958   3.991   9.636  2.0160  0.4905 -1.1921
  657MOL0     H88670   1.081   4.118   9.644 -0.6604  1.3292 -0.7555
  657MOL0     H88671   1.095   3.928   9.834 -2.5202 -2.7259 -0.3485
  657MOL0     H88672   0.938   3.963   9.887  0.0414 -1.7426 -0.7045
  657MOL0     H88673   1.139   4.173   9.897 -0.6312 -0.5050 -0.1481
  657MOL0     H88674   0.976   4.166   9.983 -0.6792 -1.7355  0.7524
  657MOL0     H88675   0.671   4.689   9.327  0.8987  1.1015 -1.4820
  657MOL0     H88676   0.719   4.917   9.332  0.7819 -0.7528 -0.9617
  657MOL0     H88677   0.535   5.314   9.526  1.8773 -3.7472 -0.3206
  657MOL0     H88678   0.504   5.558   9.542 -0.7503  0.9018 -0.0197
  657MOL0     H88679   2.048   6.515   9.724 -2.6183  0.3485  1.6851
  657MOL0     H88680   2.160   6.355   9.590  1.0760 -1.0778 -1.5932
  657MOL0     H88681   2.288   6.056   9.417  2.5786  0.5095  0.0048
  657MOL0     H88682   2.408   5.893   9.330 -1.0217  0.9049  2.5824
  657MOL0     H88683   2.393   5.636   8.930  0.1279 -0.7060  1.4987
  657MOL0     H88684   2.317   5.772   8.876 -0.1359  0.4569 -1.1520
  657MOL0     H88685   2.146   5.618   8.908  0.3346  0.1572  0.6663
  657MOL0     H88686   2.116   5.743   9.014 -1.0847  0.0837  0.0888
  657MOL0     H88687   2.300   5.506   9.119  0.5549 -1.1416 -1.4919
  657MOL0     H88688   2.131   5.465   9.092 -0.9074 -0.2898  1.7248
  657MOL0     H88689   2.202   5.683   9.289  0.3769  0.0966 -1.4902
  657MOL0     H88690   2.044   5.608   9.264 -0.2192 -2.9948  0.5884
  657MOL0     H88691   2.187   5.371   9.558  1.0709 -1.7109  0.4495
  657MOL0     H88692   2.216   5.951   8.947  1.6193 -1.4336  0.1981
  657MOL0     H88693   1.972   6.175   9.044 -0.7028  1.7059 -1.1322
  657MOL0     H88694   2.101   6.256   8.969 -3.9582 -0.0260 -2.4877
  657MOL0     H88695   2.068   6.095   8.914  0.1915 -3.1637  2.1984
  658MOL0     O88696   2.263   2.337   3.104 -0.0410 -0.1476 -0.1658
  658MOL0     C88697   2.362   2.383   3.047  0.1852 -0.5667  0.6443
  658MOL0     O88698   2.472   2.428   3.111  0.0700  0.2485  0.6120
  658MOL0     C88699   2.516   2.360   3.228  0.8598 -0.3566  0.3183
  658MOL0     C88700   2.628   2.414   3.289  0.4889 -0.5420  0.8261
  658MOL0     C88701   2.688   2.359   3.396 -0.1241 -0.6659  0.4543
  658MOL0     C88702   2.625   2.256   3.459  0.6928  0.6752 -0.4896
  658MOL0     O88703   2.672   2.219   3.579  0.3352  0.1176  0.1933
  658MOL0     C88704   2.780   2.121   3.573  0.3439  0.0335 -0.7710
  658MOL0     C88705   2.842   2.100   3.721  0.3696  0.0372 -0.8599
  658MOL0     C88706   2.770   1.982   3.793  0.7906 -0.4420 -0.0641
  658MOL0     C88707   2.610   1.972   3.763 -0.6896  0.0104 -0.7417
  658MOL0     C88708   2.543   1.879   3.862  0.1692 -0.1230 -0.3882
  658MOL0     C88709   2.385   1.888   3.844 -0.3700 -0.5404  0.6032
  658MOL0     C88710   2.338   1.786   3.740  0.1598 -0.4227  0.3269
  658MOL0     C88711   2.188   1.823   3.730  0.8288  0.9115  0.4952
  658MOL0     N88712   2.175   1.931   3.634  0.2338  0.1670 -0.0635
  658MOL0     C88713   2.196   1.934   3.495 -0.4726  0.4840 -0.0893
  658MOL0     C88714   2.123   2.049   3.457 -0.1765  0.3034  0.5909
  658MOL0     C88715   2.081   2.090   3.317 -0.7181  0.0569  0.1031
  658MOL0     C88716   1.945   2.036   3.273  0.5176  0.4454 -0.4762
  658MOL0     C88717   1.886   2.117   3.162  0.0753 -0.5003 -0.2330
  658MOL0     C88718   1.744   2.067   3.115 -0.3796 -0.1442  0.3894
  658MOL0     O88719   1.649   2.036   3.216  0.5250  0.2121  0.1097
  658MOL0     C88720   1.518   2.071   3.185  0.1606 -1.0427  0.4212
  658MOL0     C88721   1.432   2.042   3.286  0.5863  0.2371  1.1963
  658MOL0     C88722   1.290   2.035   3.264  0.6164  0.5415 -0.7933
  658MOL0     C88723   1.235   2.066   3.131 -0.4766  0.1845  0.4004
  658MOL0     C88724   1.084   2.065   3.109  0.5212 -0.3030  0.4609
  658MOL0     O88725   1.012   2.032   3.218  0.0172  0.3130  0.2123
  658MOL0     C88726   0.871   2.020   3.233  0.5604 -0.7087 -0.5239
  658MOL0     C88727   0.776   2.061   3.137  0.3085 -0.4920  1.2522
  658MOL0     C88728   0.644   2.037   3.162 -0.5397 -0.6745 -0.3370
  658MOL0     C88729   0.601   1.981   3.286  0.3324  0.5883 -0.0488
  658MOL0     O88730   0.472   1.958   3.329  0.2131  0.0948  0.3211
  658MOL0     C88731   0.399   2.081   3.364 -0.2496  0.8775 -0.3865
  658MOL0     C88732   0.249   2.060   3.374 -0.4151 -0.7535 -0.4001
  658MOL0     C88733   0.178   2.020   3.250 -0.5078  0.1611  0.7473
  658MOL0     C88734   0.020   2.043   3.255 -0.3543 -0.6403 -0.0707
  658MOL0     C88735  -0.046   1.970   3.133  1.0118  0.4759  0.6109
  658MOL0     C88736  -0.122   1.840   3.174 -0.1592  0.6097  0.3504
  658MOL0     C88737  -0.203   1.781   3.058  0.2134 -0.0310  0.3844
  658MOL0     C88738  -0.286   1.657   3.101 -0.3029 -0.3181  0.5175
  658MOL0    Cl88739  -0.367   1.596   2.946 -0.4021 -0.1463  0.2201
  658MOL0     C88740   0.696   1.955   3.383 -0.6334  0.3590  0.4625
  658MOL0     C88741   0.827   1.965   3.355 -0.8329 -1.4414 -0.0266
  658MOL0     O88742   1.035   2.091   2.997 -1.5977  0.3629 -0.2575
  658MOL0     C88743   1.327   2.081   3.030  0.1077 -0.6540  0.0358
  658MOL0     C88744   1.464   2.089   3.054  0.1641  0.2223 -0.2923
  658MOL0     N88745   2.074   2.112   3.569  0.6860 -0.5021 -0.4553
  658MOL0     N88746   2.106   2.043   3.674  0.2231  0.2753 -0.0335
  658MOL0     C88747   2.515   2.199   3.399 -0.4605  0.2071  0.7550
  658MOL0     C88748   2.466   2.243   3.279 -0.7485  0.3033  0.2356
  658MOL0     C88749   2.339   2.419   2.900 -0.3346  0.4286  0.4783
  658MOL0     C88750   2.426   2.511   2.851 -0.8231  0.2839  0.4499
  658MOL0     C88751   2.414   2.559   2.718  0.7424  0.7305 -0.8298
  658MOL0     C88752   2.322   2.502   2.634  0.7224 -1.2410  0.2534
  658MOL0     O88753   2.335   2.549   2.499  0.2888 -0.7373  0.3582
  658MOL0     C88754   2.232   2.504   2.404 -1.7734  0.1319  0.2905
  658MOL0     C88755   2.262   2.556   2.266 -1.5546 -0.6004  0.1818
  658MOL0     C88756   2.402   2.509   2.207 -0.5561 -0.3728 -0.9502
  658MOL0     C88757   2.440   2.356   2.200 -0.5744  0.3653  0.3328
  658MOL0     C88758   2.349   2.294   2.101 -0.2465  0.4390 -1.5167
  658MOL0     C88759   2.289   2.250   2.013  0.0751  0.0349 -0.1173
  658MOL0     C88760   2.230   2.409   2.686  0.2053  0.5130  0.0247
  658MOL0     C88761   2.242   2.367   2.818  0.3572  1.0770  0.2468
  658MOL0     C88762   2.136   2.264   2.855 -0.7746  0.4381 -0.5721
  658MOL0     H88763   2.649   2.511   3.246 -3.0310 -0.2957 -0.7521
  658MOL0     H88764   2.761   2.421   3.447 -0.9780  1.1962 -0.5166
  658MOL0     H88765   2.752   2.023   3.535  1.5209  0.7310 -3.7636
  658MOL0     H88766   2.864   2.160   3.515  0.8434  0.5517  0.2690
  658MOL0     H88767   2.839   2.192   3.781 -0.2919 -2.9887  4.4123
  658MOL0     H88768   2.946   2.069   3.714  0.6343  0.6386  0.2695
  658MOL0     H88769   2.780   2.003   3.900 -4.8408  0.2777  0.6284
  658MOL0     H88770   2.816   1.891   3.754 -1.1387 -0.7133 -1.8603
  658MOL0     H88771   2.552   2.065   3.767 -0.5979  0.0340  0.7540
  658MOL0     H88772   2.606   1.936   3.660  0.6474  1.1387 -1.2228
  658MOL0     H88773   2.578   1.777   3.850 -2.4897 -1.1178 -0.4165
  658MOL0     H88774   2.561   1.918   3.963 -1.5946  4.9340 -1.7042
  658MOL0     H88775   2.334   1.873   3.939 -3.1300 -1.0184 -0.8573
  658MOL0     H88776   2.362   1.990   3.811 -0.5773 -0.8958 -0.3997
  658MOL0     H88777   2.350   1.684   3.777 -1.5611 -1.5731 -2.0251
  658MOL0     H88778   2.394   1.794   3.646  0.8568 -1.6306  0.6191
  658MOL0     H88779   2.121   1.742   3.700  0.1242  1.9667 -0.8990
  658MOL0     H88780   2.145   1.852   3.826  0.3254  1.5890  0.0691
  658MOL0     H88781   2.225   1.850   3.432 -1.1350 -0.5540  0.9386
  658MOL0     H88782   2.078   2.199   3.323 -1.5733 -0.0203  1.5408
  658MOL0     H88783   2.156   2.059   3.243 -1.0026 -2.5169  0.7840
  658MOL0     H88784   1.969   1.935   3.238  0.9071  0.4458 -0.2181
  658MOL0     H88785   1.878   2.037   3.360  1.4214 -1.7535  0.3159
  658MOL0     H88786   1.958   2.103   3.081  0.3600  2.8015 -0.6936
  658MOL0     H88787   1.870   2.224   3.182  1.9198 -0.0035 -1.1442
  658MOL0     H88788   1.740   1.972   3.060 -0.9717 -0.0894  0.3302
  658MOL0     H88789   1.704   2.145   3.049 -2.7598 -0.0004  1.8804
  658MOL0     H88790   1.472   2.015   3.383 -0.1164 -0.4880  1.3028
  658MOL0     H88791   1.214   2.002   3.334  2.1809 -0.9332  0.2621
  658MOL0     H88792   0.814   2.100   3.043  1.9925 -1.3332  1.5357
  658MOL0     H88793   0.571   2.056   3.084  1.4403  0.1382 -2.1388
  658MOL0     H88794   0.450   2.105   3.458 -1.0740 -1.5544  0.7659
  658MOL0     H88795   0.420   2.156   3.286  0.7234 -1.6071 -2.6579
  658MOL0     H88796   0.218   1.981   3.444 -0.5749 -0.7929 -0.5144
  658MOL0     H88797   0.198   2.148   3.415  1.9891 -0.5808  2.6132
  658MOL0     H88798   0.206   2.085   3.166 -3.5230  1.3104  0.5155
  658MOL0     H88799   0.197   1.915   3.228  0.2153  0.3084  0.6149
  658MOL0     H88800   0.007   2.151   3.245  4.9574  0.4894  1.7939
  658MOL0     H88801  -0.023   2.007   3.349 -0.9707 -3.6988 -1.3834
  658MOL0     H88802   0.025   1.934   3.058 -1.2676  0.6126 -1.7840
  658MOL0     H88803  -0.106   2.050   3.088 -0.4212 -2.8471 -4.2055
  658MOL0     H88804  -0.054   1.761   3.207  0.4371 -1.1922 -4.4334
  658MOL0     H88805  -0.180   1.872   3.262 -1.0867  0.3319 -0.1486
  658MOL0     H88806  -0.121   1.753   2.992 -0.2757  1.1253 -0.7707
  658MOL0     H88807  -0.270   1.849   3.003 -0.0831 -1.1783 -0.7219
  658MOL0     H88808  -0.213   1.591   3.150 -0.3014 -1.5220 -1.0256
  658MOL0     H88809  -0.360   1.685   3.176  2.6046  2.7741  2.5193
  658MOL0     H88810   0.659   1.927   3.482 -2.1791  1.1627  0.1423
  658MOL0     H88811   0.912   1.947   3.421  0.5874 -2.9128 -2.1451
  658MOL0     H88812   1.303   2.078   2.924  4.0997 -0.2585 -1.0237
  658MOL0     H88813   1.523   2.094   2.962 -0.0665  0.2441 -0.4400
  658MOL0     H88814   2.471   2.119   3.459  0.7165 -0.6418  0.5114
  658MOL0     H88815   2.387   2.177   3.244  0.8174 -1.3593 -0.3236
  658MOL0     H88816   2.511   2.532   2.915 -0.6511 -2.2360  1.1624
  658MOL0     H88817   2.478   2.636   2.675  0.7309  0.9612 -0.4386
  658MOL0     H88818   2.129   2.523   2.437 -0.6551  2.3321  2.9165
  658MOL0     H88819   2.237   2.397   2.385 -0.5292  0.7464 -3.7183
  658MOL0     H88820   2.265   2.665   2.263  0.5359 -0.6237 -0.5016
  658MOL0     H88821   2.182   2.524   2.199 -0.6504 -0.5137 -0.9675
  658MOL0     H88822   2.475   2.568   2.262  0.5296 -0.1713 -2.5329
  658MOL0     H88823   2.417   2.560   2.111  2.2595 -0.5335 -0.6666
  658MOL0     H88824   2.539   2.340   2.158 -0.8201  1.2864 -0.6501
  658MOL0     H88825   2.429   2.322   2.304 -0.9889  4.7179  1.9407
  658MOL0     H88826   2.233   2.213   1.930  0.3067 -0.7785  0.0790
  658MOL0     H88827   2.165   2.368   2.609 -0.4744  0.5450  0.5817
  658MOL0     H88828   2.179   2.178   2.907  1.0296  0.3125 -2.1590
  658MOL0     H88829   2.057   2.310   2.916 -2.5328 -2.2931 -0.5977
  658MOL0     H88830   2.087   2.224   2.765 -0.1495 -1.5271 -0.0973
  659MOL0     O88831  10.614   5.696   0.591  0.8249  0.2511 -0.4083
  659MOL0     C88832  10.614   5.571   0.580  0.0284 -0.3366 -1.0781
  659MOL0     O88833  10.518   5.495   0.515 -0.1870 -0.0714 -0.7415
  659MOL0     C88834  10.425   5.556   0.442  0.3968  0.2983  0.3870
  659MOL0     C88835  10.292   5.546   0.478  0.5490 -0.2034  0.1986
  659MOL0     C88836  10.197   5.586   0.389 -0.1773  0.0485 -0.0808
  659MOL0     C88837  10.227   5.631   0.262 -0.0786  1.2477 -0.4721
  659MOL0     O88838  10.119   5.674   0.192 -0.6047 -0.4167 -0.0143
  659MOL0     C88839  10.131   5.745   0.074 -0.6152  0.0125  0.3040
  659MOL0     C88840  10.174   5.884   0.092  1.0772 -0.8130 -0.2359
  659MOL0     C88841  10.140   5.961  -0.031 -0.3967 -0.6304  0.6672
  659MOL0     C88842  10.168   6.104   0.004 -0.1618 -0.5366  1.0905
  659MOL0     C88843  10.316   6.144  -0.013  0.4497 -0.1219 -0.5113
  659MOL0     C88844  10.329   6.301   0.002  0.0952 -0.7047 -0.0124
  659MOL0     C88845  10.295   6.335   0.152  0.0410 -1.1105 -0.1356
  659MOL0     C88846  10.338   6.485   0.170 -0.4761 -0.5222  0.2743
  659MOL0     N88847  10.243   6.577   0.109 -0.3638 -0.6229  0.0576
  659MOL0     C88848  10.116   6.598   0.164 -1.0098 -0.0047 -0.6218
  659MOL0     C88849  10.069   6.695   0.084 -0.2403 -0.2656  0.0689
  659MOL0     C88850   9.945   6.767   0.111  0.0138  0.7284 -0.1005
  659MOL0     C88851   9.821   6.683   0.117 -1.0653  0.3163  1.3699
  659MOL0     C88852   9.784   6.626  -0.021  0.6950 -0.1877 -0.6339
  659MOL0     C88853   9.701   6.726  -0.105  0.2528 -0.4981  0.4653
  659MOL0     O88854   9.590   6.787  -0.035  0.2907 -0.3034 -0.2295
  659MOL0     C88855   9.466   6.723  -0.031  0.7580 -0.0290 -0.3275
  659MOL0     C88856   9.434   6.600  -0.095  1.0687 -0.7486 -0.4409
  659MOL0     C88857   9.313   6.538  -0.084 -0.0474  0.0797 -0.3046
  659MOL0     C88858   9.205   6.609  -0.021 -1.2723 -0.3329 -0.2873
  659MOL0     C88859   9.067   6.566  -0.038  0.2131 -1.3216  0.9301
  659MOL0     O88860   8.973   6.592   0.067  0.3935  0.1072 -0.0635
  659MOL0     C88861   8.848   6.549   0.045  0.1770 -0.3623 -0.1399
  659MOL0     C88862   8.749   6.646   0.008 -0.2025  0.6236 -0.4051
  659MOL0     C88863   8.613   6.618   0.004  0.3544  0.5609 -0.3980
  659MOL0     C88864   8.567   6.491   0.038  0.3119  0.0775 -0.0198
  659MOL0     O88865   8.434   6.460   0.041 -0.0279  0.0914  0.2074
  659MOL0     C88866   8.392   6.411   0.175  1.4328 -0.1033  0.1967
  659MOL0     C88867   8.317   6.511   0.252 -0.0973  0.0167 -0.8294
  659MOL0     C88868   8.409   6.612   0.308 -0.6017 -0.3725  0.1393
  659MOL0     C88869   8.507   6.552   0.404 -0.2369  0.1386  0.7474
  659MOL0     C88870   8.579   6.645   0.500 -0.6619 -0.9357  0.4490
  659MOL0     C88871   8.701   6.703   0.431 -0.0531 -0.7462  0.6612
  659MOL0     C88872   8.825   6.667   0.512 -0.4721 -0.6878  0.3887
  659MOL0     C88873   8.950   6.692   0.439 -0.1428 -0.1034 -0.8711
  659MOL0    Cl88874   9.085   6.636   0.555  0.3554  0.2431 -0.0935
  659MOL0     C88875   8.667   6.390   0.075 -0.1493 -0.1028 -0.0226
  659MOL0     C88876   8.804   6.428   0.076 -0.0600 -0.2122 -0.3186
  659MOL0     O88877   9.041   6.500  -0.145 -0.1798 -0.3241 -0.1317
  659MOL0     C88878   9.230   6.733   0.050  0.1091 -0.5991  0.2935
  659MOL0     C88879   9.364   6.784   0.048  0.1986 -0.4518  0.4988
  659MOL0     N88880  10.159   6.738  -0.018 -0.0186 -0.3494 -0.3250
  659MOL0     N88881  10.263   6.657   0.004  0.3333 -0.6032 -0.1206
  659MOL0     C88882  10.361   5.641   0.225  0.3849 -0.1209 -0.2037
  659MOL0     C88883  10.458   5.598   0.317 -1.1644  0.0536  0.1081
  659MOL0     C88884  10.738   5.486   0.623 -0.2904 -0.2104  0.8285
  659MOL0     C88885  10.761   5.364   0.554 -0.6569 -1.0537 -0.3884
  659MOL0     C88886  10.884   5.300   0.564 -0.1018 -0.8306  0.6042
  659MOL0     C88887  10.981   5.357   0.650 -0.3963  0.3386 -0.3596
  659MOL0     O88888  11.114   5.294   0.665  1.0141 -0.1141 -0.4034
  659MOL0     C88889  11.158   5.190   0.585  0.1290  0.4022 -0.3591
  659MOL0     C88890  11.122   5.059   0.657  0.4760 -0.0194 -0.2575
  659MOL0     C88891  11.127   4.938   0.567 -0.4613  1.4530 -1.0205
  659MOL0     C88892  10.985   4.907   0.497  0.3974 -0.2324  0.4206
  659MOL0     C88893  10.995   4.798   0.399  0.5996 -0.2590 -0.1473
  659MOL0     C88894  11.016   4.713   0.320 -0.3215  0.4952  0.3715
  659MOL0     C88895  10.951   5.479   0.719 -0.2785  1.0942  0.4141
  659MOL0     C88896  10.830   5.538   0.708  0.7277 -0.0854  0.0053
  659MOL0     C88897  10.812   5.658   0.799  0.1956  0.6463 -0.4175
  659MOL0     H88898  10.269   5.525   0.582 -2.1935  2.4580  0.2532
  659MOL0     H88899  10.092   5.585   0.417  0.4492  1.9490  2.8485
  659MOL0     H88900  10.183   5.688  -0.004 -1.4026  2.5618 -2.2289
  659MOL0     H88901  10.025   5.740   0.047 -0.5824 -0.0024  0.1795
  659MOL0     H88902  10.280   5.902   0.111  0.1144  3.0334  2.7770
  659MOL0     H88903  10.104   5.917   0.169 -2.8530 -0.0826 -3.7652
  659MOL0     H88904  10.033   5.945  -0.050 -0.8798 -0.9234  3.2428
  659MOL0     H88905  10.208   5.942  -0.115 -0.9547 -0.9362  0.2784
  659MOL0     H88906  10.112   6.178  -0.053 -0.9959 -1.4605  0.6912
  659MOL0     H88907  10.131   6.134   0.103 -0.2085  1.8312  0.4224
  659MOL0     H88908  10.384   6.096   0.058 -0.1189  0.1936  0.2694
  659MOL0     H88909  10.339   6.119  -0.117 -0.0876 -0.5909 -0.5201
  659MOL0     H88910  10.422   6.347  -0.033  0.9487 -3.2016 -1.2331
  659MOL0     H88911  10.252   6.346  -0.061 -0.1486  0.9122  1.3726
  659MOL0     H88912  10.337   6.263   0.223  1.5207 -0.1049  0.0518
  659MOL0     H88913  10.187   6.331   0.167 -0.0138 -1.3827 -0.5576
  659MOL0     H88914  10.334   6.514   0.276  2.7035  1.4834 -0.0224
  659MOL0     H88915  10.442   6.502   0.140  0.1091 -0.9873  1.8816
  659MOL0     H88916  10.078   6.561   0.259  1.7308  0.4477  0.7699
  659MOL0     H88917   9.966   6.822   0.203 -0.5201  2.4895 -0.9785
  659MOL0     H88918   9.926   6.850   0.042 -1.6365 -0.2434 -0.8742
  659MOL0     H88919   9.845   6.593   0.175 -0.9111 -2.3758 -2.4877
  659MOL0     H88920   9.740   6.741   0.161  0.0744  3.6462 -0.5758
  659MOL0     H88921   9.721   6.537  -0.012  0.8432 -0.4854 -2.2449
  659MOL0     H88922   9.875   6.589  -0.068  0.0041 -1.7414 -0.8254
  659MOL0     H88923   9.678   6.687  -0.204  0.6927 -0.5169  0.3656
  659MOL0     H88924   9.766   6.813  -0.122 -3.1185  3.0091  3.5150
  659MOL0     H88925   9.508   6.556  -0.161  2.0418  0.5417 -0.2518
  659MOL0     H88926   9.290   6.447  -0.138  1.0618  0.4726 -1.4879
  659MOL0     H88927   8.778   6.743  -0.032  0.5383  1.1916  1.3992
  659MOL0     H88928   8.533   6.684  -0.031 -2.5909 -1.3970  2.1138
  659MOL0     H88929   8.318   6.340   0.136  1.6724 -1.0630  1.4375
  659MOL0     H88930   8.462   6.352   0.235  1.7263 -0.6556 -0.6651
  659MOL0     H88931   8.240   6.561   0.192 -1.8903 -2.1394 -0.4219
  659MOL0     H88932   8.267   6.461   0.336  0.6703 -0.6908 -0.7793
  659MOL0     H88933   8.455   6.679   0.235 -1.2669  0.8361  0.7963
  659MOL0     H88934   8.343   6.674   0.369 -0.6965 -0.7646  0.4412
  659MOL0     H88935   8.582   6.487   0.358  0.2878 -0.9408  2.9807
  659MOL0     H88936   8.439   6.499   0.471  1.9026  0.4561  3.3338
  659MOL0     H88937   8.617   6.598   0.592  0.5357  3.1411  2.2591
  659MOL0     H88938   8.515   6.721   0.544  0.7537  0.1691  0.6860
  659MOL0     H88939   8.716   6.657   0.333  1.2658  2.1029 -0.5767
  659MOL0     H88940   8.696   6.812   0.429  4.1810 -0.3498  1.7661
  659MOL0     H88941   8.824   6.560   0.539  3.7025 -1.1248 -0.5317
  659MOL0     H88942   8.827   6.729   0.602  0.1035 -0.5651  0.2891
  659MOL0     H88943   8.957   6.636   0.346  4.5263 -0.6156 -0.4303
  659MOL0     H88944   8.978   6.797   0.425 -2.3698  0.7014  0.2296
  659MOL0     H88945   8.624   6.293   0.097 -1.5545  0.2362 -1.1089
  659MOL0     H88946   8.878   6.353   0.102  0.2544  0.2026 -0.0016
  659MOL0     H88947   9.148   6.783   0.101 -0.3424 -1.8609  0.8446
  659MOL0     H88948   9.382   6.865   0.118  1.9354 -0.2954 -0.0813
  659MOL0     H88949  10.374   5.682   0.126 -0.0162  0.3506 -0.0686
  659MOL0     H88950  10.563   5.609   0.296 -0.4485 -1.5945  2.4145
  659MOL0     H88951  10.691   5.306   0.495 -0.5484 -0.7954 -0.7671
  659MOL0     H88952  10.905   5.203   0.522  1.6316  0.0657 -0.7074
  659MOL0     H88953  11.267   5.194   0.580  0.4429 -3.0142  0.7779
  659MOL0     H88954  11.123   5.195   0.482  1.7954 -1.3923 -1.0944
  659MOL0     H88955  11.019   5.061   0.694  1.1254  0.0585  1.6818
  659MOL0     H88956  11.179   5.061   0.750 -0.0619  4.1138  0.1507
  659MOL0     H88957  11.134   4.855   0.638  1.2689  3.4565  1.3376
  659MOL0     H88958  11.213   4.938   0.500 -0.1507 -0.7518 -0.7053
  659MOL0     H88959  10.904   4.885   0.567  0.0651  2.4974  0.9906
  659MOL0     H88960  10.975   5.002   0.443 -0.0025  0.4604  1.6637
  659MOL0     H88961  11.053   4.650   0.241  0.6621  0.3983  0.8970
  659MOL0     H88962  11.037   5.529   0.762  0.7743  0.5938 -1.0218
  659MOL0     H88963  10.906   5.674   0.853  0.1049  0.8457 -0.3185
  659MOL0     H88964  10.789   5.742   0.733  1.1836  0.5474 -0.9094
  659MOL0     H88965  10.741   5.644   0.882 -1.1276 -1.1847 -1.7749
  660MOL0     O88966  11.053   8.726   2.459  0.1434 -0.3655 -0.6073
  660MOL0     C88967  11.072   8.734   2.337  0.3118  0.5664 -0.4358
  660MOL0     O88968  11.173   8.811   2.286 -0.5231  0.9499  0.0694
  660MOL0     C88969  11.245   8.877   2.384  1.1105 -0.7899 -0.3303
  660MOL0     C88970  11.360   8.826   2.444 -0.2587  0.3799 -0.2027
  660MOL0     C88971  11.432   8.903   2.537 -0.4210  0.3756 -0.7442
  660MOL0     C88972  11.392   9.031   2.569 -0.7503  0.5228  1.0358
  660MOL0     O88973  11.469   9.095   2.658 -0.5509  0.7221 -1.1240
  660MOL0     C88974  11.471   9.238   2.682 -0.7429  0.0381 -0.0351
  660MOL0     C88975  11.608   9.294   2.727  0.4794  0.3907 -0.8107
  660MOL0     C88976  11.717   9.279   2.617 -0.0717  0.6390  0.8327
  660MOL0     C88977  11.823   9.387   2.621 -0.0092  0.5449  0.1779
  660MOL0     C88978  11.789   9.540   2.610 -0.8601 -1.1964  0.3815
  660MOL0     C88979  11.916   9.626   2.619 -0.5448 -0.0200  0.3166
  660MOL0     C88980  11.898   9.775   2.603  0.3533 -0.3866 -0.4583
  660MOL0     C88981  12.018   9.877   2.633  0.2980  0.6466  0.4952
  660MOL0     N88982  12.102   9.841   2.749 -0.1779 -0.4000 -0.0836
  660MOL0     C88983  12.217   9.767   2.744  0.3847 -0.3722 -0.0978
  660MOL0     C88984  12.287   9.802   2.857  0.4614 -0.3062  0.6502
  660MOL0     C88985  12.432   9.771   2.889 -0.2115  1.1507 -1.3148
  660MOL0     C88986  12.531   9.887   2.876 -0.3089 -1.0562 -0.2198
  660MOL0     C88987  12.542   9.940   2.735  0.8905  0.2841  0.7573
  660MOL0     C88988  12.641  10.045   2.718  0.0633  0.5304 -0.0476
  660MOL0     O88989  12.755  10.015   2.636  0.5088 -0.3801  0.9372
  660MOL0     C88990  12.746  10.017   2.498  0.6252  0.5031 -0.6746
  660MOL0     C88991  12.675  10.120   2.428  0.7587 -0.0431  0.4661
  660MOL0     C88992  12.680  10.122   2.284 -0.0524 -0.7188  0.0090
  660MOL0     C88993  12.768  10.032   2.218  0.7608  0.7787  0.6051
  660MOL0     C88994  12.774  10.041   2.072  0.0237 -0.3003 -0.9104
  660MOL0     O88995  12.656  10.082   2.000 -0.9235 -0.7118 -0.2570
  660MOL0     C88996  12.648  10.120   1.863 -0.5558  1.2060  0.0639
  660MOL0     C88997  12.759  10.172   1.790  0.1171  0.5727 -0.3324
  660MOL0     C88998  12.751  10.193   1.655  0.6535 -0.1132 -0.4546
  660MOL0     C88999  12.631  10.146   1.588 -0.3294 -1.3571 -0.0077
  660MOL0     O89000  12.628  10.161   1.454 -0.3428 -0.2797  0.5076
  660MOL0     C89001  12.540  10.090   1.366 -0.2826 -0.7803 -0.3596
  660MOL0     C89002  12.592  10.076   1.223 -0.4176 -0.5178  0.0768
  660MOL0     C89003  12.487  10.011   1.127 -0.0551  0.6913  0.2835
  660MOL0     C89004  12.485   9.859   1.145 -0.2212 -0.1020  0.5306
  660MOL0     C89005  12.605   9.772   1.095 -0.2531  0.2143  0.4750
  660MOL0     C89006  12.575   9.623   1.087 -0.0399  0.3136 -0.2538
  660MOL0     C89007  12.488   9.577   0.973  0.4503 -0.2191 -0.1383
  660MOL0     C89008  12.566   9.605   0.834 -0.0337  0.1215  0.5545
  660MOL0    Cl89009  12.504   9.521   0.690  0.3309 -0.3313 -0.0704
  660MOL0     C89010  12.523  10.100   1.658  1.0420 -0.0669 -0.2287
  660MOL0     C89011  12.524  10.084   1.795 -0.1738 -0.1629 -0.9238
  660MOL0     O89012  12.887  10.040   2.026 -0.2004 -0.0294  0.0280
  660MOL0     C89013  12.851   9.943   2.292  0.1673 -0.0154  0.1017
  660MOL0     C89014  12.834   9.934   2.434 -0.9465  0.7569 -0.4067
  660MOL0     N89015  12.208   9.893   2.927  0.3430 -0.3731 -0.0618
  660MOL0     N89016  12.096   9.909   2.866  1.1573  0.4666  1.2185
  660MOL0     C89017  11.275   9.083   2.504 -0.2955 -0.1442  0.0496
  660MOL0     C89018  11.207   9.013   2.411 -0.4000  0.1873  0.4565
  660MOL0     C89019  10.977   8.675   2.240 -0.6260 -0.1791  0.4917
  660MOL0     C89020  10.909   8.562   2.279  0.4754 -1.5308  0.4439
  660MOL0     C89021  10.817   8.499   2.204 -0.1368 -0.1629 -0.0732
  660MOL0     C89022  10.789   8.547   2.073 -0.1688  0.2951 -0.3609
  660MOL0     O89023  10.692   8.500   1.990 -0.3538  0.7533 -0.4203
  660MOL0     C89024  10.665   8.355   1.983  0.0244 -0.5581 -0.0337
  660MOL0     C89025  10.572   8.329   1.857 -0.4351  1.4357  0.5984
  660MOL0     C89026  10.448   8.427   1.846  0.9819  0.0193 -0.6637
  660MOL0     C89027  10.334   8.395   1.955 -0.1139 -0.0255 -0.4196
  660MOL0     C89028  10.204   8.439   1.909 -1.1250 -0.2182 -0.0155
  660MOL0     C89029  10.096   8.485   1.883  0.6205 -0.5180  0.2781
  660MOL0     C89030  10.858   8.663   2.033  0.5032 -0.2604 -0.9687
  660MOL0     C89031  10.948   8.728   2.112 -0.2346 -0.2484  0.7651
  660MOL0     C89032  11.010   8.860   2.057  0.8924 -0.2403  0.4356
  660MOL0     H89033  11.393   8.724   2.431  0.6656  0.3516  1.8733
  660MOL0     H89034  11.510   8.841   2.582 -0.4032  1.2708  0.5084
  660MOL0     H89035  11.440   9.285   2.588 -1.6561 -0.0100  0.2319
  660MOL0     H89036  11.394   9.265   2.756  0.1938  4.3888 -0.3792
  660MOL0     H89037  11.625   9.251   2.826 -1.4201  0.0462 -0.5952
  660MOL0     H89038  11.596   9.401   2.749 -2.7100 -0.4283  2.4387
  660MOL0     H89039  11.668   9.306   2.522  4.8602  1.6144 -1.7805
  660MOL0     H89040  11.749   9.178   2.593 -1.6505  0.2975 -0.0303
  660MOL0     H89041  11.888   9.365   2.706 -2.5604  0.2461  2.1556
  660MOL0     H89042  11.883   9.363   2.533 -2.1054 -2.8509 -0.4806
  660MOL0     H89043  11.739   9.558   2.514 -0.5426  1.4411  0.6367
  660MOL0     H89044  11.742   9.573   2.703  2.7177  0.3665  1.8248
  660MOL0     H89045  11.971   9.607   2.712 -0.0106 -0.0021  0.0071
  660MOL0     H89046  11.986   9.589   2.543 -1.9806 -4.5847  0.9057
  660MOL0     H89047  11.812   9.826   2.648  0.5219  0.2054 -0.8003
  660MOL0     H89048  11.884   9.795   2.496 -2.8853  1.6728  0.2210
  660MOL0     H89049  12.083   9.894   2.546 -0.8340  0.9719 -0.3026
  660MOL0     H89050  11.971   9.971   2.660 -0.5447  0.5999 -0.7356
  660MOL0     H89051  12.252   9.700   2.666  0.3276 -3.0606  2.0089
  660MOL0     H89052  12.442   9.725   2.988 -0.1279 -3.1772 -3.1129
  660MOL0     H89053  12.465   9.690   2.823 -3.1792 -2.2686  1.0539
  660MOL0     H89054  12.504   9.965   2.948  3.4788 -0.7264  1.0373
  660MOL0     H89055  12.633   9.851   2.895 -0.2367  0.0370  1.7633
  660MOL0     H89056  12.440   9.973   2.713  0.1254 -2.3023  0.0403
  660MOL0     H89057  12.568   9.858   2.667  2.7617 -0.2298  2.0087
  660MOL0     H89058  12.679  10.062   2.819 -1.1871 -3.0719  1.1914
  660MOL0     H89059  12.581  10.131   2.687  0.4548  1.9361  2.7606
  660MOL0     H89060  12.610  10.199   2.464 -2.5808 -1.2926 -2.2786
  660MOL0     H89061  12.624  10.185   2.216  1.3234 -0.8636 -1.2961
  660MOL0     H89062  12.848  10.215   1.836 -1.6095  1.0764  2.7939
  660MOL0     H89063  12.838  10.232   1.604  3.9879 -1.1794  3.8210
  660MOL0     H89064  12.514   9.995   1.413  1.3814 -0.9948  0.1692
  660MOL0     H89065  12.446  10.146   1.360 -0.8273 -1.6290 -0.0722
  660MOL0     H89066  12.606  10.180   1.190  2.0921 -0.1087  2.1186
  660MOL0     H89067  12.693  10.034   1.220  1.2768  3.1415 -0.6808
  660MOL0     H89068  12.388  10.054   1.145 -1.4749 -2.3599  0.3454
  660MOL0     H89069  12.519  10.036   1.025  3.3546 -0.3479  0.9929
  660MOL0     H89070  12.395   9.826   1.092 -1.2431  0.6106  1.7504
  660MOL0     H89071  12.476   9.840   1.253 -0.9534  1.7423  0.8322
  660MOL0     H89072  12.688   9.785   1.164 -1.9581 -0.8949  2.9004
  660MOL0     H89073  12.625   9.820   0.999 -1.8765 -1.0446 -0.5501
  660MOL0     H89074  12.672   9.575   1.070 -0.4459 -0.9003  0.7274
  660MOL0     H89075  12.542   9.586   1.184  2.3793 -4.5577 -1.0081
  660MOL0     H89076  12.399   9.640   0.969 -0.6042 -1.6317 -3.6987
  660MOL0     H89077  12.463   9.471   0.981  0.8823 -0.4626 -1.5982
  660MOL0     H89078  12.564   9.713   0.822 -2.9698  0.3523  2.1945
  660MOL0     H89079  12.665   9.558   0.838  0.1720  0.3764 -0.8188
  660MOL0     H89080  12.429  10.076   1.610  1.0220 -0.8434  0.1897
  660MOL0     H89081  12.435  10.058   1.852 -0.1442  2.6166  0.5586
  660MOL0     H89082  12.929   9.891   2.238  0.0483  0.7972 -0.8833
  660MOL0     H89083  12.900   9.872   2.495 -0.8814 -0.7916 -1.9789
  660MOL0     H89084  11.225   9.179   2.516 -1.2672 -0.7654  1.2688
  660MOL0     H89085  11.121   9.051   2.356  0.6956  0.7097 -0.9830
  660MOL0     H89086  10.937   8.518   2.375  1.5889 -2.1645 -0.1569
  660MOL0     H89087  10.764   8.411   2.237 -1.5641  0.4554 -0.6547
  660MOL0     H89088  10.620   8.319   2.076  2.6438 -2.3170  0.6597
  660MOL0     H89089  10.763   8.312   1.965 -0.3330 -2.1264  1.5167
  660MOL0     H89090  10.533   8.227   1.860  3.2975 -0.1474  1.0577
  660MOL0     H89091  10.638   8.337   1.770 -0.3021 -0.2518  0.5217
  660MOL0     H89092  10.411   8.443   1.744  4.7921 -1.9779 -2.5435
  660MOL0     H89093  10.490   8.525   1.871 -0.4264  0.4526  0.1820
  660MOL0     H89094  10.350   8.293   1.991 -0.5885  0.3829  1.0265
  660MOL0     H89095  10.352   8.444   2.051 -1.0934 -0.1891 -0.1439
  660MOL0     H89096   9.999   8.514   1.846  0.9065 -0.4957 -0.4793
  660MOL0     H89097  10.829   8.699   1.934 -2.1196 -0.9240 -0.5310
  660MOL0     H89098  11.119   8.870   2.062  0.7482  2.7014 -0.4287
  660MOL0     H89099  10.975   8.871   1.954 -1.2177 -2.2081  0.8409
  660MOL0     H89100  10.957   8.935   2.116  1.9154  0.3549  0.6088
  661MOL0     O89101  10.501   9.334   5.615  0.3313 -0.2061  0.7339
  661MOL0     C89102  10.465   9.270   5.715 -0.3909 -0.7138 -0.1648
  661MOL0     O89103  10.373   9.311   5.799  0.5774  0.5785  0.6689
  661MOL0     C89104  10.269   9.383   5.741  1.4387 -0.2228  0.3730
  661MOL0     C89105  10.167   9.314   5.678 -0.4403  0.1318 -0.0794
  661MOL0     C89106  10.064   9.380   5.617  0.0822 -0.1783 -0.8441
  661MOL0     C89107  10.058   9.523   5.609 -0.9767  0.0267 -0.1911
  661MOL0     O89108   9.960   9.593   5.538  0.1282 -0.0825 -0.1727
  661MOL0     C89109   9.827   9.540   5.527 -0.2617  0.0098 -0.4421
  661MOL0     C89110   9.752   9.624   5.432  1.5552 -0.4309  0.4120
  661MOL0     C89111   9.806   9.631   5.288  0.9529 -0.4128  0.2737
  661MOL0     C89112   9.694   9.635   5.181  0.2518 -0.3679  0.7944
  661MOL0     C89113   9.745   9.670   5.036  0.3310  0.2755 -0.8146
  661MOL0     C89114   9.636   9.670   4.935 -0.2636  0.7804  0.0503
  661MOL0     C89115   9.605   9.528   4.893  0.2657 -0.2384 -0.8570
  661MOL0     C89116   9.467   9.524   4.815 -0.1514 -0.3307  0.8322
  661MOL0     N89117   9.417   9.388   4.793  0.2871  0.7118  0.1293
  661MOL0     C89118   9.408   9.284   4.883  0.0328  0.3071  0.4642
  661MOL0     C89119   9.408   9.169   4.813  0.3804 -0.0707 -0.1392
  661MOL0     C89120   9.416   9.030   4.868  0.6379 -0.1899  0.1928
  661MOL0     C89121   9.457   9.033   5.020 -0.3632  0.9268 -0.6003
  661MOL0     C89122   9.484   8.895   5.081 -0.8886  0.1357 -0.6720
  661MOL0     C89123   9.611   8.829   5.021 -0.5529 -0.1919 -0.1592
  661MOL0     O89124   9.661   8.713   5.097  0.1050 -0.2872  0.3189
  661MOL0     C89125   9.655   8.580   5.059 -0.7182 -0.1952  0.0918
  661MOL0     C89126   9.745   8.487   5.114 -0.0598  0.0605  1.1987
  661MOL0     C89127   9.737   8.348   5.082  0.1818  0.3686  0.9077
  661MOL0     C89128   9.638   8.310   4.985  0.1463  0.5599 -0.1718
  661MOL0     C89129   9.627   8.169   4.946 -0.0001  0.0888 -0.7304
  661MOL0     O89130   9.733   8.093   4.976 -0.8170 -0.4770  0.4465
  661MOL0     C89131   9.740   7.970   4.918  0.1295 -0.4138 -0.1738
  661MOL0     C89132   9.843   7.935   4.831 -0.0756  0.2453 -0.1557
  661MOL0     C89133   9.841   7.803   4.768  0.0758  0.0282 -1.0127
  661MOL0     C89134   9.759   7.701   4.817  0.9501  0.0756 -0.2344
  661MOL0     O89135   9.765   7.575   4.766 -0.6316 -0.1558  0.0631
  661MOL0     C89136   9.747   7.463   4.851 -0.5794 -0.1914  0.5042
  661MOL0     C89137   9.890   7.398   4.866  0.0086 -0.9459  0.7100
  661MOL0     C89138   9.969   7.388   4.730 -0.0661 -0.1147  0.3004
  661MOL0     C89139  10.101   7.306   4.747 -0.1194  0.4654  0.0314
  661MOL0     C89140  10.214   7.392   4.805 -0.5812 -1.1054  1.0095
  661MOL0     C89141  10.350   7.325   4.786  0.7219  1.0881  0.0299
  661MOL0     C89142  10.372   7.217   4.890  0.4778  0.2437 -0.1188
  661MOL0     C89143  10.507   7.158   4.881 -0.3054  0.0546 -1.3239
  661MOL0    Cl89144  10.565   7.115   4.727  0.1327 -0.1130 -0.0181
  661MOL0     C89145   9.665   7.733   4.911  0.4366 -0.4800  0.2053
  661MOL0     C89146   9.655   7.864   4.958 -0.5919  0.1575 -0.7468
  661MOL0     O89147   9.526   8.124   4.896  0.2557 -0.7520 -0.1495
  661MOL0     C89148   9.560   8.410   4.935  0.3553  0.6019 -0.4890
  661MOL0     C89149   9.559   8.540   4.972  0.0197  0.0829  0.4431
  661MOL0     N89150   9.387   9.204   4.685 -0.0721 -0.7710 -0.2321
  661MOL0     N89151   9.388   9.336   4.670 -0.0006 -0.9374 -0.2147
  661MOL0     C89152  10.171   9.592   5.657 -0.3944  0.1412  0.6435
  661MOL0     C89153  10.274   9.529   5.730 -0.2674  0.0141  0.5983
  661MOL0     C89154  10.570   9.174   5.768 -0.1271  0.4504 -1.0843
  661MOL0     C89155  10.703   9.188   5.754 -0.3061  0.1267 -0.3386
  661MOL0     C89156  10.791   9.082   5.804  0.5914 -0.3086  0.2422
  661MOL0     C89157  10.744   8.968   5.874 -0.0625  0.3298  0.1187
  661MOL0     O89158  10.818   8.860   5.923  0.2376 -0.0488  0.6289
  661MOL0     C89159  10.954   8.848   5.884 -0.4318 -0.4345  0.0757
  661MOL0     C89160  11.024   8.937   5.986  0.0993  0.2651  0.2119
  661MOL0     C89161  11.177   8.928   5.968  0.0003  0.9061  0.9153
  661MOL0     C89162  11.253   8.990   6.092 -0.4614  0.6054  0.2018
  661MOL0     C89163  11.211   9.126   6.106  0.4357 -0.4848  0.9724
  661MOL0     C89164  11.189   9.240   6.108 -0.0639  0.1621 -0.1315
  661MOL0     C89165  10.605   8.950   5.873 -0.1422  0.4210 -0.1217
  661MOL0     C89166  10.514   9.045   5.832 -0.5381  0.0588 -0.0206
  661MOL0     C89167  10.367   9.021   5.846  0.5267 -0.0225 -0.2035
  661MOL0     H89168  10.173   9.207   5.661 -0.8456 -0.0583  0.8880
  661MOL0     H89169   9.978   9.325   5.582 -2.1068  0.1931  3.3218
  661MOL0     H89170   9.825   9.439   5.484  1.2404 -0.1862 -0.1085
  661MOL0     H89171   9.774   9.530   5.623 -0.3375  0.2548 -0.4597
  661MOL0     H89172   9.739   9.727   5.465 -2.1585  0.0494 -1.9711
  661MOL0     H89173   9.649   9.587   5.444  1.2966  0.3823  0.8111
  661MOL0     H89174   9.882   9.557   5.262  1.4332  0.5994 -1.3328
  661MOL0     H89175   9.873   9.717   5.293  1.7005 -1.0542  2.9895
  661MOL0     H89176   9.666   9.530   5.171 -2.1843  0.1426  1.5460
  661MOL0     H89177   9.601   9.685   5.209 -0.6871 -1.2538 -0.5791
  661MOL0     H89178   9.793   9.767   5.050 -0.9908  0.8223  0.2167
  661MOL0     H89179   9.830   9.607   5.009 -0.2741 -1.3999  0.9391
  661MOL0     H89180   9.547   9.724   4.969  0.1923  2.7203 -1.6592
  661MOL0     H89181   9.673   9.709   4.841  2.1759 -2.2793 -0.4295
  661MOL0     H89182   9.597   9.466   4.983 -1.0035  3.7007  2.0223
  661MOL0     H89183   9.686   9.502   4.824  0.9734  0.3114 -0.2377
  661MOL0     H89184   9.397   9.586   4.871 -2.4218 -1.9869 -0.0174
  661MOL0     H89185   9.486   9.569   4.717 -1.5735 -0.2518  0.5779
  661MOL0     H89186   9.408   9.288   4.991  1.1399  1.6217  0.4443
  661MOL0     H89187   9.322   8.981   4.843  0.9216  0.4988 -2.5742
  661MOL0     H89188   9.488   8.985   4.799  0.0119  3.8251 -3.5683
  661MOL0     H89189   9.539   9.103   5.039  1.2323 -0.6444 -1.4062
  661MOL0     H89190   9.381   9.090   5.072  1.3126  1.3820  1.4726
  661MOL0     H89191   9.396   8.830   5.085  0.2682 -1.3925  1.3615
  661MOL0     H89192   9.497   8.922   5.186 -0.1348 -1.5647 -0.2945
  661MOL0     H89193   9.690   8.903   5.007  0.4526 -0.9358  1.3673
  661MOL0     H89194   9.585   8.793   4.921 -0.2056  0.1292 -0.3727
  661MOL0     H89195   9.811   8.523   5.192 -1.7853 -1.3856  3.4716
  661MOL0     H89196   9.793   8.269   5.133 -1.4893 -0.5065  1.4701
  661MOL0     H89197   9.911   8.009   4.790  1.6067  1.0814  3.6910
  661MOL0     H89198   9.910   7.779   4.687 -2.1110  0.0312 -3.0017
  661MOL0     H89199   9.708   7.499   4.947 -0.7743  1.9437 -0.3291
  661MOL0     H89200   9.678   7.389   4.808 -1.5011 -1.1358  3.3837
  661MOL0     H89201   9.953   7.457   4.934  2.2074 -1.5013 -0.7448
  661MOL0     H89202   9.873   7.295   4.897 -0.8019 -0.2793  2.6647
  661MOL0     H89203   9.906   7.341   4.655 -2.5746  1.7678  1.0949
  661MOL0     H89204   9.987   7.481   4.676  0.9933 -1.5484 -1.9891
  661MOL0     H89205  10.132   7.275   4.647 -1.1105 -0.3670 -0.0318
  661MOL0     H89206  10.092   7.218   4.811 -1.2022 -2.4724 -3.8432
  661MOL0     H89207  10.195   7.411   4.911 -0.7052 -0.0214  0.8022
  661MOL0     H89208  10.212   7.481   4.741 -1.2435 -1.1139  1.0171
  661MOL0     H89209  10.355   7.275   4.689  1.5515 -4.3466  2.4549
  661MOL0     H89210  10.436   7.390   4.802  1.1248  0.8670 -1.1295
  661MOL0     H89211  10.296   7.141   4.872 -0.0279  1.4178 -3.8359
  661MOL0     H89212  10.372   7.262   4.989 -1.0986  0.1902 -0.0613
  661MOL0     H89213  10.580   7.231   4.918 -0.3256  0.6075 -2.3464
  661MOL0     H89214  10.518   7.077   4.954  0.9093 -0.1490 -1.7067
  661MOL0     H89215   9.579   7.669   4.932 -1.1659  0.6245 -2.5083
  661MOL0     H89216   9.595   7.891   5.044 -1.4140 -0.5121 -1.0978
  661MOL0     H89217   9.485   8.381   4.862 -0.2194 -0.0187  0.3231
  661MOL0     H89218   9.479   8.604   4.938  1.0095  1.8642  1.3497
  661MOL0     H89219  10.154   9.699   5.649 -0.7091  0.2004  1.7776
  661MOL0     H89220  10.357   9.579   5.780 -0.4965 -0.9477  2.0049
  661MOL0     H89221  10.748   9.276   5.710  0.5856  0.5614  1.3653
  661MOL0     H89222  10.900   9.089   5.801  0.4949  3.3152  0.7230
  661MOL0     H89223  10.986   8.880   5.785  0.1168  3.5515  1.3541
  661MOL0     H89224  10.978   8.742   5.899 -1.6625 -0.9200 -1.2103
  661MOL0     H89225  11.001   8.906   6.088  0.0193  0.5833  0.2903
  661MOL0     H89226  10.992   9.042   5.983  4.0479  1.6058 -1.1411
  661MOL0     H89227  11.203   8.970   5.871 -0.8614  2.5746  1.3676
  661MOL0     H89228  11.202   8.822   5.969 -1.1617  0.5810 -0.5364
  661MOL0     H89229  11.221   8.942   6.184 -0.5153  2.0144  0.9485
  661MOL0     H89230  11.359   8.974   6.071 -1.1745 -3.5891 -1.1124
  661MOL0     H89231  11.174   9.345   6.127 -0.0103 -0.1003  1.5485
  661MOL0     H89232  10.565   8.862   5.923  2.3657 -1.2813 -0.9260
  661MOL0     H89233  10.324   9.094   5.916 -0.6290  0.1050 -1.0200
  661MOL0     H89234  10.332   9.019   5.743  1.2752 -1.1197 -0.4528
  661MOL0     H89235  10.352   8.919   5.884  0.3220  0.0946  0.0337
  662MOL0     O89236   7.585   5.991   8.515  0.3967 -0.3236  0.2370
  662MOL0     C89237   7.520   6.075   8.451 -0.0630 -0.5630  0.1338
  662MOL0     O89238   7.574   6.159   8.353  1.0939 -0.9750  0.9003
  662MOL0     C89239   7.710   6.190   8.370 -0.0099  0.8258 -0.7003
  662MOL0     C89240   7.799   6.169   8.261  0.6726 -0.2916  0.0469
  662MOL0     C89241   7.933   6.200   8.282 -0.2204  0.9300  0.1594
  662MOL0     C89242   7.980   6.247   8.402  0.3266 -0.2549  1.2391
  662MOL0     O89243   8.115   6.250   8.404  0.1156  0.7242 -0.4863
  662MOL0     C89244   8.180   6.360   8.335  0.2507 -0.1430  0.2616
  662MOL0     C89245   8.294   6.389   8.432 -1.1229 -0.1770  0.2058
  662MOL0     C89246   8.375   6.511   8.402  0.5255  0.2027  0.8798
  662MOL0     C89247   8.454   6.561   8.522 -0.2467 -0.2770 -0.5337
  662MOL0     C89248   8.509   6.703   8.510 -0.1005 -1.6938 -0.1989
  662MOL0     C89249   8.626   6.704   8.413 -0.4711 -0.0530 -0.5721
  662MOL0     C89250   8.686   6.850   8.399  0.0835 -0.1319  0.7586
  662MOL0     C89251   8.783   6.879   8.281 -0.4470 -0.4299  1.4185
  662MOL0     N89252   8.721   6.830   8.157  0.5743  0.7098 -0.0489
  662MOL0     C89253   8.627   6.903   8.094 -0.6062 -0.3712 -0.1007
  662MOL0     C89254   8.591   6.848   7.981 -0.3287  1.3783 -0.0564
  662MOL0     C89255   8.479   6.890   7.889 -0.1176  1.4858 -0.2758
  662MOL0     C89256   8.341   6.840   7.938  0.2563 -0.2610 -0.2376
  662MOL0     C89257   8.257   6.959   7.971  1.1589  1.7472  0.7255
  662MOL0     C89258   8.138   6.930   8.059  0.8662 -0.4104  0.1755
  662MOL0     O89259   8.057   7.051   8.048  0.0022  0.0743 -0.1833
  662MOL0     C89260   7.955   7.061   8.139 -0.4571  0.0005 -1.1697
  662MOL0     C89261   7.858   7.158   8.108  0.8979  0.2890 -0.3209
  662MOL0     C89262   7.742   7.172   8.188  0.2374 -0.6004  0.8159
  662MOL0     C89263   7.719   7.096   8.303 -0.1934 -0.7607 -0.2500
  662MOL0     C89264   7.607   7.130   8.383  0.7301  0.8002 -0.4179
  662MOL0     O89265   7.504   7.205   8.336  1.3198  0.3296 -0.2841
  662MOL0     C89266   7.377   7.187   8.388 -0.1245  1.3428  0.3020
  662MOL0     C89267   7.284   7.294   8.411 -0.3793 -0.2558 -0.5909
  662MOL0     C89268   7.157   7.273   8.465  0.1572 -0.2559 -0.7180
  662MOL0     C89269   7.113   7.143   8.495 -0.2062  0.0961  0.1049
  662MOL0     O89270   6.996   7.114   8.554  0.4744 -0.4360  0.1294
  662MOL0     C89271   6.914   7.217   8.604 -0.5923 -0.3256  0.6041
  662MOL0     C89272   6.807   7.158   8.687  0.6835 -0.0570  0.0032
  662MOL0     C89273   6.836   7.024   8.759  0.4636 -0.5938  0.9567
  662MOL0     C89274   6.711   6.964   8.823 -0.1446 -0.9398 -0.1465
  662MOL0     C89275   6.729   6.819   8.870  0.4932 -0.1632  0.7677
  662MOL0     C89276   6.815   6.786   8.988 -0.2773  0.4756  0.2932
  662MOL0     C89277   6.734   6.766   9.113 -0.3242 -0.4344 -0.3228
  662MOL0     C89278   6.810   6.763   9.251  1.1100 -0.7255 -0.1237
  662MOL0    Cl89279   6.920   6.622   9.248  0.0804 -0.1483  0.4910
  662MOL0     C89280   7.195   7.035   8.452 -0.1761  0.6275 -0.4015
  662MOL0     C89281   7.328   7.058   8.407  1.1319  0.6551  0.7627
  662MOL0     O89282   7.603   7.066   8.494  0.6508  0.2409  0.1186
  662MOL0     C89283   7.821   7.001   8.342  1.0043  0.0613  0.5483
  662MOL0     C89284   7.922   6.974   8.250  0.9685 -0.6610  1.2940
  662MOL0     N89285   8.644   6.718   7.982 -0.2552 -0.1648  0.7460
  662MOL0     N89286   8.733   6.712   8.085  0.4144  0.5170  0.9110
  662MOL0     C89287   7.882   6.284   8.499 -0.3596 -0.4282  0.1128
  662MOL0     C89288   7.749   6.256   8.483  0.1244  0.5334 -1.0861
  662MOL0     C89289   7.387   6.111   8.493 -0.1864  0.4412  0.4409
  662MOL0     C89290   7.286   6.116   8.396 -0.6857  1.2592 -0.0683
  662MOL0     C89291   7.158   6.138   8.436  0.0492 -1.2577 -0.3124
  662MOL0     C89292   7.113   6.154   8.568  0.3341 -0.0407 -0.0009
  662MOL0     O89293   6.981   6.163   8.591 -0.3743  0.1921 -0.3888
  662MOL0     C89294   6.946   6.235   8.714 -0.5325  0.1943  0.0723
  662MOL0     C89295   6.801   6.217   8.740  0.7521  0.8317  0.0309
  662MOL0     C89296   6.733   6.319   8.650  0.3949  0.0316  0.5438
  662MOL0     C89297   6.726   6.453   8.728 -0.1543 -0.2015 -1.2155
  662MOL0     C89298   6.659   6.547   8.640  0.0842  0.0422  0.6201
  662MOL0     C89299   6.597   6.615   8.557  0.2193  1.4055  0.2150
  662MOL0     C89300   7.214   6.146   8.657 -0.1341 -0.5536 -0.2001
  662MOL0     C89301   7.347   6.125   8.621  0.1493 -1.0276 -0.9488
  662MOL0     C89302   7.437   6.111   8.739 -0.7148 -0.1559 -0.2041
  662MOL0     H89303   7.777   6.123   8.165  0.7237  0.0308 -0.1206
  662MOL0     H89304   8.018   6.158   8.228 -1.2014 -0.6558 -0.2193
  662MOL0     H89305   8.222   6.336   8.237 -0.5698  1.5607 -0.5488
  662MOL0     H89306   8.104   6.438   8.320 -1.4370 -1.2732  2.3165
  662MOL0     H89307   8.365   6.306   8.438 -0.5499  0.2781 -0.1643
  662MOL0     H89308   8.253   6.415   8.529 -2.0661  0.9470 -0.4662
  662MOL0     H89309   8.306   6.585   8.360  1.0561  0.2516  0.0665
  662MOL0     H89310   8.445   6.478   8.325 -1.7573 -0.3563 -1.0979
  662MOL0     H89311   8.393   6.556   8.613  0.5615  2.2413  0.2586
  662MOL0     H89312   8.531   6.493   8.560 -0.8326  0.1954  1.6340
  662MOL0     H89313   8.437   6.778   8.476 -0.2837 -1.1564  1.2990
  662MOL0     H89314   8.541   6.743   8.607  1.6191  0.7992 -1.6812
  662MOL0     H89315   8.711   6.649   8.454  1.3579  2.7535 -0.3452
  662MOL0     H89316   8.598   6.660   8.317  0.4207  0.8574 -1.2667
  662MOL0     H89317   8.733   6.889   8.489  0.9784 -0.7166  0.5597
  662MOL0     H89318   8.593   6.905   8.381  0.2322 -0.2679 -0.5308
  662MOL0     H89319   8.797   6.988   8.287  0.3275 -0.5734  2.5269
  662MOL0     H89320   8.879   6.828   8.295  1.3952  3.0896  2.9809
  662MOL0     H89321   8.590   6.996   8.134  0.1517 -0.2975  0.4528
  662MOL0     H89322   8.474   6.998   7.878  1.9743  1.7103  0.6224
  662MOL0     H89323   8.492   6.836   7.794 -0.0354 -2.2816  1.6945
  662MOL0     H89324   8.305   6.784   7.851  0.5105  2.2582 -2.1021
  662MOL0     H89325   8.346   6.777   8.027  0.9318  1.3786  0.9378
  662MOL0     H89326   8.227   7.009   7.879  2.4867  0.3177 -0.5358
  662MOL0     H89327   8.325   7.031   8.019  2.5756  0.1556  1.2369
  662MOL0     H89328   8.162   6.910   8.164  2.5890  0.0470 -0.1084
  662MOL0     H89329   8.079   6.845   8.023 -2.8588  0.7239  2.9860
  662MOL0     H89330   7.858   7.224   8.022 -1.8826  2.7623  1.3853
  662MOL0     H89331   7.674   7.248   8.151  2.0034  1.7935  2.1890
  662MOL0     H89332   7.321   7.395   8.392 -2.2842  0.1719 -2.3780
  662MOL0     H89333   7.086   7.351   8.493 -0.4529 -1.2013  0.4470
  662MOL0     H89334   6.975   7.283   8.666 -1.2069  2.0526 -1.1492
  662MOL0     H89335   6.863   7.284   8.533 -0.6683 -0.1962  0.7799
  662MOL0     H89336   6.761   7.230   8.755 -1.1963  1.6284 -2.8312
  662MOL0     H89337   6.732   7.132   8.612  1.4156 -2.3132 -0.0305
  662MOL0     H89338   6.878   6.966   8.676  0.5763 -0.1134  0.6743
  662MOL0     H89339   6.924   7.040   8.823  0.1780 -0.6287  1.3618
  662MOL0     H89340   6.631   6.980   8.750  0.0393  0.6412 -0.0278
  662MOL0     H89341   6.687   7.025   8.911  0.7591 -1.3342  0.3930
  662MOL0     H89342   6.771   6.765   8.784  1.4340 -0.2121  1.2452
  662MOL0     H89343   6.629   6.777   8.881 -0.5001  1.4696 -1.4058
  662MOL0     H89344   6.863   6.691   8.962 -2.0607  0.1249 -1.9939
  662MOL0     H89345   6.893   6.862   9.003  0.0223  0.4811 -1.1487
  662MOL0     H89346   6.680   6.672   9.102  0.4161 -0.8602 -0.3678
  662MOL0     H89347   6.666   6.852   9.120  2.1715  1.6139  0.7232
  662MOL0     H89348   6.876   6.849   9.267 -1.4515  1.5625 -1.2059
  662MOL0     H89349   6.744   6.761   9.338  2.6013  0.5679  1.1041
  662MOL0     H89350   7.176   6.928   8.445  0.3889  0.6240 -3.1766
  662MOL0     H89351   7.395   6.977   8.382  0.3003 -0.5175  2.1751
  662MOL0     H89352   7.797   6.935   8.424 -2.1352  0.1067 -0.1977
  662MOL0     H89353   7.986   6.887   8.265  4.5036  1.4372 -0.3746
  662MOL0     H89354   7.931   6.334   8.582  4.1875 -0.7004 -2.0922
  662MOL0     H89355   7.681   6.292   8.559  2.3697 -0.5482  1.6181
  662MOL0     H89356   7.308   6.111   8.289  0.1515 -1.6245  0.1724
  662MOL0     H89357   7.088   6.155   8.354  0.7589 -1.7471 -1.0362
  662MOL0     H89358   6.960   6.343   8.700 -2.9827  0.6745  0.8321
  662MOL0     H89359   7.010   6.214   8.800  0.4283  1.7648 -0.2063
  662MOL0     H89360   6.779   6.242   8.844 -3.1440 -3.7104  0.6829
  662MOL0     H89361   6.758   6.116   8.731  0.7643  0.9759 -2.8353
  662MOL0     H89362   6.637   6.272   8.631 -0.1412  1.4156 -0.3541
  662MOL0     H89363   6.766   6.328   8.546  1.0229 -1.5797  0.5784
  662MOL0     H89364   6.670   6.439   8.821 -1.9289 -0.2977 -2.2679
  662MOL0     H89365   6.821   6.494   8.765 -0.0411  2.2655 -3.9291
  662MOL0     H89366   6.541   6.675   8.489  0.3193  2.4196  0.9971
  662MOL0     H89367   7.198   6.152   8.764  2.2449 -1.0145  0.2549
  662MOL0     H89368   7.540   6.124   8.705 -0.3116 -0.5911  0.8103
  662MOL0     H89369   7.424   6.188   8.817 -2.4661 -0.1556 -0.4392
  662MOL0     H89370   7.425   6.014   8.788 -0.0031 -1.5565 -2.6748
  663MOL0     O89371   5.883   5.352  11.306 -0.2760 -0.0543 -0.1220
  663MOL0     C89372   5.822   5.266  11.240 -0.0647  0.0797  0.3969
  663MOL0     O89373   5.841   5.133  11.259 -0.3287  0.8293 -0.4463
  663MOL0     C89374   5.958   5.096  11.314  0.2016  0.3523 -0.2438
  663MOL0     C89375   6.067   5.058  11.243  0.0333 -0.5817 -0.3880
  663MOL0     C89376   6.189   5.007  11.301  0.3663  0.4307  0.6414
  663MOL0     C89377   6.202   5.008  11.430 -0.6925  0.5944 -0.3723
  663MOL0     O89378   6.330   4.980  11.477 -0.7662 -0.2238  0.1201
  663MOL0     C89379   6.364   5.027  11.609 -0.2007  0.6790 -0.6320
  663MOL0     C89380   6.512   5.033  11.639 -1.2057  0.5036  0.2434
  663MOL0     C89381   6.607   5.062  11.526 -0.5040 -0.0484  0.1128
  663MOL0     C89382   6.746   5.089  11.582 -0.2565 -0.2842  0.4302
  663MOL0     C89383   6.828   5.127  11.465 -0.0533 -0.8719 -1.0586
  663MOL0     C89384   6.978   5.124  11.484  0.1215 -0.3311 -0.0627
  663MOL0     C89385   7.024   5.200  11.610  0.0116  0.4565  0.4017
  663MOL0     C89386   7.007   5.353  11.606  0.1478 -0.5632 -0.2712
  663MOL0     N89387   7.104   5.407  11.512 -0.3270  0.2564 -0.1763
  663MOL0     C89388   7.095   5.447  11.384 -0.7950 -0.3962 -0.1556
  663MOL0     C89389   7.206   5.522  11.370  0.4993 -0.3165 -0.6908
  663MOL0     C89390   7.237   5.615  11.257 -0.4209 -0.2087  0.6192
  663MOL0     C89391   7.300   5.747  11.300 -0.5059  0.1032  0.9669
  663MOL0     C89392   7.202   5.827  11.388 -0.5605 -0.1885 -0.7550
  663MOL0     C89393   7.258   5.975  11.414 -0.3636 -0.6181  0.1627
  663MOL0     O89394   7.156   6.048  11.481  0.2165  0.9860  0.4275
  663MOL0     C89395   7.185   6.184  11.492 -0.0583  1.0849 -0.1024
  663MOL0     C89396   7.092   6.263  11.553  0.4616  0.7830  0.0732
  663MOL0     C89397   7.120   6.394  11.581 -0.2976 -0.8439  0.3430
  663MOL0     C89398   7.245   6.457  11.552  0.6343  0.2332  0.2873
  663MOL0     C89399   7.273   6.602  11.595  0.1811 -0.0123  0.8277
  663MOL0     O89400   7.164   6.684  11.598 -0.2228  0.5698  0.0561
  663MOL0     C89401   7.167   6.820  11.621 -0.0970 -0.0976 -0.6784
  663MOL0     C89402   7.276   6.892  11.679 -0.6736 -0.0603  0.5509
  663MOL0     C89403   7.280   7.027  11.711 -0.5239 -0.7129 -0.0770
  663MOL0     C89404   7.164   7.100  11.660  0.7213  0.3845  0.6958
  663MOL0     O89405   7.148   7.241  11.669  0.7466 -0.0099  0.1533
  663MOL0     C89406   7.181   7.290  11.798  0.0660  0.7367 -0.4512
  663MOL0     C89407   7.133   7.440  11.813 -1.5728  0.3741  0.1967
  663MOL0     C89408   7.159   7.502  11.948 -0.7185 -0.1357 -0.3663
  663MOL0     C89409   7.169   7.650  11.931  0.2387  0.5885  0.3727
  663MOL0     C89410   7.210   7.715  12.059  0.8642 -0.5755  0.1774
  663MOL0     C89411   7.351   7.687  12.118  0.1640 -0.4383  0.0658
  663MOL0     C89412   7.385   7.790  12.221 -0.1722  0.3234  0.7144
  663MOL0     C89413   7.517   7.767  12.280  0.1284 -0.0191 -0.0764
  663MOL0    Cl89414   7.559   7.890  12.407 -0.0665  0.2892  0.4117
  663MOL0     C89415   7.053   7.030  11.609 -0.4717 -0.2627  0.5512
  663MOL0     C89416   7.060   6.895  11.594 -0.1029  0.2053  0.8174
  663MOL0     O89417   7.394   6.633  11.592 -0.5362 -0.1112  0.0981
  663MOL0     C89418   7.338   6.379  11.491 -0.0638  1.3259 -0.4187
  663MOL0     C89419   7.312   6.246  11.458 -0.0360  0.3219  0.4866
  663MOL0     N89420   7.292   5.498  11.471  0.6579 -0.9352 -0.5922
  663MOL0     N89421   7.230   5.420  11.550 -0.1290 -0.5566  0.0560
  663MOL0     C89422   6.100   5.047  11.517  0.3147 -0.6227 -0.2518
  663MOL0     C89423   5.977   5.094  11.456  0.3784  0.0610  0.3211
  663MOL0     C89424   5.729   5.313  11.135 -0.2897 -0.1282  0.4939
  663MOL0     C89425   5.638   5.218  11.075  0.4920 -0.2396 -0.7289
  663MOL0     C89426   5.558   5.249  10.970  0.2225 -0.3448 -0.5607
  663MOL0     C89427   5.548   5.382  10.927 -0.3724  0.0357  0.0764
  663MOL0     O89428   5.475   5.408  10.817 -1.0384  0.5348  0.6988
  663MOL0     C89429   5.333   5.400  10.844  0.7643  0.6652  0.4512
  663MOL0     C89430   5.256   5.364  10.713 -1.1941 -0.4611 -0.1855
  663MOL0     C89431   5.277   5.218  10.662 -0.3211 -0.2375 -0.6126
  663MOL0     C89432   5.223   5.191  10.528  0.8868 -0.5499  0.0132
  663MOL0     C89433   5.078   5.209  10.503  0.0560  0.7169  0.7988
  663MOL0     C89434   4.963   5.205  10.475  0.5920  0.4014  0.9771
  663MOL0     C89435   5.625   5.475  10.984 -0.3597  0.6590 -0.1801
  663MOL0     C89436   5.715   5.443  11.082  0.1204  0.2048 -1.3874
  663MOL0     C89437   5.803   5.559  11.129 -0.1610 -0.4461 -0.5248
  663MOL0     H89438   6.052   5.057  11.136 -0.9083 -0.8290 -0.2657
  663MOL0     H89439   6.266   4.982  11.229  0.5190  1.6874  0.3393
  663MOL0     H89440   6.322   5.127  11.616 -1.5136  0.1157 -0.2166
  663MOL0     H89441   6.317   4.963  11.685  0.0447 -2.0488 -2.6168
  663MOL0     H89442   6.549   4.942  11.687 -0.2697  2.0727  2.6928
  663MOL0     H89443   6.523   5.098  11.726  1.8687  0.8392 -0.2907
  663MOL0     H89444   6.581   5.151  11.468 -0.7799  0.2540  0.6985
  663MOL0     H89445   6.607   4.987  11.446 -0.3021  0.0305  0.0399
  663MOL0     H89446   6.745   5.176  11.648 -1.2067  0.8388 -1.0102
  663MOL0     H89447   6.795   5.009  11.640  2.8546  2.2534  1.6019
  663MOL0     H89448   6.801   5.064  11.380 -4.1573  0.5775 -1.0335
  663MOL0     H89449   6.805   5.230  11.438  1.8328 -0.1331 -0.0967
  663MOL0     H89450   7.010   5.019  11.486 -1.7060 -1.3675 -5.7088
  663MOL0     H89451   7.025   5.164  11.394  4.5306 -0.2893  2.0138
  663MOL0     H89452   7.129   5.171  11.622  0.3954  2.1308  1.3180
  663MOL0     H89453   6.973   5.173  11.703  0.6947 -0.0393  0.6395
  663MOL0     H89454   6.904   5.374  11.576 -0.1992 -2.1833 -0.3366
  663MOL0     H89455   7.022   5.392  11.707 -4.8658  0.4477  0.3415
  663MOL0     H89456   7.009   5.461  11.319 -0.1502  0.3043 -0.8653
  663MOL0     H89457   7.310   5.555  11.202 -1.7309 -2.5537  1.3011
  663MOL0     H89458   7.153   5.620  11.188 -0.8765 -1.5995  1.0493
  663MOL0     H89459   7.393   5.728  11.356 -0.9929  1.0054  2.1092
  663MOL0     H89460   7.307   5.797  11.202 -3.7409  0.5610  0.8857
  663MOL0     H89461   7.202   5.775  11.484  3.2618 -0.7683 -0.9047
  663MOL0     H89462   7.102   5.820  11.345 -0.2897  1.5610 -1.7510
  663MOL0     H89463   7.278   6.025  11.319 -2.8325  1.1132  0.4544
  663MOL0     H89464   7.345   5.971  11.480 -0.7185 -0.2151  0.6649
  663MOL0     H89465   7.002   6.222  11.597 -1.0133  2.7717 -0.9244
  663MOL0     H89466   7.046   6.452  11.636 -0.3404 -1.3918  0.8877
  663MOL0     H89467   7.370   6.839  11.693  1.9695  2.8490 -3.7410
  663MOL0     H89468   7.369   7.070  11.756  0.3948 -1.5121 -1.0685
  663MOL0     H89469   7.136   7.229  11.876 -1.5993  3.1685  0.6396
  663MOL0     H89470   7.290   7.290  11.801  0.1848 -2.6657 -1.3850
  663MOL0     H89471   7.179   7.495  11.731 -2.9135  2.2480  0.6352
  663MOL0     H89472   7.026   7.431  11.795 -1.7237 -1.2054  1.6430
  663MOL0     H89473   7.078   7.473  12.016 -1.2699 -1.3729 -1.5180
  663MOL0     H89474   7.247   7.460  11.997 -1.5231 -2.3803 -0.7237
  663MOL0     H89475   7.075   7.692  11.891  0.4914  0.9134  0.1078
  663MOL0     H89476   7.241   7.672  11.852 -1.6561 -1.1346 -2.0089
  663MOL0     H89477   7.140   7.687  12.138  0.8173 -2.0286 -0.3409
  663MOL0     H89478   7.194   7.821  12.035  2.7408 -0.4301 -0.5797
  663MOL0     H89479   7.360   7.589  12.165  0.7977 -0.4211 -0.0215
  663MOL0     H89480   7.429   7.693  12.042 -0.0152 -3.9324 -0.5438
  663MOL0     H89481   7.304   7.790  12.294 -0.7428 -0.6955  0.1064
  663MOL0     H89482   7.384   7.892  12.179 -1.1270  0.4567  1.0355
  663MOL0     H89483   7.514   7.668  12.327 -0.1296  0.2450  0.4673
  663MOL0     H89484   7.596   7.750  12.207 -1.2433 -0.4504 -1.5280
  663MOL0     H89485   6.969   7.093  11.581  2.1431  3.6735  0.8980
  663MOL0     H89486   6.975   6.843  11.552 -0.5218  2.4299 -1.2995
  663MOL0     H89487   7.440   6.414  11.478  0.2914  0.3418 -0.4137
  663MOL0     H89488   7.391   6.183  11.420  0.7360  0.7347  1.3869
  663MOL0     H89489   6.108   5.051  11.625 -0.8974  0.4024 -0.1826
  663MOL0     H89490   5.887   5.130  11.504  0.0899  2.2212 -1.5997
  663MOL0     H89491   5.638   5.111  11.089 -2.1458 -0.3907 -1.3084
  663MOL0     H89492   5.505   5.170  10.918  1.3678 -0.9778 -0.8035
  663MOL0     H89493   5.304   5.500  10.878 -3.4449 -0.2292 -0.0464
  663MOL0     H89494   5.310   5.323  10.919  3.3243 -0.8224 -0.1503
  663MOL0     H89495   5.298   5.428  10.634  2.0769  1.3836  2.7381
  663MOL0     H89496   5.150   5.379  10.736 -1.2124  0.5499 -0.8489
  663MOL0     H89497   5.243   5.144  10.736  1.2823 -0.8397 -0.4313
  663MOL0     H89498   5.386   5.218  10.670 -0.3307  1.3235 -0.0626
  663MOL0     H89499   5.288   5.257  10.469 -0.2314  1.7391  1.2052
  663MOL0     H89500   5.254   5.088  10.511  0.3144 -0.6768 -0.2753
  663MOL0     H89501   4.860   5.202  10.447  0.3315 -1.6491  2.0028
  663MOL0     H89502   5.626   5.578  10.951  3.0833  0.6658 -0.4411
  663MOL0     H89503   5.903   5.558  11.084  0.7210 -1.3039  1.3643
  663MOL0     H89504   5.752   5.651  11.100 -2.3249 -1.0524  1.1077
  663MOL0     H89505   5.812   5.567  11.237  0.8684 -1.3573 -0.5278
  664MOL0     O89506   9.911   5.730   5.615 -0.7973 -0.4145 -0.1092
  664MOL0     C89507  10.007   5.795   5.572 -0.0979 -0.2324 -0.6296
  664MOL0     O89508  10.095   5.869   5.647  0.1974 -0.0024 -0.2143
  664MOL0     C89509  10.067   5.909   5.777 -1.0874  0.1189  0.1723
  664MOL0     C89510  10.086   6.044   5.811  0.3852 -0.3435 -0.0329
  664MOL0     C89511  10.059   6.088   5.942  0.1315 -0.0975 -0.3361
  664MOL0     C89512  10.037   5.995   6.046 -0.8747  0.3264 -0.0724
  664MOL0     O89513  10.005   6.017   6.174 -1.0686  0.5786  0.6222
  664MOL0     C89514  10.061   6.139   6.234  0.6450  0.9087  0.4496
  664MOL0     C89515  10.206   6.117   6.265  0.5152 -0.4315 -0.7744
  664MOL0     C89516  10.237   5.992   6.344 -0.7137 -0.1618  0.4950
  664MOL0     C89517  10.363   5.984   6.430 -0.3099 -0.4718 -0.5135
  664MOL0     C89518  10.401   5.845   6.491 -0.1760  0.1636 -0.1323
  664MOL0     C89519  10.430   5.732   6.382 -0.2245  0.1701 -0.9610
  664MOL0     C89520  10.521   5.766   6.262 -0.6878  0.0108 -0.8973
  664MOL0     C89521  10.668   5.771   6.296 -0.2488 -0.7964 -0.7121
  664MOL0     N89522  10.756   5.789   6.182  0.0805 -0.1147  0.6820
  664MOL0     C89523  10.857   5.873   6.194  0.7029 -0.2474 -0.1040
  664MOL0     C89524  10.937   5.828   6.082 -0.5989 -0.0176 -0.4991
  664MOL0     C89525  11.083   5.867   6.061  0.2634 -1.0469  0.8178
  664MOL0     C89526  11.110   6.024   6.065 -1.0226  0.8617 -0.1297
  664MOL0     C89527  11.257   6.046   6.097 -0.0316 -0.3336  0.5327
  664MOL0     C89528  11.287   6.190   6.098 -0.0984 -0.5152  0.1111
  664MOL0     O89529  11.228   6.265   6.211 -0.3280  0.2584  0.3786
  664MOL0     C89530  11.207   6.400   6.197  0.6869 -0.3260 -1.0926
  664MOL0     C89531  11.268   6.485   6.101 -0.1195  0.7040 -0.3434
  664MOL0     C89532  11.236   6.624   6.099  0.6563  0.9041  0.0906
  664MOL0     C89533  11.131   6.674   6.177 -0.1997 -0.2594  0.0427
  664MOL0     C89534  11.096   6.816   6.170  0.1946  0.1378 -0.5905
  664MOL0     O89535  11.004   6.854   6.271 -1.2453 -0.1410 -0.0647
  664MOL0     C89536  10.980   6.990   6.276  0.5559 -0.8693  0.5133
  664MOL0     C89537  11.074   7.087   6.307 -0.5818 -0.7028  0.3121
  664MOL0     C89538  11.038   7.225   6.321  0.5408 -0.4940  0.1856
  664MOL0     C89539  10.899   7.263   6.295 -0.3902 -0.3573 -0.2449
  664MOL0     O89540  10.854   7.392   6.298 -0.1506  0.6516 -0.1839
  664MOL0     C89541  10.946   7.495   6.312 -0.3316 -0.3410 -0.0879
  664MOL0     C89542  10.876   7.627   6.332  0.5234  0.2717 -0.0695
  664MOL0     C89543  10.808   7.679   6.202 -0.6155  0.1423  0.2149
  664MOL0     C89544  10.731   7.817   6.217 -0.4549  0.2365  0.3352
  664MOL0     C89545  10.684   7.869   6.080 -0.7591  0.2116  0.0854
  664MOL0     C89546  10.533   7.843   6.070  0.9720 -0.7322  0.4727
  664MOL0     C89547  10.480   7.878   5.927  0.3392 -0.2615  0.1389
  664MOL0     C89548  10.325   7.888   5.918 -0.7208 -0.5052 -0.0707
  664MOL0    Cl89549  10.267   7.750   5.831  0.0018 -0.4310 -0.1723
  664MOL0     C89550  10.808   7.169   6.258  0.0716  0.2201 -0.3098
  664MOL0     C89551  10.845   7.036   6.252 -0.0176 -0.4281 -0.3324
  664MOL0     O89552  11.160   6.895   6.098  0.3676  0.6734  0.6902
  664MOL0     C89553  11.076   6.592   6.273 -0.2358 -0.2024  0.1527
  664MOL0     C89554  11.109   6.448   6.277  0.0195 -0.3762  0.2091
  664MOL0     N89555  10.866   5.741   6.001 -0.0249  0.5678  0.9393
  664MOL0     N89556  10.756   5.730   6.054 -0.0359 -0.5834 -1.1244
  664MOL0     C89557  10.022   5.858   6.004  0.0503 -0.4668 -0.0854
  664MOL0     C89558  10.035   5.804   5.871 -0.3108  0.1738 -0.8794
  664MOL0     C89559  10.023   5.798   5.428  0.7513  0.5196  0.3850
  664MOL0     C89560   9.995   5.676   5.353 -0.1102 -0.7199  0.0400
  664MOL0     C89561  10.012   5.677   5.217 -0.5393  0.8923  0.6726
  664MOL0     C89562  10.067   5.780   5.148 -1.1453  0.2612  0.0161
  664MOL0     O89563  10.100   5.772   5.013  0.5228 -0.6470 -0.2132
  664MOL0     C89564  10.030   5.868   4.928  0.1350 -0.0507  0.1157
  664MOL0     C89565  10.098   5.861   4.797  0.3927  0.1230 -0.1629
  664MOL0     C89566  10.036   5.977   4.714 -0.6128 -0.1528 -0.0192
  664MOL0     C89567  10.106   5.977   4.581 -0.2303  0.3598  0.5129
  664MOL0     C89568  10.047   6.079   4.493 -0.3363 -0.1495 -0.3201
  664MOL0     C89569   9.989   6.172   4.439 -0.1742  0.4206  0.2698
  664MOL0     C89570  10.119   5.888   5.221  1.5967 -0.2903 -0.7287
  664MOL0     C89571  10.094   5.905   5.359 -0.1829 -0.2005 -0.5569
  664MOL0     C89572  10.146   6.038   5.419 -1.3545  0.2448  0.2046
  664MOL0     H89573  10.124   6.115   5.738 -3.3579  1.6335 -0.2768
  664MOL0     H89574  10.062   6.196   5.956  1.5200 -0.0212 -1.0485
  664MOL0     H89575  10.027   6.223   6.173 -0.3780  0.0840 -0.1673
  664MOL0     H89576  10.013   6.150   6.332 -1.4559 -0.6575 -0.3000
  664MOL0     H89577  10.239   6.208   6.315  0.8261 -0.8838 -0.1401
  664MOL0     H89578  10.266   6.116   6.173  0.2369 -1.9251 -0.9724
  664MOL0     H89579  10.252   5.917   6.265  0.7152  0.2585  0.3428
  664MOL0     H89580  10.160   5.959   6.414 -1.0729  0.4927  0.4201
  664MOL0     H89581  10.446   6.006   6.362 -1.5446  2.0587 -1.3372
  664MOL0     H89582  10.356   6.058   6.510 -1.4117 -3.0318  1.9455
  664MOL0     H89583  10.492   5.859   6.551 -1.6914  2.4556  1.7831
  664MOL0     H89584  10.325   5.819   6.565  0.5193  0.1289  0.5846
  664MOL0     H89585  10.467   5.644   6.434  0.5821  0.4774 -0.9916
  664MOL0     H89586  10.331   5.708   6.342 -1.2189  1.4647  0.5929
  664MOL0     H89587  10.487   5.856   6.210 -2.3034 -0.5610 -0.8960
  664MOL0     H89588  10.513   5.687   6.186 -2.0055  1.0844 -1.9170
  664MOL0     H89589  10.674   5.845   6.376 -1.2998 -3.4388  2.0249
  664MOL0     H89590  10.704   5.680   6.346  1.2412  0.1342 -0.0171
  664MOL0     H89591  10.879   5.935   6.280  1.1407 -2.3076  1.3549
  664MOL0     H89592  11.135   5.821   6.146  4.3513  3.0122  0.9471
  664MOL0     H89593  11.104   5.847   5.956 -1.4164  3.2741 -0.5797
  664MOL0     H89594  11.091   6.064   5.965  1.3376  0.6887 -0.7002
  664MOL0     H89595  11.039   6.065   6.137 -9.3343 -1.0474 -5.7133
  664MOL0     H89596  11.319   5.994   6.024 -0.0961 -1.4941  1.2883
  664MOL0     H89597  11.277   6.012   6.199  0.0897  2.4889  1.5365
  664MOL0     H89598  11.249   6.226   6.003  0.0159  0.6305  0.4788
  664MOL0     H89599  11.395   6.204   6.086 -0.1432 -1.3784 -1.5415
  664MOL0     H89600  11.357   6.449   6.050  0.6173  1.6062  0.2686
  664MOL0     H89601  11.289   6.703   6.047 -0.0672  2.2280  1.2938
  664MOL0     H89602  11.179   7.061   6.313 -1.0167 -2.4515  0.9083
  664MOL0     H89603  11.112   7.296   6.355  1.8934 -0.9420 -1.6530
  664MOL0     H89604  11.022   7.480   6.390  2.1555 -0.3537 -2.4011
  664MOL0     H89605  11.005   7.517   6.223 -1.5200  3.0276 -0.2093
  664MOL0     H89606  10.798   7.621   6.408  0.4061 -0.6689 -0.2526
  664MOL0     H89607  10.960   7.691   6.362  0.8069 -0.2307  0.2338
  664MOL0     H89608  10.888   7.686   6.128  0.0329 -0.1735  0.8691
  664MOL0     H89609  10.745   7.596   6.170  2.5811 -1.4808 -2.4042
  664MOL0     H89610  10.806   7.884   6.262  0.2527  0.3577 -0.9613
  664MOL0     H89611  10.650   7.816   6.289  0.2008  1.8843  1.1582
  664MOL0     H89612  10.743   7.824   5.999 -1.2977 -4.3407  1.9339
  664MOL0     H89613  10.697   7.978   6.077  0.6627  0.1091  1.1538
  664MOL0     H89614  10.497   7.742   6.089 -1.3501  0.0256  0.4969
  664MOL0     H89615  10.486   7.919   6.134  1.7324  1.1973 -1.1621
  664MOL0     H89616  10.521   7.801   5.860 -0.9040 -1.6151  0.8832
  664MOL0     H89617  10.525   7.974   5.900 -0.3672 -0.2781 -1.2062
  664MOL0     H89618  10.275   7.902   6.015 -1.5317 -0.0370 -0.5483
  664MOL0     H89619  10.297   7.977   5.862 -3.4690  0.8332  3.0898
  664MOL0     H89620  10.709   7.210   6.243  0.8091  1.3402 -2.5710
  664MOL0     H89621  10.765   6.966   6.228 -0.4149 -0.5121  1.1488
  664MOL0     H89622  10.999   6.629   6.341  1.1163  3.4637 -0.0921
  664MOL0     H89623  11.077   6.390   6.363  0.0698 -0.6562  0.0395
  664MOL0     H89624   9.983   5.796   6.083 -0.5475  0.4222  0.3297
  664MOL0     H89625  10.011   5.702   5.844 -2.1107 -0.0920  1.4182
  664MOL0     H89626   9.949   5.596   5.411  0.1985  0.6538  2.2981
  664MOL0     H89627   9.971   5.595   5.159 -0.6621  0.1793  1.7320
  664MOL0     H89628  10.040   5.968   4.970 -0.3258 -0.5280  1.4269
  664MOL0     H89629   9.927   5.837   4.909 -0.1946  0.0898  1.5642
  664MOL0     H89630  10.097   5.766   4.743  0.2302  0.4990 -0.8292
  664MOL0     H89631  10.203   5.888   4.814 -0.0841  1.7744  0.4067
  664MOL0     H89632  10.059   6.069   4.768 -0.9763 -1.7990  3.2243
  664MOL0     H89633   9.928   5.973   4.699 -0.5165 -0.6441 -0.6250
  664MOL0     H89634  10.211   5.994   4.607  0.9119 -1.1485 -2.6365
  664MOL0     H89635  10.099   5.877   4.537 -0.7934 -0.2602  1.9358
  664MOL0     H89636   9.931   6.248   4.391  1.1612 -0.3779 -2.8965
  664MOL0     H89637  10.149   5.979   5.170 -1.2816  0.9553 -0.4267
  664MOL0     H89638  10.107   6.064   5.517  1.2059 -1.5223  1.8038
  664MOL0     H89639  10.253   6.024   5.437 -1.9066 -2.6727  1.8736
  664MOL0     H89640  10.143   6.113   5.340  1.2322 -1.1013 -1.3149
  665MOL0     O89641   9.587   3.386  10.698  1.1681  0.6591  0.1241
  665MOL0     C89642   9.556   3.376  10.816  0.7977 -0.5651  0.1470
  665MOL0     O89643   9.467   3.451  10.879  0.5029  0.2187 -0.1348
  665MOL0     C89644   9.427   3.571  10.816  0.2243 -0.5826 -0.6721
  665MOL0     C89645   9.291   3.610  10.824 -0.2794  0.4068  0.8944
  665MOL0     C89646   9.238   3.731  10.771 -0.0680  0.4943  0.3160
  665MOL0     C89647   9.324   3.819  10.722 -0.3362  0.1117 -0.5289
  665MOL0     O89648   9.291   3.945  10.689  0.3194 -0.4641 -0.0451
  665MOL0     C89649   9.155   4.005  10.696  0.3396  0.0383  0.1003
  665MOL0     C89650   9.164   4.158  10.650  0.4953  0.2975 -0.5018
  665MOL0     C89651   9.025   4.231  10.683 -0.1534 -0.3224  0.4271
  665MOL0     C89652   9.031   4.376  10.682  0.4886  0.5869 -0.6131
  665MOL0     C89653   8.898   4.451  10.699  0.3533  0.8606 -0.7807
  665MOL0     C89654   8.849   4.491  10.849 -0.1140  0.0005  0.1013
  665MOL0     C89655   8.695   4.499  10.859 -0.3096 -0.9755 -0.4543
  665MOL0     C89656   8.637   4.621  10.780 -0.8760  0.0968 -0.5990
  665MOL0     N89657   8.669   4.749  10.848 -0.2169  0.0832  0.1654
  665MOL0     C89658   8.764   4.842  10.815  0.3466  0.9150 -0.4540
  665MOL0     C89659   8.752   4.944  10.903 -0.6258  0.5269  0.6820
  665MOL0     C89660   8.857   5.065  10.912  0.4103 -0.4389 -0.7645
  665MOL0     C89661   8.963   5.026  11.015 -0.2011  0.3062 -0.2519
  665MOL0     C89662   9.058   4.915  10.952 -0.8774  0.7064  0.1469
  665MOL0     C89663   9.144   4.868  11.074  0.1415  0.2421 -0.1021
  665MOL0     O89664   9.188   4.736  11.057 -0.4934  0.5040 -0.1893
  665MOL0     C89665   9.295   4.710  10.974  1.4000  0.4504  0.6120
  665MOL0     C89666   9.318   4.574  10.966 -1.0177 -0.1232  0.6728
  665MOL0     C89667   9.412   4.528  10.877 -0.6291  0.3658  0.4448
  665MOL0     C89668   9.489   4.613  10.792  0.3420 -0.3375 -0.2630
  665MOL0     C89669   9.571   4.558  10.688 -0.4354  0.3704 -0.1613
  665MOL0     O89670   9.594   4.422  10.689 -0.3108 -0.7492  0.4397
  665MOL0     C89671   9.670   4.356  10.597  0.1179 -0.0460 -0.0135
  665MOL0     C89672   9.793   4.403  10.544 -0.3196 -0.0349  0.1660
  665MOL0     C89673   9.886   4.316  10.470  1.2453 -0.7777 -0.6432
  665MOL0     C89674   9.850   4.186  10.452  0.7576 -0.2174 -0.0502
  665MOL0     O89675   9.938   4.111  10.388 -0.7205  0.4211  0.1881
  665MOL0     C89676   9.886   3.972  10.366  0.6361 -0.2981 -0.2673
  665MOL0     C89677   9.987   3.903  10.279  0.1243  0.4743 -0.0619
  665MOL0     C89678  10.121   3.874  10.359  0.7135 -0.5263 -0.1189
  665MOL0     C89679  10.235   3.820  10.275  1.0107 -0.9533  0.1767
  665MOL0     C89680  10.214   3.685  10.206  0.1558  0.6211  0.0034
  665MOL0     C89681  10.331   3.637  10.124 -0.6066  0.3162 -0.5934
  665MOL0     C89682  10.453   3.620  10.213 -0.5292 -0.4052  0.5071
  665MOL0     C89683  10.531   3.490  10.195  1.6830  0.2866 -0.5296
  665MOL0    Cl89684  10.697   3.518  10.249 -0.0949 -0.2415 -0.4121
  665MOL0     C89685   9.723   4.139  10.508  0.4157  0.0812 -0.4984
  665MOL0     C89686   9.642   4.226  10.581 -0.8867 -0.1232 -0.0246
  665MOL0     O89687   9.625   4.629  10.603 -0.0697  0.0419 -0.6423
  665MOL0     C89688   9.468   4.751  10.817 -0.4302 -0.0461 -0.1768
  665MOL0     C89689   9.383   4.799  10.917  0.4324  0.0252  0.1125
  665MOL0     N89690   8.660   4.914  10.997  0.6513 -0.0355 -0.1409
  665MOL0     N89691   8.611   4.796  10.961  0.2899  0.1897  0.0635
  665MOL0     C89692   9.462   3.780  10.709 -0.4726 -0.3147 -0.5135
  665MOL0     C89693   9.505   3.661  10.758 -0.8090  0.7217 -0.6915
  665MOL0     C89694   9.622   3.273  10.901  0.4944  0.1090 -0.5269
  665MOL0     C89695   9.618   3.287  11.044 -0.3693  0.0433  0.2935
  665MOL0     C89696   9.639   3.180  11.131 -0.1809  0.2772  0.3928
  665MOL0     C89697   9.663   3.061  11.075  0.0683 -0.1579  0.7730
  665MOL0     O89698   9.674   2.956  11.162  0.2050  0.9736 -1.2327
  665MOL0     C89699   9.585   2.846  11.150  0.0956  0.1741  1.0444
  665MOL0     C89700   9.653   2.709  11.178  0.1733 -0.1560 -0.2523
  665MOL0     C89701   9.546   2.599  11.184 -0.5572 -0.2218  0.8327
  665MOL0     C89702   9.594   2.466  11.119 -0.0438 -0.7320 -0.6531
  665MOL0     C89703   9.599   2.488  10.979 -1.2173  0.5353  0.4481
  665MOL0     C89704   9.620   2.515  10.866  0.8803  1.0870  0.6399
  665MOL0     C89705   9.671   3.046  10.933 -0.0973  0.1348  0.5381
  665MOL0     C89706   9.660   3.153  10.848  1.0829 -0.0857  0.1516
  665MOL0     C89707   9.678   3.112  10.710  0.0164  0.8386  0.7887
  665MOL0     H89708   9.218   3.543  10.869 -1.0623 -2.1369 -3.6460
  665MOL0     H89709   9.134   3.755  10.793 -0.9568 -0.0130 -2.8366
  665MOL0     H89710   9.077   3.955  10.636 -1.9394  0.9247  2.1414
  665MOL0     H89711   9.107   3.999  10.794 -0.6245 -0.8039 -0.3960
  665MOL0     H89712   9.183   4.175  10.544  0.8693 -1.2846 -0.7142
  665MOL0     H89713   9.249   4.201  10.705  0.4025 -0.4649  0.2551
  665MOL0     H89714   8.982   4.205  10.780 -3.0202  4.4946  0.7721
  665MOL0     H89715   8.948   4.198  10.612  1.0735  0.6318 -1.4023
  665MOL0     H89716   9.105   4.409  10.756  1.1142 -0.6243 -0.6743
  665MOL0     H89717   9.066   4.396  10.580  2.8827 -0.9209 -0.1568
  665MOL0     H89718   8.910   4.538  10.634 -1.4443  0.3643 -1.8409
  665MOL0     H89719   8.813   4.389  10.669  0.7519  0.5513 -1.2704
  665MOL0     H89720   8.876   4.412  10.920  1.3764  1.1552  0.8746
  665MOL0     H89721   8.879   4.585  10.896 -3.0312 -0.4218  3.1825
  665MOL0     H89722   8.662   4.505  10.963 -0.8618  1.5104 -0.7147
  665MOL0     H89723   8.658   4.405  10.816  1.9159 -2.6502  1.0549
  665MOL0     H89724   8.689   4.621  10.684  3.5144  0.1640  1.5449
  665MOL0     H89725   8.530   4.606  10.762 -0.3681 -1.8934 -2.3484
  665MOL0     H89726   8.844   4.820  10.746  1.1502  1.9251  0.1337
  665MOL0     H89727   8.895   5.098  10.815  1.4716  1.3970  0.2090
  665MOL0     H89728   8.806   5.157  10.943  1.6355  0.3710 -1.0866
  665MOL0     H89729   9.015   5.113  11.057 -1.9937  1.5218 -0.4198
  665MOL0     H89730   8.917   4.998  11.111  4.4291 -1.7892  1.6491
  665MOL0     H89731   9.124   4.958  10.876  1.5230  0.6201  2.0593
  665MOL0     H89732   8.996   4.831  10.921  2.2844 -1.6820 -0.1953
  665MOL0     H89733   9.084   4.861  11.165 -0.7942  1.4442 -0.5892
  665MOL0     H89734   9.223   4.940  11.097 -2.3727  2.3657  2.7366
  665MOL0     H89735   9.248   4.503  11.008 -0.5386 -1.0912 -0.1039
  665MOL0     H89736   9.424   4.421  10.862  1.5544  0.4107  1.4679
  665MOL0     H89737   9.834   4.500  10.570 -0.3705  0.3428 -1.0848
  665MOL0     H89738   9.986   4.343  10.439  0.9315 -1.0380 -1.9573
  665MOL0     H89739   9.878   3.930  10.466  0.0158  2.0240  0.7280
  665MOL0     H89740   9.797   3.978  10.303  1.4502 -2.1826 -1.6982
  665MOL0     H89741   9.939   3.810  10.247  1.6564 -0.0770 -0.8276
  665MOL0     H89742  10.016   3.969  10.197 -1.1373  3.0219  1.4396
  665MOL0     H89743  10.156   3.956  10.424  0.8386 -2.0188  1.7993
  665MOL0     H89744  10.097   3.787  10.420  0.3166 -1.6360 -1.8115
  665MOL0     H89745  10.318   3.816  10.347  2.8219  1.4233 -1.6010
  665MOL0     H89746  10.263   3.889  10.195  1.3215 -1.9353 -0.5851
  665MOL0     H89747  10.122   3.687  10.147  0.6175 -3.1153 -1.1204
  665MOL0     H89748  10.197   3.609  10.283  1.4878  0.4757  0.1741
  665MOL0     H89749  10.295   3.539  10.094 -1.5629 -0.5970  3.0456
  665MOL0     H89750  10.361   3.703  10.042  1.7749  1.4722  1.1164
  665MOL0     H89751  10.428   3.619  10.319  3.1125 -2.6967  1.5586
  665MOL0     H89752  10.526   3.700  10.197 -1.7086  0.5232 -0.4096
  665MOL0     H89753  10.480   3.417  10.258 -1.0349  0.5620 -2.2715
  665MOL0     H89754  10.521   3.465  10.089 -0.2719  2.2182 -0.8639
  665MOL0     H89755   9.684   4.039  10.497  0.3324  0.2334 -1.6648
  665MOL0     H89756   9.549   4.190  10.625 -0.5187 -1.5387 -0.3779
  665MOL0     H89757   9.518   4.827  10.758 -4.0572  3.0917  0.3926
  665MOL0     H89758   9.363   4.902  10.946  2.4583 -0.4198  3.7614
  665MOL0     H89759   9.532   3.851  10.668 -3.0433  1.6132 -1.8703
  665MOL0     H89760   9.612   3.640  10.768 -0.8012  1.5849  1.5880
  665MOL0     H89761   9.569   3.377  11.080 -2.5924 -1.2504  0.7120
  665MOL0     H89762   9.614   3.181  11.237  0.4102  1.5488  0.5363
  665MOL0     H89763   9.562   2.843  11.043  0.3622  1.5528  0.9189
  665MOL0     H89764   9.493   2.858  11.207  0.3944 -3.4661  2.5516
  665MOL0     H89765   9.712   2.711  11.270 -1.1828 -0.9087  0.6659
  665MOL0     H89766   9.730   2.703  11.100  1.0055  1.9788  0.3309
  665MOL0     H89767   9.451   2.621  11.135 -0.0034 -0.8926 -0.6269
  665MOL0     H89768   9.532   2.589  11.292 -0.6899 -1.3521  0.7277
  665MOL0     H89769   9.693   2.446  11.161 -0.0378 -0.6357 -0.6235
  665MOL0     H89770   9.536   2.380  11.154 -2.2263  0.2868 -1.5508
  665MOL0     H89771   9.647   2.553  10.769 -3.6624 -1.3509 -1.9375
  665MOL0     H89772   9.698   2.953  10.884 -1.2605  1.7237 -3.5518
  665MOL0     H89773   9.727   3.188  10.648 -0.0604  1.8074  1.8743
  665MOL0     H89774   9.757   3.036  10.699  0.4752  1.6455 -2.7872
  665MOL0     H89775   9.584   3.098  10.657  1.0974  1.2368 -1.3373
  666MOL0     O89776   0.280   9.505   5.331 -0.0688 -0.3358  0.3738
  666MOL0     C89777   0.305   9.394   5.280  0.4818 -0.5709 -0.1897
  666MOL0     O89778   0.321   9.278   5.341  0.1746  0.0365 -0.2429
  666MOL0     C89779   0.350   9.284   5.475  0.2873  0.2948 -0.8691
  666MOL0     C89780   0.252   9.258   5.568  0.6241 -1.7481  0.2935
  666MOL0     C89781   0.275   9.263   5.703  0.6319 -0.7405 -0.1189
  666MOL0     C89782   0.407   9.283   5.748 -0.8750 -0.5614 -0.9177
  666MOL0     O89783   0.437   9.269   5.883  0.3992 -0.1779  0.4244
  666MOL0     C89784   0.573   9.251   5.930  0.4913 -1.2739 -0.4755
  666MOL0     C89785   0.639   9.116   5.897  0.3832  0.0127  0.4078
  666MOL0     C89786   0.774   9.123   5.825 -0.7244 -0.8614  0.0724
  666MOL0     C89787   0.887   9.193   5.914  0.4859  0.6020  0.5219
  666MOL0     C89788   0.931   9.098   6.026  0.0807  0.1512  0.0153
  666MOL0     C89789   0.949   8.955   5.986 -0.3943  0.3508  0.0330
  666MOL0     C89790   1.068   8.946   5.885 -0.6840 -0.3209 -0.7634
  666MOL0     C89791   1.100   8.804   5.842 -0.2900  0.1797  0.7504
  666MOL0     N89792   0.982   8.718   5.852  1.1571  0.5405  0.3991
  666MOL0     C89793   0.872   8.744   5.771  0.5222  1.4275  0.1691
  666MOL0     C89794   0.775   8.669   5.829  0.2217  0.4977 -0.6724
  666MOL0     C89795   0.649   8.649   5.758 -0.1128 -0.2767  0.4640
  666MOL0     C89796   0.546   8.748   5.787 -1.0639  0.7098 -0.6686
  666MOL0     C89797   0.428   8.741   5.696  0.1535  0.0473  0.5233
  666MOL0     C89798   0.321   8.852   5.735 -0.4710  0.5520 -1.1489
  666MOL0     O89799   0.225   8.866   5.632  0.0625 -0.4064 -0.5776
  666MOL0     C89800   0.113   8.941   5.648 -0.6217 -0.2860 -0.7940
  666MOL0     C89801   0.032   8.947   5.534  0.4266 -0.1976 -0.0171
  666MOL0     C89802  -0.095   9.023   5.527 -0.2307  0.1111  0.1177
  666MOL0     C89803  -0.138   9.087   5.648 -1.5808  0.0070  1.5884
  666MOL0     C89804  -0.259   9.160   5.640  0.2415 -0.2200  0.2716
  666MOL0     O89805  -0.286   9.241   5.749 -1.0098 -0.1009  0.6743
  666MOL0     C89806  -0.365   9.350   5.754  0.6779  0.2083 -0.7394
  666MOL0     C89807  -0.300   9.469   5.794  0.3716  0.5319 -0.4288
  666MOL0     C89808  -0.372   9.590   5.775 -0.0705 -0.5479 -0.6717
  666MOL0     C89809  -0.502   9.600   5.722  1.0143  0.1319  0.3002
  666MOL0     O89810  -0.547   9.716   5.678 -0.0984  0.3130  0.0313
  666MOL0     C89811  -0.689   9.727   5.652 -0.2001 -0.1594 -0.2607
  666MOL0     C89812  -0.717   9.879   5.622  0.0170 -0.5476  0.2869
  666MOL0     C89813  -0.843   9.939   5.681  0.2281  0.6503 -0.2616
  666MOL0     C89814  -0.981   9.873   5.653 -0.1863 -0.8591  0.2966
  666MOL0     C89815  -1.099   9.941   5.737 -0.0007  0.2515 -0.6236
  666MOL0     C89816  -1.104  10.101   5.729  0.3303 -0.4294  0.4148
  666MOL0     C89817  -1.190  10.160   5.840  1.4107 -0.8961 -0.1806
  666MOL0     C89818  -1.285  10.262   5.786 -0.6610  0.1159  0.1553
  666MOL0    Cl89819  -1.200  10.397   5.692  0.0340 -0.1519 -0.6684
  666MOL0     C89820  -0.567   9.478   5.690 -0.0823  0.2583  0.1882
  666MOL0     C89821  -0.501   9.357   5.711  0.4358  0.0030  0.2545
  666MOL0     O89822  -0.340   9.142   5.548 -0.4418  0.0714  0.0611
  666MOL0     C89823  -0.059   9.078   5.763  0.2171 -0.6198  0.4714
  666MOL0     C89824   0.063   8.996   5.774 -0.5174  0.6606 -0.1433
  666MOL0     N89825   0.815   8.615   5.947 -0.1443 -0.2678  0.3241
  666MOL0     N89826   0.938   8.645   5.962 -0.3325  0.2397  0.1713
  666MOL0     C89827   0.506   9.316   5.659  1.0359  0.6333 -0.6605
  666MOL0     C89828   0.473   9.321   5.523  0.1457  0.3289 -0.1556
  666MOL0     C89829   0.310   9.399   5.129  0.0528 -0.0113 -0.7664
  666MOL0     C89830   0.294   9.521   5.058 -0.7294 -0.8359 -0.3174
  666MOL0     C89831   0.311   9.535   4.920 -0.6029 -0.3615  0.3433
  666MOL0     C89832   0.307   9.423   4.847 -0.1131 -0.1477  0.0977
  666MOL0     O89833   0.295   9.435   4.711  0.7578 -0.6633  0.1928
  666MOL0     C89834   0.256   9.324   4.635  0.4892  0.7848  0.3506
  666MOL0     C89835   0.246   9.365   4.484  0.4308 -0.1352 -0.5641
  666MOL0     C89836   0.201   9.511   4.450 -0.5943  1.0991 -0.7482
  666MOL0     C89837   0.212   9.552   4.307 -0.3259 -0.3635  0.6366
  666MOL0     C89838   0.353   9.568   4.267 -0.2727 -0.3359 -0.0696
  666MOL0     C89839   0.471   9.583   4.242 -0.1698 -0.4908  0.0737
  666MOL0     C89840   0.327   9.296   4.906  0.0696 -0.5372 -0.4961
  666MOL0     C89841   0.333   9.281   5.047 -0.4937 -0.3259  0.0389
  666MOL0     C89842   0.374   9.143   5.095  0.2962 -0.2604  0.1094
  666MOL0     H89843   0.150   9.242   5.533  0.1017 -0.3373  1.0869
  666MOL0     H89844   0.188   9.248   5.766  0.5442 -1.0564 -0.3122
  666MOL0     H89845   0.640   9.330   5.896 -2.5666  1.4869 -0.5385
  666MOL0     H89846   0.578   9.264   6.039 -0.3683  1.7984 -0.7052
  666MOL0     H89847   0.570   9.064   5.830  0.5281  0.9007 -0.4478
  666MOL0     H89848   0.648   9.057   5.989  0.6148 -1.1147 -0.3294
  666MOL0     H89849   0.749   9.174   5.732 -1.8724  2.4819  2.0355
  666MOL0     H89850   0.808   9.025   5.791  0.6804 -1.1191  2.0307
  666MOL0     H89851   0.972   9.220   5.850  0.7342 -0.5287  0.3612
  666MOL0     H89852   0.848   9.283   5.962  0.6293 -0.3296  2.4546
  666MOL0     H89853   1.006   9.135   6.097 -0.3827  0.0934  0.5526
  666MOL0     H89854   0.850   9.085   6.099  0.7423 -3.5444  0.2675
  666MOL0     H89855   0.971   8.897   6.076 -2.1512  1.2676  1.0963
  666MOL0     H89856   0.849   8.918   5.964 -0.4925  1.0984 -0.8368
  666MOL0     H89857   1.158   8.992   5.929 -0.4749 -0.0040 -1.5070
  666MOL0     H89858   1.051   9.004   5.794  2.0717  0.6155 -0.7810
  666MOL0     H89859   1.118   8.808   5.734 -0.3067 -1.8933  0.6259
  666MOL0     H89860   1.189   8.758   5.886  1.3299  3.0699  0.7213
  666MOL0     H89861   0.873   8.794   5.675  1.3809  0.9286 -0.0918
  666MOL0     H89862   0.673   8.662   5.653 -0.0072 -3.4348 -0.0148
  666MOL0     H89863   0.615   8.545   5.767  1.1847 -0.9696 -2.0073
  666MOL0     H89864   0.510   8.734   5.890  2.8491  0.1708  0.8083
  666MOL0     H89865   0.592   8.847   5.781 -1.5905  0.9017 -1.6148
  666MOL0     H89866   0.394   8.639   5.715  2.7345 -0.6462  1.9192
  666MOL0     H89867   0.462   8.766   5.595  0.9856  2.4489  1.3344
  666MOL0     H89868   0.357   8.946   5.778  2.9174 -1.5542  1.1295
  666MOL0     H89869   0.273   8.808   5.823  0.0337  1.1400 -0.5597
  666MOL0     H89870   0.061   8.897   5.442 -0.5768 -0.4274 -0.2204
  666MOL0     H89871  -0.158   9.034   5.438 -0.1770 -2.6105 -0.3346
  666MOL0     H89872  -0.195   9.474   5.823  0.6056 -1.5932 -0.7599
  666MOL0     H89873  -0.341   9.693   5.788 -3.1208  0.3478  0.4969
  666MOL0     H89874  -0.701   9.665   5.562  1.2472 -0.9395  0.0511
  666MOL0     H89875  -0.758   9.696   5.731 -1.0180 -1.2182 -1.3547
  666MOL0     H89876  -0.634   9.949   5.638  0.7330 -1.0726 -0.9697
  666MOL0     H89877  -0.739   9.893   5.516 -1.1916  1.6816  0.7809
  666MOL0     H89878  -0.827   9.927   5.789 -1.0396  2.2225  0.1513
  666MOL0     H89879  -0.842  10.047   5.666  0.6566  0.8711  1.1705
  666MOL0     H89880  -0.954   9.769   5.674  3.0369 -0.2739 -0.3871
  666MOL0     H89881  -0.999   9.880   5.545 -0.0899 -0.2715  0.3134
  666MOL0     H89882  -1.077   9.918   5.842 -0.2054 -2.1035 -1.0278
  666MOL0     H89883  -1.186   9.892   5.692  2.1243 -2.3480 -2.2884
  666MOL0     H89884  -1.004  10.146   5.732 -0.2224  1.0826 -1.6898
  666MOL0     H89885  -1.151  10.129   5.634  0.1430 -1.0922  0.3047
  666MOL0     H89886  -1.117  10.216   5.900  1.7026  0.4084 -1.6853
  666MOL0     H89887  -1.245  10.085   5.897  0.0139  1.2493  1.4721
  666MOL0     H89888  -1.362  10.216   5.724 -1.9027  1.1337  0.9013
  666MOL0     H89889  -1.328  10.312   5.874 -0.5792  1.7625 -0.7025
  666MOL0     H89890  -0.668   9.481   5.651 -0.7066 -0.4206  1.6955
  666MOL0     H89891  -0.552   9.264   5.688  1.1822 -0.6206  1.0850
  666MOL0     H89892  -0.075   9.137   5.853  1.9087 -1.0961  1.1239
  666MOL0     H89893   0.131   8.988   5.858  0.0517 -1.1012 -0.7206
  666MOL0     H89894   0.608   9.338   5.690  0.1930 -1.8510  5.2210
  666MOL0     H89895   0.548   9.342   5.448  2.5571 -3.9900  0.7007
  666MOL0     H89896   0.267   9.600   5.127  0.4960 -1.3891  0.8203
  666MOL0     H89897   0.313   9.634   4.876  2.5896  0.2742  1.6375
  666MOL0     H89898   0.160   9.286   4.673 -1.0445  1.0572 -2.9082
  666MOL0     H89899   0.327   9.241   4.631 -1.3016 -0.8858  1.0822
  666MOL0     H89900   0.178   9.297   4.432 -0.3676  2.7605 -3.6231
  666MOL0     H89901   0.347   9.349   4.444  0.1516 -2.3123 -0.5259
  666MOL0     H89902   0.257   9.579   4.515 -1.9993 -0.1528  1.9400
  666MOL0     H89903   0.102   9.528   4.492  0.0554  4.6741 -0.3818
  666MOL0     H89904   0.188   9.467   4.243  3.0519 -4.2957  4.0012
  666MOL0     H89905   0.154   9.643   4.289  0.2332  0.5539  3.0973
  666MOL0     H89906   0.572   9.584   4.207  0.6917  1.6534  2.3023
  666MOL0     H89907   0.356   9.213   4.842  1.9098 -0.9945  0.8469
  666MOL0     H89908   0.293   9.097   5.152  1.8908 -0.6015  2.2258
  666MOL0     H89909   0.401   9.073   5.015 -1.0227  0.5910 -1.1257
  666MOL0     H89910   0.466   9.151   5.154  0.7750  3.1962 -0.8982
  667MOL0     O89911  11.330  10.410   5.041 -0.4613 -0.9110  0.1728
  667MOL0     C89912  11.361  10.379   5.154  0.6293  0.2049 -0.0137
  667MOL0     O89913  11.433  10.457   5.234  0.7402 -0.1728  0.3492
  667MOL0     C89914  11.501  10.562   5.187 -0.8540  0.3213  0.2130
  667MOL0     C89915  11.628  10.550   5.112 -0.1754 -0.2278  0.1303
  667MOL0     C89916  11.679  10.662   5.042 -0.3073  0.6430  0.1839
  667MOL0     C89917  11.603  10.777   5.033 -0.0234 -0.3372 -0.9241
  667MOL0     O89918  11.644  10.894   4.966 -0.1177  0.2998  0.4098
  667MOL0     C89919  11.786  10.925   4.970  0.2009 -1.0708  0.4986
  667MOL0     C89920  11.797  11.076   4.922  0.3071 -0.8003 -0.8781
  667MOL0     C89921  11.783  11.186   5.041  0.2723  0.8371 -0.2940
  667MOL0     C89922  11.815  11.321   4.988 -0.3870 -0.2132 -0.1840
  667MOL0     C89923  11.838  11.426   5.109 -0.8582 -0.0957  0.2501
  667MOL0     C89924  11.697  11.462   5.166 -0.2767 -0.0512 -1.0772
  667MOL0     C89925  11.725  11.587   5.258  0.7052  0.9444  1.2943
  667MOL0     C89926  11.597  11.665   5.295  0.0253 -0.4153  0.3845
  667MOL0     N89927  11.630  11.770   5.388  0.3448  0.2386 -0.4633
  667MOL0     C89928  11.605  11.757   5.528 -0.2994 -0.3452 -0.0917
  667MOL0     C89929  11.645  11.877   5.578  0.3261  0.5826 -1.1137
  667MOL0     C89930  11.617  11.916   5.725 -0.7847 -0.3993 -0.4679
  667MOL0     C89931  11.482  11.958   5.763  0.3373  0.5415 -0.0476
  667MOL0     C89932  11.434  12.069   5.672  0.6390 -1.2619  0.8039
  667MOL0     C89933  11.297  12.103   5.720  0.4867  0.4810  0.2478
  667MOL0     O89934  11.301  12.208   5.821  0.0172  0.3935  0.0178
  667MOL0     C89935  11.304  12.341   5.770 -0.0195 -0.9024 -0.0578
  667MOL0     C89936  11.206  12.398   5.684 -0.0642  0.1862 -0.6344
  667MOL0     C89937  11.218  12.524   5.624 -0.3915  0.9871 -0.7649
  667MOL0     C89938  11.337  12.597   5.655  0.2232 -0.5425 -1.1422
  667MOL0     C89939  11.332  12.731   5.616 -1.2468 -0.1047  0.0862
  667MOL0     O89940  11.401  12.821   5.694 -0.2216  0.3610 -0.4242
  667MOL0     C89941  11.428  12.956   5.670  0.8846 -0.1942 -0.1908
  667MOL0     C89942  11.415  13.054   5.761 -0.0925 -0.4211  0.0948
  667MOL0     C89943  11.447  13.189   5.739 -0.2085 -1.5192  0.1633
  667MOL0     C89944  11.509  13.232   5.620 -0.4123 -0.5576 -0.2258
  667MOL0     O89945  11.560  13.357   5.594  0.8178  0.2047 -0.3350
  667MOL0     C89946  11.520  13.402   5.463  0.1285 -0.3450 -1.1217
  667MOL0     C89947  11.561  13.551   5.457  0.3556 -0.2943  0.1342
  667MOL0     C89948  11.703  13.588   5.492  0.1278 -0.4352 -0.6433
  667MOL0     C89949  11.723  13.739   5.500 -0.0778  0.4785  1.1015
  667MOL0     C89950  11.616  13.824   5.578  0.8863 -0.1649 -0.1145
  667MOL0     C89951  11.656  13.976   5.572  0.2953  0.4692 -0.0991
  667MOL0     C89952  11.552  14.061   5.648 -0.2023 -0.8504 -1.2184
  667MOL0     C89953  11.597  14.206   5.657 -0.0235 -0.3254 -0.1975
  667MOL0    Cl89954  11.738  14.239   5.766  0.6080  0.1743 -0.1194
  667MOL0     C89955  11.523  13.132   5.526 -0.6565  0.7207  0.0346
  667MOL0     C89956  11.485  12.994   5.550 -0.8735 -0.1112 -0.1254
  667MOL0     O89957  11.271  12.766   5.512  0.0671 -0.2955  0.1446
  667MOL0     C89958  11.423  12.553   5.748 -0.1625 -0.6254 -0.2293
  667MOL0     C89959  11.406  12.431   5.809  0.1705  0.7591 -0.6380
  667MOL0     N89960  11.689  11.963   5.470  0.2760  1.3834  0.2803
  667MOL0     N89961  11.670  11.896   5.360  0.5595  0.1936 -0.1388
  667MOL0     C89962  11.478  10.784   5.096  0.1676  0.4165 -0.6024
  667MOL0     C89963  11.431  10.678   5.170  1.0822 -0.1090 -0.2026
  667MOL0     C89964  11.281  10.260   5.218 -0.3990 -0.8908 -1.0746
  667MOL0     C89965  11.357  10.196   5.313 -0.4367 -0.2675  0.8089
  667MOL0     C89966  11.288  10.102   5.396 -0.3953 -0.4116 -0.1974
  667MOL0     C89967  11.161  10.047   5.359 -1.4651 -0.0270 -1.0142
  667MOL0     O89968  11.092   9.947   5.426 -0.1664  0.2763  0.0715
  667MOL0     C89969  11.107   9.814   5.360 -0.3235 -0.6671 -0.1663
  667MOL0     C89970  11.222   9.733   5.406 -0.4121 -0.1825  0.9575
  667MOL0     C89971  11.209   9.590   5.351 -1.1092 -0.8057 -0.8020
  667MOL0     C89972  11.341   9.514   5.360 -0.1923  0.9483 -0.5046
  667MOL0     C89973  11.385   9.487   5.497 -0.3053 -0.9709 -0.5423
  667MOL0     C89974  11.446   9.464   5.602 -0.4497 -0.1583 -0.4172
  667MOL0     C89975  11.092  10.113   5.260 -0.1181 -0.2185  0.0510
  667MOL0     C89976  11.155  10.221   5.189 -0.0532  0.1565  0.8170
  667MOL0     C89977  11.080  10.277   5.077 -0.0607  1.3986  0.7772
  667MOL0     H89978  11.680  10.455   5.118 -0.1260 -0.2679 -0.7565
  667MOL0     H89979  11.769  10.658   4.981 -0.6448  1.8801 -0.4385
  667MOL0     H89980  11.813  10.910   5.074 -0.8876 -0.4542  0.8872
  667MOL0     H89981  11.842  10.855   4.907  0.5499  0.2358 -0.7049
  667MOL0     H89982  11.722  11.094   4.845 -2.3793  0.7390  1.8810
  667MOL0     H89983  11.890  11.086   4.865 -1.5349 -0.5821 -4.0699
  667MOL0     H89984  11.854  11.157   5.119  0.4278  0.3102 -0.6251
  667MOL0     H89985  11.681  11.182   5.082  0.6246  2.9104  0.9204
  667MOL0     H89986  11.911  11.307   4.936 -1.4284  1.5509 -2.7422
  667MOL0     H89987  11.742  11.363   4.919  1.2209  2.7280 -0.2355
  667MOL0     H89988  11.901  11.376   5.184  2.0710  1.1755 -1.1978
  667MOL0     H89989  11.879  11.520   5.072 -2.1090 -0.3517 -1.9425
  667MOL0     H89990  11.630  11.471   5.080  0.7718 -1.9065 -2.1593
  667MOL0     H89991  11.634  11.389   5.218 -1.3322  2.1684  0.9524
  667MOL0     H89992  11.773  11.653   5.185  1.0615 -1.3333 -0.6588
  667MOL0     H89993  11.771  11.561   5.354  0.9494 -3.0475  0.2748
  667MOL0     H89994  11.555  11.714   5.207  0.2729  1.2720  1.1514
  667MOL0     H89995  11.512  11.604   5.326  0.1641 -0.4233  0.7538
  667MOL0     H89996  11.565  11.666   5.573  0.4139 -1.3824 -1.4762
  667MOL0     H89997  11.655  11.832   5.783  0.9446 -0.5338 -1.7262
  667MOL0     H89998  11.690  11.991   5.756  1.2799 -2.4387 -0.1977
  667MOL0     H89999  11.411  11.875   5.769 -2.0617  2.5946  3.1678
  667MOL0     H90000  11.482  11.993   5.867  2.3378 -0.7105  0.4268
  667MOL0     H90001  11.424  12.035   5.569  1.1514 -0.7997  0.5966
  667MOL0     H90002  11.487  12.165   5.666 -1.0970 -0.3704 -2.8082
  667MOL0     H90003  11.236  12.022   5.761  0.8162  0.8348  1.4547
  667MOL0     H90004  11.251  12.139   5.627  2.2518 -3.3103 -2.3829
  667MOL0     H90005  11.113  12.347   5.664 -1.3989  1.9980  0.6836
  667MOL0     H90006  11.138  12.554   5.558 -3.0256 -0.1454  1.7093
  667MOL0     H90007  11.375  13.024   5.858  1.1113  0.4524  0.8846
  667MOL0     H90008  11.435  13.257   5.822  5.6038  0.3422 -0.0575
  667MOL0     H90009  11.591  13.351   5.397  0.5625 -0.0116 -0.9170
  667MOL0     H90010  11.413  13.389   5.443  0.0469 -0.6102 -0.5248
  667MOL0     H90011  11.517  13.586   5.363  0.7073 -3.5703 -1.3610
  667MOL0     H90012  11.491  13.589   5.532  0.2086 -0.9236  0.3205
  667MOL0     H90013  11.731  13.554   5.592 -1.9399 -0.3767  0.0141
  667MOL0     H90014  11.770  13.540   5.420  1.0846  0.3211 -0.2846
  667MOL0     H90015  11.713  13.777   5.397  0.3414 -0.0915  0.8491
  667MOL0     H90016  11.821  13.764   5.541  2.0205  0.2050 -3.2139
  667MOL0     H90017  11.622  13.798   5.684 -1.7965  0.3012  0.2277
  667MOL0     H90018  11.513  13.804   5.546  0.4668  0.7799  0.5892
  667MOL0     H90019  11.755  13.985   5.618  0.6402 -4.6670  0.8203
  667MOL0     H90020  11.668  13.999   5.466 -0.6359  1.1214 -0.0734
  667MOL0     H90021  11.535  14.039   5.754 -0.6493 -2.0828 -1.5288
  667MOL0     H90022  11.455  14.070   5.599 -2.1923 -0.7756  2.3535
  667MOL0     H90023  11.607  14.244   5.555 -1.8225  0.4244 -0.1305
  667MOL0     H90024  11.516  14.265   5.701  0.2627 -1.6914  2.3717
  667MOL0     H90025  11.567  13.160   5.431  0.3630  1.0228  0.5842
  667MOL0     H90026  11.508  12.919   5.476  4.7298 -1.7503  2.7203
  667MOL0     H90027  11.498  12.623   5.786 -2.3948  2.2634 -0.7620
  667MOL0     H90028  11.483  12.385   5.871 -0.3533  3.2205  2.0357
  667MOL0     H90029  11.425  10.877   5.078 -0.4131  0.3264  0.5212
  667MOL0     H90030  11.331  10.711   5.196  1.2258  2.2415 -2.2429
  667MOL0     H90031  11.461  10.227   5.324  0.7871 -4.1270  1.6121
  667MOL0     H90032  11.356  10.070   5.474  0.3428 -0.2774 -0.7774
  667MOL0     H90033  11.115   9.831   5.252 -0.9823  1.8019  0.1004
  667MOL0     H90034  11.016   9.754   5.375 -0.4194 -1.4582 -3.3130
  667MOL0     H90035  11.213   9.743   5.514  2.2267 -0.7157  1.3096
  667MOL0     H90036  11.307   9.780   5.355  0.0394 -0.5913  1.3307
  667MOL0     H90037  11.176   9.600   5.247 -0.0546  1.9893 -0.9636
  667MOL0     H90038  11.131   9.540   5.409 -0.5535 -2.6062 -1.5235
  667MOL0     H90039  11.329   9.417   5.311 -1.6852  0.9147 -0.1159
  667MOL0     H90040  11.420   9.564   5.303  0.2448 -1.6397 -2.3681
  667MOL0     H90041  11.515   9.446   5.682  1.8798  0.5368 -2.1561
  667MOL0     H90042  10.988  10.084   5.245 -0.2140  0.7015 -1.1888
  667MOL0     H90043  11.083  10.384   5.101 -2.0066  1.4547  0.9618
  667MOL0     H90044  11.122  10.253   4.979 -0.6954  1.0811  0.5739
  667MOL0     H90045  10.977  10.239   5.081  1.0221 -2.2078 -1.2692
  668MOL0     O90046  10.090   6.489   8.711  0.2391 -0.5764 -0.2559
  668MOL0     C90047  10.180   6.406   8.715  1.4508 -0.2840  0.7478
  668MOL0     O90048  10.164   6.278   8.772  0.0815 -0.0357  0.0924
  668MOL0     C90049  10.042   6.261   8.840 -0.3499 -0.1893 -0.4557
  668MOL0     C90050  10.012   6.334   8.955  0.8174 -0.2803  0.2172
  668MOL0     C90051   9.888   6.313   9.015  0.7795 -0.5522  0.0165
  668MOL0     C90052   9.803   6.202   8.975 -0.6894 -0.5190  0.0031
  668MOL0     O90053   9.691   6.159   9.042 -0.0460 -0.2265  0.0522
  668MOL0     C90054   9.633   6.247   9.129  0.6123 -0.9613 -0.3019
  668MOL0     C90055   9.525   6.170   9.198 -0.3183 -0.6679 -0.0374
  668MOL0     C90056   9.418   6.119   9.098 -0.5035  0.9995 -0.1745
  668MOL0     C90057   9.298   6.063   9.172 -0.0115  0.4068 -0.5314
  668MOL0     C90058   9.164   6.041   9.095 -0.6223  0.4366 -0.3446
  668MOL0     C90059   9.059   5.958   9.156 -0.4366  0.0777  0.4410
  668MOL0     C90060   9.103   5.817   9.204 -0.0517 -0.3918  0.4957
  668MOL0     C90061   8.987   5.736   9.263  1.0909 -0.3621 -0.2788
  668MOL0     N90062   8.941   5.789   9.393 -0.2327  0.2432  0.1392
  668MOL0     C90063   8.846   5.891   9.401  0.5723  0.3928 -0.3213
  668MOL0     C90064   8.835   5.918   9.530  0.1399  0.3015 -0.7410
  668MOL0     C90065   8.767   6.032   9.598  0.2406 -0.0042  0.2218
  668MOL0     C90066   8.659   6.109   9.506  0.7948 -0.3294  0.0278
  668MOL0     C90067   8.597   6.230   9.585 -0.1704 -0.6466 -0.0099
  668MOL0     C90068   8.490   6.308   9.496 -0.0638 -0.0395  0.0430
  668MOL0     O90069   8.548   6.345   9.372 -0.1699 -0.3226  0.4381
  668MOL0     C90070   8.473   6.408   9.272  0.6718  0.6250  0.1475
  668MOL0     C90071   8.339   6.467   9.298 -0.3394  0.4987  0.6710
  668MOL0     C90072   8.267   6.539   9.198 -0.3065 -0.6256  0.5712
  668MOL0     C90073   8.326   6.554   9.073 -0.4748 -0.7707  0.3419
  668MOL0     C90074   8.255   6.630   8.961 -0.2764 -0.4599 -0.5458
  668MOL0     O90075   8.126   6.657   8.979 -0.1929 -0.1708 -0.1168
  668MOL0     C90076   8.035   6.659   8.873  0.2500 -0.6061 -0.8418
  668MOL0     C90077   8.070   6.647   8.742 -0.3823 -0.9837  0.1084
  668MOL0     C90078   7.980   6.642   8.646  0.9152  0.2387  0.2164
  668MOL0     C90079   7.840   6.636   8.675  1.0882 -0.5704  0.0962
  668MOL0     O90080   7.750   6.626   8.569  0.6804  0.4499 -0.1536
  668MOL0     C90081   7.636   6.551   8.586 -0.2863 -0.1344 -1.3698
  668MOL0     C90082   7.502   6.629   8.562  0.2030 -0.1790 -0.6461
  668MOL0     C90083   7.404   6.548   8.472  0.0469 -1.8702  0.2420
  668MOL0     C90084   7.265   6.629   8.460 -0.1083 -0.3256 -0.2239
  668MOL0     C90085   7.179   6.578   8.346  0.6512 -0.6596 -0.1099
  668MOL0     C90086   7.047   6.652   8.316  0.5755 -0.3404  0.6293
  668MOL0     C90087   6.951   6.679   8.428  0.0638 -0.5452 -0.5893
  668MOL0     C90088   6.850   6.784   8.390 -1.0496  0.2254  0.4184
  668MOL0    Cl90089   6.721   6.719   8.285 -0.0258  0.5123 -0.5210
  668MOL0     C90090   7.801   6.632   8.813  0.2934 -0.3646 -0.3774
  668MOL0     C90091   7.900   6.646   8.911 -0.3659  0.6900  0.3044
  668MOL0     O90092   8.327   6.681   8.880  0.2714 -0.1234 -0.0327
  668MOL0     C90093   8.459   6.500   9.050 -0.6942  0.5934 -0.1497
  668MOL0     C90094   8.533   6.430   9.152 -0.5690 -0.2008 -0.2297
  668MOL0     N90095   8.927   5.826   9.593  0.0422  0.0943 -0.0876
  668MOL0     N90096   8.981   5.744   9.512 -0.2293  0.7071  0.2781
  668MOL0     C90097   9.834   6.134   8.862  0.5515  0.0926  0.2230
  668MOL0     C90098   9.948   6.169   8.792 -0.0392  0.3673 -0.6235
  668MOL0     C90099  10.296   6.445   8.637 -0.0925  0.0633 -0.0231
  668MOL0     C90100  10.386   6.340   8.618  0.6210 -0.0241 -0.3917
  668MOL0     C90101  10.514   6.364   8.556  0.7436 -0.7296 -0.7818
  668MOL0     C90102  10.556   6.490   8.515  0.2170  0.0154 -0.5472
  668MOL0     O90103  10.668   6.495   8.435  0.4602  0.0261 -0.1224
  668MOL0     C90104  10.703   6.616   8.366  0.5938  0.0630 -0.4485
  668MOL0     C90105  10.616   6.634   8.247  0.7752  0.3674 -0.8490
  668MOL0     C90106  10.622   6.526   8.135 -0.0219 -0.7278  0.1458
  668MOL0     C90107  10.773   6.482   8.102 -0.4093 -0.5786 -0.4510
  668MOL0     C90108  10.758   6.382   7.994  0.6152 -0.0128 -0.1583
  668MOL0     C90109  10.724   6.304   7.903 -0.4849 -0.0565 -0.7429
  668MOL0     C90110  10.469   6.598   8.546  0.1994  0.5559  0.7742
  668MOL0     C90111  10.339   6.577   8.603  0.2718  0.6176  0.3060
  668MOL0     C90112  10.263   6.707   8.633  0.5216 -0.0160  0.1087
  668MOL0     H90113  10.071   6.421   8.984 -0.1366  0.6606 -0.6089
  668MOL0     H90114   9.860   6.379   9.097 -1.2448 -1.9319  0.5125
  668MOL0     H90115   9.689   6.291   9.212 -0.4043 -1.5627  0.7409
  668MOL0     H90116   9.602   6.330   9.066 -3.1727 -0.4243  1.9464
  668MOL0     H90117   9.481   6.226   9.282  1.8905  0.9841  0.1170
  668MOL0     H90118   9.575   6.083   9.243 -2.2872 -1.7252  0.2123
  668MOL0     H90119   9.459   6.036   9.039 -0.7223  0.6901  0.1051
  668MOL0     H90120   9.383   6.195   9.028  0.2041 -0.5842 -2.3518
  668MOL0     H90121   9.326   5.965   9.211 -0.4016  0.5493  0.1352
  668MOL0     H90122   9.265   6.131   9.252 -1.3493 -0.0655 -0.6527
  668MOL0     H90123   9.126   6.140   9.069 -1.3510 -0.2761 -2.1490
  668MOL0     H90124   9.182   5.992   8.999  3.5086  0.2857  0.3133
  668MOL0     H90125   9.051   6.020   9.246 -0.5564  0.7452 -0.0211
  668MOL0     H90126   8.968   5.945   9.098  1.4362 -1.7374 -2.3613
  668MOL0     H90127   9.182   5.824   9.279  0.9891  0.0452 -0.6084
  668MOL0     H90128   9.144   5.755   9.124 -0.8295 -0.4364  0.1247
  668MOL0     H90129   8.903   5.723   9.195  0.4413 -1.8668  0.7553
  668MOL0     H90130   9.024   5.633   9.277 -0.6375 -0.6562  3.0217
  668MOL0     H90131   8.804   5.950   9.321 -0.1870  2.0387  1.2281
  668MOL0     H90132   8.721   6.008   9.694  0.2515  0.0784  0.2488
  668MOL0     H90133   8.839   6.108   9.630 -0.0081 -0.1604  1.1737
  668MOL0     H90134   8.709   6.149   9.418 -1.0741  2.3928  0.0748
  668MOL0     H90135   8.588   6.032   9.475  1.5184 -2.5563  3.3922
  668MOL0     H90136   8.675   6.298   9.618  2.9582 -3.5310 -0.8967
  668MOL0     H90137   8.553   6.185   9.674 -0.2811  1.2472  0.9353
  668MOL0     H90138   8.469   6.397   9.555  5.0864  1.1851  0.5701
  668MOL0     H90139   8.400   6.250   9.476 -0.5726  0.1168  1.7642
  668MOL0     H90140   8.299   6.454   9.398 -2.5247  2.2646  0.1224
  668MOL0     H90141   8.163   6.570   9.196 -0.7345 -1.9900  0.2619
  668MOL0     H90142   8.173   6.640   8.708  0.1174  0.8795  1.1316
  668MOL0     H90143   8.007   6.638   8.541 -1.7551 -1.3732 -0.4956
  668MOL0     H90144   7.634   6.484   8.499 -0.4740 -3.2401  0.8572
  668MOL0     H90145   7.625   6.491   8.677 -0.5868  0.0322 -1.2929
  668MOL0     H90146   7.451   6.662   8.652 -1.2979  0.6678 -1.7637
  668MOL0     H90147   7.529   6.722   8.510 -1.6366  0.7326 -0.0561
  668MOL0     H90148   7.443   6.524   8.372 -0.2707  0.9138 -0.6396
  668MOL0     H90149   7.387   6.450   8.518 -0.2380 -2.5588 -1.2750
  668MOL0     H90150   7.295   6.729   8.426 -0.2754  0.0239  0.6281
  668MOL0     H90151   7.209   6.642   8.553  2.3623  1.7678  1.1037
  668MOL0     H90152   7.144   6.476   8.365 -2.6513  0.7508  2.2105
  668MOL0     H90153   7.232   6.574   8.250  0.6331 -2.4831 -0.0862
  668MOL0     H90154   7.087   6.747   8.280  3.5510 -1.8178 -0.3118
  668MOL0     H90155   6.994   6.595   8.240 -2.4056  0.0558  2.2466
  668MOL0     H90156   7.012   6.714   8.511 -0.5381 -0.4906 -0.1692
  668MOL0     H90157   6.892   6.593   8.461  1.9580 -1.8894 -0.5538
  668MOL0     H90158   6.797   6.820   8.479  0.6150  0.7855  1.2113
  668MOL0     H90159   6.895   6.865   8.333  1.2980 -1.6102 -0.5204
  668MOL0     H90160   7.698   6.608   8.838  0.8733 -1.9038  0.6110
  668MOL0     H90161   7.871   6.652   9.015 -0.2124 -1.0344  0.4709
  668MOL0     H90162   8.506   6.504   8.952 -2.4010  0.3651 -1.0080
  668MOL0     H90163   8.634   6.397   9.132  1.1749  4.6660 -0.7518
  668MOL0     H90164   9.786   6.040   8.835  0.3583  0.0445  0.7182
  668MOL0     H90165   9.958   6.124   8.694 -3.5493  1.3373 -1.5585
  668MOL0     H90166  10.362   6.239   8.651 -1.5929 -0.0454 -1.8184
  668MOL0     H90167  10.586   6.286   8.535  3.0244  0.7791  0.9373
  668MOL0     H90168  10.807   6.610   8.330 -0.5247 -1.3455 -3.9455
  668MOL0     H90169  10.695   6.703   8.431 -1.5173 -1.2435  1.1838
  668MOL0     H90170  10.633   6.731   8.200 -0.3345  1.4964  0.9376
  668MOL0     H90171  10.511   6.642   8.280  0.4742  0.1028 -1.7186
  668MOL0     H90172  10.570   6.570   8.050 -1.7725  1.4719  2.1956
  668MOL0     H90173  10.559   6.438   8.152 -0.4571 -0.4823 -0.1689
  668MOL0     H90174  10.813   6.576   8.062 -2.1026  1.6333  2.6578
  668MOL0     H90175  10.839   6.440   8.179  1.5762 -0.3204 -1.9149
  668MOL0     H90176  10.694   6.254   7.813  1.7980  0.4116 -1.8613
  668MOL0     H90177  10.494   6.698   8.510  2.5560  0.2109  1.2877
  668MOL0     H90178  10.211   6.723   8.727 -1.3333 -0.5421 -0.7782
  668MOL0     H90179  10.323   6.799   8.632 -0.2524  0.5188  0.7754
  668MOL0     H90180  10.185   6.718   8.557 -0.9450  2.3672  1.8078
  669MOL0     O90181   2.093   6.600   5.537  0.1298  0.0805 -0.8945
  669MOL0     C90182   2.037   6.553   5.450  0.7191  0.6599  0.6959
  669MOL0     O90183   1.909   6.519   5.450 -0.2167 -0.0803  0.2716
  669MOL0     C90184   1.813   6.590   5.524 -0.6244 -0.0917  0.2082
  669MOL0     C90185   1.834   6.712   5.590  0.1320 -0.3832 -0.0026
  669MOL0     C90186   1.732   6.772   5.664  0.3881  0.2365 -0.4249
  669MOL0     C90187   1.596   6.715   5.654 -0.2068  0.0812 -1.0896
  669MOL0     O90188   1.485   6.769   5.715  0.5315  0.5333 -0.3633
  669MOL0     C90189   1.480   6.914   5.726  0.0621  0.8436  0.4294
  669MOL0     C90190   1.328   6.952   5.709 -0.0346  0.5991 -0.3541
  669MOL0     C90191   1.312   7.092   5.679  0.3050  0.4036  0.0514
  669MOL0     C90192   1.177   7.152   5.723  0.2449 -1.3295 -1.1167
  669MOL0     C90193   1.127   7.258   5.625 -0.1333 -0.9106 -0.9083
  669MOL0     C90194   1.228   7.365   5.580  1.1190  0.7709  0.2109
  669MOL0     C90195   1.160   7.493   5.525 -0.3012 -0.1611 -0.0055
  669MOL0     C90196   1.077   7.488   5.387  0.8207  0.6942  0.5016
  669MOL0     N90197   1.038   7.620   5.337 -0.5140  0.0838  0.1878
  669MOL0     C90198   1.115   7.687   5.243  1.0591  0.7407 -0.8481
  669MOL0     C90199   1.052   7.807   5.228  0.0447  0.5866 -0.7293
  669MOL0     C90200   1.103   7.919   5.147 -0.2978  0.8973  0.4491
  669MOL0     C90201   1.114   7.884   4.998 -0.4023 -0.5913  0.8027
  669MOL0     C90202   0.978   7.879   4.937  0.8741 -0.5154 -0.6345
  669MOL0     C90203   0.918   8.018   4.912 -0.7796  0.4031 -0.4958
  669MOL0     O90204   0.853   8.029   4.784  0.0312 -0.1634  0.0454
  669MOL0     C90205   0.933   8.030   4.664 -0.2979 -0.5560  0.0537
  669MOL0     C90206   0.874   8.018   4.539 -0.0607 -1.0321 -0.5256
  669MOL0     C90207   0.939   8.018   4.420 -0.2168 -0.7003  0.0655
  669MOL0     C90208   1.084   8.046   4.419 -0.6123 -0.0446  0.5115
  669MOL0     C90209   1.163   8.047   4.297 -0.0009 -0.0055 -0.5754
  669MOL0     O90210   1.296   8.066   4.310  0.6212  0.0524 -0.4242
  669MOL0     C90211   1.373   8.095   4.194  0.6198 -0.1019  0.5537
  669MOL0     C90212   1.366   8.215   4.136 -1.0086 -0.4940  1.0907
  669MOL0     C90213   1.451   8.248   4.022 -0.6302  0.4432  0.9383
  669MOL0     C90214   1.542   8.153   3.963 -0.2161 -0.5185  0.1521
  669MOL0     O90215   1.624   8.165   3.853 -0.1536  0.7490 -0.0720
  669MOL0     C90216   1.650   8.295   3.783  0.5885 -0.0120 -0.5698
  669MOL0     C90217   1.767   8.293   3.693  1.3242 -0.8165 -0.1984
  669MOL0     C90218   1.904   8.286   3.759 -0.5079  0.3205 -0.5692
  669MOL0     C90219   2.006   8.367   3.680 -0.6946 -0.2172  1.0767
  669MOL0     C90220   2.149   8.341   3.718 -0.0883  0.6027 -0.6923
  669MOL0     C90221   2.242   8.451   3.672 -0.7988 -0.0908  0.8163
  669MOL0     C90222   2.235   8.474   3.520 -0.2286  0.3122 -0.3650
  669MOL0     C90223   2.368   8.547   3.480 -0.4517 -0.9939 -0.8963
  669MOL0    Cl90224   2.341   8.652   3.331  0.0790  0.1725  0.0239
  669MOL0     C90225   1.545   8.029   4.023  0.0056  0.9911 -0.5930
  669MOL0     C90226   1.464   7.997   4.134  0.5491 -0.2945  0.3828
  669MOL0     O90227   1.101   8.035   4.191  0.2330  0.2370  0.1029
  669MOL0     C90228   1.142   8.076   4.547  0.0810 -0.2078  0.3148
  669MOL0     C90229   1.062   8.075   4.663  0.5430  0.1210  0.1217
  669MOL0     N90230   0.937   7.805   5.305  0.0809  0.9009 -0.2804
  669MOL0     N90231   0.939   7.691   5.375  0.7030  1.2349  0.0727
  669MOL0     C90232   1.581   6.598   5.583  0.8457 -0.4843 -0.0881
  669MOL0     C90233   1.690   6.530   5.527  0.9308  0.5515  0.7014
  669MOL0     C90234   2.102   6.513   5.322 -0.2330 -0.8236 -0.3370
  669MOL0     C90235   2.215   6.589   5.284  0.0891 -0.9607 -0.5178
  669MOL0     C90236   2.288   6.556   5.165  0.0127  0.0903 -0.2596
  669MOL0     C90237   2.252   6.443   5.093  1.0119  0.1052  0.4353
  669MOL0     O90238   2.313   6.403   4.982  0.0289  0.3894  0.0562
  669MOL0     C90239   2.460   6.396   4.982  0.3328  0.7916  0.0179
  669MOL0     C90240   2.510   6.305   4.866  1.0496 -0.1138 -0.2729
  669MOL0     C90241   2.472   6.157   4.874  0.8178  0.0426 -0.0518
  669MOL0     C90242   2.581   6.051   4.881 -0.8733  0.6331 -0.3943
  669MOL0     C90243   2.606   5.988   5.006 -0.6984 -0.2283  0.4817
  669MOL0     C90244   2.638   5.937   5.108 -0.3158  0.4642 -0.4950
  669MOL0     C90245   2.140   6.366   5.125  0.1997 -0.2310 -0.1199
  669MOL0     C90246   2.069   6.395   5.244 -0.1181 -0.4010  0.2582
  669MOL0     C90247   1.953   6.301   5.283  0.0060 -0.7146 -0.1999
  669MOL0     H90248   1.929   6.764   5.580  0.2393 -0.6331 -0.2785
  669MOL0     H90249   1.763   6.850   5.733 -1.4874  1.5337 -0.9846
  669MOL0     H90250   1.507   6.929   5.831  0.2133  0.6403  0.4201
  669MOL0     H90251   1.548   6.967   5.659 -0.1210 -0.5143 -0.9054
  669MOL0     H90252   1.278   6.933   5.804  3.8644  0.1404  1.7831
  669MOL0     H90253   1.282   6.891   5.631 -1.7976  1.4695 -0.0516
  669MOL0     H90254   1.320   7.102   5.570 -0.9093 -1.4635 -0.2446
  669MOL0     H90255   1.387   7.156   5.726 -1.2555  1.4020  1.2602
  669MOL0     H90256   1.104   7.071   5.733  2.5423 -3.4720 -0.4990
  669MOL0     H90257   1.187   7.198   5.822  1.5601  2.6884 -2.8972
  669MOL0     H90258   1.088   7.205   5.537  2.4605 -3.3577 -0.7437
  669MOL0     H90259   1.034   7.294   5.670 -1.3099 -1.5914 -2.6818
  669MOL0     H90260   1.282   7.389   5.673  0.4725 -0.6205  0.9806
  669MOL0     H90261   1.304   7.326   5.511  0.7856 -0.4277  0.4900
  669MOL0     H90262   1.236   7.571   5.507  2.2510 -1.8639  2.5181
  669MOL0     H90263   1.090   7.526   5.602 -0.0073  0.4476  0.0163
  669MOL0     H90264   1.147   7.433   5.322 -0.0229 -2.2535  1.9263
  669MOL0     H90265   0.983   7.435   5.404 -0.5891  1.7037 -3.1268
  669MOL0     H90266   1.206   7.651   5.196 -0.5141 -1.6516 -2.3324
  669MOL0     H90267   1.023   7.993   5.160 -1.4731 -0.0506 -1.0258
  669MOL0     H90268   1.198   7.955   5.187  0.0807  1.1347 -0.6165
  669MOL0     H90269   1.165   7.961   4.939  1.0173 -1.2154  1.1716
  669MOL0     H90270   1.161   7.787   4.980  1.7765  0.1824  1.9798
  669MOL0     H90271   0.913   7.820   5.002 -0.5757  1.6744  0.0185
  669MOL0     H90272   0.983   7.838   4.836  5.8028 -0.4452 -0.6234
  669MOL0     H90273   0.994   8.097   4.914 -0.8479  0.5077 -1.5998
  669MOL0     H90274   0.842   8.026   4.991 -0.7180 -0.3286 -0.3558
  669MOL0     H90275   0.767   7.998   4.532 -0.2518  0.1330 -1.1030
  669MOL0     H90276   0.898   7.977   4.328  1.4841 -1.6516 -0.3096
  669MOL0     H90277   1.296   8.289   4.173 -1.3594 -0.7994  1.0430
  669MOL0     H90278   1.441   8.341   3.967  2.1002  0.1898 -0.1542
  669MOL0     H90279   1.559   8.307   3.722 -0.1933 -3.2028 -0.2226
  669MOL0     H90280   1.658   8.376   3.856  0.8482 -0.0689 -0.5357
  669MOL0     H90281   1.756   8.206   3.628 -0.0079 -2.0076  1.5244
  669MOL0     H90282   1.767   8.385   3.633  0.0527 -1.6023 -1.4658
  669MOL0     H90283   1.884   8.325   3.860 -0.2308 -1.2937  0.1438
  669MOL0     H90284   1.949   8.187   3.764 -1.1484 -0.0043 -1.0883
  669MOL0     H90285   1.975   8.472   3.683  2.7320  0.9054  0.9592
  669MOL0     H90286   2.004   8.339   3.574 -1.4078 -1.8985  1.5032
  669MOL0     H90287   2.188   8.250   3.672 -1.3433 -0.4166  0.2001
  669MOL0     H90288   2.146   8.340   3.827 -2.0196 -2.6832 -0.6631
  669MOL0     H90289   2.210   8.547   3.714  1.6808  2.4913 -2.6087
  669MOL0     H90290   2.339   8.418   3.710 -1.7568 -1.3964  2.2635
  669MOL0     H90291   2.143   8.528   3.497 -0.8771 -0.6002  0.0394
  669MOL0     H90292   2.226   8.377   3.470 -1.2124 -0.9252  2.0242
  669MOL0     H90293   2.400   8.613   3.561  4.4048 -0.4205 -2.9351
  669MOL0     H90294   2.454   8.481   3.467  0.5476  0.1370 -0.3032
  669MOL0     H90295   1.615   7.956   3.984  2.2638  2.6498  0.1324
  669MOL0     H90296   1.462   7.898   4.179  1.6069 -1.0202 -1.0709
  669MOL0     H90297   1.248   8.100   4.542 -0.0762  0.3494 -0.5601
  669MOL0     H90298   1.108   8.108   4.756 -0.3698  3.6005 -0.5254
  669MOL0     H90299   1.479   6.562   5.585  0.5429  0.3213 -0.3384
  669MOL0     H90300   1.670   6.431   5.487 -1.0877  0.5986  1.4872
  669MOL0     H90301   2.251   6.676   5.337  1.6475  0.2823 -3.4106
  669MOL0     H90302   2.374   6.606   5.123  0.1902 -0.3247 -0.3923
  669MOL0     H90303   2.496   6.351   5.075  1.1500  0.3241 -0.5131
  669MOL0     H90304   2.491   6.500   4.966 -1.8992  1.3592 -1.0255
  669MOL0     H90305   2.619   6.302   4.862  1.0208 -2.8514 -3.4983
  669MOL0     H90306   2.470   6.350   4.774 -1.5799 -2.9218 -0.6597
  669MOL0     H90307   2.418   6.120   4.787 -1.5344 -0.2271  1.4440
  669MOL0     H90308   2.406   6.149   4.960  2.4961  2.6418  1.6130
  669MOL0     H90309   2.550   5.970   4.815  1.4110 -1.9253  1.4676
  669MOL0     H90310   2.674   6.080   4.831 -0.5602  0.2501 -0.0418
  669MOL0     H90311   2.675   5.898   5.201 -3.0875  0.1392  0.5560
  669MOL0     H90312   2.112   6.283   5.062 -0.6163  1.8381 -2.6803
  669MOL0     H90313   1.862   6.339   5.234  0.3542 -0.7016 -0.8410
  669MOL0     H90314   1.985   6.206   5.240  1.7718 -0.0934 -0.3119
  669MOL0     H90315   1.942   6.278   5.390  1.1311 -2.5676 -0.4374
  670MOL0     O90316   1.330   7.760   8.331 -0.5003  0.2844 -0.5011
  670MOL0     C90317   1.398   7.672   8.275 -0.2607 -0.4278  0.8306
  670MOL0     O90318   1.464   7.565   8.341  0.3822  0.1167  0.3250
  670MOL0     C90319   1.462   7.541   8.478  0.8165 -0.5816 -0.2749
  670MOL0     C90320   1.540   7.430   8.520  0.5316  0.3956  0.8695
  670MOL0     C90321   1.542   7.391   8.652 -0.5763  0.7683 -0.1856
  670MOL0     C90322   1.463   7.453   8.755  1.1400  0.6304  0.4688
  670MOL0     O90323   1.457   7.424   8.888 -0.7943  0.1342 -0.3628
  670MOL0     C90324   1.555   7.327   8.936  0.2574  0.4860 -0.4099
  670MOL0     C90325   1.564   7.313   9.090 -0.6183 -0.2083  0.0605
  670MOL0     C90326   1.669   7.406   9.154 -0.0677  0.3934  0.3801
  670MOL0     C90327   1.644   7.407   9.303  0.6016  1.1988  0.1933
  670MOL0     C90328   1.752   7.483   9.378 -0.4976 -0.5870 -0.3883
  670MOL0     C90329   1.878   7.389   9.392  1.0331 -0.6697 -0.5052
  670MOL0     C90330   1.989   7.455   9.468 -0.1179  0.0843  0.7139
  670MOL0     C90331   2.073   7.549   9.377 -0.2014  1.1031 -0.3716
  670MOL0     N90332   2.212   7.553   9.431  0.3250 -0.2547 -0.0310
  670MOL0     C90333   2.310   7.466   9.417 -0.8837  0.5987 -0.0004
  670MOL0     C90334   2.415   7.527   9.482  0.6920 -1.0365  1.1245
  670MOL0     C90335   2.553   7.467   9.498  0.4717 -0.6121 -0.8007
  670MOL0     C90336   2.662   7.575   9.478 -0.5005  0.1153 -0.1535
  670MOL0     C90337   2.810   7.527   9.464 -0.6280  0.2540 -0.0368
  670MOL0     C90338   2.875   7.451   9.582 -0.1300  0.4719 -0.2049
  670MOL0     O90339   2.871   7.550   9.679 -0.3728 -0.1909 -0.1907
  670MOL0     C90340   2.979   7.549   9.769  0.3550  1.0892 -0.2995
  670MOL0     C90341   3.001   7.659   9.856  0.4214  0.6473  0.2915
  670MOL0     C90342   3.108   7.682   9.933 -0.2261 -0.4882  0.1174
  670MOL0     C90343   3.205   7.580   9.938 -0.1097 -0.6259  0.3766
  670MOL0     C90344   3.332   7.606  10.017  0.4273 -0.0623  0.0734
  670MOL0     O90345   3.350   7.733  10.080  0.6158  0.3252 -0.6234
  670MOL0     C90346   3.423   7.731  10.198 -0.4546 -0.4637  0.1972
  670MOL0     C90347   3.513   7.835  10.212  0.1713 -0.5368 -0.0942
  670MOL0     C90348   3.611   7.820  10.303  0.2281 -0.1920  0.4013
  670MOL0     C90349   3.621   7.718  10.395 -0.5834 -0.2307 -0.2649
  670MOL0     O90350   3.726   7.740  10.478 -0.0039 -0.9421  0.0640
  670MOL0     C90351   3.782   7.630  10.544 -0.8406 -0.1765  0.9874
  670MOL0     C90352   3.911   7.675  10.616 -0.1959  0.4277 -0.4676
  670MOL0     C90353   3.916   7.579  10.736  0.2726  0.6952 -0.4346
  670MOL0     C90354   4.052   7.591  10.806  0.3558  0.3892 -0.5628
  670MOL0     C90355   4.060   7.483  10.913 -0.0931  0.5506  0.5149
  670MOL0     C90356   4.185   7.512  10.998 -0.1581 -0.1443 -0.2357
  670MOL0     C90357   4.175   7.426  11.123  0.8630  0.6052 -0.3042
  670MOL0     C90358   4.243   7.291  11.112  0.7761 -0.0461 -0.0551
  670MOL0    Cl90359   4.163   7.174  10.997 -0.4968 -0.0907 -0.3586
  670MOL0     C90360   3.524   7.619  10.385 -0.0758  0.2927 -0.6178
  670MOL0     C90361   3.426   7.625  10.289  0.3837 -0.3685  0.5020
  670MOL0     O90362   3.410   7.518  10.016  0.6285 -0.5088  0.4121
  670MOL0     C90363   3.186   7.459   9.863 -0.8095  1.0148 -0.5218
  670MOL0     C90364   3.079   7.447   9.772  0.0641 -0.1656  0.4077
  670MOL0     N90365   2.371   7.642   9.534  0.2745 -0.4764 -0.4847
  670MOL0     N90366   2.247   7.659   9.505 -0.2548  0.3853 -0.7797
  670MOL0     C90367   1.374   7.556   8.710 -0.6865 -0.5292 -0.7575
  670MOL0     C90368   1.378   7.602   8.572 -0.3111  0.2038 -0.5256
  670MOL0     C90369   1.422   7.663   8.122 -0.1221  0.6158  0.0886
  670MOL0     C90370   1.537   7.593   8.076  0.4201  0.2928 -0.7041
  670MOL0     C90371   1.571   7.588   7.940  0.4239 -0.0090  0.8105
  670MOL0     C90372   1.477   7.643   7.844 -0.7523 -0.8565  0.5226
  670MOL0     O90373   1.474   7.634   7.712  0.9308  0.4410  0.1371
  670MOL0     C90374   1.601   7.606   7.646 -0.0900 -0.6538  0.8794
  670MOL0     C90375   1.685   7.726   7.651 -0.3602  0.0011  0.3704
  670MOL0     C90376   1.631   7.846   7.573 -0.4161 -0.7665 -0.2112
  670MOL0     C90377   1.571   7.813   7.432 -0.0727 -1.1035 -0.6848
  670MOL0     C90378   1.531   7.947   7.384  0.1387  0.0412  0.1375
  670MOL0     C90379   1.523   8.057   7.335 -0.0267  0.9508 -0.4206
  670MOL0     C90380   1.366   7.711   7.890 -0.6567 -0.3635 -0.2478
  670MOL0     C90381   1.337   7.720   8.026 -0.1043 -0.3095 -0.1259
  670MOL0     C90382   1.208   7.778   8.055  0.6185  0.2176 -0.6515
  670MOL0     H90383   1.608   7.384   8.449  2.0980  2.8881  0.6364
  670MOL0     H90384   1.589   7.298   8.680 -3.3167 -0.0990  2.0798
  670MOL0     H90385   1.523   7.228   8.902  1.0233  1.2271 -3.5730
  670MOL0     H90386   1.651   7.355   8.892  0.3669 -0.5117 -0.8372
  670MOL0     H90387   1.597   7.212   9.113  1.3426  0.6313  1.1301
  670MOL0     H90388   1.468   7.341   9.135 -0.5737  1.3215 -0.7129
  670MOL0     H90389   1.660   7.503   9.105 -1.5474 -0.0042 -0.2219
  670MOL0     H90390   1.770   7.371   9.135 -0.7819 -2.9119  1.9454
  670MOL0     H90391   1.554   7.468   9.306  0.1978  0.5815  1.2086
  670MOL0     H90392   1.620   7.309   9.346  0.2291  2.2905  2.6459
  670MOL0     H90393   1.790   7.576   9.336  2.8105 -1.5531  0.1822
  670MOL0     H90394   1.715   7.503   9.479  1.5752 -2.8457  0.9240
  670MOL0     H90395   1.865   7.296   9.449 -1.8919 -1.3612 -2.0770
  670MOL0     H90396   1.908   7.350   9.295 -0.8810 -1.3656 -0.8746
  670MOL0     H90397   2.042   7.370   9.513 -0.0959 -0.1108  0.3190
  670MOL0     H90398   1.939   7.505   9.552  1.3151  1.2858  0.8854
  670MOL0     H90399   2.080   7.520   9.272  1.0821 -1.1977  0.2718
  670MOL0     H90400   2.038   7.652   9.374 -2.9691  0.4190  2.4673
  670MOL0     H90401   2.318   7.367   9.375  0.8471 -1.7594  5.0746
  670MOL0     H90402   2.560   7.422   9.597 -0.4336 -2.8615 -1.6819
  670MOL0     H90403   2.580   7.375   9.445  2.9147 -1.7343  2.0802
  670MOL0     H90404   2.641   7.638   9.391 -2.6582 -0.0656  0.1891
  670MOL0     H90405   2.664   7.639   9.566  2.7018 -2.9404  2.2805
  670MOL0     H90406   2.876   7.612   9.445  1.1485 -0.3598  2.8351
  670MOL0     H90407   2.815   7.468   9.372 -2.9103  1.4640 -1.0103
  670MOL0     H90408   2.977   7.431   9.547 -0.6496  0.5195 -1.8064
  670MOL0     H90409   2.839   7.350   9.602 -0.6954  0.5755 -0.6828
  670MOL0     H90410   2.920   7.728   9.834 -0.0292 -0.2741 -1.0836
  670MOL0     H90411   3.112   7.771   9.995 -1.3449  0.0779 -0.5876
  670MOL0     H90412   3.514   7.928  10.156  0.0519  0.8548  2.0970
  670MOL0     H90413   3.670   7.911  10.314 -0.5468  0.9427 -3.3506
  670MOL0     H90414   3.714   7.595  10.622  1.0911  1.8186  3.7198
  670MOL0     H90415   3.805   7.554  10.468 -2.8148 -1.4131  1.5389
  670MOL0     H90416   3.994   7.680  10.545  0.7414  3.0224  0.6744
  670MOL0     H90417   3.911   7.776  10.660  3.8286  0.4624 -0.1568
  670MOL0     H90418   3.832   7.603  10.802 -1.3412 -1.2411 -1.6369
  670MOL0     H90419   3.899   7.479  10.695 -0.1638  0.8853 -0.7382
  670MOL0     H90420   4.058   7.689  10.855 -1.6214 -0.4800  1.5658
  670MOL0     H90421   4.129   7.584  10.728  0.0155 -0.8520 -0.8031
  670MOL0     H90422   4.069   7.384  10.868  0.8764  0.3670  1.0916
  670MOL0     H90423   3.966   7.484  10.970 -0.0787  2.2628  0.5528
  670MOL0     H90424   4.273   7.490  10.938  0.4861  1.6505 -0.0104
  670MOL0     H90425   4.190   7.613  11.041  0.8309  0.1991 -1.1121
  670MOL0     H90426   4.069   7.408  11.143  1.3392 -0.9622  1.0423
  670MOL0     H90427   4.212   7.478  11.213 -2.7853  0.2834  1.5769
  670MOL0     H90428   4.350   7.307  11.102  1.0892 -2.7676 -2.0741
  670MOL0     H90429   4.225   7.236  11.205  2.0615 -1.3215 -0.5224
  670MOL0     H90430   3.532   7.530  10.447  0.1273 -0.7584 -2.1044
  670MOL0     H90431   3.358   7.542  10.272  2.7236 -2.6208  1.5779
  670MOL0     H90432   3.257   7.378   9.857 -1.1545  0.7490 -1.1097
  670MOL0     H90433   3.067   7.351   9.722 -0.1568 -1.0125  2.0272
  670MOL0     H90434   1.324   7.606   8.793  0.5552 -0.5390  0.0221
  670MOL0     H90435   1.316   7.685   8.539  0.0170  1.5880  2.0394
  670MOL0     H90436   1.607   7.541   8.140  1.5343 -0.7052 -2.6448
  670MOL0     H90437   1.657   7.532   7.904  0.0706  0.5559 -0.9655
  670MOL0     H90438   1.570   7.578   7.545 -4.9068  2.7897  1.0727
  670MOL0     H90439   1.655   7.520   7.687  2.2066  0.3840  0.1445
  670MOL0     H90440   1.786   7.701   7.618 -0.2682 -1.5241  1.6508
  670MOL0     H90441   1.693   7.754   7.757 -1.1895 -0.6862  0.6286
  670MOL0     H90442   1.713   7.917   7.556 -1.6291  0.2065 -2.3967
  670MOL0     H90443   1.546   7.881   7.633 -2.0254 -3.2113 -0.9105
  670MOL0     H90444   1.646   7.775   7.362 -1.3630 -0.9597 -2.1959
  670MOL0     H90445   1.488   7.743   7.430  0.9741 -2.3834 -3.7711
  670MOL0     H90446   1.525   8.152   7.285  0.7257  1.5768  0.7396
  670MOL0     H90447   1.294   7.747   7.817  1.3469  0.1681 -2.0775
  670MOL0     H90448   1.138   7.736   7.982  0.1959 -4.0353  1.8517
  670MOL0     H90449   1.167   7.759   8.155  1.2027 -0.5535 -0.5546
  670MOL0     H90450   1.214   7.887   8.047 -1.0323  0.4875  1.1249
  671MOL0     O90451   0.448   4.728  11.070  0.2534 -0.3119 -0.3142
  671MOL0     C90452   0.470   4.854  11.046 -0.6082  0.1326 -1.0820
  671MOL0     O90453   0.532   4.903  10.927 -0.0165  0.0416 -0.1648
  671MOL0     C90454   0.643   4.834  10.883  0.3127  0.0106 -0.5394
  671MOL0     C90455   0.645   4.785  10.751 -0.5869 -0.9508 -0.3215
  671MOL0     C90456   0.765   4.725  10.700  0.4420 -0.0614 -0.3553
  671MOL0     C90457   0.877   4.712  10.776 -0.0001 -0.6763  0.8775
  671MOL0     O90458   0.998   4.670  10.720  0.3318 -0.4839 -0.9349
  671MOL0     C90459   1.091   4.594  10.804 -0.2596 -0.0011 -0.2954
  671MOL0     C90460   1.193   4.680  10.893 -0.3638 -0.0405  0.7021
  671MOL0     C90461   1.262   4.801  10.821 -0.1372  0.3097  0.1182
  671MOL0     C90462   1.364   4.754  10.717 -1.4760 -0.3194  0.2251
  671MOL0     C90463   1.505   4.739  10.769 -0.3326  0.1708  0.9227
  671MOL0     C90464   1.593   4.712  10.645 -0.1407 -0.3857  0.5049
  671MOL0     C90465   1.738   4.670  10.687 -0.6398  0.0895 -0.2595
  671MOL0     C90466   1.827   4.647  10.562 -0.2569 -0.5116 -0.6796
  671MOL0     N90467   1.960   4.629  10.615 -0.6557 -0.2964 -0.0418
  671MOL0     C90468   2.067   4.708  10.585 -0.8497 -0.4006 -1.1989
  671MOL0     C90469   2.179   4.649  10.634  0.0998  0.5176 -0.1302
  671MOL0     C90470   2.315   4.708  10.597  0.0599 -0.9573 -0.2478
  671MOL0     C90471   2.350   4.814  10.714  0.2616  0.3489  0.4100
  671MOL0     C90472   2.473   4.893  10.679 -0.8335  0.7168 -0.5936
  671MOL0     C90473   2.449   4.999  10.578  1.0068 -0.5737 -0.5648
  671MOL0     O90474   2.572   5.049  10.521  0.2846  1.1497 -0.3846
  671MOL0     C90475   2.569   5.172  10.457 -0.2555  0.4462  0.0813
  671MOL0     C90476   2.457   5.248  10.426 -0.7017 -1.0231  0.8233
  671MOL0     C90477   2.465   5.371  10.365 -0.5260  0.5983  0.9947
  671MOL0     C90478   2.595   5.423  10.336 -0.2513 -0.4083 -0.2864
  671MOL0     C90479   2.614   5.544  10.252 -0.0269 -0.7439  1.0436
  671MOL0     O90480   2.500   5.589  10.191  0.3071  0.4033 -0.5237
  671MOL0     C90481   2.495   5.702  10.116 -0.0428 -0.3635 -0.4085
  671MOL0     C90482   2.573   5.723  10.010 -0.4281 -0.4236 -0.3450
  671MOL0     C90483   2.551   5.832   9.918 -0.1807  0.3913 -0.3347
  671MOL0     C90484   2.448   5.928   9.932  1.2014 -0.6244  0.3071
  671MOL0     O90485   2.419   6.025   9.837 -0.6741  0.4774  0.2317
  671MOL0     C90486   2.432   5.983   9.697  0.4181 -0.0165  0.1657
  671MOL0     C90487   2.362   5.850   9.661  0.7164 -0.0995  0.7529
  671MOL0     C90488   2.207   5.855   9.684  1.0684  0.8227 -0.6485
  671MOL0     C90489   2.146   5.733   9.627  0.9000  0.8256 -0.0963
  671MOL0     C90490   1.993   5.736   9.628 -0.2451 -0.3370  0.1944
  671MOL0     C90491   1.919   5.856   9.556 -0.6965  0.1765  0.2290
  671MOL0     C90492   1.770   5.835   9.520 -0.2833  0.7790 -0.2237
  671MOL0     C90493   1.713   5.939   9.436 -0.1977  0.2191  0.2787
  671MOL0    Cl90494   1.776   5.913   9.273  0.2222  0.5999  0.4913
  671MOL0     C90495   2.374   5.904  10.052 -0.2606 -0.7487  0.3141
  671MOL0     C90496   2.390   5.787  10.134 -0.3988  0.7938  0.7981
  671MOL0     O90497   2.716   5.608  10.251 -0.6055  0.0597 -0.0406
  671MOL0     C90498   2.711   5.361  10.379 -0.3080  0.1762 -0.1942
  671MOL0     C90499   2.694   5.232  10.437 -0.0074 -0.7140 -0.6357
  671MOL0     N90500   2.150   4.525  10.685 -1.2911  0.2350  0.2371
  671MOL0     N90501   2.020   4.518  10.676 -0.5602  0.2091 -0.6631
  671MOL0     C90502   0.858   4.743  10.913 -0.1307  0.7229 -0.1137
  671MOL0     C90503   0.741   4.797  10.972 -0.1593 -0.4160  0.4357
  671MOL0     C90504   0.412   4.956  11.137  0.6704 -0.2169 -0.0875
  671MOL0     C90505   0.383   5.083  11.077  0.0649  0.5632  0.2758
  671MOL0     C90506   0.341   5.191  11.151  0.5951 -0.2810 -0.6302
  671MOL0     C90507   0.324   5.173  11.290  1.0705 -0.5269 -0.1614
  671MOL0     O90508   0.272   5.280  11.350  0.6592 -0.1010  0.1311
  671MOL0     C90509   0.373   5.346  11.423 -1.1622  0.8521 -0.1727
  671MOL0     C90510   0.295   5.457  11.496 -0.3377  1.3318  0.2026
  671MOL0     C90511   0.367   5.484  11.628  0.5335 -0.4563 -0.6099
  671MOL0     C90512   0.321   5.381  11.732 -0.2101  1.2615 -0.2407
  671MOL0     C90513   0.405   5.391  11.840 -0.3193 -0.4197  0.2489
  671MOL0     C90514   0.493   5.417  11.917  0.0537  0.4856  0.1033
  671MOL0     C90515   0.350   5.058  11.357 -0.6813 -0.3964  0.2774
  671MOL0     C90516   0.392   4.940  11.279  0.0043 -0.2862 -0.0855
  671MOL0     C90517   0.406   4.812  11.344 -0.0652 -0.1293  0.7797
  671MOL0     H90518   0.553   4.795  10.694  0.8795  0.6154 -2.5800
  671MOL0     H90519   0.751   4.698  10.595  2.6007 -2.0217 -0.2038
  671MOL0     H90520   1.035   4.528  10.870 -3.0447  3.7768  1.4764
  671MOL0     H90521   1.151   4.539  10.731 -1.5365  0.8364 -2.0527
  671MOL0     H90522   1.266   4.624  10.951 -0.2206  1.7348  2.3551
  671MOL0     H90523   1.139   4.722  10.979 -0.6912 -0.7850  0.8689
  671MOL0     H90524   1.313   4.846  10.906  1.9757 -2.7783  0.6414
  671MOL0     H90525   1.185   4.865  10.777 -1.0976  1.2758  2.9618
  671MOL0     H90526   1.346   4.648  10.696  1.5934 -0.9577  0.3732
  671MOL0     H90527   1.367   4.821  10.631  2.8385 -1.5419 -0.8317
  671MOL0     H90528   1.534   4.833  10.816 -1.7623  0.7124  0.7854
  671MOL0     H90529   1.526   4.663  10.845 -1.2716 -0.3477  0.6745
  671MOL0     H90530   1.543   4.633  10.588  0.8383 -1.4061  1.0284
  671MOL0     H90531   1.599   4.805  10.588  2.7760 -1.5735 -1.3712
  671MOL0     H90532   1.730   4.578  10.745 -1.6067  0.4930  0.2920
  671MOL0     H90533   1.776   4.743  10.759 -3.3215 -3.4844  5.4713
  671MOL0     H90534   1.796   4.553  10.517 -2.6647 -0.5448  0.8512
  671MOL0     H90535   1.839   4.734  10.496  0.7251  1.8385  2.3511
  671MOL0     H90536   2.066   4.807  10.542 -1.7135  0.7997  1.3938
  671MOL0     H90537   2.387   4.626  10.589  0.5006 -1.0332  2.9475
  671MOL0     H90538   2.313   4.760  10.501  1.7928  2.7079  1.5105
  671MOL0     H90539   2.263   4.880  10.721  1.3622  1.6536  2.9504
  671MOL0     H90540   2.361   4.769  10.813 -2.7418 -3.5364 -0.7451
  671MOL0     H90541   2.548   4.816  10.658 -2.2551 -0.8724 -0.0851
  671MOL0     H90542   2.505   4.950  10.766  2.0234  0.8336 -1.6230
  671MOL0     H90543   2.391   5.073  10.633 -2.2027 -1.6821 -2.1828
  671MOL0     H90544   2.385   4.970  10.494 -0.6573  2.1551 -0.3337
  671MOL0     H90545   2.356   5.211  10.446 -0.5193 -1.4105  1.0479
  671MOL0     H90546   2.380   5.428  10.330 -0.2953  0.3292 -0.0410
  671MOL0     H90547   2.653   5.653   9.987 -1.1822 -1.1887 -0.6741
  671MOL0     H90548   2.604   5.828   9.824 -0.0406 -0.6705 -0.2198
  671MOL0     H90549   2.391   6.055   9.626 -0.3102 -1.7600 -1.2594
  671MOL0     H90550   2.540   5.984   9.676  0.1955  2.0570 -1.1521
  671MOL0     H90551   2.399   5.821   9.562 -1.9666  0.2195 -0.4318
  671MOL0     H90552   2.395   5.774   9.732  0.5582 -0.3805  0.5291
  671MOL0     H90553   2.191   5.857   9.792  0.5776  0.2903 -0.7078
  671MOL0     H90554   2.154   5.940   9.641 -1.0738  1.1515  2.3677
  671MOL0     H90555   2.185   5.643   9.676 -1.9932 -0.4497  0.0446
  671MOL0     H90556   2.173   5.724   9.522  1.5819  1.6222  0.0039
  671MOL0     H90557   1.968   5.746   9.734 -0.3072 -4.8445  0.8174
  671MOL0     H90558   1.960   5.640   9.587  0.5508 -0.5269 -0.0195
  671MOL0     H90559   1.933   5.952   9.606 -0.0911 -1.0229  2.4910
  671MOL0     H90560   1.971   5.861   9.460 -0.5824  0.4886  0.3063
  671MOL0     H90561   1.715   5.829   9.614 -0.0119  2.1254  0.0364
  671MOL0     H90562   1.760   5.739   9.469  0.8921  0.5503 -0.0709
  671MOL0     H90563   1.603   5.940   9.435 -0.2099 -0.4713  0.6919
  671MOL0     H90564   1.740   6.035   9.481 -2.9691 -0.0518  2.8499
  671MOL0     H90565   2.290   5.969  10.073 -0.6265 -0.5414 -1.5821
  671MOL0     H90566   2.320   5.783  10.217  2.3407 -2.0830  3.2282
  671MOL0     H90567   2.813   5.399  10.377  0.0081 -0.5987 -3.0830
  671MOL0     H90568   2.775   5.181  10.489 -0.6671  0.7768  2.0042
  671MOL0     H90569   0.934   4.706  10.981  0.4379  0.9720 -0.6071
  671MOL0     H90570   0.745   4.821  11.078 -0.4371  0.7238  0.2097
  671MOL0     H90571   0.398   5.099  10.970  1.0806  0.6032  0.4080
  671MOL0     H90572   0.318   5.285  11.102 -1.2279 -0.0648  0.5386
  671MOL0     H90573   0.443   5.378  11.346 -0.7951 -4.9562 -2.7749
  671MOL0     H90574   0.416   5.276  11.496  0.5718  0.4848 -1.4764
  671MOL0     H90575   0.194   5.418  11.514  0.5350 -1.4193 -0.4310
  671MOL0     H90576   0.294   5.547  11.434  1.4118 -0.1413 -2.1100
  671MOL0     H90577   0.330   5.585  11.652  0.5665 -0.0573 -2.1504
  671MOL0     H90578   0.475   5.484  11.616  0.6433 -0.1125  0.2676
  671MOL0     H90579   0.220   5.403  11.770  0.2480 -0.2702  2.1105
  671MOL0     H90580   0.318   5.277  11.700  0.3254  0.0371  3.2534
  671MOL0     H90581   0.560   5.437  11.998  2.1224  0.1205 -1.4288
  671MOL0     H90582   0.335   5.054  11.464 -1.5767  2.5681  0.3522
  671MOL0     H90583   0.329   4.742  11.308  1.9743 -1.4418 -1.3148
  671MOL0     H90584   0.503   4.767  11.321  0.3279  1.2493 -0.4625
  671MOL0     H90585   0.401   4.823  11.452 -5.8708 -4.8787  1.5238
  672MOL0     O90586   4.233   6.830   3.209 -0.1939  0.0939  0.7183
  672MOL0     C90587   4.191   6.796   3.096 -0.1510  0.3979  0.0308
  672MOL0     O90588   4.174   6.870   2.987  0.1524 -0.1042  0.5475
  672MOL0     C90589   4.231   6.998   2.984 -1.1712 -0.6518 -0.1878
  672MOL0     C90590   4.322   7.026   2.875  0.2952 -0.3735 -1.1382
  672MOL0     C90591   4.368   7.157   2.870 -0.2032 -0.4910  0.1533
  672MOL0     C90592   4.338   7.256   2.963 -0.8318 -0.1717  0.2026
  672MOL0     O90593   4.391   7.381   2.931  0.2383  0.3766 -0.4380
  672MOL0     C90594   4.364   7.493   3.016 -0.0626 -0.3344 -0.3388
  672MOL0     C90595   4.437   7.617   2.940 -0.1069  0.0646  1.2951
  672MOL0     C90596   4.592   7.598   2.910 -0.3224 -0.2854  0.0378
  672MOL0     C90597   4.631   7.745   2.881  0.3756  0.0495  0.1153
  672MOL0     C90598   4.775   7.761   2.856 -0.8689 -0.8276  0.4625
  672MOL0     C90599   4.816   7.909   2.874 -0.2082  0.3314 -0.5917
  672MOL0     C90600   4.778   7.998   2.764 -0.6243  0.2271  1.2315
  672MOL0     C90601   4.859   8.130   2.760 -0.0100  1.0948  0.9673
  672MOL0     N90602   4.831   8.211   2.648 -0.5584 -0.5611 -0.3904
  672MOL0     C90603   4.728   8.308   2.628 -0.2886 -0.2211  0.0577
  672MOL0     C90604   4.754   8.350   2.502 -0.1889 -0.1210  0.0167
  672MOL0     C90605   4.686   8.465   2.425  0.9981 -0.0128 -0.6233
  672MOL0     C90606   4.540   8.433   2.378  0.5740 -0.2828 -0.3744
  672MOL0     C90607   4.437   8.432   2.509 -0.3785  0.3416 -0.5812
  672MOL0     C90608   4.429   8.570   2.575  0.4500 -0.0684  0.2718
  672MOL0     O90609   4.384   8.674   2.484 -0.3434 -0.2015  0.6417
  672MOL0     C90610   4.387   8.808   2.535  0.4738 -0.9304  0.2747
  672MOL0     C90611   4.347   8.911   2.450  0.1756  0.0438 -0.9197
  672MOL0     C90612   4.353   9.041   2.487 -0.3966  0.0217 -0.3427
  672MOL0     C90613   4.383   9.081   2.616  0.1518 -0.5139  0.0890
  672MOL0     C90614   4.373   9.220   2.651  0.0398  1.6678  0.1391
  672MOL0     O90615   4.308   9.306   2.572  0.0396  0.2658  0.7819
  672MOL0     C90616   4.292   9.437   2.587  0.3122 -0.2987  1.4273
  672MOL0     C90617   4.190   9.492   2.505 -0.3360  0.3797  0.3508
  672MOL0     C90618   4.164   9.626   2.522 -0.2289  0.5836 -0.4106
  672MOL0     C90619   4.245   9.705   2.601  0.6255  0.2275 -0.5974
  672MOL0     O90620   4.221   9.842   2.613 -0.1792 -0.2951 -0.1423
  672MOL0     C90621   4.103   9.878   2.697  0.2804  0.4120  0.4220
  672MOL0     C90622   4.063  10.011   2.646 -0.0464  0.1927 -0.7746
  672MOL0     C90623   3.935  10.069   2.714  0.9059  0.0156  0.1759
  672MOL0     C90624   3.906  10.212   2.662  0.2399 -0.0365  0.1686
  672MOL0     C90625   3.809  10.285   2.752 -0.2583  0.0425  0.2707
  672MOL0     C90626   3.819  10.439   2.747  0.5255 -1.3041  0.4377
  672MOL0     C90627   3.712  10.511   2.817  0.0941  0.1472 -0.3140
  672MOL0     C90628   3.594  10.528   2.729  0.0016 -0.6622  0.6410
  672MOL0    Cl90629   3.626  10.660   2.595 -0.0323  0.3712  0.2562
  672MOL0     C90630   4.346   9.655   2.668 -0.2456  0.1617  0.4959
  672MOL0     C90631   4.369   9.519   2.673 -0.7258  0.5328 -0.5623
  672MOL0     O90632   4.417   9.248   2.764 -0.4448  0.7913  0.1050
  672MOL0     C90633   4.412   8.978   2.705  1.7579  0.3039  0.3709
  672MOL0     C90634   4.415   8.841   2.662  0.0533  0.0483 -0.3504
  672MOL0     N90635   4.850   8.274   2.441 -0.3412  0.7110  0.1167
  672MOL0     N90636   4.899   8.194   2.526 -0.2498  0.7537 -0.0371
  672MOL0     C90637   4.249   7.227   3.068 -0.0507  0.4087 -0.2456
  672MOL0     C90638   4.192   7.092   3.075  0.0353  0.7437 -0.3328
  672MOL0     C90639   4.158   6.648   3.082 -0.2408  0.4478 -0.3077
  672MOL0     C90640   4.129   6.590   2.950 -0.6320  0.0521 -0.0573
  672MOL0     C90641   4.100   6.455   2.947  0.7539  0.1816  0.2226
  672MOL0     C90642   4.135   6.372   3.056 -0.2377 -0.6088  0.4073
  672MOL0     O90643   4.133   6.240   3.056 -0.3319  0.8153 -0.3957
  672MOL0     C90644   4.150   6.163   2.939 -0.3851  0.3733  0.0796
  672MOL0     C90645   4.089   6.020   2.950  0.6879 -0.0606  0.3189
  672MOL0     C90646   4.072   5.945   2.816  1.1167  0.9378  0.4578
  672MOL0     C90647   4.022   5.801   2.841  1.1751  0.1233 -0.0839
  672MOL0     C90648   4.117   5.726   2.915  0.5946  0.4179 -0.0416
  672MOL0     C90649   4.187   5.657   2.986  0.5227  0.4809 -0.0942
  672MOL0     C90650   4.165   6.422   3.177 -1.0146 -0.8960 -0.1735
  672MOL0     C90651   4.176   6.559   3.195  0.7152  0.3875 -0.0549
  672MOL0     C90652   4.213   6.599   3.336 -0.6027  0.3283 -0.2475
  672MOL0     H90653   4.332   6.952   2.796  0.0419 -1.6392 -0.0285
  672MOL0     H90654   4.432   7.189   2.788 -1.5532 -1.6465 -1.4362
  672MOL0     H90655   4.256   7.499   3.030 -0.1234  1.2253 -1.1959
  672MOL0     H90656   4.414   7.479   3.111  1.8604 -1.6012 -1.4724
  672MOL0     H90657   4.411   7.704   3.001 -3.1335  0.0026  0.2767
  672MOL0     H90658   4.376   7.632   2.850 -0.2001 -0.8299  1.2052
  672MOL0     H90659   4.603   7.530   2.825 -4.6352 -0.9155 -0.2573
  672MOL0     H90660   4.645   7.565   2.999 -3.0823  1.0647  2.3494
  672MOL0     H90661   4.571   7.790   2.801 -0.8518 -1.4593  0.1446
  672MOL0     H90662   4.603   7.796   2.974  0.5224 -1.9741  1.3374
  672MOL0     H90663   4.832   7.712   2.935  0.8455 -0.8976 -0.7575
  672MOL0     H90664   4.808   7.716   2.761  1.1462 -2.8259  1.9945
  672MOL0     H90665   4.783   7.954   2.969 -0.0201  1.6536 -1.1315
  672MOL0     H90666   4.925   7.918   2.880 -0.2522  0.0349  1.9849
  672MOL0     H90667   4.675   8.031   2.777 -0.4759  1.8251 -1.1070
  672MOL0     H90668   4.799   7.942   2.672  1.3057  1.4277  0.8863
  672MOL0     H90669   4.844   8.175   2.858 -1.2901  1.1191  0.7758
  672MOL0     H90670   4.967   8.112   2.760 -0.0039  1.1162  0.5364
  672MOL0     H90671   4.668   8.355   2.705  1.3740  0.7480  0.8271
  672MOL0     H90672   4.681   8.562   2.475  0.6462  1.3833 -3.1655
  672MOL0     H90673   4.754   8.481   2.340 -0.9386  0.9527 -2.0814
  672MOL0     H90674   4.519   8.516   2.311  2.6894  0.5735 -0.0618
  672MOL0     H90675   4.526   8.335   2.330 -2.9787 -0.0773  0.0143
  672MOL0     H90676   4.466   8.356   2.582  1.8543  3.0025  1.5152
  672MOL0     H90677   4.336   8.408   2.475 -0.7427  2.4989 -1.2262
  672MOL0     H90678   4.523   8.579   2.629  0.9414  1.0015 -0.7081
  672MOL0     H90679   4.355   8.558   2.654 -0.4978 -0.5344 -0.6537
  672MOL0     H90680   4.321   8.869   2.353  2.3387 -0.7659 -1.1955
  672MOL0     H90681   4.334   9.112   2.407 -0.3626  0.4848  0.0565
  672MOL0     H90682   4.123   9.445   2.434  0.8018 -2.0858  0.7831
  672MOL0     H90683   4.090   9.672   2.458 -2.0341  1.7476  2.3185
  672MOL0     H90684   4.019   9.808   2.694 -2.0706  3.0892 -1.1520
  672MOL0     H90685   4.127   9.886   2.803 -3.2549 -1.4152  1.5131
  672MOL0     H90686   4.143  10.081   2.673 -1.2159  2.0496 -1.9096
  672MOL0     H90687   4.052  10.003   2.538 -3.4583  0.5621 -0.5894
  672MOL0     H90688   3.843  10.020   2.685 -0.1537  1.2317  1.3218
  672MOL0     H90689   3.957  10.065   2.822  1.0408 -2.1876  0.0987
  672MOL0     H90690   3.869  10.216   2.559  3.0861 -3.6999 -1.2021
  672MOL0     H90691   4.006  10.257   2.658  0.2535 -0.1349 -2.1911
  672MOL0     H90692   3.811  10.255   2.857 -5.2615 -0.0831  0.5472
  672MOL0     H90693   3.709  10.256   2.721 -0.3966 -0.4610  1.1413
  672MOL0     H90694   3.916  10.476   2.782 -0.5486 -0.0889  2.3280
  672MOL0     H90695   3.807  10.477   2.645 -2.6458 -1.2633  0.7177
  672MOL0     H90696   3.763  10.604   2.847 -0.4890 -0.2479  2.1164
  672MOL0     H90697   3.683  10.456   2.907  0.0359  0.8877  0.1383
  672MOL0     H90698   3.575  10.434   2.677 -1.8576  0.3815 -0.6789
  672MOL0     H90699   3.507  10.555   2.789 -0.8187  1.1002 -1.2192
  672MOL0     H90700   4.396   9.724   2.734 -3.2724  3.3664 -0.2802
  672MOL0     H90701   4.444   9.480   2.740 -2.0337 -1.8748 -0.3793
  672MOL0     H90702   4.443   8.987   2.809  1.1866 -0.0443  0.5715
  672MOL0     H90703   4.447   8.775   2.741  1.2533 -0.3561 -1.1600
  672MOL0     H90704   4.218   7.302   3.141 -2.6880  2.8301 -3.5617
  672MOL0     H90705   4.113   7.072   3.147  1.8165  2.0121  2.1556
  672MOL0     H90706   4.140   6.646   2.857  2.1137 -1.9972 -1.1081
  672MOL0     H90707   4.071   6.426   2.846 -1.9078  2.1132  0.3220
  672MOL0     H90708   4.258   6.154   2.923 -0.3807 -1.5483  0.9674
  672MOL0     H90709   4.109   6.204   2.846  0.1533 -1.4658 -1.0093
  672MOL0     H90710   3.999   6.023   3.013  2.1055  1.2836  2.4097
  672MOL0     H90711   4.160   5.966   3.013  0.5788  1.2291  1.6153
  672MOL0     H90712   4.173   5.935   2.776  0.3542 -2.5647 -0.9846
  672MOL0     H90713   4.004   6.000   2.750  2.3410  1.1372 -0.6841
  672MOL0     H90714   3.932   5.810   2.903  1.6055  3.0852  0.2506
  672MOL0     H90715   3.988   5.761   2.744 -0.4184 -2.2052  1.3440
  672MOL0     H90716   4.257   5.594   3.039 -1.5662 -2.5049 -0.6278
  672MOL0     H90717   4.190   6.346   3.251 -4.4962 -1.7928  0.2270
  672MOL0     H90718   4.207   6.507   3.396  1.4689  1.5155  1.9719
  672MOL0     H90719   4.316   6.630   3.355 -0.7689  0.7450 -0.0045
  672MOL0     H90720   4.142   6.673   3.375 -0.2515 -0.2362  1.5714
  673MOL0     O90721   4.456   6.231   7.431  0.1052 -0.1913  0.4940
  673MOL0     C90722   4.384   6.137   7.406  0.0591 -0.0856 -0.3364
  673MOL0     O90723   4.254   6.124   7.452  0.0324 -0.3343 -0.0215
  673MOL0     C90724   4.196   6.219   7.527  0.4745 -0.6942  0.1176
  673MOL0     C90725   4.235   6.252   7.657  0.2915 -0.5441  0.1836
  673MOL0     C90726   4.156   6.339   7.734  0.2484  1.3845 -0.0955
  673MOL0     C90727   4.040   6.397   7.688 -0.3963  0.2123  0.5369
  673MOL0     O90728   3.956   6.456   7.779 -0.0986  0.6737 -0.1923
  673MOL0     C90729   3.907   6.597   7.749 -0.4291  1.1538  0.4710
  673MOL0     C90730   3.870   6.689   7.850 -0.3142 -0.2217 -0.1493
  673MOL0     C90731   3.835   6.840   7.809 -0.0299  0.7798  0.4607
  673MOL0     C90732   3.731   6.860   7.710  0.6916  0.2793  0.0389
  673MOL0     C90733   3.680   7.008   7.718 -0.0950  0.4210 -0.3014
  673MOL0     C90734   3.556   7.023   7.626 -0.2860 -0.3023  0.1685
  673MOL0     C90735   3.511   7.167   7.589  0.2309  0.5374 -0.0143
  673MOL0     C90736   3.596   7.212   7.469 -0.4156 -0.1398  0.0256
  673MOL0     N90737   3.543   7.337   7.403  0.4588  0.2426 -0.4104
  673MOL0     C90738   3.439   7.419   7.434 -0.3534 -0.4498  0.0867
  673MOL0     C90739   3.422   7.503   7.335  0.5097  0.1497  0.2273
  673MOL0     C90740   3.335   7.617   7.316 -1.4369  0.2727  0.7548
  673MOL0     C90741   3.354   7.711   7.440 -0.2555 -0.7750 -0.1125
  673MOL0     C90742   3.268   7.846   7.431  0.1983 -0.6270  0.3741
  673MOL0     C90743   3.236   7.930   7.552  0.3266  0.1373  0.2258
  673MOL0     O90744   3.149   7.857   7.642  0.2783  0.3872 -0.5780
  673MOL0     C90745   3.080   7.943   7.731  0.8699  1.4309  0.1344
  673MOL0     C90746   2.946   7.916   7.729  1.2179  0.2023  0.7200
  673MOL0     C90747   2.858   7.993   7.813 -0.7839  0.3700 -0.5380
  673MOL0     C90748   2.905   8.105   7.885 -0.0482  0.0573 -0.6029
  673MOL0     C90749   2.815   8.174   7.976 -0.5380 -0.6333 -0.3851
  673MOL0     O90750   2.690   8.143   7.962  0.7916 -0.2192 -0.1836
  673MOL0     C90751   2.598   8.225   8.026  0.0360  0.0561 -0.7226
  673MOL0     C90752   2.519   8.312   7.953 -0.2097 -0.8763  0.1151
  673MOL0     C90753   2.417   8.390   8.004 -1.1061  0.3086  0.8123
  673MOL0     C90754   2.400   8.395   8.143 -0.3867  0.9608 -0.4593
  673MOL0     O90755   2.303   8.472   8.196 -0.3719  0.6032  0.5597
  673MOL0     C90756   2.176   8.420   8.143 -0.0284  0.4375 -0.7327
  673MOL0     C90757   2.062   8.468   8.236  0.4414  0.4697 -0.0381
  673MOL0     C90758   2.014   8.615   8.201 -0.2857 -0.1575 -0.3910
  673MOL0     C90759   1.893   8.660   8.286 -0.4886 -0.0746  0.7155
  673MOL0     C90760   1.872   8.808   8.277  1.0360 -0.0289 -0.4232
  673MOL0     C90761   1.733   8.846   8.333  1.1076  0.2728 -0.5680
  673MOL0     C90762   1.727   9.003   8.340 -0.1394 -0.2381  0.3030
  673MOL0     C90763   1.690   9.069   8.210 -1.3205  0.2479 -0.8591
  673MOL0    Cl90764   1.521   9.036   8.187 -0.1178 -0.0678  0.5370
  673MOL0     C90765   2.481   8.316   8.229 -0.0288  0.1089 -0.5779
  673MOL0     C90766   2.568   8.225   8.166  0.0260 -0.3254 -0.6458
  673MOL0     O90767   2.862   8.261   8.054  0.0031  0.2251  0.3629
  673MOL0     C90768   3.041   8.135   7.881  0.6178 -0.0161 -0.3486
  673MOL0     C90769   3.130   8.047   7.807 -0.0005  0.0246  0.3812
  673MOL0     N90770   3.531   7.484   7.251 -0.3610 -0.1812  0.0195
  673MOL0     N90771   3.598   7.385   7.283 -0.4146  0.4304  0.6838
  673MOL0     C90772   4.002   6.368   7.560  0.4431 -0.1736 -0.3653
  673MOL0     C90773   4.072   6.272   7.481  0.2877  0.9686  0.3793
  673MOL0     C90774   4.423   6.039   7.310 -0.4395  0.1650 -0.6570
  673MOL0     C90775   4.319   5.971   7.240  0.4894 -0.0446  0.0569
  673MOL0     C90776   4.354   5.873   7.143  0.1938 -0.2062 -1.1023
  673MOL0     C90777   4.490   5.836   7.121 -1.0420  0.0520 -0.1247
  673MOL0     O90778   4.496   5.731   7.039 -0.5659 -0.0711  0.0696
  673MOL0     C90779   4.622   5.686   6.996 -0.1822  0.4049 -0.2674
  673MOL0     C90780   4.658   5.560   7.073 -1.4087  0.1170  0.2668
  673MOL0     C90781   4.733   5.578   7.213  0.4492  0.4038 -0.1527
  673MOL0     C90782   4.669   5.493   7.322 -0.3287 -0.6986 -0.0834
  673MOL0     C90783   4.742   5.509   7.447 -0.7264  0.5410 -0.1867
  673MOL0     C90784   4.821   5.527   7.539  0.0565 -0.2874  0.2686
  673MOL0     C90785   4.589   5.907   7.190 -0.1198  0.3149 -0.8386
  673MOL0     C90786   4.558   6.002   7.289  0.0992 -0.8417 -0.1148
  673MOL0     C90787   4.678   6.078   7.354  0.3288 -0.6019 -0.1796
  673MOL0     H90788   4.326   6.215   7.704  2.3674  2.9170 -0.7130
  673MOL0     H90789   4.185   6.365   7.835 -0.0189  0.1689  0.3155
  673MOL0     H90790   3.983   6.644   7.686  0.0582  0.5376  0.5796
  673MOL0     H90791   3.814   6.583   7.694 -1.4675 -4.0033  2.9158
  673MOL0     H90792   3.956   6.702   7.918  0.1995  3.0257 -1.2453
  673MOL0     H90793   3.791   6.629   7.896  2.5082 -3.9605  0.2819
  673MOL0     H90794   3.931   6.884   7.779  0.7656 -0.7627  0.6626
  673MOL0     H90795   3.809   6.887   7.905  0.6902 -1.0993  1.6302
  673MOL0     H90796   3.774   6.836   7.613  0.8095 -1.2988  0.4628
  673MOL0     H90797   3.650   6.787   7.722  1.6938 -0.7949  0.3714
  673MOL0     H90798   3.655   7.034   7.821  3.8008  3.2498  0.1667
  673MOL0     H90799   3.757   7.078   7.683  0.0726  0.0973 -0.5862
  673MOL0     H90800   3.552   6.967   7.532  1.6158  0.0024 -0.1198
  673MOL0     H90801   3.475   6.974   7.682  0.2276 -0.1211  1.0834
  673MOL0     H90802   3.524   7.226   7.680  0.9538  0.7202 -0.2343
  673MOL0     H90803   3.404   7.167   7.563  0.4297 -0.6526 -0.9402
  673MOL0     H90804   3.693   7.234   7.515 -0.6355 -0.5501  0.7057
  673MOL0     H90805   3.633   7.128   7.409  0.1412 -0.4374  0.7718
  673MOL0     H90806   3.368   7.413   7.516 -0.6154  1.4737  0.0348
  673MOL0     H90807   3.357   7.663   7.219 -0.4807  1.4303  1.5052
  673MOL0     H90808   3.234   7.574   7.318 -0.8423 -1.1411  1.7923
  673MOL0     H90809   3.322   7.658   7.530  2.1371  0.7624  1.7640
  673MOL0     H90810   3.459   7.738   7.457 -0.2788 -0.6767 -0.1193
  673MOL0     H90811   3.175   7.835   7.375 -0.3629  2.9206  0.3822
  673MOL0     H90812   3.326   7.909   7.363 -2.6795  0.7965 -0.9070
  673MOL0     H90813   3.193   8.019   7.505  0.6357 -1.0076 -2.4164
  673MOL0     H90814   3.333   7.960   7.591  1.5398  0.4126 -2.6998
  673MOL0     H90815   2.909   7.839   7.662 -0.7806  0.7201  1.1598
  673MOL0     H90816   2.756   7.956   7.817 -0.0788 -1.7726 -1.2725
  673MOL0     H90817   2.537   8.325   7.847 -1.5386  2.2147  0.1588
  673MOL0     H90818   2.355   8.434   7.926  0.5556 -0.7959 -1.2544
  673MOL0     H90819   2.163   8.448   8.038 -2.9332  2.1212 -0.0473
  673MOL0     H90820   2.178   8.311   8.150  5.5355  0.2774 -0.5490
  673MOL0     H90821   1.973   8.405   8.231  1.2930 -0.9165  1.3276
  673MOL0     H90822   2.103   8.461   8.337 -0.0829  0.4746  0.1730
  673MOL0     H90823   2.095   8.686   8.223 -2.1317  1.6616  0.9019
  673MOL0     H90824   1.986   8.619   8.096 -2.7748 -3.8046 -0.0567
  673MOL0     H90825   1.888   8.646   8.395 -1.3100 -0.4069  0.6391
  673MOL0     H90826   1.806   8.611   8.242 -0.0985  0.8735 -1.1993
  673MOL0     H90827   1.874   8.837   8.171  1.5087 -1.9308 -0.9774
  673MOL0     H90828   1.952   8.857   8.333  0.5099 -0.9913  1.2362
  673MOL0     H90829   1.650   8.811   8.272 -0.6848  3.1697 -0.0022
  673MOL0     H90830   1.725   8.791   8.427 -3.8402  2.0979  0.4123
  673MOL0     H90831   1.826   9.044   8.364 -1.0698  1.2679  1.7601
  673MOL0     H90832   1.660   9.042   8.417  0.5302  0.4348  0.5616
  673MOL0     H90833   1.715   9.175   8.204 -0.5150  0.0600 -0.9023
  673MOL0     H90834   1.750   9.016   8.136 -0.5630 -0.9754  0.5815
  673MOL0     H90835   2.480   8.329   8.337  0.8926 -1.4263 -0.3506
  673MOL0     H90836   2.629   8.164   8.232  3.3276  3.4352  0.2014
  673MOL0     H90837   3.082   8.210   7.948  0.3937  0.2818 -0.5400
  673MOL0     H90838   3.237   8.057   7.819  0.5414 -1.1796 -2.5934
  673MOL0     H90839   3.915   6.409   7.511  0.1148 -1.4506 -0.9064
  673MOL0     H90840   4.043   6.247   7.379 -1.8100  0.8450  0.9659
  673MOL0     H90841   4.214   5.992   7.259  0.5589  2.1296 -1.6500
  673MOL0     H90842   4.275   5.828   7.083 -1.4568 -2.0560  2.1651
  673MOL0     H90843   4.702   5.759   6.992 -2.5755  3.1666 -3.7772
  673MOL0     H90844   4.604   5.652   6.893  3.3548  1.9330 -1.5493
  673MOL0     H90845   4.720   5.505   7.003 -1.9840  2.3501 -2.1526
  673MOL0     H90846   4.564   5.507   7.090  0.2217 -2.5397  1.5749
  673MOL0     H90847   4.739   5.680   7.253  1.2814  0.1651  0.3746
  673MOL0     H90848   4.833   5.542   7.188  1.1982  2.8135 -0.8784
  673MOL0     H90849   4.566   5.522   7.344 -1.6346 -2.5024 -3.1013
  673MOL0     H90850   4.665   5.386   7.299 -0.5859 -0.9200  0.9751
  673MOL0     H90851   4.897   5.542   7.612 -0.7686 -1.3833  1.3993
  673MOL0     H90852   4.697   5.894   7.182 -0.3715 -1.8747 -1.2823
  673MOL0     H90853   4.762   6.007   7.351 -1.5239 -2.9153  0.1782
  673MOL0     H90854   4.702   6.179   7.317  3.9289 -2.0818 -2.5338
  673MOL0     H90855   4.660   6.094   7.461 -0.2566  1.0416 -0.4941
  674MOL0     O90856  10.816   6.076   6.502  0.5041 -0.3494  0.5497
  674MOL0     C90857  10.872   6.154   6.573  0.3017 -0.0235 -0.4371
  674MOL0     O90858  10.994   6.131   6.627  0.4119 -0.6140  1.0885
  674MOL0     C90859  11.067   6.024   6.573  0.5449  0.0982 -0.4785
  674MOL0     C90860  11.038   5.888   6.614  0.0360 -0.5275  0.0029
  674MOL0     C90861  11.132   5.792   6.597 -0.3073 -0.2199  0.2071
  674MOL0     C90862  11.253   5.819   6.538 -0.1470  0.3315  0.5137
  674MOL0     O90863  11.348   5.722   6.502 -0.4357  0.0149 -0.9388
  674MOL0     C90864  11.409   5.651   6.610  0.4947 -0.5816 -0.4683
  674MOL0     C90865  11.533   5.727   6.639  0.7411 -0.2596 -0.0406
  674MOL0     C90866  11.603   5.688   6.773 -0.3198  0.5103 -0.0976
  674MOL0     C90867  11.513   5.665   6.896 -0.7758  0.6489  0.0851
  674MOL0     C90868  11.420   5.793   6.928 -0.2446  0.6754 -1.1602
  674MOL0     C90869  11.332   5.759   7.049  1.3570 -0.4790 -0.2996
  674MOL0     C90870  11.230   5.872   7.069  0.1255 -0.1315  0.5886
  674MOL0     C90871  11.123   5.879   6.955  0.7701 -1.5656  0.6885
  674MOL0     N90872  10.999   5.949   6.996  0.1907 -0.4464 -0.1409
  674MOL0     C90873  10.874   5.954   6.941  0.2162  0.6765 -0.1180
  674MOL0     C90874  10.814   6.063   6.998 -0.2613 -0.0682  0.5999
  674MOL0     C90875  10.685   6.106   6.936 -0.0543  0.3518  0.5241
  674MOL0     C90876  10.610   6.201   7.031 -0.1176 -0.4983  0.0403
  674MOL0     C90877  10.488   6.268   6.971  0.3049  1.2302 -0.4952
  674MOL0     C90878  10.404   6.329   7.081 -0.1372  0.4154 -0.0555
  674MOL0     O90879  10.271   6.278   7.064 -0.2050 -0.1733  0.1854
  674MOL0     C90880  10.184   6.305   7.170 -1.4184 -0.2487  0.4456
  674MOL0     C90881  10.208   6.378   7.288 -0.4098  0.3681 -0.1934
  674MOL0     C90882  10.101   6.414   7.370  0.6117  0.4709 -0.3312
  674MOL0     C90883   9.973   6.365   7.356  0.0554  0.6437 -1.3095
  674MOL0     C90884   9.858   6.402   7.437 -0.9064  0.1064 -0.4947
  674MOL0     O90885   9.725   6.381   7.382  0.4911 -0.6938 -1.1258
  674MOL0     C90886   9.620   6.411   7.464  0.3575 -0.4081 -0.0933
  674MOL0     C90887   9.537   6.512   7.419 -0.2246  1.0015 -0.3878
  674MOL0     C90888   9.440   6.565   7.505  0.2776  0.7908  0.6988
  674MOL0     C90889   9.408   6.497   7.628  0.0975  1.0696 -0.5946
  674MOL0     O90890   9.310   6.526   7.720 -0.6956  0.4422  0.2113
  674MOL0     C90891   9.270   6.660   7.717 -0.0493 -0.0378  0.5472
  674MOL0     C90892   9.191   6.681   7.845 -0.2867 -0.3976  0.8821
  674MOL0     C90893   9.068   6.597   7.864 -0.2250  0.3932  0.8689
  674MOL0     C90894   9.083   6.465   7.945 -0.0771  0.2457  0.5653
  674MOL0     C90895   8.975   6.373   7.898 -1.3045  0.2997  1.2036
  674MOL0     C90896   8.839   6.437   7.882  0.4002 -0.1989  0.9401
  674MOL0     C90897   8.722   6.348   7.918  0.0263  1.0079  0.1025
  674MOL0     C90898   8.680   6.362   8.060  0.5938  0.7350  0.2960
  674MOL0    Cl90899   8.588   6.226   8.110  0.0076 -0.2146 -0.0059
  674MOL0     C90900   9.488   6.384   7.664  0.2667  0.6921  0.4880
  674MOL0     C90901   9.597   6.345   7.589 -0.2928 -0.5456  0.5084
  674MOL0     O90902   9.883   6.464   7.544  0.2553 -0.9297  0.3964
  674MOL0     C90903   9.951   6.272   7.245  0.0104 -0.1158 -0.4959
  674MOL0     C90904  10.054   6.251   7.149  0.5771  0.1992  0.1726
  674MOL0     N90905  10.897   6.124   7.079 -0.4973 -0.8370 -0.6114
  674MOL0     N90906  11.009   6.061   7.074 -0.8587 -0.0127 -0.0402
  674MOL0     C90907  11.278   5.950   6.490 -0.0175 -0.5124  0.3221
  674MOL0     C90908  11.188   6.046   6.518 -0.5516 -0.2334 -0.1928
  674MOL0     C90909  10.788   6.267   6.615 -0.8843  0.9941  0.5423
  674MOL0     C90910  10.660   6.285   6.550 -0.0749 -0.7678  0.4157
  674MOL0     C90911  10.574   6.391   6.556 -0.5329 -0.7911  0.2238
  674MOL0     C90912  10.622   6.503   6.638  0.1505  0.3431  0.8763
  674MOL0     O90913  10.563   6.625   6.656  0.1411  0.0994  0.5147
  674MOL0     C90914  10.441   6.659   6.592  0.7826  0.6390 -0.2627
  674MOL0     C90915  10.405   6.798   6.623 -0.0541 -0.8919 -0.6907
  674MOL0     C90916  10.482   6.920   6.572  0.0451  0.5775 -1.1901
  674MOL0     C90917  10.464   6.930   6.428 -0.9662 -0.5980 -0.6475
  674MOL0     C90918  10.353   7.019   6.391  0.0218  0.1550 -0.3146
  674MOL0     C90919  10.263   7.089   6.355  0.3085 -0.6578 -0.7409
  674MOL0     C90920  10.740   6.493   6.709  1.0997  0.2430  0.9833
  674MOL0     C90921  10.825   6.381   6.695  0.6976 -0.0972  0.3436
  674MOL0     C90922  10.948   6.369   6.774 -1.0794 -0.8749  0.3113
  674MOL0     H90923  10.936   5.871   6.648  0.1838 -2.5961 -0.4456
  674MOL0     H90924  11.108   5.690   6.626 -1.9294  0.3121  0.8425
  674MOL0     H90925  11.345   5.637   6.697  1.4266 -0.6492  0.2280
  674MOL0     H90926  11.450   5.556   6.572 -2.2707 -2.1550  0.2291
  674MOL0     H90927  11.505   5.833   6.640  2.0833  0.1092  1.2513
  674MOL0     H90928  11.600   5.720   6.553  0.9417 -0.9129  0.1605
  674MOL0     H90929  11.671   5.770   6.798  0.2582 -0.2583  0.9408
  674MOL0     H90930  11.669   5.600   6.769  0.5683  1.0532  1.4829
  674MOL0     H90931  11.460   5.571   6.877  1.1545 -0.4392 -0.2482
  674MOL0     H90932  11.582   5.637   6.976  0.7904 -0.4605 -1.5695
  674MOL0     H90933  11.478   5.884   6.944  0.6122 -0.3523  2.1370
  674MOL0     H90934  11.365   5.803   6.833 -0.0400 -2.4401 -1.7245
  674MOL0     H90935  11.278   5.668   7.020  0.7760 -0.1080 -0.3882
  674MOL0     H90936  11.385   5.744   7.144  0.2191 -0.0853  0.4147
  674MOL0     H90937  11.282   5.968   7.071  0.4820 -0.2475 -1.2182
  674MOL0     H90938  11.175   5.853   7.161 -0.3931  1.2489  0.5883
  674MOL0     H90939  11.168   5.922   6.865 -0.0577 -3.4096 -0.6813
  674MOL0     H90940  11.092   5.777   6.931 -0.3546 -1.2818  0.8721
  674MOL0     H90941  10.825   5.890   6.868 -2.8891  1.5510  1.0320
  674MOL0     H90942  10.708   6.166   6.847  0.7236  0.1112  0.5526
  674MOL0     H90943  10.626   6.016   6.918  0.3240  0.4913 -1.6808
  674MOL0     H90944  10.588   6.158   7.129  0.5484  3.1381  1.9559
  674MOL0     H90945  10.678   6.285   7.046 -0.1165 -0.5605  0.3750
  674MOL0     H90946  10.431   6.189   6.920  0.4870  0.5547  0.3277
  674MOL0     H90947  10.495   6.349   6.898  1.1718 -0.4891 -2.4583
  674MOL0     H90948  10.409   6.438   7.073  0.3768  0.3952 -0.0682
  674MOL0     H90949  10.436   6.298   7.181 -3.3261 -0.7757  0.7133
  674MOL0     H90950  10.305   6.417   7.318 -0.1079 -0.7682  0.3452
  674MOL0     H90951  10.116   6.461   7.467  0.4077 -5.3707  3.0220
  674MOL0     H90952   9.543   6.571   7.327  0.3011  0.1338 -0.9242
  674MOL0     H90953   9.381   6.642   7.456  0.5103  0.4367 -0.1567
  674MOL0     H90954   9.357   6.725   7.714  1.0967 -1.5063  0.7163
  674MOL0     H90955   9.205   6.670   7.629 -0.9417  0.6320  1.2619
  674MOL0     H90956   9.255   6.673   7.934  1.9710 -0.8594 -0.6860
  674MOL0     H90957   9.160   6.786   7.843  0.9310 -0.0320 -0.1603
  674MOL0     H90958   8.995   6.658   7.917 -2.5272  0.9323 -2.5731
  674MOL0     H90959   9.032   6.567   7.765  0.7044 -2.0244  1.1969
  674MOL0     H90960   9.065   6.475   8.052  1.9824  0.6186  0.9288
  674MOL0     H90961   9.175   6.409   7.925 -1.1796 -1.8877  1.1364
  674MOL0     H90962   8.959   6.300   7.978 -1.0787  1.0175  1.9281
  674MOL0     H90963   8.994   6.325   7.802 -1.6576  2.2692  0.0767
  674MOL0     H90964   8.821   6.534   7.928  3.4203  0.8494  0.1380
  674MOL0     H90965   8.828   6.462   7.776  2.9133 -1.7270  0.2156
  674MOL0     H90966   8.742   6.243   7.896  0.0742  1.0030  0.1680
  674MOL0     H90967   8.651   6.376   7.840  0.0479  2.5765  0.6113
  674MOL0     H90968   8.765   6.371   8.129  0.7829  1.6076 -0.0338
  674MOL0     H90969   8.621   6.453   8.072 -2.4209 -1.0671 -0.0288
  674MOL0     H90970   9.464   6.330   7.755 -0.3182 -0.2930 -0.2341
  674MOL0     H90971   9.666   6.268   7.623  0.6173  0.3775  0.7806
  674MOL0     H90972   9.858   6.225   7.216 -1.2299  2.9034 -1.8747
  674MOL0     H90973  10.027   6.187   7.066  0.1945 -1.7373  1.7112
  674MOL0     H90974  11.371   5.976   6.441  0.8842 -4.1521 -0.2095
  674MOL0     H90975  11.214   6.149   6.498 -0.0646 -0.9705 -4.3491
  674MOL0     H90976  10.631   6.205   6.483  1.0440  0.9586 -2.2739
  674MOL0     H90977  10.485   6.398   6.494 -1.1532  0.5372  1.2329
  674MOL0     H90978  10.375   6.581   6.632  3.5725 -1.7739 -0.0118
  674MOL0     H90979  10.441   6.645   6.484 -0.3041 -2.0280 -0.0084
  674MOL0     H90980  10.409   6.804   6.733  3.9152 -0.4280 -0.7149
  674MOL0     H90981  10.302   6.817   6.593 -0.9456 -2.3011  1.2768
  674MOL0     H90982  10.587   6.916   6.603 -0.0494 -0.3798 -0.9836
  674MOL0     H90983  10.435   7.009   6.616 -1.1258 -0.1587 -0.9260
  674MOL0     H90984  10.557   6.974   6.391  0.1597 -0.0617  2.4971
  674MOL0     H90985  10.465   6.832   6.379 -0.1226 -1.2988  0.7040
  674MOL0     H90986  10.177   7.143   6.320  2.8377  2.9479 -2.1221
  674MOL0     H90987  10.788   6.569   6.770  2.4768 -0.2029  0.4995
  674MOL0     H90988  11.032   6.354   6.705 -0.3910  3.7616 -0.1830
  674MOL0     H90989  10.994   6.460   6.815 -0.7606 -0.2476 -1.3085
  674MOL0     H90990  10.939   6.286   6.843 -1.2385 -0.7370  0.4577
  675MOL0     O90991   5.654   8.180   4.406 -0.6740 -0.2559 -1.1318
  675MOL0     C90992   5.552   8.202   4.350 -0.6523 -0.2079  0.3935
  675MOL0     O90993   5.524   8.305   4.271  0.3625 -0.5313 -0.3799
  675MOL0     C90994   5.606   8.419   4.280  1.2794 -0.3483 -0.1443
  675MOL0     C90995   5.548   8.533   4.349 -0.5017 -0.3539 -0.4665
  675MOL0     C90996   5.630   8.641   4.377  0.5278  0.4888  0.8571
  675MOL0     C90997   5.753   8.653   4.310  0.1702 -0.2127  0.2366
  675MOL0     O90998   5.851   8.733   4.356 -0.2801  0.2788  0.0843
  675MOL0     C90999   5.827   8.865   4.393 -0.7878  0.6484  0.4305
  675MOL0     C91000   5.857   8.881   4.538 -0.0135  0.6594 -0.4660
  675MOL0     C91001   5.805   9.006   4.606  1.1336 -0.3452 -0.3448
  675MOL0     C91002   5.851   9.140   4.560  0.4127 -0.3246  0.8669
  675MOL0     C91003   5.999   9.155   4.568  0.2146  0.1669 -0.6134
  675MOL0     C91004   6.030   9.296   4.569 -0.3222  0.0418  0.7694
  675MOL0     C91005   6.174   9.311   4.513  0.1621  0.9808 -0.4340
  675MOL0     C91006   6.182   9.285   4.353 -0.3776  0.2961 -0.6926
  675MOL0     N91007   6.294   9.366   4.304  0.6452  0.8290 -0.2927
  675MOL0     C91008   6.410   9.325   4.249 -0.5070 -0.1505  0.0527
  675MOL0     C91009   6.477   9.433   4.210 -0.1190 -0.3925  0.5797
  675MOL0     C91010   6.615   9.464   4.140  0.0088  0.7254 -0.0601
  675MOL0     C91011   6.706   9.352   4.126  0.7588  0.1370  0.2858
  675MOL0     C91012   6.838   9.393   4.061 -0.2414 -0.4215  0.4481
  675MOL0     C91013   6.892   9.295   3.961 -0.7302  0.5492  0.4241
  675MOL0     O91014   6.927   9.169   4.031 -0.5411 -0.9364  0.6852
  675MOL0     C91015   7.043   9.117   3.987 -0.2762  0.2187 -0.2987
  675MOL0     C91016   7.169   9.189   3.982  0.2700 -0.2714 -0.3560
  675MOL0     C91017   7.288   9.134   3.937 -0.2116  0.0638 -0.0948
  675MOL0     C91018   7.282   9.005   3.888  0.0878  0.2078 -0.3581
  675MOL0     C91019   7.396   8.944   3.825  0.1156  0.1227 -0.2978
  675MOL0     O91020   7.508   9.028   3.809  0.9291 -0.4601  0.8012
  675MOL0     C91021   7.621   8.979   3.744 -0.6165  0.4291  0.7726
  675MOL0     C91022   7.648   9.009   3.606  0.7615  0.3673  0.0261
  675MOL0     C91023   7.770   8.972   3.546  0.7297  0.7134  0.0909
  675MOL0     C91024   7.872   8.892   3.609  0.5119  0.4882  0.1977
  675MOL0     O91025   7.998   8.854   3.560  0.3651 -0.5693  0.9826
  675MOL0     C91026   8.037   8.916   3.438 -0.7652  0.2890 -0.1723
  675MOL0     C91027   8.191   8.884   3.414  0.1761  0.1041 -1.1130
  675MOL0     C91028   8.271   8.968   3.318  0.1952  0.3568 -0.0152
  675MOL0     C91029   8.396   8.897   3.266  0.1708  0.0702 -0.2784
  675MOL0     C91030   8.449   8.963   3.142 -0.3905  0.2650  0.5861
  675MOL0     C91031   8.592   8.956   3.099 -0.8226  0.0765 -0.3923
  675MOL0     C91032   8.620   9.013   2.963  0.0526 -0.6623  1.1515
  675MOL0     C91033   8.777   9.043   2.944  0.1522 -1.4064  0.6625
  675MOL0    Cl91034   8.819   9.185   3.052 -0.1290  0.1833 -0.5494
  675MOL0     C91035   7.833   8.842   3.739 -0.0792 -0.2256 -1.0129
  675MOL0     C91036   7.709   8.882   3.797 -0.4380 -0.3715  0.1552
  675MOL0     O91037   7.391   8.827   3.790 -0.3992 -0.0249  0.0631
  675MOL0     C91038   7.170   8.930   3.901  0.5068 -0.2762 -0.2937
  675MOL0     C91039   7.049   8.979   3.950 -0.6519 -0.1892  0.7563
  675MOL0     N91040   6.402   9.544   4.244 -0.0960 -0.2251 -0.9820
  675MOL0     N91041   6.293   9.504   4.304 -0.1457  0.1996 -0.6309
  675MOL0     C91042   5.803   8.547   4.226  0.3453  0.3334 -0.7035
  675MOL0     C91043   5.734   8.429   4.219  0.0151  0.3762  0.6618
  675MOL0     C91044   5.458   8.091   4.335  0.5156 -1.2735  0.3071
  675MOL0     C91045   5.379   8.071   4.216  0.0563 -0.0380  0.6210
  675MOL0     C91046   5.286   7.962   4.201  0.0898  1.2328  0.2896
  675MOL0     C91047   5.269   7.874   4.308  0.4026  1.9029 -0.0236
  675MOL0     O91048   5.176   7.776   4.302 -0.0709  0.6303 -0.0400
  675MOL0     C91049   5.048   7.807   4.370 -0.4137 -0.9396 -0.1385
  675MOL0     C91050   5.002   7.730   4.489 -0.7888  0.8487  0.6571
  675MOL0     C91051   4.842   7.730   4.498 -0.0548  0.7092  0.8659
  675MOL0     C91052   4.768   7.865   4.522 -0.4420  0.3540 -1.6072
  675MOL0     C91053   4.765   7.961   4.417  0.6131 -0.1190  0.2235
  675MOL0     C91054   4.762   8.032   4.317 -0.3878  0.6198  0.1243
  675MOL0     C91055   5.365   7.866   4.398 -0.5797  0.7311  0.4449
  675MOL0     C91056   5.453   7.973   4.425 -0.3474  0.4936  0.1067
  675MOL0     C91057   5.542   7.954   4.542  0.3934  0.1419 -0.3008
  675MOL0     H91058   5.446   8.528   4.386 -0.7925 -0.8817 -1.3066
  675MOL0     H91059   5.597   8.714   4.450 -0.0611  0.3347  0.7500
  675MOL0     H91060   5.901   8.927   4.342  0.6635 -1.4082 -0.1110
  675MOL0     H91061   5.729   8.899   4.360 -0.7430  0.7985  0.4523
  675MOL0     H91062   5.966   8.886   4.548  0.0152  1.3401 -1.0725
  675MOL0     H91063   5.824   8.787   4.583  3.9199 -2.2395 -2.9660
  675MOL0     H91064   5.838   8.999   4.710  0.1272  2.8388  0.2692
  675MOL0     H91065   5.696   9.004   4.614  1.2240 -1.3400  1.1076
  675MOL0     H91066   5.827   9.161   4.456  0.0405 -0.5168  0.9111
  675MOL0     H91067   5.785   9.214   4.605  1.4046  2.0354 -1.2865
  675MOL0     H91068   6.031   9.101   4.658 -0.7960 -4.2756 -2.6541
  675MOL0     H91069   6.047   9.107   4.482 -1.8232 -2.4363 -0.4030
  675MOL0     H91070   5.966   9.360   4.508  0.1653  0.6981  0.9359
  675MOL0     H91071   6.026   9.333   4.672  0.8798 -1.7540  1.5291
  675MOL0     H91072   6.238   9.243   4.569  0.1445  2.1194  1.0153
  675MOL0     H91073   6.187   9.415   4.543 -2.1687  1.0623  0.4755
  675MOL0     H91074   6.183   9.181   4.318  3.2054  0.0435 -0.2507
  675MOL0     H91075   6.085   9.319   4.316 -0.0655 -0.0358 -1.8445
  675MOL0     H91076   6.448   9.225   4.232  2.0301  0.6595  0.5270
  675MOL0     H91077   6.586   9.506   4.043 -1.8145 -0.1950  0.0405
  675MOL0     H91078   6.666   9.534   4.206 -0.0231  0.4035  0.3058
  675MOL0     H91079   6.726   9.313   4.226  0.4673  0.3728  0.4374
  675MOL0     H91080   6.656   9.270   4.075 -2.3457  2.5517 -0.8710
  675MOL0     H91081   6.905   9.414   4.145  0.2574  0.6319 -0.1905
  675MOL0     H91082   6.815   9.478   3.996  0.0453 -0.2850  0.5237
  675MOL0     H91083   6.978   9.346   3.916 -1.2229 -0.7499 -2.2012
  675MOL0     H91084   6.825   9.270   3.878 -1.3777  0.3312  1.0140
  675MOL0     H91085   7.172   9.287   4.029 -2.9231  0.1444 -0.7863
  675MOL0     H91086   7.383   9.183   3.957 -1.1472  1.0073  2.4662
  675MOL0     H91087   7.578   9.064   3.544 -1.4447 -2.0927  0.1739
  675MOL0     H91088   7.795   9.019   3.452 -1.9711  1.9471 -0.1018
  675MOL0     H91089   7.973   8.893   3.352  0.6211  0.1749 -1.2057
  675MOL0     H91090   8.030   9.023   3.461  0.1921  0.8535 -2.2217
  675MOL0     H91091   8.239   8.903   3.511 -2.5535 -1.1109  0.6136
  675MOL0     H91092   8.209   8.777   3.402  1.7814  0.0574  1.0899
  675MOL0     H91093   8.200   8.963   3.235  0.3556 -1.0748 -0.0788
  675MOL0     H91094   8.309   9.065   3.353  3.7126 -0.4872 -1.0819
  675MOL0     H91095   8.382   8.789   3.249  1.0488 -0.4156  1.8069
  675MOL0     H91096   8.473   8.904   3.343 -1.2362 -0.6125  1.2450
  675MOL0     H91097   8.429   9.070   3.153  1.9757  0.6271  1.9512
  675MOL0     H91098   8.396   8.915   3.059 -1.5927 -0.0520  1.5170
  675MOL0     H91099   8.650   9.012   3.172  2.2038 -2.7309 -0.4170
  675MOL0     H91100   8.634   8.855   3.106  1.3915  1.0420  1.1657
  675MOL0     H91101   8.563   9.103   2.940  0.3933 -0.6155  0.4316
  675MOL0     H91102   8.596   8.934   2.890 -1.0777  0.4434  0.2911
  675MOL0     H91103   8.835   8.952   2.962  4.3211  0.7805 -0.5851
  675MOL0     H91104   8.792   9.064   2.838  0.0558  1.9197  1.2078
  675MOL0     H91105   7.898   8.771   3.789 -1.2282 -0.8226 -0.3155
  675MOL0     H91106   7.701   8.842   3.898  0.8355 -0.6015  0.1852
  675MOL0     H91107   7.176   8.825   3.872  0.8681 -1.0811  2.3759
  675MOL0     H91108   6.967   8.908   3.945  1.3949 -2.6393 -0.3160
  675MOL0     H91109   5.907   8.540   4.197  1.3228  1.1698  2.2746
  675MOL0     H91110   5.787   8.357   4.159  3.7419  1.7660  2.0338
  675MOL0     H91111   5.368   8.150   4.143 -2.3731  0.8172  1.8128
  675MOL0     H91112   5.215   7.948   4.120  1.9103  0.1978 -1.2096
  675MOL0     H91113   4.974   7.800   4.290 -1.5341  4.5307  0.0035
  675MOL0     H91114   5.042   7.911   4.404  2.9596 -0.7614  0.3246
  675MOL0     H91115   5.045   7.769   4.582  0.7744 -4.7873  2.7286
  675MOL0     H91116   5.027   7.624   4.480 -2.8876  0.4954 -3.0204
  675MOL0     H91117   4.822   7.660   4.579 -1.5253 -1.6052 -1.3359
  675MOL0     H91118   4.805   7.686   4.405 -0.3114  2.7687 -0.0804
  675MOL0     H91119   4.665   7.850   4.557 -1.3583  4.4376 -2.0758
  675MOL0     H91120   4.825   7.915   4.601  1.5550  0.7234 -3.2005
  675MOL0     H91121   4.776   8.093   4.229  0.4705 -1.6532 -1.3988
  675MOL0     H91122   5.373   7.779   4.463 -0.9108 -0.8199 -1.5088
  675MOL0     H91123   5.537   8.034   4.616  4.1174  1.6532 -1.4480
  675MOL0     H91124   5.518   7.862   4.595  3.7025  0.8261  2.7394
  675MOL0     H91125   5.643   7.946   4.502  1.1153 -0.1710  1.5202
  676MOL0     O91126   5.737   7.240   6.290 -0.2664 -0.9490 -0.0768
  676MOL0     C91127   5.722   7.119   6.287 -0.2340 -0.2806 -0.0734
  676MOL0     O91128   5.806   7.038   6.214  0.2077  0.9671  0.0703
  676MOL0     C91129   5.850   7.088   6.095 -0.9330 -0.3302 -0.2558
  676MOL0     C91130   5.841   7.006   5.980  0.0912 -0.0761  0.1767
  676MOL0     C91131   5.903   7.035   5.861 -0.0844  0.0503 -0.6951
  676MOL0     C91132   5.984   7.148   5.848  0.9444 -0.2513 -0.3022
  676MOL0     O91133   6.042   7.186   5.725 -0.2633  0.9029 -0.9140
  676MOL0     C91134   6.174   7.134   5.691  0.8689  0.1613  0.8406
  676MOL0     C91135   6.211   7.207   5.557 -0.0701  0.4306 -1.2601
  676MOL0     C91136   6.357   7.200   5.531 -0.4651 -0.2921 -0.5926
  676MOL0     C91137   6.397   7.213   5.373 -0.3374  0.5990 -0.8119
  676MOL0     C91138   6.542   7.172   5.330  0.0603 -0.6780 -0.7393
  676MOL0     C91139   6.564   7.022   5.318 -0.5491 -0.2773  0.3170
  676MOL0     C91140   6.481   6.963   5.208 -0.2437  0.4328 -0.0792
  676MOL0     C91141   6.520   6.821   5.172  0.4455 -0.2042 -0.1915
  676MOL0     N91142   6.492   6.782   5.034  0.1329 -0.4255 -0.6556
  676MOL0     C91143   6.547   6.835   4.924  0.2960  0.0581  0.0918
  676MOL0     C91144   6.471   6.789   4.819 -0.9136 -0.2049  0.5700
  676MOL0     C91145   6.490   6.814   4.674 -0.7676  0.4290  0.0504
  676MOL0     C91146   6.605   6.733   4.607  0.2698 -0.9878  0.5211
  676MOL0     C91147   6.585   6.583   4.622  0.0088 -1.0528 -0.7268
  676MOL0     C91148   6.701   6.495   4.572 -0.0507 -1.0124 -0.4206
  676MOL0     O91149   6.714   6.518   4.432  0.5274 -0.4738  0.9664
  676MOL0     C91150   6.842   6.527   4.370  0.2385  0.2788  0.1386
  676MOL0     C91151   6.956   6.590   4.425  0.2763 -0.7255  0.0952
  676MOL0     C91152   7.074   6.580   4.347 -0.1840 -0.9734  0.2429
  676MOL0     C91153   7.078   6.517   4.225 -0.5008 -0.1096  0.1366
  676MOL0     C91154   7.201   6.517   4.146  1.0173  0.6413 -0.3651
  676MOL0     O91155   7.190   6.484   4.012 -0.0585 -0.1242 -0.0758
  676MOL0     C91156   7.300   6.472   3.937 -0.2383 -0.2697 -0.6174
  676MOL0     C91157   7.348   6.589   3.870 -0.0456  0.0149 -0.0030
  676MOL0     C91158   7.463   6.572   3.792 -0.9796 -0.6781  0.3330
  676MOL0     C91159   7.530   6.453   3.775  0.6109  0.2033  0.8507
  676MOL0     O91160   7.640   6.455   3.689 -0.2504 -0.2307  0.4918
  676MOL0     C91161   7.603   6.481   3.556  0.2614  0.4668 -0.0132
  676MOL0     C91162   7.713   6.448   3.463 -0.7595  0.2127  0.5844
  676MOL0     C91163   7.852   6.511   3.511  1.0463 -0.4722  0.2743
  676MOL0     C91164   7.952   6.462   3.411  0.0275  0.2784  0.0281
  676MOL0     C91165   8.086   6.545   3.440 -0.8212  0.2551  1.0152
  676MOL0     C91166   8.195   6.510   3.337  0.4001  0.7134 -0.1542
  676MOL0     C91167   8.244   6.363   3.372  0.3296 -0.1685  0.6895
  676MOL0     C91168   8.361   6.327   3.282  0.9139  0.5981 -0.1127
  676MOL0    Cl91169   8.331   6.323   3.107  0.5516  0.3753 -0.4422
  676MOL0     C91170   7.476   6.336   3.833  0.7463  0.5566 -0.8622
  676MOL0     C91171   7.360   6.351   3.915 -0.4110 -0.8638 -0.5023
  676MOL0     O91172   7.304   6.542   4.200 -1.1202 -0.5350  0.0125
  676MOL0     C91173   6.969   6.439   4.191 -0.5772 -0.6151 -0.5867
  676MOL0     C91174   6.852   6.454   4.252 -0.7242  0.6588  0.4448
  676MOL0     N91175   6.381   6.703   4.876  0.0554  0.5319  0.2035
  676MOL0     N91176   6.396   6.690   5.006  0.5326 -0.3944  0.0017
  676MOL0     C91177   6.001   7.233   5.954  0.6531 -0.2924 -0.3705
  676MOL0     C91178   5.941   7.204   6.083  0.4463  0.0598 -0.3286
  676MOL0     C91179   5.625   7.060   6.382 -0.6872 -0.0497  0.7884
  676MOL0     C91180   5.599   7.123   6.501  0.0208  0.5660  0.1394
  676MOL0     C91181   5.516   7.070   6.596  0.0983  0.1563 -0.1128
  676MOL0     C91182   5.444   6.955   6.581  0.4463 -0.3114  0.2183
  676MOL0     O91183   5.354   6.916   6.678  0.0004  0.7801 -0.1741
  676MOL0     C91184   5.274   6.798   6.654  0.1841 -0.0692  0.3827
  676MOL0     C91185   5.217   6.751   6.783 -0.5654 -0.2913 -0.5112
  676MOL0     C91186   5.312   6.729   6.897 -0.6187  0.5987 -0.2058
  676MOL0     C91187   5.431   6.642   6.856 -0.1768  0.0809 -0.2818
  676MOL0     C91188   5.388   6.515   6.802 -1.1501 -0.9062 -0.2564
  676MOL0     C91189   5.391   6.408   6.748 -0.2207  0.7302 -0.1515
  676MOL0     C91190   5.470   6.886   6.456  0.9547 -0.2018  0.9940
  676MOL0     C91191   5.549   6.943   6.352 -0.3417 -0.2452 -0.3063
  676MOL0     C91192   5.558   6.869   6.221  0.6847  1.0785 -0.5417
  676MOL0     H91193   5.793   6.909   5.983  1.8955 -1.0025  1.7612
  676MOL0     H91194   5.880   6.975   5.773 -1.2018 -1.1512  0.3534
  676MOL0     H91195   6.241   7.163   5.773  1.9404  0.5913 -0.1627
  676MOL0     H91196   6.172   7.026   5.675 -2.5076  0.5542 -2.9682
  676MOL0     H91197   6.186   7.313   5.574  0.5077  0.6465 -1.7317
  676MOL0     H91198   6.158   7.148   5.481  0.3912 -3.8839  1.4442
  676MOL0     H91199   6.391   7.103   5.568  0.9594  1.0673  1.9617
  676MOL0     H91200   6.417   7.271   5.590  0.9312 -0.4851 -1.7377
  676MOL0     H91201   6.313   7.162   5.325 -1.2605  0.0378  1.2735
  676MOL0     H91202   6.373   7.316   5.345 -3.2415  0.7592  1.6528
  676MOL0     H91203   6.549   7.212   5.229 -0.6602 -0.5445 -0.7367
  676MOL0     H91204   6.619   7.220   5.391  0.6260  1.9274 -3.2758
  676MOL0     H91205   6.669   7.000   5.297 -0.5727  0.6503 -0.8822
  676MOL0     H91206   6.541   6.978   5.416 -0.7412  1.2688  1.0023
  676MOL0     H91207   6.490   7.020   5.115 -1.0095 -0.5176 -0.7637
  676MOL0     H91208   6.375   6.956   5.237 -0.7397  0.4224 -1.7601
  676MOL0     H91209   6.628   6.808   5.183  0.2147 -3.3862 -0.8123
  676MOL0     H91210   6.474   6.755   5.246 -3.2427  0.3376 -1.7736
  676MOL0     H91211   6.640   6.892   4.922  1.2902 -1.4676  0.9650
  676MOL0     H91212   6.404   6.773   4.620 -1.8877  1.2798  1.1508
  676MOL0     H91213   6.493   6.922   4.659  0.9295  0.3348 -0.5592
  676MOL0     H91214   6.610   6.755   4.500 -0.1157 -1.0673  0.4864
  676MOL0     H91215   6.702   6.767   4.644  0.8900 -1.1898 -0.8715
  676MOL0     H91216   6.494   6.553   4.570  0.2382 -0.0526 -1.7435
  676MOL0     H91217   6.584   6.561   4.729  0.7894  0.7376 -0.3045
  676MOL0     H91218   6.675   6.390   4.588 -2.5548 -0.5517 -1.0714
  676MOL0     H91219   6.789   6.523   4.630 -1.0373  2.5439 -0.4093
  676MOL0     H91220   6.931   6.647   4.514 -0.9292  0.2020 -0.8043
  676MOL0     H91221   7.160   6.637   4.382  0.2911 -2.0536  0.8890
  676MOL0     H91222   7.307   6.687   3.891  0.7504  0.2600  0.4489
  676MOL0     H91223   7.491   6.665   3.744  0.1780 -0.2457  1.7365
  676MOL0     H91224   7.525   6.411   3.527  0.3146 -0.8509  2.7539
  676MOL0     H91225   7.585   6.589   3.553 -1.4241  0.3866  3.2430
  676MOL0     H91226   7.725   6.339   3.474 -4.2232 -0.4264 -0.7022
  676MOL0     H91227   7.685   6.473   3.360  1.0701  0.2042  0.0533
  676MOL0     H91228   7.856   6.619   3.525 -2.1293 -0.3541  1.1708
  676MOL0     H91229   7.878   6.456   3.602 -3.3532 -2.7047  0.4905
  676MOL0     H91230   7.914   6.482   3.311  1.8014  2.4824 -0.3048
  676MOL0     H91231   7.955   6.353   3.410 -0.9866 -0.1320 -6.7344
  676MOL0     H91232   8.140   6.516   3.531  1.1438 -2.5003 -0.8797
  676MOL0     H91233   8.076   6.654   3.434  3.0471  0.6777 -2.3881
  676MOL0     H91234   8.157   6.515   3.234  2.0137  1.1823 -0.7530
  676MOL0     H91235   8.277   6.581   3.338 -2.1954  3.9500  0.9417
  676MOL0     H91236   8.154   6.301   3.362 -0.3697  1.0847 -1.1806
  676MOL0     H91237   8.276   6.362   3.477  1.2976 -1.1946  0.4108
  676MOL0     H91238   8.426   6.415   3.289 -1.5993  2.5697 -0.4594
  676MOL0     H91239   8.407   6.234   3.317 -0.4177  0.4030  1.1948
  676MOL0     H91240   7.520   6.238   3.818 -0.7255 -0.3593  0.3940
  676MOL0     H91241   7.323   6.261   3.961  1.1257 -0.5185  1.5782
  676MOL0     H91242   6.975   6.367   4.110 -1.0753 -2.9165  1.3337
  676MOL0     H91243   6.754   6.431   4.209 -1.2054  0.4223  1.6346
  676MOL0     H91244   6.074   7.313   5.950 -0.5463  0.7795 -3.3581
  676MOL0     H91245   5.953   7.264   6.173 -1.4366 -1.3731  0.9352
  676MOL0     H91246   5.650   7.217   6.520 -1.6924  1.4493  0.5765
  676MOL0     H91247   5.496   7.127   6.686  1.0336  0.0462  0.1816
  676MOL0     H91248   5.313   6.710   6.602  2.0545  0.9207  0.0286
  676MOL0     H91249   5.184   6.832   6.601  0.8269  1.9020  0.4643
  676MOL0     H91250   5.151   6.665   6.766 -1.6562  0.7996 -2.0154
  676MOL0     H91251   5.152   6.832   6.816  3.8485  2.2509  3.0334
  676MOL0     H91252   5.273   6.673   6.983  0.4373  0.4841  0.2073
  676MOL0     H91253   5.355   6.822   6.933  0.9263 -0.2844  0.3432
  676MOL0     H91254   5.490   6.690   6.777 -4.4712  2.3825 -2.4314
  676MOL0     H91255   5.496   6.622   6.941  3.3733 -0.5673 -2.9162
  676MOL0     H91256   5.397   6.315   6.694  2.5611  0.8408 -0.2066
  676MOL0     H91257   5.416   6.795   6.432 -1.0861  0.0631  4.0006
  676MOL0     H91258   5.509   6.924   6.140  0.7290 -2.2246 -2.9960
  676MOL0     H91259   5.657   6.840   6.187  0.0687 -1.0679 -0.6797
  676MOL0     H91260   5.503   6.775   6.218 -0.9684  2.0008 -0.5008
  677MOL0     O91261   9.793   2.962   3.969 -0.4475 -0.9190 -0.3966
  677MOL0     C91262   9.834   2.888   4.058  0.4408 -0.7794  0.8398
  677MOL0     O91263   9.882   2.765   4.036 -0.0577  0.0087  0.4679
  677MOL0     C91264   9.889   2.727   3.907  0.0481  0.0761  0.1414
  677MOL0     C91265   9.780   2.666   3.847  0.0817 -0.5461  0.5406
  677MOL0     C91266   9.784   2.626   3.711 -0.1775  0.3319 -0.3193
  677MOL0     C91267   9.897   2.665   3.630 -0.0744 -0.1674 -0.1086
  677MOL0     O91268   9.899   2.625   3.500  0.3420 -0.3676  0.4208
  677MOL0     C91269   9.955   2.722   3.409  0.7855  0.0007  0.2538
  677MOL0     C91270   9.953   2.687   3.261  1.7474 -0.4160 -0.4101
  677MOL0     C91271   9.991   2.547   3.238 -0.6903  0.5380  0.5970
  677MOL0     C91272  10.018   2.520   3.090  1.2369 -1.3203  0.1031
  677MOL0     C91273   9.884   2.519   3.002 -0.1440 -0.4980  0.1913
  677MOL0     C91274   9.901   2.475   2.858 -0.0047 -0.4675 -0.4465
  677MOL0     C91275   9.775   2.463   2.769 -0.4307 -0.3598  0.0923
  677MOL0     C91276   9.677   2.349   2.818  1.0498  0.2835  0.5680
  677MOL0     N91277   9.594   2.324   2.695  0.2991 -0.1866 -0.7501
  677MOL0     C91278   9.616   2.214   2.608 -1.1684 -0.4369  1.1336
  677MOL0     C91279   9.513   2.225   2.517 -0.4539  0.1960 -0.3315
  677MOL0     C91280   9.469   2.123   2.407 -0.2852  0.9345 -0.5763
  677MOL0     C91281   9.499   2.171   2.273 -0.5398 -0.5669 -0.1169
  677MOL0     C91282   9.494   2.068   2.161  0.0825  0.6870  0.0838
  677MOL0     C91283   9.370   1.975   2.154  0.2509 -0.4215  0.1711
  677MOL0     O91284   9.257   2.063   2.129 -0.3122 -0.1108 -0.3549
  677MOL0     C91285   9.134   2.021   2.173  1.2523 -0.2274 -0.5627
  677MOL0     C91286   9.106   1.920   2.265  0.6897  0.4088  0.7230
  677MOL0     C91287   8.976   1.887   2.311  0.1293 -0.1550 -0.9654
  677MOL0     C91288   8.867   1.967   2.271  0.2191  0.9890 -0.3819
  677MOL0     C91289   8.731   1.930   2.321 -0.7236 -0.6819  0.3606
  677MOL0     O91290   8.625   1.976   2.249 -0.3584 -0.3071  0.9431
  677MOL0     C91291   8.496   1.938   2.299  0.6973  0.1450  0.1860
  677MOL0     C91292   8.458   1.808   2.302  1.1887 -0.0106  0.4345
  677MOL0     C91293   8.329   1.774   2.337  0.3713 -0.5171 -1.4276
  677MOL0     C91294   8.239   1.869   2.384  0.7436 -0.3381 -0.1467
  677MOL0     O91295   8.118   1.829   2.433 -0.5440  0.7210  0.1046
  677MOL0     C91296   8.086   1.860   2.569  0.0492 -0.1471 -0.8642
  677MOL0     C91297   7.980   1.765   2.616 -0.0866  0.4469 -0.2621
  677MOL0     C91298   8.037   1.640   2.679  1.1089  0.3945  0.1888
  677MOL0     C91299   7.950   1.514   2.645  0.4408  0.4204  0.5808
  677MOL0     C91300   7.801   1.531   2.697  0.1395  0.5659  0.5030
  677MOL0     C91301   7.707   1.425   2.654  0.0083  0.0514  0.5956
  677MOL0     C91302   7.743   1.281   2.697  0.5548  0.8294  0.4402
  677MOL0     C91303   7.635   1.187   2.633  0.0331 -0.1202  0.2865
  677MOL0    Cl91304   7.654   1.019   2.726 -0.3046  0.1125  0.0460
  677MOL0     C91305   8.285   2.001   2.390  2.0488 -0.5169  1.3446
  677MOL0     C91306   8.409   2.034   2.346  0.3324  0.4007  0.4026
  677MOL0     O91307   8.715   1.868   2.427  0.2280 -0.0075 -0.5632
  677MOL0     C91308   8.896   2.074   2.187  0.0877  0.4126  0.3348
  677MOL0     C91309   9.017   2.094   2.129 -0.3337 -0.0519 -1.2692
  677MOL0     N91310   9.448   2.341   2.542  0.1293  0.0353 -0.5243
  677MOL0     N91311   9.488   2.400   2.653 -0.3505  0.4123  0.2906
  677MOL0     C91312  10.006   2.734   3.691  0.1805 -0.0416  0.7216
  677MOL0     C91313   9.997   2.760   3.830  0.7046  0.0541 -0.4882
  677MOL0     C91314   9.870   2.943   4.192  0.5740  0.1836  0.7511
  677MOL0     C91315   9.812   2.873   4.299  0.3987 -0.4839  1.3442
  677MOL0     C91316   9.829   2.918   4.431 -0.2045  0.6065 -0.6107
  677MOL0     C91317   9.909   3.026   4.455 -0.9578  0.5599  0.4873
  677MOL0     O91318   9.935   3.089   4.578  0.0822  0.1471  0.4061
  677MOL0     C91319   9.890   3.037   4.708 -0.7817  0.5861  0.2907
  677MOL0     C91320   9.748   3.068   4.724  0.5522 -0.7703 -0.7217
  677MOL0     C91321   9.668   2.987   4.831 -0.1648 -0.1922 -1.0997
  677MOL0     C91322   9.649   2.830   4.815 -0.2526  1.1209  1.1868
  677MOL0     C91323   9.585   2.779   4.701  0.2380  1.4896 -1.5262
  677MOL0     C91324   9.517   2.727   4.616 -0.2296 -0.2409  0.4212
  677MOL0     C91325   9.966   3.103   4.347  0.3650  0.2902  0.9260
  677MOL0     C91326   9.946   3.059   4.211 -0.0491  0.8024 -0.4911
  677MOL0     C91327  10.013   3.142   4.098  0.6175  0.6329 -0.1970
  677MOL0     H91328   9.692   2.642   3.905 -0.8452 -1.8036 -1.3010
  677MOL0     H91329   9.711   2.563   3.662  0.7841 -0.1743 -1.1149
  677MOL0     H91330   9.908   2.821   3.414 -0.9806 -0.5906 -2.7169
  677MOL0     H91331  10.061   2.720   3.436  1.1231  1.0714 -0.8847
  677MOL0     H91332  10.025   2.755   3.216 -0.6756  3.2441  0.7870
  677MOL0     H91333   9.852   2.694   3.218  1.0888 -1.1847  0.9150
  677MOL0     H91334   9.917   2.470   3.263 -0.8748  0.2749 -0.6857
  677MOL0     H91335  10.090   2.529   3.280  0.3784 -1.4452 -2.3635
  677MOL0     H91336  10.090   2.593   3.050  0.6906 -0.2146  1.0723
  677MOL0     H91337  10.060   2.420   3.079  1.7689 -0.9451 -1.5702
  677MOL0     H91338   9.818   2.445   3.047  1.0615 -0.1703  2.6397
  677MOL0     H91339   9.831   2.615   2.996 -1.8117 -1.3436  0.8431
  677MOL0     H91340   9.957   2.550   2.801 -3.2352  1.4465 -1.3320
  677MOL0     H91341   9.957   2.380   2.858 -0.1863 -0.6596  2.3012
  677MOL0     H91342   9.811   2.444   2.668  0.6247  1.0153  0.1701
  677MOL0     H91343   9.736   2.565   2.768  1.5940  0.4939  0.8678
  677MOL0     H91344   9.722   2.252   2.840  2.4545  0.6476 -0.5343
  677MOL0     H91345   9.612   2.378   2.901  0.0217 -1.1518  0.3109
  677MOL0     H91346   9.701   2.146   2.609 -0.7299 -0.0719 -1.9716
  677MOL0     H91347   9.527   2.030   2.418 -1.2356  0.0645 -2.4105
  677MOL0     H91348   9.366   2.087   2.410  0.4254 -1.6623 -2.6981
  677MOL0     H91349   9.434   2.259   2.264  1.3392  1.1661  1.9452
  677MOL0     H91350   9.601   2.206   2.292  0.2360 -1.5344 -2.2472
  677MOL0     H91351   9.575   2.001   2.190 -2.9908 -2.0004  3.4169
  677MOL0     H91352   9.521   2.113   2.065 -1.6397 -1.4872 -1.5276
  677MOL0     H91353   9.356   1.927   2.251  1.9778 -0.7379  0.2997
  677MOL0     H91354   9.371   1.904   2.070  0.9201 -0.3348  0.0961
  677MOL0     H91355   9.177   1.843   2.297 -1.9964 -2.9236 -0.7209
  677MOL0     H91356   8.950   1.790   2.354 -1.2467 -1.1118 -3.6924
  677MOL0     H91357   8.533   1.741   2.261 -0.1531 -2.3130  1.5611
  677MOL0     H91358   8.306   1.668   2.337  1.8692 -0.8829 -0.2358
  677MOL0     H91359   8.173   1.869   2.634 -2.5846 -0.2180  2.9681
  677MOL0     H91360   8.044   1.960   2.569 -0.0485 -0.1700 -2.3285
  677MOL0     H91361   7.915   1.823   2.682 -1.4763 -0.1255 -1.0845
  677MOL0     H91362   7.907   1.731   2.542 -0.7346 -1.4751  1.1810
  677MOL0     H91363   8.141   1.623   2.647  2.8399  3.7848  3.2699
  677MOL0     H91364   8.043   1.662   2.786  1.3472 -1.5436  0.6199
  677MOL0     H91365   7.990   1.426   2.696 -1.7973 -0.0176  1.7014
  677MOL0     H91366   7.949   1.492   2.538 -1.3772 -1.3577  0.9094
  677MOL0     H91367   7.775   1.631   2.661  2.6121  1.3151  0.6198
  677MOL0     H91368   7.798   1.530   2.807 -0.0213  0.2370  0.4979
  677MOL0     H91369   7.609   1.454   2.693  0.4868  3.0547 -0.1890
  677MOL0     H91370   7.701   1.431   2.545 -2.3113  4.3310  0.7263
  677MOL0     H91371   7.738   1.277   2.807  1.7576 -1.6759  0.4916
  677MOL0     H91372   7.844   1.260   2.659 -0.7561 -1.5366 -2.1226
  677MOL0     H91373   7.532   1.224   2.641 -0.7070 -2.1819  0.8919
  677MOL0     H91374   7.655   1.171   2.527 -4.1628  2.5671 -1.1541
  677MOL0     H91375   8.237   2.093   2.421  1.1578  0.0233 -1.3553
  677MOL0     H91376   8.439   2.138   2.355 -0.1239  0.3733  2.8271
  677MOL0     H91377   8.820   2.148   2.163  1.2342  0.8847 -2.1594
  677MOL0     H91378   9.033   2.183   2.069 -1.1202  2.1694  1.5774
  677MOL0     H91379  10.098   2.757   3.638 -0.0174 -1.8616 -0.4898
  677MOL0     H91380  10.074   2.810   3.888  0.3884  1.0584 -0.9092
  677MOL0     H91381   9.740   2.792   4.292 -1.1191  0.9483 -0.8277
  677MOL0     H91382   9.780   2.864   4.512  1.3657  2.1081  1.4620
  677MOL0     H91383   9.945   3.086   4.789  0.3519 -1.9327  1.1804
  677MOL0     H91384   9.909   2.929   4.719  0.9587  0.7706 -0.5370
  677MOL0     H91385   9.697   3.058   4.627  2.8178  1.7705 -2.3253
  677MOL0     H91386   9.728   3.172   4.752  0.1815 -0.8484 -0.6940
  677MOL0     H91387   9.569   3.034   4.821 -0.1202  0.8073  2.1581
  677MOL0     H91388   9.705   3.020   4.928  0.2998  0.2687 -1.4256
  677MOL0     H91389   9.748   2.784   4.809  0.0971  1.9486  0.1002
  677MOL0     H91390   9.599   2.792   4.904  0.1256  0.1203  0.9868
  677MOL0     H91391   9.456   2.694   4.534  0.0196  1.9737 -0.7236
  677MOL0     H91392  10.018   3.194   4.374 -0.6011  1.7865 -1.8340
  677MOL0     H91393  10.115   3.103   4.087  0.9776  2.1922 -3.4697
  677MOL0     H91394   9.975   3.129   3.997 -0.3542  0.0611  0.2297
  677MOL0     H91395   9.994   3.246   4.123 -2.7477 -0.4631  2.6048
  678MOL0     O91396  11.127   6.113   2.480 -0.5696 -0.7549  0.1793
  678MOL0     C91397  11.016   6.140   2.527 -0.1422  0.4481 -0.1861
  678MOL0     O91398  10.995   6.234   2.626  0.0249  1.1627 -0.0087
  678MOL0     C91399  11.093   6.292   2.700  0.1208  0.7694  0.5661
  678MOL0     C91400  11.205   6.339   2.641 -1.4079 -0.0676 -0.0722
  678MOL0     C91401  11.302   6.406   2.726 -0.1086  0.2822  0.2288
  678MOL0     C91402  11.276   6.427   2.869 -0.7221  0.5210  0.5947
  678MOL0     O91403  11.368   6.483   2.956 -0.3543  0.3299  0.3332
  678MOL0     C91404  11.501   6.520   2.914 -0.7007 -0.9067 -0.5965
  678MOL0     C91405  11.583   6.582   3.034  0.2390 -0.1023 -0.1914
  678MOL0     C91406  11.707   6.495   3.069 -0.3733  0.5735  0.8606
  678MOL0     C91407  11.675   6.344   3.110 -0.4525  0.2264 -0.0788
  678MOL0     C91408  11.795   6.278   3.180 -0.2069  0.0065 -0.9222
  678MOL0     C91409  11.756   6.153   3.261  0.0957  0.5844 -0.3958
  678MOL0     C91410  11.865   6.046   3.292  0.6777  0.2794 -0.7606
  678MOL0     C91411  11.892   5.965   3.163 -0.2250 -0.1071 -0.2514
  678MOL0     N91412  11.957   5.841   3.193  0.4739  0.8113 -0.9287
  678MOL0     C91413  11.910   5.739   3.276 -0.0009  0.0518 -0.0707
  678MOL0     C91414  12.015   5.664   3.308 -0.9548 -0.0543 -0.2771
  678MOL0     C91415  12.007   5.541   3.383 -0.4015 -0.2872  0.6683
  678MOL0     C91416  12.010   5.416   3.296  0.1065 -0.6498 -0.1918
  678MOL0     C91417  12.043   5.296   3.377  0.3547 -0.9610 -0.4274
  678MOL0     C91418  11.935   5.251   3.480  0.3430  0.5219  0.4476
  678MOL0     O91419  11.938   5.331   3.594  0.0101 -0.9445 -0.4372
  678MOL0     C91420  11.828   5.355   3.672  0.5478  0.0131 -0.7436
  678MOL0     C91421  11.829   5.469   3.760  0.2645 -0.2431  0.4590
  678MOL0     C91422  11.707   5.500   3.834  0.6725 -1.0647 -0.2194
  678MOL0     C91423  11.590   5.415   3.839 -0.7656  0.1341 -0.6662
  678MOL0     C91424  11.464   5.460   3.906 -0.4321  0.6255  0.6728
  678MOL0     O91425  11.349   5.381   3.885 -0.2058  0.9030 -0.0611
  678MOL0     C91426  11.237   5.424   3.949 -0.2617 -0.6177 -0.3253
  678MOL0     C91427  11.209   5.387   4.078  0.5634  0.0863 -0.1075
  678MOL0     C91428  11.101   5.442   4.146 -1.2413 -0.3375 -0.7569
  678MOL0     C91429  11.030   5.549   4.085 -0.4260  0.5213  0.1999
  678MOL0     O91430  10.925   5.603   4.157 -0.7933  0.2041  0.1567
  678MOL0     C91431  10.816   5.659   4.081  0.1508 -0.1258  0.0028
  678MOL0     C91432  10.732   5.568   4.000  0.4487  0.5522 -1.1068
  678MOL0     C91433  10.697   5.438   4.083  1.2015  0.2682  0.5776
  678MOL0     C91434  10.572   5.368   4.030 -0.6300  1.0596 -0.5157
  678MOL0     C91435  10.542   5.231   4.089 -0.3259 -0.4754  0.4800
  678MOL0     C91436  10.408   5.189   4.010 -0.2895  0.8676 -0.4551
  678MOL0     C91437  10.344   5.080   4.084 -0.0197 -0.1563  0.1646
  678MOL0     C91438  10.230   5.022   4.009  0.3112  0.5725  0.2739
  678MOL0    Cl91439  10.279   4.935   3.870  0.1330 -0.1414  0.4182
  678MOL0     C91440  11.072   5.598   3.961  0.9551  0.8047  0.9503
  678MOL0     C91441  11.173   5.530   3.888  0.4104  0.5682  0.4495
  678MOL0     O91442  11.468   5.546   3.995 -0.3470 -0.2647 -0.4041
  678MOL0     C91443  11.600   5.301   3.761  0.6507  0.5805  0.4117
  678MOL0     C91444  11.716   5.271   3.682 -0.6597  0.3629 -0.9130
  678MOL0     N91445  12.122   5.711   3.243  0.8061  0.7255  0.3867
  678MOL0     N91446  12.092   5.818   3.176  0.9183  0.4165  0.4942
  678MOL0     C91447  11.161   6.374   2.924  0.1159 -0.9555 -0.3071
  678MOL0     C91448  11.074   6.318   2.840 -0.2721 -0.3932  0.7925
  678MOL0     C91449  10.897   6.081   2.474  1.2560  0.4805 -0.3817
  678MOL0     C91450  10.763   6.133   2.484  0.0395 -0.4957 -0.0969
  678MOL0     C91451  10.653   6.087   2.402  0.1472  0.1264 -0.2189
  678MOL0     C91452  10.667   5.973   2.332 -0.4691 -0.3095 -0.0889
  678MOL0     O91453  10.560   5.920   2.265 -0.2836 -0.0195  0.2462
  678MOL0     C91454  10.561   5.955   2.122  1.3399 -0.7649  0.4671
  678MOL0     C91455  10.424   5.907   2.061  0.3237  0.4877 -0.5271
  678MOL0     C91456  10.303   5.960   2.148  0.1444 -0.2380  0.3277
  678MOL0     C91457  10.201   6.014   2.052 -0.2236 -1.2024 -0.3638
  678MOL0     C91458  10.084   6.067   2.131 -0.4895 -0.3171  0.5172
  678MOL0     C91459   9.984   6.105   2.187  0.3604 -0.2070 -0.2938
  678MOL0     C91460  10.784   5.905   2.336  0.3949  0.0020 -0.5010
  678MOL0     C91461  10.897   5.956   2.396  1.3368 -0.4913 -0.7847
  678MOL0     C91462  11.021   5.872   2.396 -0.2860  0.9356  0.1940
  678MOL0     H91463  11.228   6.330   2.535  0.2783 -3.1313  0.4060
  678MOL0     H91464  11.389   6.455   2.685 -1.3227  2.3627 -0.0250
  678MOL0     H91465  11.559   6.433   2.879 -2.7119 -1.6680 -2.2178
  678MOL0     H91466  11.490   6.598   2.838  0.6844 -1.5640 -1.5190
  678MOL0     H91467  11.517   6.581   3.121 -1.3946  0.6156 -1.3896
  678MOL0     H91468  11.619   6.682   3.008 -0.1947  0.0220 -0.3243
  678MOL0     H91469  11.756   6.551   3.150  2.6372 -0.6629  0.0066
  678MOL0     H91470  11.782   6.477   2.992  1.2131 -1.3278  2.7136
  678MOL0     H91471  11.590   6.360   3.177 -2.3776 -3.3765 -1.3689
  678MOL0     H91472  11.645   6.284   3.024 -0.4003 -0.0998  0.1257
  678MOL0     H91473  11.866   6.240   3.106 -1.2545 -1.1681 -1.3524
  678MOL0     H91474  11.842   6.349   3.249 -0.0291  2.4513 -3.3764
  678MOL0     H91475  11.713   6.192   3.354  2.5072  2.2839  0.0927
  678MOL0     H91476  11.675   6.102   3.208  0.7948  0.1385 -1.0518
  678MOL0     H91477  11.831   5.970   3.363 -0.5732  2.5574  1.1898
  678MOL0     H91478  11.958   6.085   3.335  0.9252 -1.9623  0.9632
  678MOL0     H91479  11.810   5.951   3.093  1.6750 -4.4254 -2.0270
  678MOL0     H91480  11.954   6.024   3.095 -0.2993 -0.0187 -0.2434
  678MOL0     H91481  11.812   5.714   3.316  1.8092 -3.2971  2.8895
  678MOL0     H91482  12.092   5.549   3.452  0.9416 -0.6722 -0.9020
  678MOL0     H91483  11.907   5.540   3.428 -0.6126  1.3873  0.3132
  678MOL0     H91484  11.917   5.392   3.243  1.0612  0.8668 -2.7132
  678MOL0     H91485  12.072   5.424   3.207  0.4899 -2.6926 -0.1556
  678MOL0     H91486  12.134   5.298   3.438 -1.2870  0.9281  2.1784
  678MOL0     H91487  12.061   5.209   3.313  2.3929 -0.2552 -0.9044
  678MOL0     H91488  11.956   5.144   3.482 -1.2812 -0.0323 -3.0913
  678MOL0     H91489  11.838   5.250   3.430  1.6419  1.0262 -2.3066
  678MOL0     H91490  11.907   5.544   3.754  0.0411  0.3588  3.5018
  678MOL0     H91491  11.711   5.578   3.910  1.7788 -3.0464  1.8757
  678MOL0     H91492  11.263   5.300   4.115 -0.9923  0.0689  2.2927
  678MOL0     H91493  11.077   5.415   4.248 -0.6960 -0.1176 -0.5654
  678MOL0     H91494  10.748   5.713   4.148 -0.2972  0.2159 -0.7211
  678MOL0     H91495  10.861   5.741   4.025  1.2595  2.4660  4.2279
  678MOL0     H91496  10.643   5.619   3.963  0.0867  0.6035 -0.2106
  678MOL0     H91497  10.785   5.533   3.912  0.8151  1.2576 -1.1714
  678MOL0     H91498  10.781   5.368   4.081 -0.9215 -2.4482  0.4883
  678MOL0     H91499  10.672   5.468   4.185 -5.3840  1.9741 -1.0225
  678MOL0     H91500  10.584   5.347   3.923  2.3045 -2.5546  0.3066
  678MOL0     H91501  10.485   5.434   4.041 -2.0664 -1.0288  2.1190
  678MOL0     H91502  10.506   5.248   4.191 -3.2219 -2.3570 -0.1110
  678MOL0     H91503  10.608   5.145   4.076 -0.8101 -0.6545 -1.0503
  678MOL0     H91504  10.337   5.272   4.008 -1.4104 -0.0432  0.1938
  678MOL0     H91505  10.442   5.157   3.911 -0.0275  1.0202 -0.4169
  678MOL0     H91506  10.303   5.108   4.181  0.0128 -0.1965  0.1900
  678MOL0     H91507  10.414   5.002   4.115  1.6713  0.7885 -1.0705
  678MOL0     H91508  10.190   4.944   4.074  0.8807  0.3213  0.3270
  678MOL0     H91509  10.154   5.092   3.975 -1.5409 -0.2483  2.4325
  678MOL0     H91510  11.019   5.683   3.919  1.2650  0.5154 -0.0807
  678MOL0     H91511  11.191   5.573   3.791 -0.6308  0.4477  0.1872
  678MOL0     H91512  11.526   5.222   3.764 -0.6093  1.7549  2.4578
  678MOL0     H91513  11.727   5.174   3.635 -0.3658 -0.7753  1.3883
  678MOL0     H91514  11.130   6.371   3.028 -4.3358 -1.2087 -1.4399
  678MOL0     H91515  10.980   6.289   2.886  1.2061 -2.5493  2.6180
  678MOL0     H91516  10.758   6.218   2.551 -1.5523  0.5647 -1.5006
  678MOL0     H91517  10.561   6.142   2.419 -0.0773 -0.3734  0.1963
  678MOL0     H91518  10.644   5.912   2.065  0.6109  0.1129 -1.3331
  678MOL0     H91519  10.555   6.063   2.109  1.3057 -1.0397 -2.8147
  678MOL0     H91520  10.424   5.798   2.063  1.0414  0.4835 -0.5302
  678MOL0     H91521  10.424   5.946   1.958 -0.7751 -1.2680 -1.2358
  678MOL0     H91522  10.343   6.032   2.220  2.7069 -0.7689 -0.4829
  678MOL0     H91523  10.251   5.881   2.203 -0.5824 -1.7584 -2.3250
  678MOL0     H91524  10.229   6.104   1.998 -2.4854 -0.8885 -1.1211
  678MOL0     H91525  10.166   5.937   1.983  2.1016 -2.2257 -0.4788
  678MOL0     H91526   9.908   6.145   2.250  0.6236  0.6274 -0.4972
  678MOL0     H91527  10.786   5.808   2.286  0.7132 -0.6386  0.7095
  678MOL0     H91528  11.005   5.766   2.375 -1.4587  1.0107  0.6175
  678MOL0     H91529  11.089   5.899   2.315 -0.5875  0.7854 -0.1116
  678MOL0     H91530  11.074   5.868   2.492 -0.5366  3.0555  0.4704
  679MOL0     O91531   6.664   1.049   5.442  0.4501  0.4219  0.0967
  679MOL0     C91532   6.752   1.042   5.360  0.8342 -0.0470 -0.0406
  679MOL0     O91533   6.809   0.923   5.311  0.4690  0.2260  0.0466
  679MOL0     C91534   6.764   0.800   5.340  0.0018 -0.3522  1.0355
  679MOL0     C91535   6.793   0.699   5.249 -0.5341 -0.0440 -0.2864
  679MOL0     C91536   6.752   0.567   5.281 -0.2131  0.1875 -0.6921
  679MOL0     C91537   6.685   0.534   5.398 -0.0920 -1.1931 -0.5277
  679MOL0     O91538   6.661   0.403   5.422 -0.0577  0.4117 -0.2069
  679MOL0     C91539   6.547   0.375   5.510  0.5043 -1.0515  0.3756
  679MOL0     C91540   6.414   0.437   5.465  1.1132 -0.4268 -1.0382
  679MOL0     C91541   6.292   0.371   5.538  0.3166  0.1751 -0.1278
  679MOL0     C91542   6.282   0.396   5.689  0.3843 -0.8674 -0.4056
  679MOL0     C91543   6.177   0.306   5.757  0.3604  0.0538  0.0548
  679MOL0     C91544   6.148   0.341   5.899 -0.0228 -0.1416 -0.1424
  679MOL0     C91545   6.016   0.289   5.948 -0.3339  0.5841  0.0155
  679MOL0     C91546   5.985   0.326   6.091  0.1532 -0.1271 -0.5180
  679MOL0     N91547   5.853   0.270   6.140 -0.5989  1.0187 -0.5397
  679MOL0     C91548   5.828   0.150   6.197 -0.1367 -0.7875 -0.0237
  679MOL0     C91549   5.696   0.138   6.201  0.1296  0.1261  0.6366
  679MOL0     C91550   5.622   0.022   6.266  0.3156 -0.0946 -0.3898
  679MOL0     C91551   5.654   0.022   6.418  0.5435 -0.2255  0.3734
  679MOL0     C91552   5.600  -0.109   6.485  0.0474 -0.3699 -0.1672
  679MOL0     C91553   5.673  -0.235   6.448 -0.0978  1.0743  0.3714
  679MOL0     O91554   5.644  -0.337   6.543 -0.6438 -1.2944  0.1969
  679MOL0     C91555   5.564  -0.441   6.530  0.2425  0.1482  0.3576
  679MOL0     C91556   5.470  -0.463   6.435 -0.5507  0.1598  0.2065
  679MOL0     C91557   5.390  -0.575   6.450 -0.8845  0.0718  0.6962
  679MOL0     C91558   5.394  -0.662   6.553 -0.1252  0.0916  1.2639
  679MOL0     C91559   5.303  -0.784   6.559 -0.3442  0.7610 -0.5102
  679MOL0     O91560   5.235  -0.815   6.448  0.2321  0.0061  0.9315
  679MOL0     C91561   5.151  -0.928   6.446  0.7025  0.4266 -0.5532
  679MOL0     C91562   5.165  -1.013   6.342  0.0870  0.0934  0.0486
  679MOL0     C91563   5.089  -1.130   6.330 -1.0934  0.2067  0.3655
  679MOL0     C91564   4.997  -1.168   6.438 -0.1664 -0.4426 -0.0374
  679MOL0     O91565   4.930  -1.287   6.445 -0.8673  0.5898 -0.1955
  679MOL0     C91566   4.889  -1.349   6.326 -1.0121  0.1544 -0.6672
  679MOL0     C91567   4.750  -1.303   6.280  0.1622  1.0917  0.7797
  679MOL0     C91568   4.651  -1.315   6.397  0.1256  0.2885 -0.2968
  679MOL0     C91569   4.507  -1.245   6.366 -0.0920  0.1241  0.6046
  679MOL0     C91570   4.394  -1.312   6.437 -0.2408  0.0837  0.0696
  679MOL0     C91571   4.258  -1.298   6.366 -0.2165  0.3892  0.3310
  679MOL0     C91572   4.151  -1.371   6.448 -0.0614  0.3967 -0.2479
  679MOL0     C91573   4.003  -1.345   6.411 -0.1400 -1.4960  0.5392
  679MOL0    Cl91574   3.888  -1.438   6.509 -0.1667  0.4559 -0.3177
  679MOL0     C91575   4.984  -1.084   6.548 -0.3450  0.3225  0.1170
  679MOL0     C91576   5.053  -0.967   6.549  0.4652  0.2525 -0.1782
  679MOL0     O91577   5.303  -0.844   6.665  0.4677 -0.0611 -0.2230
  679MOL0     C91578   5.475  -0.634   6.656  0.0213 -0.3882 -0.2353
  679MOL0     C91579   5.562  -0.523   6.643 -0.7909  1.0706 -0.3621
  679MOL0     N91580   5.637   0.255   6.158  0.2071 -0.2674  0.0054
  679MOL0     N91581   5.739   0.319   6.116  0.2912  0.0829 -0.8280
  679MOL0     C91582   6.655   0.642   5.486  0.0627 -0.0153 -0.2597
  679MOL0     C91583   6.696   0.768   5.456  0.4873  0.3008 -0.6052
  679MOL0     C91584   6.815   1.171   5.328 -0.3159 -0.7824 -0.1855
  679MOL0     C91585   6.936   1.170   5.250  0.6769  0.5471  0.3458
  679MOL0     C91586   7.007   1.288   5.229 -0.0281 -0.1937  0.2377
  679MOL0     C91587   6.970   1.404   5.294 -0.7287 -0.6490 -0.7747
  679MOL0     O91588   7.046   1.518   5.290  0.3708  1.1410  0.4399
  679MOL0     C91589   7.082   1.575   5.415 -0.0632 -0.0796 -0.6138
  679MOL0     C91590   7.189   1.676   5.382 -0.3863 -0.3287 -0.3317
  679MOL0     C91591   7.238   1.768   5.503  0.3726  0.0340 -0.3748
  679MOL0     C91592   7.365   1.840   5.462  0.0010  0.0831 -0.1479
  679MOL0     C91593   7.353   1.958   5.370  0.2606  0.8300  0.8676
  679MOL0     C91594   7.330   2.045   5.293  0.1813  0.1820  0.0421
  679MOL0     C91595   6.847   1.414   5.355 -0.0472  0.6661 -0.8533
  679MOL0     C91596   6.768   1.300   5.378 -0.3002  0.2731  0.1645
  679MOL0     C91597   6.632   1.320   5.447 -0.2817 -0.3185 -0.0757
  679MOL0     H91598   6.849   0.724   5.159 -2.8612  3.9903 -0.8639
  679MOL0     H91599   6.781   0.479   5.224  0.6949  0.9702 -1.4602
  679MOL0     H91600   6.543   0.266   5.502  2.9973 -1.4892  3.2573
  679MOL0     H91601   6.575   0.402   5.613  2.1761 -0.2011 -0.2659
  679MOL0     H91602   6.407   0.419   5.357 -0.6416  0.9932 -1.2054
  679MOL0     H91603   6.409   0.544   5.485  0.1006 -0.8347  1.2412
  679MOL0     H91604   6.300   0.264   5.514  2.1542  0.2252  0.1565
  679MOL0     H91605   6.199   0.408   5.494 -1.2530 -1.2540  1.7991
  679MOL0     H91606   6.381   0.372   5.730  0.4856  1.6119  1.0364
  679MOL0     H91607   6.265   0.503   5.708  1.5456 -0.6659 -0.4271
  679MOL0     H91608   6.087   0.302   5.694  0.8762  1.1592 -0.7731
  679MOL0     H91609   6.211   0.202   5.765  1.1943  0.3793  0.9559
  679MOL0     H91610   6.228   0.294   5.957 -1.2846 -0.3763  1.4853
  679MOL0     H91611   6.158   0.448   5.920 -1.0599 -0.0285 -0.1571
  679MOL0     H91612   6.014   0.180   5.952  0.1181  0.5432 -0.6614
  679MOL0     H91613   5.942   0.322   5.874 -1.4903 -0.5130  0.6408
  679MOL0     H91614   6.065   0.299   6.161 -0.4435  1.5405  0.8686
  679MOL0     H91615   5.970   0.434   6.086  1.4049  0.3344  2.9723
  679MOL0     H91616   5.906   0.080   6.224  2.1427  1.1689 -1.2157
  679MOL0     H91617   5.515   0.045   6.277  0.4450 -0.2395  1.6330
  679MOL0     H91618   5.642  -0.076   6.223  0.2360 -0.4431  0.3473
  679MOL0     H91619   5.763   0.019   6.431  0.7390  1.1946 -0.6258
  679MOL0     H91620   5.615   0.114   6.462  0.9409  0.7819 -1.2654
  679MOL0     H91621   5.494  -0.130   6.466 -0.1297  0.6254 -0.3619
  679MOL0     H91622   5.607  -0.098   6.594 -0.7893 -2.4318  0.1449
  679MOL0     H91623   5.781  -0.219   6.441 -0.1080  0.6622 -0.9744
  679MOL0     H91624   5.639  -0.265   6.349  3.3016  1.2137 -0.9986
  679MOL0     H91625   5.475  -0.406   6.343  0.6835  0.5291  0.4732
  679MOL0     H91626   5.328  -0.586   6.361 -2.5259 -2.4790  2.0150
  679MOL0     H91627   5.237  -0.982   6.268 -0.4935 -2.2940 -1.6383
  679MOL0     H91628   5.119  -1.198   6.251  1.0073  1.4118  0.0591
  679MOL0     H91629   4.956  -1.340   6.241 -0.5132 -1.6363 -0.5022
  679MOL0     H91630   4.884  -1.455   6.355 -0.2402  0.6634  1.4431
  679MOL0     H91631   4.764  -1.199   6.250  0.3124  0.6280 -0.8954
  679MOL0     H91632   4.708  -1.361   6.197 -1.8529 -0.8765  3.0412
  679MOL0     H91633   4.644  -1.423   6.411 -1.4949  0.4196  0.1335
  679MOL0     H91634   4.689  -1.272   6.490  0.3974 -1.8663  0.6463
  679MOL0     H91635   4.486  -1.243   6.259 -0.0913  1.5438  0.6206
  679MOL0     H91636   4.511  -1.140   6.396 -1.0548 -0.4184  2.9028
  679MOL0     H91637   4.405  -1.280   6.541 -0.3752 -1.2900  0.5243
  679MOL0     H91638   4.414  -1.419   6.445 -0.0629  0.2061  1.5529
  679MOL0     H91639   4.247  -1.189   6.365  1.4164  0.5793 -1.0197
  679MOL0     H91640   4.261  -1.344   6.267  0.5500 -2.6430  1.6434
  679MOL0     H91641   4.174  -1.328   6.546  0.0698  0.7798 -0.4442
  679MOL0     H91642   4.167  -1.479   6.441  0.4613  0.5719 -2.7320
  679MOL0     H91643   3.989  -1.237   6.421  0.5052 -1.5849  3.0525
  679MOL0     H91644   3.990  -1.377   6.307  1.3602 -1.9502  0.4624
  679MOL0     H91645   4.906  -1.110   6.619  1.9543 -0.7712  2.4191
  679MOL0     H91646   5.042  -0.902   6.635  0.3589  0.4787 -0.3614
  679MOL0     H91647   5.488  -0.697   6.744  3.6016 -1.8206 -1.6018
  679MOL0     H91648   5.637  -0.516   6.722 -0.6338 -1.8556 -0.1172
  679MOL0     H91649   6.608   0.616   5.580  3.7414  0.6687  1.9405
  679MOL0     H91650   6.687   0.842   5.536  0.9141 -0.2603 -0.0248
  679MOL0     H91651   6.971   1.075   5.209 -0.0677  0.3407  0.1738
  679MOL0     H91652   7.103   1.283   5.179  0.0209  2.0814 -0.0038
  679MOL0     H91653   7.107   1.494   5.484  0.8874 -0.5514 -1.4945
  679MOL0     H91654   7.002   1.635   5.460  0.1668 -0.6909  0.6459
  679MOL0     H91655   7.149   1.735   5.298 -0.4463  0.5133  0.2756
  679MOL0     H91656   7.265   1.601   5.359 -2.9442 -3.6379  1.1469
  679MOL0     H91657   7.276   1.717   5.592 -2.4529 -0.8454  0.4211
  679MOL0     H91658   7.162   1.834   5.545  0.8858 -0.5701  1.5924
  679MOL0     H91659   7.427   1.861   5.549  1.1069  2.1007 -1.3464
  679MOL0     H91660   7.428   1.773   5.404  1.1210  1.3681 -0.4631
  679MOL0     H91661   7.324   2.117   5.213 -1.4450  1.0861  0.9300
  679MOL0     H91662   6.818   1.513   5.389 -0.1374  0.8820 -1.5492
  679MOL0     H91663   6.633   1.270   5.544 -1.2105  1.4426  0.9038
  679MOL0     H91664   6.612   1.426   5.469  0.4086  0.0536 -1.1659
  679MOL0     H91665   6.547   1.284   5.389 -0.0962 -0.5701 -0.1900
  680MOL0     O91666   3.718   0.038   5.174 -0.2397 -0.9012 -0.8129
  680MOL0     C91667   3.645  -0.041   5.220  0.4777 -0.2086 -0.1128
  680MOL0     O91668   3.522  -0.081   5.174 -0.2557 -1.1452  0.7320
  680MOL0     C91669   3.456   0.002   5.087 -0.0683  0.3470 -0.9083
  680MOL0     C91670   3.394   0.110   5.133  0.4778  0.2264  0.2131
  680MOL0     C91671   3.318   0.194   5.054 -0.3430 -0.7297 -0.6200
  680MOL0     C91672   3.295   0.169   4.920 -0.0861 -0.4491 -0.3146
  680MOL0     O91673   3.220   0.262   4.854 -0.3891  0.1401 -0.6649
  680MOL0     C91674   3.274   0.290   4.727 -0.7620 -0.2673  0.5372
  680MOL0     C91675   3.170   0.269   4.616  0.2844  0.4426 -1.6255
  680MOL0     C91676   3.013   0.281   4.673 -0.2040 -0.0805 -0.3050
  680MOL0     C91677   2.924   0.270   4.563  0.6671 -1.2168 -0.4259
  680MOL0     C91678   2.783   0.306   4.602  0.7411  0.1360 -0.2842
  680MOL0     C91679   2.698   0.294   4.473 -0.1796 -0.2277 -0.2737
  680MOL0     C91680   2.564   0.373   4.483 -0.1039  0.1493  0.7705
  680MOL0     C91681   2.522   0.403   4.338 -0.7487  0.2658  0.2843
  680MOL0     N91682   2.592   0.517   4.275 -0.3347 -0.1566 -0.2213
  680MOL0     C91683   2.684   0.611   4.326  0.2949 -0.5226 -0.5629
  680MOL0     C91684   2.727   0.666   4.212 -0.3994  0.3651  0.3345
  680MOL0     C91685   2.817   0.786   4.214 -0.2316  0.5892 -0.2258
  680MOL0     C91686   2.742   0.920   4.196  0.0576 -0.5362 -1.1953
  680MOL0     C91687   2.830   1.047   4.197  0.1162  0.6258  0.1732
  680MOL0     C91688   2.918   1.075   4.316 -0.0030 -0.2016  0.4516
  680MOL0     O91689   3.025   0.979   4.305 -0.9500 -1.0262 -0.1147
  680MOL0     C91690   3.123   0.991   4.391  0.4128  0.1722 -0.5104
  680MOL0     C91691   3.166   1.103   4.455 -0.4055  0.3341  0.2752
  680MOL0     C91692   3.271   1.093   4.547 -0.1303  0.0734 -0.5177
  680MOL0     C91693   3.336   0.970   4.583  0.3583 -0.7721  0.1596
  680MOL0     C91694   3.449   0.969   4.683 -0.9579 -0.4246  0.2722
  680MOL0     O91695   3.511   0.850   4.693  0.0708 -0.1102 -0.3857
  680MOL0     C91696   3.634   0.826   4.747 -0.6982 -0.1336  0.4309
  680MOL0     C91697   3.679   0.864   4.876 -1.4794  0.1620  0.2821
  680MOL0     C91698   3.817   0.839   4.920 -0.4389  0.3917 -0.4100
  680MOL0     C91699   3.890   0.740   4.851 -0.2466 -1.4800  0.1537
  680MOL0     O91700   4.011   0.694   4.903  0.4804  0.1254 -0.0069
  680MOL0     C91701   4.125   0.752   4.846 -0.3578  0.0586  0.0968
  680MOL0     C91702   4.236   0.650   4.834 -0.2453 -0.5226 -0.1850
  680MOL0     C91703   4.269   0.591   4.972  0.2868 -0.1630 -0.5159
  680MOL0     C91704   4.415   0.591   4.993  0.7579  0.3135  0.9266
  680MOL0     C91705   4.461   0.503   5.110  0.0550 -0.3075 -0.0273
  680MOL0     C91706   4.616   0.511   5.132  0.7825  0.2011  0.0361
  680MOL0     C91707   4.654   0.446   5.265  0.6319  0.3537 -0.5246
  680MOL0     C91708   4.785   0.488   5.318  0.9137 -1.1173 -0.1678
  680MOL0    Cl91709   4.917   0.495   5.201 -0.0458  0.4621  0.0439
  680MOL0     C91710   3.836   0.688   4.736 -0.0737 -0.4374 -0.2096
  680MOL0     C91711   3.721   0.739   4.678 -0.2378 -0.5020 -0.5170
  680MOL0     O91712   3.482   1.067   4.749  0.0464 -0.5010 -0.5347
  680MOL0     C91713   3.268   0.858   4.535  0.1723 -0.5419  0.4493
  680MOL0     C91714   3.174   0.866   4.436  0.6471  0.1020 -0.0166
  680MOL0     N91715   2.676   0.608   4.098  0.6941 -0.2817 -0.2689
  680MOL0     N91716   2.595   0.522   4.138  0.5371  0.8898  0.0754
  680MOL0     C91717   3.368   0.064   4.867 -0.2492  0.6712 -0.1436
  680MOL0     C91718   3.439  -0.021   4.952  0.3167 -0.1952 -0.2236
  680MOL0     C91719   3.696  -0.108   5.338  0.2465 -0.2529 -0.5088
  680MOL0     C91720   3.608  -0.095   5.451  0.0017 -0.1207  0.3759
  680MOL0     C91721   3.652  -0.140   5.576  0.0151  0.2512 -0.5307
  680MOL0     C91722   3.780  -0.197   5.579  0.3351  0.1863  0.4487
  680MOL0     O91723   3.850  -0.216   5.693 -0.2380  0.6742  0.0744
  680MOL0     C91724   3.780  -0.200   5.821 -0.7545  0.2837  0.3888
  680MOL0     C91725   3.905  -0.229   5.912 -0.0467  0.4921 -0.3079
  680MOL0     C91726   3.837  -0.246   6.054 -0.5228 -0.5754  0.3110
  680MOL0     C91727   3.956  -0.263   6.153 -0.3626  0.2111  0.7255
  680MOL0     C91728   3.904  -0.295   6.286  0.7204 -0.9361 -1.3571
  680MOL0     C91729   3.868  -0.330   6.397  0.5527 -0.5394  0.0533
  680MOL0     C91730   3.851  -0.233   5.464 -0.9353 -0.7432  0.8460
  680MOL0     C91731   3.816  -0.180   5.337  0.9069 -0.0918 -0.2615
  680MOL0     C91732   3.912  -0.208   5.213 -0.3772  1.3723 -0.2423
  680MOL0     H91733   3.397   0.122   5.241 -0.4612  1.1335  0.1570
  680MOL0     H91734   3.259   0.270   5.103  0.7202  0.5226 -1.1970
  680MOL0     H91735   3.320   0.388   4.719  1.2043 -1.2072 -0.1410
  680MOL0     H91736   3.368   0.237   4.711 -2.4174 -4.1954  2.2740
  680MOL0     H91737   3.189   0.167   4.580 -2.2835 -0.6860 -0.0157
  680MOL0     H91738   3.193   0.351   4.548  1.6691  2.1220  0.7317
  680MOL0     H91739   3.011   0.373   4.733 -0.1856  0.4326 -1.0823
  680MOL0     H91740   2.999   0.201   4.746  0.6266 -1.1186 -1.2403
  680MOL0     H91741   2.956   0.329   4.476  1.5708  3.0171  2.4671
  680MOL0     H91742   2.936   0.165   4.535  1.3933 -1.2141 -0.1502
  680MOL0     H91743   2.745   0.237   4.678  0.2585  0.1556 -0.4996
  680MOL0     H91744   2.796   0.406   4.644 -0.6588 -0.2622  1.2142
  680MOL0     H91745   2.748   0.340   4.388 -2.4477 -1.7821 -2.6078
  680MOL0     H91746   2.677   0.188   4.455  0.6228 -0.1232 -1.9720
  680MOL0     H91747   2.566   0.467   4.538 -0.1990 -0.9315  2.6864
  680MOL0     H91748   2.485   0.311   4.525  0.0240 -0.7663 -0.3011
  680MOL0     H91749   2.545   0.315   4.276  0.5679 -0.9771  2.4064
  680MOL0     H91750   2.415   0.426   4.330 -0.2819  2.6554  0.2658
  680MOL0     H91751   2.703   0.655   4.424 -0.4940 -0.1778 -0.5546
  680MOL0     H91752   2.877   0.774   4.305 -2.9105  1.3344  1.7478
  680MOL0     H91753   2.882   0.786   4.126  0.4489  0.9871  0.2656
  680MOL0     H91754   2.678   0.914   4.107 -3.2447 -2.5426  1.0717
  680MOL0     H91755   2.679   0.926   4.286  2.1867  0.0451  0.3336
  680MOL0     H91756   2.754   1.126   4.201 -0.6609  0.1309 -2.6860
  680MOL0     H91757   2.885   1.044   4.103  0.3040 -0.3776  0.3100
  680MOL0     H91758   2.869   1.056   4.412 -3.2367 -1.5993 -1.3300
  680MOL0     H91759   2.957   1.178   4.313  0.2676 -0.3096  0.2349
  680MOL0     H91760   3.126   1.197   4.420  0.6875  0.7458  0.0986
  680MOL0     H91761   3.318   1.177   4.597  0.4266  1.0707 -2.6277
  680MOL0     H91762   3.605   0.925   4.926 -3.5575 -1.0155 -1.1994
  680MOL0     H91763   3.846   0.890   5.011  0.2168 -1.0490  0.2210
  680MOL0     H91764   4.111   0.795   4.747  0.0461 -1.1794 -0.5155
  680MOL0     H91765   4.149   0.831   4.918 -1.1473  1.0916 -0.7521
  680MOL0     H91766   4.229   0.571   4.759 -0.5106  0.2629 -1.0228
  680MOL0     H91767   4.326   0.699   4.796 -0.9830  2.8123  1.8877
  680MOL0     H91768   4.231   0.652   5.054 -0.5173  1.0962 -1.7824
  680MOL0     H91769   4.216   0.496   4.974 -0.4929  0.2541  1.9122
  680MOL0     H91770   4.451   0.692   5.011  2.7333 -0.2221  0.2401
  680MOL0     H91771   4.461   0.557   4.900 -1.9618 -1.2257  0.0134
  680MOL0     H91772   4.425   0.400   5.101  1.4813 -1.0501  2.0578
  680MOL0     H91773   4.425   0.546   5.204  3.4807  1.3419  0.7141
  680MOL0     H91774   4.661   0.450   5.053  0.4750 -0.6625  0.5111
  680MOL0     H91775   4.659   0.611   5.120  1.3505 -0.2505 -2.1081
  680MOL0     H91776   4.654   0.337   5.256  3.0368  0.2443  0.0858
  680MOL0     H91777   4.591   0.473   5.350 -0.4127  0.8957 -1.4486
  680MOL0     H91778   4.764   0.588   5.355 -0.2711 -1.1568 -0.6802
  680MOL0     H91779   4.817   0.422   5.399  0.2492 -0.6542  0.4771
  680MOL0     H91780   3.891   0.611   4.684  1.3348 -0.6831  1.5605
  680MOL0     H91781   3.684   0.704   4.582 -1.7645  1.0289 -0.5384
  680MOL0     H91782   3.291   0.759   4.572  0.3718  0.6338  3.7727
  680MOL0     H91783   3.134   0.772   4.399 -1.0809 -0.0987  2.1422
  680MOL0     H91784   3.352   0.032   4.765  2.0855 -2.3461  0.2918
  680MOL0     H91785   3.497  -0.105   4.918  1.9665  1.0246 -0.5704
  680MOL0     H91786   3.514  -0.044   5.434 -0.3819 -0.1804  2.1615
  680MOL0     H91787   3.591  -0.122   5.663  0.8751 -0.2427  0.1941
  680MOL0     H91788   3.696  -0.268   5.836 -1.5420  0.8321 -1.2824
  680MOL0     H91789   3.746  -0.096   5.825 -1.4323  0.0976 -0.3803
  680MOL0     H91790   3.976  -0.147   5.901  2.0480 -1.3262 -0.9303
  680MOL0     H91791   3.941  -0.331   5.894 -0.7991 -0.1895  1.7135
  680MOL0     H91792   3.770  -0.332   6.062 -2.0165  0.3869 -1.1940
  680MOL0     H91793   3.782  -0.155   6.080 -0.2741 -0.1516 -0.6073
  680MOL0     H91794   4.027  -0.339   6.120 -3.1860 -2.2650 -0.0395
  680MOL0     H91795   4.012  -0.169   6.158  0.7018 -0.0929 -2.7321
  680MOL0     H91796   3.823  -0.374   6.484  0.8717 -0.0547  0.4690
  680MOL0     H91797   3.946  -0.286   5.463 -0.6744 -0.3304  1.8974
  680MOL0     H91798   3.918  -0.317   5.204 -2.2293  1.3879 -2.8223
  680MOL0     H91799   3.863  -0.184   5.118 -1.3942 -1.7300 -0.6294
  680MOL0     H91800   4.008  -0.155   5.211 -0.0560  0.9168  1.4372
  681MOL0     O91801   9.597   7.347   1.385  0.0813 -0.4167 -0.1210
  681MOL0     C91802   9.595   7.447   1.461  0.9838  0.1853 -0.6111
  681MOL0     O91803   9.635   7.450   1.591  0.7655 -0.0648 -0.5179
  681MOL0     C91804   9.688   7.335   1.649  0.9666 -0.1114  1.1515
  681MOL0     C91805   9.618   7.213   1.642  0.7827  0.9510  0.2308
  681MOL0     C91806   9.666   7.106   1.714  0.3601 -0.3395 -0.4475
  681MOL0     C91807   9.800   7.112   1.763 -0.0279  0.2311  0.2573
  681MOL0     O91808   9.853   7.004   1.841  0.0135  0.3715  0.4829
  681MOL0     C91809   9.966   7.025   1.929  0.4576 -1.1176  0.3377
  681MOL0     C91810  10.016   6.893   1.993  0.8540 -0.1249 -0.0399
  681MOL0     C91811  10.110   6.826   1.896 -0.1826 -0.3506 -0.9824
  681MOL0     C91812  10.249   6.792   1.966  0.3476 -0.9287  0.1514
  681MOL0     C91813  10.333   6.735   1.849 -0.3427  1.2808  0.6800
  681MOL0     C91814  10.473   6.725   1.905 -0.1109 -0.1874  0.5105
  681MOL0     C91815  10.573   6.673   1.799 -0.3247  0.3768  0.8899
  681MOL0     C91816  10.715   6.676   1.861  0.5144 -0.6057  0.5758
  681MOL0     N91817  10.816   6.604   1.788 -0.9676  0.5969 -0.0613
  681MOL0     C91818  10.883   6.639   1.674  0.4342  0.4707  0.0745
  681MOL0     C91819  10.979   6.543   1.658  0.1102 -0.3665  0.5031
  681MOL0     C91820  11.081   6.519   1.545 -0.3102 -0.0198  1.0351
  681MOL0     C91821  11.068   6.372   1.495  0.6029  0.3254 -0.3212
  681MOL0     C91822  10.920   6.348   1.451 -0.4828 -0.0274  0.6861
  681MOL0     C91823  10.883   6.204   1.413 -0.0048 -0.0597 -0.2484
  681MOL0     O91824  10.758   6.211   1.352 -0.1708 -0.4933  0.5414
  681MOL0     C91825  10.705   6.088   1.312 -1.4090 -0.2110 -0.6731
  681MOL0     C91826  10.575   6.082   1.299 -1.2718 -0.5285  0.0838
  681MOL0     C91827  10.529   5.972   1.227  0.6907 -0.0412  0.6503
  681MOL0     C91828  10.602   5.861   1.197  0.4056 -0.0487 -1.4709
  681MOL0     C91829  10.544   5.744   1.133 -0.1033 -0.1929 -0.3793
  681MOL0     O91830  10.412   5.756   1.108  1.0380 -0.7144  0.1678
  681MOL0     C91831  10.356   5.638   1.056  0.0110  0.3574 -0.5336
  681MOL0     C91832  10.345   5.613   0.918 -1.0860  0.2370  0.0903
  681MOL0     C91833  10.281   5.494   0.869  0.4115  0.2146 -0.1680
  681MOL0     C91834  10.228   5.395   0.956 -0.1570  0.4768 -0.1783
  681MOL0     O91835  10.178   5.281   0.903  0.3376 -0.0273  0.0369
  681MOL0     C91836  10.076   5.208   0.972 -0.1251 -0.5987 -0.0025
  681MOL0     C91837  10.042   5.079   0.899 -0.2853  0.0990  0.7295
  681MOL0     C91838   9.896   5.041   0.923  0.4484 -0.3177 -0.4973
  681MOL0     C91839   9.842   4.923   0.844 -0.5117 -0.6370  0.9330
  681MOL0     C91840   9.722   4.845   0.897  0.6526 -0.2330  0.2821
  681MOL0     C91841   9.666   4.735   0.809  0.3730 -0.2433  0.1100
  681MOL0     C91842   9.774   4.623   0.776  0.6786 -0.6293 -0.5535
  681MOL0     C91843   9.710   4.499   0.703 -0.1794  0.6799 -0.7164
  681MOL0    Cl91844   9.578   4.417   0.795  0.1088  0.0614  0.0085
  681MOL0     C91845  10.231   5.427   1.096  0.3827  0.0142 -0.8503
  681MOL0     C91846  10.292   5.552   1.141 -0.1825  0.5963  1.1931
  681MOL0     O91847  10.620   5.656   1.085 -0.2925 -0.0994  0.0300
  681MOL0     C91848  10.741   5.868   1.219 -0.4400  0.0117  0.0055
  681MOL0     C91849  10.790   5.979   1.272  0.0821 -0.6771  0.6507
  681MOL0     N91850  10.985   6.463   1.786  1.0642 -1.5410  0.0430
  681MOL0     N91851  10.886   6.498   1.851  0.6254 -0.0727 -0.3701
  681MOL0     C91852   9.871   7.237   1.761  0.8113  1.0659 -0.2853
  681MOL0     C91853   9.814   7.350   1.710 -0.2596 -0.0670 -0.9445
  681MOL0     C91854   9.529   7.567   1.406 -0.7984  0.0489  0.3906
  681MOL0     C91855   9.460   7.649   1.494 -0.2732 -0.1336 -0.2051
  681MOL0     C91856   9.392   7.761   1.441  0.2350  0.5547  0.4972
  681MOL0     C91857   9.394   7.806   1.312 -0.0819  0.4941  1.3731
  681MOL0     O91858   9.360   7.928   1.259 -0.2355  0.2970  0.0711
  681MOL0     C91859   9.344   8.041   1.355 -0.0899 -1.0706  0.7909
  681MOL0     C91860   9.489   8.068   1.403 -0.5583  0.0669 -0.3407
  681MOL0     C91861   9.507   8.198   1.483 -0.0917  0.3874 -0.8983
  681MOL0     C91862   9.434   8.205   1.617 -0.4229 -0.2208 -0.5168
  681MOL0     C91863   9.500   8.115   1.712  0.3848  0.4079  0.2421
  681MOL0     C91864   9.560   8.040   1.788  0.4737  0.3480 -0.0700
  681MOL0     C91865   9.464   7.729   1.222 -0.6074 -0.2581  0.3584
  681MOL0     C91866   9.528   7.613   1.270  0.3330 -0.3139  1.0697
  681MOL0     C91867   9.601   7.536   1.161 -0.3233  0.1885  0.3536
  681MOL0     H91868   9.525   7.216   1.585 -0.3093 -0.8528  1.7772
  681MOL0     H91869   9.610   7.013   1.714 -1.5991  0.8067 -0.5537
  681MOL0     H91870  10.054   7.077   1.891  0.4483  1.6138  3.6020
  681MOL0     H91871   9.935   7.088   2.013  2.1037 -2.9558  2.4757
  681MOL0     H91872   9.923   6.835   1.996  1.2660 -0.8454 -0.6514
  681MOL0     H91873  10.043   6.883   2.098 -2.9492 -5.5218  0.8421
  681MOL0     H91874  10.125   6.884   1.805  0.0970 -1.5908 -1.7531
  681MOL0     H91875  10.061   6.735   1.858 -0.7755  0.1967 -1.5563
  681MOL0     H91876  10.289   6.886   2.004  2.6288 -0.8872 -2.0564
  681MOL0     H91877  10.245   6.727   2.054  1.4301 -0.7212  0.3665
  681MOL0     H91878  10.300   6.633   1.825 -3.5099  0.9569  5.0994
  681MOL0     H91879  10.343   6.790   1.755  4.0743  4.8167  2.8271
  681MOL0     H91880  10.496   6.821   1.953 -4.6367  2.1429 -1.4335
  681MOL0     H91881  10.459   6.656   1.988  1.2361  0.7382  1.5686
  681MOL0     H91882  10.587   6.744   1.717  1.1885  0.0043  0.7979
  681MOL0     H91883  10.547   6.568   1.780  1.0940  0.1301  0.2056
  681MOL0     H91884  10.743   6.779   1.883 -2.1161 -0.2264  2.6698
  681MOL0     H91885  10.703   6.615   1.952  1.1423  0.4563  1.3865
  681MOL0     H91886  10.860   6.719   1.604 -0.6920 -0.9443 -1.2419
  681MOL0     H91887  11.053   6.577   1.457  1.1530 -1.7274 -0.6496
  681MOL0     H91888  11.183   6.550   1.568  0.4071 -0.6694 -1.0529
  681MOL0     H91889  11.146   6.352   1.419  1.0211 -2.5722  0.7368
  681MOL0     H91890  11.097   6.303   1.575  3.0947  0.4402 -1.0232
  681MOL0     H91891  10.910   6.413   1.364 -1.1434  1.1513  1.6077
  681MOL0     H91892  10.848   6.384   1.526 -0.7617 -1.2781  1.0486
  681MOL0     H91893  10.902   6.163   1.513 -1.1224  0.6574  0.2731
  681MOL0     H91894  10.960   6.158   1.350 -0.8299 -2.1407  0.1651
  681MOL0     H91895  10.511   6.165   1.326 -0.9644 -0.0976 -0.4698
  681MOL0     H91896  10.421   5.981   1.213  0.5118 -1.6551  0.7655
  681MOL0     H91897  10.382   5.687   0.848  0.9775 -1.6059 -0.8975
  681MOL0     H91898  10.279   5.475   0.763 -1.1694 -2.1811  0.2075
  681MOL0     H91899  10.103   5.187   1.076 -0.1932 -1.9936 -0.2538
  681MOL0     H91900   9.998   5.284   0.982  0.4442 -0.1004  0.7516
  681MOL0     H91901  10.059   5.099   0.792 -0.9277 -0.0031  0.6051
  681MOL0     H91902  10.102   4.995   0.935 -0.7041  0.9002  3.5370
  681MOL0     H91903   9.890   5.030   1.031 -0.1394  2.0210 -0.2426
  681MOL0     H91904   9.827   5.125   0.913  0.9239 -0.0161 -1.3609
  681MOL0     H91905   9.920   4.846   0.839  1.4389  1.3011  0.0582
  681MOL0     H91906   9.810   4.965   0.749 -0.9142  1.0011  1.7727
  681MOL0     H91907   9.647   4.924   0.909  0.2218 -0.1526 -2.2651
  681MOL0     H91908   9.736   4.800   0.995 -2.4708 -1.6217  0.1985
  681MOL0     H91909   9.579   4.702   0.868 -0.8642  2.8758  0.2216
  681MOL0     H91910   9.631   4.775   0.713 -0.3900 -0.4369  0.2985
  681MOL0     H91911   9.811   4.585   0.872 -0.1558  1.3838  0.6378
  681MOL0     H91912   9.853   4.667   0.714 -0.1813  0.6615 -0.7615
  681MOL0     H91913   9.673   4.535   0.606  0.2475  2.0634 -0.3962
  681MOL0     H91914   9.793   4.431   0.682  0.1016  1.3084 -1.7475
  681MOL0     H91915  10.194   5.349   1.162  3.1233 -3.7069 -3.2802
  681MOL0     H91916  10.297   5.566   1.248  0.2840  3.0131  0.8947
  681MOL0     H91917  10.813   5.793   1.187 -0.1551 -0.0576  0.7775
  681MOL0     H91918  10.896   6.000   1.280  0.4213 -1.9335 -0.2771
  681MOL0     H91919   9.975   7.242   1.791 -0.2113  1.9153  3.7467
  681MOL0     H91920   9.857   7.450   1.702 -2.0816  0.7014 -1.5818
  681MOL0     H91921   9.442   7.619   1.596 -2.3945 -0.5048 -0.6401
  681MOL0     H91922   9.336   7.820   1.512  1.7003  2.3603  0.2237
  681MOL0     H91923   9.281   8.003   1.437 -0.9199 -0.3678  0.4960
  681MOL0     H91924   9.306   8.127   1.299 -3.2912 -2.4012  0.7181
  681MOL0     H91925   9.561   8.071   1.321 -0.4689 -2.8618 -0.4785
  681MOL0     H91926   9.526   7.990   1.471 -0.4907  1.6144  1.4978
  681MOL0     H91927   9.484   8.278   1.412 -2.5570 -1.2027 -2.0294
  681MOL0     H91928   9.614   8.205   1.506  0.1475  2.6964 -2.3834
  681MOL0     H91929   9.441   8.305   1.660  2.2241  0.1849 -1.6678
  681MOL0     H91930   9.327   8.184   1.607 -0.6307  0.9930 -1.0125
  681MOL0     H91931   9.606   7.984   1.867 -0.5819 -4.1200 -2.3149
  681MOL0     H91932   9.468   7.741   1.115 -3.8607 -0.6911  0.1046
  681MOL0     H91933   9.545   7.465   1.100 -2.5183  2.1883 -0.1261
  681MOL0     H91934   9.641   7.607   1.088 -0.7265  0.3510  0.2889
  681MOL0     H91935   9.685   7.481   1.204 -2.3788 -1.9110  1.9759
  682MOL0     O91936   4.527   2.032   6.542 -0.4643 -0.1729  0.6963
  682MOL0     C91937   4.636   1.973   6.562  0.3491  0.8552  0.3929
  682MOL0     O91938   4.750   2.036   6.610 -0.4063  0.0594 -0.1133
  682MOL0     C91939   4.751   2.174   6.645 -0.0142  0.7539 -0.0959
  682MOL0     C91940   4.797   2.263   6.552  0.6093  0.2288  0.0873
  682MOL0     C91941   4.783   2.400   6.581 -0.2322 -0.8927 -0.0307
  682MOL0     C91942   4.742   2.450   6.703 -0.4083  0.3362 -1.0559
  682MOL0     O91943   4.740   2.588   6.703 -0.4275  0.4873 -0.5552
  682MOL0     C91944   4.737   2.644   6.838  0.8356  0.2277 -0.3633
  682MOL0     C91945   4.696   2.796   6.821  0.7582 -0.5012 -0.0752
  682MOL0     C91946   4.814   2.890   6.798 -0.8459 -0.6578 -0.5511
  682MOL0     C91947   4.891   2.895   6.933 -0.3066 -0.0959  0.7336
  682MOL0     C91948   4.998   3.006   6.914 -0.2028  0.2781 -0.2144
  682MOL0     C91949   5.117   2.980   6.812  0.6408 -0.2396 -0.2144
  682MOL0     C91950   5.242   3.070   6.851 -0.4403  0.4868  0.2206
  682MOL0     C91951   5.201   3.226   6.862 -0.0023  0.8361  0.3650
  682MOL0     N91952   5.321   3.311   6.870 -0.2967  0.4764 -0.8535
  682MOL0     C91953   5.398   3.354   6.762 -0.2604 -0.9365 -0.4651
  682MOL0     C91954   5.489   3.433   6.831 -0.5736  0.6282 -0.8738
  682MOL0     C91955   5.596   3.507   6.756 -0.2961 -0.3023  0.6567
  682MOL0     C91956   5.529   3.623   6.686  0.3301 -1.1525  0.4116
  682MOL0     C91957   5.616   3.696   6.585  0.7752  0.6439 -0.4872
  682MOL0     C91958   5.754   3.725   6.645  0.9143 -0.7653 -0.4811
  682MOL0     O91959   5.733   3.802   6.767 -0.5846  0.6206  0.9842
  682MOL0     C91960   5.845   3.834   6.852  0.0301  0.6663 -0.1751
  682MOL0     C91961   5.981   3.867   6.802 -0.2646  0.4261 -1.0495
  682MOL0     C91962   6.086   3.913   6.890  0.4536 -0.2958 -0.8124
  682MOL0     C91963   6.060   3.916   7.032  0.7218 -0.5250  0.5402
  682MOL0     C91964   6.164   3.949   7.132  0.5157 -0.6827  0.1033
  682MOL0     O91965   6.117   3.988   7.257 -0.3284 -0.0606 -0.8789
  682MOL0     C91966   6.213   3.988   7.356 -0.4844 -0.0244 -0.5628
  682MOL0     C91967   6.200   4.085   7.453 -0.8143  1.0133 -0.4324
  682MOL0     C91968   6.284   4.112   7.557 -0.5574 -0.1544 -0.2405
  682MOL0     C91969   6.395   4.020   7.575 -0.4338  0.4647 -0.7232
  682MOL0     O91970   6.471   4.022   7.688  0.3596 -0.0225  0.6838
  682MOL0     C91971   6.471   3.902   7.762  0.5549  0.1738  0.3280
  682MOL0     C91972   6.448   3.948   7.909 -0.3532  0.5466  1.1197
  682MOL0     C91973   6.584   3.995   7.967 -0.1334 -1.0798  0.0441
  682MOL0     C91974   6.665   3.880   8.019  0.2945 -0.7817  0.3364
  682MOL0     C91975   6.774   3.939   8.114  0.1971  0.4422 -0.8255
  682MOL0     C91976   6.882   4.028   8.049  0.2695 -0.9242 -0.1676
  682MOL0     C91977   6.962   3.959   7.944  0.0817  0.4980 -0.4522
  682MOL0     C91978   7.066   4.033   7.883 -0.6093  0.0276 -0.4886
  682MOL0    Cl91979   7.162   3.948   7.759 -0.1975  0.3995  0.0315
  682MOL0     C91980   6.411   3.920   7.479 -0.1931  0.6737 -0.4194
  682MOL0     C91981   6.324   3.902   7.373  0.1820  0.5067 -0.1515
  682MOL0     O91982   6.284   3.934   7.091  0.1376 -0.7426 -0.1743
  682MOL0     C91983   5.929   3.884   7.080 -0.2173  0.6690  0.2628
  682MOL0     C91984   5.823   3.849   6.987 -0.1113  1.0737 -0.9162
  682MOL0     N91985   5.473   3.427   6.963 -0.0160  0.1989 -0.7004
  682MOL0     N91986   5.378   3.344   6.991 -0.1763  0.2801 -0.2514
  682MOL0     C91987   4.705   2.355   6.795  0.6900 -0.2967  0.8611
  682MOL0     C91988   4.717   2.219   6.772  0.5280 -0.4568  0.7605
  682MOL0     C91989   4.644   1.830   6.525 -0.5384 -0.0692  0.1360
  682MOL0     C91990   4.581   1.787   6.401 -0.3240  0.6334  0.9812
  682MOL0     C91991   4.592   1.656   6.353 -0.1333 -0.3926  0.1117
  682MOL0     C91992   4.653   1.563   6.437  0.5117 -0.0462  0.1696
  682MOL0     O91993   4.658   1.442   6.377 -0.1960  0.0707 -0.4238
  682MOL0     C91994   4.791   1.412   6.344 -0.2358  0.0571  0.0960
  682MOL0     C91995   4.794   1.284   6.248  0.1911 -0.3122 -0.4107
  682MOL0     C91996   4.723   1.303   6.110 -0.4255 -0.1926 -0.2936
  682MOL0     C91997   4.714   1.160   6.041  0.3847  0.2743  0.6307
  682MOL0     C91998   4.663   1.165   5.899  0.0590  0.6793  0.4710
  682MOL0     C91999   4.645   1.164   5.781 -0.2936  0.1625 -0.3080
  682MOL0     C92000   4.710   1.598   6.555 -0.5868 -0.1416 -0.7667
  682MOL0     C92001   4.717   1.735   6.604  0.9043 -0.6695  0.8680
  682MOL0     C92002   4.776   1.754   6.739  0.0932  0.0069  0.6507
  682MOL0     H92003   4.846   2.235   6.459 -0.8934 -2.7944  0.0848
  682MOL0     H92004   4.807   2.476   6.507 -0.5130 -1.9895 -1.2778
  682MOL0     H92005   4.661   2.593   6.898  1.1928 -0.5398 -0.5474
  682MOL0     H92006   4.833   2.650   6.891 -0.0670  4.0060  1.1398
  682MOL0     H92007   4.632   2.828   6.903 -0.0109  0.0588 -0.8719
  682MOL0     H92008   4.635   2.798   6.730  2.0864  2.7453 -1.0148
  682MOL0     H92009   4.779   2.992   6.780 -0.2852 -0.2394  0.6159
  682MOL0     H92010   4.875   2.865   6.711 -2.8937  0.3364 -2.3621
  682MOL0     H92011   4.824   2.923   7.015 -1.5815 -1.5308  0.2275
  682MOL0     H92012   4.941   2.802   6.957 -2.6825 -1.9573 -0.9985
  682MOL0     H92013   4.962   3.109   6.899 -0.0294  0.4853  0.7470
  682MOL0     H92014   5.035   3.008   7.017  1.1810  4.1146 -0.6311
  682MOL0     H92015   5.146   2.874   6.813  2.0655  0.1356  0.3413
  682MOL0     H92016   5.082   2.998   6.710  0.3141 -4.1023 -0.9523
  682MOL0     H92017   5.318   3.046   6.776 -1.5867  0.3391 -0.9073
  682MOL0     H92018   5.289   3.048   6.948  2.7286  1.9862 -0.8148
  682MOL0     H92019   5.145   3.248   6.771  2.0022  1.7995 -0.7101
  682MOL0     H92020   5.137   3.244   6.949 -2.6554  0.0483 -1.3047
  682MOL0     H92021   5.392   3.327   6.658 -2.5502 -1.7544 -0.1725
  682MOL0     H92022   5.661   3.546   6.836  0.9278  3.3910 -1.8301
  682MOL0     H92023   5.632   3.448   6.671 -2.0669  0.4894 -0.7089
  682MOL0     H92024   5.441   3.582   6.634  0.7816 -0.3303 -1.0715
  682MOL0     H92025   5.497   3.711   6.744 -1.2732 -0.2349 -1.6957
  682MOL0     H92026   5.561   3.786   6.557 -2.3589 -0.7879  0.5819
  682MOL0     H92027   5.630   3.640   6.492  0.1341  0.4681 -0.4819
  682MOL0     H92028   5.810   3.782   6.570 -0.4532 -2.0320 -2.5770
  682MOL0     H92029   5.813   3.635   6.668 -0.9682 -2.6615 -2.5497
  682MOL0     H92030   5.989   3.865   6.694 -1.9785 -0.9482 -1.1978
  682MOL0     H92031   6.179   3.955   6.854 -0.0427  0.9235 -0.7087
  682MOL0     H92032   6.132   4.167   7.431 -0.4082  0.9024 -2.2886
  682MOL0     H92033   6.268   4.188   7.633  2.5937  0.9094 -0.4671
  682MOL0     H92034   6.385   3.838   7.740 -0.1937  0.7522  1.4564
  682MOL0     H92035   6.566   3.851   7.745 -0.0844 -0.6198 -1.0235
  682MOL0     H92036   6.367   4.022   7.919 -0.7809  0.0642  1.2377
  682MOL0     H92037   6.409   3.857   7.955  1.1087 -0.1873  0.9483
  682MOL0     H92038   6.652   4.044   7.896  0.8588  0.2866  1.8525
  682MOL0     H92039   6.559   4.058   8.053  1.4331 -0.1674 -0.1356
  682MOL0     H92040   6.709   3.821   7.938  2.0996 -1.6545  1.8925
  682MOL0     H92041   6.596   3.807   8.061  1.4343 -1.9250  0.2580
  682MOL0     H92042   6.822   3.855   8.166  0.3749  1.3824  0.5804
  682MOL0     H92043   6.723   3.992   8.195  0.4052  0.9765 -1.0411
  682MOL0     H92044   6.830   4.117   8.013  0.1644 -0.8630  0.1295
  682MOL0     H92045   6.947   4.052   8.133 -0.9993 -0.2290  0.6517
  682MOL0     H92046   6.895   3.928   7.863 -3.6784  1.8208  1.9093
  682MOL0     H92047   7.009   3.868   7.983  1.6245  0.9308 -1.1881
  682MOL0     H92048   7.019   4.124   7.844 -1.9503  0.1481  1.2787
  682MOL0     H92049   7.137   4.070   7.957 -0.1730 -2.2796  0.3435
  682MOL0     H92050   6.492   3.850   7.494 -0.2604  0.2299 -1.9061
  682MOL0     H92051   6.349   3.827   7.299 -0.4871 -1.0030  1.0800
  682MOL0     H92052   5.908   3.893   7.186  2.7439  1.3626  0.8967
  682MOL0     H92053   5.729   3.816   7.030  0.2447 -0.2464 -1.0930
  682MOL0     H92054   4.659   2.381   6.890  0.4707  1.7107  0.2554
  682MOL0     H92055   4.676   2.149   6.844 -3.2856  1.4058  0.6424
  682MOL0     H92056   4.530   1.861   6.342  0.4247  1.4406  1.3169
  682MOL0     H92057   4.562   1.628   6.253  0.2964 -1.1653  0.1941
  682MOL0     H92058   4.847   1.393   6.436  0.0163  3.7004  0.8381
  682MOL0     H92059   4.831   1.494   6.284  0.4316 -0.1456  0.2538
  682MOL0     H92060   4.744   1.205   6.304 -2.4269  3.0046  2.4058
  682MOL0     H92061   4.897   1.253   6.225  1.4607  3.6159 -0.8920
  682MOL0     H92062   4.787   1.373   6.055 -1.6193  2.7650  1.8637
  682MOL0     H92063   4.625   1.349   6.121 -1.5952 -2.8400  1.2305
  682MOL0     H92064   4.808   1.112   6.068  0.8257  2.2562  2.9554
  682MOL0     H92065   4.639   1.103   6.097  0.0133  0.8406  0.7200
  682MOL0     H92066   4.627   1.180   5.676  1.0616  2.3817 -0.2828
  682MOL0     H92067   4.768   1.518   6.599 -3.0918 -3.0448 -2.3551
  682MOL0     H92068   4.789   1.653   6.778 -0.5874 -1.1203 -1.8471
  682MOL0     H92069   4.866   1.816   6.746  0.0877  0.0708  0.2070
  682MOL0     H92070   4.700   1.804   6.800 -0.7758 -0.0541 -0.3564
  683MOL0     O92071   7.680   4.059   1.141 -0.1765  0.8125 -0.5612
  683MOL0     C92072   7.600   4.152   1.157 -0.1323 -0.6892  0.1649
  683MOL0     O92073   7.632   4.281   1.132  0.1151  0.9545  0.4419
  683MOL0     C92074   7.765   4.319   1.135  0.7443 -0.6166  0.8622
  683MOL0     C92075   7.821   4.379   1.022  1.2211  0.2639  0.3922
  683MOL0     C92076   7.957   4.402   1.019  0.1496 -0.5821 -0.1600
  683MOL0     C92077   8.036   4.392   1.131  0.1226  0.5129 -0.0289
  683MOL0     O92078   8.171   4.423   1.142 -0.1273  0.7619  0.8432
  683MOL0     C92079   8.215   4.501   1.253 -0.2562  0.9005 -0.7881
  683MOL0     C92080   8.125   4.628   1.283 -0.0010  0.2345  0.4038
  683MOL0     C92081   8.212   4.734   1.351 -0.1537 -0.3562 -0.6854
  683MOL0     C92082   8.125   4.856   1.344  0.0243  0.1405  0.0180
  683MOL0     C92083   8.190   4.957   1.443 -0.5138  0.3237  0.5262
  683MOL0     C92084   8.122   5.102   1.444 -0.0177 -0.2459  0.4773
  683MOL0     C92085   8.147   5.171   1.570  0.3947 -0.5228 -0.1434
  683MOL0     C92086   8.141   5.322   1.564  0.4940 -0.7735  0.8366
  683MOL0     N92087   8.006   5.359   1.507  0.6097  0.4532  0.6042
  683MOL0     C92088   7.990   5.428   1.395  0.7501  0.2601 -0.9258
  683MOL0     C92089   7.860   5.448   1.392 -0.0118 -0.2860 -0.4394
  683MOL0     C92090   7.784   5.513   1.282 -0.0236 -0.4399  0.4189
  683MOL0     C92091   7.755   5.410   1.160 -0.2673  0.0975  0.8691
  683MOL0     C92092   7.875   5.346   1.088  0.0138  0.8164 -0.5213
  683MOL0     C92093   7.962   5.452   1.039  0.4248 -0.0634  0.7862
  683MOL0     O92094   8.036   5.396   0.931 -0.4511 -0.5519  0.7899
  683MOL0     C92095   8.150   5.469   0.889  0.3484  0.3008 -1.1529
  683MOL0     C92096   8.142   5.605   0.861  0.6282 -0.8773  0.7411
  683MOL0     C92097   8.251   5.679   0.812 -0.3274  0.7542  0.1407
  683MOL0     C92098   8.375   5.610   0.791 -0.4762 -0.8191 -0.2963
  683MOL0     C92099   8.476   5.691   0.730 -0.3612  0.7216  0.5653
  683MOL0     O92100   8.581   5.638   0.678  0.9081  0.2831 -0.2823
  683MOL0     C92101   8.691   5.720   0.666 -0.2140 -0.0559 -0.1913
  683MOL0     C92102   8.732   5.779   0.545  0.7802  0.0615  0.3182
  683MOL0     C92103   8.848   5.854   0.545  1.2613 -0.0323  0.2738
  683MOL0     C92104   8.928   5.858   0.662 -0.1635 -0.3458  0.5863
  683MOL0     O92105   9.039   5.933   0.645 -0.2848  1.0958 -0.8290
  683MOL0     C92106   9.125   5.899   0.536 -0.0308  0.8351  0.0277
  683MOL0     C92107   9.198   5.766   0.534 -1.0892 -0.2847  0.3815
  683MOL0     C92108   9.297   5.745   0.645 -1.0413  0.1959 -0.7768
  683MOL0     C92109   9.234   5.693   0.770  0.3373 -0.1507 -1.0087
  683MOL0     C92110   9.240   5.536   0.769  0.3416  0.7943 -0.1587
  683MOL0     C92111   9.119   5.481   0.848 -0.2953 -0.0884  0.1101
  683MOL0     C92112   9.136   5.339   0.908 -0.5883 -0.4063  0.2233
  683MOL0     C92113   9.052   5.317   1.041 -0.4133  0.3670  0.4175
  683MOL0    Cl92114   9.131   5.204   1.149 -0.1237 -0.0977 -0.9271
  683MOL0     C92115   8.890   5.805   0.785 -0.0108 -0.9328 -0.1335
  683MOL0     C92116   8.770   5.741   0.784 -0.1532 -0.1238 -0.4150
  683MOL0     O92117   8.461   5.814   0.743  0.0340 -0.0243 -0.4604
  683MOL0     C92118   8.382   5.473   0.811 -0.5040  0.3372  0.8233
  683MOL0     C92119   8.270   5.410   0.861  0.4107  0.6490  0.5746
  683MOL0     N92120   7.806   5.388   1.504 -0.5585  0.5318 -0.2270
  683MOL0     N92121   7.891   5.329   1.570 -0.4264 -0.6341 -0.4405
  683MOL0     C92122   7.981   4.346   1.250 -0.0092 -1.0084  0.8917
  683MOL0     C92123   7.847   4.309   1.251 -0.1193  0.4252  0.3985
  683MOL0     C92124   7.462   4.107   1.160 -0.0019 -0.7402 -1.4723
  683MOL0     C92125   7.377   4.137   1.063  0.6107  0.0677 -0.2890
  683MOL0     C92126   7.237   4.114   1.061 -0.5071 -0.9779 -0.8926
  683MOL0     C92127   7.185   4.035   1.168  0.7412 -0.2771  0.1996
  683MOL0     O92128   7.056   4.001   1.171  0.2565 -0.6322  0.9287
  683MOL0     C92129   6.969   4.000   1.053  0.5502 -0.3589  0.1293
  683MOL0     C92130   6.835   3.937   1.093 -0.3664 -0.9206 -0.0091
  683MOL0     C92131   6.750   4.019   1.186  0.1489  0.9710  0.5860
  683MOL0     C92132   6.711   4.155   1.124  1.1165  0.2029  0.0437
  683MOL0     C92133   6.627   4.223   1.215  1.2098 -0.8189 -0.7389
  683MOL0     C92134   6.559   4.294   1.284 -0.2056  0.3908  0.1548
  683MOL0     C92135   7.271   4.001   1.265 -0.0494  0.3419 -0.6198
  683MOL0     C92136   7.411   4.028   1.266  0.1053  0.3677 -0.7011
  683MOL0     C92137   7.487   3.990   1.391  1.0157 -0.5944  0.4377
  683MOL0     H92138   7.774   4.394   0.925  1.0608  2.2097  0.7327
  683MOL0     H92139   8.002   4.449   0.932 -0.2519  1.3332  0.6065
  683MOL0     H92140   8.215   4.439   1.343 -3.4594  2.7511  0.6429
  683MOL0     H92141   8.318   4.534   1.236 -0.4221  3.8757  2.7167
  683MOL0     H92142   8.051   4.600   1.358 -2.0615  1.1155 -1.1798
  683MOL0     H92143   8.084   4.668   1.189  1.7209  2.9320  0.6786
  683MOL0     H92144   8.314   4.749   1.316  0.2461  1.0554  0.9080
  683MOL0     H92145   8.227   4.691   1.451 -0.7326 -3.3156 -1.7627
  683MOL0     H92146   8.125   4.900   1.244 -1.5974 -1.0484 -0.5393
  683MOL0     H92147   8.020   4.832   1.362 -0.4159  3.4434  3.1295
  683MOL0     H92148   8.173   4.907   1.539  1.9535 -2.0150 -0.1358
  683MOL0     H92149   8.299   4.955   1.443 -0.3523  2.6470 -2.4670
  683MOL0     H92150   8.160   5.165   1.363 -1.6585  1.5274  1.0036
  683MOL0     H92151   8.015   5.082   1.434 -0.0070 -2.0012  2.9404
  683MOL0     H92152   8.237   5.146   1.628  0.3687 -2.8464 -0.9871
  683MOL0     H92153   8.066   5.148   1.640  2.9165 -1.9030  2.5491
  683MOL0     H92154   8.151   5.367   1.663  2.1755 -1.7753  1.1571
  683MOL0     H92155   8.221   5.364   1.502  0.0702 -0.8147  0.2487
  683MOL0     H92156   8.062   5.466   1.324 -0.8839  2.3297 -1.5724
  683MOL0     H92157   7.686   5.539   1.325 -0.8387 -0.1846 -1.4792
  683MOL0     H92158   7.835   5.601   1.243  0.3601 -0.8854 -0.1091
  683MOL0     H92159   7.694   5.330   1.201  1.2670 -2.4842 -1.4969
  683MOL0     H92160   7.693   5.455   1.082  0.4254 -0.2975  0.0697
  683MOL0     H92161   7.837   5.273   1.017 -0.2876  0.3157  0.1421
  683MOL0     H92162   7.923   5.282   1.163 -1.4559 -0.6692 -0.7877
  683MOL0     H92163   8.021   5.492   1.122  3.1392  1.8674 -1.8376
  683MOL0     H92164   7.905   5.531   0.990  0.2344 -0.9645 -0.5181
  683MOL0     H92165   8.047   5.653   0.885  0.3484 -1.1244  0.1581
  683MOL0     H92166   8.228   5.782   0.788 -0.5939  1.4329  2.9854
  683MOL0     H92167   8.666   5.768   0.459 -0.8811 -3.3057  1.8375
  683MOL0     H92168   8.871   5.915   0.459  0.6146 -2.1833 -1.5215
  683MOL0     H92169   9.075   5.905   0.439  0.4870  0.9652 -0.2328
  683MOL0     H92170   9.195   5.983   0.532 -0.6388  1.4381  1.4300
  683MOL0     H92171   9.138   5.674   0.528  3.2435 -3.5527  1.9605
  683MOL0     H92172   9.265   5.763   0.448  0.7831 -2.5981  1.8057
  683MOL0     H92173   9.371   5.671   0.613 -2.0392 -1.9068  1.4447
  683MOL0     H92174   9.352   5.835   0.673  1.1032 -0.5313 -2.3759
  683MOL0     H92175   9.130   5.727   0.771 -0.6567 -2.8174 -2.7138
  683MOL0     H92176   9.279   5.729   0.863 -0.7620 -1.6935  0.1773
  683MOL0     H92177   9.337   5.502   0.805  0.8033 -1.1915 -2.9503
  683MOL0     H92178   9.230   5.503   0.665 -2.8922  0.4196  0.1750
  683MOL0     H92179   9.092   5.561   0.918 -1.4097  1.7408 -2.3057
  683MOL0     H92180   9.032   5.482   0.783 -0.8295  3.3010  0.6742
  683MOL0     H92181   9.243   5.324   0.927 -0.3098 -1.1101 -1.6783
  683MOL0     H92182   9.109   5.273   0.825 -1.2992  2.0059 -1.5594
  683MOL0     H92183   9.041   5.414   1.090  1.4477 -0.3270  2.3725
  683MOL0     H92184   8.950   5.279   1.029 -0.5193  0.3351  1.3552
  683MOL0     H92185   8.950   5.824   0.873 -4.9036  2.1683  3.0324
  683MOL0     H92186   8.741   5.709   0.884 -1.0090 -1.5825 -1.0885
  683MOL0     H92187   8.471   5.414   0.787  2.5423  4.6996  0.2665
  683MOL0     H92188   8.269   5.303   0.879  2.7242  0.5023  0.0754
  683MOL0     H92189   8.040   4.330   1.340 -2.4417 -0.5995  2.6662
  683MOL0     H92190   7.800   4.271   1.341 -1.7347 -1.2548 -1.0760
  683MOL0     H92191   7.416   4.190   0.976 -0.1299 -4.0802 -3.5041
  683MOL0     H92192   7.189   4.163   0.977  0.3153 -1.1069 -1.4478
  683MOL0     H92193   7.021   3.943   0.976 -0.1381  2.3094 -2.4867
  683MOL0     H92194   6.954   4.092   0.995  0.6503 -0.9097 -0.7896
  683MOL0     H92195   6.857   3.841   1.141  1.6284 -0.3400  0.3360
  683MOL0     H92196   6.771   3.914   1.007 -4.0474  0.0396  2.2618
  683MOL0     H92197   6.815   4.027   1.273  3.1002 -2.3082 -1.0713
  683MOL0     H92198   6.658   3.961   1.195  1.6441 -1.3736  1.5287
  683MOL0     H92199   6.797   4.222   1.113  2.2812 -1.5979 -3.4370
  683MOL0     H92200   6.658   4.150   1.029  2.0232  0.9322 -0.5216
  683MOL0     H92201   6.499   4.364   1.338  0.4539  1.0302  0.0786
  683MOL0     H92202   7.224   3.953   1.350  2.6442 -0.2295  0.6297
  683MOL0     H92203   7.582   3.945   1.360 -0.5056 -3.0838 -0.9492
  683MOL0     H92204   7.504   4.072   1.461 -0.6443  1.7511 -1.7084
  683MOL0     H92205   7.443   3.908   1.448  0.0987 -0.5905 -0.2313
  684MOL0     O92206   7.211   1.619   8.905 -0.0615  0.5498  0.9619
  684MOL0     C92207   7.294   1.529   8.893  0.2226 -0.6716 -0.1199
  684MOL0     O92208   7.432   1.538   8.905 -0.6197 -0.1232  0.0566
  684MOL0     C92209   7.492   1.660   8.907  0.0745  0.2632 -0.1396
  684MOL0     C92210   7.523   1.715   8.780  0.7664  0.7145 -0.5692
  684MOL0     C92211   7.580   1.841   8.774 -0.3833 -0.5274 -0.0026
  684MOL0     C92212   7.639   1.892   8.887  0.1553 -0.5606 -0.0541
  684MOL0     O92213   7.715   2.004   8.876  0.1074  0.3332 -0.3869
  684MOL0     C92214   7.669   2.111   8.958 -0.6642 -0.7872 -0.8837
  684MOL0     C92215   7.714   2.253   8.926  0.1749  0.5072  0.2501
  684MOL0     C92216   7.664   2.295   8.794  0.4098  0.3972  0.4007
  684MOL0     C92217   7.679   2.443   8.779 -0.0140  0.0649 -0.7739
  684MOL0     C92218   7.665   2.488   8.630  0.0719 -0.0953 -0.5859
  684MOL0     C92219   7.775   2.447   8.533  0.0794  0.6517  0.0263
  684MOL0     C92220   7.913   2.494   8.582  0.5307 -0.6976 -0.5407
  684MOL0     C92221   8.010   2.529   8.467  0.6637 -0.3640  0.2743
  684MOL0     N92222   8.018   2.420   8.380  0.0499 -0.0474 -0.2291
  684MOL0     C92223   7.974   2.420   8.250 -0.6227  0.4664 -0.6350
  684MOL0     C92224   8.042   2.320   8.185  0.0666 -0.3308 -0.3442
  684MOL0     C92225   8.023   2.284   8.039 -0.3812 -0.7014 -0.0460
  684MOL0     C92226   8.087   2.372   7.934  0.2069  0.1479  0.0051
  684MOL0     C92227   8.052   2.318   7.797 -0.8615  0.1158 -0.6890
  684MOL0     C92228   8.121   2.192   7.757  0.1249  0.7324  0.5552
  684MOL0     O92229   8.091   2.184   7.612 -0.1908  0.0983 -0.2369
  684MOL0     C92230   8.155   2.088   7.540 -0.3753 -0.0009 -0.5136
  684MOL0     C92231   8.262   2.007   7.598  0.7232 -0.2348  0.0006
  684MOL0     C92232   8.312   1.912   7.510  0.2602 -0.4462  0.3646
  684MOL0     C92233   8.280   1.902   7.368 -0.5184 -0.3165 -0.2798
  684MOL0     C92234   8.347   1.809   7.274  0.8269 -0.2729  0.3302
  684MOL0     O92235   8.258   1.746   7.184  0.0424 -0.0244  0.5031
  684MOL0     C92236   8.312   1.656   7.100 -0.4831  0.2557 -0.2584
  684MOL0     C92237   8.276   1.671   6.966 -1.2138 -0.1272 -0.7797
  684MOL0     C92238   8.300   1.564   6.873  0.2720  1.0200 -0.0987
  684MOL0     C92239   8.346   1.439   6.927  0.2495 -0.5779  0.3335
  684MOL0     O92240   8.338   1.325   6.850  1.5099  1.1787  0.0245
  684MOL0     C92241   8.369   1.332   6.714  0.7686 -0.6415 -0.0600
  684MOL0     C92242   8.368   1.199   6.643 -0.4296 -0.3040 -0.0495
  684MOL0     C92243   8.234   1.152   6.601  0.3745 -0.1863 -0.4271
  684MOL0     C92244   8.236   1.013   6.541  0.4360  0.3092 -0.0135
  684MOL0     C92245   8.087   0.980   6.508 -0.4884  0.2815 -0.2261
  684MOL0     C92246   8.068   0.843   6.442  0.3328 -0.4975 -0.6327
  684MOL0     C92247   8.053   0.859   6.284 -0.4716  0.2577  0.4962
  684MOL0     C92248   8.168   0.937   6.222 -0.1292 -0.0826 -0.2565
  684MOL0    Cl92249   8.139   0.937   6.033  0.0359  0.2268  0.0224
  684MOL0     C92250   8.386   1.431   7.062 -1.2290 -1.0607  0.2767
  684MOL0     C92251   8.371   1.540   7.145 -1.1605 -0.2400 -0.0004
  684MOL0     O92252   8.472   1.802   7.281  0.4225  0.6939  0.3709
  684MOL0     C92253   8.187   1.989   7.314 -0.2545  0.4633  0.3362
  684MOL0     C92254   8.132   2.079   7.404  0.4950  0.3633  1.3358
  684MOL0     N92255   8.109   2.253   8.281 -0.4336 -0.0586 -0.7396
  684MOL0     N92256   8.112   2.318   8.392  0.1479  0.8595  0.6713
  684MOL0     C92257   7.620   1.834   9.017  0.9131 -0.0066  0.3786
  684MOL0     C92258   7.539   1.723   9.021  0.6317 -0.0105 -0.6370
  684MOL0     C92259   7.240   1.389   8.912 -0.2972  0.1250  0.9721
  684MOL0     C92260   7.234   1.330   9.031  0.8779 -0.0714 -0.0044
  684MOL0     C92261   7.161   1.206   9.040 -0.6652  0.6085 -0.4786
  684MOL0     C92262   7.107   1.134   8.932 -0.9304 -0.5453  0.3866
  684MOL0     O92263   7.023   1.039   8.971 -0.4904  0.3185  0.2718
  684MOL0     C92264   6.902   1.017   8.905 -0.3010 -0.7906 -0.1697
  684MOL0     C92265   6.829   0.919   8.991  0.2276 -1.0287  0.4018
  684MOL0     C92266   6.682   0.920   8.956 -0.2933 -0.2055 -0.5139
  684MOL0     C92267   6.607   0.862   9.076  0.5190 -1.3765 -0.8678
  684MOL0     C92268   6.580   0.964   9.176  0.8298 -0.2546  0.3626
  684MOL0     C92269   6.559   1.051   9.261 -0.2077 -0.3607  0.6544
  684MOL0     C92270   7.113   1.206   8.811 -1.0524  0.3735  0.7590
  684MOL0     C92271   7.187   1.327   8.790  0.0338  0.5886 -0.6813
  684MOL0     C92272   7.188   1.372   8.643 -0.3226 -0.1828 -0.3149
  684MOL0     H92273   7.479   1.656   8.701 -0.4824  1.3816 -0.3946
  684MOL0     H92274   7.586   1.868   8.669 -0.2612 -3.3126 -0.7788
  684MOL0     H92275   7.560   2.110   8.969 -0.4966  0.2235  1.1733
  684MOL0     H92276   7.711   2.090   9.056 -0.7497  2.3642 -0.0397
  684MOL0     H92277   7.824   2.252   8.922  0.1443 -0.0888 -2.6169
  684MOL0     H92278   7.674   2.322   9.001  2.4967 -0.7103  2.7865
  684MOL0     H92279   7.561   2.259   8.786  0.9517 -1.8537  2.2675
  684MOL0     H92280   7.701   2.238   8.708 -1.1755 -1.4029  0.8405
  684MOL0     H92281   7.601   2.492   8.838 -0.9928  1.5990 -3.1724
  684MOL0     H92282   7.772   2.481   8.823 -0.1926  0.2267 -0.5320
  684MOL0     H92283   7.571   2.443   8.596  0.6483 -4.1898  2.4475
  684MOL0     H92284   7.647   2.595   8.616  0.9426  0.0059 -0.9857
  684MOL0     H92285   7.770   2.341   8.505  0.2996  0.7359 -0.3375
  684MOL0     H92286   7.750   2.504   8.443 -0.4845 -1.0916 -0.9809
  684MOL0     H92287   7.954   2.429   8.660  1.9275  1.0049  0.2158
  684MOL0     H92288   7.889   2.586   8.636 -0.9658  0.1128 -2.4597
  684MOL0     H92289   7.978   2.623   8.421  0.8081 -0.5937 -0.3048
  684MOL0     H92290   8.105   2.565   8.508 -0.5112 -0.2194  3.0400
  684MOL0     H92291   7.904   2.493   8.210 -0.0842  4.0126  4.0418
  684MOL0     H92292   8.069   2.186   8.029  1.1529 -0.3039  2.2865
  684MOL0     H92293   7.916   2.285   8.014 -0.0891  0.9316 -1.3505
  684MOL0     H92294   8.032   2.467   7.939 -0.3314 -0.2420  2.5563
  684MOL0     H92295   8.195   2.393   7.940  0.0571  1.2305 -0.7496
  684MOL0     H92296   8.070   2.399   7.726  0.5361  0.4840  0.0291
  684MOL0     H92297   7.944   2.299   7.796 -1.0791  1.2040 -2.5428
  684MOL0     H92298   8.075   2.104   7.803 -1.6304  0.0844 -2.2244
  684MOL0     H92299   8.227   2.203   7.783  0.5629 -1.0982 -0.3452
  684MOL0     H92300   8.291   2.020   7.702 -0.4477  0.9951  0.1955
  684MOL0     H92301   8.380   1.840   7.556  1.1077  1.5712  2.4767
  684MOL0     H92302   8.222   1.757   6.928 -2.4034 -1.5019 -2.3930
  684MOL0     H92303   8.275   1.582   6.769  0.6820  0.7530 -0.2437
  684MOL0     H92304   8.311   1.400   6.651  1.7046 -1.1207 -1.5035
  684MOL0     H92305   8.466   1.382   6.708  0.2117  0.5383  0.5738
  684MOL0     H92306   8.438   1.191   6.560 -2.5511 -1.9936 -1.7828
  684MOL0     H92307   8.406   1.123   6.712 -2.0707 -2.0670 -1.0041
  684MOL0     H92308   8.173   1.150   6.692  3.7592  1.0135  2.0809
  684MOL0     H92309   8.194   1.224   6.529 -1.1691  0.1389  0.7084
  684MOL0     H92310   8.280   0.942   6.611 -2.8678 -4.1080 -2.0048
  684MOL0     H92311   8.289   1.012   6.445 -1.6007  1.5116 -1.2244
  684MOL0     H92312   8.033   1.049   6.443  2.5873  2.5003 -0.6164
  684MOL0     H92313   8.028   0.985   6.601  1.9153 -2.3110  1.6157
  684MOL0     H92314   8.157   0.784   6.463 -0.0653 -0.2522  2.1345
  684MOL0     H92315   7.980   0.790   6.482  1.1926 -0.3950  1.5271
  684MOL0     H92316   7.958   0.909   6.263 -0.4549 -0.1318 -0.5381
  684MOL0     H92317   8.054   0.759   6.241 -0.6855 -0.0395  1.1749
  684MOL0     H92318   8.176   1.043   6.251  1.0721  1.2113 -4.5567
  684MOL0     H92319   8.261   0.887   6.248 -1.6260 -1.4952  2.9418
  684MOL0     H92320   8.435   1.343   7.101  0.0402 -0.1241  0.8634
  684MOL0     H92321   8.413   1.520   7.243 -0.1201  0.8074 -0.2145
  684MOL0     H92322   8.164   1.996   7.208 -0.2064 -2.7504  0.0287
  684MOL0     H92323   8.070   2.152   7.353  0.6747 -1.6222 -1.9943
  684MOL0     H92324   7.653   1.881   9.109  0.0973 -2.1375  1.8459
  684MOL0     H92325   7.518   1.656   9.103 -0.4109 -1.8158 -2.2868
  684MOL0     H92326   7.257   1.393   9.116 -0.0869 -0.7667  0.7962
  684MOL0     H92327   7.129   1.179   9.140  0.3328  2.5590  0.4363
  684MOL0     H92328   6.916   0.977   8.804 -1.9683  1.9642 -1.6102
  684MOL0     H92329   6.851   1.112   8.888  1.5063  0.4331  0.9404
  684MOL0     H92330   6.834   0.953   9.094  1.2909  0.1884 -0.0257
  684MOL0     H92331   6.863   0.818   8.966 -1.7496 -1.7740  0.4913
  684MOL0     H92332   6.656   0.869   8.862 -1.9962  0.6896 -0.5676
  684MOL0     H92333   6.639   1.020   8.948 -2.0664 -0.8599  0.3404
  684MOL0     H92334   6.508   0.820   9.055 -1.0778  3.5893 -5.3593
  684MOL0     H92335   6.662   0.781   9.126 -2.6025 -3.6285 -0.7719
  684MOL0     H92336   6.527   1.131   9.325 -1.9138  0.9728 -1.7224
  684MOL0     H92337   7.060   1.173   8.722  3.7343  0.9618 -2.7316
  684MOL0     H92338   7.122   1.309   8.584  0.8732 -2.5444  0.7429
  684MOL0     H92339   7.156   1.476   8.631 -0.8402 -0.4280 -1.1276
  684MOL0     H92340   7.288   1.355   8.603 -1.1576 -2.2852 -1.6703
  685MOL0     O92341   8.861   3.576   7.764 -0.3530  0.8472  0.5180
  685MOL0     C92342   8.877   3.458   7.733 -0.5516 -0.5405  0.1884
  685MOL0     O92343   8.789   3.358   7.740  0.5349  0.3451 -0.2132
  685MOL0     C92344   8.673   3.390   7.806 -0.1976  0.5593  0.3004
  685MOL0     C92345   8.672   3.370   7.947  0.0073  0.2590 -0.0995
  685MOL0     C92346   8.562   3.422   8.023 -0.5827 -1.4742  0.6242
  685MOL0     C92347   8.443   3.457   7.956 -1.0179  0.0120  0.5892
  685MOL0     O92348   8.329   3.491   8.030  0.2412  0.1019  0.5962
  685MOL0     C92349   8.337   3.580   8.147 -0.5458  0.1646 -0.0831
  685MOL0     C92350   8.195   3.625   8.198 -0.4158 -0.4944 -0.3846
  685MOL0     C92351   8.205   3.710   8.330  0.1563  0.3659  0.4893
  685MOL0     C92352   8.081   3.789   8.352 -0.7123  0.1965  0.0245
  685MOL0     C92353   8.080   3.841   8.500 -0.1159  0.3399 -0.3033
  685MOL0     C92354   7.959   3.897   8.564 -0.3232 -0.0120  0.9002
  685MOL0     C92355   7.876   3.996   8.466 -0.3399  0.2495 -0.6108
  685MOL0     C92356   7.760   4.061   8.540  0.3127 -0.8108 -0.6741
  685MOL0     N92357   7.799   4.125   8.665  0.4451 -0.4809  1.0326
  685MOL0     C92358   7.829   4.066   8.790  0.8538  1.1557  0.3492
  685MOL0     C92359   7.795   4.155   8.881 -0.2006 -0.0070  0.5643
  685MOL0     C92360   7.804   4.134   9.023 -0.4395 -0.3835 -0.1137
  685MOL0     C92361   7.691   4.032   9.060  0.1023 -0.3329 -0.2514
  685MOL0     C92362   7.649   4.038   9.203  0.1296  0.3321 -0.6685
  685MOL0     C92363   7.549   3.925   9.242  1.2160  0.0763  0.1824
  685MOL0     O92364   7.476   3.979   9.353 -0.0861  0.1627  0.5067
  685MOL0     C92365   7.382   3.894   9.408  0.2052 -0.5655  0.1349
  685MOL0     C92366   7.314   3.798   9.337  0.3829 -0.0364  0.1911
  685MOL0     C92367   7.202   3.734   9.384 -1.1731  0.4500 -0.1495
  685MOL0     C92368   7.186   3.744   9.533  0.0541  0.6566 -0.4151
  685MOL0     C92369   7.080   3.651   9.599 -0.7559  0.7792  0.2175
  685MOL0     O92370   7.071   3.657   9.737  0.0471 -0.3120  0.3837
  685MOL0     C92371   6.974   3.583   9.798  0.0058 -0.4440  0.5613
  685MOL0     C92372   6.844   3.626   9.786  0.1950  0.1086  0.2136
  685MOL0     C92373   6.739   3.566   9.854  0.7113 -0.5929  0.3912
  685MOL0     C92374   6.768   3.460   9.943  0.1138  1.2335  0.3623
  685MOL0     O92375   6.665   3.408  10.011 -0.1805 -0.9520 -0.0303
  685MOL0     C92376   6.647   3.268  10.008 -0.2039  0.3338  0.3661
  685MOL0     C92377   6.624   3.225   9.860 -0.0731 -0.8324 -0.3003
  685MOL0     C92378   6.591   3.075   9.852 -0.9637  0.4351 -0.8709
  685MOL0     C92379   6.565   3.038   9.709  0.7139  0.1188 -0.2068
  685MOL0     C92380   6.473   3.127   9.620 -1.5346 -0.2837  0.1877
  685MOL0     C92381   6.335   3.147   9.688 -0.4586 -0.3373 -0.0169
  685MOL0     C92382   6.258   3.268   9.634  1.1701 -0.1900  0.5731
  685MOL0     C92383   6.134   3.275   9.720  0.6089  0.7506 -0.6739
  685MOL0    Cl92384   6.167   3.315   9.887  0.1273 -0.4805  0.4606
  685MOL0     C92385   6.904   3.420   9.972  0.3854 -0.5146  0.2509
  685MOL0     C92386   7.004   3.474   9.887 -0.0352  0.5814 -0.3717
  685MOL0     O92387   7.005   3.579   9.528  0.9981 -0.0304  0.5920
  685MOL0     C92388   7.264   3.827   9.613  0.0033 -0.4373 -0.0766
  685MOL0     C92389   7.357   3.915   9.549  0.1613  0.8502 -0.3768
  685MOL0     N92390   7.743   4.266   8.816 -0.1901  0.2922 -0.0783
  685MOL0     N92391   7.763   4.251   8.690  0.2382 -0.1243  0.2882
  685MOL0     C92392   8.439   3.471   7.821 -0.0752  0.1855 -0.0322
  685MOL0     C92393   8.549   3.437   7.738 -0.5613  0.2192 -0.7320
  685MOL0     C92394   9.005   3.425   7.669  0.0542  0.7846 -1.2624
  685MOL0     C92395   9.059   3.305   7.696  0.8419 -0.2605  0.4775
  685MOL0     C92396   9.175   3.258   7.634  0.2272 -0.3207 -0.4451
  685MOL0     C92397   9.244   3.342   7.552  0.5236  0.2488  0.9381
  685MOL0     O92398   9.346   3.293   7.471 -0.6270  0.2935 -0.6374
  685MOL0     C92399   9.437   3.202   7.525  0.8167 -0.8284 -0.0517
  685MOL0     C92400   9.511   3.132   7.411  0.6257  0.0473 -0.2440
  685MOL0     C92401   9.624   3.223   7.357  0.3859 -0.2773 -0.1781
  685MOL0     C92402   9.682   3.159   7.223 -0.6802  0.2599  0.9305
  685MOL0     C92403   9.723   3.018   7.243 -0.2531  0.5730 -0.3851
  685MOL0     C92404   9.750   2.896   7.270  1.4331  0.1336  1.1279
  685MOL0     C92405   9.202   3.474   7.524 -0.1011 -0.8653  0.3491
  685MOL0     C92406   9.088   3.509   7.589  0.7305  0.5685 -1.0235
  685MOL0     C92407   9.046   3.652   7.558  0.3699  0.1310  0.5244
  685MOL0     H92408   8.760   3.334   7.998 -0.5854 -2.8840 -1.1121
  685MOL0     H92409   8.554   3.421   8.131 -0.9587 -0.1208  0.6253
  685MOL0     H92410   8.382   3.526   8.231 -0.3121 -1.0439 -0.9646
  685MOL0     H92411   8.407   3.663   8.133  2.4163 -1.7332  2.2136
  685MOL0     H92412   8.129   3.540   8.217  2.1398 -2.3042  0.9754
  685MOL0     H92413   8.158   3.694   8.122 -0.5306  1.2493  1.1691
  685MOL0     H92414   8.284   3.785   8.337  0.8269 -0.2062 -0.6325
  685MOL0     H92415   8.221   3.633   8.406 -3.3027 -2.3922 -1.2528
  685MOL0     H92416   8.073   3.869   8.278 -0.0804 -2.0041 -2.5693
  685MOL0     H92417   8.003   3.723   8.313  1.5299 -0.7466 -3.3028
  685MOL0     H92418   8.127   3.769   8.567  1.6916 -0.3400 -2.1965
  685MOL0     H92419   8.148   3.926   8.504 -0.3010  0.4385  2.6875
  685MOL0     H92420   7.894   3.816   8.599 -1.4744  0.3887 -0.2236
  685MOL0     H92421   8.001   3.960   8.643  1.8175  0.8790 -0.8336
  685MOL0     H92422   7.838   3.931   8.387  1.8022 -1.1154 -0.5979
  685MOL0     H92423   7.947   4.071   8.429  4.0175 -3.5570 -0.8335
  685MOL0     H92424   7.714   4.138   8.477 -1.8042  0.9491  2.7178
  685MOL0     H92425   7.675   3.993   8.551 -0.9191  0.5338 -1.5405
  685MOL0     H92426   7.844   3.960   8.805  0.2461  0.3753 -3.5357
  685MOL0     H92427   7.898   4.096   9.063  0.9128  2.1634 -0.6556
  685MOL0     H92428   7.789   4.234   9.067 -0.1186  0.0971 -1.0656
  685MOL0     H92429   7.601   4.052   9.002  1.2994  0.8943 -1.8122
  685MOL0     H92430   7.728   3.934   9.028  0.7175  0.4620 -2.1127
  685MOL0     H92431   7.602   4.134   9.225  0.8281  0.7151 -0.8010
  685MOL0     H92432   7.738   4.024   9.266  1.2821  1.4422 -1.9667
  685MOL0     H92433   7.592   3.829   9.273  0.5273 -1.2750 -2.6880
  685MOL0     H92434   7.487   3.906   9.154  1.1902  0.9395  0.0037
  685MOL0     H92435   7.332   3.780   9.232  1.0013 -0.2753  0.3381
  685MOL0     H92436   7.143   3.667   9.323  0.6782  2.2802 -4.3034
  685MOL0     H92437   6.827   3.710   9.720  3.3919  0.0988 -0.7936
  685MOL0     H92438   6.639   3.604   9.838  0.9539 -0.6979 -1.7137
  685MOL0     H92439   6.730   3.205  10.042  0.9275  1.9751  0.7657
  685MOL0     H92440   6.566   3.237  10.075  0.7022  0.3374  1.5002
  685MOL0     H92441   6.557   3.298   9.813  1.4921  2.4726  2.1644
  685MOL0     H92442   6.716   3.243   9.805  1.4878  1.9104  2.8221
  685MOL0     H92443   6.675   3.021   9.896  1.1055  4.9678  1.3514
  685MOL0     H92444   6.510   3.048   9.922 -2.1471 -2.0868 -3.0177
  685MOL0     H92445   6.521   2.938   9.710  1.6282 -0.3010  0.7983
  685MOL0     H92446   6.665   3.040   9.665 -0.0546 -0.5183 -2.0745
  685MOL0     H92447   6.450   3.069   9.530 -0.4275 -1.1146  0.4086
  685MOL0     H92448   6.523   3.218   9.585 -2.7873 -0.2093 -1.5692
  685MOL0     H92449   6.271   3.060   9.676  0.9524 -1.3040 -0.8049
  685MOL0     H92450   6.351   3.167   9.794 -0.2766 -1.8690  0.2641
  685MOL0     H92451   6.216   3.240   9.537  1.9509  0.5787  0.0031
  685MOL0     H92452   6.311   3.363   9.636 -1.2452  1.2426  1.5955
  685MOL0     H92453   6.051   3.343   9.694 -0.4717 -0.2348  0.0944
  685MOL0     H92454   6.095   3.174   9.734  0.6424  0.8197 -0.0795
  685MOL0     H92455   6.922   3.343  10.047 -1.9947 -0.8075  0.5884
  685MOL0     H92456   7.109   3.483   9.911  0.1165 -0.8970 -0.4081
  685MOL0     H92457   7.264   3.832   9.722  3.3361 -3.4500  0.2619
  685MOL0     H92458   7.405   3.991   9.609  0.6200 -0.5741  1.1446
  685MOL0     H92459   8.342   3.505   7.787 -1.1003 -1.4173  1.1879
  685MOL0     H92460   8.540   3.450   7.630 -1.0489  1.1324 -0.5908
  685MOL0     H92461   9.005   3.239   7.762 -0.3139  0.3507  0.1786
  685MOL0     H92462   9.198   3.158   7.669 -1.1049  0.0590  1.6730
  685MOL0     H92463   9.400   3.129   7.598 -0.1212 -0.3062  0.0105
  685MOL0     H92464   9.513   3.257   7.582  1.0004 -1.2925  0.1557
  685MOL0     H92465   9.443   3.104   7.330 -0.0679  3.7468 -1.1023
  685MOL0     H92466   9.570   3.049   7.451  4.0361  0.9552 -2.9235
  685MOL0     H92467   9.702   3.227   7.434  1.7064 -3.1150 -1.2279
  685MOL0     H92468   9.577   3.320   7.334 -1.4986 -1.6095 -2.3484
  685MOL0     H92469   9.593   3.165   7.159 -1.0632  0.1026  1.4401
  685MOL0     H92470   9.768   3.214   7.182  0.0739 -0.5201  1.4375
  685MOL0     H92471   9.786   2.796   7.281  4.9873  1.1926  0.7542
  685MOL0     H92472   9.268   3.532   7.460 -0.2619 -1.2496 -0.1746
  685MOL0     H92473   8.946   3.666   7.517  0.7172 -3.4154 -1.9450
  685MOL0     H92474   9.052   3.709   7.651  1.4659 -2.2087  1.9973
  685MOL0     H92475   9.116   3.691   7.484  0.3346  0.4360  0.6506
  686MOL0     O92476   4.026   8.024   5.849 -0.4483 -1.3637  0.9467
  686MOL0     C92477   4.030   7.917   5.790 -0.2524 -0.4851  0.1993
  686MOL0     O92478   4.067   7.898   5.658 -0.2212 -0.0909  0.4169
  686MOL0     C92479   4.084   8.021   5.593 -0.3512 -0.3680 -0.3837
  686MOL0     C92480   4.199   8.104   5.598 -0.3120  0.3939 -0.9513
  686MOL0     C92481   4.208   8.225   5.520  0.6753 -0.5136 -0.6857
  686MOL0     C92482   4.095   8.268   5.452  0.6835  0.0826 -0.6350
  686MOL0     O92483   4.095   8.395   5.392  0.7869 -0.1535  1.0759
  686MOL0     C92484   3.964   8.469   5.395 -0.1859 -0.3114  0.2827
  686MOL0     C92485   3.991   8.608   5.347  0.1298 -0.4576 -0.0671
  686MOL0     C92486   4.066   8.687   5.456  0.4006 -0.0013 -0.1220
  686MOL0     C92487   4.219   8.699   5.421  0.5544 -0.2696 -0.1705
  686MOL0     C92488   4.282   8.807   5.514 -0.2056  0.6974 -0.1644
  686MOL0     C92489   4.435   8.794   5.506  1.2174  0.0769 -0.3007
  686MOL0     C92490   4.515   8.899   5.584  0.2811 -0.3413 -0.4136
  686MOL0     C92491   4.665   8.874   5.572  0.4371  0.4263  1.3871
  686MOL0     N92492   4.738   8.970   5.486 -0.5393  0.3506 -0.0779
  686MOL0     C92493   4.862   9.022   5.522 -0.2665 -0.3379  0.1805
  686MOL0     C92494   4.913   9.074   5.410 -0.1525  0.6032 -0.0500
  686MOL0     C92495   5.042   9.157   5.404 -0.2089  1.4570  1.0062
  686MOL0     C92496   5.024   9.307   5.415  0.1300 -1.0178 -0.1100
  686MOL0     C92497   5.163   9.373   5.409  0.8965  0.3006  0.8295
  686MOL0     C92498   5.157   9.530   5.365  0.0016  0.3462  0.6929
  686MOL0     O92499   5.113   9.543   5.224  0.2045 -0.5096  0.2549
  686MOL0     C92500   5.185   9.622   5.142 -0.0426  0.1864  0.1244
  686MOL0     C92501   5.191   9.568   5.014 -0.0256  0.3997  0.7484
  686MOL0     C92502   5.260   9.641   4.914 -0.0360 -0.1858  0.0228
  686MOL0     C92503   5.320   9.765   4.940  0.2184 -0.5450  0.1641
  686MOL0     C92504   5.370   9.846   4.824  0.4377 -0.0091 -0.2069
  686MOL0     O92505   5.406   9.970   4.856  0.2818  0.2330 -0.1000
  686MOL0     C92506   5.471  10.059   4.787 -0.0570  1.0892 -0.0632
  686MOL0     C92507   5.391  10.147   4.709 -0.2096 -0.2788 -0.7709
  686MOL0     C92508   5.460  10.244   4.635  0.0685 -0.1947 -0.5220
  686MOL0     C92509   5.595  10.269   4.635 -0.7043  1.1701 -0.5784
  686MOL0     O92510   5.654  10.365   4.562  0.2805  0.2041 -0.3269
  686MOL0     C92511   5.785  10.358   4.503 -0.4164  0.3170  0.3516
  686MOL0     C92512   5.899  10.430   4.586  0.0553 -0.6182  0.3873
  686MOL0     C92513   5.844  10.568   4.643  0.1254  0.0521  0.9508
  686MOL0     C92514   5.955  10.632   4.733  0.0911 -0.1733  0.0137
  686MOL0     C92515   5.958  10.580   4.879 -0.2722 -0.9922 -0.0957
  686MOL0     C92516   5.838  10.616   4.968 -0.7489  0.4097 -0.3967
  686MOL0     C92517   5.811  10.764   4.973 -0.5659  0.3465  0.3056
  686MOL0     C92518   5.693  10.777   5.074 -0.0459  0.2064  0.8107
  686MOL0    Cl92519   5.536  10.700   5.013  0.4039 -0.0057 -0.0688
  686MOL0     C92520   5.670  10.188   4.722  0.8565  0.2068  0.0382
  686MOL0     C92521   5.610  10.082   4.793 -0.4164  0.2675 -0.6220
  686MOL0     O92522   5.380   9.794   4.705 -0.0164  0.0997 -0.7115
  686MOL0     C92523   5.334   9.813   5.068  0.9952 -0.5419 -1.1512
  686MOL0     C92524   5.259   9.743   5.168  0.3980 -0.5546 -0.2810
  686MOL0     N92525   4.830   9.051   5.304  0.4517  0.1304 -0.0026
  686MOL0     N92526   4.731   8.980   5.351  0.0096  0.6866 -0.4786
  686MOL0     C92527   3.979   8.183   5.453 -1.1634  0.5015  0.6874
  686MOL0     C92528   3.972   8.062   5.527 -1.6601 -0.2543  0.8037
  686MOL0     C92529   3.993   7.790   5.865 -1.2773  0.1993 -0.8688
  686MOL0     C92530   3.960   7.791   6.002  0.8342  1.0531  0.1227
  686MOL0     C92531   3.900   7.680   6.064 -0.4446  0.9136  0.0767
  686MOL0     C92532   3.894   7.556   5.998  0.2582  0.5186  0.0859
  686MOL0     O92533   3.840   7.439   6.052 -0.3553  0.4254  0.8296
  686MOL0     C92534   3.772   7.447   6.179  1.0415  0.1421 -0.1105
  686MOL0     C92535   3.733   7.318   6.228 -0.7136  0.4757  0.1522
  686MOL0     C92536   3.679   7.325   6.378  0.0086  0.1168 -0.3362
  686MOL0     C92537   3.646   7.193   6.434  0.1246 -0.1902  1.2873
  686MOL0     C92538   3.543   7.127   6.357  0.2925 -0.3329  0.1732
  686MOL0     C92539   3.454   7.073   6.299  0.6142 -0.3019  0.4359
  686MOL0     C92540   3.937   7.543   5.870 -0.0879 -0.6191  0.2584
  686MOL0     C92541   3.977   7.661   5.805  0.0723 -0.0981 -0.0876
  686MOL0     C92542   3.991   7.638   5.659 -0.9641 -0.5204 -0.4657
  686MOL0     H92543   4.280   8.075   5.664 -2.2377  0.4453  1.5952
  686MOL0     H92544   4.298   8.287   5.528  1.0471 -1.2801  2.3809
  686MOL0     H92545   3.873   8.443   5.341 -1.0922  1.3933  0.9192
  686MOL0     H92546   3.933   8.469   5.500 -0.4381 -1.5419  0.2257
  686MOL0     H92547   3.896   8.658   5.325  0.7904  0.9145  0.1022
  686MOL0     H92548   4.049   8.610   5.254  0.0820 -2.5419 -0.1805
  686MOL0     H92549   4.040   8.654   5.557  0.5495  0.9300  0.2339
  686MOL0     H92550   4.021   8.787   5.451  0.3986  0.0974  1.4658
  686MOL0     H92551   4.268   8.601   5.422 -0.2029 -0.6540  0.7474
  686MOL0     H92552   4.234   8.723   5.316 -0.9837  1.7832  0.0234
  686MOL0     H92553   4.235   8.902   5.489  1.3052  0.9161 -2.5681
  686MOL0     H92554   4.246   8.772   5.611 -0.7410 -3.2537 -1.6135
  686MOL0     H92555   4.467   8.697   5.544 -0.0636  0.2749  1.3347
  686MOL0     H92556   4.463   8.812   5.401  0.7243  1.5874 -0.1977
  686MOL0     H92557   4.492   8.880   5.689  3.4470 -0.2561  0.3933
  686MOL0     H92558   4.496   9.003   5.554  1.6245  0.2078  0.5256
  686MOL0     H92559   4.694   8.886   5.677  2.0469 -0.0907  1.0229
  686MOL0     H92560   4.698   8.775   5.539  3.5361  1.0797  2.2449
  686MOL0     H92561   4.914   9.017   5.618  2.1160 -0.2356 -1.0444
  686MOL0     H92562   5.103   9.117   5.485 -0.3610 -2.0009 -0.4091
  686MOL0     H92563   5.098   9.142   5.311 -0.9987  3.1343  0.2198
  686MOL0     H92564   4.962   9.342   5.332 -0.6486 -2.5251 -0.2086
  686MOL0     H92565   4.979   9.340   5.509  3.8895 -0.1974  1.6122
  686MOL0     H92566   5.238   9.323   5.348  1.2724  0.4495  1.1701
  686MOL0     H92567   5.212   9.370   5.507 -1.9042 -0.0529  2.3530
  686MOL0     H92568   5.252   9.580   5.384  1.4488 -2.1673  0.5885
  686MOL0     H92569   5.083   9.585   5.423 -2.0845 -3.6986  2.2671
  686MOL0     H92570   5.162   9.466   4.993  1.5816  0.0317  0.1495
  686MOL0     H92571   5.271   9.575   4.828  3.6914 -0.5645  0.6199
  686MOL0     H92572   5.282  10.149   4.716 -0.1024  0.4804  2.4408
  686MOL0     H92573   5.413  10.312   4.565  1.9332 -0.4037 -2.0644
  686MOL0     H92574   5.811  10.256   4.473  1.8327  1.5793 -2.4233
  686MOL0     H92575   5.788  10.412   4.408  3.6658  0.3983  0.3337
  686MOL0     H92576   5.932  10.369   4.670 -1.4615 -0.0011  1.4932
  686MOL0     H92577   5.994  10.453   4.537 -0.8796  4.2476  0.2678
  686MOL0     H92578   5.825  10.634   4.558 -0.4868 -0.9637  0.2794
  686MOL0     H92579   5.748  10.557   4.695 -1.1316 -1.4750 -1.4967
  686MOL0     H92580   5.951  10.741   4.739  3.1869  0.0609 -0.6473
  686MOL0     H92581   6.052  10.610   4.688  0.6901 -1.0197  1.6246
  686MOL0     H92582   6.052  10.609   4.926 -0.5056 -1.1575  0.4901
  686MOL0     H92583   5.965  10.472   4.864 -0.1753 -0.5626 -4.4359
  686MOL0     H92584   5.754  10.559   4.926 -0.3177  1.2065 -2.4475
  686MOL0     H92585   5.853  10.578   5.069  3.5183 -1.9952 -1.6908
  686MOL0     H92586   5.791  10.805   4.874  3.0979  0.4432 -0.5127
  686MOL0     H92587   5.897  10.824   5.004 -1.4595  2.4714 -1.1488
  686MOL0     H92588   5.713  10.723   5.167  3.8187 -2.6585 -1.3629
  686MOL0     H92589   5.676  10.883   5.094 -0.8643  0.3907 -0.6664
  686MOL0     H92590   5.776  10.209   4.726  0.6672  2.1229 -2.3016
  686MOL0     H92591   5.670  10.023   4.862 -0.0082  2.2548  0.8037
  686MOL0     H92592   5.403   9.892   5.096 -0.5057 -0.2119  2.0756
  686MOL0     H92593   5.272   9.770   5.272 -2.8632 -1.8410  0.6071
  686MOL0     H92594   3.895   8.209   5.389  0.7184  1.3406 -1.6174
  686MOL0     H92595   3.878   8.008   5.536 -1.0708 -1.3588  0.4733
  686MOL0     H92596   3.970   7.882   6.061 -0.3669  1.3595 -0.1102
  686MOL0     H92597   3.872   7.686   6.169  2.5138 -0.8766  1.0815
  686MOL0     H92598   3.682   7.508   6.175  0.7930 -0.3087 -2.3214
  686MOL0     H92599   3.848   7.485   6.249  0.3269  0.4311  0.5271
  686MOL0     H92600   3.822   7.254   6.232 -2.0216 -1.6615 -2.2944
  686MOL0     H92601   3.660   7.281   6.156 -0.6396 -1.0586  0.8327
  686MOL0     H92602   3.588   7.386   6.381 -0.5951 -0.6757  4.0917
  686MOL0     H92603   3.748   7.383   6.439 -3.1699  3.0534  0.7859
  686MOL0     H92604   3.741   7.139   6.424 -0.4732 -1.6378  2.9411
  686MOL0     H92605   3.625   7.195   6.542 -2.3642  0.7457  0.8532
  686MOL0     H92606   3.381   7.026   6.236 -0.7782  2.0231  0.1940
  686MOL0     H92607   3.935   7.442   5.830  2.6292 -1.0772  1.0899
  686MOL0     H92608   4.095   7.623   5.627 -0.6489  0.5471  0.0074
  686MOL0     H92609   3.947   7.539   5.644  1.0312 -1.7598  1.2813
  686MOL0     H92610   3.941   7.708   5.592 -0.4607 -2.0228 -2.5223
  687MOL0     O92611  11.131   5.510   6.857 -0.3912 -0.0726  0.0451
  687MOL0     C92612  11.111   5.416   6.935  0.2228 -0.7950  0.1481
  687MOL0     O92613  11.012   5.408   7.031  0.1819  0.2258 -0.0663
  687MOL0     C92614  10.923   5.517   7.030 -0.2238  0.3452 -0.0621
  687MOL0     C92615  10.832   5.541   6.923 -0.0133  0.4741 -0.5232
  687MOL0     C92616  10.724   5.634   6.945 -0.1821 -0.0067  0.5193
  687MOL0     C92617  10.702   5.686   7.073  1.0913  0.2576  0.0157
  687MOL0     O92618  10.576   5.747   7.085  1.0477  0.5433  0.8700
  687MOL0     C92619  10.533   5.795   7.211  0.0030  0.1178  0.6687
  687MOL0     C92620  10.392   5.857   7.207  1.2730  1.6348 -0.4428
  687MOL0     C92621  10.362   5.929   7.340 -0.3398  0.0356 -0.0513
  687MOL0     C92622  10.224   5.972   7.353  0.7127  0.2361  0.0320
  687MOL0     C92623  10.170   5.939   7.497  0.1596 -0.1185  0.2274
  687MOL0     C92624  10.219   6.057   7.597  0.2254 -0.6252  0.3074
  687MOL0     C92625  10.148   6.049   7.731 -0.2062 -0.4320  0.1999
  687MOL0     C92626   9.995   6.052   7.712  0.6117 -0.3877  0.5580
  687MOL0     N92627   9.927   6.078   7.830  0.9444 -0.4628  0.6183
  687MOL0     C92628   9.930   6.193   7.905 -0.4369  0.7882  0.1861
  687MOL0     C92629   9.830   6.180   7.994  0.6293 -0.4309  0.0155
  687MOL0     C92630   9.808   6.252   8.118 -0.6143 -0.1242  0.3350
  687MOL0     C92631   9.660   6.306   8.112 -0.1207 -0.0197  0.0127
  687MOL0     C92632   9.650   6.434   8.037 -0.1921 -0.2644  0.1512
  687MOL0     C92633   9.507   6.485   8.072 -0.8871  0.5578  0.4096
  687MOL0     O92634   9.488   6.547   8.201  0.4297  0.6522  0.0784
  687MOL0     C92635   9.367   6.516   8.254  0.0823  0.7781 -0.3313
  687MOL0     C92636   9.287   6.397   8.255 -0.7183 -0.9980  0.8108
  687MOL0     C92637   9.158   6.392   8.313 -0.0777  0.0866  0.0146
  687MOL0     C92638   9.117   6.503   8.388  0.5273 -0.1608  0.0916
  687MOL0     C92639   8.984   6.506   8.459 -0.1212  0.2080 -1.1107
  687MOL0     O92640   8.907   6.388   8.455 -0.6351 -0.6556 -0.1693
  687MOL0     C92641   8.812   6.363   8.548 -0.1790 -0.9510  0.0280
  687MOL0     C92642   8.715   6.284   8.500  1.0448  0.3321  0.3810
  687MOL0     C92643   8.604   6.230   8.586 -0.2507 -0.1066 -0.2300
  687MOL0     C92644   8.590   6.279   8.714  0.5001  0.4096  0.0767
  687MOL0     O92645   8.497   6.237   8.794 -0.5398 -0.2897 -0.9878
  687MOL0     C92646   8.361   6.200   8.753 -0.5011  0.0055  0.2087
  687MOL0     C92647   8.281   6.217   8.881  0.1969  0.1481  0.3537
  687MOL0     C92648   8.125   6.204   8.854 -0.3922  0.4297  0.0304
  687MOL0     C92649   8.044   6.286   8.957  0.5894 -0.0278 -0.5208
  687MOL0     C92650   7.895   6.280   8.929  0.4700  0.7212  0.0235
  687MOL0     C92651   7.844   6.133   8.941  0.1822  0.4183  0.0169
  687MOL0     C92652   7.873   6.065   9.076 -0.5575  1.1632  0.0460
  687MOL0     C92653   7.789   5.946   9.113 -0.4098 -0.4456 -0.2734
  687MOL0    Cl92654   7.839   5.819   9.007  0.5555 -0.3323 -0.3393
  687MOL0     C92655   8.685   6.368   8.762  0.1220 -1.3300 -0.5634
  687MOL0     C92656   8.794   6.410   8.679 -0.0619 -0.1099  0.5034
  687MOL0     O92657   8.958   6.607   8.525  0.2991 -0.4597 -0.1662
  687MOL0     C92658   9.202   6.614   8.408  0.3257 -0.1841  0.1820
  687MOL0     C92659   9.321   6.622   8.335 -0.4220 -0.2900 -0.0219
  687MOL0     N92660   9.762   6.066   7.967  0.0812  0.3162  0.3928
  687MOL0     N92661   9.826   5.997   7.881 -0.1747  0.5019 -0.4768
  687MOL0     C92662  10.787   5.665   7.179 -0.8828  0.9471  0.1630
  687MOL0     C92663  10.905   5.589   7.152  0.2656 -0.3139 -0.9169
  687MOL0     C92664  11.212   5.314   6.923  0.8764  0.6541  0.0083
  687MOL0     C92665  11.317   5.297   7.019 -0.2196 -0.3778 -0.1530
  687MOL0     C92666  11.383   5.175   7.020 -1.0111  0.0523 -0.6101
  687MOL0     C92667  11.353   5.060   6.945  0.5937 -0.2774  0.7642
  687MOL0     O92668  11.410   4.938   6.953 -0.5922 -0.0663  0.7088
  687MOL0     C92669  11.535   4.935   7.033  0.5046  0.4998  0.1019
  687MOL0     C92670  11.599   4.792   7.045 -0.6727  0.0247 -0.2220
  687MOL0     C92671  11.520   4.685   7.114  0.5079  0.3085  0.0846
  687MOL0     C92672  11.597   4.609   7.227 -0.1302  0.5463  0.5455
  687MOL0     C92673  11.632   4.706   7.334 -0.4131 -0.9033 -0.2603
  687MOL0     C92674  11.645   4.779   7.438  0.1507  0.4038 -0.0720
  687MOL0     C92675  11.252   5.087   6.847 -0.3674 -0.4843  1.1445
  687MOL0     C92676  11.180   5.207   6.839 -0.1213 -0.5577 -0.1731
  687MOL0     C92677  11.064   5.209   6.743  0.5117  0.5145  0.6548
  687MOL0     H92678  10.854   5.468   6.845  1.5874  1.8166 -1.4007
  687MOL0     H92679  10.669   5.663   6.856  1.3631 -0.9661 -0.7963
  687MOL0     H92680  10.532   5.720   7.291 -1.3763  2.3613  2.8788
  687MOL0     H92681  10.596   5.880   7.237 -0.0541  0.3948 -0.0695
  687MOL0     H92682  10.329   5.767   7.203  2.0775  1.1004 -2.4775
  687MOL0     H92683  10.369   5.917   7.119 -2.7162 -0.1372 -0.8315
  687MOL0     H92684  10.413   6.025   7.345 -0.6389  0.1270  2.3865
  687MOL0     H92685  10.385   5.865   7.426  0.6343 -2.2239 -1.9069
  687MOL0     H92686  10.213   6.081   7.344 -0.6182  0.1818  0.7724
  687MOL0     H92687  10.171   5.918   7.274  0.5930 -2.3752  1.7878
  687MOL0     H92688  10.061   5.944   7.492  0.2317  0.3215 -1.3277
  687MOL0     H92689  10.183   5.835   7.527 -1.4049 -0.6821 -0.8935
  687MOL0     H92690  10.324   6.028   7.607 -0.1353 -1.5862  1.6329
  687MOL0     H92691  10.206   6.155   7.551  1.0887 -1.4090 -1.7268
  687MOL0     H92692  10.186   6.133   7.789 -4.2497  1.7412  0.0230
  687MOL0     H92693  10.183   5.954   7.774 -1.8066 -1.5706 -0.8805
  687MOL0     H92694   9.978   6.128   7.636  7.2420  1.5534  0.4007
  687MOL0     H92695   9.954   5.959   7.674 -1.0028  1.3048 -2.1241
  687MOL0     H92696  10.011   6.263   7.888 -0.2238  0.7557  1.0321
  687MOL0     H92697   9.839   6.188   8.202 -2.4918  1.6000  2.4867
  687MOL0     H92698   9.877   6.337   8.115 -0.0947 -0.4450  2.0896
  687MOL0     H92699   9.589   6.236   8.066 -0.6542  1.0573 -0.8448
  687MOL0     H92700   9.637   6.312   8.218  2.9971  1.5804  0.7052
  687MOL0     H92701   9.649   6.414   7.930  0.4048 -1.8482  0.4120
  687MOL0     H92702   9.727   6.509   8.060 -0.2213  1.2742 -3.9536
  687MOL0     H92703   9.440   6.401   8.049 -1.1901  1.2920 -1.6545
  687MOL0     H92704   9.480   6.559   7.995  1.9824  3.2842  1.7839
  687MOL0     H92705   9.321   6.315   8.192 -0.2821  0.0493 -0.3474
  687MOL0     H92706   9.108   6.296   8.309 -0.2689  0.2159 -0.7464
  687MOL0     H92707   8.725   6.247   8.398 -0.0958 -0.6669  0.6099
  687MOL0     H92708   8.536   6.149   8.562 -1.6402  1.1810 -0.7984
  687MOL0     H92709   8.333   6.277   8.681  4.0232  3.5403  1.7149
  687MOL0     H92710   8.354   6.096   8.718  0.1438  0.1100 -0.2541
  687MOL0     H92711   8.298   6.131   8.947 -2.1333  0.4029  1.3911
  687MOL0     H92712   8.306   6.304   8.943 -1.5315  0.5255  0.5600
  687MOL0     H92713   8.087   6.224   8.753  0.6928 -0.8649 -0.6717
  687MOL0     H92714   8.101   6.100   8.876  2.3154  0.1204  2.0228
  687MOL0     H92715   8.058   6.395   8.952 -3.3834  0.5989 -1.1389
  687MOL0     H92716   8.073   6.260   9.060 -0.1047  0.0326 -0.3077
  687MOL0     H92717   7.883   6.317   8.827  2.2870  1.9988  0.2164
  687MOL0     H92718   7.848   6.357   8.992  1.9412  0.5220  1.4357
  687MOL0     H92719   7.735   6.133   8.933  0.1292 -0.4064  0.6637
  687MOL0     H92720   7.878   6.068   8.860 -0.8990 -2.5687  1.8068
  687MOL0     H92721   7.878   6.141   9.154 -1.3546  2.6919 -1.3365
  687MOL0     H92722   7.978   6.035   9.082 -0.9976 -0.1750  1.8556
  687MOL0     H92723   7.806   5.920   9.218 -3.2117  3.3584  1.3675
  687MOL0     H92724   7.680   5.953   9.114 -0.6801 -3.5012  0.3593
  687MOL0     H92725   8.688   6.402   8.865 -1.2874  3.4431 -1.8113
  687MOL0     H92726   8.882   6.463   8.714  0.4105 -0.6252  0.1104
  687MOL0     H92727   9.168   6.694   8.473  1.4474  0.6687 -0.2486
  687MOL0     H92728   9.371   6.718   8.325  1.6938 -1.4135 -0.9253
  687MOL0     H92729  10.776   5.696   7.283  1.5213 -2.5835  1.6471
  687MOL0     H92730  10.951   5.556   7.244 -1.7927  1.0424  0.6977
  687MOL0     H92731  11.362   5.373   7.081 -1.6528 -0.5047  1.1139
  687MOL0     H92732  11.461   5.172   7.095 -3.0749  2.6407  1.8691
  687MOL0     H92733  11.510   4.981   7.129  2.2210 -2.7252  2.2832
  687MOL0     H92734  11.609   5.007   6.998  1.9688  0.3324  2.6225
  687MOL0     H92735  11.699   4.799   7.091  0.2180 -1.1068 -1.8709
  687MOL0     H92736  11.618   4.757   6.943 -0.5633 -0.4717 -0.0345
  687MOL0     H92737  11.493   4.619   7.031 -1.5861  2.2459 -0.8765
  687MOL0     H92738  11.433   4.733   7.160  1.5742  2.6233 -0.1854
  687MOL0     H92739  11.529   4.536   7.273 -2.2319  2.2994  0.3680
  687MOL0     H92740  11.688   4.565   7.184 -1.0726  0.7168 -1.7564
  687MOL0     H92741  11.668   4.848   7.517  1.3146 -0.9703  0.8387
  687MOL0     H92742  11.238   5.003   6.780  1.1282 -2.1706  2.8316
  687MOL0     H92743  10.964   5.229   6.781 -0.4848  0.6087 -1.8290
  687MOL0     H92744  11.084   5.284   6.667  1.0220 -2.7155 -2.6701
  687MOL0     H92745  11.062   5.118   6.682 -2.4230 -0.1366  1.5267
  688MOL0     O92746   2.579   9.565   1.379  0.1725  1.2382 -0.0704
  688MOL0     C92747   2.470   9.586   1.338  1.3310 -0.4975 -0.4150
  688MOL0     O92748   2.423   9.714   1.331  0.6979  0.8379 -0.7148
  688MOL0     C92749   2.510   9.812   1.368 -0.5372 -0.5696 -0.7888
  688MOL0     C92750   2.595   9.873   1.275  1.1313 -1.3088  0.0834
  688MOL0     C92751   2.668   9.985   1.323  0.3713  0.1248 -0.3808
  688MOL0     C92752   2.677  10.024   1.459 -0.1305  0.1429 -0.0723
  688MOL0     O92753   2.764  10.122   1.492  0.9249  0.3985 -0.8376
  688MOL0     C92754   2.823  10.122   1.635  0.3479 -0.7458  1.7383
  688MOL0     C92755   2.950  10.186   1.631 -0.6073  0.0962  0.1002
  688MOL0     C92756   2.954  10.334   1.593  0.4045  0.0074  0.2119
  688MOL0     C92757   2.866  10.416   1.693 -0.2916 -0.2448 -0.0654
  688MOL0     C92758   2.844  10.555   1.634 -0.6546  1.1964  0.0085
  688MOL0     C92759   2.764  10.637   1.733  0.0280  0.4258 -0.2227
  688MOL0     C92760   2.715  10.767   1.675 -0.2405 -0.9400  0.7191
  688MOL0     C92761   2.620  10.859   1.754  0.9942 -0.2161 -0.3379
  688MOL0     N92762   2.671  10.861   1.885 -0.3764 -0.2497  0.2175
  688MOL0     C92763   2.803  10.906   1.905  0.3804  0.1375  0.5835
  688MOL0     C92764   2.835  10.881   2.037 -0.7095  0.5921  0.7360
  688MOL0     C92765   2.956  10.909   2.116  0.1427 -0.2289 -0.0624
  688MOL0     C92766   2.930  10.884   2.276 -0.9499 -0.4477 -0.2033
  688MOL0     C92767   3.050  10.947   2.353  0.1717  0.1047 -0.8128
  688MOL0     C92768   3.043  10.933   2.497  0.5043 -0.6268 -0.3742
  688MOL0     O92769   3.136  11.014   2.563 -1.0511  0.9404 -0.0362
  688MOL0     C92770   3.211  10.960   2.672 -0.1073  0.1465  0.0280
  688MOL0     C92771   3.157  10.902   2.787 -0.0085  0.0394  0.6861
  688MOL0     C92772   3.229  10.856   2.892 -0.5751 -0.2056  0.4764
  688MOL0     C92773   3.365  10.874   2.889 -0.3042 -0.0686 -0.3141
  688MOL0     C92774   3.447  10.813   2.998  0.0856  1.1815  0.5158
  688MOL0     O92775   3.585  10.838   3.001  0.7426 -0.7882 -0.5985
  688MOL0     C92776   3.649  10.828   3.128  0.0748  0.4664  0.0931
  688MOL0     C92777   3.588  10.809   3.250  0.3140  0.0051 -0.5242
  688MOL0     C92778   3.671  10.802   3.376  0.2749  0.4237  0.9348
  688MOL0     C92779   3.807  10.809   3.364 -0.5121 -0.0617 -1.0416
  688MOL0     O92780   3.875  10.810   3.487  0.0516  0.0565  0.2047
  688MOL0     C92781   4.021  10.817   3.481 -0.1619  0.5905 -1.1900
  688MOL0     C92782   4.092  10.813   3.612 -0.3797  0.2217 -0.0955
  688MOL0     C92783   4.089  10.944   3.687  0.6003  0.0866  0.7964
  688MOL0     C92784   4.191  10.934   3.798 -0.2533 -0.4845 -0.4277
  688MOL0     C92785   4.194  11.072   3.861 -0.3802 -0.5080  0.1826
  688MOL0     C92786   4.314  11.090   3.952  0.6043  0.0300  0.2147
  688MOL0     C92787   4.291  11.220   4.028 -0.5317 -0.4313 -1.0696
  688MOL0     C92788   4.368  11.225   4.165  0.2347 -0.8178 -0.5458
  688MOL0    Cl92789   4.269  11.152   4.300  0.4088  0.4621 -0.2699
  688MOL0     C92790   3.866  10.819   3.241 -0.6178  1.1620  0.4704
  688MOL0     C92791   3.790  10.830   3.122  0.1637  0.4956 -0.3976
  688MOL0     O92792   3.386  10.727   3.062 -0.1029  0.2943 -0.1543
  688MOL0     C92793   3.418  10.941   2.780 -0.5772  0.6267 -0.3810
  688MOL0     C92794   3.347  10.982   2.672 -0.9906  0.2461  0.7935
  688MOL0     N92795   2.727  10.820   2.094 -0.4193  0.1162  0.4878
  688MOL0     N92796   2.636  10.795   2.001  0.4976  0.5449  0.2445
  688MOL0     C92797   2.593   9.958   1.546 -0.7061  0.5951  0.1184
  688MOL0     C92798   2.506   9.860   1.505 -0.3635 -0.4906 -0.4399
  688MOL0     C92799   2.383   9.473   1.306  0.0519 -0.8803 -0.2288
  688MOL0     C92800   2.403   9.351   1.356  0.5525 -0.0925 -0.7475
  688MOL0     C92801   2.361   9.239   1.291 -0.3237 -0.3679 -0.4615
  688MOL0     C92802   2.260   9.240   1.200 -0.1441 -0.4854 -0.5447
  688MOL0     O92803   2.215   9.121   1.161  0.1097 -0.2531  0.8307
  688MOL0     C92804   2.158   9.110   1.029 -0.2827 -0.4076  0.1105
  688MOL0     C92805   2.146   8.951   0.989  0.3214 -0.0603 -0.3640
  688MOL0     C92806   2.077   8.918   0.858  0.4578 -0.0924  0.8050
  688MOL0     C92807   2.149   8.995   0.745 -0.1550  0.2121 -0.1540
  688MOL0     C92808   2.070   8.980   0.617  0.9623  0.2383  0.2287
  688MOL0     C92809   2.010   8.968   0.518  1.3755  0.1146 -0.2989
  688MOL0     C92810   2.229   9.367   1.151  0.8062  0.1603 -0.2045
  688MOL0     C92811   2.283   9.484   1.201 -0.1721 -0.2909 -0.3070
  688MOL0     C92812   2.240   9.614   1.139  0.0732  0.1505 -0.8151
  688MOL0     H92813   2.597   9.852   1.168  0.1078  0.7768 -0.3854
  688MOL0     H92814   2.724  10.040   1.248 -0.3249 -1.1660 -1.9079
  688MOL0     H92815   2.748  10.173   1.697 -0.3154 -1.2113  1.3293
  688MOL0     H92816   2.838  10.018   1.666 -1.7552 -2.4385 -2.2461
  688MOL0     H92817   3.014  10.144   1.553  0.2252 -0.0800  0.8590
  688MOL0     H92818   2.989  10.181   1.733 -0.9692 -0.4382  0.2108
  688MOL0     H92819   2.916  10.360   1.493  0.6514  0.3287  0.2003
  688MOL0     H92820   3.056  10.372   1.585  1.4047 -2.6364 -0.7392
  688MOL0     H92821   2.765  10.379   1.714  0.4224 -3.5617 -1.8003
  688MOL0     H92822   2.924  10.425   1.785  0.1273 -0.5213 -0.2993
  688MOL0     H92823   2.946  10.587   1.611 -1.4667  4.1789  0.1610
  688MOL0     H92824   2.778  10.538   1.549 -0.7095  0.9590  0.0997
  688MOL0     H92825   2.673  10.585   1.764 -2.8743  4.0939 -1.8336
  688MOL0     H92826   2.840  10.655   1.809 -1.7371  0.0579  1.7414
  688MOL0     H92827   2.665  10.748   1.579 -2.8615  0.4077  1.7275
  688MOL0     H92828   2.805  10.821   1.645 -1.8610  1.3382 -0.3197
  688MOL0     H92829   2.611  10.963   1.722 -0.0083  0.0134  0.6455
  688MOL0     H92830   2.517  10.822   1.751  0.4501  1.2835 -2.4634
  688MOL0     H92831   2.878  10.946   1.838  0.8707 -0.4962  0.7485
  688MOL0     H92832   3.045  10.856   2.081  1.9682  3.5795 -1.7698
  688MOL0     H92833   2.988  11.013   2.100 -0.8190 -0.0267 -0.7409
  688MOL0     H92834   2.840  10.938   2.309 -1.0264 -1.4740  1.3359
  688MOL0     H92835   2.908  10.779   2.294 -0.2388 -0.7078 -0.8046
  688MOL0     H92836   3.058  11.054   2.329  2.6479  0.6744  1.9461
  688MOL0     H92837   3.136  10.895   2.310 -0.4334  0.2987 -2.3512
  688MOL0     H92838   3.053  10.827   2.525 -4.3336 -0.5460  2.8253
  688MOL0     H92839   2.941  10.960   2.526  1.4469  0.6608  1.9526
  688MOL0     H92840   3.049  10.895   2.787  0.0150 -0.2986  0.9868
  688MOL0     H92841   3.173  10.814   2.975 -2.2465  0.5656 -0.2085
  688MOL0     H92842   3.481  10.796   3.260  0.6665 -2.3181  1.3323
  688MOL0     H92843   3.621  10.803   3.472 -2.3629  0.6376 -0.3309
  688MOL0     H92844   4.055  10.720   3.444 -0.7054 -0.5413  1.1238
  688MOL0     H92845   4.054  10.903   3.422 -2.7442  2.8859  0.4464
  688MOL0     H92846   4.047  10.735   3.674  0.3136  0.6971  1.0298
  688MOL0     H92847   4.193  10.793   3.577 -0.8844  3.1464 -3.9405
  688MOL0     H92848   4.109  11.022   3.612 -1.5033 -1.7651 -1.8796
  688MOL0     H92849   3.996  10.972   3.738 -0.6907 -2.9492  0.2969
  688MOL0     H92850   4.287  10.909   3.751 -1.1406 -3.1388 -0.9513
  688MOL0     H92851   4.170  10.860   3.876 -1.1833  2.5586  2.4542
  688MOL0     H92852   4.099  11.065   3.915  1.4849 -3.5766  3.4213
  688MOL0     H92853   4.200  11.152   3.786 -0.5766 -2.3919 -1.9733
  688MOL0     H92854   4.312  11.003   4.018  1.3318  0.2412  0.5237
  688MOL0     H92855   4.404  11.089   3.891  0.1106 -0.0755 -0.5203
  688MOL0     H92856   4.188  11.254   4.045  0.3145  2.0049 -0.3446
  688MOL0     H92857   4.350  11.290   3.969 -1.1346  0.3384 -0.7840
  688MOL0     H92858   4.464  11.173   4.168  0.5679 -0.1753 -0.0068
  688MOL0     H92859   4.389  11.328   4.193 -0.2686 -1.4107  2.2995
  688MOL0     H92860   3.972  10.827   3.220 -0.7011 -1.2988 -1.2920
  688MOL0     H92861   3.845  10.830   3.028 -2.1109 -0.3622 -1.8076
  688MOL0     H92862   3.526  10.950   2.793 -0.5195 -1.2924  0.7851
  688MOL0     H92863   3.389  11.018   2.579  0.0700 -1.2549  0.6476
  688MOL0     H92864   2.591   9.998   1.647 -0.5310  1.2118 -0.1193
  688MOL0     H92865   2.442   9.825   1.586 -0.4919  2.7202  0.9895
  688MOL0     H92866   2.478   9.342   1.435  1.0637 -1.2035 -1.3279
  688MOL0     H92867   2.388   9.146   1.341 -4.8539 -1.3514  0.6508
  688MOL0     H92868   2.235   9.155   0.966  1.0920 -0.1398  1.8841
  688MOL0     H92869   2.061   9.159   1.020  0.9142  2.0483 -0.1963
  688MOL0     H92870   2.101   8.897   1.072  2.2805  1.0178  1.4919
  688MOL0     H92871   2.245   8.904   0.985 -0.6365 -2.9459  3.6531
  688MOL0     H92872   1.976   8.954   0.879 -0.3221 -0.4027 -2.0340
  688MOL0     H92873   2.070   8.811   0.837 -1.0509  0.3113 -0.9048
  688MOL0     H92874   2.168   9.100   0.769  1.6809 -0.1761  0.2438
  688MOL0     H92875   2.246   8.944   0.736 -0.9839 -1.5922  0.7532
  688MOL0     H92876   1.965   8.968   0.421  5.4035 -1.9315 -2.4330
  688MOL0     H92877   2.158   9.373   1.069 -1.0730  0.4395  1.3663
  688MOL0     H92878   2.195   9.587   1.043  0.0770  0.0820 -0.7978
  688MOL0     H92879   2.163   9.648   1.210 -0.7268 -0.2054 -1.4958
  688MOL0     H92880   2.321   9.682   1.112 -0.5459  0.2514 -2.5726
  689MOL0     O92881   7.372   5.566   7.539 -0.2120  0.5022  0.2613
  689MOL0     C92882   7.357   5.465   7.471  1.0130 -0.3242  0.3630
  689MOL0     O92883   7.234   5.414   7.431  1.4286  0.2334 -0.4409
  689MOL0     C92884   7.116   5.443   7.499 -0.2889  0.0305  0.2980
  689MOL0     C92885   7.036   5.328   7.525  0.2472  0.3793 -0.4726
  689MOL0     C92886   6.916   5.352   7.606  0.3704  0.2362 -0.7365
  689MOL0     C92887   6.890   5.472   7.668  0.2887  0.2292  0.6026
  689MOL0     O92888   6.795   5.478   7.767  0.3381 -0.2187  0.4330
  689MOL0     C92889   6.725   5.599   7.796  0.0513 -0.1294  1.1199
  689MOL0     C92890   6.800   5.694   7.899 -0.5302  0.6089  0.2195
  689MOL0     C92891   6.764   5.834   7.866 -0.0505  0.1233  0.2081
  689MOL0     C92892   6.632   5.882   7.924 -0.5817  1.6815  0.1689
  689MOL0     C92893   6.590   6.025   7.900 -0.7104  0.6443  0.0017
  689MOL0     C92894   6.461   6.071   7.962 -0.1140  0.7018  0.0021
  689MOL0     C92895   6.417   6.208   7.903 -0.1768  0.6564  0.0176
  689MOL0     C92896   6.276   6.240   7.958  0.0577 -0.1756  0.5481
  689MOL0     N92897   6.217   6.355   7.900 -0.3674 -0.4134  0.1205
  689MOL0     C92898   6.124   6.439   7.958 -0.0152 -0.3160 -0.1976
  689MOL0     C92899   6.100   6.529   7.853  0.7849  0.2179  0.2268
  689MOL0     C92900   6.001   6.648   7.860  0.1654 -0.0919 -0.8669
  689MOL0     C92901   5.904   6.653   7.735 -0.9709  0.2137 -0.4375
  689MOL0     C92902   5.826   6.527   7.712 -0.5184  0.0581 -0.9823
  689MOL0     C92903   5.816   6.468   7.573  0.5078 -0.4248  0.2526
  689MOL0     O92904   5.811   6.566   7.463 -0.1178  0.7869  0.0303
  689MOL0     C92905   5.686   6.603   7.413 -0.6341  0.3519 -0.4903
  689MOL0     C92906   5.666   6.736   7.381 -0.3177  0.0647 -0.1654
  689MOL0     C92907   5.544   6.776   7.322 -0.6177 -0.2893 -0.2266
  689MOL0     C92908   5.446   6.681   7.298 -0.2175 -0.2734 -0.2741
  689MOL0     C92909   5.317   6.728   7.235 -0.0540  0.2070 -0.2408
  689MOL0     O92910   5.230   6.632   7.245 -0.6613 -0.1357 -0.1115
  689MOL0     C92911   5.096   6.636   7.198  0.1904 -0.4111  0.7789
  689MOL0     C92912   5.039   6.745   7.131  0.4109 -0.0217 -0.2094
  689MOL0     C92913   4.901   6.741   7.100  0.9456  0.1564  0.1058
  689MOL0     C92914   4.829   6.616   7.130 -0.0901 -0.5201  0.1167
  689MOL0     O92915   4.694   6.608   7.099 -0.3932  0.0441  0.1476
  689MOL0     C92916   4.603   6.520   7.160 -1.2794 -1.5081  0.1971
  689MOL0     C92917   4.464   6.528   7.088 -0.3542  0.4628 -0.3094
  689MOL0     C92918   4.349   6.529   7.191  0.6631  0.6362 -0.2370
  689MOL0     C92919   4.298   6.664   7.251 -0.3305 -0.7354  0.0596
  689MOL0     C92920   4.203   6.650   7.371 -0.1483 -0.6448 -0.1033
  689MOL0     C92921   4.059   6.617   7.337  0.3616 -0.1478 -0.5900
  689MOL0     C92922   3.990   6.717   7.248  0.4822  2.3294  0.1123
  689MOL0     C92923   3.970   6.856   7.308 -0.4185  0.2445  0.2282
  689MOL0    Cl92924   3.825   6.916   7.228  0.2982  0.3907 -0.3162
  689MOL0     C92925   4.892   6.523   7.200 -0.6262  0.6815  0.0950
  689MOL0     C92926   5.020   6.542   7.238  0.6218  0.2245  0.5861
  689MOL0     O92927   5.305   6.835   7.176 -0.3930 -0.2176  0.3899
  689MOL0     C92928   5.470   6.547   7.336  0.3493  0.1416  0.0215
  689MOL0     C92929   5.591   6.509   7.391  0.5712  0.0855  1.0739
  689MOL0     N92930   6.174   6.490   7.739 -0.1501  0.0544  0.2702
  689MOL0     N92931   6.251   6.398   7.773 -0.0175 -0.3410  0.8947
  689MOL0     C92932   6.961   5.582   7.626 -0.3987 -0.8974 -0.0716
  689MOL0     C92933   7.074   5.570   7.539 -0.2063  0.2372 -0.0465
  689MOL0     C92934   7.486   5.414   7.418  1.2064  0.1509 -0.2933
  689MOL0     C92935   7.605   5.434   7.486 -0.4197 -0.2091  0.6074
  689MOL0     C92936   7.725   5.384   7.432  0.8147 -0.2367 -0.4098
  689MOL0     C92937   7.727   5.322   7.309  0.1279 -0.5956  0.0617
  689MOL0     O92938   7.833   5.273   7.239  0.5428  0.1746  0.0049
  689MOL0     C92939   7.965   5.255   7.313 -0.2769 -1.4139  0.6528
  689MOL0     C92940   7.976   5.111   7.351 -0.4667 -0.1545 -0.8736
  689MOL0     C92941   8.105   5.070   7.417  0.6274  0.2724  0.7836
  689MOL0     C92942   8.105   4.919   7.428 -0.2943  0.9655  0.1862
  689MOL0     C92943   8.154   4.853   7.303 -0.2895  1.1643 -1.2912
  689MOL0     C92944   8.197   4.781   7.216  0.1739 -0.9641  0.0826
  689MOL0     C92945   7.615   5.314   7.238  1.0146  0.3399  0.0917
  689MOL0     C92946   7.489   5.346   7.288  0.1520 -0.1285  1.2572
  689MOL0     C92947   7.369   5.327   7.198 -0.0925  0.7604 -0.0899
  689MOL0     H92948   7.060   5.236   7.474 -0.3762  0.4117 -0.8254
  689MOL0     H92949   6.850   5.269   7.630  0.8409  0.7204  2.8635
  689MOL0     H92950   6.701   5.655   7.704 -1.5299  0.3565  1.8037
  689MOL0     H92951   6.631   5.575   7.845  0.2499 -0.5118  1.3143
  689MOL0     H92952   6.907   5.678   7.908 -0.4926  0.6812 -0.1193
  689MOL0     H92953   6.751   5.662   7.992 -1.3421 -1.3472 -0.8191
  689MOL0     H92954   6.774   5.847   7.758  1.2721  0.7532  0.3905
  689MOL0     H92955   6.833   5.903   7.915 -2.2844  3.3282 -0.8324
  689MOL0     H92956   6.545   5.821   7.896  0.3487 -0.6842  2.0951
  689MOL0     H92957   6.633   5.875   8.033  0.2747 -0.8983  0.0679
  689MOL0     H92958   6.666   6.089   7.947  1.3908  0.2828 -2.6560
  689MOL0     H92959   6.608   6.056   7.797  0.8607 -0.5672 -0.1272
  689MOL0     H92960   6.390   5.989   7.950  3.4131 -2.4811 -0.7990
  689MOL0     H92961   6.470   6.070   8.071  2.0116 -0.1742 -0.1280
  689MOL0     H92962   6.431   6.201   7.795  0.2763 -0.8953  0.1534
  689MOL0     H92963   6.487   6.284   7.941  3.0742 -2.2607  0.3541
  689MOL0     H92964   6.205   6.159   7.942 -2.4674  2.2875 -1.8916
  689MOL0     H92965   6.288   6.252   8.066  2.2185  1.2023  0.2216
  689MOL0     H92966   6.069   6.423   8.050 -1.0777  0.5917 -0.6507
  689MOL0     H92967   5.947   6.640   7.955  3.1911  1.6929  1.1845
  689MOL0     H92968   6.058   6.742   7.858 -0.0320  0.0270 -2.2787
  689MOL0     H92969   5.849   6.747   7.729 -0.4227  0.6514  0.9897
  689MOL0     H92970   5.974   6.656   7.651 -1.7420  0.7677 -1.0591
  689MOL0     H92971   5.725   6.553   7.744 -0.3903 -0.4592 -0.1315
  689MOL0     H92972   5.859   6.445   7.775  0.8799  1.5520  0.3191
  689MOL0     H92973   5.722   6.414   7.569 -0.2721  0.9519 -1.0848
  689MOL0     H92974   5.904   6.406   7.552  2.7015  2.9098 -1.5031
  689MOL0     H92975   5.746   6.807   7.399  0.4909 -0.1577 -2.6335
  689MOL0     H92976   5.524   6.882   7.305  2.5093  0.7735  1.8076
  689MOL0     H92977   5.091   6.832   7.093  1.0355  0.6717  2.0259
  689MOL0     H92978   4.847   6.792   7.021 -0.3611 -1.4066 -0.0555
  689MOL0     H92979   4.633   6.416   7.146 -0.5602 -1.3488  0.5031
  689MOL0     H92980   4.593   6.543   7.267 -0.7246  2.6925 -0.4891
  689MOL0     H92981   4.452   6.619   7.029 -0.1585  0.6298 -0.0955
  689MOL0     H92982   4.461   6.444   7.018 -0.8341  1.0075 -0.9491
  689MOL0     H92983   4.264   6.491   7.133  0.7681 -2.8521  1.6534
  689MOL0     H92984   4.379   6.451   7.262  2.0980 -0.1907 -1.6851
  689MOL0     H92985   4.249   6.713   7.167 -0.7151 -0.7783  0.2559
  689MOL0     H92986   4.390   6.719   7.277  2.6315 -5.1852  0.1035
  689MOL0     H92987   4.220   6.737   7.435  3.4322 -0.5928 -0.8848
  689MOL0     H92988   4.247   6.566   7.425  0.6509 -1.7763 -2.3884
  689MOL0     H92989   4.066   6.516   7.294  1.3528 -2.1294  3.6701
  689MOL0     H92990   3.985   6.598   7.415 -0.2576 -2.0210 -1.5700
  689MOL0     H92991   3.894   6.672   7.222  1.5292  0.7115 -1.1470
  689MOL0     H92992   4.043   6.739   7.155 -1.1091 -0.1153 -1.4865
  689MOL0     H92993   3.962   6.855   7.417 -3.7737  2.8577  0.1883
  689MOL0     H92994   4.054   6.918   7.278 -0.2588  1.1334  2.3206
  689MOL0     H92995   4.854   6.423   7.223  0.1142  0.1903 -0.7460
  689MOL0     H92996   5.075   6.464   7.289 -0.8705  0.8922  3.4558
  689MOL0     H92997   5.396   6.467   7.329 -1.8339  1.8300  2.0879
  689MOL0     H92998   5.603   6.402   7.404  2.0018  0.0426 -0.2150
  689MOL0     H92999   6.948   5.683   7.664  0.0215 -0.1018 -1.8903
  689MOL0     H93000   7.141   5.653   7.517 -0.1153  0.2010  0.0873
  689MOL0     H93001   7.617   5.495   7.575 -1.2529 -0.5213  0.9405
  689MOL0     H93002   7.814   5.405   7.490 -0.3712 -1.4121  1.9409
  689MOL0     H93003   7.982   5.314   7.403  0.1660 -1.0802  0.3528
  689MOL0     H93004   8.029   5.283   7.229 -0.6820  0.6385  0.9921
  689MOL0     H93005   7.977   5.055   7.257 -0.4940 -1.5512 -0.0792
  689MOL0     H93006   7.896   5.075   7.417 -1.0814 -0.2357 -1.6478
  689MOL0     H93007   8.108   5.114   7.518 -0.2445 -1.0795  1.4288
  689MOL0     H93008   8.201   5.106   7.382  0.7435  0.0498  0.8716
  689MOL0     H93009   8.180   4.910   7.507 -0.8748 -0.0947  0.6406
  689MOL0     H93010   8.007   4.872   7.440  1.0284 -3.2336 -2.9461
  689MOL0     H93011   8.230   4.711   7.143  1.7653  1.7381 -2.0055
  689MOL0     H93012   7.625   5.263   7.143  1.6077  1.8248 -0.6690
  689MOL0     H93013   7.400   5.273   7.108  0.8821  1.0557  0.0599
  689MOL0     H93014   7.293   5.265   7.247  0.8518 -0.6913 -0.3731
  689MOL0     H93015   7.330   5.423   7.166  2.4117  1.7935 -0.2733
  690MOL0     O93016   4.006   7.328   5.215 -0.9725  0.3147 -0.5768
  690MOL0     C93017   4.096   7.242   5.194 -0.5298  0.0336  0.2646
  690MOL0     O93018   4.058   7.111   5.179 -0.3671  0.2415  2.0912
  690MOL0     C93019   3.938   7.087   5.130 -0.4576 -0.1655  0.8388
  690MOL0     C93020   3.911   7.058   4.994 -1.1618  0.1072 -0.4377
  690MOL0     C93021   3.784   7.027   4.953 -0.6271  0.2477 -0.0426
  690MOL0     C93022   3.678   7.020   5.049 -0.1450 -1.2318  0.8489
  690MOL0     O93023   3.555   6.991   4.995 -0.0908  0.2892 -0.4678
  690MOL0     C93024   3.442   6.963   5.073  0.0898  0.5719 -0.0690
  690MOL0     C93025   3.440   6.808   5.120  0.4766 -1.0023  0.0652
  690MOL0     C93026   3.309   6.767   5.185 -0.1865 -0.2354 -0.3397
  690MOL0     C93027   3.281   6.852   5.318 -0.1763  0.3099  0.6244
  690MOL0     C93028   3.153   6.797   5.387  0.4476 -0.4303 -0.9049
  690MOL0     C93029   3.034   6.751   5.300 -0.2351  0.1717  0.4690
  690MOL0     C93030   2.908   6.706   5.372 -0.3074 -0.6471  0.8038
  690MOL0     C93031   2.842   6.567   5.326 -0.3772 -0.2416  0.5559
  690MOL0     N93032   2.892   6.448   5.394  0.4018  0.9319 -0.1205
  690MOL0     C93033   2.931   6.438   5.522  0.8472  0.0660 -0.2505
  690MOL0     C93034   3.017   6.332   5.532 -0.4455  0.2795 -0.6571
  690MOL0     C93035   3.098   6.292   5.653 -0.3169  0.3596  0.0394
  690MOL0     C93036   3.199   6.402   5.682 -0.4254  0.3732 -0.8025
  690MOL0     C93037   3.283   6.372   5.810  1.0934  0.0665  0.2575
  690MOL0     C93038   3.394   6.259   5.792 -0.8082 -0.2764  0.1664
  690MOL0     O93039   3.509   6.316   5.719  0.7995  0.7568 -1.4274
  690MOL0     C93040   3.582   6.418   5.779 -0.1332 -0.2801  1.3433
  690MOL0     C93041   3.579   6.454   5.918 -0.3744 -0.5311  0.3368
  690MOL0     C93042   3.649   6.560   5.958 -0.0491 -0.0608  0.4348
  690MOL0     C93043   3.737   6.628   5.858  0.0391  0.2398  0.0188
  690MOL0     C93044   3.827   6.745   5.898 -0.1201 -0.3506 -0.8273
  690MOL0     O93045   3.810   6.797   6.023 -0.5460 -0.0687  0.3574
  690MOL0     C93046   3.887   6.897   6.077 -0.1257  0.2132 -0.8069
  690MOL0     C93047   3.947   6.880   6.204 -0.6512  0.1990  0.4131
  690MOL0     C93048   4.034   6.969   6.265 -1.1375 -0.5873 -0.4436
  690MOL0     C93049   4.058   7.085   6.193  0.5557  0.6936  0.5303
  690MOL0     O93050   4.130   7.191   6.231 -0.7048  0.3832 -0.1832
  690MOL0     C93051   4.159   7.214   6.373 -0.8731  0.5480  0.4910
  690MOL0     C93052   4.046   7.267   6.462 -0.3837 -0.4940 -0.3845
  690MOL0     C93053   4.097   7.326   6.588 -0.4194  0.4098 -0.6668
  690MOL0     C93054   3.988   7.381   6.690  0.5450  0.4340  0.2074
  690MOL0     C93055   4.055   7.427   6.823  1.0260  0.6338 -0.5939
  690MOL0     C93056   4.136   7.318   6.891 -0.5060 -0.2446 -0.0841
  690MOL0     C93057   4.046   7.210   6.962 -0.1387  0.3998 -0.2316
  690MOL0     C93058   4.138   7.125   7.045  0.2713 -1.4527  0.2070
  690MOL0    Cl93059   4.183   7.214   7.196 -0.1400 -0.3063  0.3693
  690MOL0     C93060   3.995   7.113   6.069  0.4672  0.1346 -0.0513
  690MOL0     C93061   3.900   7.014   6.013  0.5603 -0.3471  0.4129
  690MOL0     O93062   3.917   6.779   5.823  0.2883  0.4932 -0.8407
  690MOL0     C93063   3.734   6.593   5.721 -1.1205  0.9577  1.2797
  690MOL0     C93064   3.657   6.482   5.682 -0.1399 -0.3631  0.3883
  690MOL0     N93065   3.033   6.283   5.401  0.0508  0.1425  0.4696
  690MOL0     N93066   2.962   6.356   5.317 -0.1060 -0.6729  0.4055
  690MOL0     C93067   3.704   7.053   5.182  0.0272 -0.6360 -1.1586
  690MOL0     C93068   3.831   7.087   5.220 -0.3256  1.3101  0.2837
  690MOL0     C93069   4.225   7.246   5.265  0.0240  0.5422  0.3151
  690MOL0     C93070   4.285   7.133   5.325 -0.0243 -0.0240 -0.0187
  690MOL0     C93071   4.406   7.149   5.388  0.5681  0.0257  0.1236
  690MOL0     C93072   4.468   7.271   5.394 -0.2157  0.0246 -0.3490
  690MOL0     O93073   4.574   7.269   5.486 -0.3051 -0.4726  0.8919
  690MOL0     C93074   4.665   7.382   5.465 -0.1932 -0.7854 -0.0734
  690MOL0     C93075   4.738   7.393   5.334 -0.1370  1.1588 -0.3608
  690MOL0     C93076   4.850   7.499   5.338  0.5683  0.0887  0.8961
  690MOL0     C93077   4.908   7.515   5.198  0.4140  0.7650  0.0046
  690MOL0     C93078   4.967   7.396   5.137  0.9660  0.2545 -1.4097
  690MOL0     C93079   5.016   7.298   5.098 -0.5453 -0.0873  0.3641
  690MOL0     C93080   4.405   7.386   5.345  0.9093 -0.4574  0.3233
  690MOL0     C93081   4.293   7.369   5.262  0.2643 -1.4057  0.9104
  690MOL0     C93082   4.243   7.485   5.187  0.2281  0.7661  1.1226
  690MOL0     H93083   3.999   7.054   4.930  0.1539  1.3377  1.1781
  690MOL0     H93084   3.772   7.008   4.846 -1.8535 -0.2250  0.1670
  690MOL0     H93085   3.425   7.021   5.165 -2.7210  0.1742 -0.2330
  690MOL0     H93086   3.351   6.972   5.012 -0.2127 -1.0309  0.1034
  690MOL0     H93087   3.531   6.784   5.175  1.6912  0.4690 -1.2023
  690MOL0     H93088   3.445   6.751   5.027  2.0902 -1.9125  0.6777
  690MOL0     H93089   3.303   6.663   5.220 -3.3760  0.4182  1.4356
  690MOL0     H93090   3.230   6.792   5.114 -1.1991  0.8018  1.0900
  690MOL0     H93091   3.363   6.842   5.389 -1.5754 -0.8664  2.1738
  690MOL0     H93092   3.269   6.959   5.296  0.1109  0.0103 -1.1529
  690MOL0     H93093   3.181   6.712   5.449  3.3167  1.6542  0.8952
  690MOL0     H93094   3.121   6.871   5.461 -0.3678 -0.2540 -1.4181
  690MOL0     H93095   3.013   6.845   5.247 -2.7513  0.0303  1.0723
  690MOL0     H93096   3.059   6.675   5.226 -0.0717 -1.4991  2.1585
  690MOL0     H93097   2.824   6.775   5.360  1.0470  1.0971  0.9492
  690MOL0     H93098   2.924   6.690   5.479 -1.4154  1.2573  1.3077
  690MOL0     H93099   2.735   6.578   5.347 -0.5291 -3.4521  2.1058
  690MOL0     H93100   2.866   6.558   5.220  3.4739  1.9774  1.0677
  690MOL0     H93101   2.892   6.517   5.586 -0.8203  1.4515 -2.8031
  690MOL0     H93102   3.032   6.273   5.738  2.0910 -2.9657  1.3771
  690MOL0     H93103   3.153   6.201   5.627 -0.5357  0.8360 -2.3758
  690MOL0     H93104   3.273   6.415   5.602  1.9243 -0.1267  1.1837
  690MOL0     H93105   3.146   6.495   5.707  1.9018  2.0551 -1.7894
  690MOL0     H93106   3.207   6.343   5.883 -0.0584  1.2871 -0.4112
  690MOL0     H93107   3.335   6.462   5.845 -1.2771  2.2200 -1.4245
  690MOL0     H93108   3.355   6.169   5.743 -1.9559 -0.0058  0.5443
  690MOL0     H93109   3.413   6.212   5.889 -1.2304  1.1475  0.9705
  690MOL0     H93110   3.517   6.405   5.992 -2.5139  1.4064 -0.0279
  690MOL0     H93111   3.649   6.588   6.063  0.7343 -0.8535  0.6644
  690MOL0     H93112   3.935   6.791   6.265  2.9461 -0.6684  0.0502
  690MOL0     H93113   4.080   6.947   6.361 -4.2832  1.2506  1.6657
  690MOL0     H93114   4.201   7.119   6.408 -0.1122 -0.1473 -2.1097
  690MOL0     H93115   4.246   7.281   6.366  0.5678 -1.4246 -1.8229
  690MOL0     H93116   3.991   7.345   6.408 -0.5154 -0.4162 -0.1387
  690MOL0     H93117   3.977   7.186   6.489  0.0673  0.0636  2.9193
  690MOL0     H93118   4.152   7.246   6.639  1.9598  2.6424  0.4814
  690MOL0     H93119   4.169   7.404   6.563 -0.1342  0.6115  0.7369
  690MOL0     H93120   3.909   7.309   6.715  1.7030 -0.3411  1.8536
  690MOL0     H93121   3.930   7.455   6.635 -2.5897 -1.0533  1.2597
  690MOL0     H93122   3.977   7.466   6.888  0.4626  1.8985 -1.9494
  690MOL0     H93123   4.114   7.513   6.789 -0.8220  2.0353 -0.4343
  690MOL0     H93124   4.207   7.258   6.834  0.4188 -0.7336  1.5178
  690MOL0     H93125   4.210   7.369   6.953  0.9792  3.0223 -4.0642
  690MOL0     H93126   3.981   7.147   6.900 -0.2584  1.0735 -0.8064
  690MOL0     H93127   3.977   7.260   7.030  0.1694  0.4839  0.0258
  690MOL0     H93128   4.082   7.041   7.088 -0.9306  0.1136  1.8426
  690MOL0     H93129   4.218   7.087   6.980 -2.1129 -0.9557 -3.3444
  690MOL0     H93130   4.020   7.204   6.016  0.5152 -0.5549 -1.2490
  690MOL0     H93131   3.846   7.038   5.922  0.8875  1.1311  0.5810
  690MOL0     H93132   3.785   6.651   5.646  2.4363  0.9141  3.4558
  690MOL0     H93133   3.659   6.446   5.580  0.1811 -2.4389  1.0728
  690MOL0     H93134   3.629   7.044   5.261  1.2415  1.4876  0.3739
  690MOL0     H93135   3.851   7.094   5.327 -0.5000  2.5504  0.2421
  690MOL0     H93136   4.240   7.035   5.317  0.6999 -0.3318 -0.4461
  690MOL0     H93137   4.456   7.057   5.418  5.6727  2.5879  0.6243
  690MOL0     H93138   4.744   7.384   5.540 -0.5935  0.9296  0.3408
  690MOL0     H93139   4.615   7.476   5.491 -0.6167 -1.3160  1.0922
  690MOL0     H93140   4.661   7.419   5.261  0.0992  1.1853 -0.6019
  690MOL0     H93141   4.792   7.301   5.312 -1.2534 -0.3089  2.4790
  690MOL0     H93142   4.927   7.478   5.413  1.5421  0.4341  0.0178
  690MOL0     H93143   4.803   7.594   5.365 -1.7815 -0.7349 -0.0217
  690MOL0     H93144   4.829   7.535   5.124  0.9074 -2.6719 -1.6513
  690MOL0     H93145   4.984   7.594   5.195  1.4618 -0.2157 -0.0121
  690MOL0     H93146   5.074   7.220   5.054  0.0646  0.9666 -0.7931
  690MOL0     H93147   4.452   7.483   5.353  2.6592 -1.2938  0.9293
  690MOL0     H93148   4.151   7.528   5.228  0.0187  0.0158  1.4553
  690MOL0     H93149   4.328   7.554   5.193  1.3026 -0.4975  1.0072
  690MOL0     H93150   4.238   7.464   5.080  1.9009  0.3789  1.0947
  691MOL0     O93151   5.251   8.525   4.597 -0.1848 -0.3435  0.2210
  691MOL0     C93152   5.318   8.626   4.605 -0.1610 -0.2289  0.7111
  691MOL0     O93153   5.306   8.747   4.536  0.1067 -0.6559 -0.0773
  691MOL0     C93154   5.199   8.760   4.447 -0.4416 -0.9036  0.0487
  691MOL0     C93155   5.073   8.762   4.494  1.0459  0.2150  0.1069
  691MOL0     C93156   4.959   8.768   4.404 -0.2317  0.6029  0.8887
  691MOL0     C93157   4.979   8.779   4.261  0.2043  0.1722  0.0013
  691MOL0     O93158   4.887   8.757   4.154  0.3205 -0.2379  0.5612
  691MOL0     C93159   4.767   8.694   4.186 -1.4148  0.0029 -0.3906
  691MOL0     C93160   4.696   8.689   4.050 -0.4212 -0.8741 -0.1185
  691MOL0     C93161   4.548   8.662   4.061  0.3795  0.5158  0.0298
  691MOL0     C93162   4.537   8.523   4.118  0.7898 -0.3177 -0.6270
  691MOL0     C93163   4.386   8.487   4.156  0.2154  0.3414 -0.3747
  691MOL0     C93164   4.318   8.434   4.022  0.4820  0.2691 -0.2190
  691MOL0     C93165   4.364   8.290   3.987 -0.1955 -0.0604  0.6383
  691MOL0     C93166   4.316   8.240   3.847  0.0167 -0.5047 -1.4975
  691MOL0     N93167   4.393   8.124   3.808 -0.3633  0.1378 -0.8132
  691MOL0     C93168   4.419   8.005   3.882  0.0433 -0.3303  0.1087
  691MOL0     C93169   4.475   7.931   3.792 -0.6056  0.8509 -0.3065
  691MOL0     C93170   4.513   7.792   3.835 -0.0258  0.7143  0.2619
  691MOL0     C93171   4.390   7.706   3.872 -0.0344 -0.4185 -0.7374
  691MOL0     C93172   4.439   7.563   3.905  0.8123  0.3606 -0.5776
  691MOL0     C93173   4.321   7.463   3.922 -0.3245 -0.6571 -0.2750
  691MOL0     O93174   4.270   7.476   4.056  0.0515 -0.8170 -0.9162
  691MOL0     C93175   4.190   7.388   4.108 -0.2463  0.6421 -0.3945
  691MOL0     C93176   4.184   7.246   4.084  0.2788  0.1675  0.5060
  691MOL0     C93177   4.096   7.152   4.138 -0.2447  0.2345 -0.1957
  691MOL0     C93178   3.992   7.205   4.217 -0.1987  0.7833 -0.3684
  691MOL0     C93179   3.901   7.117   4.298  0.0294 -0.1459  0.3495
  691MOL0     O93180   3.897   6.981   4.267 -0.3091 -0.7117 -0.0156
  691MOL0     C93181   3.849   6.887   4.354  0.3100  0.2610  0.4337
  691MOL0     C93182   3.819   6.899   4.491 -0.5014 -0.7777  0.1528
  691MOL0     C93183   3.780   6.793   4.566 -0.3915  0.8208 -0.0782
  691MOL0     C93184   3.755   6.663   4.503  0.0233 -0.3032  0.9849
  691MOL0     O93185   3.726   6.543   4.565  0.2944 -0.4539  0.0892
  691MOL0     C93186   3.635   6.547   4.680  0.7320  0.3973  0.2582
  691MOL0     C93187   3.597   6.405   4.724 -0.2028 -0.0563 -0.1070
  691MOL0     C93188   3.508   6.419   4.847  0.6550  0.4033  0.7325
  691MOL0     C93189   3.418   6.298   4.873  0.0966  0.0421 -0.8809
  691MOL0     C93190   3.348   6.318   5.002 -0.3611  0.6373 -0.2393
  691MOL0     C93191   3.211   6.246   5.009 -0.1171 -0.4790  0.2281
  691MOL0     C93192   3.227   6.092   5.030  0.5483  0.9923  1.0280
  691MOL0     C93193   3.085   6.024   5.063 -0.3321 -0.4191 -1.2119
  691MOL0    Cl93194   2.995   5.984   4.911 -0.9317  0.0528 -0.2360
  691MOL0     C93195   3.786   6.649   4.372  0.2372 -0.1883 -0.0248
  691MOL0     C93196   3.829   6.754   4.294 -0.2112  0.3590  0.4553
  691MOL0     O93197   3.852   7.167   4.397  0.6140 -0.4135  0.2546
  691MOL0     C93198   4.001   7.345   4.242  0.3373 -0.1041  0.4691
  691MOL0     C93199   4.085   7.436   4.189  0.9431  0.0833  0.4229
  691MOL0     N93200   4.493   7.995   3.668 -0.4782 -0.0240 -0.0731
  691MOL0     N93201   4.455   8.117   3.685  0.2745 -0.1186 -0.0628
  691MOL0     C93202   5.110   8.779   4.215  0.2115  1.0104 -0.4940
  691MOL0     C93203   5.214   8.768   4.305  0.4635  0.5421 -0.5781
  691MOL0     C93204   5.417   8.626   4.715 -0.8725  0.6279 -0.4200
  691MOL0     C93205   5.441   8.755   4.768  1.1102  0.8119  0.6542
  691MOL0     C93206   5.524   8.776   4.875 -0.1253 -0.2531 -0.1667
  691MOL0     C93207   5.601   8.671   4.923  0.1503  0.5169  1.0805
  691MOL0     O93208   5.690   8.690   5.035 -0.0236  0.1376 -0.0785
  691MOL0     C93209   5.708   8.823   5.080 -0.3750  0.5636 -0.0342
  691MOL0     C93210   5.809   8.903   4.983 -0.0503 -0.7124  1.4042
  691MOL0     C93211   5.822   9.053   5.038  0.3303  0.0460  0.3294
  691MOL0     C93212   5.962   9.122   5.002  0.4244  0.8368  0.4121
  691MOL0     C93213   5.951   9.272   5.025  0.9063  0.7128 -0.2285
  691MOL0     C93214   5.934   9.390   5.054  0.6797  0.1054 -0.0914
  691MOL0     C93215   5.600   8.546   4.853 -1.2364  0.2822 -0.1465
  691MOL0     C93216   5.496   8.524   4.763 -1.2070  0.2557 -0.6811
  691MOL0     C93217   5.477   8.392   4.702 -0.5007  0.8726  0.4636
  691MOL0     H93218   5.059   8.762   4.601 -4.3823 -0.0981 -0.3053
  691MOL0     H93219   4.854   8.767   4.431  0.0707  0.8387  2.1117
  691MOL0     H93220   4.799   8.594   4.216  2.8433  1.6231  1.1980
  691MOL0     H93221   4.710   8.745   4.265 -2.8576 -3.0775  0.7346
  691MOL0     H93222   4.753   8.618   3.989  2.3274  1.9942 -1.1652
  691MOL0     H93223   4.709   8.781   3.992  2.3400 -1.0959  0.0002
  691MOL0     H93224   4.512   8.671   3.958  1.8293 -2.7248 -0.8685
  691MOL0     H93225   4.514   8.752   4.113 -0.9911  1.6298 -2.5540
  691MOL0     H93226   4.595   8.452   4.059  3.0341  2.4120 -1.9963
  691MOL0     H93227   4.585   8.531   4.216  1.7173 -0.9779 -1.0088
  691MOL0     H93228   4.380   8.408   4.231 -0.5430 -3.3000 -3.8934
  691MOL0     H93229   4.335   8.579   4.188 -1.9633  0.2067 -3.0773
  691MOL0     H93230   4.209   8.436   4.031  0.1148 -1.7481 -3.0029
  691MOL0     H93231   4.344   8.501   3.940  1.4056  1.6955  1.1719
  691MOL0     H93232   4.323   8.215   4.056  1.2800 -0.5595  1.0087
  691MOL0     H93233   4.472   8.284   3.977 -0.2897 -0.3671 -0.2449
  691MOL0     H93234   4.211   8.213   3.859 -0.3948  1.6058  0.1322
  691MOL0     H93235   4.326   8.313   3.766  1.3116  1.1556  0.0781
  691MOL0     H93236   4.388   7.973   3.981 -0.9338  0.3891  0.0457
  691MOL0     H93237   4.546   7.742   3.744  2.3552 -1.5277  2.2051
  691MOL0     H93238   4.600   7.781   3.900 -2.3555 -2.5054  3.2479
  691MOL0     H93239   4.332   7.753   3.952 -1.6447  0.0948 -2.1510
  691MOL0     H93240   4.332   7.688   3.781  0.4571 -1.3986 -0.8670
  691MOL0     H93241   4.502   7.573   3.995  0.7975  0.0509 -0.5328
  691MOL0     H93242   4.512   7.546   3.825  1.3727 -1.1222  0.2098
  691MOL0     H93243   4.361   7.361   3.916 -1.0916 -1.0021  0.3618
  691MOL0     H93244   4.257   7.497   3.841  0.8220  1.2879 -0.4266
  691MOL0     H93245   4.265   7.209   4.022  1.1019 -1.3835  2.3912
  691MOL0     H93246   4.107   7.045   4.125 -1.4769  0.0456  0.1783
  691MOL0     H93247   3.849   6.992   4.537 -2.6975  0.6745 -1.1311
  691MOL0     H93248   3.770   6.808   4.673  2.5574 -1.7889  0.7026
  691MOL0     H93249   3.673   6.594   4.771 -0.5690  0.1949  0.9266
  691MOL0     H93250   3.541   6.597   4.655  1.2635  2.1175  1.4824
  691MOL0     H93251   3.552   6.350   4.641 -2.6451 -1.4701  2.0167
  691MOL0     H93252   3.689   6.352   4.748  0.6623 -0.0062 -2.9165
  691MOL0     H93253   3.565   6.415   4.940 -1.4758 -2.5379  2.0660
  691MOL0     H93254   3.453   6.513   4.862  1.7004  0.7974  2.2971
  691MOL0     H93255   3.482   6.210   4.866  1.9111  1.3477 -1.2291
  691MOL0     H93256   3.346   6.293   4.791 -0.6162 -0.4591 -0.2453
  691MOL0     H93257   3.330   6.425   5.016 -0.4887  0.3651  2.0071
  691MOL0     H93258   3.421   6.297   5.081  2.8846  0.5692 -3.0154
  691MOL0     H93259   3.165   6.288   5.098  0.2600  1.8958 -0.6184
  691MOL0     H93260   3.158   6.272   4.916  0.4566  2.2120  0.5691
  691MOL0     H93261   3.287   6.069   5.118 -1.5340 -0.7151  2.1009
  691MOL0     H93262   3.290   6.055   4.950  0.1203  2.4164 -0.0154
  691MOL0     H93263   3.094   5.934   5.124 -0.9922 -1.1287 -2.1510
  691MOL0     H93264   3.019   6.092   5.119 -3.2783 -3.4575 -0.7007
  691MOL0     H93265   3.768   6.550   4.330 -0.3823 -0.2186  0.3038
  691MOL0     H93266   3.836   6.736   4.188 -0.3192 -2.6166  0.8696
  691MOL0     H93267   3.916   7.380   4.301 -1.3512  2.3152 -3.0012
  691MOL0     H93268   4.063   7.540   4.215  3.1558  0.6184  0.3585
  691MOL0     H93269   5.122   8.766   4.108 -4.1587 -2.8192 -0.8700
  691MOL0     H93270   5.318   8.760   4.275  0.5121  1.0785 -0.5581
  691MOL0     H93271   5.378   8.834   4.728 -0.2643  0.3165  1.7341
  691MOL0     H93272   5.533   8.879   4.908 -0.9005 -0.8639  2.1413
  691MOL0     H93273   5.750   8.825   5.181 -1.7313  2.3834  0.5591
  691MOL0     H93274   5.616   8.881   5.092 -0.0704  1.5167 -1.8717
  691MOL0     H93275   5.755   8.914   4.889  2.7139  4.0275  0.0550
  691MOL0     H93276   5.909   8.860   4.975 -0.7714 -2.6286  1.9715
  691MOL0     H93277   5.811   9.066   5.146  3.2786  0.3634  0.6846
  691MOL0     H93278   5.745   9.109   4.985  0.9157 -1.5134 -2.3362
  691MOL0     H93279   6.045   9.079   5.058  0.4380  1.9268  1.2719
  691MOL0     H93280   5.975   9.090   4.898 -1.4741 -0.9339  0.6563
  691MOL0     H93281   5.906   9.492   5.073  0.0484 -0.2253  0.8196
  691MOL0     H93282   5.672   8.475   4.892 -1.1742  1.3843  1.9057
  691MOL0     H93283   5.563   8.326   4.713 -0.8325  0.5411  1.1938
  691MOL0     H93284   5.393   8.338   4.748 -0.5429 -0.2639 -0.8901
  691MOL0     H93285   5.453   8.395   4.595 -0.9699 -0.2120  0.5217
  692MOL0     O93286   4.050   9.487   8.495 -0.9466  0.0221  0.4300
  692MOL0     C93287   4.111   9.426   8.408 -0.0572 -0.9097 -1.0098
  692MOL0     O93288   4.234   9.461   8.364  0.5916 -1.0534  0.0099
  692MOL0     C93289   4.315   9.565   8.411  0.0135 -0.5043  1.0304
  692MOL0     C93290   4.276   9.697   8.418 -0.0475  0.0105  0.0478
  692MOL0     C93291   4.339   9.796   8.502 -1.2343  0.2579  0.3827
  692MOL0     C93292   4.437   9.744   8.596 -0.1581 -0.0433  0.2703
  692MOL0     O93293   4.495   9.809   8.704  0.6544 -0.3060  0.4948
  692MOL0     C93294   4.506   9.953   8.696 -0.1744  1.8580  1.4217
  692MOL0     C93295   4.571  10.006   8.821 -0.1268  0.1853  0.6084
  692MOL0     C93296   4.721  10.000   8.805  0.6310  0.7965  0.7914
  692MOL0     C93297   4.793  10.030   8.934 -1.1447 -0.4406 -0.7911
  692MOL0     C93298   4.801   9.924   9.043 -0.1893 -0.0833  0.8395
  692MOL0     C93299   4.838   9.787   8.981  1.7984 -0.9957 -0.7088
  692MOL0     C93300   4.963   9.789   8.890 -0.3275  0.4097 -0.4448
  692MOL0     C93301   5.006   9.649   8.858  0.1218 -0.2868  0.1512
  692MOL0     N93302   4.916   9.567   8.777  0.4283 -0.6563 -0.8259
  692MOL0     C93303   4.873   9.589   8.645  0.8370  0.8358 -0.8461
  692MOL0     C93304   4.835   9.470   8.610  0.3877  1.5934 -0.2196
  692MOL0     C93305   4.814   9.438   8.466 -0.8920  0.0058  0.6389
  692MOL0     C93306   4.955   9.440   8.394  0.0972 -0.3081  0.0757
  692MOL0     C93307   4.943   9.456   8.241  0.0441  0.4179 -0.4015
  692MOL0     C93308   5.085   9.464   8.188 -0.3415 -0.9082  0.4390
  692MOL0     O93309   5.161   9.577   8.231  0.0130 -0.1211 -0.5282
  692MOL0     C93310   5.280   9.595   8.164  0.4608  0.0734 -0.2702
  692MOL0     C93311   5.353   9.704   8.188 -0.2793 -0.7008  0.8336
  692MOL0     C93312   5.478   9.718   8.133 -0.1653  0.1461 -0.0135
  692MOL0     C93313   5.533   9.621   8.053 -0.7994 -0.3223 -0.2596
  692MOL0     C93314   5.675   9.639   8.007 -0.5058 -0.5878 -0.2614
  692MOL0     O93315   5.731   9.534   7.946 -0.1113  0.1616  0.1469
  692MOL0     C93316   5.858   9.527   7.887 -0.9851  0.5369 -0.4170
  692MOL0     C93317   5.952   9.631   7.885 -1.2753 -0.0072  0.6934
  692MOL0     C93318   6.078   9.605   7.821 -0.7621 -0.6818  0.6166
  692MOL0     C93319   6.118   9.486   7.759  0.1927  0.7241  0.1565
  692MOL0     O93320   6.233   9.474   7.687 -0.2257 -0.6452 -1.3018
  692MOL0     C93321   6.352   9.502   7.759 -0.7856 -0.3461 -0.3725
  692MOL0     C93322   6.415   9.624   7.692 -0.6068 -0.3835  0.6967
  692MOL0     C93323   6.541   9.667   7.754 -0.7992 -0.9053  0.2253
  692MOL0     C93324   6.523   9.734   7.895  0.4431 -0.4295 -0.8566
  692MOL0     C93325   6.657   9.751   7.973  0.1681 -1.0663  0.3985
  692MOL0     C93326   6.752   9.864   7.916 -0.0653  0.5697  0.3763
  692MOL0     C93327   6.879   9.886   8.002 -0.8680 -0.1738 -0.3529
  692MOL0     C93328   6.941  10.024   7.969  0.4412 -0.8095 -0.8489
  692MOL0    Cl93329   7.051  10.086   8.089  0.4124 -0.1984  0.2369
  692MOL0     C93330   6.022   9.380   7.763  1.3527  0.2387  0.5741
  692MOL0     C93331   5.892   9.402   7.821 -0.2530 -0.0116  0.1193
  692MOL0     O93332   5.732   9.745   8.033 -0.0070  0.2561  0.9351
  692MOL0     C93333   5.467   9.498   8.032 -0.2718 -0.0802  0.6202
  692MOL0     C93334   5.340   9.495   8.087 -0.1058 -0.4852  0.1388
  692MOL0     N93335   4.837   9.376   8.713  0.1633 -0.0301 -0.2693
  692MOL0     N93336   4.886   9.438   8.809 -0.0463  0.0727  0.3513
  692MOL0     C93337   4.470   9.603   8.596  0.4209  0.5857  0.4185
  692MOL0     C93338   4.419   9.522   8.495  0.1577  0.1748  0.5961
  692MOL0     C93339   4.060   9.297   8.345 -0.0280 -0.3121 -0.1034
  692MOL0     C93340   4.143   9.224   8.255 -0.5372 -0.2335  0.7992
  692MOL0     C93341   4.093   9.112   8.189  0.2860  0.6043  0.1351
  692MOL0     C93342   3.960   9.078   8.208  0.9206 -0.4458  0.0709
  692MOL0     O93343   3.902   8.975   8.142 -0.4697  0.3809  0.4190
  692MOL0     C93344   3.989   8.867   8.090  0.3970 -0.3182 -0.1265
  692MOL0     C93345   3.888   8.751   8.078 -0.3952  0.2176 -0.4523
  692MOL0     C93346   3.831   8.686   8.212  0.3917 -0.0288  0.6411
  692MOL0     C93347   3.765   8.546   8.198  0.1573 -0.9567  0.4413
  692MOL0     C93348   3.869   8.453   8.154  0.5564 -0.5797 -0.2928
  692MOL0     C93349   3.967   8.395   8.124  0.2778  0.3069  0.5719
  692MOL0     C93350   3.879   9.148   8.304  0.2579  0.1163  0.5222
  692MOL0     C93351   3.929   9.259   8.362 -0.7132 -0.3532 -0.5379
  692MOL0     C93352   3.833   9.318   8.457 -0.0422  0.2572  0.2207
  692MOL0     H93353   4.189   9.726   8.360  0.9300  0.3728 -1.2841
  692MOL0     H93354   4.318   9.902   8.493  2.7480  1.6547  4.0846
  692MOL0     H93355   4.549   9.987   8.601  1.4883 -0.0875  1.4204
  692MOL0     H93356   4.409  10.003   8.693 -1.9581 -1.4058  0.0366
  692MOL0     H93357   4.541   9.945   8.907 -1.8525 -0.2880 -0.2893
  692MOL0     H93358   4.537  10.108   8.840 -1.1836 -0.3202  1.5773
  692MOL0     H93359   4.750  10.060   8.718 -0.8370 -0.8056 -0.8942
  692MOL0     H93360   4.745   9.900   8.768 -1.8718  0.6873 -0.8427
  692MOL0     H93361   4.893  10.074   8.920  0.0710 -1.3014  3.7202
  692MOL0     H93362   4.741  10.116   8.977  3.0737  2.0719 -0.1175
  692MOL0     H93363   4.880   9.952   9.113  2.1185 -0.9799 -1.2747
  692MOL0     H93364   4.709   9.916   9.103 -0.6025  0.3877  0.2853
  692MOL0     H93365   4.848   9.716   9.063  0.5459  0.4817  0.7996
  692MOL0     H93366   4.748   9.751   8.930 -0.5988 -1.1300  3.2218
  692MOL0     H93367   5.051   9.833   8.939 -0.0570 -1.7946  1.2233
  692MOL0     H93368   4.937   9.850   8.803 -1.0486  2.4936  1.1584
  692MOL0     H93369   5.099   9.663   8.802 -1.2619  3.6152 -1.5831
  692MOL0     H93370   5.020   9.600   8.954  0.7885  1.5279  1.0280
  692MOL0     H93371   4.883   9.680   8.588  0.3642  0.7549 -1.0555
  692MOL0     H93372   4.761   9.343   8.453  0.0838 -0.2067 -3.0402
  692MOL0     H93373   4.760   9.519   8.416  2.4400  0.0358 -3.5108
  692MOL0     H93374   5.021   9.514   8.440  1.0567 -2.0668  1.6669
  692MOL0     H93375   5.006   9.350   8.429  1.4767  0.7289  0.8093
  692MOL0     H93376   4.884   9.547   8.225  1.3756  1.2482 -0.6825
  692MOL0     H93377   4.882   9.373   8.204 -1.0348  1.5772 -1.2948
  692MOL0     H93378   5.072   9.458   8.079  0.5733 -1.8255  0.3673
  692MOL0     H93379   5.119   9.362   8.208  2.4765  0.0908  1.0911
  692MOL0     H93380   5.314   9.780   8.255  3.1561  0.2438  1.9743
  692MOL0     H93381   5.529   9.811   8.155 -0.6128 -0.0299  1.9431
  692MOL0     H93382   5.932   9.735   7.909  0.3385  0.2259  1.1468
  692MOL0     H93383   6.139   9.695   7.815  0.4621 -1.5366 -0.0947
  692MOL0     H93384   6.330   9.523   7.864  0.3347 -1.3759  0.0935
  692MOL0     H93385   6.427   9.424   7.745  1.8577  2.3183 -2.5331
  692MOL0     H93386   6.422   9.598   7.586 -1.5474  0.9717  0.2690
  692MOL0     H93387   6.345   9.708   7.697  0.8075  0.8992 -0.1238
  692MOL0     H93388   6.610   9.584   7.768  1.8705  0.9388 -1.1844
  692MOL0     H93389   6.572   9.747   7.687 -2.4321 -0.5571 -0.1674
  692MOL0     H93390   6.455   9.675   7.957 -0.8416  1.5774 -0.2518
  692MOL0     H93391   6.472   9.829   7.877  0.1745 -0.4825 -0.4031
  692MOL0     H93392   6.704   9.653   7.983 -0.7940 -1.5897 -0.0499
  692MOL0     H93393   6.619   9.782   8.071 -0.5451 -3.8597  1.0849
  692MOL0     H93394   6.777   9.851   7.810 -0.2131 -5.0414  0.7249
  692MOL0     H93395   6.695   9.955   7.931  1.5973  1.7302 -0.0181
  692MOL0     H93396   6.952   9.806   7.992  2.0138  2.2734 -0.2490
  692MOL0     H93397   6.853   9.890   8.108 -0.0274 -0.7567 -0.1140
  692MOL0     H93398   6.993  10.027   7.873  0.3968 -0.3497 -0.8626
  692MOL0     H93399   6.862  10.098   7.955  1.1422 -0.0614 -0.9171
  692MOL0     H93400   6.046   9.286   7.714 -0.7038  1.1730 -2.5425
  692MOL0     H93401   5.822   9.320   7.830 -0.0498 -0.1821  0.1522
  692MOL0     H93402   5.504   9.422   7.964 -1.7875 -2.3348  2.1808
  692MOL0     H93403   5.288   9.400   8.076 -0.5216 -0.1340 -1.1016
  692MOL0     H93404   4.543   9.557   8.663  0.9080 -1.0306 -1.1324
  692MOL0     H93405   4.456   9.420   8.485 -0.4033 -0.0246  0.5447
  692MOL0     H93406   4.244   9.252   8.225 -1.5751  1.5155 -1.4116
  692MOL0     H93407   4.156   9.053   8.123 -1.5989 -2.6960  1.0556
  692MOL0     H93408   4.078   8.839   8.146 -0.7068 -3.1467  0.3564
  692MOL0     H93409   4.022   8.907   7.993 -1.3184  1.4433 -0.0572
  692MOL0     H93410   3.940   8.677   8.016  3.5485  3.3668 -1.2732
  692MOL0     H93411   3.814   8.775   8.001 -1.1103 -1.5638 -0.3746
  692MOL0     H93412   3.751   8.755   8.244 -2.4375 -1.6912 -2.2222
  692MOL0     H93413   3.909   8.678   8.289  1.1817 -0.1735 -0.1653
  692MOL0     H93414   3.730   8.519   8.298 -0.6272 -0.4103  0.3183
  692MOL0     H93415   3.688   8.558   8.122  0.4287  2.3595  0.5564
  692MOL0     H93416   4.058   8.347   8.094 -1.0076 -0.5657 -2.2796
  692MOL0     H93417   3.774   9.122   8.317  0.6281 -0.0929  3.6455
  692MOL0     H93418   3.796   9.408   8.408 -0.2061  0.7197  1.1689
  692MOL0     H93419   3.751   9.248   8.475  0.5745 -0.8015 -0.9062
  692MOL0     H93420   3.889   9.346   8.547  1.3005 -0.6408 -0.3107
  693MOL0     O93421   7.283   3.207   2.835  0.3104  0.3210 -0.2814
  693MOL0     C93422   7.332   3.138   2.923  0.0078 -0.6717  1.2147
  693MOL0     O93423   7.264   3.108   3.040 -0.3956  0.3274  1.2326
  693MOL0     C93424   7.149   3.188   3.072  0.3908  0.6877  0.1561
  693MOL0     C93425   7.103   3.309   3.016  0.3201 -0.5557 -0.8225
  693MOL0     C93426   6.994   3.379   3.078 -0.6367  0.1794  0.0342
  693MOL0     C93427   6.932   3.331   3.188 -0.1320  0.0861 -0.7182
  693MOL0     O93428   6.846   3.407   3.262  0.6724 -0.5435  0.2511
  693MOL0     C93429   6.743   3.467   3.196  0.7947 -0.4867  0.4668
  693MOL0     C93430   6.614   3.376   3.196 -0.2625 -0.4538 -0.7056
  693MOL0     C93431   6.502   3.447   3.135  1.3148 -0.6351 -0.4169
  693MOL0     C93432   6.371   3.365   3.141 -0.0562 -0.5409  0.5015
  693MOL0     C93433   6.264   3.443   3.066  0.1939  0.0224 -0.1578
  693MOL0     C93434   6.161   3.353   2.994 -0.0788  0.0080 -1.0231
  693MOL0     C93435   6.101   3.232   3.068 -0.6302 -0.8254 -0.0796
  693MOL0     C93436   6.024   3.267   3.200  0.4553 -0.9543 -0.5549
  693MOL0     N93437   5.968   3.152   3.269 -1.2747 -0.3595 -0.0708
  693MOL0     C93438   5.997   3.020   3.243 -0.1962  0.3703  0.5242
  693MOL0     C93439   5.923   2.958   3.336  0.5636  0.6232  0.5705
  693MOL0     C93440   5.909   2.807   3.354  0.0610  0.4417  0.1350
  693MOL0     C93441   5.793   2.757   3.438  0.2694  0.2114 -0.0776
  693MOL0     C93442   5.837   2.637   3.523 -0.3598 -0.0872 -0.5562
  693MOL0     C93443   5.892   2.682   3.661 -0.4621  0.3882  0.0491
  693MOL0     O93444   5.788   2.733   3.752  0.2748 -0.3953  0.7046
  693MOL0     C93445   5.691   2.646   3.806  0.9864  0.1701  0.0676
  693MOL0     C93446   5.600   2.716   3.883 -0.8768  0.0507  0.0328
  693MOL0     C93447   5.513   2.636   3.969  0.2982 -0.4190 -0.1655
  693MOL0     C93448   5.513   2.500   3.979 -0.8628  0.6978  0.3827
  693MOL0     C93449   5.430   2.414   4.074 -0.7729  0.0151 -0.1814
  693MOL0     O93450   5.336   2.483   4.154  0.4962  1.0979  0.2570
  693MOL0     C93451   5.259   2.414   4.252 -0.5974 -0.4442  0.2119
  693MOL0     C93452   5.324   2.344   4.359  0.5976  0.1408 -0.7278
  693MOL0     C93453   5.244   2.294   4.462  0.4547  0.0270 -0.5383
  693MOL0     C93454   5.105   2.313   4.462 -0.3892 -0.0251 -0.5316
  693MOL0     O93455   5.029   2.261   4.558  0.2617  0.1123 -1.1129
  693MOL0     C93456   4.985   2.128   4.539  0.7906 -0.2461 -0.8414
  693MOL0     C93457   5.061   2.038   4.637  0.1761 -0.2256 -0.1088
  693MOL0     C93458   4.994   1.904   4.646 -0.2073  0.2201  0.2830
  693MOL0     C93459   5.078   1.801   4.731 -0.0077  0.4088 -0.1940
  693MOL0     C93460   4.976   1.700   4.788  0.3722 -1.1434 -0.0521
  693MOL0     C93461   5.041   1.577   4.861 -0.5368  0.0028 -0.2753
  693MOL0     C93462   4.933   1.479   4.908  0.0275 -0.1336 -0.2694
  693MOL0     C93463   4.889   1.381   4.795 -0.3768 -0.5220 -0.0036
  693MOL0    Cl93464   4.764   1.280   4.838  0.4165 -0.1032  0.7108
  693MOL0     C93465   5.045   2.378   4.356 -0.3524 -0.0986  0.1759
  693MOL0     C93466   5.119   2.415   4.247 -0.1441  0.2781  0.4306
  693MOL0     O93467   5.455   2.294   4.090  0.3194  0.0056  0.2866
  693MOL0     C93468   5.594   2.432   3.885  0.1429 -0.0710  0.5313
  693MOL0     C93469   5.685   2.505   3.800 -1.1335 -0.9884  0.0518
  693MOL0     N93470   5.847   3.044   3.406  0.0613 -0.1274 -0.2789
  693MOL0     N93471   5.881   3.162   3.369  0.1770 -1.0643 -0.4957
  693MOL0     C93472   6.972   3.210   3.237  0.0425  1.0846  0.0168
  693MOL0     C93473   7.073   3.134   3.178 -0.6263  0.3512  0.1110
  693MOL0     C93474   7.472   3.088   2.912  0.1100 -0.6072 -0.1304
  693MOL0     C93475   7.518   3.016   3.018 -0.2942  0.5798  0.5225
  693MOL0     C93476   7.654   2.973   3.025  0.1532 -0.9840 -0.2147
  693MOL0     C93477   7.744   2.995   2.928 -0.8527  0.7587  0.3524
  693MOL0     O93478   7.875   2.949   2.928 -0.4348  1.1054  0.2516
  693MOL0     C93479   7.906   2.826   2.984 -0.2105 -0.0016 -0.5571
  693MOL0     C93480   8.003   2.758   2.885  0.2551  0.6797  0.3745
  693MOL0     C93481   8.032   2.614   2.945 -0.1448  0.6360 -0.6133
  693MOL0     C93482   8.146   2.559   2.860 -0.1973 -0.0597 -0.4112
  693MOL0     C93483   8.106   2.525   2.723 -0.1534 -0.4857  0.7329
  693MOL0     C93484   8.061   2.529   2.609  1.0655  0.1582 -0.0272
  693MOL0     C93485   7.706   3.080   2.819  0.6724 -0.0071 -0.1253
  693MOL0     C93486   7.567   3.123   2.811 -0.1775  0.2877  1.1361
  693MOL0     C93487   7.524   3.185   2.682 -0.5973 -0.3359  0.7026
  693MOL0     H93488   7.132   3.359   2.924 -2.3877  1.7026 -0.5723
  693MOL0     H93489   6.976   3.475   3.030  0.9022  0.3627 -0.2252
  693MOL0     H93490   6.706   3.549   3.258 -2.1530 -2.0927  0.9818
  693MOL0     H93491   6.764   3.499   3.094 -2.7391  0.8917  0.0461
  693MOL0     H93492   6.578   3.354   3.297 -1.2703 -2.0048 -1.3665
  693MOL0     H93493   6.628   3.285   3.137 -1.4026 -0.7215 -0.5919
  693MOL0     H93494   6.524   3.464   3.029  2.9945  3.5669  0.4125
  693MOL0     H93495   6.485   3.548   3.174 -3.4938 -1.4641  0.2447
  693MOL0     H93496   6.378   3.269   3.090 -2.7696  0.0968 -1.3003
  693MOL0     H93497   6.347   3.341   3.245  5.7668 -2.2521  1.7864
  693MOL0     H93498   6.203   3.506   3.132 -1.2640 -0.9101 -0.5597
  693MOL0     H93499   6.309   3.508   2.990  0.9781 -0.1497  0.1505
  693MOL0     H93500   6.081   3.422   2.968  1.7615  3.2280  1.1180
  693MOL0     H93501   6.215   3.311   2.908 -0.5816 -3.2202  0.0898
  693MOL0     H93502   6.188   3.168   3.085  0.7760 -0.0289 -3.4920
  693MOL0     H93503   6.030   3.185   3.000 -1.5597  1.1314 -0.5479
  693MOL0     H93504   6.087   3.326   3.267 -1.4458 -0.6462  1.0410
  693MOL0     H93505   5.938   3.330   3.174  0.5715 -0.6125 -0.1142
  693MOL0     H93506   6.056   2.972   3.165  0.2244 -0.6432  1.4393
  693MOL0     H93507   5.890   2.763   3.256  1.5910 -1.4823  0.6353
  693MOL0     H93508   6.005   2.766   3.388 -0.5900 -0.6419  0.7548
  693MOL0     H93509   5.774   2.844   3.501 -0.6240  0.4417 -0.6407
  693MOL0     H93510   5.700   2.739   3.383 -3.4357  0.3367  5.3486
  693MOL0     H93511   5.925   2.582   3.487 -0.1548  0.2315 -0.5536
  693MOL0     H93512   5.757   2.569   3.551  0.6959 -0.3515  2.1296
  693MOL0     H93513   5.970   2.755   3.643  0.5445 -0.6922 -0.0995
  693MOL0     H93514   5.937   2.595   3.711  1.8947  0.9668 -0.9337
  693MOL0     H93515   5.609   2.824   3.885 -0.1587 -0.0146  0.7992
  693MOL0     H93516   5.445   2.695   4.029  1.4639  0.4308  0.3458
  693MOL0     H93517   5.431   2.339   4.343  0.5775  0.8301 -1.1114
  693MOL0     H93518   5.275   2.241   4.551  1.4900  0.4210 -0.6492
  693MOL0     H93519   4.877   2.116   4.546  0.6885  1.1942  1.1220
  693MOL0     H93520   5.003   2.088   4.439  0.6380  0.1391 -1.0260
  693MOL0     H93521   5.162   2.037   4.597  0.4013  1.8482  0.2961
  693MOL0     H93522   5.064   2.064   4.743 -1.0708  0.5535 -0.2397
  693MOL0     H93523   4.904   1.911   4.708  1.0355 -0.7255  2.3243
  693MOL0     H93524   4.979   1.872   4.543  0.7695 -0.7062  0.4150
  693MOL0     H93525   5.145   1.847   4.804  0.2161  1.6215 -1.1203
  693MOL0     H93526   5.154   1.752   4.670  0.0417 -4.0783  2.9783
  693MOL0     H93527   4.909   1.659   4.712  3.2221 -3.6110 -1.4453
  693MOL0     H93528   4.931   1.750   4.875  1.5459 -0.0124 -0.0816
  693MOL0     H93529   5.113   1.530   4.794 -0.6698 -0.0304 -0.3935
  693MOL0     H93530   5.117   1.620   4.928 -1.3582  0.0498  0.6629
  693MOL0     H93531   4.842   1.531   4.940  1.2043  0.8393  1.6620
  693MOL0     H93532   4.968   1.431   5.000 -2.2461  5.0931  3.8813
  693MOL0     H93533   4.852   1.440   4.711  0.0857 -0.7260 -0.3526
  693MOL0     H93534   4.979   1.326   4.767 -0.1192  0.0777 -0.3899
  693MOL0     H93535   4.937   2.382   4.355 -0.3755  4.0784  1.6534
  693MOL0     H93536   5.070   2.469   4.167  2.5006 -0.2571 -1.7271
  693MOL0     H93537   5.593   2.324   3.888  1.7111 -0.1332  3.4635
  693MOL0     H93538   5.755   2.443   3.745 -0.5032  1.5757 -2.2975
  693MOL0     H93539   6.907   3.171   3.315  0.5425  1.1746  0.4838
  693MOL0     H93540   7.106   3.041   3.224 -1.0069  1.0700  1.9187
  693MOL0     H93541   7.441   2.981   3.085 -2.0158  2.2634 -0.4904
  693MOL0     H93542   7.666   2.906   3.110 -0.7592 -0.8010  0.0714
  693MOL0     H93543   7.817   2.763   2.990  0.4558 -0.9661 -0.5042
  693MOL0     H93544   7.949   2.833   3.084  4.0229 -2.9148 -1.8755
  693MOL0     H93545   8.088   2.824   2.868 -1.4659  2.5628 -1.6586
  693MOL0     H93546   7.946   2.745   2.792 -1.8183 -1.5197  1.8178
  693MOL0     H93547   7.945   2.550   2.928  0.4087  0.5587 -3.8876
  693MOL0     H93548   8.062   2.619   3.050  1.4302  0.0205 -0.9977
  693MOL0     H93549   8.225   2.634   2.859  0.9063 -1.1070  1.5198
  693MOL0     H93550   8.177   2.466   2.910 -1.3847  2.1915  5.3235
  693MOL0     H93551   8.032   2.518   2.506 -1.2895 -0.0048  0.5813
  693MOL0     H93552   7.776   3.082   2.736  1.2309 -3.9146  0.0485
  693MOL0     H93553   7.435   3.147   2.632  0.4147 -1.1293 -0.5601
  693MOL0     H93554   7.530   3.294   2.692  0.4149 -0.4231  1.3263
  693MOL0     H93555   7.597   3.156   2.606  0.5684 -0.0259  1.6682
  694MOL0     O93556   2.863   5.678  11.050  0.1586 -0.3337 -0.8351
  694MOL0     C93557   2.838   5.584  11.128  0.4753  0.3456 -0.4366
  694MOL0     O93558   2.906   5.462  11.124 -0.2746 -0.1331 -0.6049
  694MOL0     C93559   2.943   5.418  10.999 -0.4493 -0.2385 -0.0664
  694MOL0     C93560   2.842   5.387  10.904 -0.1008 -0.7737 -0.2541
  694MOL0     C93561   2.873   5.345  10.774  0.6667 -0.0887 -0.0250
  694MOL0     C93562   2.999   5.323  10.728 -0.1461  0.4894 -0.0993
  694MOL0     O93563   3.008   5.292  10.599  0.0546 -0.2834  0.1352
  694MOL0     C93564   3.136   5.273  10.546  0.7016  0.0250 -0.5787
  694MOL0     C93565   3.131   5.232  10.396  0.3386  0.4250 -0.1447
  694MOL0     C93566   3.055   5.089  10.386 -0.7465  0.1489  0.2839
  694MOL0     C93567   3.058   5.015  10.247  0.2182  0.4337  0.3317
  694MOL0     C93568   3.024   5.114  10.133  1.0225 -0.1603 -0.2613
  694MOL0     C93569   2.882   5.177  10.139 -0.0032 -0.7026 -0.1293
  694MOL0     C93570   2.843   5.220   9.994 -0.9855 -0.2905 -0.2575
  694MOL0     C93571   2.729   5.325  10.004  1.1074  0.2674 -0.5310
  694MOL0     N93572   2.671   5.363   9.882  0.8501 -0.6651 -0.3843
  694MOL0     C93573   2.679   5.482   9.804  0.1845  0.1403 -0.2554
  694MOL0     C93574   2.571   5.486   9.719 -0.5585  0.0274  0.5830
  694MOL0     C93575   2.548   5.584   9.608 -0.6281  0.3840  0.5696
  694MOL0     C93576   2.606   5.535   9.474 -0.1833 -0.6272 -0.2356
  694MOL0     C93577   2.566   5.622   9.353  0.1496 -0.4911 -0.3770
  694MOL0     C93578   2.626   5.554   9.232  0.5208 -0.0564  0.9626
  694MOL0     O93579   2.772   5.544   9.236 -0.2730 -0.0608  0.3039
  694MOL0     C93580   2.856   5.515   9.131  1.0146 -0.8470 -0.0282
  694MOL0     C93581   2.994   5.506   9.139 -0.1180 -0.3217 -0.1864
  694MOL0     C93582   3.081   5.497   9.020 -0.7034 -0.7968  0.0999
  694MOL0     C93583   3.017   5.466   8.901  0.4755 -0.0389  0.4883
  694MOL0     C93584   3.111   5.425   8.793  0.0456  0.9689 -0.6479
  694MOL0     O93585   3.236   5.377   8.827  0.5529  0.6902 -0.9729
  694MOL0     C93586   3.313   5.294   8.739  0.6548 -0.4371 -0.3941
  694MOL0     C93587   3.280   5.242   8.608 -0.1183 -0.9319  0.3560
  694MOL0     C93588   3.361   5.158   8.541 -0.9355  0.1414 -0.7935
  694MOL0     C93589   3.475   5.107   8.609  0.3761  0.4450 -0.8174
  694MOL0     O93590   3.567   5.019   8.553 -0.3016 -0.2523 -0.5101
  694MOL0     C93591   3.544   4.974   8.415 -0.5312  0.1205  0.1797
  694MOL0     C93592   3.659   4.887   8.356 -0.4599  0.6642 -1.5767
  694MOL0     C93593   3.634   4.741   8.352  0.3295  0.4456 -0.1216
  694MOL0     C93594   3.755   4.674   8.273 -0.3165 -0.0676 -0.6873
  694MOL0     C93595   3.891   4.669   8.342 -0.1615 -0.4257  0.0071
  694MOL0     C93596   3.977   4.548   8.287 -0.2694 -0.6353  0.6915
  694MOL0     C93597   4.117   4.522   8.354 -0.4395  0.9950 -1.3461
  694MOL0     C93598   4.181   4.384   8.332 -0.3679 -0.5350 -0.7180
  694MOL0    Cl93599   4.195   4.358   8.161  0.3089  0.2417 -0.0960
  694MOL0     C93600   3.511   5.146   8.740 -0.8602 -0.5851  0.3528
  694MOL0     C93601   3.435   5.245   8.806 -0.6349 -0.7596  0.9705
  694MOL0     O93602   3.056   5.418   8.682  0.3235 -0.5116 -0.2372
  694MOL0     C93603   2.876   5.459   8.895  0.0326  0.4358 -0.7567
  694MOL0     C93604   2.795   5.482   9.006  0.2713 -0.5598  0.1862
  694MOL0     N93605   2.510   5.360   9.740  0.3035 -0.1680 -0.2193
  694MOL0     N93606   2.573   5.292   9.838  0.0428  0.1269  0.2795
  694MOL0     C93607   3.105   5.365  10.811  0.5859  0.3496 -0.1059
  694MOL0     C93608   3.073   5.410  10.942  0.1359 -0.3289 -0.5825
  694MOL0     C93609   2.745   5.628  11.239  1.2228 -0.2211  0.1036
  694MOL0     C93610   2.707   5.764  11.245  0.5899  0.0180 -0.5237
  694MOL0     C93611   2.626   5.821  11.342 -0.9742 -0.3830 -0.1850
  694MOL0     C93612   2.587   5.742  11.454 -0.9029  0.2381 -1.2481
  694MOL0     O93613   2.494   5.801  11.541  0.7646 -0.0142  0.4460
  694MOL0     C93614   2.460   5.732  11.662 -0.2057 -0.5787  0.3425
  694MOL0     C93615   2.562   5.746  11.762 -0.0594  0.3638  0.1391
  694MOL0     C93616   2.580   5.888  11.815 -0.6640 -0.5111 -0.2800
  694MOL0     C93617   2.662   5.886  11.947  1.6636 -0.2673 -0.5267
  694MOL0     C93618   2.580   5.847  12.056 -0.5160  0.1012  0.2200
  694MOL0     C93619   2.495   5.806  12.131 -0.2067  0.5865 -1.4424
  694MOL0     C93620   2.626   5.608  11.457  0.0637 -0.2425  0.4848
  694MOL0     C93621   2.703   5.551  11.349 -0.9709 -0.3926 -0.5830
  694MOL0     C93622   2.741   5.404  11.354  0.0999 -0.6655 -1.2882
  694MOL0     H93623   2.740   5.414  10.930 -0.1562  0.1681 -1.3744
  694MOL0     H93624   2.798   5.354  10.696 -0.4003  3.5754  1.2078
  694MOL0     H93625   3.178   5.374  10.552  1.5529 -0.1631 -2.5416
  694MOL0     H93626   3.206   5.207  10.597 -0.4892 -0.1046  0.9473
  694MOL0     H93627   3.227   5.239  10.344 -0.0825  0.0185 -1.0018
  694MOL0     H93628   3.079   5.307  10.336  4.5954  1.0664 -3.4533
  694MOL0     H93629   2.948   5.098  10.404 -0.8902 -4.6186  3.5857
  694MOL0     H93630   3.095   5.030  10.469 -1.2514  4.0427  3.5610
  694MOL0     H93631   3.160   4.981  10.225 -0.2419 -0.3975 -0.6014
  694MOL0     H93632   2.998   4.924  10.245 -1.5920  1.5837 -0.1508
  694MOL0     H93633   3.115   5.173  10.120  2.5378 -1.5158  3.1163
  694MOL0     H93634   3.029   5.049  10.045  1.4921 -1.9026  1.0048
  694MOL0     H93635   2.805   5.111  10.180 -1.3207  2.6118  3.2844
  694MOL0     H93636   2.900   5.258  10.210  4.2132 -0.6641 -1.0108
  694MOL0     H93637   2.809   5.132   9.938  3.7327 -3.4306  1.1568
  694MOL0     H93638   2.930   5.263   9.943 -0.0817 -0.7855  0.8343
  694MOL0     H93639   2.649   5.287  10.068  0.9167  2.7048  0.8168
  694MOL0     H93640   2.768   5.418  10.047  0.8073  0.1549 -0.0063
  694MOL0     H93641   2.755   5.560   9.804 -2.1871  2.7056 -3.0505
  694MOL0     H93642   2.442   5.606   9.594 -0.8896  0.8568  2.7981
  694MOL0     H93643   2.599   5.679   9.627 -1.6882  1.6151 -2.2765
  694MOL0     H93644   2.715   5.527   9.484 -0.1112 -2.3693 -1.8427
  694MOL0     H93645   2.575   5.431   9.456  1.8029 -1.7347  2.1031
  694MOL0     H93646   2.601   5.726   9.361 -3.8480  1.2764 -2.8140
  694MOL0     H93647   2.457   5.631   9.356  0.1839 -0.2155  0.2757
  694MOL0     H93648   2.587   5.594   9.138  2.6776 -1.8656 -0.8067
  694MOL0     H93649   2.580   5.455   9.233 -1.5456  0.8479  1.0802
  694MOL0     H93650   3.050   5.524   9.230  3.7436  1.9169 -2.6987
  694MOL0     H93651   3.189   5.494   9.034 -0.2725 -6.3681 -1.8422
  694MOL0     H93652   3.187   5.263   8.556 -1.6701 -2.2299  2.4600
  694MOL0     H93653   3.333   5.129   8.441 -3.9578 -0.1945  0.0425
  694MOL0     H93654   3.449   4.921   8.414  0.1614 -1.1542  0.1179
  694MOL0     H93655   3.530   5.063   8.352 -0.8457  1.1649  1.6644
  694MOL0     H93656   3.667   4.912   8.250  1.6174  4.5959 -0.7024
  694MOL0     H93657   3.750   4.913   8.410 -0.3277  0.7196 -1.8268
  694MOL0     H93658   3.657   4.711   8.455 -1.5606  0.7332  0.4267
  694MOL0     H93659   3.533   4.713   8.322  0.6528 -1.0469  0.1238
  694MOL0     H93660   3.772   4.715   8.173  1.5429  0.0092 -0.3664
  694MOL0     H93661   3.740   4.567   8.259  1.5533 -0.5130  0.3821
  694MOL0     H93662   3.883   4.658   8.451  0.9295 -0.1111  0.1255
  694MOL0     H93663   3.936   4.768   8.331 -1.8268  0.3778  0.0745
  694MOL0     H93664   3.909   4.464   8.301 -3.7221  1.4407 -1.9304
  694MOL0     H93665   3.993   4.554   8.179  4.0468  0.4546  1.2093
  694MOL0     H93666   4.105   4.541   8.461  2.3937  0.5830 -0.8811
  694MOL0     H93667   4.194   4.588   8.315  2.8907  0.3182  3.2290
  694MOL0     H93668   4.285   4.385   8.365  0.3017  3.7615 -2.3567
  694MOL0     H93669   4.106   4.313   8.369  0.2126 -0.3347  0.8909
  694MOL0     H93670   3.602   5.109   8.787 -1.9691 -1.3803  1.9609
  694MOL0     H93671   3.453   5.274   8.909  1.3615  1.1073  0.1758
  694MOL0     H93672   2.828   5.432   8.802 -1.4039 -1.1880  0.3870
  694MOL0     H93673   2.688   5.484   8.988  0.0581 -3.4428  0.5890
  694MOL0     H93674   3.211   5.364  10.792  0.9897  1.9846  1.7435
  694MOL0     H93675   3.148   5.435  11.016 -1.7328 -0.4447  1.4375
  694MOL0     H93676   2.732   5.830  11.163  1.3142  0.2387 -0.1291
  694MOL0     H93677   2.579   5.918  11.335 -2.0422 -0.9718 -1.5069
  694MOL0     H93678   2.445   5.624  11.648 -2.0602 -0.5967  2.0379
  694MOL0     H93679   2.367   5.772  11.704 -0.1037  0.0306 -0.0122
  694MOL0     H93680   2.656   5.707  11.722 -1.1090 -3.7621  1.2162
  694MOL0     H93681   2.533   5.685  11.847 -0.3349 -0.1810 -0.3408
  694MOL0     H93682   2.488   5.935  11.849 -1.0408 -1.9046  0.7546
  694MOL0     H93683   2.625   5.958  11.744  1.2913  2.4949  3.5779
  694MOL0     H93684   2.736   5.806  11.941  0.2246 -1.5246 -4.3373
  694MOL0     H93685   2.701   5.987  11.960 -0.8499  0.5269  1.8240
  694MOL0     H93686   2.417   5.768  12.195 -2.2346  2.5744 -2.5701
  694MOL0     H93687   2.603   5.550  11.546 -2.3796  1.0017  0.7221
  694MOL0     H93688   2.847   5.386  11.373 -0.4747 -3.1989 -0.1000
  694MOL0     H93689   2.683   5.374  11.442  1.2220  1.9124  0.4711
  694MOL0     H93690   2.709   5.354  11.262  3.2108 -0.7679 -2.4357
  695MOL0     O93691   3.200   7.996   0.304 -0.0552  0.3235  0.0002
  695MOL0     C93692   3.176   8.110   0.257  0.3466 -0.3884 -0.5202
  695MOL0     O93693   3.186   8.233   0.325 -0.3989 -0.1891 -0.7802
  695MOL0     C93694   3.213   8.221   0.451 -0.4489 -0.9581 -0.2910
  695MOL0     C93695   3.323   8.290   0.508 -0.3172  0.6536 -0.5480
  695MOL0     C93696   3.337   8.284   0.650 -0.3900 -0.1106  0.3658
  695MOL0     C93697   3.241   8.216   0.732  0.5793  0.4039  0.0410
  695MOL0     O93698   3.234   8.212   0.871 -0.4471  0.0702  0.1249
  695MOL0     C93699   3.300   8.313   0.950  0.6153  0.5008 -0.1157
  695MOL0     C93700   3.215   8.356   1.070 -1.2655  0.9487 -0.1244
  695MOL0     C93701   3.235   8.491   1.136  0.3628 -0.3824 -0.0472
  695MOL0     C93702   3.151   8.520   1.255  0.3621 -0.3572 -0.1406
  695MOL0     C93703   3.239   8.477   1.383 -0.7609  0.5315  0.1414
  695MOL0     C93704   3.353   8.577   1.421 -0.6230 -0.0690 -0.1444
  695MOL0     C93705   3.456   8.519   1.535 -0.2770 -0.5937 -0.3324
  695MOL0     C93706   3.552   8.636   1.580 -0.0285  0.2613 -0.5766
  695MOL0     N93707   3.690   8.600   1.573 -0.4689 -1.1362 -0.2955
  695MOL0     C93708   3.761   8.589   1.453 -0.0811 -0.6536  1.0741
  695MOL0     C93709   3.894   8.588   1.486  0.1951 -0.0038 -0.3930
  695MOL0     C93710   4.020   8.584   1.411 -0.5496  0.1238  0.5884
  695MOL0     C93711   4.014   8.466   1.321 -0.0835 -0.7773 -0.5951
  695MOL0     C93712   4.154   8.416   1.268  0.2366  0.2146  0.6879
  695MOL0     C93713   4.122   8.327   1.144  0.1492  0.2158  0.5996
  695MOL0     O93714   4.244   8.260   1.104  0.4148  0.1247  0.4988
  695MOL0     C93715   4.250   8.176   0.994 -0.5271  0.1174  0.3687
  695MOL0     C93716   4.149   8.158   0.900 -0.7301  0.0146  0.5928
  695MOL0     C93717   4.167   8.064   0.800 -0.3632  0.1073  0.2938
  695MOL0     C93718   4.279   7.982   0.778  0.3034 -0.1966 -0.7272
  695MOL0     C93719   4.300   7.905   0.659 -0.3160  0.0523 -0.1884
  695MOL0     O93720   4.203   7.905   0.566  0.3355  0.5873 -0.2630
  695MOL0     C93721   4.223   7.824   0.461  0.3124 -0.2876 -0.2249
  695MOL0     C93722   4.170   7.693   0.457 -1.0949 -0.2695 -0.6039
  695MOL0     C93723   4.177   7.617   0.349 -0.5432  0.2312  0.2985
  695MOL0     C93724   4.219   7.670   0.225 -1.3519  0.0840  0.0101
  695MOL0     O93725   4.213   7.604   0.108 -0.0196 -0.0214 -0.2428
  695MOL0     C93726   4.339   7.552   0.056  0.7361 -0.7752  0.0716
  695MOL0     C93727   4.378   7.423   0.120  0.3920  0.8783  0.1426
  695MOL0     C93728   4.263   7.320   0.119 -0.2372  0.3340 -0.9373
  695MOL0     C93729   4.323   7.185   0.118 -0.7563 -0.0124 -0.2227
  695MOL0     C93730   4.223   7.070   0.124  0.3552 -0.0628  0.0835
  695MOL0     C93731   4.134   7.064   0.000  0.0700  0.2217  0.0451
  695MOL0     C93732   4.030   6.954   0.004  0.0200 -0.1836  0.3617
  695MOL0     C93733   4.073   6.816   0.043 -0.1337 -0.4909 -0.1719
  695MOL0    Cl93734   4.066   6.786   0.226  0.7716 -0.3424 -0.1347
  695MOL0     C93735   4.277   7.799   0.227  0.5544  1.1312  0.9379
  695MOL0     C93736   4.285   7.871   0.352 -0.8452 -0.8346  0.4771
  695MOL0     O93737   4.398   7.831   0.652 -0.4360 -1.1135 -0.2411
  695MOL0     C93738   4.385   8.015   0.860  0.3447 -1.0813  1.0172
  695MOL0     C93739   4.371   8.113   0.967  0.2206  0.7421 -0.8975
  695MOL0     N93740   3.893   8.580   1.627  0.2463  0.3005  0.5071
  695MOL0     N93741   3.772   8.598   1.675  0.7562 -0.4012 -0.7756
  695MOL0     C93742   3.132   8.154   0.673 -0.1448 -0.3587  0.6062
  695MOL0     C93743   3.121   8.148   0.535  0.0032  0.2263 -0.0854
  695MOL0     C93744   3.137   8.120   0.115  0.4641 -0.7859 -0.4142
  695MOL0     C93745   3.079   8.018   0.041  0.3151 -0.1841  0.7578
  695MOL0     C93746   3.022   8.041  -0.090 -0.4865 -0.7165  0.3857
  695MOL0     C93747   3.044   8.165  -0.159  0.2281  0.1024 -0.2067
  695MOL0     O93748   2.991   8.175  -0.284 -0.2592  0.7137  0.5202
  695MOL0     C93749   2.951   8.306  -0.326 -0.2845  0.1969  0.4348
  695MOL0     C93750   2.876   8.282  -0.460 -0.6132  0.9624  0.6446
  695MOL0     C93751   2.727   8.243  -0.430 -0.6280  0.7205 -0.4589
  695MOL0     C93752   2.724   8.099  -0.381  0.1729  0.6818 -0.2143
  695MOL0     C93753   2.589   8.049  -0.385 -1.1009  0.4839  0.2613
  695MOL0     C93754   2.483   7.998  -0.359 -0.0288  0.5009 -0.1990
  695MOL0     C93755   3.116   8.265  -0.088  0.1003 -0.9455  1.4983
  695MOL0     C93756   3.175   8.244   0.043 -0.0584 -0.3849  0.2103
  695MOL0     C93757   3.259   8.357   0.102  0.7662 -0.0662 -0.5767
  695MOL0     H93758   3.395   8.331   0.439 -0.2773 -0.0542 -0.9368
  695MOL0     H93759   3.428   8.329   0.689 -0.9918  0.1659  1.4848
  695MOL0     H93760   3.399   8.280   0.983  1.6926  3.6059  0.1402
  695MOL0     H93761   3.321   8.402   0.889  0.3327 -0.1144 -1.1391
  695MOL0     H93762   3.216   8.280   1.149  0.2043  0.9335 -0.1390
  695MOL0     H93763   3.117   8.352   1.022 -0.6228 -1.3606 -1.3833
  695MOL0     H93764   3.214   8.561   1.055  0.8082 -0.6324 -0.3819
  695MOL0     H93765   3.343   8.495   1.156 -0.0466  1.4955  2.3310
  695MOL0     H93766   3.143   8.629   1.249  3.6090 -0.0333 -0.4365
  695MOL0     H93767   3.054   8.469   1.251 -1.0014  2.0873 -4.1234
  695MOL0     H93768   3.160   8.489   1.457 -2.3455  1.0646 -1.5568
  695MOL0     H93769   3.279   8.376   1.389 -2.5497 -0.2198 -0.0753
  695MOL0     H93770   3.416   8.588   1.332 -0.2458 -1.1622 -0.0254
  695MOL0     H93771   3.317   8.679   1.436  0.4076  0.0685  1.8794
  695MOL0     H93772   3.506   8.425   1.509  1.0163  0.0437 -0.1994
  695MOL0     H93773   3.396   8.504   1.625  2.9818  1.3211  2.3825
  695MOL0     H93774   3.551   8.729   1.522  2.0268  1.7768  1.6459
  695MOL0     H93775   3.528   8.659   1.683  2.3467  2.6035 -0.4380
  695MOL0     H93776   3.735   8.611   1.350  0.0587 -2.5815  0.5870
  695MOL0     H93777   4.032   8.674   1.350 -0.9591  1.1272  1.9382
  695MOL0     H93778   4.109   8.577   1.474  1.0567 -0.9847 -1.6393
  695MOL0     H93779   3.979   8.376   1.373 -1.2046 -0.6874 -1.1565
  695MOL0     H93780   3.947   8.488   1.237  2.1757  0.9604 -2.0644
  695MOL0     H93781   4.215   8.358   1.338  2.2423 -2.8966 -3.2588
  695MOL0     H93782   4.207   8.504   1.231 -0.8483  1.3482  1.7139
  695MOL0     H93783   4.090   8.381   1.055 -4.1666  2.8157  3.3540
  695MOL0     H93784   4.046   8.256   1.176 -1.4781  1.9893  0.8968
  695MOL0     H93785   4.055   8.213   0.899 -0.6029  0.2262  0.3796
  695MOL0     H93786   4.086   8.062   0.727  0.0126 -1.6325 -0.1343
  695MOL0     H93787   4.108   7.665   0.542 -0.6514 -0.6818 -0.4106
  695MOL0     H93788   4.142   7.516   0.336 -2.8205  0.8917  0.8150
  695MOL0     H93789   4.319   7.531  -0.050 -0.8757  2.0092 -0.2765
  695MOL0     H93790   4.418   7.623   0.083 -1.2577  0.5557  2.8982
  695MOL0     H93791   4.464   7.379   0.068 -0.1220 -0.7406  0.6112
  695MOL0     H93792   4.397   7.443   0.226  1.7119 -1.0617  0.3259
  695MOL0     H93793   4.195   7.327   0.205 -0.7409 -0.5736 -1.2468
  695MOL0     H93794   4.213   7.327   0.022  1.4149 -0.5039 -1.8928
  695MOL0     H93795   4.390   7.179   0.205  0.8807  3.4390 -1.0777
  695MOL0     H93796   4.386   7.174   0.030 -2.5753  1.8754 -1.8652
  695MOL0     H93797   4.161   7.088   0.212  0.4842  1.1175 -0.0458
  695MOL0     H93798   4.277   6.975   0.125 -0.7661 -0.7288  1.5621
  695MOL0     H93799   4.073   7.154  -0.011 -0.2166  0.1747  1.1569
  695MOL0     H93800   4.199   7.048  -0.087 -1.1393  0.1293 -0.8570
  695MOL0     H93801   3.984   6.949  -0.095  2.3379  2.6742 -0.9950
  695MOL0     H93802   3.957   6.984   0.080  0.9659  2.6006  0.2784
  695MOL0     H93803   4.008   6.751  -0.017  0.0588  0.7595 -1.8084
  695MOL0     H93804   4.172   6.787   0.007  0.9884  0.4698  1.9313
  695MOL0     H93805   4.329   7.839   0.140  1.1110  0.7847  1.1094
  695MOL0     H93806   4.327   7.970   0.369 -0.9591 -1.1534  3.1183
  695MOL0     H93807   4.483   7.974   0.838  0.4196 -0.4421  0.0840
  695MOL0     H93808   4.451   8.136   1.037 -1.2002 -1.8200  1.7625
  695MOL0     H93809   3.057   8.108   0.738 -0.9986 -0.0846 -0.1611
  695MOL0     H93810   3.038   8.091   0.493 -1.2863 -0.4013  3.0222
  695MOL0     H93811   3.073   7.913   0.066  0.8422 -0.1868  0.8963
  695MOL0     H93812   2.970   7.955  -0.133 -2.5216  0.3855  0.5080
  695MOL0     H93813   3.033   8.376  -0.348 -1.6735  1.7014 -0.1651
  695MOL0     H93814   2.887   8.355  -0.252 -4.0402 -0.7629 -1.9316
  695MOL0     H93815   2.933   8.208  -0.517 -1.9159  1.0293 -0.8154
  695MOL0     H93816   2.884   8.373  -0.519  5.0647  0.5833  0.2920
  695MOL0     H93817   2.681   8.257  -0.528 -1.0522  0.1889 -0.3396
  695MOL0     H93818   2.675   8.308  -0.358 -2.4861 -1.0426 -0.1163
  695MOL0     H93819   2.787   8.032  -0.440  1.0566  2.3523 -1.2487
  695MOL0     H93820   2.756   8.099  -0.277  1.3691 -0.5946 -0.5627
  695MOL0     H93821   2.390   7.949  -0.335  2.4888 -4.5505  0.6655
  695MOL0     H93822   3.136   8.361  -0.134 -1.6821 -0.8410  0.8676
  695MOL0     H93823   3.197   8.423   0.163  2.1094 -0.9863  1.9662
  695MOL0     H93824   3.349   8.331   0.158 -0.1628 -2.9152 -0.2390
  695MOL0     H93825   3.288   8.424   0.021  1.3689  1.1801  0.6365
  696MOL0     O93826   8.047   8.208   7.697  0.2547 -0.1028 -0.5190
  696MOL0     C93827   8.041   8.115   7.619 -0.3737  0.8110 -0.8269
  696MOL0     O93828   8.118   8.091   7.519  0.2573 -0.6481  0.5575
  696MOL0     C93829   8.233   8.162   7.496  0.3568 -0.5069 -0.2058
  696MOL0     C93830   8.337   8.085   7.440 -0.7219  0.2597 -0.8162
  696MOL0     C93831   8.461   8.143   7.420 -0.6130 -0.8674  0.0019
  696MOL0     C93832   8.489   8.276   7.458  0.0591  1.1350  0.4453
  696MOL0     O93833   8.608   8.343   7.431 -0.0045  1.2583 -0.0100
  696MOL0     C93834   8.726   8.280   7.466 -0.4079  0.4833 -1.0144
  696MOL0     C93835   8.847   8.369   7.422  1.0009  0.3089 -0.7973
  696MOL0     C93836   8.964   8.285   7.384  0.2594 -0.3572 -0.0073
  696MOL0     C93837   9.017   8.201   7.505 -0.0858  0.5869  0.7282
  696MOL0     C93838   9.163   8.151   7.463 -0.4449 -0.0546  0.6695
  696MOL0     C93839   9.235   8.073   7.571 -1.2677  0.3562  0.2608
  696MOL0     C93840   9.377   8.032   7.539 -0.4689 -0.2432 -0.5938
  696MOL0     C93841   9.398   7.900   7.466 -0.3842  0.3189 -0.1699
  696MOL0     N93842   9.540   7.870   7.419 -0.6752  0.6477  0.8084
  696MOL0     C93843   9.606   7.762   7.465  0.3352  0.8797  0.6928
  696MOL0     C93844   9.709   7.742   7.375  0.6447 -0.4550 -0.6013
  696MOL0     C93845   9.817   7.628   7.392 -0.0008 -1.0566  0.3669
  696MOL0     C93846   9.950   7.689   7.449 -0.2189  0.5852 -0.2546
  696MOL0     C93847  10.070   7.591   7.443 -0.0335 -0.4452 -1.6102
  696MOL0     C93848  10.195   7.656   7.507  0.1114 -0.3299  0.9581
  696MOL0     O93849  10.267   7.749   7.419 -0.4383  0.9473  0.2163
  696MOL0     C93850  10.247   7.882   7.450  0.6418  0.3610  0.2081
  696MOL0     C93851  10.235   7.974   7.349 -0.1118 -1.2530  0.0988
  696MOL0     C93852  10.206   8.105   7.376  0.8891 -0.9311  0.3365
  696MOL0     C93853  10.177   8.151   7.504 -1.3219  0.1405  1.0276
  696MOL0     C93854  10.136   8.287   7.530 -1.0797 -0.4804  0.1562
  696MOL0     O93855  10.058   8.304   7.645  0.0673 -0.3819 -0.2259
  696MOL0     C93856  10.014   8.425   7.699  0.1516 -0.0784  0.4476
  696MOL0     C93857  10.101   8.537   7.696 -0.2029  0.4264 -0.4701
  696MOL0     C93858  10.049   8.655   7.729  0.0982 -0.9712  0.0265
  696MOL0     C93859   9.918   8.683   7.756  0.5307  0.2277  0.0423
  696MOL0     O93860   9.879   8.807   7.788 -0.3044  0.8802  0.5237
  696MOL0     C93861   9.745   8.850   7.761 -0.6830 -0.6670 -0.3265
  696MOL0     C93862   9.710   8.979   7.829 -0.0757 -0.4763  0.4577
  696MOL0     C93863   9.715   8.986   7.976  0.0075  0.9682  0.4927
  696MOL0     C93864   9.573   8.969   8.038 -0.3749  1.2106 -0.6684
  696MOL0     C93865   9.562   9.032   8.178  1.4541 -0.0856 -0.5002
  696MOL0     C93866   9.420   9.030   8.242 -0.1664 -0.7962  0.4243
  696MOL0     C93867   9.426   9.103   8.377 -0.0486 -0.4453 -0.0165
  696MOL0     C93868   9.470   9.013   8.489  0.0604  0.6885  0.6999
  696MOL0    Cl93869   9.457   9.102   8.648 -0.0202  0.2199  0.6680
  696MOL0     C93870   9.835   8.572   7.779 -0.5852 -1.2247  1.2501
  696MOL0     C93871   9.882   8.443   7.744  0.0254 -0.8905  0.6034
  696MOL0     O93872  10.187   8.377   7.457  0.4205  0.2610  0.0896
  696MOL0     C93873  10.188   8.059   7.614  0.3955  0.9006  0.6644
  696MOL0     C93874  10.235   7.925   7.587  1.4015  0.3370 -0.2753
  696MOL0     N93875   9.693   7.829   7.273 -0.6760 -0.5717  0.1532
  696MOL0     N93876   9.593   7.904   7.295  1.0795 -0.3490 -0.0317
  696MOL0     C93877   8.387   8.349   7.514  0.3587  0.2574 -0.3170
  696MOL0     C93878   8.260   8.294   7.540  0.1396  0.3983 -0.1552
  696MOL0     C93879   7.921   8.030   7.625 -0.8486  0.4917 -0.9747
  696MOL0     C93880   7.858   8.010   7.504  0.5073  0.1453  0.3627
  696MOL0     C93881   7.743   7.927   7.499 -0.1035  0.1640 -0.5873
  696MOL0     C93882   7.686   7.877   7.614 -0.5530 -0.6049 -0.0940
  696MOL0     O93883   7.556   7.830   7.603  0.0343  0.2777 -0.3736
  696MOL0     C93884   7.476   7.797   7.718 -0.0672  0.1948 -0.0301
  696MOL0     C93885   7.357   7.731   7.657 -0.4557  0.3149  0.5185
  696MOL0     C93886   7.253   7.707   7.759  0.5009 -0.8772  0.4625
  696MOL0     C93887   7.296   7.600   7.860 -0.3117  0.4474 -0.8420
  696MOL0     C93888   7.301   7.658   7.995 -0.1696  0.3381  0.2766
  696MOL0     C93889   7.326   7.695   8.110  0.9335  0.0717  0.2117
  696MOL0     C93890   7.755   7.892   7.735  0.2116  0.1193 -0.1000
  696MOL0     C93891   7.857   7.981   7.744 -0.6957 -0.1534  1.3751
  696MOL0     C93892   7.915   8.020   7.877 -0.0664  0.4749 -0.0894
  696MOL0     H93893   8.320   7.980   7.419 -0.3424  0.5002 -2.4482
  696MOL0     H93894   8.551   8.086   7.397 -1.4943 -2.7831  1.0937
  696MOL0     H93895   8.728   8.261   7.574  1.8880 -1.0784 -1.2517
  696MOL0     H93896   8.737   8.185   7.414 -1.2898  1.2819 -2.7306
  696MOL0     H93897   8.885   8.443   7.493 -2.1947 -0.4589  1.9436
  696MOL0     H93898   8.813   8.417   7.330  0.1283  0.3475 -0.4617
  696MOL0     H93899   9.045   8.349   7.347 -1.3993  0.2674 -2.8415
  696MOL0     H93900   8.949   8.222   7.296 -1.6084 -2.4024  1.6643
  696MOL0     H93901   9.034   8.248   7.603 -2.0933 -1.9391  2.4281
  696MOL0     H93902   8.941   8.127   7.531 -1.8340  1.6525 -1.0801
  696MOL0     H93903   9.188   8.100   7.370  1.9625 -1.2442  1.8714
  696MOL0     H93904   9.224   8.240   7.447 -0.9527 -0.0209 -1.4166
  696MOL0     H93905   9.252   8.140   7.656 -0.8660  0.6371 -0.0332
  696MOL0     H93906   9.169   7.993   7.604  0.3314 -0.9390  0.4110
  696MOL0     H93907   9.432   8.021   7.633 -1.4453  0.1593  0.0327
  696MOL0     H93908   9.433   8.111   7.487 -0.9885  1.2433  1.0079
  696MOL0     H93909   9.369   7.816   7.530  1.0553 -0.0635 -0.0028
  696MOL0     H93910   9.336   7.896   7.375  2.5389  0.9068 -2.3249
  696MOL0     H93911   9.578   7.696   7.547 -0.6652 -0.8249 -0.9140
  696MOL0     H93912   9.777   7.545   7.450 -1.9033 -1.0265 -0.8066
  696MOL0     H93913   9.850   7.609   7.289  3.0130 -1.2060  1.2554
  696MOL0     H93914   9.966   7.779   7.390  1.8640  0.9666  0.8109
  696MOL0     H93915   9.936   7.720   7.553  2.2775  0.9912  0.0313
  696MOL0     H93916  10.091   7.562   7.340  1.4208 -3.2296 -0.6315
  696MOL0     H93917  10.040   7.498   7.494  1.2394 -1.2736 -2.3288
  696MOL0     H93918  10.259   7.572   7.536 -0.0012 -0.7351  0.0730
  696MOL0     H93919  10.156   7.708   7.595  1.2130 -1.1045  1.9356
  696MOL0     H93920  10.247   7.951   7.244 -2.6522  0.1526 -0.5869
  696MOL0     H93921  10.200   8.174   7.293  0.2335  1.1227  2.0157
  696MOL0     H93922  10.202   8.518   7.661 -0.0563 -0.0133  0.1543
  696MOL0     H93923  10.116   8.739   7.712  2.7780 -3.6726 -4.9309
  696MOL0     H93924   9.749   8.879   7.655  1.2916  0.0581 -0.1131
  696MOL0     H93925   9.673   8.771   7.784 -1.8394  0.9244  1.9378
  696MOL0     H93926   9.780   9.046   7.778  1.2281 -3.1160 -1.5463
  696MOL0     H93927   9.616   9.006   7.780  1.3592 -1.1209 -2.9905
  696MOL0     H93928   9.781   8.913   8.023 -2.2183  1.0403  4.0189
  696MOL0     H93929   9.753   9.086   7.999 -0.1955  0.5293  2.9918
  696MOL0     H93930   9.573   8.859   8.044  4.0211  0.9085 -2.2879
  696MOL0     H93931   9.490   8.992   7.972  0.3996  2.1823 -1.3350
  696MOL0     H93932   9.580   9.140   8.169 -3.8963  1.0942 -0.1475
  696MOL0     H93933   9.631   8.976   8.243  1.3378 -2.0908 -2.0141
  696MOL0     H93934   9.350   9.090   8.183 -0.7302  2.4455  3.9739
  696MOL0     H93935   9.383   8.927   8.242 -2.3858 -0.0544 -0.4922
  696MOL0     H93936   9.322   9.128   8.398 -0.9439 -2.0212 -2.2176
  696MOL0     H93937   9.492   9.190   8.368  3.0340 -1.6862  5.5075
  696MOL0     H93938   9.400   8.929   8.488 -1.6936  2.0935  0.8742
  696MOL0     H93939   9.570   8.977   8.462 -0.8498 -0.8649 -0.9023
  696MOL0     H93940   9.754   8.579   7.850 -2.0466 -1.3953 -0.3365
  696MOL0     H93941   9.825   8.354   7.769 -4.0777  1.7792  1.8860
  696MOL0     H93942  10.154   8.100   7.708  2.4054  2.2434  0.8557
  696MOL0     H93943  10.264   7.856   7.666 -1.0401 -0.0645  0.3440
  696MOL0     H93944   8.411   8.453   7.535 -2.5097  0.7683  0.9817
  696MOL0     H93945   8.176   8.343   7.587 -3.6309 -3.6108 -1.9508
  696MOL0     H93946   7.890   8.066   7.416  0.4973  1.0851  0.9386
  696MOL0     H93947   7.699   7.908   7.402 -1.7869 -0.9650  0.3440
  696MOL0     H93948   7.459   7.889   7.775 -1.0758 -0.3253  0.5362
  696MOL0     H93949   7.522   7.728   7.790  0.0194 -0.7702 -0.9853
  696MOL0     H93950   7.382   7.637   7.608 -1.0607  0.8070 -0.8074
  696MOL0     H93951   7.319   7.806   7.586 -2.7128 -0.9208  0.3589
  696MOL0     H93952   7.162   7.666   7.714  1.5964 -1.5516 -1.2245
  696MOL0     H93953   7.223   7.798   7.811  5.1813  1.2850 -0.0770
  696MOL0     H93954   7.225   7.516   7.851 -0.0948  0.0152  0.9953
  696MOL0     H93955   7.394   7.554   7.843  0.6018  2.3529 -0.9784
  696MOL0     H93956   7.352   7.723   8.210 -2.1086 -0.7233  1.3427
  696MOL0     H93957   7.725   7.834   7.822 -1.8608 -0.1480 -0.9360
  696MOL0     H93958   7.874   8.110   7.924  0.3363 -0.2904  1.8441
  696MOL0     H93959   7.901   7.940   7.950 -0.8621  1.7133  1.1739
  696MOL0     H93960   8.023   8.036   7.883 -0.0519 -0.0923  2.1423
  697MOL0     O93961   1.495  10.659   8.493 -0.1223 -0.0714  0.6552
  697MOL0     C93962   1.591  10.728   8.518  0.3108 -0.4544  0.4047
  697MOL0     O93963   1.633  10.752   8.638 -0.3906  0.3244 -0.8859
  697MOL0     C93964   1.591  10.687   8.744  0.4424  0.0829  0.0498
  697MOL0     C93965   1.547  10.757   8.855 -0.6867  0.2934 -0.2371
  697MOL0     C93966   1.510  10.693   8.972 -0.0145  0.0374  1.2777
  697MOL0     C93967   1.511  10.554   8.982 -0.1181  1.2326  0.1390
  697MOL0     O93968   1.481  10.474   9.094  0.3667  0.2928  0.1079
  697MOL0     C93969   1.431  10.538   9.211 -0.0802 -0.8443  0.4914
  697MOL0     C93970   1.534  10.611   9.297  0.7707 -0.2075  0.6122
  697MOL0     C93971   1.614  10.508   9.374  0.0838  0.5083  0.4501
  697MOL0     C93972   1.690  10.579   9.478  0.0299  1.0302 -0.4155
  697MOL0     C93973   1.751  10.479   9.575  0.6671  0.1181 -0.2573
  697MOL0     C93974   1.885  10.521   9.632 -0.2263 -0.7969  1.5377
  697MOL0     C93975   1.950  10.414   9.708 -0.9341 -0.6131 -0.1942
  697MOL0     C93976   1.868  10.368   9.841  0.4636 -0.3966  0.8493
  697MOL0     N93977   1.980  10.329   9.934  0.4574  0.1424 -0.5244
  697MOL0     C93978   2.044  10.211   9.932 -0.7682  0.0821  0.3723
  697MOL0     C93979   2.117  10.211  10.043  0.1421  0.9083  0.2033
  697MOL0     C93980   2.222  10.112  10.081  0.5972  0.6301  0.2908
  697MOL0     C93981   2.309  10.068   9.961  0.0626 -0.1894 -0.1783
  697MOL0     C93982   2.355  10.180   9.863  0.3820  0.6673  0.7586
  697MOL0     C93983   2.380  10.115   9.718  0.1297  0.6649  0.1661
  697MOL0     O93984   2.254  10.075   9.661  0.0998 -0.1406  0.0610
  697MOL0     C93985   2.229  10.047   9.527 -0.4995  0.7574 -0.7639
  697MOL0     C93986   2.336   9.995   9.449 -0.5272 -0.1058  0.5243
  697MOL0     C93987   2.311   9.956   9.319 -0.1155 -0.1647  0.2195
  697MOL0     C93988   2.185   9.963   9.261 -0.4412  0.3580  0.2649
  697MOL0     C93989   2.165   9.918   9.124  0.3769 -0.3525 -0.1672
  697MOL0     O93990   2.032   9.894   9.091  0.9811  0.9222 -0.0699
  697MOL0     C93991   1.994   9.849   8.967  0.5634  0.1500  0.6963
  697MOL0     C93992   2.068   9.879   8.854 -0.2083  0.3146  0.7057
  697MOL0     C93993   2.019   9.846   8.723  0.5392  0.1772 -0.1877
  697MOL0     C93994   1.885   9.797   8.702  0.3443  0.3210 -0.3120
  697MOL0     O93995   1.850   9.774   8.577 -0.3214  0.4047  0.0462
  697MOL0     C93996   1.721   9.724   8.548  0.3575 -0.3472 -0.1058
  697MOL0     C93997   1.739   9.641   8.419  0.3573  0.2265  0.0791
  697MOL0     C93998   1.842   9.534   8.427 -0.0951  0.1503 -0.5102
  697MOL0     C93999   1.928   9.481   8.302  0.6284 -0.3076  0.5210
  697MOL0     C94000   2.004   9.362   8.331 -0.2733  0.9085  0.1855
  697MOL0     C94001   2.109   9.330   8.224  0.7022 -0.0776 -0.7693
  697MOL0     C94002   2.193   9.205   8.254 -0.9317  0.8418 -0.8478
  697MOL0     C94003   2.124   9.079   8.226  0.2218  0.1933  0.6414
  697MOL0    Cl94004   2.079   9.043   8.051 -0.0582 -0.2342 -0.0610
  697MOL0     C94005   1.820   9.760   8.819  0.3469 -0.8931 -0.0792
  697MOL0     C94006   1.877   9.786   8.948  0.9063 -0.3837 -0.2256
  697MOL0     O94007   2.270   9.887   9.068 -0.8628 -0.5629 -0.0339
  697MOL0     C94008   2.086  10.024   9.344  0.0552 -0.7331  0.7173
  697MOL0     C94009   2.099  10.063   9.476 -0.0764 -0.1210  0.5553
  697MOL0     N94010   2.089  10.326  10.115 -0.5582  0.2744  0.1946
  697MOL0     N94011   1.998  10.389  10.053 -0.4235  0.0564 -0.4326
  697MOL0     C94012   1.565  10.476   8.874  0.7700 -0.1323 -0.3783
  697MOL0     C94013   1.592  10.541   8.747  0.1601  0.1061 -0.1015
  697MOL0     C94014   1.658  10.801   8.415  0.2800 -0.2899 -1.1132
  697MOL0     C94015   1.728  10.920   8.452  0.4569 -0.0155  0.1409
  697MOL0     C94016   1.781  10.997   8.354  0.7841 -0.5859  0.7892
  697MOL0     C94017   1.765  10.970   8.219  0.5633 -0.5311  0.9075
  697MOL0     O94018   1.797  11.067   8.124 -0.0057 -0.1770  0.1861
  697MOL0     C94019   1.722  11.083   8.004 -0.2299 -0.5171  0.8005
  697MOL0     C94020   1.655  11.223   7.983 -1.2802  0.6511 -0.4176
  697MOL0     C94021   1.559  11.261   8.097  0.7224 -0.8018 -0.3030
  697MOL0     C94022   1.419  11.211   8.064  0.1226  0.4491 -0.3407
  697MOL0     C94023   1.313  11.255   8.162 -0.7827 -0.1637 -0.9909
  697MOL0     C94024   1.244  11.276   8.251 -0.2439  0.9366 -1.1550
  697MOL0     C94025   1.705  10.850   8.179 -0.5725 -0.0819  0.5304
  697MOL0     C94026   1.655  10.767   8.280  0.3348  0.8574  0.1909
  697MOL0     C94027   1.582  10.639   8.228  0.1527  0.5338  0.3396
  697MOL0     H94028   1.546  10.864   8.837  0.7467  0.0560 -1.9734
  697MOL0     H94029   1.465  10.764   9.041 -2.2953  2.7684 -2.6049
  697MOL0     H94030   1.367  10.618   9.173 -0.7088 -2.1291 -1.3288
  697MOL0     H94031   1.366  10.471   9.268  2.2787 -2.6944  1.1872
  697MOL0     H94032   1.472  10.673   9.362  1.8497  1.0402  0.4897
  697MOL0     H94033   1.605  10.668   9.236  5.8060 -2.4890  3.6869
  697MOL0     H94034   1.663  10.440   9.304 -0.9153 -0.1669  0.3905
  697MOL0     H94035   1.549  10.441   9.431  2.4626 -1.9361  0.5050
  697MOL0     H94036   1.767  10.649   9.444 -0.0289  1.4351  0.2457
  697MOL0     H94037   1.631  10.640   9.548  1.8232  1.0166  1.1889
  697MOL0     H94038   1.681  10.471   9.659  1.6529  2.0446  0.8162
  697MOL0     H94039   1.757  10.381   9.527 -1.6665  0.2429 -0.8950
  697MOL0     H94040   1.939  10.556   9.543  0.4764 -1.7411  1.5771
  697MOL0     H94041   1.876  10.604   9.702 -0.9716 -0.4948  1.0987
  697MOL0     H94042   2.051  10.450   9.728 -0.1803 -3.1669  1.0496
  697MOL0     H94043   1.961  10.327   9.641  3.6110 -1.3084  1.1226
  697MOL0     H94044   1.812  10.454   9.878  0.9409  1.1065 -1.7191
  697MOL0     H94045   1.796  10.288   9.821 -0.5458  1.2633 -3.1008
  697MOL0     H94046   2.029  10.130   9.861 -1.5116  1.4423 -1.0847
  697MOL0     H94047   2.282  10.156  10.162  0.7541  1.7378 -0.4052
  697MOL0     H94048   2.174  10.022  10.121  1.8927 -0.2420 -0.0726
  697MOL0     H94049   2.388  10.003   9.999  0.7209  1.3430  1.2074
  697MOL0     H94050   2.244  10.007   9.898  0.6528  0.8782 -1.9046
  697MOL0     H94051   2.440  10.235   9.904 -2.6152  3.1715  4.1929
  697MOL0     H94052   2.276  10.254   9.848  0.4261  0.7898  1.1300
  697MOL0     H94053   2.450  10.032   9.727 -0.5397 -0.0057 -0.5677
  697MOL0     H94054   2.424  10.182   9.644 -1.3712 -1.1228 -2.5343
  697MOL0     H94055   2.433   9.975   9.494  1.7662  1.4399 -3.2635
  697MOL0     H94056   2.389   9.909   9.260 -1.9569  1.6511 -4.0832
  697MOL0     H94057   2.170   9.915   8.848 -0.1776 -0.0747 -1.7696
  697MOL0     H94058   2.072   9.862   8.629  2.5161  0.4291  0.9248
  697MOL0     H94059   1.677   9.659   8.624 -0.4366 -2.2254 -2.0806
  697MOL0     H94060   1.648   9.804   8.534  0.5448 -0.4041 -1.5610
  697MOL0     H94061   1.644   9.592   8.393  1.7668 -1.6414 -1.9245
  697MOL0     H94062   1.753   9.716   8.341 -3.3109  2.2445  1.1113
  697MOL0     H94063   1.915   9.560   8.504 -0.4084 -0.4058 -0.0141
  697MOL0     H94064   1.788   9.451   8.474 -0.2279  1.5570  2.0216
  697MOL0     H94065   1.997   9.551   8.253  0.1918 -0.4742 -0.3519
  697MOL0     H94066   1.857   9.458   8.222 -0.7632  1.4551  1.1667
  697MOL0     H94067   1.938   9.279   8.357  1.6382 -0.6788  0.2043
  697MOL0     H94068   2.051   9.378   8.429 -2.6907 -1.2188  1.8129
  697MOL0     H94069   2.070   9.321   8.122  0.6882  0.6008 -0.8281
  697MOL0     H94070   2.182   9.411   8.224  2.6939 -1.7509 -2.3513
  697MOL0     H94071   2.222   9.210   8.359  1.3861  0.7978 -1.4345
  697MOL0     H94072   2.283   9.196   8.192  1.9302 -0.4671  3.1008
  697MOL0     H94073   2.189   8.999   8.263  0.7677  0.7995  1.0084
  697MOL0     H94074   2.030   9.071   8.281  1.0160 -0.5603  1.9327
  697MOL0     H94075   1.722   9.713   8.820  0.9699 -2.3418 -1.9244
  697MOL0     H94076   1.810   9.753   9.026  1.1722 -2.3672 -0.7861
  697MOL0     H94077   1.990  10.047   9.299 -0.2028 -2.1559  0.4745
  697MOL0     H94078   2.010  10.101   9.524 -1.4725 -0.7702 -1.3708
  697MOL0     H94079   1.574  10.369   8.890  2.8380 -0.1464 -1.3447
  697MOL0     H94080   1.629  10.482   8.664  2.4338  0.0874  0.8404
  697MOL0     H94081   1.747  10.945   8.556  2.5732 -0.0657 -0.2017
  697MOL0     H94082   1.823  11.096   8.369 -0.5672  0.2030 -0.3589
  697MOL0     H94083   1.651  11.003   7.979  1.1296 -1.8700  1.1310
  697MOL0     H94084   1.799  11.082   7.927  0.4269  1.2081  1.3863
  697MOL0     H94085   1.594  11.237   7.894 -2.0312 -1.4357 -0.2665
  697MOL0     H94086   1.736  11.297   7.976 -0.0462 -0.6813 -0.8242
  697MOL0     H94087   1.556  11.370   8.094  2.4201 -0.7168 -0.0965
  697MOL0     H94088   1.595  11.230   8.195 -1.6930  2.0526  1.6556
  697MOL0     H94089   1.389  11.234   7.961  2.1539  1.0905 -0.8292
  697MOL0     H94090   1.424  11.102   8.062 -1.1605  0.3074  1.3733
  697MOL0     H94091   1.180  11.278   8.337  1.5389  0.4154  0.2368
  697MOL0     H94092   1.688  10.821   8.076  0.8226 -2.8168  0.9667
  697MOL0     H94093   1.627  10.600   8.136 -1.4971 -1.5602  0.3379
  697MOL0     H94094   1.609  10.557   8.295  3.0538  2.9351  2.3682
  697MOL0     H94095   1.477  10.653   8.200  1.0044  3.0560 -2.0321
  698MOL0     O94096   0.428   3.157   3.001 -0.2536 -0.0837 -0.5013
  698MOL0     C94097   0.519   3.158   3.082 -0.5604 -1.0834 -0.3967
  698MOL0     O94098   0.542   3.255   3.172  0.7536 -0.0535 -0.2772
  698MOL0     C94099   0.487   3.381   3.165  0.1477  0.1457  0.1856
  698MOL0     C94100   0.401   3.432   3.260 -0.2858  0.7267 -0.7829
  698MOL0     C94101   0.342   3.555   3.252 -0.2384 -0.5700 -0.3013
  698MOL0     C94102   0.362   3.632   3.138  0.4918 -1.2798 -0.9299
  698MOL0     O94103   0.303   3.763   3.136 -0.0693 -1.0183  0.0350
  698MOL0     C94104   0.341   3.853   3.028 -0.2724  1.2394  0.4385
  698MOL0     C94105   0.286   3.994   3.061  1.3597  0.1353  0.8880
  698MOL0     C94106   0.139   3.993   3.112 -0.0588 -0.4143 -0.3377
  698MOL0     C94107   0.073   4.139   3.115 -0.4358  0.0198  0.1039
  698MOL0     C94108  -0.075   4.147   3.177 -0.2342  0.0465  0.2781
  698MOL0     C94109  -0.174   4.069   3.096 -0.6115  0.2914 -0.2101
  698MOL0     C94110  -0.316   4.087   3.133  0.3092  0.3809  0.4966
  698MOL0     C94111  -0.378   4.223   3.091 -0.2354  0.5158 -0.4851
  698MOL0     N94112  -0.518   4.214   3.071  0.2810  0.5756  0.4486
  698MOL0     C94113  -0.620   4.232   3.165 -0.1862  0.1059  1.3714
  698MOL0     C94114  -0.738   4.245   3.087  0.2668 -0.1391  0.4814
  698MOL0     C94115  -0.881   4.272   3.127  0.0782 -0.8363  0.5055
  698MOL0     C94116  -0.910   4.378   3.232  0.1292 -0.9466 -0.5520
  698MOL0     C94117  -1.032   4.346   3.321 -0.5056  0.1135 -0.6190
  698MOL0     C94118  -1.008   4.211   3.412  0.8555 -0.6630  0.3077
  698MOL0     O94119  -0.880   4.204   3.465 -0.3553  0.1937  0.6180
  698MOL0     C94120  -0.848   4.078   3.508 -0.3803  0.4988  0.5302
  698MOL0     C94121  -0.946   3.967   3.524 -1.1953 -0.7047  0.9850
  698MOL0     C94122  -0.877   3.850   3.563 -0.8906 -0.2220  0.5145
  698MOL0     C94123  -0.747   3.830   3.603  0.4483 -0.1453  0.7412
  698MOL0     C94124  -0.700   3.692   3.634 -0.1719 -0.9140 -0.9036
  698MOL0     O94125  -0.558   3.685   3.650  0.4013  0.0414  0.2020
  698MOL0     C94126  -0.494   3.575   3.690  0.1568  0.0964  1.0196
  698MOL0     C94127  -0.501   3.523   3.816 -0.3743  0.6202 -0.0624
  698MOL0     C94128  -0.438   3.399   3.840  0.0411  0.0904  0.0625
  698MOL0     C94129  -0.366   3.333   3.740 -0.5419  0.0857 -0.2247
  698MOL0     O94130  -0.292   3.220   3.788  0.3917  0.3179  0.1441
  698MOL0     C94131  -0.212   3.156   3.689  0.4193  0.3996 -0.6255
  698MOL0     C94132  -0.144   3.045   3.770 -0.6411 -0.8570  0.9234
  698MOL0     C94133  -0.028   2.974   3.696 -0.5010  0.7567  0.3972
  698MOL0     C94134  -0.085   2.929   3.563 -1.2391  1.3854  0.6341
  698MOL0     C94135   0.003   2.820   3.490 -0.7199 -0.1744 -0.2790
  698MOL0     C94136  -0.056   2.790   3.347  0.5715  0.2106 -0.3139
  698MOL0     C94137  -0.007   2.665   3.288  0.3387  0.2437 -0.2380
  698MOL0     C94138  -0.064   2.628   3.151  0.9385 -0.4923 -0.0486
  698MOL0    Cl94139  -0.018   2.757   3.031  0.1831  0.1666 -0.1727
  698MOL0     C94140  -0.361   3.395   3.610  0.0908  0.3482  0.0344
  698MOL0     C94141  -0.440   3.507   3.585 -1.3999  0.1794 -0.4332
  698MOL0     O94142  -0.780   3.598   3.643  0.1215  0.3811 -0.8680
  698MOL0     C94143  -0.665   3.947   3.597  0.2221  0.1829 -0.7345
  698MOL0     C94144  -0.712   4.070   3.543  0.6968 -0.4448 -0.3492
  698MOL0     N94145  -0.704   4.217   2.955 -0.0553  0.0332  0.3767
  698MOL0     N94146  -0.580   4.202   2.951  0.0681  0.3249 -0.7095
  698MOL0     C94147   0.449   3.583   3.044  0.4732  0.3586  0.7011
  698MOL0     C94148   0.506   3.457   3.056 -1.2113  0.8943 -0.5154
  698MOL0     C94149   0.591   3.033   3.105 -0.2104  0.4497 -0.6800
  698MOL0     C94150   0.642   3.002   3.236  0.1721 -0.5436  0.4781
  698MOL0     C94151   0.687   2.873   3.272  0.5963 -0.4688  0.1937
  698MOL0     C94152   0.702   2.774   3.173  0.0789  0.4242  0.3127
  698MOL0     O94153   0.767   2.655   3.189  0.3242 -0.9726  0.3153
  698MOL0     C94154   0.817   2.619   3.319 -0.3509  0.1061 -0.2475
  698MOL0     C94155   0.834   2.469   3.297  0.0873  0.4184  0.1252
  698MOL0     C94156   0.889   2.404   3.427 -0.6152  0.2188 -0.4090
  698MOL0     C94157   0.776   2.322   3.501 -0.4506  0.4911 -0.0945
  698MOL0     C94158   0.644   2.384   3.497  0.9594 -0.2563  0.4121
  698MOL0     C94159   0.540   2.446   3.483  0.5528  0.0963 -0.1240
  698MOL0     C94160   0.662   2.799   3.040 -0.3079 -0.5990 -0.7769
  698MOL0     C94161   0.599   2.921   3.007 -0.7219  0.1795 -0.2207
  698MOL0     C94162   0.551   2.929   2.879  0.7190 -0.7345  0.2658
  698MOL0     H94163   0.378   3.371   3.347 -2.1010  1.3623 -0.7754
  698MOL0     H94164   0.287   3.596   3.336  1.1599 -0.0852  0.4049
  698MOL0     H94165   0.450   3.855   3.037  0.0601 -5.2357  2.7618
  698MOL0     H94166   0.300   3.817   2.933 -0.8276 -2.6248  1.9650
  698MOL0     H94167   0.307   4.048   2.968  1.9355 -0.5568  0.6066
  698MOL0     H94168   0.359   4.031   3.134  1.2545  2.3002 -0.0491
  698MOL0     H94169   0.142   3.958   3.216  5.6584 -0.0526 -0.0590
  698MOL0     H94170   0.084   3.928   3.044  0.0444  0.3463 -1.1677
  698MOL0     H94171   0.144   4.196   3.175  1.2094 -1.5392 -0.2611
  698MOL0     H94172   0.071   4.189   3.018  0.6438 -1.0247 -0.4907
  698MOL0     H94173  -0.081   4.111   3.280 -0.2947  1.0178  0.6193
  698MOL0     H94174  -0.093   4.255   3.184 -1.9394 -0.0241 -1.9297
  698MOL0     H94175  -0.146   4.080   2.990  1.6747  2.5518  0.5259
  698MOL0     H94176  -0.158   3.961   3.104 -2.3839 -0.1779 -2.0424
  698MOL0     H94177  -0.327   4.059   3.238  0.2438  1.5294  0.8088
  698MOL0     H94178  -0.385   4.014   3.089  1.0411 -0.1167  0.1486
  698MOL0     H94179  -0.350   4.299   3.165  1.7914  0.1605 -0.8070
  698MOL0     H94180  -0.333   4.267   3.001 -0.5726  1.6744 -0.1119
  698MOL0     H94181  -0.604   4.235   3.272  1.0120 -3.4318  1.4297
  698MOL0     H94182  -0.933   4.314   3.040  1.7570 -0.5142 -0.3890
  698MOL0     H94183  -0.918   4.173   3.155  1.4112 -0.6640  3.1400
  698MOL0     H94184  -0.819   4.375   3.293  0.0509  2.5751 -0.0654
  698MOL0     H94185  -0.909   4.481   3.197  0.0266 -0.5998  0.4278
  698MOL0     H94186  -1.116   4.327   3.253 -1.8428 -2.9324  1.6701
  698MOL0     H94187  -1.060   4.434   3.380 -0.5322  1.2943 -2.3069
  698MOL0     H94188  -1.021   4.130   3.339 -2.2447  1.1861 -1.4141
  698MOL0     H94189  -1.081   4.206   3.493 -0.0107 -0.5027 -0.4454
  698MOL0     H94190  -1.054   3.962   3.511 -0.8062 -1.6472 -2.8738
  698MOL0     H94191  -0.931   3.756   3.565 -1.4541  0.0588 -0.5457
  698MOL0     H94192  -0.565   3.564   3.894  2.2061  3.4570  0.7997
  698MOL0     H94193  -0.448   3.350   3.936  0.6613  0.8072  0.5018
  698MOL0     H94194  -0.286   3.102   3.629  0.9011 -2.3373  1.0375
  698MOL0     H94195  -0.143   3.216   3.630 -1.3010  0.3260 -2.8123
  698MOL0     H94196  -0.102   3.083   3.864  2.7738 -2.7572  0.3204
  698MOL0     H94197  -0.226   2.978   3.800 -1.9433  1.5200  3.0177
  698MOL0     H94198   0.052   3.045   3.673  0.2596  0.5843  2.3362
  698MOL0     H94199   0.012   2.888   3.751  0.2237  1.8289  1.5826
  698MOL0     H94200  -0.092   3.015   3.495  1.0338  0.7877 -0.4653
  698MOL0     H94201  -0.191   2.899   3.561 -1.4761  1.2277 -5.5947
  698MOL0     H94202  -0.007   2.726   3.546 -0.8687 -0.9819 -1.6067
  698MOL0     H94203   0.106   2.853   3.473  0.1061 -2.3238  0.2095
  698MOL0     H94204  -0.164   2.772   3.347  0.4997  0.2948 -2.7571
  698MOL0     H94205  -0.034   2.873   3.280  1.7251 -1.3293 -1.9228
  698MOL0     H94206  -0.032   2.576   3.347  1.9853 -0.9183 -1.1761
  698MOL0     H94207   0.103   2.668   3.290  0.4151 -1.2924 -0.7757
  698MOL0     H94208  -0.024   2.538   3.104 -0.3589 -0.1947 -1.8399
  698MOL0     H94209  -0.172   2.614   3.136  1.3042 -2.1965 -1.5177
  698MOL0     H94210  -0.303   3.360   3.525  0.3054  1.5302 -0.3355
  698MOL0     H94211  -0.464   3.548   3.487 -0.7804 -2.3752 -1.7411
  698MOL0     H94212  -0.564   3.949   3.636  0.1861 -1.9440 -0.3908
  698MOL0     H94213  -0.649   4.158   3.537 -0.9273  0.6437 -3.9639
  698MOL0     H94214   0.463   3.643   2.954 -0.3353  0.5678  0.7084
  698MOL0     H94215   0.567   3.415   2.976  0.0202 -1.6105  1.5719
  698MOL0     H94216   0.639   3.065   3.325 -0.4736 -3.6689  2.8789
  698MOL0     H94217   0.706   2.865   3.379  1.3459  4.4779  0.6662
  698MOL0     H94218   0.740   2.637   3.395  0.6140  1.3912  0.4716
  698MOL0     H94219   0.900   2.689   3.333  1.0952 -1.5729 -0.2299
  698MOL0     H94220   0.896   2.454   3.209 -1.3397  1.8196 -1.1812
  698MOL0     H94221   0.747   2.412   3.262  1.6982 -1.3047 -1.2690
  698MOL0     H94222   0.932   2.474   3.499  1.0298 -2.4848  1.4458
  698MOL0     H94223   0.967   2.330   3.405  1.4921  2.1617  0.1743
  698MOL0     H94224   0.771   2.225   3.449  1.8507  0.9673 -1.3751
  698MOL0     H94225   0.801   2.305   3.606  1.3109  0.2197 -0.5210
  698MOL0     H94226   0.460   2.517   3.479  0.2704 -0.2001  0.1588
  698MOL0     H94227   0.674   2.715   2.973  2.0491  0.6424 -2.0266
  698MOL0     H94228   0.593   3.009   2.818 -1.3208 -1.4797 -2.2756
  698MOL0     H94229   0.549   2.840   2.815 -2.8119 -0.7847  0.2427
  698MOL0     H94230   0.447   2.961   2.880 -0.1159 -2.8264 -3.5156
  699MOL0     O94231   0.079  10.103   3.127  0.6925  0.0465 -0.6726
  699MOL0     C94232   0.136  10.191   3.181 -0.2059  0.2732 -0.3386
  699MOL0     O94233   0.183  10.309   3.131  0.3095 -0.1247  0.3107
  699MOL0     C94234   0.206  10.316   2.996  0.1932 -0.5451 -0.2047
  699MOL0     C94235   0.157  10.424   2.921 -0.1504 -0.2157 -1.7084
  699MOL0     C94236   0.199  10.445   2.789  0.2129  0.2149  1.1640
  699MOL0     C94237   0.296  10.368   2.725 -0.5489  0.2282 -0.1007
  699MOL0     O94238   0.320  10.382   2.591 -0.0490 -0.2519  0.0825
  699MOL0     C94239   0.446  10.339   2.541 -0.4837  0.2299  0.3072
  699MOL0     C94240   0.457  10.379   2.393 -0.0597 -0.2296  0.7712
  699MOL0     C94241   0.424  10.530   2.378  0.2715 -0.7397  0.1197
  699MOL0     C94242   0.505  10.629   2.474  0.9707 -1.3250  0.4683
  699MOL0     C94243   0.449  10.770   2.439  0.3973 -1.2746 -0.6856
  699MOL0     C94244   0.320  10.798   2.503  0.5139 -0.5309  0.1473
  699MOL0     C94245   0.274  10.934   2.480  0.1464  0.0193 -0.1438
  699MOL0     C94246   0.123  10.940   2.505 -0.6260 -0.4339 -0.1213
  699MOL0     N94247   0.087  10.912   2.647 -0.2601  0.0981 -0.1210
  699MOL0     C94248   0.127  10.993   2.750  0.3555  0.3888 -0.0524
  699MOL0     C94249   0.100  10.923   2.862  0.6421  0.7891  0.2386
  699MOL0     C94250   0.149  10.962   2.996  0.5349  0.1414 -0.4171
  699MOL0     C94251   0.076  10.877   3.094  0.4055 -0.0657 -1.1074
  699MOL0     C94252   0.109  10.927   3.231 -1.0110  0.0375 -1.0352
  699MOL0     C94253   0.026  10.851   3.334  0.4220 -0.9117  0.3861
  699MOL0     O94254  -0.001  10.718   3.285  0.1078  0.4456 -0.3976
  699MOL0     C94255  -0.039  10.622   3.380  0.0424 -0.6899  0.1656
  699MOL0     C94256  -0.017  10.489   3.352 -0.1356 -0.2405 -1.2326
  699MOL0     C94257  -0.053  10.385   3.442 -1.1392 -1.0853 -0.9025
  699MOL0     C94258  -0.099  10.428   3.563  1.8608  1.2074 -0.5975
  699MOL0     C94259  -0.143  10.323   3.666 -0.2585 -0.6173 -1.1256
  699MOL0     O94260  -0.163  10.367   3.790 -0.4679 -0.0958  0.5971
  699MOL0     C94261  -0.243  10.293   3.881  0.3120  0.1848  0.5847
  699MOL0     C94262  -0.232  10.324   4.019  0.2799 -0.5828  0.0981
  699MOL0     C94263  -0.317  10.275   4.112 -0.1371  0.4438  0.7240
  699MOL0     C94264  -0.423  10.200   4.085  0.7678 -0.9139  0.0629
  699MOL0     O94265  -0.512  10.180   4.192 -0.1893  0.5774  0.0989
  699MOL0     C94266  -0.619  10.092   4.162 -0.2610  1.0168 -0.3184
  699MOL0     C94267  -0.694  10.067   4.295 -0.6944  0.4736  0.2895
  699MOL0     C94268  -0.811  10.169   4.320 -0.6423  0.6684 -1.0667
  699MOL0     C94269  -0.910  10.109   4.423 -0.1075 -0.6813 -1.2820
  699MOL0     C94270  -0.844  10.102   4.565 -0.0449  0.8357  0.7901
  699MOL0     C94271  -0.931  10.041   4.677  0.5212  0.6428  0.2512
  699MOL0     C94272  -0.848  10.028   4.808 -0.2087  0.5556 -0.1899
  699MOL0     C94273  -0.772  10.149   4.867  0.2089 -0.3452  0.0098
  699MOL0    Cl94274  -0.887  10.244   4.949  1.0040 -0.1494 -0.4205
  699MOL0     C94275  -0.447  10.161   3.944  0.2783 -0.3725 -0.8460
  699MOL0     C94276  -0.354  10.214   3.847  0.4328  0.5739 -1.6624
  699MOL0     O94277  -0.132  10.203   3.634  0.1250  0.0466  0.1607
  699MOL0     C94278  -0.120  10.560   3.594 -0.7889 -0.5100 -0.4976
  699MOL0     C94279  -0.089  10.662   3.507 -0.9872  0.1602 -0.5770
  699MOL0     N94280   0.035  10.814   2.821  0.7934  0.5026 -0.0895
  699MOL0     N94281   0.028  10.802   2.693 -0.3666  0.7031  0.0503
  699MOL0     C94282   0.346  10.264   2.804  0.3061  0.2754  0.9024
  699MOL0     C94283   0.297  10.235   2.931  1.2758 -0.1048  0.2928
  699MOL0     C94284   0.195  10.160   3.312  0.5255 -0.1311 -0.9490
  699MOL0     C94285   0.308  10.243   3.357  1.0673 -0.0203  0.2471
  699MOL0     C94286   0.369  10.238   3.480 -0.1337 -0.4750 -0.0609
  699MOL0     C94287   0.315  10.143   3.572 -0.4480 -0.5042 -0.3908
  699MOL0     O94288   0.372  10.124   3.699  0.4334  0.1419  0.1389
  699MOL0     C94289   0.506  10.171   3.731  0.5102  0.2203  0.4828
  699MOL0     C94290   0.532  10.122   3.874 -0.1019  0.5160  0.5467
  699MOL0     C94291   0.673  10.152   3.916 -0.0332  1.0247 -0.6249
  699MOL0     C94292   0.686  10.297   3.982  0.4033  0.4346 -0.0434
  699MOL0     C94293   0.826  10.318   4.030  0.2752  0.8721  0.0131
  699MOL0     C94294   0.930  10.335   4.081  0.1731  0.6945  0.0066
  699MOL0     C94295   0.205  10.056   3.539 -0.3452 -0.2960 -0.2852
  699MOL0     C94296   0.158  10.061   3.405  0.5086  0.4745 -0.5704
  699MOL0     C94297   0.048   9.959   3.368  1.2002  1.1151  0.8094
  699MOL0     H94298   0.104  10.500   2.977  1.7484 -0.4384  0.5614
  699MOL0     H94299   0.168  10.529   2.728  1.5620 -0.3639 -0.4074
  699MOL0     H94300   0.526  10.387   2.597 -1.2322  0.6209  1.0677
  699MOL0     H94301   0.459  10.231   2.554 -0.2769  0.1349 -0.6188
  699MOL0     H94302   0.388  10.330   2.324  0.2395  1.1436 -0.5671
  699MOL0     H94303   0.557  10.364   2.352  0.3869  1.0105  1.3292
  699MOL0     H94304   0.316  10.548   2.375  0.3047 -0.6020 -0.6198
  699MOL0     H94305   0.463  10.565   2.281  4.6354  0.4464  2.0263
  699MOL0     H94306   0.485  10.614   2.580  0.0192  0.0620  0.5180
  699MOL0     H94307   0.612  10.627   2.455  1.8330  1.5721  4.1090
  699MOL0     H94308   0.525  10.842   2.469  1.3865 -2.1682 -1.0064
  699MOL0     H94309   0.447  10.783   2.330  2.2520  2.5764 -0.4169
  699MOL0     H94310   0.249  10.722   2.469  0.6406  0.4173 -2.4543
  699MOL0     H94311   0.334  10.781   2.610 -0.2685 -2.1552  0.0151
  699MOL0     H94312   0.288  10.968   2.377 -1.7597 -0.6242 -0.6525
  699MOL0     H94313   0.329  11.003   2.545  2.0321  0.1729 -1.8331
  699MOL0     H94314   0.098  11.044   2.481 -2.6950 -0.4316  1.7082
  699MOL0     H94315   0.064  10.876   2.438 -1.3183 -0.8102  0.8356
  699MOL0     H94316   0.181  11.088   2.742  0.6037  0.1863 -0.8871
  699MOL0     H94317   0.256  10.942   3.003  1.0901  1.9786 -2.6320
  699MOL0     H94318   0.134  11.069   3.013 -0.1450 -0.4239  3.8316
  699MOL0     H94319  -0.032  10.868   3.079  0.0052  1.4865  0.5348
  699MOL0     H94320   0.117  10.775   3.091 -2.1190 -1.3837  2.3794
  699MOL0     H94321   0.091  11.035   3.238  3.9772  1.0262  1.8382
  699MOL0     H94322   0.213  10.905   3.255 -1.1509 -0.0385 -0.5025
  699MOL0     H94323  -0.063  10.912   3.349  1.1628  0.1298  0.6511
  699MOL0     H94324   0.078  10.838   3.430 -1.5936 -0.5063  1.5850
  699MOL0     H94325   0.028  10.456   3.260  2.5926  1.4889 -0.6022
  699MOL0     H94326  -0.035  10.283   3.412  2.9752 -0.8135  0.0936
  699MOL0     H94327  -0.151  10.388   4.051  0.5651  0.6361 -2.7111
  699MOL0     H94328  -0.299  10.296   4.217  0.4279  0.8731  0.5425
  699MOL0     H94329  -0.667  10.148   4.081  2.1055  0.7520 -2.0043
  699MOL0     H94330  -0.575   9.999   4.124 -2.4343  0.7330 -2.3992
  699MOL0     H94331  -0.748   9.972   4.298 -1.1682  0.7038 -0.5481
  699MOL0     H94332  -0.618  10.069   4.373 -0.5524 -1.2229  0.2293
  699MOL0     H94333  -0.774  10.269   4.346 -1.3127  0.8015 -0.6008
  699MOL0     H94334  -0.882  10.169   4.237 -2.7861 -1.1421  0.6366
  699MOL0     H94335  -0.942  10.013   4.381 -0.5270 -1.7018  1.1928
  699MOL0     H94336  -0.994  10.179   4.433 -0.1655 -0.8890 -0.2217
  699MOL0     H94337  -0.806  10.200   4.597  0.6674 -0.0283  2.7425
  699MOL0     H94338  -0.756  10.038   4.556  0.6454  1.7325  1.0053
  699MOL0     H94339  -1.026  10.091   4.698 -1.1348 -2.7843  1.7762
  699MOL0     H94340  -0.967   9.942   4.646 -1.2019  1.2089  0.3153
  699MOL0     H94341  -0.781   9.943   4.793 -0.7059  0.2882 -1.0102
  699MOL0     H94342  -0.926  10.016   4.884 -1.6822  2.9181 -1.1910
  699MOL0     H94343  -0.695  10.120   4.939  2.6924  1.8886 -1.5498
  699MOL0     H94344  -0.724  10.222   4.800  1.8134 -2.0267 -0.7739
  699MOL0     H94345  -0.523  10.090   3.915  0.8734 -0.9978 -0.8850
  699MOL0     H94346  -0.370  10.187   3.743 -0.0865 -1.4643 -1.1063
  699MOL0     H94347  -0.162  10.592   3.689 -0.9689 -0.9044 -0.4418
  699MOL0     H94348  -0.101  10.768   3.526 -0.0241  0.2874 -0.6055
  699MOL0     H94349   0.425  10.203   2.761 -1.5193 -2.1645  0.8060
  699MOL0     H94350   0.334  10.155   2.994 -1.5274  0.1985  2.5366
  699MOL0     H94351   0.346  10.313   3.283  2.1156  0.0305  0.8138
  699MOL0     H94352   0.449  10.307   3.505  0.8012 -0.1701 -3.4624
  699MOL0     H94353   0.505  10.280   3.739 -3.5723  0.2372  1.7573
  699MOL0     H94354   0.577  10.141   3.653  0.7194  2.6131 -0.3255
  699MOL0     H94355   0.526  10.013   3.874  5.5475 -0.1387  2.1801
  699MOL0     H94356   0.458  10.160   3.945  0.7409  3.8780 -0.2096
  699MOL0     H94357   0.752  10.146   3.840  0.4124  1.1467 -0.1747
  699MOL0     H94358   0.697  10.073   3.987  0.7526  3.3508  1.8777
  699MOL0     H94359   0.657  10.375   3.911  2.1884  2.8857  1.7270
  699MOL0     H94360   0.624  10.295   4.073  2.8377 -0.4646  1.7026
  699MOL0     H94361   1.022  10.357   4.131 -0.6500  1.0592  1.4057
  699MOL0     H94362   0.188   9.982   3.616 -3.3507  2.2267  1.7011
  699MOL0     H94363   0.011   9.889   3.444  1.2256 -0.1701 -0.3126
  699MOL0     H94364  -0.039  10.021   3.342 -0.1258 -1.1257 -0.4823
  699MOL0     H94365   0.085   9.898   3.285 -4.3422  0.8795 -2.0225
  700MOL0     O94366   6.797   9.988   2.434  0.2276 -1.0324 -1.1928
  700MOL0     C94367   6.888   9.936   2.376 -0.5565 -0.5485 -0.5845
  700MOL0     O94368   7.006  10.006   2.345 -0.3090  0.2615 -0.6033
  700MOL0     C94369   7.026  10.134   2.388  0.2504  0.1667  1.3047
  700MOL0     C94370   7.152  10.159   2.440  0.4180 -0.4305 -0.0321
  700MOL0     C94371   7.201  10.293   2.455  0.0944 -0.4513 -0.4276
  700MOL0     C94372   7.125  10.408   2.427 -0.4987  0.8326  0.1747
  700MOL0     O94373   7.190  10.528   2.455 -0.1495 -0.5205  0.5598
  700MOL0     C94374   7.116  10.648   2.406 -0.0112 -0.1241  0.2004
  700MOL0     C94375   7.170  10.778   2.468  0.4022 -0.0798 -0.0463
  700MOL0     C94376   7.152  10.787   2.629  0.0460 -0.7648  0.0182
  700MOL0     C94377   7.029  10.872   2.677 -0.1686 -0.2488 -0.0217
  700MOL0     C94378   7.053  11.018   2.669 -0.1277  0.4069  0.3453
  700MOL0     C94379   7.152  11.064   2.784  0.1417 -0.6087  0.0130
  700MOL0     C94380   7.191  11.210   2.769 -0.1041 -0.5213 -0.0136
  700MOL0     C94381   7.085  11.321   2.799 -0.2726  0.6294  0.5045
  700MOL0     N94382   7.114  11.439   2.730  0.0071  0.2372 -0.2854
  700MOL0     C94383   7.112  11.464   2.592  0.3968 -1.3144  1.2529
  700MOL0     C94384   7.171  11.589   2.582 -0.1312  0.2899 -0.0935
  700MOL0     C94385   7.201  11.669   2.453  1.0922  0.6447  0.4883
  700MOL0     C94386   7.222  11.816   2.478 -0.3659 -0.3775  0.6271
  700MOL0     C94387   7.097  11.880   2.526 -0.6327  1.3561  0.2479
  700MOL0     C94388   6.978  11.887   2.432 -0.1455  0.0905 -0.2402
  700MOL0     O94389   6.869  11.953   2.497 -0.0652 -0.7111  0.0717
  700MOL0     C94390   6.745  11.890   2.489 -0.0480 -0.4018 -0.2079
  700MOL0     C94391   6.645  11.976   2.525  0.0404  0.8328 -0.1549
  700MOL0     C94392   6.512  11.940   2.531 -0.3454 -0.1616  0.1448
  700MOL0     C94393   6.475  11.812   2.493  0.7098 -0.2121  0.4429
  700MOL0     C94394   6.337  11.745   2.534  0.2246 -0.9884 -0.1122
  700MOL0     O94395   6.243  11.830   2.573 -0.3223  0.5331 -0.2039
  700MOL0     C94396   6.112  11.798   2.586  0.6106  0.1282  0.0299
  700MOL0     C94397   6.020  11.901   2.616  0.3491  0.5894  0.0386
  700MOL0     C94398   5.888  11.880   2.640 -0.9140 -0.5314 -0.2335
  700MOL0     C94399   5.826  11.758   2.620 -0.6865 -0.0767 -0.5291
  700MOL0     O94400   5.686  11.754   2.617  0.3414  0.0597 -0.6296
  700MOL0     C94401   5.629  11.673   2.508  0.4275  0.2877 -0.7405
  700MOL0     C94402   5.623  11.757   2.374 -0.6672  0.3604  0.7252
  700MOL0     C94403   5.611  11.901   2.392 -0.0959  0.0571  0.1203
  700MOL0     C94404   5.577  11.984   2.264 -1.5242  0.8822  1.0161
  700MOL0     C94405   5.522  12.121   2.301  0.7300  0.2915 -0.2077
  700MOL0     C94406   5.533  12.229   2.192  0.1975 -0.3972  0.3357
  700MOL0     C94407   5.476  12.369   2.217  0.5039 -0.9316  0.2155
  700MOL0     C94408   5.531  12.468   2.119 -0.2109  0.8857  0.9448
  700MOL0    Cl94409   5.445  12.464   1.960  0.4856  0.1150 -0.2928
  700MOL0     C94410   5.917  11.645   2.601  0.4616  1.1571 -0.1255
  700MOL0     C94411   6.053  11.670   2.596 -0.6382  0.0871 -0.0383
  700MOL0     O94412   6.319  11.630   2.515 -1.6417  0.5985  0.2598
  700MOL0     C94413   6.573  11.722   2.447  0.1431 -0.2620 -0.1226
  700MOL0     C94414   6.708  11.758   2.444  0.9855 -0.1284  0.2021
  700MOL0     N94415   7.199  11.630   2.705  0.0822  0.4868  0.6241
  700MOL0     N94416   7.187  11.533   2.791  0.6963  0.0631  0.0461
  700MOL0     C94417   6.995  10.367   2.379 -0.4020 -0.5550 -0.0608
  700MOL0     C94418   6.948  10.243   2.355 -0.6150  0.2194 -0.4194
  700MOL0     C94419   6.882   9.792   2.358  0.0379  0.3043  0.2826
  700MOL0     C94420   7.007   9.726   2.324 -0.5132 -0.3855 -0.3986
  700MOL0     C94421   7.006   9.584   2.289 -0.1387  0.3897 -0.5917
  700MOL0     C94422   6.887   9.513   2.273  0.2383 -0.2100  0.2632
  700MOL0     O94423   6.898   9.401   2.206  0.4349  1.3217 -0.2334
  700MOL0     C94424   6.830   9.288   2.268 -0.4348  0.4190 -0.2077
  700MOL0     C94425   6.700   9.223   2.205 -0.7540 -0.1264 -0.5564
  700MOL0     C94426   6.639   9.103   2.273  0.1644  0.3279  0.1676
  700MOL0     C94427   6.490   9.096   2.241 -0.3536 -1.0496 -0.3583
  700MOL0     C94428   6.429   8.977   2.295 -0.2224  0.5712 -0.5087
  700MOL0     C94429   6.393   8.883   2.347 -0.5753  0.2748  0.4689
  700MOL0     C94430   6.765   9.579   2.304 -0.3641  0.5912 -0.8632
  700MOL0     C94431   6.761   9.717   2.340  0.2375  0.3485 -0.0995
  700MOL0     C94432   6.624   9.777   2.360  0.1152  0.6762 -0.5415
  700MOL0     H94433   7.226  10.084   2.468 -0.4816 -0.5949  2.1400
  700MOL0     H94434   7.302  10.322   2.485 -1.8158  3.6340  3.1726
  700MOL0     H94435   7.117  10.654   2.297  0.5918 -0.9286  0.1531
  700MOL0     H94436   7.010  10.627   2.420  0.1067 -0.9832 -0.1427
  700MOL0     H94437   7.132  10.863   2.412  1.4682  0.4022 -0.0590
  700MOL0     H94438   7.271  10.781   2.427  0.9051 -0.0416  1.1434
  700MOL0     H94439   7.237  10.822   2.688 -2.4785  0.2495  3.3845
  700MOL0     H94440   7.141  10.683   2.663  0.1968 -0.3541  1.4014
  700MOL0     H94441   6.947  10.844   2.612  1.9406 -3.0322 -1.6943
  700MOL0     H94442   7.007  10.846   2.781  0.2854  1.2368  0.4834
  700MOL0     H94443   7.101  11.056   2.578  0.7124  1.7711  1.3155
  700MOL0     H94444   6.956  11.067   2.671 -1.6501 -2.3739 -0.7081
  700MOL0     H94445   7.098  11.049   2.878 -4.1554  2.5236 -1.5954
  700MOL0     H94446   7.247  11.010   2.780 -1.6161 -4.0583  0.7129
  700MOL0     H94447   7.230  11.220   2.668  0.8725 -3.2957  0.0122
  700MOL0     H94448   7.281  11.239   2.825 -2.1266  5.0553  1.0487
  700MOL0     H94449   6.995  11.271   2.763  1.9961 -1.4510 -2.7199
  700MOL0     H94450   7.090  11.336   2.908 -1.5313 -2.4094  1.0822
  700MOL0     H94451   7.080  11.396   2.514  1.3965 -0.3266 -0.0774
  700MOL0     H94452   7.297  11.627   2.421  0.6232  0.0074 -0.0896
  700MOL0     H94453   7.126  11.666   2.374  3.1898 -3.2022 -1.6872
  700MOL0     H94454   7.308  11.826   2.545  2.2719  2.4451 -2.7639
  700MOL0     H94455   7.252  11.850   2.378  0.2107  0.0328  0.9336
  700MOL0     H94456   7.125  11.984   2.546  1.4725  0.7161  0.8886
  700MOL0     H94457   7.061  11.830   2.616 -0.6402 -1.0529 -1.0151
  700MOL0     H94458   6.948  11.790   2.392 -4.6798 -0.3507  3.3643
  700MOL0     H94459   7.002  11.944   2.342 -3.5964  0.3588 -1.1211
  700MOL0     H94460   6.669  12.075   2.563  2.5747  0.1259  0.3251
  700MOL0     H94461   6.440  12.008   2.577 -1.9232 -1.6506 -0.0221
  700MOL0     H94462   6.067  11.992   2.653 -0.2524  0.6384  0.7135
  700MOL0     H94463   5.833  11.967   2.674  3.0445  1.1306  2.7410
  700MOL0     H94464   5.677  11.577   2.486 -1.0817 -0.0068 -3.1285
  700MOL0     H94465   5.529  11.655   2.547  0.4059  0.1824 -0.8444
  700MOL0     H94466   5.698  11.736   2.298  0.2094  2.5177  0.9086
  700MOL0     H94467   5.534  11.737   2.315 -0.1689 -0.7240  0.3048
  700MOL0     H94468   5.535  11.923   2.467  1.3271  2.6075  0.9297
  700MOL0     H94469   5.703  11.935   2.442 -1.4580 -0.2374  3.0199
  700MOL0     H94470   5.503  11.925   2.209  0.9992 -1.5613 -0.0216
  700MOL0     H94471   5.667  11.991   2.202 -0.3261  0.1276  2.6126
  700MOL0     H94472   5.582  12.147   2.389  1.5161 -1.5934 -0.1219
  700MOL0     H94473   5.414  12.115   2.321  1.1449 -2.0138  1.9469
  700MOL0     H94474   5.637  12.231   2.157  1.5093 -1.8484  3.7104
  700MOL0     H94475   5.477  12.200   2.103 -3.0703  0.8010  1.8105
  700MOL0     H94476   5.501  12.401   2.318 -0.4870  3.1610 -0.6386
  700MOL0     H94477   5.367  12.372   2.216  0.4333 -2.5738 -0.4645
  700MOL0     H94478   5.524  12.568   2.164  0.9847  0.7018  1.5716
  700MOL0     H94479   5.634  12.455   2.086 -1.5987 -0.1188 -3.7306
  700MOL0     H94480   5.879  11.544   2.591  3.5269  0.0082 -1.3674
  700MOL0     H94481   6.118  11.582   2.597 -0.9615 -0.1533  0.0353
  700MOL0     H94482   6.539  11.623   2.418 -3.1737  0.7585 -0.0602
  700MOL0     H94483   6.778  11.678   2.422 -2.2511 -4.1246  2.9218
  700MOL0     H94484   6.922  10.447   2.369 -0.2114  0.3961  4.4000
  700MOL0     H94485   6.849  10.223   2.316  0.5993 -1.4599 -2.9608
  700MOL0     H94486   7.105   9.771   2.336 -0.7033 -0.5200  2.2435
  700MOL0     H94487   7.104   9.543   2.269  0.8297  2.5671 -0.6437
  700MOL0     H94488   6.803   9.309   2.372 -1.6455  2.4688 -0.8794
  700MOL0     H94489   6.904   9.208   2.279  0.8206  1.5019 -0.5108
  700MOL0     H94490   6.745   9.186   2.113  1.2888  2.4652 -0.7348
  700MOL0     H94491   6.627   9.305   2.200 -0.2260  0.3756 -0.1401
  700MOL0     H94492   6.667   9.089   2.378  0.0229  2.1842  0.4752
  700MOL0     H94493   6.697   9.026   2.220  3.4972  1.0563  2.4388
  700MOL0     H94494   6.449   9.187   2.285  0.4278 -0.3852 -0.9776
  700MOL0     H94495   6.475   9.097   2.133 -2.2752 -0.3491 -0.1283
  700MOL0     H94496   6.365   8.786   2.381 -1.2928  0.7895  1.3937
  700MOL0     H94497   6.677   9.516   2.308  1.2517 -1.7330  2.5403
  700MOL0     H94498   6.618   9.867   2.298  3.5184 -0.8196 -3.3410
  700MOL0     H94499   6.545   9.709   2.326 -0.9337  2.2126 -1.2921
  700MOL0     H94500   6.611   9.795   2.468  2.8254 -1.2055  0.1979
  701MOL0     O94501   4.095  10.555   2.582  0.5361  0.0317 -0.1347
  701MOL0     C94502   4.133  10.453   2.531 -0.7412 -0.3041 -0.2901
  701MOL0     O94503   4.255  10.393   2.551 -0.4252 -0.4871  1.1274
  701MOL0     C94504   4.316  10.416   2.667 -0.3821  0.5572 -0.6337
  701MOL0     C94505   4.262  10.383   2.794 -0.0949  1.1036  0.3807
  701MOL0     C94506   4.333  10.416   2.910 -0.4770  0.2102  0.1083
  701MOL0     C94507   4.462  10.475   2.905 -0.2083  0.0820 -0.2193
  701MOL0     O94508   4.526  10.496   3.030 -0.3886  0.8820  0.1801
  701MOL0     C94509   4.669  10.488   3.037 -0.4979  0.9102 -0.3036
  701MOL0     C94510   4.712  10.420   3.167  0.0393  0.0539 -0.9899
  701MOL0     C94511   4.705  10.506   3.286 -0.3139  0.1642 -0.4191
  701MOL0     C94512   4.738  10.434   3.424 -0.2929 -0.8908 -0.0067
  701MOL0     C94513   4.620  10.342   3.443  0.0970  0.0169 -0.8773
  701MOL0     C94514   4.610  10.279   3.584  0.5355  0.5251 -0.0305
  701MOL0     C94515   4.482  10.200   3.602 -0.4912 -0.7678 -0.1708
  701MOL0     C94516   4.482  10.153   3.749 -0.1440  0.0861  0.3810
  701MOL0     N94517   4.374  10.067   3.771  0.0468  0.7988 -0.0209
  701MOL0     C94518   4.245  10.093   3.820  0.0093  1.1277  0.1809
  701MOL0     C94519   4.182   9.968   3.824 -0.5781 -0.5009  0.6731
  701MOL0     C94520   4.041   9.945   3.858  1.4147 -0.5254  0.4260
  701MOL0     C94521   3.959   9.843   3.771 -0.6690 -1.2422 -0.2918
  701MOL0     C94522   3.949   9.900   3.628  0.8374  0.3311  0.1190
  701MOL0     C94523   3.850   9.822   3.536 -1.0143  0.0794 -0.2516
  701MOL0     O94524   3.839   9.881   3.410  0.0657  0.0194 -0.2160
  701MOL0     C94525   3.810   9.814   3.295  0.0038 -0.5014 -0.3846
  701MOL0     C94526   3.854   9.876   3.180  0.6155  0.0674 -0.5842
  701MOL0     C94527   3.839   9.816   3.055 -0.4327 -0.4189 -0.1380
  701MOL0     C94528   3.758   9.704   3.040  0.3392 -0.0062 -0.1082
  701MOL0     C94529   3.738   9.633   2.914 -0.4302 -0.8114 -0.0477
  701MOL0     O94530   3.668   9.514   2.925  0.1299  0.7824  0.4803
  701MOL0     C94531   3.655   9.444   2.798  0.2851  0.4421 -0.3724
  701MOL0     C94532   3.768   9.410   2.728  0.5262 -0.1469  1.4706
  701MOL0     C94533   3.748   9.322   2.621  0.0319 -0.1049  0.3126
  701MOL0     C94534   3.626   9.266   2.592 -1.1353  0.2367 -0.1017
  701MOL0     O94535   3.628   9.178   2.489  0.8200  0.3260 -0.0201
  701MOL0     C94536   3.623   9.039   2.542  0.5731 -0.1437  0.2944
  701MOL0     C94537   3.762   9.001   2.602  0.7758  0.6127  0.7074
  701MOL0     C94538   3.826   8.872   2.551 -0.5476  0.0225 -0.6679
  701MOL0     C94539   3.932   8.810   2.647 -0.1784 -1.3538  0.9316
  701MOL0     C94540   4.048   8.895   2.692 -0.5275  0.8855  0.1465
  701MOL0     C94541   4.090   8.874   2.840  0.4195  0.9694  0.0372
  701MOL0     C94542   4.142   8.725   2.867  0.2339  0.6692 -0.3080
  701MOL0     C94543   4.197   8.716   3.004  0.0282  0.2109 -0.2990
  701MOL0    Cl94544   4.198   8.550   3.078 -0.2466 -0.4594 -0.0380
  701MOL0     C94545   3.508   9.319   2.650  0.3455  0.4816 -0.3867
  701MOL0     C94546   3.530   9.395   2.766  0.5367 -0.6568  0.6672
  701MOL0     O94547   3.773   9.690   2.812  0.2475 -0.0128 -0.0246
  701MOL0     C94548   3.710   9.648   3.164  0.8594 -0.1189  0.3603
  701MOL0     C94549   3.737   9.697   3.290  0.2994  0.7686 -0.1900
  701MOL0     N94550   4.271   9.874   3.767 -0.2725 -0.4392  0.9645
  701MOL0     N94551   4.381   9.942   3.723 -0.3999 -1.0768  0.9497
  701MOL0     C94552   4.517  10.491   2.776  1.4189 -0.3255 -0.1424
  701MOL0     C94553   4.438  10.472   2.664  0.1524  0.0443 -0.1867
  701MOL0     C94554   4.055  10.392   2.418  0.0360 -1.0689 -1.4613
  701MOL0     C94555   4.079  10.257   2.385 -0.4958  0.6141 -0.2176
  701MOL0     C94556   4.033  10.204   2.269  0.4590  1.0687  0.3288
  701MOL0     C94557   3.936  10.267   2.186  0.3401  0.0913 -0.5001
  701MOL0     O94558   3.882  10.193   2.079 -0.3284 -0.5885 -0.5763
  701MOL0     C94559   3.786  10.261   1.994 -0.2335  0.8326  0.0930
  701MOL0     C94560   3.751  10.163   1.889 -0.0907  0.1356  0.8593
  701MOL0     C94561   3.665  10.036   1.931 -0.7102  0.9261 -1.0151
  701MOL0     C94562   3.630   9.930   1.831  0.0018  0.0171 -0.2610
  701MOL0     C94563   3.740   9.880   1.752  0.0361  0.0276 -0.2745
  701MOL0     C94564   3.833   9.829   1.692  0.9035 -0.2758  0.1466
  701MOL0     C94565   3.903  10.396   2.213 -0.6216 -0.7937 -0.6400
  701MOL0     C94566   3.957  10.465   2.335 -0.3797  1.1988 -0.4190
  701MOL0     C94567   3.928  10.606   2.374  0.8917 -0.1599  0.5934
  701MOL0     H94568   4.155  10.368   2.800 -0.1707  1.1200 -0.7538
  701MOL0     H94569   4.279  10.388   2.999  1.4459 -1.5409  0.8000
  701MOL0     H94570   4.714  10.432   2.955  0.9497  0.0252  1.0353
  701MOL0     H94571   4.728  10.579   3.033 -0.1095  0.7946  1.7193
  701MOL0     H94572   4.818  10.398   3.152  0.0755  0.5134 -1.4419
  701MOL0     H94573   4.659  10.326   3.180  0.3336 -0.6018 -3.8978
  701MOL0     H94574   4.602  10.545   3.284 -0.8260 -0.0338 -8.0678
  701MOL0     H94575   4.767  10.595   3.270 -2.0220  1.7052  1.0329
  701MOL0     H94576   4.834  10.383   3.417 -0.2984 -0.9459  0.3170
  701MOL0     H94577   4.739  10.502   3.510  1.0772 -0.3433 -0.4316
  701MOL0     H94578   4.524  10.387   3.415 -0.1550  2.7463  3.4567
  701MOL0     H94579   4.629  10.256   3.376 -4.4437  0.7085 -2.7832
  701MOL0     H94580   4.685  10.205   3.614 -2.0889 -1.5401  1.8621
  701MOL0     H94581   4.610  10.357   3.661 -0.8243  1.8094 -1.2424
  701MOL0     H94582   4.488  10.113   3.536 -3.0627 -1.3745  0.3001
  701MOL0     H94583   4.397  10.262   3.571 -2.7105 -3.2282  0.6498
  701MOL0     H94584   4.575  10.100   3.771 -0.6818 -0.6928  0.8634
  701MOL0     H94585   4.485  10.228   3.828 -0.1566 -0.1018  0.5633
  701MOL0     H94586   4.196  10.188   3.834  0.2515  2.0299 -3.8774
  701MOL0     H94587   4.029   9.920   3.964 -0.7941  1.8183  0.8301
  701MOL0     H94588   3.990  10.041   3.854  4.2688  1.1082  0.4454
  701MOL0     H94589   4.007   9.745   3.780 -1.2922 -1.5975 -0.7506
  701MOL0     H94590   3.863   9.839   3.822  0.2584  0.5388  1.7390
  701MOL0     H94591   4.050   9.911   3.587  1.5781 -2.1088  1.1207
  701MOL0     H94592   3.901   9.999   3.631  1.6105  0.9533 -3.5543
  701MOL0     H94593   3.751   9.818   3.582 -0.7079  0.9193  0.5016
  701MOL0     H94594   3.899   9.724   3.527 -1.0992  0.1160 -1.1411
  701MOL0     H94595   3.927   9.957   3.183 -1.6964  2.2654 -0.7493
  701MOL0     H94596   3.876   9.875   2.972 -3.0840  2.5597  0.5862
  701MOL0     H94597   3.870   9.434   2.758  0.8334  2.8596 -1.3965
  701MOL0     H94598   3.838   9.310   2.561  0.5288  2.8276  0.3497
  701MOL0     H94599   3.551   9.042   2.625 -0.1538 -0.4013 -0.3218
  701MOL0     H94600   3.589   8.963   2.471  3.8676 -2.3289  0.8602
  701MOL0     H94601   3.827   9.087   2.584  0.9279  0.6285  1.3261
  701MOL0     H94602   3.753   8.993   2.710  2.4181 -2.6736  0.7395
  701MOL0     H94603   3.754   8.795   2.523 -1.9042  2.3426 -4.2810
  701MOL0     H94604   3.867   8.889   2.452 -2.6006  4.7755 -0.9825
  701MOL0     H94605   3.978   8.714   2.621  0.8138 -0.8040  0.6105
  701MOL0     H94606   3.878   8.790   2.740 -1.2315  0.1003  0.6660
  701MOL0     H94607   4.023   8.999   2.670 -4.0692 -0.0490 -0.7752
  701MOL0     H94608   4.141   8.881   2.635  0.6828  2.5742  1.5702
  701MOL0     H94609   4.165   8.948   2.867  0.1904  0.7959  1.1911
  701MOL0     H94610   4.000   8.887   2.901  0.0177  2.9689 -0.9174
  701MOL0     H94611   4.222   8.692   2.801  3.7974  0.7297  3.5204
  701MOL0     H94612   4.058   8.655   2.875  1.8144 -1.1285  2.5945
  701MOL0     H94613   4.298   8.759   3.004  0.2326 -0.2110  0.9723
  701MOL0     H94614   4.136   8.771   3.077 -0.8149 -0.5529 -0.4213
  701MOL0     H94615   3.409   9.282   2.624  0.8526 -3.0481  1.9721
  701MOL0     H94616   3.451   9.421   2.836 -1.3294 -0.9864 -1.1920
  701MOL0     H94617   3.666   9.549   3.155 -1.1269  0.3770  3.1348
  701MOL0     H94618   3.683   9.658   3.376 -1.4013 -1.6291 -2.1746
  701MOL0     H94619   4.617  10.534   2.780  1.6572 -0.8804  3.7908
  701MOL0     H94620   4.484  10.480   2.566  2.4607 -0.1331  0.7933
  701MOL0     H94621   4.132  10.195   2.456 -0.6158  1.8717  1.0069
  701MOL0     H94622   4.056  10.106   2.228  3.6962  1.4887  0.8663
  701MOL0     H94623   3.828  10.354   1.954 -1.3122  1.2149 -0.1697
  701MOL0     H94624   3.693  10.282   2.047 -2.8101 -2.0286 -2.8536
  701MOL0     H94625   3.839  10.135   1.830 -2.1676  0.3136 -2.6309
  701MOL0     H94626   3.687  10.217   1.819  0.6872  1.2148  0.9522
  701MOL0     H94627   3.581  10.077   1.988 -0.0311  0.3225  0.4438
  701MOL0     H94628   3.732   9.982   1.998 -0.7451  0.4730 -1.3341
  701MOL0     H94629   3.574   9.855   1.888 -2.1087  1.3734 -0.4248
  701MOL0     H94630   3.560   9.974   1.759  1.0153  0.9954 -0.6766
  701MOL0     H94631   3.926   9.809   1.643  2.0592  0.9016  1.7377
  701MOL0     H94632   3.843  10.454   2.144  0.4208  0.8827 -0.2039
  701MOL0     H94633   3.889  10.609   2.476 -1.4877 -3.8957 -0.0227
  701MOL0     H94634   4.012  10.676   2.371 -0.8440  2.0192 -0.5495
  701MOL0     H94635   3.844  10.635   2.311 -0.9449 -2.5812  1.7821
  702MOL0     O94636   0.258   3.023   1.086  0.4676 -1.0572 -0.2421
  702MOL0     C94637   0.230   2.952   0.986  0.1810 -1.5677  0.5526
  702MOL0     O94638   0.123   2.953   0.913 -0.3561 -0.6266 -0.4776
  702MOL0     C94639   0.040   3.061   0.893 -0.3308 -0.7602  0.2276
  702MOL0     C94640  -0.099   3.052   0.862  0.7464 -0.2094 -0.1033
  702MOL0     C94641  -0.165   3.165   0.803 -0.5073  0.4544  0.3255
  702MOL0     C94642  -0.101   3.282   0.785  0.4352 -0.6124  0.8125
  702MOL0     O94643  -0.167   3.385   0.718  0.1474  0.7387  0.1981
  702MOL0     C94644  -0.146   3.524   0.763 -0.6083 -0.2637  0.8491
  702MOL0     C94645  -0.280   3.579   0.819 -0.2389 -0.0043 -0.6376
  702MOL0     C94646  -0.341   3.685   0.739 -0.3107 -0.1122 -0.4069
  702MOL0     C94647  -0.435   3.628   0.628  0.2097 -0.3690 -1.0878
  702MOL0     C94648  -0.470   3.745   0.541  1.1245 -0.2382 -0.5052
  702MOL0     C94649  -0.613   3.718   0.481 -0.8049 -0.1372  0.8805
  702MOL0     C94650  -0.640   3.797   0.350 -0.1199 -0.2117  0.4741
  702MOL0     C94651  -0.660   3.951   0.367 -0.9947 -0.5778  0.2488
  702MOL0     N94652  -0.644   4.018   0.231  0.2114 -0.3488  0.6774
  702MOL0     C94653  -0.754   4.048   0.153 -0.0341 -0.6981  0.0329
  702MOL0     C94654  -0.706   4.112   0.045 -0.4009  1.6963 -0.7544
  702MOL0     C94655  -0.791   4.142  -0.074 -0.0513 -0.2167  0.5281
  702MOL0     C94656  -0.886   4.265  -0.085 -1.4814 -0.1986 -0.3300
  702MOL0     C94657  -0.884   4.350   0.050 -0.2762  0.7484 -0.0990
  702MOL0     C94658  -0.978   4.472   0.043 -0.7215 -0.0715  0.2835
  702MOL0     O94659  -0.937   4.562  -0.054 -0.6178  0.0581  0.0528
  702MOL0     C94660  -1.004   4.668  -0.101 -0.2608 -1.1526  0.7911
  702MOL0     C94661  -1.040   4.777  -0.020  1.0809  0.2231  0.2224
  702MOL0     C94662  -1.117   4.880  -0.073 -0.9371 -0.9037 -0.3866
  702MOL0     C94663  -1.132   4.899  -0.206 -0.3004 -0.6789 -0.1440
  702MOL0     C94664  -1.187   5.025  -0.251  0.6303  1.0471  0.9124
  702MOL0     O94665  -1.264   5.089  -0.162 -0.4462 -0.2104  0.0581
  702MOL0     C94666  -1.298   5.214  -0.179  0.3053 -0.7190  0.4651
  702MOL0     C94667  -1.422   5.250  -0.131 -0.2700  0.6834 -0.4970
  702MOL0     C94668  -1.470   5.377  -0.153 -0.6322 -0.0118  0.2191
  702MOL0     C94669  -1.392   5.473  -0.215 -0.5753 -0.0053  0.2415
  702MOL0     O94670  -1.446   5.602  -0.224  0.2354  0.1792 -0.1633
  702MOL0     C94671  -1.406   5.676  -0.338  0.0063 -0.6111  0.9207
  702MOL0     C94672  -1.500   5.800  -0.337 -0.0953  0.5115 -0.2244
  702MOL0     C94673  -1.453   5.887  -0.456 -0.5102  0.6807  0.1983
  702MOL0     C94674  -1.554   5.993  -0.524  0.4884  1.2662 -0.7284
  702MOL0     C94675  -1.503   6.034  -0.664  0.0625  0.1983 -0.1213
  702MOL0     C94676  -1.453   5.936  -0.771  0.3519  0.4159 -1.0565
  702MOL0     C94677  -1.466   6.005  -0.916 -0.3770 -0.3449 -0.5863
  702MOL0     C94678  -1.361   5.958  -1.015  0.7500  0.4841 -0.1304
  702MOL0    Cl94679  -1.404   5.790  -1.074  0.6150 -0.3130  0.2232
  702MOL0     C94680  -1.266   5.446  -0.255 -0.1665 -0.1059 -0.2498
  702MOL0     C94681  -1.224   5.313  -0.241 -1.3893 -0.5635  0.3620
  702MOL0     O94682  -1.163   5.069  -0.364 -0.7007 -0.2032  0.6002
  702MOL0     C94683  -1.079   4.808  -0.291  0.6207  0.5806  0.3792
  702MOL0     C94684  -1.014   4.690  -0.241  0.1073 -0.5037 -0.4731
  702MOL0     N94685  -0.564   4.113   0.045  0.6291 -0.0349  0.3926
  702MOL0     N94686  -0.530   4.061   0.160  0.3519  0.4562 -0.5400
  702MOL0     C94687   0.032   3.295   0.823  0.5158  0.2232 -0.2709
  702MOL0     C94688   0.105   3.182   0.882 -0.1457 -0.0036 -0.2997
  702MOL0     C94689   0.317   2.847   0.963 -0.2911 -0.1419  0.7842
  702MOL0     C94690   0.355   2.834   0.823  0.4147  0.2444 -0.5594
  702MOL0     C94691   0.412   2.721   0.772  0.0381  0.5708  0.0746
  702MOL0     C94692   0.449   2.622   0.861  0.3694  0.2104  1.1678
  702MOL0     O94693   0.522   2.514   0.824 -0.2497 -0.0793  0.6117
  702MOL0     C94694   0.554   2.492   0.686 -0.3990  0.6063  0.3903
  702MOL0     C94695   0.609   2.350   0.671  0.2816  0.2891  0.1182
  702MOL0     C94696   0.727   2.317   0.762  0.0133  0.0742 -0.4615
  702MOL0     C94697   0.759   2.165   0.767 -0.7108  0.3495 -0.9177
  702MOL0     C94698   0.835   2.118   0.661  0.4966  0.7807 -0.9657
  702MOL0     C94699   0.897   2.070   0.575  0.3027  0.2917 -0.1150
  702MOL0     C94700   0.425   2.643   0.999 -0.0631  0.1125 -0.6493
  702MOL0     C94701   0.358   2.748   1.048 -0.1307 -0.4612 -0.1330
  702MOL0     C94702   0.353   2.749   1.194  0.1310 -0.3841  1.2484
  702MOL0     H94703  -0.160   2.963   0.878 -2.2305  1.8632  0.8519
  702MOL0     H94704  -0.266   3.145   0.768 -0.2404  1.8194 -1.3268
  702MOL0     H94705  -0.066   3.551   0.832  0.4561  0.1963 -0.5254
  702MOL0     H94706  -0.126   3.582   0.672 -0.0596 -3.0176 -0.9002
  702MOL0     H94707  -0.261   3.613   0.921 -1.9069 -3.5408  1.0168
  702MOL0     H94708  -0.356   3.501   0.826  1.4142 -1.6771 -0.2361
  702MOL0     H94709  -0.275   3.763   0.700 -0.8198  2.5079  3.4137
  702MOL0     H94710  -0.406   3.735   0.812  0.0450 -3.7482  2.7161
  702MOL0     H94711  -0.374   3.565   0.564  2.5103  0.8782 -0.2437
  702MOL0     H94712  -0.522   3.580   0.676  2.2450 -2.0090  1.2092
  702MOL0     H94713  -0.473   3.843   0.591 -0.0751 -0.2589 -0.5116
  702MOL0     H94714  -0.402   3.752   0.456  2.3717  0.6689  0.5105
  702MOL0     H94715  -0.625   3.610   0.472 -2.4258  0.1761 -1.9122
  702MOL0     H94716  -0.694   3.731   0.554 -2.4419 -1.2395 -0.6704
  702MOL0     H94717  -0.726   3.756   0.296  0.4575  0.6796 -1.1973
  702MOL0     H94718  -0.553   3.777   0.287 -1.0484 -1.7998 -0.3979
  702MOL0     H94719  -0.757   3.968   0.415 -0.8980  0.3725  0.1124
  702MOL0     H94720  -0.589   3.997   0.436  1.2056 -2.6167 -0.5218
  702MOL0     H94721  -0.853   4.038   0.195  0.5215 -0.7794  1.3568
  702MOL0     H94722  -0.725   4.137  -0.161 -1.5257  0.0405 -0.6503
  702MOL0     H94723  -0.851   4.050  -0.083 -2.6650  1.5128 -1.1726
  702MOL0     H94724  -0.850   4.334  -0.162 -1.1773  1.1989  1.0105
  702MOL0     H94725  -0.986   4.230  -0.113 -1.2252 -1.1811 -0.0673
  702MOL0     H94726  -0.786   4.390   0.076  0.2711  0.0141 -0.9697
  702MOL0     H94727  -0.920   4.280   0.126  1.4763  0.8750  0.8794
  702MOL0     H94728  -0.983   4.520   0.141 -0.8580  1.0644 -0.2628
  702MOL0     H94729  -1.077   4.433   0.020 -0.3369 -1.9308  1.5627
  702MOL0     H94730  -1.022   4.754   0.085 -0.8599 -2.4126  0.0805
  702MOL0     H94731  -1.146   4.956  -0.000  1.0160  0.7397 -1.2249
  702MOL0     H94732  -1.475   5.173  -0.074  4.2098 -2.3899  0.0659
  702MOL0     H94733  -1.568   5.405  -0.115  0.4124 -1.4251  4.4720
  702MOL0     H94734  -1.303   5.713  -0.336 -1.0394  2.7403  0.2680
  702MOL0     H94735  -1.435   5.612  -0.421 -2.0553  1.2463  0.1031
  702MOL0     H94736  -1.604   5.775  -0.356 -0.1134  2.5939 -3.7135
  702MOL0     H94737  -1.484   5.854  -0.242 -0.3398  1.7809 -0.8803
  702MOL0     H94738  -1.360   5.939  -0.431  1.0328 -1.0372 -1.5829
  702MOL0     H94739  -1.414   5.827  -0.539  1.4203  3.7927 -1.3133
  702MOL0     H94740  -1.564   6.085  -0.466 -0.1446  2.5130 -2.6975
  702MOL0     H94741  -1.648   5.941  -0.545  1.5770 -1.4039  0.5076
  702MOL0     H94742  -1.432   6.115  -0.647  2.3696 -1.6272 -0.6395
  702MOL0     H94743  -1.592   6.090  -0.695  0.4195  1.4791  1.0297
  702MOL0     H94744  -1.348   5.910  -0.753  0.4810  1.6789  0.2046
  702MOL0     H94745  -1.520   5.850  -0.773 -0.6431  1.1897 -2.1071
  702MOL0     H94746  -1.455   6.112  -0.896 -0.8892 -0.4980  0.6346
  702MOL0     H94747  -1.566   5.987  -0.955 -0.7351 -1.5354  0.7596
  702MOL0     H94748  -1.358   6.013  -1.109  0.6092  0.2453 -0.2777
  702MOL0     H94749  -1.261   5.964  -0.971  0.5937  2.0675  0.0748
  702MOL0     H94750  -1.208   5.526  -0.299 -0.9800  0.2838 -0.6359
  702MOL0     H94751  -1.128   5.290  -0.286  0.0244  0.5185  2.6404
  702MOL0     H94752  -1.081   4.821  -0.398 -0.6188  0.3829  0.3666
  702MOL0     H94753  -0.953   4.632  -0.310  1.4647  1.9924 -1.5200
  702MOL0     H94754   0.079   3.387   0.792  2.6565 -1.3894 -2.1532
  702MOL0     H94755   0.207   3.214   0.897  0.3913 -1.2930 -1.1336
  702MOL0     H94756   0.335   2.912   0.751  0.4525  0.3992 -0.4032
  702MOL0     H94757   0.432   2.721   0.665 -0.7357  4.0756 -0.1881
  702MOL0     H94758   0.614   2.571   0.640 -0.1842 -0.1381 -0.6394
  702MOL0     H94759   0.463   2.497   0.626 -1.1439 -1.6963  1.2466
  702MOL0     H94760   0.628   2.331   0.565 -3.7867  0.8487 -0.8690
  702MOL0     H94761   0.535   2.273   0.690  1.8710 -1.8758 -1.7698
  702MOL0     H94762   0.702   2.355   0.861 -2.6106 -2.1232 -0.1707
  702MOL0     H94763   0.819   2.367   0.728  1.9322 -2.7959  0.1539
  702MOL0     H94764   0.807   2.149   0.863 -2.2280 -1.4925 -0.3958
  702MOL0     H94765   0.664   2.109   0.763  1.0038 -2.9278  0.3443
  702MOL0     H94766   0.926   2.018   0.485 -0.6006 -0.7971  0.1898
  702MOL0     H94767   0.459   2.561   1.062  0.3980  0.0374 -0.9871
  702MOL0     H94768   0.344   2.854   1.225 -0.1337  0.0369 -0.1645
  702MOL0     H94769   0.276   2.682   1.233 -0.2539  1.3339  3.7259
  702MOL0     H94770   0.451   2.707   1.218  0.7127 -1.9263 -2.9212
  703MOL0     O94771   1.015   3.407   5.476  0.2072 -0.2479 -0.1270
  703MOL0     C94772   1.068   3.297   5.475  0.1830  0.6910 -0.4159
  703MOL0     O94773   1.002   3.178   5.486 -0.1388 -1.4439 -0.4066
  703MOL0     C94774   0.866   3.173   5.506 -0.5118  0.1915  1.1080
  703MOL0     C94775   0.787   3.111   5.410 -0.1162  0.3476 -0.0089
  703MOL0     C94776   0.650   3.096   5.423  0.5978 -1.2467  0.6405
  703MOL0     C94777   0.579   3.152   5.539 -0.4729  1.3190 -0.0918
  703MOL0     O94778   0.441   3.138   5.555 -0.7866  0.1985 -0.0159
  703MOL0     C94779   0.378   3.257   5.519 -0.0099 -0.2978 -0.9364
  703MOL0     C94780   0.256   3.273   5.602  0.7939 -1.0414  0.0772
  703MOL0     C94781   0.159   3.159   5.609  0.3356  0.4628 -0.8927
  703MOL0     C94782   0.049   3.197   5.713 -0.1394  0.0119 -1.3045
  703MOL0     C94783  -0.026   3.052   5.734 -0.2962 -0.0221 -0.2674
  703MOL0     C94784  -0.108   3.041   5.865  0.4541 -0.4142  1.0244
  703MOL0     C94785  -0.134   2.893   5.915 -0.2528 -1.3990 -0.0314
  703MOL0     C94786  -0.244   2.912   6.026 -0.7894 -0.9417 -0.8361
  703MOL0     N94787  -0.382   2.958   6.012 -0.5982  0.0772 -0.0315
  703MOL0     C94788  -0.472   2.943   5.901  0.0693  0.1157 -0.0940
  703MOL0     C94789  -0.571   3.032   5.917  1.3335  0.2661 -0.6097
  703MOL0     C94790  -0.701   3.028   5.843  0.5504  0.6889  0.4187
  703MOL0     C94791  -0.799   2.917   5.897  0.4324  0.1120 -0.0650
  703MOL0     C94792  -0.832   2.933   6.043 -0.0120  0.3380 -0.7215
  703MOL0     C94793  -0.886   3.075   6.066 -0.2359 -0.0409  0.5504
  703MOL0     O94794  -1.001   3.125   5.978 -0.9019  0.1658 -0.4050
  703MOL0     C94795  -1.025   3.259   5.973  0.3857 -0.3324 -0.6069
  703MOL0     C94796  -0.948   3.352   6.039 -0.5066 -0.7382 -0.0106
  703MOL0     C94797  -0.996   3.486   6.048 -0.3390 -0.6211 -0.0509
  703MOL0     C94798  -1.114   3.527   5.984 -0.1010 -0.5616  0.8676
  703MOL0     C94799  -1.156   3.671   5.982 -0.5283 -0.3062  0.4619
  703MOL0     O94800  -1.072   3.775   6.038  0.2077  0.7525 -0.0567
  703MOL0     C94801  -1.126   3.899   6.046  0.4279  0.1606 -0.0030
  703MOL0     C94802  -1.060   3.996   5.975  0.1728  0.1870  1.0116
  703MOL0     C94803  -1.076   4.130   6.009 -0.0576 -0.6480  0.2233
  703MOL0     C94804  -1.158   4.170   6.111 -0.2607 -1.1828 -0.4065
  703MOL0     O94805  -1.156   4.306   6.130 -0.1860 -0.3043  0.1917
  703MOL0     C94806  -1.236   4.368   6.233 -0.1871 -0.2344 -0.1569
  703MOL0     C94807  -1.143   4.453   6.322  0.7660  0.4294  0.9817
  703MOL0     C94808  -1.039   4.377   6.404 -0.1581  0.7966  0.5964
  703MOL0     C94809  -1.108   4.296   6.516 -0.3139 -0.4607 -0.7612
  703MOL0     C94810  -1.012   4.196   6.573  0.0302  0.4345  0.3659
  703MOL0     C94811  -1.048   4.102   6.687 -0.0025  0.3751 -0.7480
  703MOL0     C94812  -1.016   3.954   6.650 -0.1081 -0.6976 -0.8636
  703MOL0     C94813  -1.041   3.851   6.760 -1.0724 -0.1787 -0.2694
  703MOL0    Cl94814  -1.221   3.854   6.800 -0.3453  0.0492  0.3472
  703MOL0     C94815  -1.225   4.074   6.184 -0.5435 -0.7031 -0.1121
  703MOL0     C94816  -1.209   3.938   6.151  0.4664  0.2693  0.0480
  703MOL0     O94817  -1.277   3.683   5.959  0.3443 -0.4661  0.0458
  703MOL0     C94818  -1.187   3.427   5.919  0.1849  0.4739  0.1585
  703MOL0     C94819  -1.151   3.293   5.915  0.3180  0.0304  0.2046
  703MOL0     N94820  -0.541   3.104   6.025 -0.5475 -0.3133  0.2306
  703MOL0     N94821  -0.434   3.063   6.082 -0.3949  0.4170 -0.8818
  703MOL0     C94822   0.655   3.220   5.639 -0.8595 -1.0035  0.4687
  703MOL0     C94823   0.800   3.228   5.621  0.1344 -0.4847  0.0424
  703MOL0     C94824   1.219   3.289   5.465  0.0320  0.0482  0.4459
  703MOL0     C94825   1.278   3.388   5.385  0.6061  0.2940  0.3264
  703MOL0     C94826   1.408   3.367   5.326 -0.5200  0.4737 -0.4961
  703MOL0     C94827   1.483   3.251   5.359  0.1722  0.8052  0.2199
  703MOL0     O94828   1.602   3.204   5.306  0.2062  0.4632 -0.9462
  703MOL0     C94829   1.699   3.303   5.288 -0.2085  0.6834  0.6442
  703MOL0     C94830   1.743   3.282   5.138  0.1455  0.7312 -0.2363
  703MOL0     C94831   1.804   3.140   5.108  0.0683  0.5011 -0.3839
  703MOL0     C94832   1.942   3.145   5.038  0.0878  0.2753  1.1521
  703MOL0     C94833   1.954   3.005   4.985  0.2305  0.4469 -0.6831
  703MOL0     C94834   1.987   2.892   4.956  0.5066  0.0177 -0.7190
  703MOL0     C94835   1.430   3.170   5.458  0.6467 -0.3445 -0.8429
  703MOL0     C94836   1.302   3.184   5.512 -0.0886 -0.9549  0.4182
  703MOL0     C94837   1.248   3.081   5.603  0.5005 -0.1883 -1.1923
  703MOL0     H94838   0.850   3.070   5.332  1.7621  0.8021  1.1897
  703MOL0     H94839   0.589   3.046   5.349 -1.3950  2.1627 -0.2025
  703MOL0     H94840   0.439   3.343   5.547 -2.6364  1.6424 -0.7417
  703MOL0     H94841   0.349   3.262   5.414 -0.1975  1.6217 -0.8286
  703MOL0     H94842   0.210   3.361   5.555  1.7288 -0.7653 -0.3487
  703MOL0     H94843   0.281   3.286   5.708 -1.3073  0.3852  0.4600
  703MOL0     H94844   0.214   3.067   5.632  1.4406  1.8455  2.7258
  703MOL0     H94845   0.114   3.141   5.511 -2.6936 -0.3252  0.5403
  703MOL0     H94846   0.084   3.249   5.803  0.8604  0.5104 -1.9624
  703MOL0     H94847  -0.025   3.265   5.670 -2.1613 -0.7383  0.7504
  703MOL0     H94848  -0.101   3.025   5.658 -2.2382  1.7869  0.9001
  703MOL0     H94849   0.046   2.970   5.723 -0.7661 -0.3316 -1.1863
  703MOL0     H94850  -0.053   3.101   5.938 -0.8210  2.1068  0.0461
  703MOL0     H94851  -0.197   3.104   5.856  1.5841  1.0402 -0.7645
  703MOL0     H94852  -0.037   2.846   5.936  1.2186 -0.2484 -3.4919
  703MOL0     H94853  -0.178   2.838   5.832 -2.9830  1.7319 -0.8861
  703MOL0     H94854  -0.248   2.826   6.093  0.1522  0.9753  1.8432
  703MOL0     H94855  -0.195   2.990   6.085 -1.2503  1.2249 -3.1437
  703MOL0     H94856  -0.472   2.859   5.833  0.2154 -0.1161  0.1857
  703MOL0     H94857  -0.743   3.127   5.825 -1.0166 -0.0458 -0.1258
  703MOL0     H94858  -0.682   2.998   5.739  1.3762 -1.6608  1.1835
  703MOL0     H94859  -0.893   2.922   5.840 -0.3667  0.2190  1.2202
  703MOL0     H94860  -0.762   2.817   5.876  1.0801  0.2879  0.2291
  703MOL0     H94861  -0.754   2.919   6.117 -0.1603 -0.5660 -0.7271
  703MOL0     H94862  -0.909   2.861   6.073  0.4543 -0.0707 -0.5135
  703MOL0     H94863  -0.802   3.141   6.047 -0.4489  0.6246  1.8419
  703MOL0     H94864  -0.923   3.082   6.169  1.5672  2.1994  1.1035
  703MOL0     H94865  -0.859   3.334   6.098  1.2598  2.3786 -1.4387
  703MOL0     H94866  -0.932   3.564   6.089  1.2715 -2.6304  1.4339
  703MOL0     H94867  -1.004   3.964   5.888 -0.8233 -0.0084  0.4186
  703MOL0     H94868  -1.028   4.212   5.956  1.3982 -1.7181 -0.1679
  703MOL0     H94869  -1.298   4.435   6.173 -1.3372 -0.7109  0.4550
  703MOL0     H94870  -1.320   4.315   6.280 -2.3719  2.7856 -0.3730
  703MOL0     H94871  -1.090   4.521   6.255 -1.3238 -0.0290 -1.2476
  703MOL0     H94872  -1.207   4.520   6.380 -0.8754 -0.7339  0.5809
  703MOL0     H94873  -0.977   4.321   6.333 -1.0333  1.1993 -0.5203
  703MOL0     H94874  -0.966   4.445   6.448  0.0773 -0.5257  2.3960
  703MOL0     H94875  -1.188   4.239   6.470 -0.2497 -0.1992 -1.1968
  703MOL0     H94876  -1.134   4.367   6.595 -2.7330 -0.9881 -1.0008
  703MOL0     H94877  -0.923   4.251   6.605 -0.3134  1.1915  0.0490
  703MOL0     H94878  -0.978   4.131   6.492 -2.5216 -1.7379  0.8672
  703MOL0     H94879  -0.993   4.146   6.771 -1.9980  1.9073 -0.1698
  703MOL0     H94880  -1.152   4.117   6.717  0.3677  0.6508  0.4523
  703MOL0     H94881  -0.906   3.952   6.642  0.0579  1.6656  0.0112
  703MOL0     H94882  -1.065   3.923   6.557 -1.8232 -1.3230  0.2119
  703MOL0     H94883  -1.008   3.749   6.742 -0.1315 -0.3635  2.1171
  703MOL0     H94884  -0.976   3.872   6.845 -0.8254 -0.3631 -0.4136
  703MOL0     H94885  -1.289   4.105   6.265  0.2874  0.2615  0.1939
  703MOL0     H94886  -1.276   3.864   6.192 -0.9620  0.9761 -0.9317
  703MOL0     H94887  -1.285   3.447   5.875 -0.2174 -2.9558 -0.8113
  703MOL0     H94888  -1.219   3.226   5.863  1.9726 -0.4342 -1.4538
  703MOL0     H94889   0.607   3.250   5.731 -1.5526  0.7839 -0.4315
  703MOL0     H94890   0.855   3.279   5.700  1.2843 -1.8012  0.1284
  703MOL0     H94891   1.217   3.467   5.343 -0.1952 -1.1864 -1.3892
  703MOL0     H94892   1.440   3.423   5.239  2.2887  1.6764  1.1617
  703MOL0     H94893   1.792   3.287   5.343  0.5215  1.2112 -0.4115
  703MOL0     H94894   1.658   3.400   5.316 -0.6582  1.3662 -2.0649
  703MOL0     H94895   1.802   3.362   5.092 -0.2608  1.7220  0.9125
  703MOL0     H94896   1.646   3.280   5.088  0.4323 -3.8966 -1.0033
  703MOL0     H94897   1.726   3.097   5.044  0.8166 -0.0197 -0.9583
  703MOL0     H94898   1.807   3.077   5.198 -3.3532 -0.7611 -0.9755
  703MOL0     H94899   1.932   3.215   4.955 -3.2814 -1.9170 -0.5105
  703MOL0     H94900   2.020   3.176   5.109  0.9495  1.7615 -0.3910
  703MOL0     H94901   2.003   2.788   4.934 -2.4693 -1.7700  3.9657
  703MOL0     H94902   1.500   3.097   5.497  1.7882  1.1855  0.1210
  703MOL0     H94903   1.326   3.017   5.646  0.9989  0.8552 -0.4890
  703MOL0     H94904   1.182   3.113   5.684  0.2479  2.0593 -2.2232
  703MOL0     H94905   1.183   3.012   5.548  0.4911 -3.1162  2.0972
  704MOL0     O94906   0.140   5.960   1.143 -0.1492 -0.5290 -0.1622
  704MOL0     C94907   0.070   6.044   1.199 -0.5276  0.6782 -0.2593
  704MOL0     O94908   0.114   6.151   1.264 -0.0241 -0.4618 -0.4790
  704MOL0     C94909   0.250   6.166   1.302 -0.8816  0.0047 -0.3108
  704MOL0     C94910   0.300   6.094   1.418  0.2949 -0.2171 -0.3849
  704MOL0     C94911   0.430   6.112   1.452 -0.0297  0.7615  0.5659
  704MOL0     C94912   0.520   6.186   1.381  0.6613  0.0496 -0.9401
  704MOL0     O94913   0.648   6.200   1.422 -0.4713 -0.1331  0.4129
  704MOL0     C94914   0.688   6.170   1.554  0.3183  0.6655 -0.3510
  704MOL0     C94915   0.633   6.283   1.646 -0.3703 -0.2985  0.1214
  704MOL0     C94916   0.717   6.272   1.771  0.0872  0.3853 -0.5679
  704MOL0     C94917   0.682   6.358   1.893 -0.0633  0.2320  0.1247
  704MOL0     C94918   0.771   6.333   2.017  0.5443 -0.2966 -0.3799
  704MOL0     C94919   0.919   6.338   1.989  0.5513 -0.7380  0.0529
  704MOL0     C94920   0.975   6.475   1.938  0.2993  0.2977  0.4639
  704MOL0     C94921   0.996   6.492   1.779  0.1890 -0.3707  0.0001
  704MOL0     N94922   1.068   6.373   1.727  0.0024 -0.4268 -0.4122
  704MOL0     C94923   1.201   6.346   1.764 -0.4355 -0.1847 -0.3698
  704MOL0     C94924   1.239   6.243   1.684 -0.5499 -0.3561  0.6842
  704MOL0     C94925   1.364   6.162   1.706  0.0913  0.9327 -0.0882
  704MOL0     C94926   1.469   6.241   1.782  0.5519 -0.6568  1.1003
  704MOL0     C94927   1.613   6.193   1.750 -0.0411 -0.2816  0.0973
  704MOL0     C94928   1.716   6.288   1.806 -0.1860  0.5646 -0.0504
  704MOL0     O94929   1.721   6.395   1.700  0.1016  0.0307  0.1579
  704MOL0     C94930   1.820   6.486   1.729 -0.8073  0.2728 -0.7681
  704MOL0     C94931   1.895   6.491   1.850 -0.6106 -0.4379  0.9706
  704MOL0     C94932   2.000   6.585   1.857 -0.3555  0.4807 -0.1804
  704MOL0     C94933   2.017   6.682   1.760 -0.0682  0.9462  0.5577
  704MOL0     C94934   2.123   6.778   1.775 -0.9385  0.5013  0.9552
  704MOL0     O94935   2.133   6.861   1.667 -0.1551  0.4104  0.2940
  704MOL0     C94936   2.226   6.965   1.652 -0.5348 -0.7861 -0.4863
  704MOL0     C94937   2.257   7.052   1.762 -0.5365 -0.2892  0.2575
  704MOL0     C94938   2.332   7.169   1.748 -0.7444 -0.0450 -0.6485
  704MOL0     C94939   2.392   7.198   1.621 -0.0174 -0.8324 -0.5754
  704MOL0     O94940   2.483   7.298   1.598 -0.2714  0.0038  0.4899
  704MOL0     C94941   2.495   7.353   1.466 -0.5398 -0.2396  0.5200
  704MOL0     C94942   2.522   7.507   1.483 -0.6482  0.5349  1.0016
  704MOL0     C94943   2.666   7.562   1.487  0.0995 -1.3379 -0.2642
  704MOL0     C94944   2.731   7.609   1.359 -0.1534  0.4896 -0.1202
  704MOL0     C94945   2.874   7.646   1.401 -0.8053  0.2698  0.2345
  704MOL0     C94946   2.977   7.527   1.369  0.7318  0.7062  0.0326
  704MOL0     C94947   3.116   7.571   1.366 -0.7166 -0.6389  0.1544
  704MOL0     C94948   3.175   7.592   1.506  0.1345 -0.5318 -1.2849
  704MOL0    Cl94949   3.123   7.474   1.623 -0.1377 -0.4211  0.4219
  704MOL0     C94950   2.354   7.115   1.516 -0.5952 -0.3207  0.0384
  704MOL0     C94951   2.274   7.006   1.526 -0.3930  0.6057 -0.5351
  704MOL0     O94952   2.196   6.782   1.876  0.9709  0.6597  0.0888
  704MOL0     C94953   1.933   6.683   1.649  0.8301 -0.0649  0.8383
  704MOL0     C94954   1.835   6.578   1.628  0.8080 -0.2636 -0.5828
  704MOL0     N94955   1.138   6.216   1.597  1.0370  0.1780  0.6831
  704MOL0     N94956   1.041   6.299   1.622  0.2965  0.9099  0.4214
  704MOL0     C94957   0.472   6.246   1.260 -0.0441  0.3240 -0.2349
  704MOL0     C94958   0.342   6.242   1.225  0.8896  0.0202 -0.3879
  704MOL0     C94959  -0.073   6.035   1.176 -0.0117 -0.5735 -0.0402
  704MOL0     C94960  -0.158   6.140   1.150 -0.4218 -0.7411  0.1129
  704MOL0     C94961  -0.293   6.124   1.122  0.4794 -0.0454  0.0893
  704MOL0     C94962  -0.347   5.997   1.101  0.3674 -0.9654 -1.0161
  704MOL0     O94963  -0.475   5.969   1.055 -0.5501  0.3549 -0.0235
  704MOL0     C94964  -0.534   6.050   0.954  0.2726 -0.6587 -0.2602
  704MOL0     C94965  -0.644   5.984   0.878  0.7495  0.1572  0.0132
  704MOL0     C94966  -0.730   6.086   0.807 -0.3575 -0.0524 -0.6513
  704MOL0     C94967  -0.872   6.062   0.848  0.3706  0.4166 -0.0607
  704MOL0     C94968  -0.961   6.184   0.811 -0.2207  0.0837 -0.0345
  704MOL0     C94969  -1.024   6.278   0.768 -0.4685  0.6276  0.4220
  704MOL0     C94970  -0.276   5.893   1.149 -0.3087 -0.2403 -1.2841
  704MOL0     C94971  -0.139   5.911   1.181  0.9230  0.0092 -1.0050
  704MOL0     C94972  -0.064   5.782   1.235  0.1286 -1.0939  0.1529
  704MOL0     H94973   0.232   6.032   1.474 -0.5544  1.2938  0.3031
  704MOL0     H94974   0.461   6.046   1.533 -1.2195  1.1403  1.3568
  704MOL0     H94975   0.654   6.072   1.589 -2.5334  1.1438 -1.5386
  704MOL0     H94976   0.797   6.166   1.563  0.2671  1.2249  0.8122
  704MOL0     H94977   0.527   6.262   1.667 -0.4896 -1.7221 -1.7006
  704MOL0     H94978   0.645   6.379   1.595 -1.7134  1.4369  2.8179
  704MOL0     H94979   0.821   6.298   1.749  1.9437 -2.5645  3.4867
  704MOL0     H94980   0.722   6.175   1.821  2.9751  2.2940  3.3667
  704MOL0     H94981   0.686   6.461   1.858  2.3714  0.0298 -0.3421
  704MOL0     H94982   0.576   6.350   1.920 -0.2221  3.1724  0.6546
  704MOL0     H94983   0.746   6.406   2.095 -0.1875  0.4000 -1.2456
  704MOL0     H94984   0.752   6.233   2.059  4.0343 -0.4160  1.3050
  704MOL0     H94985   0.964   6.329   2.088  0.2239  2.7164  0.6706
  704MOL0     H94986   0.951   6.257   1.923  0.2138 -2.8091  2.2992
  704MOL0     H94987   1.068   6.503   1.990 -0.2792  3.0608  0.1573
  704MOL0     H94988   0.905   6.553   1.968  0.3695  0.7776 -0.5970
  704MOL0     H94989   0.899   6.505   1.730 -0.0312 -1.7338  0.0362
  704MOL0     H94990   1.061   6.575   1.748  0.1965 -0.6086 -0.6274
  704MOL0     H94991   1.252   6.402   1.842 -1.9907  0.5262  0.1687
  704MOL0     H94992   1.344   6.076   1.772  1.9984  1.3901  1.1846
  704MOL0     H94993   1.403   6.117   1.614 -1.5986 -2.1462  0.5386
  704MOL0     H94994   1.456   6.342   1.743 -2.9064 -1.5491 -0.4564
  704MOL0     H94995   1.451   6.243   1.890  2.5152 -3.2649  1.5787
  704MOL0     H94996   1.623   6.187   1.642  0.2367  2.6618 -0.1175
  704MOL0     H94997   1.631   6.096   1.798  0.7149 -0.2152 -0.0428
  704MOL0     H94998   1.816   6.243   1.803 -1.0426 -1.3726 -0.7298
  704MOL0     H94999   1.691   6.314   1.910  3.1556 -2.0435  1.6284
  704MOL0     H95000   1.879   6.418   1.929 -0.7657 -2.8158 -1.1118
  704MOL0     H95001   2.055   6.610   1.947  1.2107  0.3796 -1.0809
  704MOL0     H95002   2.236   7.030   1.866  0.8988 -0.5924  0.5126
  704MOL0     H95003   2.338   7.243   1.828 -1.8911 -0.1280 -0.4734
  704MOL0     H95004   2.576   7.307   1.409  0.0405  1.5597 -0.1528
  704MOL0     H95005   2.402   7.345   1.408  0.4949  2.0731 -1.5963
  704MOL0     H95006   2.480   7.569   1.404  0.7974  0.8012  0.4045
  704MOL0     H95007   2.476   7.536   1.578  0.7488  1.6744  1.3655
  704MOL0     H95008   2.668   7.634   1.569 -1.7524 -1.0536 -0.4152
  704MOL0     H95009   2.729   7.485   1.532  0.7709 -0.2830  0.6423
  704MOL0     H95010   2.666   7.692   1.331 -0.4978  0.3434  0.2197
  704MOL0     H95011   2.721   7.542   1.273 -2.9682 -0.3185  0.7256
  704MOL0     H95012   2.879   7.691   1.501  0.5025  2.6690 -0.8227
  704MOL0     H95013   2.899   7.731   1.336  2.4204  0.8995  2.0498
  704MOL0     H95014   2.954   7.443   1.436 -2.8745  0.3886 -1.3675
  704MOL0     H95015   2.955   7.494   1.267 -1.3529 -0.8205  0.8925
  704MOL0     H95016   3.121   7.664   1.310 -3.7182  1.2872  2.7515
  704MOL0     H95017   3.163   7.488   1.312  4.0366  0.4495  2.1231
  704MOL0     H95018   3.284   7.598   1.506  0.0510  2.6924 -0.2186
  704MOL0     H95019   3.139   7.686   1.548  4.9271  1.4440 -1.0749
  704MOL0     H95020   2.400   7.131   1.419 -1.2065 -1.7251 -0.5098
  704MOL0     H95021   2.248   6.950   1.437  0.9993 -1.5324  0.3267
  704MOL0     H95022   1.940   6.761   1.574  0.8560  0.2409  1.1538
  704MOL0     H95023   1.774   6.592   1.539 -2.1180  1.8348  1.5571
  704MOL0     H95024   0.553   6.267   1.191  0.9496 -2.4910 -0.0666
  704MOL0     H95025   0.315   6.284   1.129 -0.6506 -1.1960 -0.5318
  704MOL0     H95026  -0.121   6.241   1.149 -2.9924  0.2785  0.0864
  704MOL0     H95027  -0.350   6.214   1.104  1.9430  0.7846 -0.5380
  704MOL0     H95028  -0.462   6.094   0.883  0.2426 -1.2279 -0.6527
  704MOL0     H95029  -0.569   6.134   1.014  2.2689  0.2735 -0.2979
  704MOL0     H95030  -0.714   5.936   0.947  0.2003 -1.5398 -1.6379
  704MOL0     H95031  -0.606   5.911   0.806 -0.0406  1.5361 -1.9165
  704MOL0     H95032  -0.717   6.086   0.699  2.3301 -1.7125 -0.4198
  704MOL0     H95033  -0.701   6.187   0.837  0.0173  0.8866 -3.8182
  704MOL0     H95034  -0.918   5.969   0.813 -2.1023  1.1230  1.1006
  704MOL0     H95035  -0.882   6.071   0.956 -3.4995 -0.4288 -0.1928
  704MOL0     H95036  -1.067   6.374   0.753 -1.9460 -0.2126 -1.0581
  704MOL0     H95037  -0.307   5.790   1.159  2.9153 -1.2283 -0.5160
  704MOL0     H95038  -0.004   5.808   1.322  1.7281  0.0577 -1.2217
  704MOL0     H95039  -0.134   5.703   1.264 -0.0876  0.1805  3.5092
  704MOL0     H95040   0.022   5.748   1.177  0.3359  0.0657 -0.2493
  705MOL0     O95041  11.506   4.646   1.836  0.0171  0.2029  0.1351
  705MOL0     C95042  11.554   4.711   1.745 -0.1133 -0.1519 -0.3815
  705MOL0     O95043  11.569   4.669   1.625  0.0169  0.2918 -0.3371
  705MOL0     C95044  11.578   4.542   1.606 -0.6998 -0.4829 -0.0086
  705MOL0     C95045  11.707   4.484   1.589 -0.2009 -0.6399  0.2402
  705MOL0     C95046  11.725   4.351   1.550 -0.1857  0.2393 -1.2125
  705MOL0     C95047  11.617   4.269   1.561 -0.0949 -0.4346  0.2823
  705MOL0     O95048  11.642   4.139   1.535  1.0817  0.4340  0.1640
  705MOL0     C95049  11.527   4.056   1.498  0.6861 -0.6433  0.6068
  705MOL0     C95050  11.596   3.923   1.446 -0.6107 -0.5505  1.2780
  705MOL0     C95051  11.480   3.847   1.378  0.4198  0.3135  0.5606
  705MOL0     C95052  11.401   3.757   1.477 -0.9823  0.5917 -0.2458
  705MOL0     C95053  11.483   3.652   1.546 -1.2706 -0.2830  0.5177
  705MOL0     C95054  11.563   3.577   1.435  0.8196  0.2581  0.6604
  705MOL0     C95055  11.649   3.483   1.516  0.0966  0.4767  0.3653
  705MOL0     C95056  11.760   3.419   1.439 -1.0610 -0.1363  0.4064
  705MOL0     N95057  11.889   3.469   1.486  0.5116  0.5364  0.7241
  705MOL0     C95058  11.948   3.470   1.610  0.2339  1.2587 -0.4155
  705MOL0     C95059  12.060   3.550   1.604  0.5523  0.5220  0.3444
  705MOL0     C95060  12.178   3.564   1.702  1.0064 -0.1091 -0.5324
  705MOL0     C95061  12.252   3.436   1.730  0.2017  0.1986 -0.6643
  705MOL0     C95062  12.281   3.413   1.883  0.3905  1.0435  0.4382
  705MOL0     C95063  12.173   3.392   2.000  0.1348 -0.5646 -0.6008
  705MOL0     O95064  12.099   3.275   1.961 -0.4124  0.6659 -0.0950
  705MOL0     C95065  12.003   3.241   2.054  0.0155 -0.2401 -0.1623
  705MOL0     C95066  11.894   3.164   2.011  0.0818  0.2495 -0.7247
  705MOL0     C95067  11.786   3.130   2.097  0.2759  0.3859 -0.9917
  705MOL0     C95068  11.778   3.174   2.233 -0.4074  0.2556  0.3616
  705MOL0     C95069  11.662   3.152   2.309  1.0304  0.0307 -0.3288
  705MOL0     O95070  11.570   3.073   2.244 -0.5485  0.3800  0.1132
  705MOL0     C95071  11.442   3.062   2.276 -0.3353  1.4294 -0.5888
  705MOL0     C95072  11.363   3.129   2.375 -0.2603  0.1642 -0.0639
  705MOL0     C95073  11.234   3.102   2.402  1.9743  1.1199  0.7188
  705MOL0     C95074  11.163   3.015   2.309 -0.7775 -0.2129 -0.4295
  705MOL0     O95075  11.027   3.010   2.310 -0.5527  0.1286 -0.0265
  705MOL0     C95076  10.957   3.082   2.405  0.5871  0.4330  0.4957
  705MOL0     C95077  10.809   3.039   2.394  0.3154 -0.3298 -1.0532
  705MOL0     C95078  10.704   3.127   2.460  0.2437  0.3114 -0.1258
  705MOL0     C95079  10.564   3.090   2.413  0.2056  0.1402  0.3321
  705MOL0     C95080  10.449   3.168   2.470  0.1515  0.1423 -0.2308
  705MOL0     C95081  10.315   3.103   2.436  0.3747 -0.2582  0.1402
  705MOL0     C95082  10.193   3.195   2.453  0.4558 -0.0394  0.0847
  705MOL0     C95083  10.070   3.128   2.406  0.2943 -0.6690 -0.2849
  705MOL0    Cl95084   9.916   3.201   2.471 -0.0503  0.1332  0.0599
  705MOL0     C95085  11.238   2.954   2.203  0.1385 -0.2128 -0.3403
  705MOL0     C95086  11.375   2.976   2.189 -1.3904 -0.8717 -0.3052
  705MOL0     O95087  11.639   3.213   2.416  0.5495 -0.3575 -0.1299
  705MOL0     C95088  11.886   3.252   2.272  0.2379  0.9233  0.0087
  705MOL0     C95089  12.000   3.293   2.189  0.4931  0.0882  0.6432
  705MOL0     N95090  12.076   3.583   1.474 -0.5272  0.4318 -0.8884
  705MOL0     N95091  11.969   3.552   1.409 -0.0892  0.1385 -0.1021
  705MOL0     C95092  11.490   4.321   1.598 -0.1057  0.6177 -0.2701
  705MOL0     C95093  11.471   4.455   1.615 -0.3443 -0.3654  0.3417
  705MOL0     C95094  11.558   4.862   1.772 -0.0859  0.0841 -0.5857
  705MOL0     C95095  11.513   4.906   1.903  0.2939  1.1827 -0.5912
  705MOL0     C95096  11.519   5.038   1.942 -0.1823  0.2494  0.7733
  705MOL0     C95097  11.550   5.135   1.844  1.0272  0.1182 -0.5496
  705MOL0     O95098  11.530   5.268   1.889  0.0669 -0.0939 -0.4730
  705MOL0     C95099  11.559   5.364   1.789  0.1272 -0.3709  1.4985
  705MOL0     C95100  11.515   5.504   1.834 -0.1446 -0.2355 -0.0504
  705MOL0     C95101  11.536   5.611   1.730  1.1906 -0.7091  0.5668
  705MOL0     C95102  11.673   5.657   1.694 -0.3180 -0.0543 -0.7137
  705MOL0     C95103  11.767   5.687   1.806  0.6869 -0.9865 -0.3205
  705MOL0     C95104  11.836   5.700   1.912  0.7492 -0.0367  0.0180
  705MOL0     C95105  11.599   5.087   1.717  0.6449 -0.2297 -0.7689
  705MOL0     C95106  11.612   4.957   1.680  0.3356 -0.3576  0.2284
  705MOL0     C95107  11.670   4.920   1.555 -0.5711 -0.5938 -0.1876
  705MOL0     H95108  11.787   4.557   1.598 -1.8514  1.4072 -0.9680
  705MOL0     H95109  11.827   4.329   1.521  0.1265 -2.3767  1.4452
  705MOL0     H95110  11.459   4.056   1.583  0.0649  2.2833  0.2276
  705MOL0     H95111  11.479   4.098   1.409  0.0834 -0.7712  0.8686
  705MOL0     H95112  11.634   3.861   1.528 -2.0400 -1.3286  1.3857
  705MOL0     H95113  11.681   3.940   1.380  1.0855 -4.7712  2.0405
  705MOL0     H95114  11.515   3.785   1.295  0.6101 -0.5302  1.2636
  705MOL0     H95115  11.401   3.916   1.345 -3.2271 -3.6362  0.1778
  705MOL0     H95116  11.352   3.813   1.557 -0.4795  0.5240  0.1127
  705MOL0     H95117  11.333   3.706   1.408 -0.0003 -1.0853 -0.0236
  705MOL0     H95118  11.555   3.696   1.616 -0.1139 -0.1806 -0.6831
  705MOL0     H95119  11.408   3.593   1.598 -4.6715  1.9621 -1.4039
  705MOL0     H95120  11.489   3.523   1.374  0.4788 -1.3540  2.4339
  705MOL0     H95121  11.632   3.639   1.377 -0.3938  2.2875  1.2641
  705MOL0     H95122  11.583   3.403   1.551 -0.0025  1.4964  2.6796
  705MOL0     H95123  11.685   3.504   1.617  1.2458 -2.2254  0.6083
  705MOL0     H95124  11.756   3.310   1.443 -1.6202 -0.3261 -2.7239
  705MOL0     H95125  11.741   3.431   1.331  2.8598 -0.3271 -0.4549
  705MOL0     H95126  11.923   3.398   1.686 -2.5410  0.8787 -1.5535
  705MOL0     H95127  12.259   3.623   1.658  2.2171 -0.3781  1.2292
  705MOL0     H95128  12.139   3.621   1.787 -0.9279  1.7057 -2.4969
  705MOL0     H95129  12.193   3.351   1.696  0.3504  0.2593 -1.0826
  705MOL0     H95130  12.347   3.430   1.675  0.2298 -1.7670 -0.4742
  705MOL0     H95131  12.342   3.498   1.915 -1.9715  1.8300  3.3064
  705MOL0     H95132  12.349   3.328   1.891  3.2337  3.2882  2.7332
  705MOL0     H95133  12.110   3.481   2.015 -1.0464 -1.2756 -1.1437
  705MOL0     H95134  12.227   3.374   2.093  1.4293  2.8912 -0.5162
  705MOL0     H95135  11.891   3.128   1.909 -1.1550 -0.6179 -0.4071
  705MOL0     H95136  11.712   3.059   2.059 -1.3161  0.2200  2.0996
  705MOL0     H95137  11.415   3.204   2.433 -2.0568  2.2059 -0.9698
  705MOL0     H95138  11.197   3.144   2.495 -3.5956 -3.7551  1.2679
  705MOL0     H95139  10.991   3.068   2.508  1.2315 -3.1757 -0.0792
  705MOL0     H95140  10.955   3.190   2.387 -4.0118  0.0193 -3.7952
  705MOL0     H95141  10.787   3.027   2.287  0.9646 -0.4243 -1.1863
  705MOL0     H95142  10.792   2.940   2.436 -2.5588 -1.3048 -4.1267
  705MOL0     H95143  10.709   3.113   2.569  0.9656 -1.4688 -0.3575
  705MOL0     H95144  10.714   3.232   2.429  0.6717  0.6138  0.9676
  705MOL0     H95145  10.555   2.983   2.435  2.3365 -0.6166 -1.9989
  705MOL0     H95146  10.556   3.095   2.304 -0.0371 -3.8159  0.0318
  705MOL0     H95147  10.439   3.268   2.426 -2.5692 -0.2899 -0.7963
  705MOL0     H95148  10.451   3.180   2.578 -1.0823  0.0443 -0.1780
  705MOL0     H95149  10.319   3.061   2.335  0.0680  0.4957 -0.1944
  705MOL0     H95150  10.295   3.012   2.495 -3.0451  0.6532  0.6037
  705MOL0     H95151  10.205   3.291   2.401 -1.1611 -0.8428 -1.8967
  705MOL0     H95152  10.177   3.224   2.557 -1.1760  2.9852 -0.8980
  705MOL0     H95153  10.072   3.134   2.297  1.8539 -1.3894 -0.3179
  705MOL0     H95154  10.070   3.025   2.443 -0.4928 -0.5613  0.0431
  705MOL0     H95155  11.182   2.891   2.135 -1.1004 -0.2974  0.7169
  705MOL0     H95156  11.426   2.936   2.102 -1.2096  2.0610 -1.6736
  705MOL0     H95157  11.865   3.297   2.369 -0.5873 -0.7226  0.6236
  705MOL0     H95158  12.066   3.359   2.245  1.1716 -1.6469  1.9852
  705MOL0     H95159  11.399   4.262   1.608  1.6043 -2.2465 -0.4836
  705MOL0     H95160  11.374   4.491   1.647 -1.1834 -1.0703 -1.3144
  705MOL0     H95161  11.486   4.825   1.970 -0.5352  2.0298  0.1363
  705MOL0     H95162  11.491   5.072   2.041 -1.5508 -1.1651  0.9145
  705MOL0     H95163  11.515   5.337   1.693  2.7238 -1.9608  0.6575
  705MOL0     H95164  11.664   5.362   1.757 -0.6915  2.4010 -2.0137
  705MOL0     H95165  11.574   5.534   1.921  0.5662 -3.6499  0.8326
  705MOL0     H95166  11.412   5.491   1.870 -0.2185  1.4668  0.4056
  705MOL0     H95167  11.494   5.700   1.779 -0.4412 -0.1334 -1.7351
  705MOL0     H95168  11.480   5.588   1.639 -0.5192  1.1531  1.0752
  705MOL0     H95169  11.707   5.573   1.632  0.2483 -0.4028  0.0508
  705MOL0     H95170  11.655   5.747   1.634 -0.8380  0.1855 -0.2066
  705MOL0     H95171  11.896   5.726   1.997  1.0507 -3.5769  1.0544
  705MOL0     H95172  11.638   5.160   1.647  0.0772 -0.5823 -1.4716
  705MOL0     H95173  11.592   4.888   1.486 -1.7587  1.1757  0.2689
  705MOL0     H95174  11.735   5.001   1.521 -0.0327 -0.2593  1.5227
  705MOL0     H95175  11.735   4.835   1.577  0.1524 -0.1207 -0.4599
  706MOL0     O95176  11.080   7.542   7.298 -0.7028  0.1561  0.3155
  706MOL0     C95177  10.979   7.615   7.278  0.3361  1.2456 -0.5930
  706MOL0     O95178  10.867   7.611   7.354 -0.1912 -0.1474 -0.2765
  706MOL0     C95179  10.867   7.545   7.475 -0.7252  0.4728  0.6161
  706MOL0     C95180  10.894   7.407   7.507  0.1541 -0.1859 -0.2782
  706MOL0     C95181  10.861   7.345   7.627  0.2603 -0.5033 -1.1584
  706MOL0     C95182  10.798   7.419   7.732  0.6155 -0.4532  0.6916
  706MOL0     O95183  10.754   7.361   7.850 -0.1548  0.0582 -0.3980
  706MOL0     C95184  10.794   7.410   7.978  0.2016 -0.2497  0.4052
  706MOL0     C95185  10.933   7.357   8.018 -0.5157 -0.1420  0.2236
  706MOL0     C95186  10.974   7.380   8.160  0.4702  0.2543  0.2784
  706MOL0     C95187  11.019   7.526   8.183 -0.6342  0.3519 -0.0896
  706MOL0     C95188  11.072   7.551   8.324 -0.6552  0.3974  0.0778
  706MOL0     C95189  11.069   7.700   8.361 -1.0301  0.5310 -0.4260
  706MOL0     C95190  10.926   7.763   8.361  0.3289 -0.9287 -0.4376
  706MOL0     C95191  10.944   7.908   8.419  0.8927  1.1090  0.0247
  706MOL0     N95192  10.830   8.001   8.381 -1.1168 -0.3757 -0.1388
  706MOL0     C95193  10.806   8.042   8.255  0.1133 -0.0778  0.4739
  706MOL0     C95194  10.704   8.136   8.268  1.0464  0.3644  0.2601
  706MOL0     C95195  10.634   8.222   8.168  1.0146 -0.1715  0.4074
  706MOL0     C95196  10.733   8.282   8.070 -0.1672  0.7149 -0.4983
  706MOL0     C95197  10.828   8.384   8.136 -0.4892  0.2046  0.0234
  706MOL0     C95198  10.769   8.518   8.169  0.0230 -1.3627  0.1706
  706MOL0     O95199  10.877   8.613   8.184 -0.3565  0.7517 -0.3798
  706MOL0     C95200  10.844   8.751   8.181  0.5958 -0.6610 -0.8412
  706MOL0     C95201  10.714   8.801   8.219 -0.2398 -0.4989  0.2935
  706MOL0     C95202  10.681   8.936   8.209  0.1592  0.2600  0.1358
  706MOL0     C95203  10.764   9.031   8.151  0.3575 -0.9028  0.3550
  706MOL0     C95204  10.710   9.164   8.113 -0.2616  0.4308  0.6078
  706MOL0     O95205  10.805   9.234   8.043 -0.1620 -0.1142 -0.0186
  706MOL0     C95206  10.775   9.362   8.004  0.4376 -0.6696 -0.8338
  706MOL0     C95207  10.768   9.405   7.872  0.2329 -0.4128 -0.3418
  706MOL0     C95208  10.749   9.539   7.833  0.5068  0.8134  0.6098
  706MOL0     C95209  10.716   9.629   7.929  0.6733  0.0124 -0.4218
  706MOL0     O95210  10.703   9.765   7.914  0.0018  0.0255 -0.3564
  706MOL0     C95211  10.761   9.823   7.797  0.2969 -0.2297  0.4282
  706MOL0     C95212  10.776   9.980   7.816  0.6663 -0.2507  0.3622
  706MOL0     C95213  10.817  10.026   7.959 -0.7353 -0.5385  0.7632
  706MOL0     C95214  10.833  10.185   7.953 -0.0649  0.0911 -0.0641
  706MOL0     C95215  10.906  10.247   8.071 -0.4233 -0.1439  0.3874
  706MOL0     C95216  11.062  10.245   8.038 -0.4574 -0.0363 -0.5665
  706MOL0     C95217  11.134  10.295   8.163  0.2976 -0.3392 -0.2167
  706MOL0     C95218  11.209  10.426   8.157  0.2310  1.3428 -0.0652
  706MOL0    Cl95219  11.316  10.442   8.302 -0.3307  0.0133 -0.3166
  706MOL0     C95220  10.708   9.585   8.067 -0.5977  0.1061 -0.1734
  706MOL0     C95221  10.742   9.460   8.103 -0.4608 -1.0168 -0.4410
  706MOL0     O95222  10.596   9.192   8.131  0.0349  0.8049 -0.2122
  706MOL0     C95223  10.891   8.984   8.120 -1.0413  0.1414 -0.1403
  706MOL0     C95224  10.936   8.851   8.136 -0.9376 -0.2823  1.3888
  706MOL0     N95225  10.681   8.157   8.400  0.0167 -0.4391 -1.1215
  706MOL0     N95226  10.755   8.084   8.476 -0.5490 -0.9367  0.3048
  706MOL0     C95227  10.777   7.551   7.703 -0.7408 -0.2346  0.5268
  706MOL0     C95228  10.821   7.618   7.582  0.4750  1.2064  0.6387
  706MOL0     C95229  10.962   7.718   7.176 -0.0452 -0.3008 -0.2218
  706MOL0     C95230  10.911   7.845   7.214  0.5783 -0.1576  1.2205
  706MOL0     C95231  10.890   7.944   7.123 -0.1668 -0.9676  1.1506
  706MOL0     C95232  10.922   7.930   6.991 -0.8530  1.2491 -0.1656
  706MOL0     O95233  10.900   8.023   6.897  0.1414 -1.1037  0.0734
  706MOL0     C95234  10.760   8.060   6.877  0.8816 -0.4462 -0.0155
  706MOL0     C95235  10.673   7.958   6.812 -0.3835 -0.6172 -0.0489
  706MOL0     C95236  10.713   7.915   6.679  0.1130  1.2239  0.9676
  706MOL0     C95237  10.656   7.780   6.648 -0.5550 -0.1237  0.0028
  706MOL0     C95238  10.516   7.786   6.636  0.5026  0.4207  0.4823
  706MOL0     C95239  10.395   7.798   6.631  0.4372  0.0534 -0.0860
  706MOL0     C95240  10.985   7.808   6.950 -0.0532 -1.2255  0.1223
  706MOL0     C95241  11.006   7.709   7.041 -0.4110 -1.1556 -0.0265
  706MOL0     C95242  11.064   7.570   6.992 -0.3724 -0.5539 -0.1764
  706MOL0     H95243  10.929   7.339   7.431 -0.1132  1.4743 -1.9655
  706MOL0     H95244  10.888   7.240   7.631 -0.0148 -0.5705  2.4252
  706MOL0     H95245  10.808   7.518   7.983  3.3278 -0.6257  1.8538
  706MOL0     H95246  10.721   7.356   8.039 -1.6502 -0.5834 -1.9096
  706MOL0     H95247  11.008   7.402   7.952 -1.3459  0.8311 -0.0717
  706MOL0     H95248  10.936   7.250   7.993 -0.4043 -0.5299  1.7548
  706MOL0     H95249  11.058   7.317   8.190  1.0243  0.2498 -1.2193
  706MOL0     H95250  10.884   7.355   8.217  0.8922  2.0083  1.8209
  706MOL0     H95251  11.110   7.537   8.122  0.3305  2.3244  1.5725
  706MOL0     H95252  10.940   7.594   8.150 -1.4414 -0.2890  0.5019
  706MOL0     H95253  11.011   7.494   8.394 -0.5842  1.5911  1.1324
  706MOL0     H95254  11.173   7.509   8.322 -1.0658 -0.6286  0.2857
  706MOL0     H95255  11.103   7.699   8.465 -5.3588  1.5358  1.2029
  706MOL0     H95256  11.138   7.759   8.299  0.2943  0.6249  1.0869
  706MOL0     H95257  10.848   7.719   8.424  0.7705 -0.6246  0.3346
  706MOL0     H95258  10.886   7.764   8.259 -0.2143  3.0415 -0.3500
  706MOL0     H95259  10.944   7.888   8.527 -1.0826 -3.1112 -0.5689
  706MOL0     H95260  11.040   7.952   8.389  1.8463  0.4133  1.8465
  706MOL0     H95261  10.839   8.002   8.160 -1.9738 -2.2080  0.5264
  706MOL0     H95262  10.562   8.165   8.110  3.8636  0.6455 -4.4857
  706MOL0     H95263  10.573   8.301   8.213  1.4405  1.8890 -2.3635
  706MOL0     H95264  10.800   8.202   8.037  2.3707  2.9286 -1.0622
  706MOL0     H95265  10.693   8.331   7.981 -0.4927  0.8322 -0.2850
  706MOL0     H95266  10.914   8.409   8.073 -0.2232 -0.2562  0.1923
  706MOL0     H95267  10.880   8.335   8.219  1.2182  0.1952 -0.9958
  706MOL0     H95268  10.700   8.504   8.253 -1.8954 -4.0957 -1.6860
  706MOL0     H95269  10.711   8.557   8.084  3.6942  0.3684 -1.7458
  706MOL0     H95270  10.640   8.728   8.250  0.8800 -1.7147  0.2350
  706MOL0     H95271  10.580   8.964   8.236  1.0380  2.2660  1.5983
  706MOL0     H95272  10.782   9.329   7.796  2.7076 -0.7149  0.3355
  706MOL0     H95273  10.757   9.573   7.730 -3.2468  3.4419  0.9753
  706MOL0     H95274  10.861   9.781   7.787  0.0339 -1.8606  3.3795
  706MOL0     H95275  10.699   9.795   7.712  2.5867  2.2341 -2.2671
  706MOL0     H95276  10.838  10.014   7.733  0.5708  0.9429  0.7545
  706MOL0     H95277  10.679  10.030   7.804  0.9447 -0.0860 -1.6031
  706MOL0     H95278  10.750  10.003   8.042  1.3267 -1.0922  2.3588
  706MOL0     H95279  10.922   9.993   7.966 -0.8728 -1.5703 -1.2126
  706MOL0     H95280  10.731  10.221   7.938 -0.3253  0.2174  1.8224
  706MOL0     H95281  10.883  10.213   7.860 -1.8255  2.3322 -0.4135
  706MOL0     H95282  10.872  10.184   8.154  1.0611 -1.9578 -0.3102
  706MOL0     H95283  10.874  10.352   8.073  2.2610  0.7467  1.4838
  706MOL0     H95284  11.106  10.147   8.016 -1.6458 -1.0506  1.2243
  706MOL0     H95285  11.090  10.300   7.948  0.8128 -0.8250 -0.6820
  706MOL0     H95286  11.215  10.226   8.188  1.8716  1.9042  1.2830
  706MOL0     H95287  11.070  10.307   8.252  0.9266 -2.0583  0.5297
  706MOL0     H95288  11.276  10.415   8.071 -0.1665 -1.3559 -0.1013
  706MOL0     H95289  11.156  10.521   8.150  1.7901  2.2278 -0.3447
  706MOL0     H95290  10.675   9.660   8.139 -4.3337 -1.7388  0.2922
  706MOL0     H95291  10.740   9.424   8.206 -1.0398 -1.5211 -0.6200
  706MOL0     H95292  10.961   9.050   8.070 -3.0975  2.2815 -0.3840
  706MOL0     H95293  11.037   8.815   8.115 -0.1989  2.2311  0.1000
  706MOL0     H95294  10.741   7.615   7.783  2.3542 -0.8422  2.5889
  706MOL0     H95295  10.806   7.724   7.570 -1.9194  0.5967 -5.2209
  706MOL0     H95296  10.902   7.871   7.319 -2.1094 -0.6086  1.1706
  706MOL0     H95297  10.842   8.036   7.157  1.8706  1.4111 -1.8518
  706MOL0     H95298  10.752   8.145   6.807  1.2351 -0.9808 -0.7241
  706MOL0     H95299  10.711   8.081   6.972  1.5456  4.3865 -0.4425
  706MOL0     H95300  10.567   7.986   6.806 -0.5671 -0.9531  1.2196
  706MOL0     H95301  10.660   7.877   6.885 -1.3513 -1.4806 -1.1315
  706MOL0     H95302  10.819   7.898   6.661 -0.6599 -1.1082 -2.2251
  706MOL0     H95303  10.684   7.988   6.603  1.4322  0.7828 -0.0011
  706MOL0     H95304  10.701   7.765   6.549  1.0172 -2.6819  1.0171
  706MOL0     H95305  10.681   7.710   6.728  0.7678  0.9341  0.5541
  706MOL0     H95306  10.288   7.794   6.628  0.4265 -1.4973  1.0369
  706MOL0     H95307  11.014   7.793   6.846  1.0709  1.4115 -0.0447
  706MOL0     H95308  11.159   7.547   7.041  1.7535 -1.0527 -4.0849
  706MOL0     H95309  10.989   7.492   7.009 -2.6821  1.5428 -0.2182
  706MOL0     H95310  11.089   7.574   6.886 -2.9011  1.4740 -0.8098
  707MOL0     O95311   0.240  11.496   2.874 -0.6152  0.1256 -1.0616
  707MOL0     C95312   0.145  11.449   2.950 -0.0717  0.3937  0.9921
  707MOL0     O95313   0.172  11.384   3.067  0.4763  0.7541  0.2393
  707MOL0     C95314   0.298  11.330   3.104  0.4319 -0.5939 -0.6783
  707MOL0     C95315   0.319  11.313   3.239  0.5073  0.1364 -0.6209
  707MOL0     C95316   0.433  11.245   3.284  0.5554 -0.7028 -1.0075
  707MOL0     C95317   0.526  11.183   3.199 -0.5814  0.0124  0.9382
  707MOL0     O95318   0.636  11.105   3.235 -0.3079  0.4316  0.3587
  707MOL0     C95319   0.641  11.062   3.371  0.2761 -0.1850 -0.5151
  707MOL0     C95320   0.766  10.968   3.373  0.0044 -0.6641 -0.0745
  707MOL0     C95321   0.906  11.030   3.391 -0.1757  0.1529  0.6649
  707MOL0     C95322   0.945  11.127   3.275  0.5568  0.0470  0.1887
  707MOL0     C95323   1.086  11.159   3.276 -0.2635 -0.1739 -0.1882
  707MOL0     C95324   1.117  11.263   3.169 -0.2574 -1.0079  0.4989
  707MOL0     C95325   1.089  11.218   3.024  0.2757 -0.3360 -0.2055
  707MOL0     C95326   0.955  11.286   2.980 -0.0774 -0.6230  0.0900
  707MOL0     N95327   0.870  11.211   2.892  0.9725  0.0467 -0.1814
  707MOL0     C95328   0.828  11.084   2.922 -0.0247  0.1386 -0.9185
  707MOL0     C95329   0.755  11.052   2.810 -0.1861 -0.1850  0.0613
  707MOL0     C95330   0.693  10.917   2.775  0.4603 -0.2191 -1.0333
  707MOL0     C95331   0.589  10.878   2.886  0.0770  0.1729 -0.3735
  707MOL0     C95332   0.537  10.727   2.874  0.1984  0.6321 -0.2435
  707MOL0     C95333   0.451  10.683   2.992 -0.1717  0.3571 -0.8492
  707MOL0     O95334   0.539  10.649   3.093  0.1306  0.2778 -0.3256
  707MOL0     C95335   0.506  10.620   3.223 -0.5289  0.6038 -0.3790
  707MOL0     C95336   0.382  10.602   3.284  0.6751 -0.9081  0.4404
  707MOL0     C95337   0.370  10.567   3.414  0.8756  0.3144 -0.4196
  707MOL0     C95338   0.474  10.561   3.507 -1.1027  0.7070  0.0322
  707MOL0     C95339   0.455  10.540   3.647  0.7255  0.2677 -0.0426
  707MOL0     O95340   0.327  10.523   3.692 -0.5503  0.3969  0.1225
  707MOL0     C95341   0.303  10.500   3.816 -0.1031 -0.4318  0.1536
  707MOL0     C95342   0.356  10.589   3.916 -0.7124 -0.2452  0.1920
  707MOL0     C95343   0.332  10.556   4.048  0.7617  1.1417  0.0161
  707MOL0     C95344   0.251  10.445   4.084  0.8920 -0.3813  0.1578
  707MOL0     O95345   0.225  10.417   4.221  0.5266 -0.8968  0.5392
  707MOL0     C95346   0.122  10.328   4.257  0.3313 -0.1646 -0.2116
  707MOL0     C95347   0.082  10.330   4.407  0.1694 -0.3716 -0.5948
  707MOL0     C95348  -0.022  10.224   4.458  0.0059 -0.4826  0.0725
  707MOL0     C95349  -0.160  10.289   4.478  0.0127  0.6286  1.0065
  707MOL0     C95350  -0.281  10.195   4.481 -1.3696  0.2590 -0.0715
  707MOL0     C95351  -0.282  10.107   4.615 -0.2266 -0.4028  1.5887
  707MOL0     C95352  -0.381   9.990   4.609  0.5206 -0.3509  0.1129
  707MOL0     C95353  -0.357   9.889   4.719 -0.0095  0.7727  0.7594
  707MOL0    Cl95354  -0.397   9.964   4.872  0.2161  0.2225 -0.1210
  707MOL0     C95355   0.194  10.369   3.982 -0.1167 -0.1392 -0.0778
  707MOL0     C95356   0.234  10.395   3.850 -0.5454 -0.4591  0.2400
  707MOL0     O95357   0.558  10.547   3.718  0.9143  0.1623  0.1002
  707MOL0     C95358   0.602  10.560   3.439  0.3190  0.0845  1.4550
  707MOL0     C95359   0.616  10.595   3.304 -0.0058 -0.0184 -0.2370
  707MOL0     N95360   0.743  11.164   2.731  0.4369  0.2637 -0.0955
  707MOL0     N95361   0.816  11.258   2.780  0.2797 -0.3888 -0.2560
  707MOL0     C95362   0.515  11.231   3.065  0.3777  1.1581 -0.2476
  707MOL0     C95363   0.404  11.290   3.015  1.1951  0.0293  0.3268
  707MOL0     C95364   0.004  11.497   2.924 -1.3551  0.4807  1.0124
  707MOL0     C95365  -0.098  11.418   2.974 -0.6954 -0.6036  0.3399
  707MOL0     C95366  -0.234  11.460   2.959  0.4685  0.0007  0.3511
  707MOL0     C95367  -0.263  11.575   2.881  0.0532 -0.5242  0.7722
  707MOL0     O95368  -0.388  11.629   2.860  0.4317 -0.1405 -0.0283
  707MOL0     C95369  -0.494  11.544   2.896 -0.0421 -0.0477 -0.7376
  707MOL0     C95370  -0.641  11.600   2.864  0.0486 -0.3078 -0.1493
  707MOL0     C95371  -0.689  11.715   2.944  0.7415 -0.1000  0.4124
  707MOL0     C95372  -0.713  11.674   3.093 -0.4128  0.5896  0.0989
  707MOL0     C95373  -0.811  11.767   3.154 -0.4596 -0.4314  0.6242
  707MOL0     C95374  -0.882  11.857   3.202 -1.2250  0.6754  0.2775
  707MOL0     C95375  -0.162  11.659   2.834  0.0793  0.5168 -0.2502
  707MOL0     C95376  -0.030  11.616   2.854  0.0232 -0.7910  0.5424
  707MOL0     C95377   0.059  11.729   2.820  0.4025  0.0064  0.8001
  707MOL0     H95378   0.258  11.358   3.317 -0.8441  0.2889 -1.7279
  707MOL0     H95379   0.436  11.246   3.393  1.0630  1.4130 -0.9925
  707MOL0     H95380   0.636  11.135   3.452 -0.7112  0.3016 -1.0066
  707MOL0     H95381   0.565  10.984   3.372  0.9267 -0.8521 -1.0203
  707MOL0     H95382   0.766  10.920   3.275  0.0981 -1.3864  0.2676
  707MOL0     H95383   0.736  10.899   3.453 -2.2333 -1.4790 -1.4943
  707MOL0     H95384   0.970  10.941   3.382  1.2901  1.2866 -0.6703
  707MOL0     H95385   0.928  11.069   3.490  1.8760 -2.8154  1.5307
  707MOL0     H95386   0.904  11.086   3.183 -0.1705  0.6134  0.2459
  707MOL0     H95387   0.882  11.212   3.302 -1.6019 -1.6903  0.9301
  707MOL0     H95388   1.111  11.199   3.375  0.2615  1.0420 -0.7892
  707MOL0     H95389   1.137  11.065   3.255 -1.1617 -0.4599 -1.1958
  707MOL0     H95390   1.071  11.356   3.205  1.6444 -1.2502  4.0272
  707MOL0     H95391   1.226  11.271   3.179  0.2055 -4.7454 -0.0939
  707MOL0     H95392   1.078  11.109   3.020 -0.0529 -0.4639  2.5968
  707MOL0     H95393   1.175  11.250   2.963  1.3361 -1.1556  0.8119
  707MOL0     H95394   0.905  11.329   3.067  1.9267 -1.4898  1.7472
  707MOL0     H95395   0.979  11.374   2.920 -3.5303 -0.0838 -0.6986
  707MOL0     H95396   0.865  11.026   3.006 -1.9472 -0.6583 -0.5633
  707MOL0     H95397   0.647  10.910   2.676 -2.0854  0.8671 -0.0236
  707MOL0     H95398   0.781  10.853   2.784  0.4045 -0.1682  0.1116
  707MOL0     H95399   0.625  10.883   2.989 -2.8441 -1.6556  0.8671
  707MOL0     H95400   0.503  10.942   2.867 -1.9330 -1.1192  3.3356
  707MOL0     H95401   0.623  10.663   2.851  0.0117  0.1459  0.4032
  707MOL0     H95402   0.465  10.729   2.791 -1.8353 -1.8951  1.3433
  707MOL0     H95403   0.384  10.605   2.954  0.3191  0.7951 -2.6857
  707MOL0     H95404   0.394  10.772   3.021  1.0573  2.0992 -3.3892
  707MOL0     H95405   0.294  10.620   3.223  0.7503  2.1205  1.0517
  707MOL0     H95406   0.267  10.547   3.442  1.4152 -4.7592 -1.0607
  707MOL0     H95407   0.418  10.674   3.890 -0.3796 -0.0057  1.7124
  707MOL0     H95408   0.390  10.603   4.127  0.3525  2.3385 -0.3828
  707MOL0     H95409   0.030  10.359   4.206  0.3550  0.5211  0.1386
  707MOL0     H95410   0.155  10.228   4.230  0.1161 -0.6193  1.1241
  707MOL0     H95411   0.171  10.310   4.468 -0.7912 -1.3339  0.5674
  707MOL0     H95412   0.039  10.429   4.426 -0.0776 -0.2511 -1.7096
  707MOL0     H95413  -0.028  10.144   4.383  0.7422 -0.3267 -0.1662
  707MOL0     H95414   0.003  10.185   4.557  0.3119 -4.2048 -1.2965
  707MOL0     H95415  -0.185  10.360   4.398 -1.2233 -2.1364 -1.2117
  707MOL0     H95416  -0.164  10.345   4.573 -0.4344  2.5004 -0.0585
  707MOL0     H95417  -0.286  10.129   4.393 -1.3396 -0.1213  0.2071
  707MOL0     H95418  -0.373  10.253   4.484 -1.6723 -0.1796 -0.4979
  707MOL0     H95419  -0.182  10.065   4.627  0.3456 -0.3658 -2.0290
  707MOL0     H95420  -0.309  10.172   4.699  0.0281 -1.3529  2.4365
  707MOL0     H95421  -0.350   9.945   4.515  1.9678  0.1780  0.3128
  707MOL0     H95422  -0.483  10.028   4.605  0.2164 -1.2436 -1.4540
  707MOL0     H95423  -0.404   9.791   4.710  1.1188  0.0466  2.3172
  707MOL0     H95424  -0.252   9.857   4.717 -1.4208 -5.1947  2.4838
  707MOL0     H95425   0.126  10.287   4.004 -1.4917  0.7469 -0.8590
  707MOL0     H95426   0.177  10.339   3.777 -2.1637  2.9255 -1.3088
  707MOL0     H95427   0.691  10.523   3.490  0.1298 -2.2949  0.1703
  707MOL0     H95428   0.712  10.597   3.254 -0.5982  0.7291 -1.3836
  707MOL0     H95429   0.587  11.203   2.989  1.7393 -0.6116  1.5800
  707MOL0     H95430   0.379  11.302   2.910 -0.5580  2.7398  0.9604
  707MOL0     H95431  -0.059  11.325   3.015 -0.2561 -0.0241  1.2808
  707MOL0     H95432  -0.313  11.401   3.003  0.2402 -1.6058 -2.0143
  707MOL0     H95433  -0.492  11.518   3.002 -2.4987 -1.1726 -0.8850
  707MOL0     H95434  -0.487  11.443   2.853 -2.2680 -0.6650  0.1710
  707MOL0     H95435  -0.713  11.518   2.862  0.3029 -0.5866  1.2062
  707MOL0     H95436  -0.636  11.636   2.761  1.2485 -0.5333 -0.1917
  707MOL0     H95437  -0.778  11.759   2.898  2.3956  2.0479 -0.9588
  707MOL0     H95438  -0.611  11.791   2.936  1.1416 -0.6703 -1.6037
  707MOL0     H95439  -0.754  11.573   3.094  0.0019  0.3886 -1.0712
  707MOL0     H95440  -0.617  11.674   3.143 -0.0131 -3.7937 -0.3072
  707MOL0     H95441  -0.952  11.930   3.238 -1.4166  0.2586  0.7659
  707MOL0     H95442  -0.193  11.751   2.785 -0.9490  1.0880  1.4029
  707MOL0     H95443   0.155  11.721   2.872 -0.0735  2.1321  2.1268
  707MOL0     H95444   0.083  11.733   2.714  0.6738  0.8464  0.8831
  707MOL0     H95445   0.020  11.828   2.846  1.5605  0.2858  1.5470
  708MOL0     O95446   4.522   6.733   8.496 -0.1560  0.5076  0.0582
  708MOL0     C95447   4.487   6.629   8.442  0.3740  0.4562 -0.1351
  708MOL0     O95448   4.556   6.513   8.467  0.2664  0.4129 -0.8867
  708MOL0     C95449   4.665   6.497   8.541  0.7549  0.1034 -0.0848
  708MOL0     C95450   4.742   6.394   8.498 -0.3342 -0.4322  0.3567
  708MOL0     C95451   4.849   6.351   8.581 -0.5168 -0.4515  0.5753
  708MOL0     C95452   4.899   6.438   8.680 -0.0455 -0.1231  0.1948
  708MOL0     O95453   5.003   6.382   8.749 -0.9809 -0.3007 -0.0726
  708MOL0     C95454   5.122   6.460   8.779  1.0613  0.2624  0.2200
  708MOL0     C95455   5.210   6.473   8.650 -0.1890 -0.2263  0.6038
  708MOL0     C95456   5.336   6.557   8.676  0.0348  0.6565  0.1179
  708MOL0     C95457   5.426   6.565   8.549 -0.1409  0.0069 -0.6305
  708MOL0     C95458   5.562   6.622   8.592 -1.0254  0.6601 -0.9152
  708MOL0     C95459   5.641   6.655   8.468 -0.1105 -0.3621  0.3641
  708MOL0     C95460   5.781   6.692   8.501 -0.1707  0.1810 -1.2501
  708MOL0     C95461   5.862   6.742   8.380 -0.8720 -0.2879  0.2238
  708MOL0     N95462   5.879   6.627   8.292 -1.1967 -0.0843  0.4305
  708MOL0     C95463   5.810   6.599   8.178 -0.5655  0.5505  0.2048
  708MOL0     C95464   5.841   6.468   8.152 -0.0602 -0.2679 -0.0002
  708MOL0     C95465   5.773   6.381   8.047 -0.7302  0.6449 -0.2830
  708MOL0     C95466   5.673   6.284   8.106 -0.7414  0.4459 -0.1742
  708MOL0     C95467   5.533   6.356   8.140 -0.0859 -0.8992 -0.1820
  708MOL0     C95468   5.455   6.377   8.019  0.0193  0.2236  0.4781
  708MOL0     O95469   5.347   6.473   8.022  0.7101 -0.1838 -0.1502
  708MOL0     C95470   5.222   6.429   8.059 -0.3299  0.0592  0.5057
  708MOL0     C95471   5.113   6.497   7.993 -0.3093  0.2490 -1.0352
  708MOL0     C95472   4.978   6.458   8.015  0.2460 -0.6213  1.3479
  708MOL0     C95473   4.944   6.353   8.096 -0.5914 -0.2989 -0.4353
  708MOL0     C95474   4.799   6.316   8.109  0.2535  0.2835 -0.0802
  708MOL0     O95475   4.702   6.381   8.040 -0.3345 -0.7602  0.2128
  708MOL0     C95476   4.570   6.346   8.050  1.2959 -0.5681  1.1545
  708MOL0     C95477   4.529   6.211   8.045  0.6024  0.6746  0.0732
  708MOL0     C95478   4.395   6.176   8.053  0.5322 -0.5021  0.9230
  708MOL0     C95479   4.297   6.279   8.071 -1.2985  0.0151  0.0672
  708MOL0     O95480   4.161   6.256   8.070  0.4602  0.1666 -0.1083
  708MOL0     C95481   4.126   6.122   8.037  0.0147  0.1554 -0.8755
  708MOL0     C95482   3.981   6.089   8.022 -0.4709  0.6457 -1.0367
  708MOL0     C95483   3.909   6.106   8.158 -0.7328 -0.0352  1.4242
  708MOL0     C95484   3.773   6.039   8.145 -0.6143 -0.4899  0.0803
  708MOL0     C95485   3.663   6.128   8.204  0.6192  0.5468 -0.4281
  708MOL0     C95486   3.534   6.051   8.201  0.5064  0.0523 -0.4987
  708MOL0     C95487   3.503   5.966   8.322  0.1451  0.1467  0.1402
  708MOL0     C95488   3.359   5.941   8.351 -0.4803 -0.4973 -0.0811
  708MOL0    Cl95489   3.279   6.082   8.404  0.0523  0.2556  0.5121
  708MOL0     C95490   4.337   6.412   8.049  0.0761  0.5290 -1.7485
  708MOL0     C95491   4.469   6.443   8.047 -0.8985  1.3259 -0.5822
  708MOL0     O95492   4.769   6.226   8.183 -0.0219  0.4141 -0.5922
  708MOL0     C95493   5.052   6.285   8.160 -0.0788  0.0611  1.3500
  708MOL0     C95494   5.184   6.317   8.137 -0.2846 -0.2929  0.1855
  708MOL0     N95495   5.935   6.431   8.239 -0.7303  0.1274 -0.0267
  708MOL0     N95496   5.967   6.525   8.319 -0.6283 -0.4577 -0.0620
  708MOL0     C95497   4.827   6.548   8.711 -0.8597 -0.0564 -0.8927
  708MOL0     C95498   4.708   6.576   8.649 -0.2520  0.1757  0.4960
  708MOL0     C95499   4.356   6.627   8.367  0.4214  1.3333 -0.1252
  708MOL0     C95500   4.312   6.746   8.301 -1.0150 -0.0517 -0.2704
  708MOL0     C95501   4.189   6.765   8.250 -0.3315  0.6927 -0.4052
  708MOL0     C95502   4.096   6.669   8.269 -0.0078  0.3606 -0.2400
  708MOL0     O95503   3.968   6.692   8.231  0.4173 -0.2186 -0.2325
  708MOL0     C95504   3.861   6.659   8.316 -0.4456  0.5891 -0.2479
  708MOL0     C95505   3.728   6.631   8.243  0.3000  0.2032  0.3377
  708MOL0     C95506   3.623   6.545   8.321 -0.3441 -0.0130 -1.1380
  708MOL0     C95507   3.527   6.480   8.230  0.1148 -0.4023  0.3477
  708MOL0     C95508   3.431   6.584   8.180 -0.4396 -0.2974  0.1600
  708MOL0     C95509   3.358   6.667   8.131 -0.2353  0.4281  0.0806
  708MOL0     C95510   4.138   6.544   8.321  0.9046  0.1814  0.6508
  708MOL0     C95511   4.271   6.516   8.372 -0.1774 -0.2686  0.1128
  708MOL0     C95512   4.290   6.381   8.430  0.4111 -0.8634 -0.8431
  708MOL0     H95513   4.694   6.327   8.427 -1.6234  0.4957  0.3065
  708MOL0     H95514   4.887   6.249   8.580  1.9306  0.4118 -0.1481
  708MOL0     H95515   5.111   6.558   8.827  3.0687  0.1395  0.9936
  708MOL0     H95516   5.170   6.399   8.856 -3.1452 -1.6889  1.6086
  708MOL0     H95517   5.151   6.531   8.579 -1.6305 -2.8821 -0.5047
  708MOL0     H95518   5.236   6.373   8.615 -1.5551  0.2307 -2.0223
  708MOL0     H95519   5.381   6.517   8.768  0.2391  0.2804 -0.1429
  708MOL0     H95520   5.310   6.656   8.715 -1.8058 -1.0406  3.7998
  708MOL0     H95521   5.444   6.464   8.511 -2.6881 -1.0886  0.8106
  708MOL0     H95522   5.387   6.635   8.475 -0.4358 -0.8623 -1.3198
  708MOL0     H95523   5.551   6.716   8.647 -2.0883  1.9888 -3.2359
  708MOL0     H95524   5.624   6.556   8.653 -0.0818  2.3190 -0.0175
  708MOL0     H95525   5.642   6.563   8.409  0.0799 -0.0531 -0.1238
  708MOL0     H95526   5.590   6.734   8.412  1.3766 -1.9175 -3.5271
  708MOL0     H95527   5.830   6.610   8.555 -3.1009 -0.0482  1.3748
  708MOL0     H95528   5.777   6.777   8.570  1.9519 -0.5156 -0.1773
  708MOL0     H95529   5.804   6.825   8.338 -0.8753  1.0912  2.7582
  708MOL0     H95530   5.958   6.775   8.420 -1.0072  2.1931 -1.3142
  708MOL0     H95531   5.731   6.654   8.129  0.3693  1.7419 -0.0325
  708MOL0     H95532   5.726   6.439   7.966 -0.3480  2.5131  0.7683
  708MOL0     H95533   5.856   6.319   8.013 -1.3092 -0.4184  0.2187
  708MOL0     H95534   5.649   6.204   8.035  1.9591  0.0358 -0.7096
  708MOL0     H95535   5.718   6.248   8.198  0.1850 -0.0916 -0.8263
  708MOL0     H95536   5.562   6.454   8.179 -0.3443 -0.1097 -1.8714
  708MOL0     H95537   5.471   6.305   8.215  0.9762 -1.9745 -0.0062
  708MOL0     H95538   5.406   6.296   7.966 -2.1723  1.6841  0.1435
  708MOL0     H95539   5.524   6.422   7.947  1.5288 -0.2231  1.5870
  708MOL0     H95540   5.143   6.583   7.935 -0.0508  2.1759  1.7496
  708MOL0     H95541   4.895   6.505   7.962 -0.4559 -3.5546 -0.3908
  708MOL0     H95542   4.591   6.122   8.036 -0.2228 -0.0686  1.4885
  708MOL0     H95543   4.369   6.071   8.043  2.8986 -1.3369  2.5090
  708MOL0     H95544   4.162   6.100   7.935  1.5539 -0.7927 -0.1644
  708MOL0     H95545   4.165   6.055   8.114 -1.2153  1.4247  0.9122
  708MOL0     H95546   3.930   6.161   7.957 -0.0443  1.0959 -0.8754
  708MOL0     H95547   3.977   5.983   7.993  2.0298 -0.5617  2.3752
  708MOL0     H95548   3.973   6.057   8.232  3.7686  1.5068 -1.1015
  708MOL0     H95549   3.899   6.214   8.168 -1.4193  0.5092 -3.1151
  708MOL0     H95550   3.775   5.950   8.208  0.4143  0.9739  2.2677
  708MOL0     H95551   3.754   6.024   8.038  0.5398  0.9616 -0.3563
  708MOL0     H95552   3.649   6.212   8.136  0.3587  0.5842 -0.3275
  708MOL0     H95553   3.690   6.173   8.300  0.8630 -0.2902 -0.0933
  708MOL0     H95554   3.448   6.119   8.203  2.3158  2.4891  1.5390
  708MOL0     H95555   3.520   5.991   8.111 -0.5134  1.1717 -1.1160
  708MOL0     H95556   3.561   5.995   8.411 -0.3490 -2.8605  1.5761
  708MOL0     H95557   3.554   5.870   8.309 -0.7551 -0.4706  1.0165
  708MOL0     H95558   3.317   5.918   8.253  0.2642  1.4359 -0.9000
  708MOL0     H95559   3.331   5.859   8.419 -2.3039  0.4155  0.3331
  708MOL0     H95560   4.259   6.488   8.048 -0.8833 -0.1612  2.3632
  708MOL0     H95561   4.510   6.542   8.063 -1.7859  1.5278  0.6313
  708MOL0     H95562   5.020   6.207   8.229 -2.9161  1.9082  2.3362
  708MOL0     H95563   5.266   6.261   8.181 -0.3916 -0.7963 -0.2464
  708MOL0     H95564   4.848   6.603   8.802 -3.1515 -1.6169  0.7060
  708MOL0     H95565   4.640   6.658   8.671 -0.0288  0.3698  0.4672
  708MOL0     H95566   4.374   6.833   8.319  0.8527 -1.9686  3.7024
  708MOL0     H95567   4.170   6.857   8.196 -0.7282 -0.6655 -2.7322
  708MOL0     H95568   3.860   6.742   8.387  4.1735  1.3187 -0.7390
  708MOL0     H95569   3.894   6.576   8.379  0.8996 -0.2802 -1.9938
  708MOL0     H95570   3.754   6.563   8.162  0.0007  1.3271 -0.7264
  708MOL0     H95571   3.683   6.717   8.193 -1.9265 -2.4010 -2.4738
  708MOL0     H95572   3.569   6.606   8.394  0.0162 -2.4538  1.3407
  708MOL0     H95573   3.675   6.470   8.381  3.3668 -0.4051 -4.4218
  708MOL0     H95574   3.574   6.440   8.140  2.4848  0.2669  1.2125
  708MOL0     H95575   3.479   6.395   8.279 -3.8213 -0.0445 -2.4247
  708MOL0     H95576   3.300   6.740   8.078 -0.2847  0.3953  0.0901
  708MOL0     H95577   4.068   6.463   8.332 -1.1566  1.8710  0.7035
  708MOL0     H95578   4.377   6.340   8.377  0.8043 -0.6402 -0.3764
  708MOL0     H95579   4.306   6.373   8.538 -0.0577  1.3001 -0.5781
  708MOL0     H95580   4.199   6.330   8.395  0.2033 -1.0076 -0.1108
  709MOL0     O95581   7.173   9.229  10.375  0.2100 -0.6324  0.0449
  709MOL0     C95582   7.200   9.157  10.279  0.8001  0.4752 -0.3419
  709MOL0     O95583   7.154   9.163  10.150 -0.1900 -0.0520 -0.0489
  709MOL0     C95584   7.047   9.234  10.109  0.0709 -0.0895  0.5128
  709MOL0     C95585   7.006   9.219   9.977 -0.7151  0.3302 -0.1961
  709MOL0     C95586   6.902   9.286   9.926  0.4423  0.1884  0.3230
  709MOL0     C95587   6.834   9.373   9.997  1.2060 -0.2005  0.7563
  709MOL0     O95588   6.734   9.455   9.939  0.8053  0.1930  0.0270
  709MOL0     C95589   6.598   9.421   9.971  0.8389 -0.3353 -0.1192
  709MOL0     C95590   6.500   9.463   9.861  0.5591 -0.3372  0.9648
  709MOL0     C95591   6.491   9.612   9.863 -0.0102  0.8322  0.3981
  709MOL0     C95592   6.425   9.669   9.738  0.0795 -1.4059 -0.5337
  709MOL0     C95593   6.409   9.819   9.751 -0.3365 -0.9307 -0.6457
  709MOL0     C95594   6.331   9.899   9.651  0.6225  1.2742 -0.0009
  709MOL0     C95595   6.331  10.054   9.675  0.4202  0.9078 -0.1014
  709MOL0     C95596   6.213  10.090   9.773  0.5654 -0.5110 -0.3112
  709MOL0     N95597   6.236  10.207   9.853  0.5412  0.3653 -0.7577
  709MOL0     C95598   6.213  10.331   9.810  0.5007  0.0426 -0.7033
  709MOL0     C95599   6.253  10.407   9.913 -0.3293 -0.0158 -0.0248
  709MOL0     C95600   6.228  10.560   9.939  0.3947 -0.2590 -0.8267
  709MOL0     C95601   6.296  10.661   9.845 -0.0269 -0.5703 -0.2870
  709MOL0     C95602   6.223  10.802   9.819  0.2278  0.2486 -1.3601
  709MOL0     C95603   6.092  10.799   9.738 -0.1860  0.8037 -0.1006
  709MOL0     O95604   6.037  10.920   9.679 -1.2544  0.0300  0.8193
  709MOL0     C95605   5.952  10.993   9.757  0.3999 -0.7013 -0.8470
  709MOL0     C95606   5.999  11.110   9.819  0.1583 -0.6436  0.8060
  709MOL0     C95607   5.907  11.204   9.876  0.2562  0.3615 -0.3896
  709MOL0     C95608   5.762  11.164   9.882 -0.4804 -0.8427 -0.2145
  709MOL0     C95609   5.655  11.251   9.943 -0.2012  0.4847  0.6522
  709MOL0     O95610   5.706  11.362  10.007  0.2655  0.4314  1.0398
  709MOL0     C95611   5.634  11.450  10.078 -0.4938  0.0640 -0.6927
  709MOL0     C95612   5.536  11.416  10.181  0.4308  0.8756  0.7047
  709MOL0     C95613   5.477  11.514  10.268  0.0321  0.0675 -0.0252
  709MOL0     C95614   5.495  11.648  10.246 -0.7472 -0.5220 -0.2092
  709MOL0     O95615   5.442  11.750  10.323 -0.8251  1.1886  0.3509
  709MOL0     C95616   5.532  11.778  10.436 -0.1574 -0.1071  0.0344
  709MOL0     C95617   5.490  11.926  10.488  0.5191  0.3241 -0.1813
  709MOL0     C95618   5.569  11.992  10.604  0.2794 -0.1362  0.3924
  709MOL0     C95619   5.698  12.069  10.541 -0.3898 -0.0348 -0.2355
  709MOL0     C95620   5.779  12.125  10.656 -0.4033  0.1434 -0.2896
  709MOL0     C95621   5.711  12.246  10.715  0.4416 -0.3588 -0.5213
  709MOL0     C95622   5.778  12.315  10.836 -0.0752  0.3916 -0.3784
  709MOL0     C95623   5.780  12.234  10.965 -0.1576 -0.4951  0.5482
  709MOL0    Cl95624   5.895  12.315  11.081 -0.2730  0.0902 -0.4937
  709MOL0     C95625   5.580  11.682  10.136  0.1288  0.2758 -0.8514
  709MOL0     C95626   5.651  11.589  10.052  0.7392  0.6716 -0.1747
  709MOL0     O95627   5.538  11.211   9.952 -1.3043 -0.0857 -0.7489
  709MOL0     C95628   5.734  11.039   9.813  0.3456  0.2774  0.8979
  709MOL0     C95629   5.821  10.961   9.750 -0.7942  0.2697  0.0551
  709MOL0     N95630   6.314  10.328  10.011  0.6661 -0.1993 -0.1113
  709MOL0     N95631   6.299  10.207   9.976  0.8635  0.2434 -0.0409
  709MOL0     C95632   6.852   9.391  10.129  0.4039  0.8067 -0.0798
  709MOL0     C95633   6.965   9.325  10.182 -0.7994 -0.8149  0.8399
  709MOL0     C95634   7.299   9.050  10.302  1.0386  0.1456 -0.0793
  709MOL0     C95635   7.272   8.951  10.396 -0.1649 -0.6551  0.5508
  709MOL0     C95636   7.373   8.861  10.439 -0.2443 -1.2678  0.3839
  709MOL0     C95637   7.498   8.873  10.388  0.0419  0.1898  0.2942
  709MOL0     O95638   7.616   8.803  10.425 -0.0640 -0.2997 -0.1784
  709MOL0     C95639   7.620   8.679  10.493 -0.2252  0.2875 -0.8892
  709MOL0     C95640   7.755   8.601  10.465 -0.5084 -0.4166 -0.1489
  709MOL0     C95641   7.876   8.686  10.511  0.2937 -1.0446  0.0008
  709MOL0     C95642   8.012   8.616  10.503  0.0285  0.5705 -0.5749
  709MOL0     C95643   8.005   8.486  10.576 -0.5114 -0.0307 -0.1592
  709MOL0     C95644   7.998   8.382  10.634  0.1435  0.0703 -0.0495
  709MOL0     C95645   7.524   8.981  10.303  0.2453  0.0473 -0.0590
  709MOL0     C95646   7.428   9.066  10.252 -0.8591  0.6487  0.4049
  709MOL0     C95647   7.476   9.138  10.124  1.0968 -0.5932 -0.4133
  709MOL0     H95648   7.048   9.150   9.905 -0.0687 -0.2229  0.6957
  709MOL0     H95649   6.872   9.283   9.822  2.5903 -1.8363 -0.3005
  709MOL0     H95650   6.588   9.313   9.986  1.0162 -0.2160  0.9874
  709MOL0     H95651   6.559   9.472  10.060 -1.8406 -0.0090 -1.4057
  709MOL0     H95652   6.398   9.423   9.871 -0.9294  2.6233 -0.9681
  709MOL0     H95653   6.536   9.426   9.764  1.1856  1.1217  0.6244
  709MOL0     H95654   6.588   9.661   9.866 -0.8696  2.6573 -0.4559
  709MOL0     H95655   6.434   9.650   9.948 -0.7811  0.7243 -0.0662
  709MOL0     H95656   6.490   9.639   9.656  2.2106  1.1552  0.0892
  709MOL0     H95657   6.326   9.625   9.724 -1.8611  1.4030  2.7078
  709MOL0     H95658   6.369   9.846   9.849 -0.9900  1.2140 -1.4638
  709MOL0     H95659   6.510   9.861   9.741 -0.1564 -0.9238  0.9368
  709MOL0     H95660   6.370   9.884   9.551  1.0822 -2.8541  0.6339
  709MOL0     H95661   6.226   9.866   9.652  0.4696  1.7283  1.6066
  709MOL0     H95662   6.325  10.105   9.578 -1.2141  0.8792 -0.0458
  709MOL0     H95663   6.423  10.085   9.725  0.7141 -1.3217  0.8512
  709MOL0     H95664   6.113  10.093   9.728 -0.2710  0.8349  1.4885
  709MOL0     H95665   6.206  10.011   9.848 -1.8574  2.3283  2.7392
  709MOL0     H95666   6.151  10.367   9.728  2.3484  0.1994 -2.1031
  709MOL0     H95667   6.121  10.575   9.929  0.1924 -1.4808 -0.6111
  709MOL0     H95668   6.271  10.573  10.038  0.0262  0.9312 -0.8135
  709MOL0     H95669   6.399  10.681   9.876 -0.6357  2.1266  0.2634
  709MOL0     H95670   6.320  10.612   9.751  0.6810  0.7427 -0.8106
  709MOL0     H95671   6.279  10.879   9.764 -1.9951  4.9887  2.3065
  709MOL0     H95672   6.215  10.864   9.908  2.3153  2.2187 -2.4416
  709MOL0     H95673   6.030  10.754   9.817  0.7816 -1.1244 -0.3738
  709MOL0     H95674   6.109  10.723   9.661  2.1772  1.7162 -0.5736
  709MOL0     H95675   6.105  11.134   9.825  0.1204 -0.6214  1.4891
  709MOL0     H95676   5.953  11.286   9.929 -2.3067  1.1070  0.8584
  709MOL0     H95677   5.519  11.309  10.191 -4.2632  1.5322  2.5377
  709MOL0     H95678   5.415  11.492  10.354  0.0092  1.6623  0.3932
  709MOL0     H95679   5.516  11.707  10.517  1.0146  1.2133  1.4798
  709MOL0     H95680   5.639  11.769  10.414 -0.1182  0.1571  0.1176
  709MOL0     H95681   5.496  11.997  10.405  3.7988 -1.3503 -1.5769
  709MOL0     H95682   5.384  11.916  10.516  0.1571 -2.1221 -2.0631
  709MOL0     H95683   5.513  12.054  10.675  0.3967  2.6636 -1.7545
  709MOL0     H95684   5.609  11.915  10.671 -1.8740 -1.3329  0.3728
  709MOL0     H95685   5.678  12.158  10.480  3.3152 -0.2433 -2.0049
  709MOL0     H95686   5.755  11.996  10.484  0.0548 -0.0817  0.2711
  709MOL0     H95687   5.872  12.163  10.612 -0.4335 -2.4754 -2.9455
  709MOL0     H95688   5.792  12.054  10.739  0.8026  2.0542  1.2369
  709MOL0     H95689   5.715  12.321  10.635  4.2261 -1.5556 -1.6852
  709MOL0     H95690   5.605  12.227  10.736  0.5378  1.6988  2.3965
  709MOL0     H95691   5.728  12.409  10.859  0.4767  0.7754 -0.7242
  709MOL0     H95692   5.882  12.333  10.806 -0.1914 -0.6819 -1.5390
  709MOL0     H95693   5.684  12.234  11.017  0.4138 -1.3879  1.6542
  709MOL0     H95694   5.792  12.128  10.941  3.5721 -0.0212 -0.2751
  709MOL0     H95695   5.601  11.787  10.118  2.6780 -0.0232 -0.0066
  709MOL0     H95696   5.715  11.625   9.972  0.2898  0.1886 -0.7599
  709MOL0     H95697   5.630  11.008   9.816 -0.1275  1.7354  0.4982
  709MOL0     H95698   5.792  10.867   9.703  0.2110 -1.8158  3.2664
  709MOL0     H95699   6.780   9.438  10.195  0.6366 -1.7096  2.1121
  709MOL0     H95700   6.987   9.350  10.285 -1.8797  1.6961  0.5463
  709MOL0     H95701   7.173   8.939  10.438 -1.1869  0.7306 -1.2787
  709MOL0     H95702   7.356   8.790  10.519 -1.3227  1.2810  2.5689
  709MOL0     H95703   7.539   8.624  10.445 -1.7996  2.8042 -1.3209
  709MOL0     H95704   7.592   8.682  10.599 -3.8701  1.4319 -1.7554
  709MOL0     H95705   7.770   8.569  10.362 -2.3154  0.9232 -0.8753
  709MOL0     H95706   7.741   8.513  10.529 -1.3511 -0.4706 -0.3940
  709MOL0     H95707   7.870   8.722  10.614 -1.1827  2.1066 -1.0714
  709MOL0     H95708   7.882   8.781  10.457 -1.7658 -0.5629  0.5330
  709MOL0     H95709   8.044   8.610  10.399  0.1263  3.6145 -0.8341
  709MOL0     H95710   8.084   8.672  10.564  1.2816  0.2715 -1.7506
  709MOL0     H95711   7.987   8.285  10.678  2.4611 -0.5588 -0.6538
  709MOL0     H95712   7.630   8.984  10.279  1.0676  2.4698  3.0983
  709MOL0     H95713   7.533   9.221  10.164  1.6183 -2.3143  2.7481
  709MOL0     H95714   7.540   9.067  10.070  1.2919 -3.8235  3.5350
  709MOL0     H95715   7.403   9.177  10.052  1.7433  3.2893  0.8163
  710MOL0     O95716   7.342   4.575   6.452 -0.4529  1.0980 -0.4003
  710MOL0     C95717   7.352   4.691   6.436  0.6283  0.5100  0.3022
  710MOL0     O95718   7.419   4.741   6.336 -0.3354  0.9284 -0.0823
  710MOL0     C95719   7.481   4.653   6.248 -1.2511  0.7041 -0.0726
  710MOL0     C95720   7.469   4.679   6.115 -0.5602  0.6288  0.0833
  710MOL0     C95721   7.533   4.613   6.014 -0.8760 -0.3935  0.0443
  710MOL0     C95722   7.622   4.514   6.047 -0.1799 -0.1327 -0.0540
  710MOL0     O95723   7.702   4.449   5.948 -0.1475 -0.0085 -0.0322
  710MOL0     C95724   7.831   4.398   5.991  0.0277 -0.0016  0.2336
  710MOL0     C95725   7.922   4.370   5.874 -0.3769  0.3188  0.1356
  710MOL0     C95726   8.065   4.339   5.915  0.1155 -0.7605 -0.8793
  710MOL0     C95727   8.149   4.285   5.799 -0.1775  0.2851  0.4401
  710MOL0     C95728   8.094   4.151   5.741  1.2463  0.8649  0.8379
  710MOL0     C95729   8.083   4.040   5.842 -0.2073 -0.1410  0.1945
  710MOL0     C95730   8.070   3.905   5.777 -0.0024  0.6842 -0.5173
  710MOL0     C95731   7.928   3.873   5.729 -1.4658 -0.2151 -0.6114
  710MOL0     N95732   7.834   3.837   5.835  0.4539  0.1935  0.1852
  710MOL0     C95733   7.779   3.919   5.940  0.2427  0.4644  0.6140
  710MOL0     C95734   7.686   3.845   5.999 -0.6246  0.3324  0.6021
  710MOL0     C95735   7.604   3.887   6.118 -0.5491  0.3804  0.6015
  710MOL0     C95736   7.637   3.821   6.256 -0.2176 -0.6651 -0.2891
  710MOL0     C95737   7.577   3.899   6.371  0.2970  0.5657 -0.0289
  710MOL0     C95738   7.585   3.817   6.501 -0.8995  0.1778  0.5998
  710MOL0     O95739   7.714   3.756   6.508 -0.2668 -0.4589 -0.4772
  710MOL0     C95740   7.795   3.767   6.619 -0.6248 -0.5393  0.1281
  710MOL0     C95741   7.773   3.807   6.754  0.8864  0.0345 -0.0994
  710MOL0     C95742   7.884   3.827   6.836  0.8579  0.3308  0.2114
  710MOL0     C95743   8.012   3.798   6.796 -0.9195  0.1308  0.4536
  710MOL0     C95744   8.121   3.839   6.883  0.0974  0.7300 -0.0675
  710MOL0     O95745   8.092   3.898   7.004 -0.0391  0.1160  0.1997
  710MOL0     C95746   8.191   3.942   7.090  0.3403 -0.6212  0.1465
  710MOL0     C95747   8.132   4.003   7.202 -0.3466 -0.4141 -0.7923
  710MOL0     C95748   8.213   4.074   7.296 -0.6245  0.1660  0.4167
  710MOL0     C95749   8.351   4.087   7.278  0.5824 -0.1042  0.1068
  710MOL0     O95750   8.417   4.159   7.369  0.5100 -0.2725  0.2394
  710MOL0     C95751   8.557   4.146   7.376 -0.2519 -0.1903  0.5325
  710MOL0     C95752   8.602   4.197   7.512  0.5582 -0.6403  0.2052
  710MOL0     C95753   8.584   4.075   7.598  0.4806 -0.4996  0.1845
  710MOL0     C95754   8.647   4.099   7.735  1.0119 -0.0642 -0.3378
  710MOL0     C95755   8.663   3.965   7.810  0.5278 -0.1899 -0.5501
  710MOL0     C95756   8.719   3.992   7.960  0.5942 -0.0542  0.9780
  710MOL0     C95757   8.691   3.872   8.040  0.0346 -0.5466 -1.0053
  710MOL0     C95758   8.718   3.915   8.180 -0.3656  0.3159 -1.0802
  710MOL0    Cl95759   8.660   3.781   8.292 -0.2271 -0.0749  0.0093
  710MOL0     C95760   8.407   4.025   7.162 -0.7424 -0.3254  0.3042
  710MOL0     C95761   8.330   3.946   7.074 -0.5482  0.6655  0.3467
  710MOL0     O95762   8.238   3.801   6.848  0.1950  0.8011  0.5405
  710MOL0     C95763   8.038   3.744   6.666  0.1416 -0.0074 -0.2265
  710MOL0     C95764   7.929   3.729   6.586 -0.2032 -0.3018 -0.1446
  710MOL0     N95765   7.683   3.719   5.938  0.4343 -0.1899 -0.3077
  710MOL0     N95766   7.776   3.714   5.854  0.9005 -0.3630  0.6168
  710MOL0     C95767   7.647   4.491   6.187  1.1661  0.7185 -0.0838
  710MOL0     C95768   7.574   4.559   6.283  0.3540  0.4125  0.3999
  710MOL0     C95769   7.278   4.783   6.528 -0.4192 -0.5303 -1.0993
  710MOL0     C95770   7.288   4.918   6.508 -0.0005 -0.9948 -1.3539
  710MOL0     C95771   7.219   5.008   6.586 -1.2074 -0.4213  1.7739
  710MOL0     C95772   7.135   4.977   6.688  0.3006 -0.3281  0.7167
  710MOL0     O95773   7.065   5.087   6.751  0.0200 -0.0811 -0.0220
  710MOL0     C95774   6.966   5.061   6.855  0.8361  0.2496  0.9059
  710MOL0     C95775   6.906   5.193   6.907 -0.4316 -0.0636 -0.5951
  710MOL0     C95776   7.017   5.278   6.954 -0.3660  0.7794 -0.1448
  710MOL0     C95777   6.986   5.412   7.007 -0.1623  0.1564  0.9630
  710MOL0     C95778   6.912   5.416   7.132  0.7545 -0.0893 -0.1287
  710MOL0     C95779   6.838   5.420   7.227  0.8808 -0.5465 -1.0015
  710MOL0     C95780   7.119   4.840   6.710 -0.4787 -0.0945 -0.1135
  710MOL0     C95781   7.203   4.748   6.638 -0.0802  1.2010  1.2745
  710MOL0     C95782   7.199   4.612   6.688 -0.2563 -0.1971  0.2637
  710MOL0     H95783   7.406   4.763   6.087 -0.4157  1.8051  2.8990
  710MOL0     H95784   7.531   4.645   5.911 -0.5434 -1.6514 -0.3674
  710MOL0     H95785   7.878   4.478   6.049  1.0682 -1.1695  1.0748
  710MOL0     H95786   7.820   4.307   6.051  2.3054 -0.6080 -0.1654
  710MOL0     H95787   7.924   4.443   5.793 -0.9173 -0.5096 -0.6434
  710MOL0     H95788   7.870   4.287   5.825 -0.6444 -1.3071  2.9547
  710MOL0     H95789   8.078   4.272   6.001  2.8601  2.0519  1.1464
  710MOL0     H95790   8.108   4.431   5.956 -0.9078  0.8156 -3.1607
  710MOL0     H95791   8.153   4.360   5.720 -0.7205  0.5755  0.6831
  710MOL0     H95792   8.255   4.270   5.823  0.0948 -1.5807 -1.6327
  710MOL0     H95793   7.995   4.161   5.695  2.1067  0.2533 -1.3017
  710MOL0     H95794   8.172   4.127   5.667  1.7233 -1.3063  1.9426
  710MOL0     H95795   8.172   4.048   5.904 -1.4799 -0.9948  2.2523
  710MOL0     H95796   7.994   4.076   5.895 -0.6827  0.6555 -1.1079
  710MOL0     H95797   8.091   3.821   5.844 -1.5864 -0.0024 -0.8342
  710MOL0     H95798   8.150   3.896   5.703  0.2086 -1.0644 -0.1337
  710MOL0     H95799   7.887   3.963   5.682  0.8472  3.0535  3.0692
  710MOL0     H95800   7.936   3.790   5.657  0.1842  0.5180 -1.3376
  710MOL0     H95801   7.824   4.014   5.968  0.0011  0.6745  0.2919
  710MOL0     H95802   7.629   3.994   6.122 -0.1763  0.3696 -0.8689
  710MOL0     H95803   7.497   3.883   6.095 -1.2236  0.2109  3.3859
  710MOL0     H95804   7.608   3.716   6.260  0.1465 -0.7742 -0.5098
  710MOL0     H95805   7.744   3.841   6.257  0.1676 -2.4898  1.9263
  710MOL0     H95806   7.472   3.928   6.369 -0.3739 -1.7638 -0.9515
  710MOL0     H95807   7.639   3.989   6.386 -3.3814  3.2937  0.0865
  710MOL0     H95808   7.507   3.741   6.508  0.5107 -1.2914  1.1750
  710MOL0     H95809   7.581   3.894   6.578 -2.0486 -0.0040  0.7385
  710MOL0     H95810   7.671   3.817   6.790 -0.3889 -0.0443 -3.3087
  710MOL0     H95811   7.869   3.871   6.934  3.0731 -1.4125  1.4520
  710MOL0     H95812   8.025   4.007   7.220 -0.8512  2.2826 -3.4860
  710MOL0     H95813   8.166   4.126   7.379  2.0074  0.6818  1.6638
  710MOL0     H95814   8.578   4.041   7.352  0.3570  0.4262 -1.9242
  710MOL0     H95815   8.607   4.212   7.304  3.5650  0.0358  3.0883
  710MOL0     H95816   8.709   4.221   7.515  1.2256 -3.0954 -1.0964
  710MOL0     H95817   8.555   4.287   7.553  1.5628 -0.8674  2.0004
  710MOL0     H95818   8.481   4.037   7.604 -0.6563  2.4370  1.3838
  710MOL0     H95819   8.630   3.986   7.555  0.7108 -0.0735 -0.4594
  710MOL0     H95820   8.583   4.156   7.803  2.2357  0.8370  0.1018
  710MOL0     H95821   8.743   4.151   7.727  1.3960 -0.9650 -1.9835
  710MOL0     H95822   8.736   3.898   7.763  0.7086  0.3232 -1.0198
  710MOL0     H95823   8.573   3.905   7.826  1.1744 -0.9667  0.2501
  710MOL0     H95824   8.824   4.021   7.959  0.3848  0.7911 -1.5726
  710MOL0     H95825   8.664   4.079   7.998  1.3953  0.7425  0.3525
  710MOL0     H95826   8.751   3.783   8.019  2.4749  0.8954 -0.4692
  710MOL0     H95827   8.585   3.849   8.026  0.2435 -3.1275  0.7985
  710MOL0     H95828   8.825   3.928   8.196 -0.5385 -0.7372  1.4339
  710MOL0     H95829   8.650   3.994   8.213 -1.9289 -1.4384  0.1184
  710MOL0     H95830   8.509   4.020   7.126 -0.6077 -1.4961  0.8120
  710MOL0     H95831   8.380   3.909   6.986 -1.1001 -2.4487  1.2299
  710MOL0     H95832   8.140   3.721   6.634  1.2767  0.5191  2.7117
  710MOL0     H95833   7.947   3.692   6.485 -0.5930 -2.5610  0.5495
  710MOL0     H95834   7.720   4.428   6.237 -1.9742 -0.4339  3.4969
  710MOL0     H95835   7.589   4.553   6.390  1.0885  1.4076  0.3684
  710MOL0     H95836   7.357   4.951   6.432  1.6198 -1.7040 -0.2477
  710MOL0     H95837   7.229   5.113   6.561 -0.9066  0.3625  4.8121
  710MOL0     H95838   7.017   4.999   6.930 -0.5394 -1.4265  0.5281
  710MOL0     H95839   6.882   5.013   6.803  1.0235  1.1133 -0.2187
  710MOL0     H95840   6.835   5.184   6.989 -1.6101 -0.0633 -1.5934
  710MOL0     H95841   6.859   5.245   6.823  0.1104 -1.0352 -1.5306
  710MOL0     H95842   7.069   5.292   6.859 -0.1915  1.6686  0.0670
  710MOL0     H95843   7.084   5.224   7.021 -3.2007 -2.3331  0.4239
  710MOL0     H95844   7.078   5.471   7.013 -0.3244  0.6528 -0.7389
  710MOL0     H95845   6.929   5.468   6.931 -1.0579  0.3839  1.7794
  710MOL0     H95846   6.771   5.426   7.310 -0.3016  0.8499 -2.0034
  710MOL0     H95847   7.053   4.794   6.782 -0.1861 -0.7126 -0.2271
  710MOL0     H95848   7.162   4.601   6.791  0.2050 -0.2426  0.4302
  710MOL0     H95849   7.113   4.575   6.632 -0.0637 -0.5592  0.2082
  710MOL0     H95850   7.294   4.558   6.690  1.3706  2.5036  1.0746
  711MOL0     O95851   6.419   4.983   2.211  0.0766 -0.5670 -0.2331
  711MOL0     C95852   6.305   5.032   2.217 -0.2252  0.1568  0.4278
  711MOL0     O95853   6.241   5.093   2.111 -0.6466  1.1280  0.3248
  711MOL0     C95854   6.316   5.089   1.997  0.1497 -0.1014 -0.0090
  711MOL0     C95855   6.362   5.211   1.946  0.1576 -0.0708  0.4543
  711MOL0     C95856   6.455   5.220   1.840  0.4192 -0.1882  0.4928
  711MOL0     C95857   6.489   5.101   1.776  0.8451 -0.1839  0.4828
  711MOL0     O95858   6.578   5.122   1.667  0.7923 -0.1780 -0.4053
  711MOL0     C95859   6.641   5.005   1.618 -0.2597  0.3229  0.1574
  711MOL0     C95860   6.775   5.042   1.557 -0.3451  0.7121  0.2155
  711MOL0     C95861   6.830   4.933   1.473 -0.2872  0.1717 -0.7390
  711MOL0     C95862   6.966   4.988   1.426 -0.6900 -0.0179  0.1330
  711MOL0     C95863   7.013   4.911   1.303 -0.2520 -0.9239  0.2916
  711MOL0     C95864   6.976   4.970   1.170 -0.2162 -0.0092  0.3940
  711MOL0     C95865   6.977   4.853   1.067  0.5733 -0.7821  0.2381
  711MOL0     C95866   6.884   4.903   0.954 -0.7924  1.1512 -0.6672
  711MOL0     N95867   6.869   4.787   0.866 -0.0143  0.2925  0.0168
  711MOL0     C95868   6.812   4.667   0.903  0.3235  0.3209  0.6405
  711MOL0     C95869   6.812   4.591   0.793 -0.5456  0.4040 -0.0574
  711MOL0     C95870   6.762   4.444   0.792  0.3332  0.0549 -0.6055
  711MOL0     C95871   6.652   4.429   0.678 -0.6569  0.0919 -0.1897
  711MOL0     C95872   6.564   4.306   0.718 -0.4089  0.0999  0.4036
  711MOL0     C95873   6.622   4.173   0.664  0.3235 -0.2960  0.5663
  711MOL0     O95874   6.598   4.174   0.523 -0.1212  0.1147  0.2126
  711MOL0     C95875   6.643   4.066   0.457  0.0034 -0.1962 -0.0542
  711MOL0     C95876   6.663   4.093   0.319 -0.0389  0.7554 -0.1833
  711MOL0     C95877   6.692   3.977   0.235  0.5201 -0.8618  0.9175
  711MOL0     C95878   6.708   3.843   0.287  0.2649 -1.0741  0.1351
  711MOL0     C95879   6.717   3.723   0.202 -0.7105 -0.2855  0.0614
  711MOL0     O95880   6.748   3.744   0.069  0.0517 -0.5310 -0.1796
  711MOL0     C95881   6.763   3.630  -0.004 -1.3189  1.0663 -0.9700
  711MOL0     C95882   6.682   3.603  -0.111  0.6818  0.2100  2.1723
  711MOL0     C95883   6.677   3.479  -0.167  0.2836  0.2928 -0.3567
  711MOL0     C95884   6.773   3.380  -0.131  0.3019 -0.7406  0.5462
  711MOL0     O95885   6.778   3.252  -0.187 -0.2055 -0.2393 -0.8373
  711MOL0     C95886   6.662   3.198  -0.242 -1.1318  0.0174  0.5314
  711MOL0     C95887   6.687   3.048  -0.259  0.0875 -0.0727  0.1854
  711MOL0     C95888   6.596   2.991  -0.364  0.5183 -0.6161 -0.6008
  711MOL0     C95889   6.452   2.961  -0.321 -0.2049 -0.9217 -0.2575
  711MOL0     C95890   6.459   2.848  -0.220 -0.1091 -0.4801 -0.6378
  711MOL0     C95891   6.314   2.806  -0.177 -0.7633 -0.1092  0.3031
  711MOL0     C95892   6.255   2.700  -0.271 -0.1448  0.4332 -0.1326
  711MOL0     C95893   6.099   2.681  -0.252  0.2469 -0.5497  0.4217
  711MOL0    Cl95894   6.068   2.654  -0.085 -0.4256  0.3723 -0.3036
  711MOL0     C95895   6.881   3.416  -0.045  0.0464  0.0971  0.3007
  711MOL0     C95896   6.866   3.534   0.022  0.5493  0.1245 -0.5984
  711MOL0     O95897   6.712   3.616   0.256  0.0329  0.3437 -0.6007
  711MOL0     C95898   6.711   3.831   0.428 -0.4709  0.1954  0.2483
  711MOL0     C95899   6.683   3.940   0.510 -0.0287  0.0034 -0.9154
  711MOL0     N95900   6.861   4.668   0.691 -0.5722 -0.9007  0.4192
  711MOL0     N95901   6.904   4.782   0.734  0.0715 -0.5167 -0.7867
  711MOL0     C95902   6.434   4.981   1.813 -0.1582  0.3194 -0.5399
  711MOL0     C95903   6.346   4.971   1.921  0.4060  0.1985 -0.2628
  711MOL0     C95904   6.234   5.050   2.340  0.9491  0.4474 -0.8643
  711MOL0     C95905   6.113   5.119   2.334  0.2738  1.0765  0.9943
  711MOL0     C95906   6.026   5.139   2.438 -0.0431  0.0334 -0.5507
  711MOL0     C95907   6.074   5.103   2.574 -0.1724 -0.4922  0.1929
  711MOL0     O95908   5.999   5.137   2.686  0.1692  0.3036 -0.4451
  711MOL0     C95909   6.065   5.201   2.794  1.2175  0.0268  0.1527
  711MOL0     C95910   6.159   5.306   2.749  0.2059  0.7728 -0.2518
  711MOL0     C95911   6.205   5.386   2.872  1.1871  0.2686  1.0953
  711MOL0     C95912   6.318   5.484   2.828  0.0794  0.4203  0.3493
  711MOL0     C95913   6.426   5.481   2.931 -0.9304  0.0091  0.1643
  711MOL0     C95914   6.497   5.448   3.028 -0.1338 -0.2036  0.6999
  711MOL0     C95915   6.189   5.018   2.581 -0.2185 -0.1195 -0.3517
  711MOL0     C95916   6.264   4.979   2.466  0.3467  0.2457  0.1777
  711MOL0     C95917   6.400   4.901   2.478 -0.4043 -0.7418  0.1554
  711MOL0     H95918   6.327   5.305   1.987 -0.4476 -0.4757  0.8946
  711MOL0     H95919   6.496   5.310   1.796  0.6370  0.5882  2.1916
  711MOL0     H95920   6.645   4.927   1.695 -0.9332  1.2281  1.1334
  711MOL0     H95921   6.575   4.967   1.539  1.4034 -2.3588 -0.0692
  711MOL0     H95922   6.850   5.052   1.636 -0.2645  0.7665  0.1325
  711MOL0     H95923   6.754   5.134   1.502 -4.1083  0.8856  1.6607
  711MOL0     H95924   6.771   4.901   1.386 -0.8314  2.6007 -1.3419
  711MOL0     H95925   6.847   4.848   1.540 -1.2157  0.9863  0.5685
  711MOL0     H95926   6.945   5.091   1.393 -0.5664 -0.2785 -0.7678
  711MOL0     H95927   7.036   4.978   1.509 -2.7484  1.6828  2.2075
  711MOL0     H95928   7.120   4.895   1.319 -0.1661 -1.6782 -0.8949
  711MOL0     H95929   6.971   4.810   1.308 -2.0400 -0.2498 -0.0629
  711MOL0     H95930   6.875   5.010   1.179 -0.0972  0.5367 -0.5564
  711MOL0     H95931   7.043   5.052   1.144  2.1446 -1.5741  1.2525
  711MOL0     H95932   6.949   4.758   1.114  0.2725 -0.8551 -0.0863
  711MOL0     H95933   7.077   4.845   1.023  0.0765  2.2330 -1.7210
  711MOL0     H95934   6.794   4.951   0.995 -1.3092 -0.9421  0.8559
  711MOL0     H95935   6.932   4.984   0.899 -1.0222 -0.1615 -2.9223
  711MOL0     H95936   6.789   4.636   1.004 -0.4333  1.2528  0.7689
  711MOL0     H95937   6.848   4.380   0.771 -0.8406 -2.4705  1.7450
  711MOL0     H95938   6.724   4.415   0.890 -2.7685  2.5837 -0.8823
  711MOL0     H95939   6.592   4.520   0.684 -0.4868  0.1060  3.5213
  711MOL0     H95940   6.706   4.428   0.583  1.4320  1.3749  0.9038
  711MOL0     H95941   6.462   4.314   0.680 -0.2076  0.4738 -0.0703
  711MOL0     H95942   6.556   4.298   0.827 -2.9991 -1.4275  0.1631
  711MOL0     H95943   6.563   4.087   0.697  0.2648 -0.9325 -1.0999
  711MOL0     H95944   6.730   4.160   0.672  0.8143  0.8532 -2.7804
  711MOL0     H95945   6.635   4.178   0.259 -0.9724  0.8801  0.4169
  711MOL0     H95946   6.702   3.984   0.127  2.3322  0.7102  1.1423
  711MOL0     H95947   6.610   3.671  -0.155  0.9592 -0.5359  0.5031
  711MOL0     H95948   6.613   3.461  -0.252  0.1394  2.2216 -0.6912
  711MOL0     H95949   6.591   3.210  -0.159  1.0539  1.0751  2.3925
  711MOL0     H95950   6.630   3.245  -0.335  2.8613  0.1042 -1.0255
  711MOL0     H95951   6.793   3.042  -0.286 -0.2705 -0.6192 -1.1939
  711MOL0     H95952   6.681   2.993  -0.165  0.7479 -3.4247 -1.5925
  711MOL0     H95953   6.586   3.061  -0.447 -2.5157  0.1397  0.2843
  711MOL0     H95954   6.626   2.893  -0.403  2.0418 -0.7478  0.7769
  711MOL0     H95955   6.402   2.934  -0.414  2.7273 -3.0347 -1.3635
  711MOL0     H95956   6.404   3.052  -0.284 -0.0452 -1.2604  0.8212
  711MOL0     H95957   6.515   2.885  -0.134  2.6168  0.7735 -2.7972
  711MOL0     H95958   6.508   2.754  -0.247 -0.2982 -1.0510  0.8719
  711MOL0     H95959   6.317   2.766  -0.075  2.2515  1.2383  0.8543
  711MOL0     H95960   6.247   2.892  -0.177  2.2637  2.5057  2.5493
  711MOL0     H95961   6.320   2.613  -0.255  1.4376  1.1669 -2.0946
  711MOL0     H95962   6.267   2.725  -0.377  1.5345 -1.8751 -0.5848
  711MOL0     H95963   6.033   2.757  -0.295  3.1405  1.8729 -0.0985
  711MOL0     H95964   6.068   2.596  -0.313 -2.1464 -0.7454  1.7862
  711MOL0     H95965   6.967   3.352  -0.028  0.4880  0.5169 -0.2950
  711MOL0     H95966   6.933   3.575   0.096 -3.3067 -0.7160  3.7893
  711MOL0     H95967   6.737   3.734   0.467 -0.5487  0.3047  0.5736
  711MOL0     H95968   6.691   3.921   0.617 -0.0618 -1.3124 -1.1272
  711MOL0     H95969   6.466   4.892   1.758 -0.9179  0.0735 -0.5941
  711MOL0     H95970   6.324   4.871   1.959 -1.4770  0.8403  0.4069
  711MOL0     H95971   6.059   5.153   2.247 -1.1109 -0.4264  1.2334
  711MOL0     H95972   5.926   5.181   2.433 -0.0384  0.0629 -0.4054
  711MOL0     H95973   6.116   5.120   2.847  3.6782  0.9299 -0.7095
  711MOL0     H95974   5.992   5.243   2.864 -1.0665 -2.4268 -0.6105
  711MOL0     H95975   6.101   5.370   2.682  0.5499 -1.2581 -2.6625
  711MOL0     H95976   6.242   5.255   2.700  0.6797  0.0616  1.2394
  711MOL0     H95977   6.240   5.313   2.945  0.2031 -0.6047  0.7185
  711MOL0     H95978   6.120   5.440   2.914  1.0637  0.1051  1.0544
  711MOL0     H95979   6.357   5.470   2.727 -0.0077  0.1544  0.3523
  711MOL0     H95980   6.272   5.583   2.834  0.4261  0.7188 -1.4308
  711MOL0     H95981   6.545   5.422   3.120  2.0164  3.5211  0.8709
  711MOL0     H95982   6.223   4.993   2.681 -1.5332 -0.2368  0.0737
  711MOL0     H95983   6.400   4.807   2.422  3.6624 -1.6175  1.2485
  711MOL0     H95984   6.486   4.964   2.454 -1.1625 -0.0111 -0.6734
  711MOL0     H95985   6.407   4.876   2.584  3.1944 -0.8875  0.0101
  712MOL0     O95986   3.653   1.033   7.389 -0.7496  0.1193 -0.0241
  712MOL0     C95987   3.729   0.944   7.409 -0.9261 -0.1135 -0.4120
  712MOL0     O95988   3.864   0.948   7.401 -0.3848  0.0397 -0.2392
  712MOL0     C95989   3.928   1.068   7.430 -0.5850  0.2570  0.3100
  712MOL0     C95990   3.876   1.161   7.504 -0.1324 -0.6167  0.6420
  712MOL0     C95991   3.937   1.280   7.532  0.1171 -0.3947 -0.9062
  712MOL0     C95992   4.068   1.307   7.480  0.5707 -0.4296  0.4528
  712MOL0     O95993   4.149   1.407   7.501  0.1870 -0.8483  0.1186
  712MOL0     C95994   4.086   1.525   7.532  0.2273 -0.7131 -0.2160
  712MOL0     C95995   4.004   1.591   7.417 -0.1008  0.1122 -0.0283
  712MOL0     C95996   4.092   1.616   7.296 -0.3841 -0.1626  0.1936
  712MOL0     C95997   4.197   1.720   7.336  0.0910  0.3491  0.0382
  712MOL0     C95998   4.279   1.770   7.209  0.8135  0.5185  0.0110
  712MOL0     C95999   4.338   1.670   7.116  0.4409 -0.2495 -0.5579
  712MOL0     C96000   4.438   1.725   7.015 -0.1981  0.2532  0.3045
  712MOL0     C96001   4.399   1.855   6.944  0.1241  0.3006 -0.7383
  712MOL0     N96002   4.420   1.983   7.011 -1.0154  0.0336 -0.2715
  712MOL0     C96003   4.337   2.095   7.003  0.3150 -0.4854 -0.4943
  712MOL0     C96004   4.407   2.204   7.053  0.0903  0.4091  0.1534
  712MOL0     C96005   4.368   2.343   7.046  0.0898  0.0832  0.9271
  712MOL0     C96006   4.332   2.412   7.176 -0.3149 -0.2897  0.1156
  712MOL0     C96007   4.455   2.413   7.258 -0.5855  1.1354 -0.0845
  712MOL0     C96008   4.492   2.560   7.315  0.4025 -0.5253 -0.7616
  712MOL0     O96009   4.507   2.651   7.202  0.5541 -0.2261 -0.0975
  712MOL0     C96010   4.486   2.784   7.225  0.3087  1.1649  0.3744
  712MOL0     C96011   4.600   2.872   7.215 -0.6211 -0.2312  0.8586
  712MOL0     C96012   4.585   3.012   7.217  0.2230  0.4075 -0.5020
  712MOL0     C96013   4.459   3.073   7.238  0.5017  0.2630  0.4361
  712MOL0     C96014   4.434   3.215   7.247 -0.3965  0.5453 -0.5130
  712MOL0     O96015   4.301   3.244   7.234 -0.4049 -0.5356 -0.2759
  712MOL0     C96016   4.278   3.376   7.230 -0.7862  0.7081 -0.4157
  712MOL0     C96017   4.209   3.426   7.335 -0.4219 -0.8186  0.1271
  712MOL0     C96018   4.169   3.562   7.341  0.2876  0.7847 -0.1028
  712MOL0     C96019   4.209   3.648   7.244 -0.8192 -1.0647  0.4562
  712MOL0     O96020   4.178   3.780   7.268 -0.5852  1.0484  0.7705
  712MOL0     C96021   4.215   3.877   7.170  0.0107  0.9354 -0.4188
  712MOL0     C96022   4.182   4.021   7.219 -0.5116  0.2624 -0.0331
  712MOL0     C96023   4.040   4.041   7.276 -0.4505 -0.3322 -0.7044
  712MOL0     C96024   4.025   4.183   7.334  0.8304 -0.6743  0.4668
  712MOL0     C96025   3.946   4.183   7.464 -0.3340  0.2276 -0.0532
  712MOL0     C96026   3.931   4.322   7.534 -0.0859  0.4983  0.5501
  712MOL0     C96027   3.920   4.303   7.689 -0.6378  0.3418 -0.0656
  712MOL0     C96028   3.893   4.430   7.765 -1.0241 -0.0164 -0.1728
  712MOL0    Cl96029   3.725   4.479   7.736 -0.0904  0.4648  0.0407
  712MOL0     C96030   4.276   3.591   7.128 -0.4470  0.3382  0.2488
  712MOL0     C96031   4.325   3.461   7.131  0.1592 -0.1749 -0.6086
  712MOL0     O96032   4.527   3.295   7.251 -0.1081  0.2142 -0.0470
  712MOL0     C96033   4.347   2.988   7.243  0.6065 -0.3621  0.5326
  712MOL0     C96034   4.363   2.840   7.233  0.1623 -0.3637 -0.4286
  712MOL0     N96035   4.529   2.155   7.079  0.2020  0.5520 -1.1177
  712MOL0     N96036   4.538   2.027   7.059  0.5535 -0.3360  0.2817
  712MOL0     C96037   4.124   1.211   7.406 -0.7155  0.4232  0.6775
  712MOL0     C96038   4.060   1.086   7.385 -0.0911  0.9082 -0.2369
  712MOL0     C96039   3.671   0.818   7.454  0.9058  0.5189  0.1623
  712MOL0     C96040   3.647   0.807   7.589 -0.7516  0.7045  0.2985
  712MOL0     C96041   3.577   0.710   7.642 -0.3786  0.6496  0.1801
  712MOL0     C96042   3.515   0.615   7.560 -0.3251  0.1530  0.3840
  712MOL0     O96043   3.419   0.517   7.602 -0.4197 -0.6507  0.4458
  712MOL0     C96044   3.292   0.541   7.544  1.1697 -1.1191 -0.1513
  712MOL0     C96045   3.185   0.468   7.611  0.3670 -0.3465 -0.8436
  712MOL0     C96046   3.172   0.507   7.764 -0.5465  0.3049 -1.3323
  712MOL0     C96047   3.097   0.642   7.774 -0.1965 -0.2550 -0.1163
  712MOL0     C96048   3.026   0.666   7.902 -0.7579 -0.8492  0.0777
  712MOL0     C96049   2.964   0.689   8.004 -0.7104  0.0748 -0.4746
  712MOL0     C96050   3.531   0.631   7.425  0.4640 -0.1922  0.9129
  712MOL0     C96051   3.617   0.722   7.370  0.9554 -0.3935 -0.4248
  712MOL0     C96052   3.614   0.747   7.222 -0.4131  0.1399  0.1252
  712MOL0     H96053   3.781   1.142   7.552 -0.6524 -0.7395 -0.4230
  712MOL0     H96054   3.883   1.356   7.587 -5.1005 -0.3576 -5.2648
  712MOL0     H96055   4.033   1.522   7.628  2.8608 -0.4578  1.3540
  712MOL0     H96056   4.167   1.595   7.555  1.0538 -1.9198  0.6646
  712MOL0     H96057   3.952   1.681   7.449 -1.8703 -0.1493 -1.9826
  712MOL0     H96058   3.926   1.518   7.392  0.2701 -0.2817 -0.0515
  712MOL0     H96059   4.036   1.663   7.215 -0.7243 -1.6332 -0.4504
  712MOL0     H96060   4.140   1.521   7.268  0.5216  0.9423 -2.3910
  712MOL0     H96061   4.147   1.805   7.383 -1.9024 -1.1967  0.8722
  712MOL0     H96062   4.278   1.675   7.395  0.6668 -0.7842 -1.5567
  712MOL0     H96063   4.220   1.829   7.138  1.5877 -0.7808 -1.7632
  712MOL0     H96064   4.349   1.843   7.249  1.1313  0.3432 -0.2236
  712MOL0     H96065   4.392   1.598   7.178 -0.7558 -0.5517  0.1798
  712MOL0     H96066   4.266   1.611   7.059  3.0591 -1.3830 -2.9291
  712MOL0     H96067   4.454   1.644   6.943 -0.5094 -1.6783  2.3034
  712MOL0     H96068   4.530   1.747   7.070  2.3239 -6.5495 -0.2927
  712MOL0     H96069   4.460   1.855   6.853 -0.0377 -2.3996 -0.9238
  712MOL0     H96070   4.295   1.844   6.914 -1.2820 -1.8475  3.9129
  712MOL0     H96071   4.241   2.097   6.952 -0.1037 -0.1395  0.2861
  712MOL0     H96072   4.442   2.409   7.001  0.2505  0.6540  1.9925
  712MOL0     H96073   4.280   2.348   6.981  0.5762  1.0096  0.3335
  712MOL0     H96074   4.293   2.508   7.142  1.3930 -0.6150 -3.2234
  712MOL0     H96075   4.256   2.367   7.240  1.3381 -3.4171  0.1081
  712MOL0     H96076   4.546   2.388   7.201  0.2849 -3.1652  2.7135
  712MOL0     H96077   4.444   2.336   7.334 -0.4616  1.2069  0.0064
  712MOL0     H96078   4.584   2.560   7.374  0.1436 -0.9476 -0.3523
  712MOL0     H96079   4.411   2.592   7.382  0.2737 -3.8270  0.8297
  712MOL0     H96080   4.695   2.826   7.189  0.1930  1.4522  0.6943
  712MOL0     H96081   4.674   3.073   7.206  1.0154 -0.2020  2.0251
  712MOL0     H96082   4.177   3.363   7.418 -0.5284 -0.8165  0.0887
  712MOL0     H96083   4.099   3.593   7.419  0.0116 -1.4158  0.6042
  712MOL0     H96084   4.324   3.867   7.165  0.1169 -0.2739  2.4842
  712MOL0     H96085   4.173   3.839   7.076  0.5176 -0.5490 -0.0763
  712MOL0     H96086   4.258   4.045   7.294 -0.7468 -1.5215  0.8325
  712MOL0     H96087   4.187   4.091   7.135 -0.5115 -0.8749 -1.0103
  712MOL0     H96088   3.970   4.022   7.194  1.0386 -2.9297 -1.4989
  712MOL0     H96089   4.026   3.980   7.366  2.4955 -0.0306  0.0594
  712MOL0     H96090   3.967   4.252   7.273  1.3103  0.8313  1.6499
  712MOL0     H96091   4.122   4.229   7.356  2.2038 -2.9459 -0.4292
  712MOL0     H96092   3.991   4.117   7.539 -2.8700  1.0566  2.3681
  712MOL0     H96093   3.844   4.149   7.443 -0.1403 -0.2107 -0.3046
  712MOL0     H96094   4.017   4.385   7.511  1.5543 -1.4584  1.0029
  712MOL0     H96095   3.841   4.360   7.485 -1.4688 -2.5835  0.4855
  712MOL0     H96096   4.021   4.276   7.722 -1.2986 -0.7151  1.1850
  712MOL0     H96097   3.848   4.224   7.711 -0.2575 -0.1579 -0.6102
  712MOL0     H96098   3.909   4.420   7.873  1.7756  3.2378 -0.1224
  712MOL0     H96099   3.966   4.503   7.728  1.3877 -3.3067 -2.4953
  712MOL0     H96100   4.308   3.653   7.044  2.5545 -2.1929 -0.6703
  712MOL0     H96101   4.384   3.419   7.050  4.1889  2.4670  0.6538
  712MOL0     H96102   4.240   3.004   7.254  0.0578 -3.0510 -0.0859
  712MOL0     H96103   4.270   2.786   7.244 -0.2059  0.2352 -0.5112
  712MOL0     H96104   4.214   1.233   7.351 -1.3106  0.2383 -0.4042
  712MOL0     H96105   4.119   1.009   7.336 -1.5867 -0.0467 -0.5690
  712MOL0     H96106   3.672   0.881   7.665 -0.0873 -1.2254  2.0749
  712MOL0     H96107   3.550   0.706   7.747 -4.2207 -0.1511 -0.6808
  712MOL0     H96108   3.296   0.509   7.440  0.2289  1.7120 -1.1514
  712MOL0     H96109   3.266   0.647   7.556  2.0858 -0.9889  0.8525
  712MOL0     H96110   3.204   0.361   7.626  2.1370  0.0946  0.3669
  712MOL0     H96111   3.087   0.485   7.566 -0.1660  1.5676  0.8913
  712MOL0     H96112   3.265   0.519   7.820 -1.3599  3.8421 -0.4608
  712MOL0     H96113   3.110   0.431   7.812  0.5491  1.5510  2.3345
  712MOL0     H96114   3.157   0.725   7.736 -1.8815  0.8869 -0.3796
  712MOL0     H96115   3.015   0.636   7.701 -1.6146  1.3370  1.2787
  712MOL0     H96116   2.899   0.717   8.085  1.7652  1.9761  0.9968
  712MOL0     H96117   3.471   0.573   7.355  0.6221  0.5704  0.1231
  712MOL0     H96118   3.538   0.684   7.174  1.5285 -0.8593 -1.8642
  712MOL0     H96119   3.589   0.851   7.198 -0.4262 -0.7123 -4.3536
  712MOL0     H96120   3.710   0.717   7.179 -1.0882 -4.3420  1.1657
  713MOL0     O96121   2.597   1.912   5.780 -0.2889 -0.3797 -0.1308
  713MOL0     C96122   2.701   1.974   5.759  0.7810 -0.3720 -0.1552
  713MOL0     O96123   2.706   2.109   5.721  0.3526 -0.9614  0.0014
  713MOL0     C96124   2.589   2.173   5.672  0.1333  0.2534 -0.1051
  713MOL0     C96125   2.594   2.255   5.556 -0.1658  0.3355  0.1661
  713MOL0     C96126   2.474   2.290   5.481  0.2920  0.2952 -0.7832
  713MOL0     C96127   2.351   2.260   5.537 -1.3879 -0.8835 -0.1384
  713MOL0     O96128   2.245   2.313   5.467 -0.3548 -0.1331  0.7831
  713MOL0     C96129   2.157   2.213   5.410  0.5326  0.1828  0.1054
  713MOL0     C96130   2.199   2.183   5.262 -0.1297 -1.0636 -1.0470
  713MOL0     C96131   2.125   2.294   5.176 -0.7759 -0.3854 -0.5575
  713MOL0     C96132   2.217   2.413   5.182 -0.7897 -0.0547  0.5895
  713MOL0     C96133   2.174   2.504   5.073 -0.0073  0.0474 -0.4307
  713MOL0     C96134   2.243   2.643   5.071  0.5768 -0.8509 -0.1180
  713MOL0     C96135   2.222   2.714   5.214  0.0842  0.3614  0.1404
  713MOL0     C96136   2.269   2.863   5.213  0.5692  0.8823 -1.2404
  713MOL0     N96137   2.209   2.950   5.310  0.3737  0.3137  0.0585
  713MOL0     C96138   2.129   2.925   5.421  1.1533 -0.7576  0.6199
  713MOL0     C96139   2.086   3.043   5.470  0.6830 -0.3778 -0.1325
  713MOL0     C96140   2.010   3.062   5.602  0.5936 -0.0634  0.2161
  713MOL0     C96141   1.878   3.000   5.632 -0.1033 -0.8787  0.8894
  713MOL0     C96142   1.805   3.047   5.752  0.4885 -0.1598 -0.5608
  713MOL0     C96143   1.854   2.992   5.894  0.5546 -0.5027  0.1539
  713MOL0     O96144   1.881   2.850   5.897 -0.0897 -0.0049 -0.1180
  713MOL0     C96145   1.921   2.813   6.021  0.1994  0.2608  1.0973
  713MOL0     C96146   2.050   2.745   6.031  0.8482  0.4994 -0.6798
  713MOL0     C96147   2.098   2.692   6.159  0.5208 -0.1489 -0.0399
  713MOL0     C96148   2.021   2.723   6.273  0.3176 -0.6906 -0.4349
  713MOL0     C96149   2.070   2.704   6.418  0.9876 -0.2680  0.7084
  713MOL0     O96150   2.203   2.701   6.438  0.3177 -0.2716  0.1696
  713MOL0     C96151   2.250   2.671   6.562 -0.1163  0.6059 -0.2221
  713MOL0     C96152   2.291   2.537   6.589  0.4216  0.2919  0.0185
  713MOL0     C96153   2.349   2.508   6.708  0.4866  0.0702 -0.0243
  713MOL0     C96154   2.368   2.607   6.816  0.6586  0.2417  0.0269
  713MOL0     O96155   2.415   2.584   6.940  0.6737  0.0206  0.2524
  713MOL0     C96156   2.540   2.521   6.937 -0.4492  1.0447 -0.3240
  713MOL0     C96157   2.626   2.610   7.029  0.4682  0.5353  0.5687
  713MOL0     C96158   2.772   2.550   7.045 -1.5166 -0.0376  0.9643
  713MOL0     C96159   2.849   2.591   7.177  0.5365 -0.7789  0.6357
  713MOL0     C96160   2.967   2.503   7.227 -0.3996 -0.1916 -0.1561
  713MOL0     C96161   3.104   2.522   7.163 -0.2015  0.5900 -0.4146
  713MOL0     C96162   3.225   2.467   7.233 -0.2619 -0.0482  0.2261
  713MOL0     C96163   3.281   2.546   7.357 -0.4191  0.4229  0.0304
  713MOL0    Cl96164   3.201   2.488   7.506  0.0137 -0.6365  0.3900
  713MOL0     C96165   2.328   2.741   6.782 -0.7177  1.3075 -1.0679
  713MOL0     C96166   2.259   2.766   6.662 -0.2415 -0.6571 -0.0013
  713MOL0     O96167   1.983   2.680   6.502 -0.0511  0.2523  0.3537
  713MOL0     C96168   1.896   2.792   6.259 -0.4731  0.0749  0.7793
  713MOL0     C96169   1.850   2.837   6.134 -0.6046 -0.4150 -0.8714
  713MOL0     N96170   2.143   3.134   5.385 -0.6276 -0.5994 -0.0488
  713MOL0     N96171   2.201   3.086   5.289  0.3708 -1.1904  0.6642
  713MOL0     C96172   2.348   2.198   5.659  0.9186  0.6036 -0.3404
  713MOL0     C96173   2.462   2.161   5.732  0.1545 -0.5113  0.4299
  713MOL0     C96174   2.839   1.909   5.776 -0.4207 -0.7389  0.1145
  713MOL0     C96175   2.947   1.995   5.790 -0.2947  0.4173  0.0513
  713MOL0     C96176   3.069   1.942   5.815  0.1518 -0.2146 -0.4993
  713MOL0     C96177   3.087   1.800   5.832 -0.5229  0.7417 -0.4696
  713MOL0     O96178   3.212   1.760   5.879  0.8030  1.4279 -0.0212
  713MOL0     C96179   3.239   1.612   5.893  0.0978  0.2313 -0.5166
  713MOL0     C96180   3.385   1.570   5.886 -0.3629 -0.0894 -0.2996
  713MOL0     C96181   3.495   1.645   5.972 -0.2328 -0.3949 -0.4078
  713MOL0     C96182   3.632   1.593   5.945 -0.5609 -0.2910  0.1314
  713MOL0     C96183   3.657   1.460   6.003  0.3502  0.5981  0.1182
  713MOL0     C96184   3.679   1.352   6.043 -0.1255 -0.1316  0.3019
  713MOL0     C96185   2.980   1.713   5.813  1.0762 -1.0901 -1.0948
  713MOL0     C96186   2.856   1.771   5.779 -0.4649  0.7477  0.3437
  713MOL0     C96187   2.751   1.663   5.745  0.2593  0.2922  1.1640
  713MOL0     H96188   2.689   2.268   5.505 -0.8561  0.7871 -1.0599
  713MOL0     H96189   2.482   2.354   5.394  0.0777 -1.7974 -2.4421
  713MOL0     H96190   2.161   2.117   5.463  1.2656 -0.1027 -0.4552
  713MOL0     H96191   2.053   2.246   5.415  0.0813 -1.3014  1.1697
  713MOL0     H96192   2.168   2.081   5.241  0.8182 -2.2836  2.6387
  713MOL0     H96193   2.307   2.198   5.256 -0.1821  1.3248  1.7031
  713MOL0     H96194   2.027   2.327   5.213  0.0163  0.9440  0.4247
  713MOL0     H96195   2.107   2.247   5.078  0.6171  1.1695 -1.6024
  713MOL0     H96196   2.207   2.460   5.281 -1.3857  0.0032  0.5019
  713MOL0     H96197   2.323   2.391   5.163 -0.2748  1.5851  1.3234
  713MOL0     H96198   2.192   2.455   4.976  1.5385  1.2252 -0.7866
  713MOL0     H96199   2.067   2.518   5.087  0.2061  2.9000 -0.9210
  713MOL0     H96200   2.351   2.640   5.053  0.9622  1.7191  1.1980
  713MOL0     H96201   2.197   2.701   4.991 -2.3685 -2.7205  0.0832
  713MOL0     H96202   2.269   2.651   5.290  3.5105  1.2427 -1.0909
  713MOL0     H96203   2.114   2.717   5.233  0.1404 -0.8105  0.7290
  713MOL0     H96204   2.378   2.869   5.213  0.7640 -1.6223  0.0920
  713MOL0     H96205   2.231   2.901   5.117  1.0290 -2.3770 -2.8467
  713MOL0     H96206   2.104   2.828   5.461 -0.2879 -0.4766  0.4277
  713MOL0     H96207   2.074   3.039   5.688 -1.1469  3.6513  2.7948
  713MOL0     H96208   2.006   3.171   5.608 -1.2916 -0.1061  0.3254
  713MOL0     H96209   1.826   3.016   5.537  0.2044 -1.5121  0.6104
  713MOL0     H96210   1.885   2.891   5.635 -0.0693 -0.8762  0.9185
  713MOL0     H96211   1.705   3.002   5.745 -0.2789  1.2785  0.6377
  713MOL0     H96212   1.775   3.152   5.747  0.7096 -0.1198 -1.1497
  713MOL0     H96213   1.773   2.999   5.967 -0.3511  2.3744 -0.9870
  713MOL0     H96214   1.943   3.048   5.925  0.6997 -1.6968  2.0207
  713MOL0     H96215   2.101   2.718   5.939 -2.7491  0.6883 -2.9048
  713MOL0     H96216   2.191   2.637   6.164  0.0151 -1.6197 -3.4598
  713MOL0     H96217   2.272   2.459   6.516  2.2125  0.7677 -1.0052
  713MOL0     H96218   2.363   2.406   6.740 -1.0132 -0.3501 -0.6353
  713MOL0     H96219   2.541   2.428   6.994  2.2162  0.3101 -1.3952
  713MOL0     H96220   2.600   2.506   6.847  3.1216  3.2968  1.4380
  713MOL0     H96221   2.617   2.711   6.989 -3.0552 -1.4951 -4.9673
  713MOL0     H96222   2.576   2.606   7.126  0.3891 -1.2638  0.4938
  713MOL0     H96223   2.757   2.441   7.051  1.2631 -0.4589  1.6017
  713MOL0     H96224   2.832   2.570   6.956 -3.8565 -4.7612 -2.0975
  713MOL0     H96225   2.771   2.595   7.254 -0.2641  0.5507 -0.2167
  713MOL0     H96226   2.878   2.696   7.173  3.1400 -1.3469  2.3561
  713MOL0     H96227   2.943   2.398   7.207  2.1161 -0.5706 -1.5281
  713MOL0     H96228   2.974   2.537   7.331  0.2928  0.7042 -0.4808
  713MOL0     H96229   3.099   2.476   7.064 -0.0655 -1.6807  0.5693
  713MOL0     H96230   3.136   2.626   7.155  2.4805  0.0366  1.6248
  713MOL0     H96231   3.306   2.454   7.161 -0.1373  1.0320  0.1448
  713MOL0     H96232   3.195   2.368   7.269 -2.0017 -0.0438 -1.0984
  713MOL0     H96233   3.380   2.504   7.376 -1.2026 -0.6787  1.9711
  713MOL0     H96234   3.276   2.654   7.343 -0.2332  0.1326 -2.9020
  713MOL0     H96235   2.324   2.819   6.858 -3.2335  3.1852 -2.9759
  713MOL0     H96236   2.206   2.856   6.636 -0.2127  0.1355  2.4509
  713MOL0     H96237   1.838   2.815   6.349 -2.4695  3.2796 -1.1355
  713MOL0     H96238   1.751   2.881   6.143 -1.2407 -2.1084  1.6462
  713MOL0     H96239   2.253   2.170   5.705  2.6870 -1.7956  2.1616
  713MOL0     H96240   2.435   2.112   5.825 -0.7368 -3.4406 -1.2285
  713MOL0     H96241   2.939   2.102   5.771  1.2866  0.2193 -2.0585
  713MOL0     H96242   3.156   2.003   5.838  1.6173 -1.4234 -2.5543
  713MOL0     H96243   3.186   1.560   5.813  1.7640 -2.0572 -0.2173
  713MOL0     H96244   3.188   1.580   5.984 -0.3328 -1.1900 -1.2241
  713MOL0     H96245   3.412   1.582   5.780  0.7053  0.3788  0.0162
  713MOL0     H96246   3.387   1.462   5.900 -1.0924 -0.1798 -0.7916
  713MOL0     H96247   3.464   1.632   6.076 -1.8287 -0.6575 -0.8805
  713MOL0     H96248   3.489   1.751   5.945 -1.7433 -0.5657 -0.8127
  713MOL0     H96249   3.659   1.603   5.840  0.6246  0.0351  0.4533
  713MOL0     H96250   3.698   1.670   5.984 -0.0175  0.1343 -1.5525
  713MOL0     H96251   3.705   1.265   6.100 -0.2562 -0.2444  0.1905
  713MOL0     H96252   2.993   1.607   5.796  0.3971 -1.0391 -2.0350
  713MOL0     H96253   2.665   1.693   5.685  0.8204  1.1151  0.7517
  713MOL0     H96254   2.788   1.577   5.689 -1.7669  1.2808 -1.9400
  713MOL0     H96255   2.731   1.624   5.845 -1.3609  3.9364  2.3984
  714MOL0     O96256   6.067   6.491   2.998  0.5211 -0.0874 -0.5180
  714MOL0     C96257   5.948   6.511   2.958 -0.6865  1.3377  0.2094
  714MOL0     O96258   5.912   6.500   2.819 -1.2718 -0.1677 -0.9287
  714MOL0     C96259   6.026   6.484   2.729 -0.6475 -0.3120 -0.7836
  714MOL0     C96260   6.083   6.354   2.707 -0.8685  0.0772  0.0106
  714MOL0     C96261   6.198   6.331   2.633  0.6057  0.1498  0.1055
  714MOL0     C96262   6.248   6.438   2.555 -0.6196 -0.4965 -0.0179
  714MOL0     O96263   6.350   6.408   2.465  0.5910 -0.5111  0.0317
  714MOL0     C96264   6.374   6.508   2.362  0.4041 -0.4144 -0.2498
  714MOL0     C96265   6.478   6.448   2.272  0.4209 -1.7020 -0.1908
  714MOL0     C96266   6.498   6.528   2.139 -0.6831  0.0068  0.0554
  714MOL0     C96267   6.549   6.680   2.167 -0.5779 -0.1107 -0.2806
  714MOL0     C96268   6.583   6.726   2.020 -0.6731 -0.1330 -0.1108
  714MOL0     C96269   6.600   6.881   2.000 -0.5068 -0.4772 -0.0814
  714MOL0     C96270   6.648   6.920   1.865 -1.6645  0.3668 -0.7917
  714MOL0     C96271   6.692   7.071   1.853  0.4709  0.4346  0.2506
  714MOL0     N96272   6.723   7.111   1.712 -0.2035  0.8251 -0.2307
  714MOL0     C96273   6.852   7.123   1.670  0.4269 -0.5469  0.7573
  714MOL0     C96274   6.847   7.189   1.548 -0.3192  0.6851 -1.6115
  714MOL0     C96275   6.974   7.236   1.476  0.4405  0.3109 -0.9203
  714MOL0     C96276   7.025   7.128   1.391  0.3598 -1.7151  0.3667
  714MOL0     C96277   6.932   7.083   1.273  0.0903 -0.1193  0.0884
  714MOL0     C96278   6.985   6.953   1.195  0.9537  0.1217  1.1561
  714MOL0     O96279   7.129   6.966   1.156  0.7415 -0.8776  0.4819
  714MOL0     C96280   7.197   6.850   1.118 -0.0459 -0.1814 -0.1335
  714MOL0     C96281   7.156   6.723   1.148  0.0060 -0.4669 -0.6614
  714MOL0     C96282   7.236   6.612   1.126 -0.0231  0.9629  0.6880
  714MOL0     C96283   7.355   6.619   1.050  0.5558  0.9499 -0.0736
  714MOL0     C96284   7.431   6.493   1.015 -0.3239 -0.2678  0.8532
  714MOL0     O96285   7.372   6.379   1.032 -0.2664  0.8886  0.0806
  714MOL0     C96286   7.442   6.272   0.984  0.2260  0.6564  0.5133
  714MOL0     C96287   7.461   6.260   0.842  0.5442 -0.1048  0.1313
  714MOL0     C96288   7.533   6.146   0.790  0.4880 -0.6994  0.1823
  714MOL0     C96289   7.576   6.049   0.870  0.2305  1.4476 -0.4446
  714MOL0     O96290   7.645   5.935   0.829  0.9420  0.1399  0.0950
  714MOL0     C96291   7.614   5.890   0.696  0.4899 -0.2147  0.8294
  714MOL0     C96292   7.673   5.749   0.684 -0.7300  0.0350  0.2818
  714MOL0     C96293   7.825   5.740   0.663  0.2775 -0.4571 -1.4832
  714MOL0     C96294   7.869   5.748   0.513 -0.5357 -0.0195 -0.5207
  714MOL0     C96295   8.018   5.727   0.511 -0.4308  0.1369 -0.0659
  714MOL0     C96296   8.079   5.748   0.364 -0.2273  0.6593 -0.2757
  714MOL0     C96297   8.234   5.754   0.369 -0.7665  1.2923 -0.2657
  714MOL0     C96298   8.302   5.819   0.256 -0.0190 -0.4562 -0.2863
  714MOL0    Cl96299   8.362   5.699   0.146  0.0094 -0.0079  0.1793
  714MOL0     C96300   7.552   6.057   1.007  1.2128  0.3229  0.0145
  714MOL0     C96301   7.484   6.165   1.062 -0.1477 -0.3962 -0.6292
  714MOL0     O96302   7.543   6.520   0.984  0.0369  0.2843  0.1001
  714MOL0     C96303   7.395   6.746   1.016  0.2104 -0.7952 -0.1447
  714MOL0     C96304   7.322   6.867   1.047  0.3101  0.3232  0.3508
  714MOL0     N96305   6.718   7.231   1.538  1.3979  0.6884  0.1737
  714MOL0     N96306   6.641   7.188   1.630 -0.1322 -0.4169  0.8631
  714MOL0     C96307   6.180   6.561   2.557 -0.0649  0.6613 -0.2553
  714MOL0     C96308   6.069   6.588   2.644 -0.0379  0.3157 -0.9499
  714MOL0     C96309   5.844   6.524   3.055  0.0943 -0.3301 -0.0629
  714MOL0     C96310   5.875   6.524   3.184  0.2455  0.6069 -0.3206
  714MOL0     C96311   5.777   6.525   3.288 -0.2211  0.3973 -0.2379
  714MOL0     C96312   5.642   6.521   3.259  0.8759  0.5248  0.1201
  714MOL0     O96313   5.545   6.531   3.350 -0.5031 -0.0075 -0.2793
  714MOL0     C96314   5.594   6.537   3.480 -0.1480 -0.5524  0.3915
  714MOL0     C96315   5.479   6.554   3.578  0.3444  0.8486  0.5652
  714MOL0     C96316   5.540   6.558   3.718  0.1372 -0.8221  0.6878
  714MOL0     C96317   5.441   6.527   3.835 -0.7777  0.2631 -0.5101
  714MOL0     C96318   5.511   6.488   3.966  0.3205  0.1526  0.4045
  714MOL0     C96319   5.554   6.470   4.074  0.3332  0.8614 -0.2169
  714MOL0     C96320   5.607   6.529   3.131  0.5405  1.3599  0.9617
  714MOL0     C96321   5.698   6.533   3.024  0.4019 -0.4942  0.3076
  714MOL0     C96322   5.634   6.533   2.890  0.4889 -0.0051  0.6685
  714MOL0     H96323   6.062   6.272   2.776  2.6837 -0.6711  0.3785
  714MOL0     H96324   6.259   6.243   2.613  2.7591  2.0117 -2.1736
  714MOL0     H96325   6.288   6.528   2.298  1.9188 -1.2482 -2.7060
  714MOL0     H96326   6.409   6.594   2.421 -1.4331  0.0359  0.2385
  714MOL0     H96327   6.447   6.344   2.257  0.4892 -1.7035 -0.3208
  714MOL0     H96328   6.575   6.440   2.321  0.4491 -2.2109 -0.3251
  714MOL0     H96329   6.413   6.521   2.071 -0.6044  3.7314 -0.6602
  714MOL0     H96330   6.578   6.476   2.084 -3.0196  0.2178 -3.9569
  714MOL0     H96331   6.467   6.732   2.217 -2.8165 -4.2298  0.8533
  714MOL0     H96332   6.643   6.680   2.223  0.4399  3.6016 -1.7046
  714MOL0     H96333   6.677   6.681   1.988 -0.7838 -0.8329  0.4985
  714MOL0     H96334   6.499   6.686   1.962  0.1603 -1.4936 -0.4363
  714MOL0     H96335   6.504   6.929   2.021 -1.2935 -2.6606  1.7416
  714MOL0     H96336   6.675   6.924   2.066 -0.1030 -1.7717  0.3323
  714MOL0     H96337   6.581   6.902   1.780  0.0725 -1.0207 -1.9493
  714MOL0     H96338   6.728   6.852   1.833 -3.3760 -1.7480 -0.7814
  714MOL0     H96339   6.607   7.130   1.890 -0.4987  0.2153 -1.5006
  714MOL0     H96340   6.776   7.090   1.920  2.2134 -0.7822 -1.4716
  714MOL0     H96341   6.940   7.086   1.720 -0.9837 -2.2741  2.1079
  714MOL0     H96342   6.951   7.327   1.420 -1.5017  0.1141 -0.5383
  714MOL0     H96343   7.044   7.275   1.550 -0.5627 -0.2784  0.3791
  714MOL0     H96344   7.117   7.169   1.350 -1.0861  1.4261 -0.0631
  714MOL0     H96345   7.057   7.051   1.461  2.6542 -0.7310  0.4880
  714MOL0     H96346   6.923   7.172   1.211 -4.7962 -3.7629 -5.5088
  714MOL0     H96347   6.832   7.068   1.314 -1.0286 -3.6628 -3.2924
  714MOL0     H96348   6.913   6.935   1.115  2.5755  0.5665 -0.4876
  714MOL0     H96349   6.973   6.864   1.257  1.2475  0.2005  1.3279
  714MOL0     H96350   7.072   6.691   1.210 -1.4203 -0.8462 -2.6973
  714MOL0     H96351   7.196   6.523   1.174 -0.0389 -0.3511 -1.6382
  714MOL0     H96352   7.424   6.340   0.778 -0.1155  1.1273  1.9657
  714MOL0     H96353   7.537   6.150   0.682 -0.8924  3.0373  0.1077
  714MOL0     H96354   7.506   5.880   0.683  0.8676 -2.3316 -1.3356
  714MOL0     H96355   7.641   5.964   0.620  0.4916 -0.1120  0.9277
  714MOL0     H96356   7.647   5.689   0.772 -0.5775 -1.0277 -0.3882
  714MOL0     H96357   7.630   5.701   0.596 -0.4820 -1.2799  0.8573
  714MOL0     H96358   7.863   5.818   0.729 -1.1994  0.4827 -1.6968
  714MOL0     H96359   7.857   5.641   0.697 -1.9915 -0.7167  0.1475
  714MOL0     H96360   7.831   5.837   0.462  0.7856 -0.5716 -2.6224
  714MOL0     H96361   7.828   5.673   0.444 -2.5355 -1.0760  1.6865
  714MOL0     H96362   8.049   5.633   0.556  0.9718  0.1511 -0.9566
  714MOL0     H96363   8.052   5.810   0.574  1.4049 -1.1256  0.6805
  714MOL0     H96364   8.052   5.676   0.286 -2.9352  0.4878  0.6978
  714MOL0     H96365   8.041   5.839   0.317  0.0207  1.4201  0.9575
  714MOL0     H96366   8.275   5.653   0.360 -0.0855  1.6317 -1.0685
  714MOL0     H96367   8.274   5.794   0.463 -1.6239  1.6025 -0.0265
  714MOL0     H96368   8.240   5.890   0.202 -1.3488 -1.0389  0.4282
  714MOL0     H96369   8.386   5.876   0.296  0.1891 -0.4529 -0.7263
  714MOL0     H96370   7.598   5.989   1.078  1.4438  0.8723  0.3986
  714MOL0     H96371   7.467   6.173   1.169  0.5090 -0.6670 -0.5053
  714MOL0     H96372   7.483   6.757   0.954  1.1667 -1.0956  1.1166
  714MOL0     H96373   7.347   6.966   1.011  3.9682  0.6627  3.2589
  714MOL0     H96374   6.195   6.642   2.486 -1.3714 -0.7559 -2.2705
  714MOL0     H96375   6.020   6.684   2.655  0.7692  0.7705 -1.1906
  714MOL0     H96376   5.975   6.519   3.226 -0.5397  1.4314  1.7791
  714MOL0     H96377   5.822   6.525   3.387 -1.0004  3.0396  0.2017
  714MOL0     H96378   5.646   6.632   3.495 -0.3065 -0.3196 -0.4991
  714MOL0     H96379   5.644   6.446   3.513 -1.4756 -0.5699  2.6396
  714MOL0     H96380   5.392   6.488   3.570  1.0384  0.0038 -0.3431
  714MOL0     H96381   5.445   6.655   3.552  2.0165  1.7745  1.8376
  714MOL0     H96382   5.586   6.657   3.711 -1.4048 -0.1676 -1.7196
  714MOL0     H96383   5.625   6.490   3.720  2.1011  1.4415 -0.4268
  714MOL0     H96384   5.370   6.611   3.836  0.2634  1.1800 -1.0963
  714MOL0     H96385   5.390   6.437   3.800  0.6711 -1.0164  0.5615
  714MOL0     H96386   5.597   6.461   4.171  1.5234  4.5120 -0.2800
  714MOL0     H96387   5.501   6.520   3.109  0.7276  3.2292 -1.0372
  714MOL0     H96388   5.656   6.438   2.841 -0.2613 -0.7023  1.6253
  714MOL0     H96389   5.525   6.541   2.888  0.3724 -1.4803 -0.1064
  714MOL0     H96390   5.675   6.616   2.833 -0.6026  0.6045  0.7367
  715MOL0     O96391   9.339   8.569   1.616  0.3217  0.0462  0.5068
  715MOL0     C96392   9.275   8.636   1.537 -0.5913 -0.0055 -0.3116
  715MOL0     O96393   9.175   8.587   1.453 -0.1628 -0.0772  0.4347
  715MOL0     C96394   9.139   8.454   1.470  0.5666 -0.0144 -0.6467
  715MOL0     C96395   9.121   8.369   1.363 -0.4298 -0.1839  0.3872
  715MOL0     C96396   9.071   8.245   1.371  0.6688  0.1328 -0.5530
  715MOL0     C96397   9.043   8.187   1.499  0.0754  0.2123 -0.4592
  715MOL0     O96398   9.017   8.051   1.513  0.7394  0.2646  0.2865
  715MOL0     C96399   9.032   7.996   1.644 -0.2878 -1.5006  0.0182
  715MOL0     C96400   9.027   7.841   1.652 -0.1498  0.5750 -0.0651
  715MOL0     C96401   8.888   7.780   1.655 -0.1904 -0.3980 -0.5535
  715MOL0     C96402   8.915   7.631   1.631 -0.2827 -0.4705 -0.1390
  715MOL0     C96403   8.796   7.558   1.695  0.2673  0.8967  0.2021
  715MOL0     C96404   8.663   7.573   1.627  0.7113  0.4476 -0.3855
  715MOL0     C96405   8.663   7.516   1.482 -0.0722  0.2289 -0.4788
  715MOL0     C96406   8.582   7.593   1.374  0.4746 -0.5817  0.3663
  715MOL0     N96407   8.445   7.610   1.417 -0.2774 -0.8180  0.8785
  715MOL0     C96408   8.397   7.703   1.510 -0.1493 -0.0662  0.4248
  715MOL0     C96409   8.266   7.658   1.540  0.7953 -0.0398 -0.0940
  715MOL0     C96410   8.179   7.709   1.646 -0.2547 -0.8391  0.1171
  715MOL0     C96411   8.072   7.809   1.622  0.7367 -0.3088  0.0331
  715MOL0     C96412   8.002   7.864   1.757 -0.5076 -0.6225 -0.5528
  715MOL0     C96413   7.943   7.763   1.859 -0.1511  0.3034 -0.6748
  715MOL0     O96414   7.816   7.708   1.820 -0.1039  0.8265  0.4126
  715MOL0     C96415   7.778   7.585   1.862 -0.6983  0.1677 -0.9277
  715MOL0     C96416   7.724   7.498   1.775  0.5598  0.4836  0.1634
  715MOL0     C96417   7.657   7.383   1.821 -0.1862  0.6873 -0.3314
  715MOL0     C96418   7.661   7.348   1.962  0.4653  0.0540  0.2191
  715MOL0     C96419   7.601   7.233   2.018  0.1051  0.5356 -0.2548
  715MOL0     O96420   7.561   7.236   2.149  0.0242  0.3045 -0.2008
  715MOL0     C96421   7.516   7.125   2.218  0.6044  0.3781 -0.1245
  715MOL0     C96422   7.410   7.130   2.312 -1.0138 -0.2434 -0.5410
  715MOL0     C96423   7.362   7.018   2.379  0.0911 -0.8833  0.7932
  715MOL0     C96424   7.436   6.900   2.360  0.1145 -0.3831  0.3343
  715MOL0     O96425   7.387   6.796   2.433  0.2826 -0.1073  0.5137
  715MOL0     C96426   7.377   6.675   2.359  0.4941 -0.5095  0.7054
  715MOL0     C96427   7.293   6.562   2.434 -0.1978  0.2630  0.7939
  715MOL0     C96428   7.267   6.438   2.338 -0.4757 -0.1939 -0.0404
  715MOL0     C96429   7.174   6.339   2.414 -0.8421 -0.2124  0.1401
  715MOL0     C96430   7.102   6.238   2.329  0.5736  0.6353 -0.2057
  715MOL0     C96431   7.045   6.115   2.410 -0.5048 -0.4455  0.2092
  715MOL0     C96432   6.948   6.038   2.314  0.9782  0.0468  0.0204
  715MOL0     C96433   6.837   5.968   2.392  0.1184  0.5933  0.2376
  715MOL0    Cl96434   6.761   5.833   2.303  0.4448 -0.0787 -0.5655
  715MOL0     C96435   7.546   6.892   2.273  0.6305 -0.5583  0.0816
  715MOL0     C96436   7.584   7.001   2.204  0.3127 -0.0862 -0.0810
  715MOL0     O96437   7.595   7.131   1.945  0.6291  0.3160  0.0201
  715MOL0     C96438   7.740   7.432   2.047  0.2533  0.0834 -0.5916
  715MOL0     C96439   7.796   7.543   2.001 -0.2768  0.1723  1.5019
  715MOL0     N96440   8.242   7.551   1.463 -0.8106 -0.1217 -0.2115
  715MOL0     N96441   8.350   7.516   1.407 -0.5548  0.8870  0.4319
  715MOL0     C96442   9.053   8.276   1.609  0.0453 -0.0951 -0.0843
  715MOL0     C96443   9.100   8.405   1.594  0.5381  0.2407  1.0511
  715MOL0     C96444   9.306   8.779   1.537 -0.8843  0.4122 -0.2564
  715MOL0     C96445   9.365   8.833   1.653  0.2674 -0.5724  0.6785
  715MOL0     C96446   9.400   8.959   1.667 -0.8565  0.7674  0.7141
  715MOL0     C96447   9.385   9.046   1.556  0.5009 -0.3100 -0.3988
  715MOL0     O96448   9.419   9.178   1.581 -0.0985 -0.5731 -0.1705
  715MOL0     C96449   9.489   9.252   1.482 -0.0340  0.9854 -0.9155
  715MOL0     C96450   9.633   9.201   1.447  0.3179 -0.1762  0.2040
  715MOL0     C96451   9.756   9.252   1.519  0.6248 -0.0221  0.4905
  715MOL0     C96452   9.778   9.224   1.666 -0.7915  0.2024 -0.5087
  715MOL0     C96453   9.742   9.084   1.697 -1.6755 -0.3502 -1.0059
  715MOL0     C96454   9.718   8.974   1.735  0.1673 -0.1610  0.8193
  715MOL0     C96455   9.330   9.000   1.440 -0.2124 -0.5672  0.6438
  715MOL0     C96456   9.296   8.861   1.430  0.5744  0.1996 -0.1463
  715MOL0     C96457   9.232   8.809   1.305  0.0083 -0.4416  0.2665
  715MOL0     H96458   9.147   8.406   1.264 -3.4781 -0.1232 -0.4735
  715MOL0     H96459   9.067   8.180   1.284  1.5997 -1.9738  0.8907
  715MOL0     H96460   9.129   8.028   1.683 -0.5637 -0.8836  0.2008
  715MOL0     H96461   8.950   8.039   1.702 -0.5836 -3.8809  1.5373
  715MOL0     H96462   9.081   7.814   1.743 -0.7236  0.8293  0.3596
  715MOL0     H96463   9.086   7.817   1.564  0.2095  3.0141 -0.5507
  715MOL0     H96464   8.824   7.824   1.578 -1.9894 -0.4960  0.8317
  715MOL0     H96465   8.832   7.782   1.749  0.3085  1.0646 -0.2638
  715MOL0     H96466   8.942   7.614   1.527 -0.8992 -1.5907 -0.1342
  715MOL0     H96467   9.003   7.602   1.689  1.5379  3.5903 -0.5691
  715MOL0     H96468   8.809   7.449   1.695 -3.8811  0.2448  1.5573
  715MOL0     H96469   8.790   7.584   1.801  2.9198  0.0063  0.6641
  715MOL0     H96470   8.584   7.534   1.693  1.2483 -0.2883 -0.1719
  715MOL0     H96471   8.644   7.681   1.620 -0.2404  0.3150  0.0113
  715MOL0     H96472   8.634   7.410   1.490  0.7885  0.0391  0.2483
  715MOL0     H96473   8.767   7.496   1.454 -0.4059 -1.0403 -0.8831
  715MOL0     H96474   8.628   7.693   1.375 -1.2728  0.2781  1.8646
  715MOL0     H96475   8.582   7.550   1.274 -1.1677 -1.9363  0.9210
  715MOL0     H96476   8.448   7.783   1.564 -1.3966  2.4533 -1.9375
  715MOL0     H96477   8.126   7.617   1.674 -1.1425 -0.3357  0.1168
  715MOL0     H96478   8.246   7.739   1.727  0.0949 -1.0486 -0.0878
  715MOL0     H96479   8.101   7.884   1.548  2.4600 -2.1995 -1.3012
  715MOL0     H96480   7.991   7.752   1.574  0.2779 -1.2349  1.8441
  715MOL0     H96481   7.930   7.942   1.728  0.7753  0.9247  0.2550
  715MOL0     H96482   8.082   7.918   1.808  0.5584 -1.5759 -1.1756
  715MOL0     H96483   7.942   7.811   1.957 -2.5105 -4.7422  2.1697
  715MOL0     H96484   8.014   7.679   1.859 -0.3075  0.0924 -3.2334
  715MOL0     H96485   7.716   7.531   1.672  3.9946 -3.2869 -1.6046
  715MOL0     H96486   7.601   7.322   1.751  1.1268 -0.3645 -0.5054
  715MOL0     H96487   7.359   7.224   2.327  2.1256  1.7587 -1.4260
  715MOL0     H96488   7.279   7.012   2.449  1.0024 -2.1768  1.8318
  715MOL0     H96489   7.337   6.688   2.258 -0.3281 -0.2159  1.0582
  715MOL0     H96490   7.477   6.633   2.347  0.3141 -0.3260 -1.8645
  715MOL0     H96491   7.353   6.524   2.517 -0.0000  1.8512  1.4219
  715MOL0     H96492   7.201   6.612   2.464 -1.0246 -0.3052 -0.7080
  715MOL0     H96493   7.225   6.475   2.244 -1.2239  0.6565  0.6049
  715MOL0     H96494   7.363   6.390   2.316  0.4722  0.1963  2.8260
  715MOL0     H96495   7.094   6.401   2.455  0.3467  0.1994  1.9867
  715MOL0     H96496   7.224   6.276   2.488 -1.4280 -0.9348 -0.0741
  715MOL0     H96497   7.178   6.194   2.263  4.4260 -0.1498  4.2175
  715MOL0     H96498   7.028   6.285   2.264  0.1165 -0.5262 -0.5527
  715MOL0     H96499   7.124   6.044   2.438  0.0691  0.2873  0.4749
  715MOL0     H96500   7.000   6.144   2.505  1.5884  1.7493  0.6318
  715MOL0     H96501   7.012   5.981   2.246  0.7313  2.4754 -2.3973
  715MOL0     H96502   6.893   6.106   2.249  0.4318 -0.3247  0.0837
  715MOL0     H96503   6.869   5.933   2.490  1.1199 -1.1967 -0.6712
  715MOL0     H96504   6.754   6.040   2.398 -0.4707  0.4157 -3.4797
  715MOL0     H96505   7.598   6.798   2.264  1.0887 -0.3019  0.0511
  715MOL0     H96506   7.675   6.997   2.146  0.3748  5.1710 -0.8535
  715MOL0     H96507   7.724   7.418   2.154 -2.5287 -3.9001 -1.3194
  715MOL0     H96508   7.853   7.614   2.061 -0.4300 -0.8561  2.9005
  715MOL0     H96509   9.018   8.254   1.709 -1.8014  2.2327 -0.1303
  715MOL0     H96510   9.085   8.465   1.684 -0.1492  0.5799  0.7136
  715MOL0     H96511   9.353   8.775   1.744 -0.0943 -0.6311  0.5959
  715MOL0     H96512   9.435   9.010   1.756 -0.9862  3.1076 -0.4937
  715MOL0     H96513   9.498   9.356   1.515  0.8664  0.5891  0.1673
  715MOL0     H96514   9.420   9.240   1.398 -0.5827 -2.0995 -0.1259
  715MOL0     H96515   9.639   9.235   1.343 -0.4097  0.2933  0.3006
  715MOL0     H96516   9.636   9.092   1.449 -0.0246 -0.4146 -3.6673
  715MOL0     H96517   9.769   9.360   1.503 -2.4391  0.3857  0.1283
  715MOL0     H96518   9.839   9.205   1.465 -2.3004 -2.8783 -1.9896
  715MOL0     H96519   9.882   9.247   1.689 -0.8363  1.7078 -1.6660
  715MOL0     H96520   9.712   9.288   1.725 -3.0173  0.5124 -3.0932
  715MOL0     H96521   9.694   8.872   1.757  0.6730 -0.6900 -0.9180
  715MOL0     H96522   9.321   9.065   1.353  0.0802 -2.6901 -1.0466
  715MOL0     H96523   9.127   8.779   1.310 -0.3004  0.7517  1.3614
  715MOL0     H96524   9.251   8.875   1.220  1.8427 -0.5048  0.5938
  715MOL0     H96525   9.285   8.715   1.283 -0.6762 -0.3491 -2.1070
  716MOL0     O96526   8.759   2.145   3.914 -0.3553 -0.3021  0.4575
  716MOL0     C96527   8.861   2.160   3.850 -0.3635  0.7062 -0.0530
  716MOL0     O96528   8.856   2.197   3.718 -0.5064  0.1136 -0.3655
  716MOL0     C96529   8.753   2.260   3.659  0.4949  0.8259 -0.8400
  716MOL0     C96530   8.791   2.345   3.550  0.2630  0.6170  0.2533
  716MOL0     C96531   8.698   2.425   3.479 -0.3389 -0.2037 -1.1324
  716MOL0     C96532   8.563   2.435   3.519  0.3489  0.0645 -0.0977
  716MOL0     O96533   8.473   2.525   3.457 -0.1938 -0.1915 -0.6782
  716MOL0     C96534   8.338   2.538   3.506  0.8818  0.7882  0.2338
  716MOL0     C96535   8.274   2.670   3.459  0.1574 -0.2126  0.1584
  716MOL0     C96536   8.138   2.679   3.525  1.1385 -0.5067  0.8633
  716MOL0     C96537   8.062   2.799   3.458  0.1452 -0.4295  0.6971
  716MOL0     C96538   7.911   2.778   3.478  0.2909 -0.7396  0.1906
  716MOL0     C96539   7.851   2.904   3.404  0.6506 -0.3115 -0.7960
  716MOL0     C96540   7.697   2.906   3.400 -0.2933 -0.0197  0.3597
  716MOL0     C96541   7.629   2.926   3.538 -0.2504  0.3181 -0.0006
  716MOL0     N96542   7.482   2.924   3.531 -0.1339  0.0742  0.7640
  716MOL0     C96543   7.408   2.839   3.448 -0.6098 -0.6780  0.3811
  716MOL0     C96544   7.273   2.872   3.486 -0.3311  0.1590  0.8539
  716MOL0     C96545   7.151   2.804   3.428  0.6044 -0.3941  0.3541
  716MOL0     C96546   7.150   2.661   3.487  0.7937 -0.3803 -0.1899
  716MOL0     C96547   7.020   2.590   3.455  0.0168 -0.5359  0.2559
  716MOL0     C96548   7.021   2.446   3.516  1.1507  0.8039 -0.3642
  716MOL0     O96549   7.101   2.374   3.419 -0.2415 -0.0500 -0.2642
  716MOL0     C96550   7.043   2.261   3.364 -0.1477  0.5279  0.7877
  716MOL0     C96551   6.905   2.234   3.340 -1.1807  0.3871  0.2139
  716MOL0     C96552   6.855   2.110   3.293 -0.7905  0.6198 -0.6478
  716MOL0     C96553   6.952   2.011   3.264  0.2616 -0.3256 -0.5117
  716MOL0     C96554   6.913   1.870   3.242 -0.8863 -0.6606  0.1552
  716MOL0     O96555   6.788   1.841   3.194  0.1327  0.0347  1.4245
  716MOL0     C96556   6.749   1.712   3.158 -0.3719  0.3202 -1.1440
  716MOL0     C96557   6.612   1.691   3.158  0.0234  0.2164  0.1345
  716MOL0     C96558   6.567   1.562   3.120 -0.3532  0.1298  0.0346
  716MOL0     C96559   6.646   1.464   3.077  0.0161 -0.1843 -0.7084
  716MOL0     O96560   6.597   1.339   3.055  0.1836  0.5560 -0.7681
  716MOL0     C96561   6.669   1.220   3.076 -0.4946  0.2328  0.1816
  716MOL0     C96562   6.592   1.105   3.039 -0.1610  1.1992 -0.1116
  716MOL0     C96563   6.512   1.054   3.146 -0.1880  0.2526 -1.0542
  716MOL0     C96564   6.397   0.953   3.120  0.4714 -0.1970  0.3875
  716MOL0     C96565   6.286   1.022   3.040 -0.1947 -0.1831  0.6737
  716MOL0     C96566   6.206   1.148   3.074 -0.9139  0.6339 -0.5861
  716MOL0     C96567   6.174   1.240   2.960  0.1532  0.5407  0.4880
  716MOL0     C96568   6.096   1.365   3.007 -0.3498  0.8289 -0.2460
  716MOL0    Cl96569   6.061   1.465   2.863  0.3907  0.2937  0.5212
  716MOL0     C96570   6.782   1.495   3.067  0.5847  0.4434  1.1264
  716MOL0     C96571   6.843   1.612   3.111 -0.6603 -0.3308  0.1692
  716MOL0     O96572   7.003   1.787   3.264  0.6077  0.1461  0.0134
  716MOL0     C96573   7.085   2.043   3.270 -0.2076 -0.4286  0.7228
  716MOL0     C96574   7.124   2.168   3.317 -0.0212  0.3440 -0.5455
  716MOL0     N96575   7.267   2.963   3.583 -0.6167 -0.1148  0.1129
  716MOL0     N96576   7.387   2.991   3.605  0.1350  0.9968 -0.3669
  716MOL0     C96577   8.529   2.355   3.636 -0.7557 -0.4705  0.2024
  716MOL0     C96578   8.620   2.269   3.699  0.4841  0.2475 -0.2975
  716MOL0     C96579   8.993   2.131   3.914  0.3557 -0.0126 -0.4280
  716MOL0     C96580   8.996   2.058   4.036  0.2367 -0.8940  0.3774
  716MOL0     C96581   9.115   2.046   4.105  0.3154  0.3169 -0.2041
  716MOL0     C96582   9.233   2.090   4.052 -0.2581  0.2127  0.7687
  716MOL0     O96583   9.350   2.074   4.105 -0.3509 -0.2158 -0.1906
  716MOL0     C96584   9.362   2.018   4.243 -0.2746 -0.6670  0.3988
  716MOL0     C96585   9.512   2.006   4.273 -0.6926 -0.6689  0.0279
  716MOL0     C96586   9.526   1.981   4.426 -0.1424  0.6316  0.8178
  716MOL0     C96587   9.673   2.028   4.463  0.9303 -0.4442 -0.1940
  716MOL0     C96588   9.689   2.065   4.604 -0.5006  0.5939 -0.9159
  716MOL0     C96589   9.718   2.088   4.722 -0.1649 -1.1117  0.0390
  716MOL0     C96590   9.235   2.143   3.924 -0.2436 -0.6714 -0.6873
  716MOL0     C96591   9.118   2.171   3.855  0.8739  0.1831  0.4902
  716MOL0     C96592   9.124   2.254   3.716 -0.4713 -0.4801  0.2479
  716MOL0     H96593   8.897   2.338   3.529  0.9975  0.1403  3.5059
  716MOL0     H96594   8.731   2.484   3.393 -1.3695 -0.1570 -1.5135
  716MOL0     H96595   8.277   2.451   3.479  0.4557  1.2142 -0.1863
  716MOL0     H96596   8.341   2.538   3.615 -0.9426 -0.4420  0.3259
  716MOL0     H96597   8.273   2.650   3.352 -2.1498 -2.1357  0.4443
  716MOL0     H96598   8.332   2.760   3.477 -2.2426  2.1349 -2.7355
  716MOL0     H96599   8.138   2.666   3.633  2.3936 -2.0623  0.7205
  716MOL0     H96600   8.083   2.596   3.479  3.1424 -1.9135  0.8530
  716MOL0     H96601   8.091   2.896   3.500 -0.8840 -0.6044  1.8539
  716MOL0     H96602   8.097   2.801   3.354  0.3371 -1.2073  0.7388
  716MOL0     H96603   7.890   2.680   3.433 -4.0136  0.1043 -0.0102
  716MOL0     H96604   7.877   2.790   3.582 -2.1662 -1.2952 -0.4780
  716MOL0     H96605   7.889   2.990   3.460  0.2633 -0.9679  0.5300
  716MOL0     H96606   7.893   2.918   3.304 -1.2610 -0.8477 -1.7237
  716MOL0     H96607   7.665   2.812   3.355  1.7414 -2.3115  3.2951
  716MOL0     H96608   7.664   2.993   3.343  0.0669  0.4241  0.8251
  716MOL0     H96609   7.645   2.841   3.606  0.1621  0.0347 -0.4461
  716MOL0     H96610   7.665   3.019   3.582 -3.1168  2.5322 -1.9904
  716MOL0     H96611   7.443   2.775   3.367 -2.4711 -0.6090 -0.5265
  716MOL0     H96612   7.062   2.854   3.466  0.2708 -0.1347 -0.7276
  716MOL0     H96613   7.145   2.817   3.319 -1.7695 -1.4773  0.2858
  716MOL0     H96614   7.223   2.609   3.425 -1.0144 -2.2732 -0.8846
  716MOL0     H96615   7.173   2.659   3.594  0.0171  0.7495  0.0236
  716MOL0     H96616   6.993   2.579   3.349 -0.9814  0.4567  0.3908
  716MOL0     H96617   6.944   2.649   3.506  0.9367  2.4691 -1.6062
  716MOL0     H96618   6.920   2.412   3.538  1.3367  0.9465  0.7471
  716MOL0     H96619   7.061   2.453   3.617  1.6949  2.1444 -0.6498
  716MOL0     H96620   6.835   2.316   3.355 -2.1136 -0.6372  1.8368
  716MOL0     H96621   6.751   2.083   3.275 -0.6215  1.2024 -2.8083
  716MOL0     H96622   6.540   1.771   3.172 -0.1803 -0.1329  1.1728
  716MOL0     H96623   6.465   1.526   3.118 -0.1721 -0.3910 -0.1533
  716MOL0     H96624   6.750   1.221   3.003 -1.1409 -1.6567 -0.6243
  716MOL0     H96625   6.702   1.217   3.181  0.3558  0.3243 -0.0709
  716MOL0     H96626   6.546   1.132   2.943 -0.5453  1.6946  0.2056
  716MOL0     H96627   6.666   1.026   3.023 -2.6915 -1.1793 -0.8584
  716MOL0     H96628   6.590   1.011   3.210  0.1774  2.1619 -0.1531
  716MOL0     H96629   6.464   1.141   3.192  0.3789  1.8299 -3.2928
  716MOL0     H96630   6.353   0.907   3.209  0.8103  0.3748  0.8593
  716MOL0     H96631   6.421   0.865   3.061 -0.2885 -1.0886  1.3716
  716MOL0     H96632   6.201   0.955   3.027 -1.2367  0.7271  2.4623
  716MOL0     H96633   6.326   1.040   2.940  1.0769  4.4155  1.7413
  716MOL0     H96634   6.116   1.115   3.127 -1.3548 -1.1137 -2.2815
  716MOL0     H96635   6.258   1.208   3.150 -1.7594 -0.1960  0.6915
  716MOL0     H96636   6.121   1.181   2.884  3.2118 -1.8942  0.0401
  716MOL0     H96637   6.270   1.277   2.922  0.0638 -0.5837 -0.8976
  716MOL0     H96638   6.000   1.335   3.049 -0.8092 -3.3463 -3.6110
  716MOL0     H96639   6.162   1.419   3.076  0.5923 -1.7917  1.0501
  716MOL0     H96640   6.854   1.417   3.043 -0.7017 -0.7541  1.0523
  716MOL0     H96641   6.951   1.616   3.110 -0.6957  1.1069 -1.8210
  716MOL0     H96642   7.168   1.973   3.257  0.4225  0.5882 -0.9577
  716MOL0     H96643   7.229   2.190   3.329  0.2132 -1.5981  1.8152
  716MOL0     H96644   8.439   2.366   3.695  0.4622  0.7511  1.9281
  716MOL0     H96645   8.581   2.209   3.781  3.3575  0.6265  1.4874
  716MOL0     H96646   8.897   2.031   4.073 -1.1213  2.8429 -0.1591
  716MOL0     H96647   9.110   1.987   4.196  1.2951  0.7000  0.1075
  716MOL0     H96648   9.315   1.919   4.246 -2.8440  0.4933  3.1428
  716MOL0     H96649   9.306   2.077   4.315  2.2910  2.8211 -0.2006
  716MOL0     H96650   9.561   2.099   4.242 -2.5899  0.5596  0.5324
  716MOL0     H96651   9.550   1.924   4.212 -0.5743 -1.8729  1.6386
  716MOL0     H96652   9.522   1.872   4.437  0.9785  0.3132 -1.3510
  716MOL0     H96653   9.450   2.039   4.479  2.6158  3.1983  2.2470
  716MOL0     H96654   9.746   1.950   4.438 -3.2843 -4.9109 -0.1719
  716MOL0     H96655   9.716   2.110   4.405  2.8808 -0.8168  0.6328
  716MOL0     H96656   9.750   2.116   4.820  3.7480  0.5552 -1.5197
  716MOL0     H96657   9.334   2.169   3.887 -0.1780  1.7761  0.9806
  716MOL0     H96658   9.107   2.194   3.626 -1.0723  0.7690 -0.5040
  716MOL0     H96659   9.059   2.342   3.714 -0.7805 -0.7064  0.2565
  716MOL0     H96660   9.222   2.299   3.700 -1.7263  3.0034  1.3263
  717MOL0     O96661   8.563   1.004   6.991 -0.0116  0.0777 -0.0938
  717MOL0     C96662   8.528   0.906   7.057  0.3919  0.1674 -0.2982
  717MOL0     O96663   8.566   0.892   7.188  0.4613 -0.8589 -0.4437
  717MOL0     C96664   8.610   0.999   7.259 -0.4445  0.5938 -0.4631
  717MOL0     C96665   8.742   1.043   7.240  0.9821 -0.2428  0.5383
  717MOL0     C96666   8.789   1.157   7.301  0.9035  0.1858 -0.3436
  717MOL0     C96667   8.694   1.235   7.387 -0.0563  0.5741 -0.6857
  717MOL0     O96668   8.727   1.361   7.432  0.2732 -0.6871 -1.5723
  717MOL0     C96669   8.854   1.407   7.416  0.1580  0.3789  0.1304
  717MOL0     C96670   8.862   1.545   7.497 -0.7512  1.0098 -1.0104
  717MOL0     C96671   8.730   1.616   7.506  0.0054 -0.8697 -0.1877
  717MOL0     C96672   8.739   1.770   7.536 -0.6176  0.6611 -0.5249
  717MOL0     C96673   8.757   1.815   7.681 -0.2194  0.3107  0.1524
  717MOL0     C96674   8.708   1.954   7.714 -0.7677  1.2322 -0.5502
  717MOL0     C96675   8.793   2.065   7.652  0.6646  0.2552  0.3036
  717MOL0     C96676   8.940   2.059   7.644 -0.0159 -0.2109 -0.9328
  717MOL0     N96677   8.991   2.171   7.564 -0.5692 -0.1304 -0.2217
  717MOL0     C96678   8.978   2.195   7.432 -1.1054 -0.0663  0.7770
  717MOL0     C96679   9.076   2.293   7.407  0.2016  0.4865 -0.4833
  717MOL0     C96680   9.109   2.335   7.270  0.4760  0.1251 -0.0643
  717MOL0     C96681   9.023   2.448   7.220 -0.1422 -0.7173 -0.1021
  717MOL0     C96682   9.051   2.494   7.077 -0.3900 -0.0561 -0.6145
  717MOL0     C96683   8.966   2.603   7.030 -0.3337  0.0980  0.6756
  717MOL0     O96684   8.831   2.552   7.026 -0.4037  0.0809 -0.4363
  717MOL0     C96685   8.749   2.601   6.932  0.2079  0.4369  0.9430
  717MOL0     C96686   8.709   2.733   6.937 -0.1114 -0.1363  0.1024
  717MOL0     C96687   8.603   2.788   6.860 -0.6427  0.3115  1.0410
  717MOL0     C96688   8.548   2.702   6.755 -0.8102 -0.9654 -0.2593
  717MOL0     C96689   8.429   2.752   6.681  0.0434 -1.1461 -0.1963
  717MOL0     O96690   8.409   2.889   6.665 -0.5256  0.0275  0.0638
  717MOL0     C96691   8.283   2.937   6.626  0.3602 -1.2954 -0.1652
  717MOL0     C96692   8.274   2.993   6.488 -0.3873  1.2434  0.5872
  717MOL0     C96693   8.151   3.038   6.446 -0.9309 -0.6159 -1.2098
  717MOL0     C96694   8.042   3.042   6.527 -0.4905 -0.8784  0.4130
  717MOL0     O96695   7.937   3.128   6.490 -0.1483 -0.0733  0.0521
  717MOL0     C96696   7.804   3.085   6.520 -0.1703 -0.4011 -0.5275
  717MOL0     C96697   7.698   3.185   6.465  0.3547 -0.8797  0.2874
  717MOL0     C96698   7.681   3.161   6.319 -0.3548 -0.4694 -0.3196
  717MOL0     C96699   7.589   3.267   6.258  0.7413  0.5265 -0.0473
  717MOL0     C96700   7.620   3.419   6.280  0.1403  0.0466  0.1091
  717MOL0     C96701   7.760   3.470   6.242 -0.0963 -0.3138 -0.2059
  717MOL0     C96702   7.789   3.446   6.088  0.1765 -0.3580  0.0243
  717MOL0     C96703   7.911   3.513   6.043  0.1523  0.1270  0.5805
  717MOL0    Cl96704   8.055   3.459   6.113 -0.2372 -0.0636 -0.1527
  717MOL0     C96705   8.051   2.991   6.661  0.3852  0.0188  0.8809
  717MOL0     C96706   8.171   2.935   6.708  1.3124  0.4618  0.5139
  717MOL0     O96707   8.353   2.673   6.626 -0.5895  0.4801 -0.1256
  717MOL0     C96708   8.588   2.570   6.748  0.1965 -0.6304 -0.3073
  717MOL0     C96709   8.691   2.514   6.837  0.0014 -0.5450  0.2113
  717MOL0     N96710   9.130   2.334   7.527 -1.1745  0.0503 -0.3221
  717MOL0     N96711   9.074   2.267   7.621 -0.2283 -0.3978  0.2864
  717MOL0     C96712   8.565   1.178   7.412 -0.5000  0.6062  0.0593
  717MOL0     C96713   8.534   1.058   7.354  0.9470  0.2743 -0.2148
  717MOL0     C96714   8.430   0.809   7.009  0.6812 -0.0079 -0.3804
  717MOL0     C96715   8.350   0.735   7.098  0.1959 -0.1676 -0.3024
  717MOL0     C96716   8.261   0.650   7.044  0.4279 -0.4634 -0.8008
  717MOL0     C96717   8.244   0.629   6.910 -0.1826 -0.1222 -0.4469
  717MOL0     O96718   8.139   0.544   6.877 -0.1887  0.4108  0.3005
  717MOL0     C96719   8.069   0.579   6.753  0.5199 -0.2645 -0.0675
  717MOL0     C96720   7.936   0.498   6.726 -1.0041 -1.1193  0.3917
  717MOL0     C96721   7.827   0.575   6.800  0.3533 -0.7729 -0.0199
  717MOL0     C96722   7.685   0.506   6.773  0.0047  0.9664 -0.3581
  717MOL0     C96723   7.628   0.528   6.638 -0.1083  0.7437  0.0054
  717MOL0     C96724   7.574   0.512   6.529  0.6692 -0.4180  0.6247
  717MOL0     C96725   8.322   0.694   6.821  0.1796 -1.1465 -0.1435
  717MOL0     C96726   8.419   0.779   6.870  0.6440  0.2543  0.4757
  717MOL0     C96727   8.511   0.840   6.761  1.0686  0.6614 -0.7129
  717MOL0     H96728   8.803   1.000   7.162 -1.5962 -3.1227 -0.0874
  717MOL0     H96729   8.890   1.189   7.279  0.4168  0.7668 -1.7989
  717MOL0     H96730   8.923   1.330   7.449  0.7632  1.6082  1.8415
  717MOL0     H96731   8.876   1.439   7.313 -2.4019  0.4937 -0.4554
  717MOL0     H96732   8.940   1.613   7.462  0.9403 -0.2403  0.1517
  717MOL0     H96733   8.891   1.521   7.599  0.7327 -0.6514 -1.7649
  717MOL0     H96734   8.660   1.573   7.578  0.6317  1.6543  2.1045
  717MOL0     H96735   8.681   1.614   7.408 -1.7660  1.7642  0.5226
  717MOL0     H96736   8.805   1.817   7.462 -1.5966 -0.2042 -2.0041
  717MOL0     H96737   8.643   1.810   7.501 -0.5849  1.2335  0.0228
  717MOL0     H96738   8.691   1.742   7.728 -0.6299 -3.2407 -5.0773
  717MOL0     H96739   8.861   1.813   7.715 -0.7327  2.7857  2.1933
  717MOL0     H96740   8.603   1.955   7.680 -1.0823  2.0725  0.4095
  717MOL0     H96741   8.715   1.962   7.823  1.5093  0.0342 -0.5448
  717MOL0     H96742   8.776   2.165   7.692  3.2570  1.3483 -1.0691
  717MOL0     H96743   8.759   2.067   7.548  2.8492 -1.4907 -0.5183
  717MOL0     H96744   8.982   2.052   7.745  0.2420 -1.4171 -1.1068
  717MOL0     H96745   8.977   1.968   7.596 -1.0353 -0.2514 -1.6776
  717MOL0     H96746   8.932   2.130   7.359  5.1490  0.0763 -4.1034
  717MOL0     H96747   9.216   2.352   7.260  1.0434 -3.7021 -2.4767
  717MOL0     H96748   9.097   2.247   7.206 -1.0161 -1.0893  1.7859
  717MOL0     H96749   8.915   2.427   7.224 -0.7044  0.8014 -3.7160
  717MOL0     H96750   9.044   2.536   7.282 -0.4467 -0.9158  0.2896
  717MOL0     H96751   9.046   2.403   7.016 -1.2813 -0.4098 -0.0322
  717MOL0     H96752   9.159   2.512   7.073  0.2831 -3.2435  0.4165
  717MOL0     H96753   8.994   2.618   6.925  0.7472 -1.7540  0.6656
  717MOL0     H96754   8.984   2.700   7.076  2.7089  0.9108 -1.8757
  717MOL0     H96755   8.763   2.792   7.010 -1.3831 -1.8079  2.5558
  717MOL0     H96756   8.571   2.891   6.861 -1.3188  0.1246  0.1233
  717MOL0     H96757   8.360   2.993   6.421  0.6029 -1.0777  1.7533
  717MOL0     H96758   8.150   3.093   6.353  3.3600  1.9475 -0.0757
  717MOL0     H96759   7.790   2.980   6.493 -0.2664 -0.6196  0.3578
  717MOL0     H96760   7.798   3.100   6.628  3.5671 -0.3837 -0.1905
  717MOL0     H96761   7.609   3.154   6.519 -0.0097  0.3255  0.4222
  717MOL0     H96762   7.724   3.291   6.478  1.2656 -1.2462  1.6574
  717MOL0     H96763   7.782   3.157   6.276  0.6059  0.7868  1.6934
  717MOL0     H96764   7.637   3.062   6.305 -0.9688  0.1622 -3.8719
  717MOL0     H96765   7.493   3.261   6.311  0.3959  2.8161 -0.3273
  717MOL0     H96766   7.573   3.255   6.151 -2.9328  0.9799  0.3137
  717MOL0     H96767   7.605   3.440   6.386  0.5707 -1.5258  0.4971
  717MOL0     H96768   7.553   3.487   6.227  1.7247  0.0524 -2.0121
  717MOL0     H96769   7.770   3.578   6.247 -1.6939 -0.0683 -1.5003
  717MOL0     H96770   7.835   3.425   6.307 -0.0516  2.3114  1.6804
  717MOL0     H96771   7.704   3.481   6.028 -1.1373 -0.3185  1.8291
  717MOL0     H96772   7.790   3.339   6.065 -5.3047 -0.1353 -3.1648
  717MOL0     H96773   7.906   3.500   5.935  0.2970  2.9187  0.1615
  717MOL0     H96774   7.909   3.619   6.070  2.1267 -0.1277  1.8795
  717MOL0     H96775   7.964   2.997   6.726 -1.5619 -0.1353 -1.5297
  717MOL0     H96776   8.169   2.887   6.805  1.1171  1.7658  1.1711
  717MOL0     H96777   8.554   2.490   6.684 -0.1400  1.4643 -2.8791
  717MOL0     H96778   8.728   2.412   6.837 -1.1076 -0.9797  1.6887
  717MOL0     H96779   8.494   1.221   7.483 -0.9540 -2.8197  1.9500
  717MOL0     H96780   8.435   1.021   7.379  0.6296  1.2080 -0.0442
  717MOL0     H96781   8.369   0.753   7.203  0.4900 -1.3360 -0.1455
  717MOL0     H96782   8.194   0.595   7.110 -0.7502  0.8289 -0.8809
  717MOL0     H96783   8.135   0.559   6.668 -1.8597 -0.2519 -2.0022
  717MOL0     H96784   8.055   0.687   6.744  0.3175 -0.3530 -0.8696
  717MOL0     H96785   7.942   0.396   6.767 -0.0264 -0.5379  1.7604
  717MOL0     H96786   7.909   0.480   6.621 -4.5820  0.6558  0.8546
  717MOL0     H96787   7.821   0.682   6.780 -1.3085 -1.2110 -2.2546
  717MOL0     H96788   7.833   0.567   6.909  0.5097 -4.1148 -0.1655
  717MOL0     H96789   7.695   0.398   6.788  0.0549  1.0518  0.2572
  717MOL0     H96790   7.612   0.537   6.847  0.2552 -1.5932  1.0995
  717MOL0     H96791   7.530   0.484   6.436 -0.3942  1.9308  0.3695
  717MOL0     H96792   8.319   0.686   6.712  1.1236 -2.3961 -0.1042
  717MOL0     H96793   8.512   0.775   6.673  3.2205  1.2009 -1.1340
  717MOL0     H96794   8.469   0.934   6.724 -0.9802 -0.4506 -1.3507
  717MOL0     H96795   8.612   0.863   6.796  1.2702 -1.1856  0.0482
  718MOL0     O96796   7.735   8.368   2.668  0.5940 -0.0896  0.3471
  718MOL0     C96797   7.652   8.401   2.581 -0.2833  0.8976  0.6155
  718MOL0     O96798   7.537   8.346   2.556 -0.1992  0.2760  0.0214
  718MOL0     C96799   7.501   8.225   2.597  0.3859 -0.5822 -0.4917
  718MOL0     C96800   7.552   8.110   2.529  0.4967 -0.1442  0.8140
  718MOL0     C96801   7.505   7.982   2.579 -0.2662 -1.1519 -0.7643
  718MOL0     C96802   7.424   7.982   2.691  0.9813  0.0230 -0.7307
  718MOL0     O96803   7.387   7.873   2.762 -1.3501 -0.5405 -0.2905
  718MOL0     C96804   7.492   7.780   2.798  0.0495  0.3568  0.2848
  718MOL0     C96805   7.613   7.834   2.876  1.1589  0.4669  0.1086
  718MOL0     C96806   7.718   7.720   2.858  1.1039  0.0252 -0.5825
  718MOL0     C96807   7.731   7.641   2.984 -0.9232  0.0057 -0.1233
  718MOL0     C96808   7.848   7.550   2.975 -0.0686  0.6367  0.7673
  718MOL0     C96809   7.887   7.484   3.108  0.1933  0.1713 -0.0947
  718MOL0     C96810   8.014   7.393   3.101 -0.3003  0.7235  0.9131
  718MOL0     C96811   8.005   7.250   3.037  0.3637 -0.4703 -0.2496
  718MOL0     N96812   7.982   7.268   2.886  0.1550  0.5542  0.0984
  718MOL0     C96813   7.913   7.180   2.797  0.3804 -0.8106 -0.5267
  718MOL0     C96814   7.943   7.232   2.673 -0.0424 -0.3362 -0.1347
  718MOL0     C96815   7.905   7.155   2.555  0.5305  0.4420  1.0273
  718MOL0     C96816   7.755   7.138   2.556  0.6715  0.0425 -0.0655
  718MOL0     C96817   7.673   7.269   2.568  0.4913 -0.2095 -0.8294
  718MOL0     C96818   7.710   7.377   2.464  0.1370  0.4068  1.4760
  718MOL0     O96819   7.633   7.501   2.482 -0.1640 -0.2879 -0.1893
  718MOL0     C96820   7.661   7.587   2.387 -0.5956  0.0402  1.3582
  718MOL0     C96821   7.785   7.653   2.395  1.3754 -0.0062  0.1252
  718MOL0     C96822   7.826   7.746   2.300 -0.0180  0.4607 -0.0837
  718MOL0     C96823   7.732   7.795   2.207  0.4365  0.0512 -0.1646
  718MOL0     C96824   7.754   7.930   2.146  0.9085  0.2288  0.8238
  718MOL0     O96825   7.641   7.984   2.099  0.4725 -0.2331 -0.3240
  718MOL0     C96826   7.644   8.105   2.039 -0.4977  0.1445  0.0601
  718MOL0     C96827   7.700   8.121   1.910  0.0360  0.7050 -0.8471
  718MOL0     C96828   7.691   8.243   1.853 -0.3292 -0.7078  0.8302
  718MOL0     C96829   7.620   8.349   1.917  0.6871 -0.8723  0.2840
  718MOL0     O96830   7.619   8.476   1.876 -0.0819 -0.3091  0.1398
  718MOL0     C96831   7.713   8.532   1.792 -1.2136  0.3324 -0.3227
  718MOL0     C96832   7.857   8.523   1.852 -0.0779  0.0757  0.3287
  718MOL0     C96833   7.955   8.569   1.742 -0.7176 -0.4083  0.0666
  718MOL0     C96834   8.100   8.542   1.774 -0.9729 -0.0453  0.2762
  718MOL0     C96835   8.158   8.642   1.873  0.1917  0.1339 -0.3585
  718MOL0     C96836   8.306   8.650   1.843  0.3317  0.3557 -0.0711
  718MOL0     C96837   8.393   8.532   1.895 -0.4451 -0.3231 -0.1942
  718MOL0     C96838   8.489   8.558   2.012  0.3065 -0.2924  0.0468
  718MOL0    Cl96839   8.608   8.656   1.932  0.6343  0.3844 -0.3872
  718MOL0     C96840   7.559   8.332   2.033  0.6406 -0.5732 -0.7243
  718MOL0     C96841   7.577   8.206   2.094  0.0601 -0.5666 -0.5146
  718MOL0     O96842   7.868   7.982   2.142  0.0974 -0.0555 -0.3064
  718MOL0     C96843   7.603   7.729   2.202  0.4468 -0.6325 -0.6080
  718MOL0     C96844   7.566   7.622   2.291 -0.3168 -0.4313  0.3862
  718MOL0     N96845   8.030   7.335   2.684  0.2013  0.3151 -0.1304
  718MOL0     N96846   8.060   7.344   2.808  0.0972 -0.4234 -0.6211
  718MOL0     C96847   7.369   8.098   2.745  0.2856 -0.0035 -0.5840
  718MOL0     C96848   7.397   8.219   2.690  0.3585 -0.1783 -0.7877
  718MOL0     C96849   7.702   8.496   2.477 -0.3641  0.4056  0.0706
  718MOL0     C96850   7.689   8.463   2.349  0.3261  0.1561  1.1273
  718MOL0     C96851   7.747   8.535   2.238 -0.1217  0.4915 -0.3554
  718MOL0     C96852   7.788   8.672   2.255  0.5717  0.9253 -0.1491
  718MOL0     O96853   7.812   8.740   2.141  0.1006 -0.3016 -0.3678
  718MOL0     C96854   7.896   8.860   2.150  0.8446  0.3153  0.1401
  718MOL0     C96855   8.032   8.816   2.199 -0.7436  0.4840  0.8051
  718MOL0     C96856   8.147   8.919   2.167 -0.0639  0.0055 -0.6022
  718MOL0     C96857   8.285   8.855   2.215  0.1471 -0.4880 -0.6554
  718MOL0     C96858   8.403   8.915   2.155 -0.0687 -0.3576  0.5204
  718MOL0     C96859   8.495   8.982   2.115  0.0080 -0.3360 -0.5658
  718MOL0     C96860   7.789   8.711   2.390 -0.0263  1.1065 -0.2121
  718MOL0     C96861   7.774   8.614   2.500 -1.1798  0.2373 -0.0867
  718MOL0     C96862   7.809   8.661   2.632 -0.4749 -0.6229 -1.3772
  718MOL0     H96863   7.629   8.121   2.453 -0.3988  3.6677  0.2402
  718MOL0     H96864   7.550   7.893   2.536 -1.4144 -1.8000 -0.6550
  718MOL0     H96865   7.442   7.713   2.869 -0.4144  0.1823 -0.1962
  718MOL0     H96866   7.508   7.731   2.702  0.2228  0.4015  0.2905
  718MOL0     H96867   7.594   7.851   2.982 -3.9797 -0.3294 -0.4538
  718MOL0     H96868   7.637   7.923   2.818 -1.6808  0.1750 -1.7040
  718MOL0     H96869   7.807   7.783   2.851 -0.7835  3.3375  1.7849
  718MOL0     H96870   7.706   7.655   2.771  0.6305 -0.0388 -0.4754
  718MOL0     H96871   7.760   7.706   3.068  1.4766 -0.2259 -0.6775
  718MOL0     H96872   7.640   7.593   3.020 -0.2575 -0.4887  0.9781
  718MOL0     H96873   7.811   7.478   2.901  3.3670  2.1201 -2.7555
  718MOL0     H96874   7.942   7.593   2.939  0.5414 -3.2242 -3.0291
  718MOL0     H96875   7.911   7.558   3.185 -0.6180  0.4971 -0.1450
  718MOL0     H96876   7.802   7.417   3.128  0.2277  0.0582 -0.3248
  718MOL0     H96877   8.053   7.388   3.203  0.3358  2.5889  0.7891
  718MOL0     H96878   8.098   7.437   3.046 -2.4431  2.6449 -1.0560
  718MOL0     H96879   8.085   7.178   3.053 -0.4545 -2.9010 -5.0398
  718MOL0     H96880   7.912   7.202   3.068 -1.7421  3.1431 -0.3234
  718MOL0     H96881   7.847   7.096   2.815 -0.0483 -0.7923 -1.8998
  718MOL0     H96882   7.932   7.206   2.462  3.9334 -1.8099  0.6091
  718MOL0     H96883   7.965   7.064   2.546 -0.3237  0.0841 -3.7467
  718MOL0     H96884   7.741   7.096   2.457  1.0289  1.4618 -0.7488
  718MOL0     H96885   7.713   7.070   2.631  0.3230  0.6880  0.3449
  718MOL0     H96886   7.689   7.308   2.669 -0.6057  2.4811 -1.5970
  718MOL0     H96887   7.566   7.245   2.561  0.1513  1.3484 -1.3998
  718MOL0     H96888   7.697   7.332   2.365 -1.8291 -0.8023  2.2313
  718MOL0     H96889   7.817   7.398   2.475  0.6262 -0.8178 -0.3481
  718MOL0     H96890   7.862   7.621   2.465  4.0705 -0.7051 -2.9106
  718MOL0     H96891   7.921   7.793   2.322  0.2238 -1.1330  2.6201
  718MOL0     H96892   7.758   8.040   1.866 -1.1087  0.0727 -1.2321
  718MOL0     H96893   7.735   8.276   1.759  0.7302  4.8114  2.8584
  718MOL0     H96894   7.713   8.478   1.697  3.9458 -2.1427  0.7444
  718MOL0     H96895   7.697   8.638   1.770 -0.1220 -0.1129 -3.9913
  718MOL0     H96896   7.857   8.591   1.937 -4.0763  1.5394 -0.6276
  718MOL0     H96897   7.880   8.423   1.890 -1.8243 -0.4630  0.0802
  718MOL0     H96898   7.925   8.513   1.652  0.5654  1.4523 -1.5833
  718MOL0     H96899   7.944   8.674   1.714  2.0107  0.9195  3.2853
  718MOL0     H96900   8.155   8.532   1.680 -2.3378  1.1983 -0.7115
  718MOL0     H96901   8.110   8.443   1.819  0.5340 -0.4725 -0.9210
  718MOL0     H96902   8.158   8.610   1.978 -1.1276 -1.2018 -0.7328
  718MOL0     H96903   8.108   8.739   1.873 -4.0514 -1.8082  1.0897
  718MOL0     H96904   8.327   8.663   1.737 -1.5808  2.2526 -0.2723
  718MOL0     H96905   8.345   8.739   1.893 -3.9340  3.9318 -2.4066
  718MOL0     H96906   8.452   8.490   1.813  2.5609  3.5043 -0.2396
  718MOL0     H96907   8.320   8.453   1.918 -0.0939 -1.6607 -3.1861
  718MOL0     H96908   8.416   8.603   2.081  0.5237  0.1864 -0.0361
  718MOL0     H96909   8.536   8.469   2.055 -1.5710 -1.3313  0.0549
  718MOL0     H96910   7.504   8.416   2.074  1.8933  2.0860 -3.9825
  718MOL0     H96911   7.529   8.182   2.188  0.9645  0.3703  0.2195
  718MOL0     H96912   7.536   7.744   2.117 -0.4802 -2.1913 -0.1899
  718MOL0     H96913   7.481   7.554   2.293 -0.0417 -0.7748  0.2559
  718MOL0     H96914   7.302   8.086   2.830 -1.8727  2.2153 -1.8535
  718MOL0     H96915   7.371   8.315   2.733  3.6629  0.6510 -0.3593
  718MOL0     H96916   7.633   8.371   2.336  1.9586 -0.8633  0.9934
  718MOL0     H96917   7.767   8.481   2.146  3.5037 -2.5328  1.9001
  718MOL0     H96918   7.852   8.931   2.221  1.9031 -0.0759  1.2153
  718MOL0     H96919   7.901   8.896   2.047 -3.4404  3.3221  0.6922
  718MOL0     H96920   8.063   8.726   2.145 -2.8163  0.2524 -0.1335
  718MOL0     H96921   8.031   8.796   2.307 -1.5050  0.9746  0.9043
  718MOL0     H96922   8.112   9.008   2.220 -0.8359 -0.3061 -0.5795
  718MOL0     H96923   8.143   8.936   2.059 -0.6654  1.5428 -0.3579
  718MOL0     H96924   8.295   8.863   2.323  2.4292  2.7621 -0.9409
  718MOL0     H96925   8.284   8.748   2.192 -0.3144 -1.3360  2.8281
  718MOL0     H96926   8.574   9.040   2.071  2.1558 -3.2517 -0.8165
  718MOL0     H96927   7.829   8.808   2.419  2.3802 -0.2726  1.3972
  718MOL0     H96928   7.914   8.643   2.656  0.0279  2.5457 -0.6875
  718MOL0     H96929   7.783   8.768   2.636 -1.7912 -0.9623  0.0425
  718MOL0     H96930   7.741   8.632   2.713  1.5907  0.3073  0.8152
  719MOL0     O96931   9.116   4.776   9.983 -0.2478 -0.8778 -0.3863
  719MOL0     C96932   9.221   4.778   9.931  0.5063  0.5178  0.6487
  719MOL0     O96933   9.342   4.793   9.982  0.7662  0.9691  0.3871
  719MOL0     C96934   9.463   4.794   9.914  0.7463  1.1059 -0.2678
  719MOL0     C96935   9.533   4.909   9.920 -0.0102 -0.0205  0.3863
  719MOL0     C96936   9.653   4.925   9.849 -0.2615  1.0162  0.0157
  719MOL0     C96937   9.710   4.803   9.778 -0.0655 -0.2179  0.0278
  719MOL0     O96938   9.824   4.813   9.698  0.0205 -0.8864 -0.4735
  719MOL0     C96939   9.920   4.916   9.739  0.1584 -1.1192  0.6748
  719MOL0     C96940  10.050   4.898   9.650 -0.6810 -0.1784 -0.7371
  719MOL0     C96941  10.151   5.012   9.702 -0.8529 -0.0709 -0.0118
  719MOL0     C96942  10.287   5.014   9.622  0.2647 -1.0372  1.3101
  719MOL0     C96943  10.404   5.032   9.712 -0.4446 -0.1797  0.3532
  719MOL0     C96944  10.525   5.011   9.619  0.2330  0.6730  0.2520
  719MOL0     C96945  10.588   4.865   9.618 -1.0420  0.6612  0.8557
  719MOL0     C96946  10.726   4.859   9.553  0.0031  0.2609  1.1987
  719MOL0     N96947  10.837   4.915   9.630  0.1432 -0.4057  0.0232
  719MOL0     C96948  10.856   5.053   9.643 -0.1484 -0.1647  0.6907
  719MOL0     C96949  10.934   5.065   9.750 -0.7871  0.4364 -0.2588
  719MOL0     C96950  10.980   5.187   9.825 -0.6229 -0.2762  0.1217
  719MOL0     C96951  11.064   5.266   9.721  0.2829 -0.1227 -0.0962
  719MOL0     C96952  11.162   5.380   9.787 -0.3033  0.9158 -0.6440
  719MOL0     C96953  11.270   5.313   9.865 -0.4588  0.6358 -0.7391
  719MOL0     O96954  11.303   5.369   9.990  0.7116  0.0250 -0.5958
  719MOL0     C96955  11.359   5.491  10.000 -0.9638  0.0973 -1.1348
  719MOL0     C96956  11.425   5.549   9.892 -0.0057  0.9509  0.5120
  719MOL0     C96957  11.484   5.670   9.907 -0.2936 -0.8595  0.0289
  719MOL0     C96958  11.488   5.735  10.028  0.1258  0.4531 -0.0415
  719MOL0     C96959  11.573   5.851  10.049  0.7620  0.6042 -0.2750
  719MOL0     O96960  11.606   5.880  10.173 -0.4948 -0.1225 -0.1946
  719MOL0     C96961  11.697   5.969  10.211 -0.1670 -0.2616 -0.9122
  719MOL0     C96962  11.794   5.919  10.295 -0.6674 -0.8274 -0.6682
  719MOL0     C96963  11.903   6.003  10.327  0.1597 -1.1891 -0.3279
  719MOL0     C96964  11.913   6.129  10.276  0.2805 -1.0692 -0.3067
  719MOL0     O96965  12.016   6.208  10.324  0.6321  0.3829 -0.0265
  719MOL0     C96966  12.103   6.226  10.210 -0.0518  0.5629 -0.2658
  719MOL0     C96967  12.244   6.268  10.252  0.0627 -0.4675 -0.0161
  719MOL0     C96968  12.248   6.390  10.348 -1.3353 -0.6636 -0.0189
  719MOL0     C96969  12.393   6.451  10.358  0.3189  0.1215 -0.2047
  719MOL0     C96970  12.448   6.437  10.499  0.2990  0.9656 -0.0543
  719MOL0     C96971  12.596   6.468  10.509  0.0483  0.2452  0.2309
  719MOL0     C96972  12.674   6.344  10.445 -0.8950 -0.9486  0.8309
  719MOL0     C96973  12.827   6.357  10.426 -0.2908 -0.2576 -0.2647
  719MOL0    Cl96974  12.894   6.264  10.277 -0.0061  0.0631 -0.3018
  719MOL0     C96975  11.817   6.176  10.189  0.4286 -0.0060 -0.8042
  719MOL0     C96976  11.709   6.095  10.160 -1.2127  0.7577 -1.2795
  719MOL0     O96977  11.628   5.896   9.952  0.1753  0.4885  0.2834
  719MOL0     C96978  11.428   5.680  10.135  0.7017  0.7585  0.6583
  719MOL0     C96979  11.372   5.551  10.129 -1.0162  1.0552  0.1866
  719MOL0     N96980  10.976   4.934   9.791  0.3112 -0.1058  0.6273
  719MOL0     N96981  10.911   4.848   9.722  0.4531  0.1932 -0.0338
  719MOL0     C96982   9.627   4.688   9.772  0.0957  0.6764  0.7770
  719MOL0     C96983   9.515   4.683   9.845  0.1254 -0.2448 -0.4810
  719MOL0     C96984   9.215   4.746   9.785  0.6456 -0.2176 -0.1030
  719MOL0     C96985   9.180   4.612   9.760  0.2985  0.3254 -0.4336
  719MOL0     C96986   9.156   4.581   9.624 -0.1510 -0.6853 -0.5630
  719MOL0     C96987   9.169   4.671   9.522  0.2058 -0.3052 -0.6621
  719MOL0     O96988   9.127   4.627   9.403  0.1090  0.7134  0.6475
  719MOL0     C96989   9.147   4.704   9.283  1.1338  0.1294 -0.1618
  719MOL0     C96990   9.040   4.817   9.249 -0.1305  0.3025  0.0853
  719MOL0     C96991   8.899   4.766   9.237  0.3756  1.0435 -0.2526
  719MOL0     C96992   8.796   4.883   9.238  0.2015  0.2590  1.0925
  719MOL0     C96993   8.802   4.968   9.116  0.4913  0.3768  0.7423
  719MOL0     C96994   8.798   5.047   9.021  1.2151 -0.3276  0.4445
  719MOL0     C96995   9.204   4.803   9.559  0.8574  0.1334 -0.3235
  719MOL0     C96996   9.229   4.848   9.690 -0.2754  0.3867  0.1913
  719MOL0     C96997   9.236   4.992   9.722 -0.6026  0.8223 -0.5434
  719MOL0     H96998   9.487   4.995   9.966 -2.2407 -0.7182 -0.4153
  719MOL0     H96999   9.695   5.025   9.857  0.2840  0.6240  3.0632
  719MOL0     H97000   9.874   5.010   9.707  1.8746 -0.9280 -1.4400
  719MOL0     H97001   9.930   4.918   9.848  0.0595 -2.5675  0.7324
  719MOL0     H97002  10.015   4.901   9.546 -1.4113 -0.3556 -0.5018
  719MOL0     H97003  10.075   4.795   9.675 -0.5539  0.1948  0.7273
  719MOL0     H97004  10.167   4.995   9.809  0.6994 -1.1498 -0.3739
  719MOL0     H97005  10.105   5.110   9.690 -1.1551 -0.2235 -0.0988
  719MOL0     H97006  10.289   4.921   9.566 -0.5228 -0.7247  0.7362
  719MOL0     H97007  10.288   5.095   9.548 -0.5698 -1.8671  0.3666
  719MOL0     H97008  10.402   5.138   9.741 -0.7430  0.0632 -0.5202
  719MOL0     H97009  10.403   4.964   9.797 -0.5641  1.2704  1.5617
  719MOL0     H97010  10.489   5.019   9.517  1.4967  0.9034 -0.1895
  719MOL0     H97011  10.605   5.084   9.638  0.6772 -0.2523  2.3269
  719MOL0     H97012  10.508   4.806   9.570  0.4030 -0.1627 -0.6478
  719MOL0     H97013  10.619   4.816   9.710  0.4744  1.4879  0.8108
  719MOL0     H97014  10.752   4.752   9.555 -2.0543 -0.2792  2.0532
  719MOL0     H97015  10.719   4.905   9.455  0.7799  1.0871  1.5155
  719MOL0     H97016  10.806   5.133   9.590  0.6068  0.7139  1.2680
  719MOL0     H97017  10.889   5.242   9.850 -0.2454  0.3001  0.2452
  719MOL0     H97018  11.031   5.151   9.914 -1.4114 -0.3051  0.5659
  719MOL0     H97019  11.129   5.204   9.659 -1.3143  0.3986 -2.3912
  719MOL0     H97020  10.992   5.318   9.657 -0.2307 -1.7102 -0.8508
  719MOL0     H97021  11.107   5.460   9.839  1.5299  1.7551  0.0778
  719MOL0     H97022  11.205   5.427   9.699  0.0950  1.6117 -0.0957
  719MOL0     H97023  11.367   5.297   9.817  0.2805  0.7273  0.6693
  719MOL0     H97024  11.247   5.211   9.900  2.9800  0.1246  0.4148
  719MOL0     H97025  11.416   5.504   9.794 -4.1238  3.9339 -0.7905
  719MOL0     H97026  11.536   5.712   9.821  0.0157  2.3735  1.6658
  719MOL0     H97027  11.791   5.821  10.341 -1.6988 -0.5767 -0.1781
  719MOL0     H97028  11.983   5.964  10.389  1.6067  1.7086 -0.1699
  719MOL0     H97029  12.112   6.132  10.155 -1.2503  0.9694 -1.2007
  719MOL0     H97030  12.065   6.296  10.135 -1.4670  0.0534 -0.0416
  719MOL0     H97031  12.296   6.182  10.297  2.0229  0.6807  0.0246
  719MOL0     H97032  12.292   6.303  10.160  1.3487  1.8108  1.4336
  719MOL0     H97033  12.175   6.466  10.320  0.2851  1.4300  1.1552
  719MOL0     H97034  12.204   6.359  10.443 -1.3480  0.6530  0.4219
  719MOL0     H97035  12.379   6.560  10.348 -3.4101 -0.3332 -2.0144
  719MOL0     H97036  12.438   6.416  10.265 -4.4891 -0.0354 -2.8115
  719MOL0     H97037  12.435   6.338  10.542  0.7087  2.0448  2.7926
  719MOL0     H97038  12.394   6.500  10.570 -0.8798  0.5162 -0.5254
  719MOL0     H97039  12.611   6.566  10.463 -0.1070 -0.3210 -1.0565
  719MOL0     H97040  12.616   6.466  10.617  1.2373 -1.0459  0.0062
  719MOL0     H97041  12.644   6.326  10.341 -1.1803  0.9871  0.5455
  719MOL0     H97042  12.639   6.256  10.501 -3.4505 -1.6559 -1.6065
  719MOL0     H97043  12.834   6.464  10.401  2.3236  0.1614  1.8124
  719MOL0     H97044  12.878   6.337  10.521 -1.5204  4.2611  1.6468
  719MOL0     H97045  11.823   6.277  10.149  1.2509  0.3447  0.1394
  719MOL0     H97046  11.642   6.127  10.081  0.5983  0.6146 -2.9510
  719MOL0     H97047  11.420   5.721  10.235 -0.0906 -0.9169  1.3206
  719MOL0     H97048  11.337   5.489  10.211  0.6904 -1.9666 -1.2100
  719MOL0     H97049   9.654   4.600   9.713  0.4189  1.7758 -0.7982
  719MOL0     H97050   9.461   4.589   9.834  1.3909 -0.7772 -2.6728
  719MOL0     H97051   9.161   4.531   9.830  0.3463 -1.2172 -2.1498
  719MOL0     H97052   9.133   4.477   9.601 -0.1453 -1.7750  3.6029
  719MOL0     H97053   9.147   4.632   9.200  0.0871  1.8345 -1.7192
  719MOL0     H97054   9.250   4.740   9.282  0.9451  0.9539  2.6403
  719MOL0     H97055   9.078   4.860   9.156 -0.0445 -0.9225 -0.4633
  719MOL0     H97056   9.055   4.889   9.330  0.2010 -0.7154  0.9411
  719MOL0     H97057   8.892   4.697   9.321  1.1604  0.7835 -0.3985
  719MOL0     H97058   8.881   4.707   9.147  0.3567 -0.0853  0.4732
  719MOL0     H97059   8.693   4.848   9.241  0.3935 -0.5625 -0.8246
  719MOL0     H97060   8.814   4.945   9.326  2.9540 -2.0587  2.3632
  719MOL0     H97061   8.808   5.112   8.936  0.5754 -0.8294 -0.0246
  719MOL0     H97062   9.218   4.881   9.485 -1.1025 -0.1008 -1.0031
  719MOL0     H97063   9.254   5.054   9.633 -3.5546  1.0986 -1.0360
  719MOL0     H97064   9.149   5.037   9.770 -0.1022  1.3350 -0.0969
  719MOL0     H97065   9.311   5.002   9.801 -0.8129 -0.6729 -0.1179
  720MOL0     O97066   3.172   6.018   5.849 -0.1851 -0.2392  0.6204
  720MOL0     C97067   3.160   5.915   5.908  0.5043  1.6108 -0.0247
  720MOL0     O97068   3.264   5.853   5.976  0.2209  0.3385  0.5708
  720MOL0     C97069   3.391   5.898   5.961 -0.1284 -0.5011 -0.4685
  720MOL0     C97070   3.466   5.855   5.850  0.8365 -0.8733 -0.4756
  720MOL0     C97071   3.600   5.901   5.836 -0.6217  0.3132  0.3247
  720MOL0     C97072   3.668   5.967   5.935  0.0839  0.4280 -0.5394
  720MOL0     O97073   3.803   5.985   5.918 -0.1344 -0.4927  0.0460
  720MOL0     C97074   3.847   6.128   5.944  0.5767  1.2215  0.7543
  720MOL0     C97075   3.978   6.148   5.864  0.3519  1.0559 -0.4177
  720MOL0     C97076   4.016   6.296   5.879  0.7540  0.4218 -0.6763
  720MOL0     C97077   4.069   6.347   5.752 -1.2138 -0.2969  0.2869
  720MOL0     C97078   4.119   6.493   5.784  0.3510 -0.3898 -0.0779
  720MOL0     C97079   4.199   6.552   5.667  0.0759  0.5730 -0.3317
  720MOL0     C97080   4.261   6.683   5.710  0.4598  0.5229  0.9114
  720MOL0     C97081   4.296   6.766   5.592 -0.1243 -0.4584 -0.2334
  720MOL0     N97082   4.405   6.720   5.511  1.7972  0.5006 -0.5234
  720MOL0     C97083   4.389   6.630   5.409  0.1588  0.1881 -0.2100
  720MOL0     C97084   4.504   6.580   5.393 -0.4484 -0.4319 -0.1239
  720MOL0     C97085   4.542   6.471   5.294 -0.3679  0.1132  0.4049
  720MOL0     C97086   4.501   6.331   5.338  0.2442 -0.7606  0.0707
  720MOL0     C97087   4.528   6.229   5.225 -0.2467 -0.2666  0.3772
  720MOL0     C97088   4.431   6.259   5.112  0.7179  0.5312 -0.3502
  720MOL0     O97089   4.487   6.316   4.989 -0.2243  0.7085  0.5094
  720MOL0     C97090   4.587   6.248   4.916  0.2025  0.3467 -0.2401
  720MOL0     C97091   4.620   6.113   4.946 -0.7268 -0.4194 -0.8602
  720MOL0     C97092   4.721   6.046   4.867  0.3783 -0.6427 -0.6605
  720MOL0     C97093   4.807   6.124   4.785  0.1148 -0.0614 -0.0286
  720MOL0     C97094   4.922   6.064   4.717 -0.4733  0.7780  0.3399
  720MOL0     O97095   4.956   5.936   4.763  0.2933 -1.0693 -0.1567
  720MOL0     C97096   5.063   5.880   4.696 -0.4356 -0.1719  0.2567
  720MOL0     C97097   5.189   5.856   4.756 -0.9680  0.6234 -0.3172
  720MOL0     C97098   5.303   5.809   4.687 -1.0188 -0.3919  0.9167
  720MOL0     C97099   5.290   5.789   4.547 -0.2193 -0.2370  0.2298
  720MOL0     O97100   5.406   5.755   4.485 -0.1769 -1.4732 -0.1133
  720MOL0     C97101   5.415   5.737   4.344  0.0855 -0.0093  0.1976
  720MOL0     C97102   5.353   5.613   4.281  0.9479 -0.0581  0.3934
  720MOL0     C97103   5.405   5.494   4.348 -0.5900  0.4091  0.0477
  720MOL0     C97104   5.370   5.365   4.264  0.4771 -0.6155  0.1073
  720MOL0     C97105   5.391   5.245   4.355  0.1409 -0.4102 -0.0919
  720MOL0     C97106   5.352   5.116   4.278  0.0489 -0.5336  0.6460
  720MOL0     C97107   5.378   4.990   4.362 -0.5835  0.1975 -0.0554
  720MOL0     C97108   5.531   4.957   4.372  0.6058  0.6442 -0.2838
  720MOL0    Cl97109   5.549   4.789   4.425 -0.3467  0.2590  0.0334
  720MOL0     C97110   5.168   5.820   4.481  0.2176 -0.2331 -0.2850
  720MOL0     C97111   5.054   5.867   4.552  0.2627  0.5107 -0.1926
  720MOL0     O97112   4.991   6.136   4.651  0.0002 -0.3958  0.6593
  720MOL0     C97113   4.780   6.261   4.779 -1.2675  0.4633  0.3839
  720MOL0     C97114   4.662   6.316   4.829 -0.5020 -0.5354 -0.0775
  720MOL0     N97115   4.593   6.629   5.488  0.3735 -0.2865  0.3812
  720MOL0     N97116   4.529   6.713   5.562 -0.4233 -0.2050 -0.1643
  720MOL0     C97117   3.594   6.005   6.049  0.5722  0.2381  0.1840
  720MOL0     C97118   3.458   5.978   6.057  0.0846  0.6568  0.7104
  720MOL0     C97119   3.027   5.845   5.907 -0.2812 -0.8369  0.2560
  720MOL0     C97120   2.928   5.871   5.821  0.7076  0.1268  0.4970
  720MOL0     C97121   2.805   5.809   5.824 -0.5554  0.8105 -0.2796
  720MOL0     C97122   2.773   5.718   5.926 -0.3220 -1.0204  0.6776
  720MOL0     O97123   2.652   5.670   5.918  0.2418 -0.1171 -0.0131
  720MOL0     C97124   2.611   5.564   6.010 -0.4258 -0.4840 -1.0526
  720MOL0     C97125   2.665   5.432   5.951  0.3769 -0.4424  0.0003
  720MOL0     C97126   2.649   5.313   6.042  0.8251  0.6105  0.4385
  720MOL0     C97127   2.525   5.223   6.019 -0.3658  0.5226  0.1079
  720MOL0     C97128   2.407   5.282   6.079  0.4410 -0.2515  0.5700
  720MOL0     C97129   2.305   5.317   6.128 -0.3055 -0.3895  0.2455
  720MOL0     C97130   2.871   5.680   6.018 -0.0868 -0.0349  0.2696
  720MOL0     C97131   3.003   5.745   6.013 -0.2891  0.9979  0.5573
  720MOL0     C97132   3.104   5.697   6.126  0.1152  0.2028 -0.1942
  720MOL0     H97133   3.412   5.786   5.786 -0.5967 -1.8233  1.6669
  720MOL0     H97134   3.656   5.876   5.746 -2.4680 -0.4624 -0.6487
  720MOL0     H97135   3.782   6.207   5.904 -0.4936  0.4583  0.9426
  720MOL0     H97136   3.876   6.123   6.049  1.7536 -1.0122  0.3886
  720MOL0     H97137   3.954   6.128   5.759  2.2135  1.4833 -0.9718
  720MOL0     H97138   4.060   6.084   5.897  0.9559  3.3975  3.1155
  720MOL0     H97139   4.096   6.305   5.953  1.6255 -3.7244 -0.8884
  720MOL0     H97140   3.931   6.363   5.899  0.4605  0.0985 -0.8284
  720MOL0     H97141   4.147   6.283   5.710  0.4753  3.2138 -2.5410
  720MOL0     H97142   3.985   6.354   5.682 -2.0016 -1.4381  1.0689
  720MOL0     H97143   4.030   6.557   5.792  0.0686 -0.3755 -2.4991
  720MOL0     H97144   4.197   6.487   5.860  2.4985  2.1605 -1.8678
  720MOL0     H97145   4.280   6.485   5.635 -0.0679  1.0744 -1.8528
  720MOL0     H97146   4.132   6.572   5.583 -2.0666  4.0188  1.9333
  720MOL0     H97147   4.347   6.666   5.776 -0.5778 -1.7369  1.7956
  720MOL0     H97148   4.189   6.744   5.765  0.5817  1.5927 -0.0780
  720MOL0     H97149   4.214   6.794   5.525 -0.6017  0.5100  0.7150
  720MOL0     H97150   4.321   6.862   5.638 -0.1353 -0.2281 -0.6938
  720MOL0     H97151   4.300   6.604   5.354  0.5681 -0.8458 -0.4078
  720MOL0     H97152   4.501   6.483   5.194 -0.0829 -0.4576  0.2142
  720MOL0     H97153   4.649   6.481   5.279 -0.2340  1.5437  1.9372
  720MOL0     H97154   4.570   6.309   5.419  1.1391  2.9423  0.5219
  720MOL0     H97155   4.396   6.325   5.370 -0.0962 -1.6600 -1.1569
  720MOL0     H97156   4.502   6.138   5.282  1.6966 -1.9715 -1.3100
  720MOL0     H97157   4.632   6.237   5.193 -0.1845 -0.1933  0.5907
  720MOL0     H97158   4.353   6.329   5.145  1.9827  0.8445  2.1903
  720MOL0     H97159   4.381   6.168   5.080 -1.7715  1.3853  0.8702
  720MOL0     H97160   4.565   6.049   5.015 -0.0291 -0.8708 -0.7072
  720MOL0     H97161   4.719   5.940   4.887  2.1992 -1.0034 -2.1063
  720MOL0     H97162   5.197   5.883   4.861 -3.9901  1.6471 -0.2581
  720MOL0     H97163   5.404   5.808   4.727 -0.6031  2.6372  0.1363
  720MOL0     H97164   5.383   5.834   4.305 -0.8174  0.5105  2.0583
  720MOL0     H97165   5.520   5.722   4.319  0.2285  1.6409 -0.2902
  720MOL0     H97166   5.247   5.607   4.308  0.8020 -0.4047 -0.2225
  720MOL0     H97167   5.352   5.614   4.171 -4.4747  0.6152  0.1700
  720MOL0     H97168   5.512   5.509   4.365 -0.2488 -1.7321  0.0478
  720MOL0     H97169   5.368   5.488   4.451  4.5632  1.6355  2.2948
  720MOL0     H97170   5.423   5.357   4.168  0.4362 -2.3646  0.1959
  720MOL0     H97171   5.263   5.371   4.242  0.2441 -0.6713  1.1854
  720MOL0     H97172   5.328   5.261   4.443  0.2277  0.8475 -0.2266
  720MOL0     H97173   5.493   5.233   4.392  0.0331  2.6248  1.5421
  720MOL0     H97174   5.247   5.125   4.249  0.4813  1.7767 -0.3755
  720MOL0     H97175   5.413   5.111   4.188  2.2573  3.4056  1.6917
  720MOL0     H97176   5.320   4.905   4.325  0.3810 -0.0712 -1.0093
  720MOL0     H97177   5.348   5.006   4.466  0.6286 -0.7700  0.4646
  720MOL0     H97178   5.573   4.963   4.271  0.2071  0.5753 -0.4553
  720MOL0     H97179   5.582   5.032   4.433  2.2330 -2.6672  2.8221
  720MOL0     H97180   5.156   5.804   4.374  3.8684  0.5240 -0.9291
  720MOL0     H97181   4.966   5.879   4.489  0.2922  1.4621 -0.0577
  720MOL0     H97182   4.843   6.320   4.713 -1.2554 -0.0706 -0.0862
  720MOL0     H97183   4.634   6.417   4.801  0.2412 -0.9690 -2.6502
  720MOL0     H97184   3.639   6.064   6.129  1.2366  1.0855 -0.7889
  720MOL0     H97185   3.405   6.006   6.148 -1.2964 -0.5352  0.3065
  720MOL0     H97186   2.951   5.932   5.734  2.7559 -3.7732 -1.9848
  720MOL0     H97187   2.734   5.832   5.746 -0.6189  0.4130 -0.3417
  720MOL0     H97188   2.502   5.565   6.009 -0.4197  0.4036 -1.5408
  720MOL0     H97189   2.650   5.584   6.111  0.9967 -3.6955 -0.8345
  720MOL0     H97190   2.768   5.450   5.919 -0.8162 -0.6426 -4.6116
  720MOL0     H97191   2.613   5.417   5.856  3.2874 -0.3894 -1.7260
  720MOL0     H97192   2.654   5.349   6.145 -1.2868  4.4665 -0.6194
  720MOL0     H97193   2.745   5.261   6.036  2.2410  3.2867 -2.7130
  720MOL0     H97194   2.500   5.200   5.915  0.9882  1.6208 -0.4903
  720MOL0     H97195   2.543   5.123   6.059 -0.1702 -1.2276 -3.9124
  720MOL0     H97196   2.220   5.362   6.175 -0.3814  2.5627 -2.3324
  720MOL0     H97197   2.855   5.608   6.098 -2.9693 -0.1283 -0.2780
  720MOL0     H97198   3.059   5.612   6.178  2.0423 -0.3178  0.6963
  720MOL0     H97199   3.194   5.645   6.092 -2.8495 -5.3454 -0.7627
  720MOL0     H97200   3.125   5.763   6.211  1.4364 -3.0571  2.2356
  721MOL0     O97201   5.476   6.265   9.197 -0.3377  0.7015  0.3663
  721MOL0     C97202   5.391   6.298   9.279  0.2555 -0.2612  0.1976
  721MOL0     O97203   5.257   6.267   9.260 -0.2307 -0.4336 -1.0305
  721MOL0     C97204   5.211   6.177   9.173 -0.4379  0.3757 -0.2819
  721MOL0     C97205   5.127   6.072   9.215  0.5836  0.0814 -1.2095
  721MOL0     C97206   5.072   5.980   9.115  0.0536 -0.3765 -0.0180
  721MOL0     C97207   5.112   5.992   8.983 -0.2378  0.9086 -1.2838
  721MOL0     O97208   5.078   5.894   8.889 -0.3894 -0.3679  0.3090
  721MOL0     C97209   5.173   5.841   8.801  1.0833  0.0729 -0.6117
  721MOL0     C97210   5.127   5.696   8.760 -0.2010 -0.4781 -0.2913
  721MOL0     C97211   4.997   5.710   8.664  0.2332  0.4261 -0.9092
  721MOL0     C97212   4.920   5.580   8.679  0.2320  0.0451 -0.5206
  721MOL0     C97213   4.776   5.567   8.615  0.1236 -0.1275  0.4627
  721MOL0     C97214   4.713   5.427   8.633 -0.0023  0.2152 -0.0073
  721MOL0     C97215   4.613   5.400   8.515  0.1204 -0.3265  0.2908
  721MOL0     C97216   4.676   5.301   8.409  0.0474  0.0587 -0.9700
  721MOL0     N97217   4.576   5.265   8.315  0.1221 -0.2074 -0.7163
  721MOL0     C97218   4.604   5.194   8.197 -0.0479 -0.0450 -0.8859
  721MOL0     C97219   4.488   5.182   8.140  0.0718 -0.4301 -0.0396
  721MOL0     C97220   4.471   5.122   8.012  0.2554  0.0762  0.6645
  721MOL0     C97221   4.468   4.969   8.027 -0.6341 -0.0283  0.6784
  721MOL0     C97222   4.572   4.897   8.105 -0.4534  1.5409 -0.4329
  721MOL0     C97223   4.554   4.741   8.112  0.3846 -0.3174  0.3158
  721MOL0     O97224   4.555   4.666   7.990  0.7366 -0.7803  0.1006
  721MOL0     C97225   4.611   4.540   8.006 -0.3610  0.3403  0.3744
  721MOL0     C97226   4.587   4.452   8.113 -0.4628  0.3052 -0.3579
  721MOL0     C97227   4.670   4.341   8.131 -0.4952 -0.3659 -0.0879
  721MOL0     C97228   4.754   4.291   8.037  0.2059  0.6319  0.8476
  721MOL0     C97229   4.815   4.155   8.046 -0.3169 -0.5010 -0.1269
  721MOL0     O97230   4.837   4.090   7.924  0.3845 -0.2706 -0.2417
  721MOL0     C97231   4.895   3.967   7.938  0.2922 -0.2317  0.6732
  721MOL0     C97232   5.013   3.944   8.006  1.0188 -0.1059 -0.0163
  721MOL0     C97233   5.067   3.810   7.992  0.2372 -0.0539 -0.3709
  721MOL0     C97234   5.011   3.715   7.913  0.0121  0.0876  0.9259
  721MOL0     O97235   5.092   3.610   7.893 -0.9416 -0.0060 -0.2313
  721MOL0     C97236   5.063   3.507   7.805 -0.2447 -0.3676 -0.4915
  721MOL0     C97237   5.149   3.387   7.849 -0.1866 -0.6009 -0.0118
  721MOL0     C97238   5.097   3.258   7.779  0.5844 -0.4442  0.8423
  721MOL0     C97239   5.208   3.173   7.726 -0.3612 -0.5677  0.3037
  721MOL0     C97240   5.255   3.215   7.581 -0.8197  0.8314  0.3253
  721MOL0     C97241   5.400   3.158   7.542  0.7920  0.0733  1.3666
  721MOL0     C97242   5.424   3.167   7.390  0.9204  0.5990 -0.1587
  721MOL0     C97243   5.435   3.307   7.339  0.7576 -0.1804 -0.5580
  721MOL0    Cl97244   5.565   3.388   7.439  0.0510  0.0227  0.0416
  721MOL0     C97245   4.901   3.746   7.835 -0.0889 -0.2970 -0.5645
  721MOL0     C97246   4.842   3.875   7.846 -0.2255  0.6147 -0.1053
  721MOL0     O97247   4.833   4.110   8.157  0.0440  0.5314 -0.1356
  721MOL0     C97248   4.758   4.358   7.913 -0.2780 -0.3301 -0.7789
  721MOL0     C97249   4.683   4.486   7.895 -0.3529  0.7759 -0.0206
  721MOL0     N97250   4.388   5.235   8.216 -0.1007  0.0000  0.2475
  721MOL0     N97251   4.445   5.290   8.316  0.1053  0.3553  0.4922
  721MOL0     C97252   5.196   6.091   8.943 -0.3465 -0.1586 -0.4803
  721MOL0     C97253   5.247   6.181   9.038  0.0789  0.0025  0.6044
  721MOL0     C97254   5.414   6.408   9.373  0.2710  0.2404 -0.1671
  721MOL0     C97255   5.306   6.487   9.416  0.5656 -0.8511  0.1821
  721MOL0     C97256   5.325   6.597   9.511 -0.0773  0.2199  0.3103
  721MOL0     C97257   5.451   6.625   9.559  0.5243 -0.4593 -0.7694
  721MOL0     O97258   5.447   6.730   9.653  0.0970  0.6237  0.6039
  721MOL0     C97259   5.556   6.780   9.724  0.0565  0.1076 -0.2673
  721MOL0     C97260   5.487   6.831   9.845  0.9144  0.2306 -0.9418
  721MOL0     C97261   5.419   6.721   9.928  0.0994 -0.1303 -0.3321
  721MOL0     C97262   5.361   6.778  10.059 -0.5483 -0.0192 -0.5079
  721MOL0     C97263   5.283   6.669  10.118 -0.6452 -0.6966 -0.1087
  721MOL0     C97264   5.219   6.571  10.149 -0.1150  0.1007 -0.7070
  721MOL0     C97265   5.562   6.542   9.528  0.0345  0.6383 -1.0802
  721MOL0     C97266   5.541   6.443   9.431 -0.6850 -0.3841  0.7848
  721MOL0     C97267   5.669   6.361   9.401 -0.0613 -0.4459 -0.1036
  721MOL0     H97268   5.096   6.053   9.317 -0.3586 -1.4150 -1.7367
  721MOL0     H97269   5.005   5.900   9.147  0.6615 -0.7880  0.2543
  721MOL0     H97270   5.187   5.896   8.708  2.4669  1.5080  0.3947
  721MOL0     H97271   5.268   5.850   8.854  0.2773 -1.2194  1.1580
  721MOL0     H97272   5.109   5.647   8.856 -3.7968  1.8786  0.4776
  721MOL0     H97273   5.208   5.642   8.712  0.0982 -2.3464  2.1456
  721MOL0     H97274   5.045   5.709   8.566  2.0447 -4.0164 -0.2189
  721MOL0     H97275   4.939   5.801   8.684 -0.2783 -0.4146  1.9236
  721MOL0     H97276   4.985   5.499   8.644  0.2731 -0.7774  1.3219
  721MOL0     H97277   4.895   5.567   8.785 -0.4351  1.7693 -0.4454
  721MOL0     H97278   4.709   5.644   8.655  0.0361  0.3053 -0.4872
  721MOL0     H97279   4.798   5.604   8.515 -0.0299 -1.8993 -0.2552
  721MOL0     H97280   4.782   5.342   8.628  0.0047  0.1024  1.5498
  721MOL0     H97281   4.651   5.439   8.723 -1.0655  1.3182 -0.8550
  721MOL0     H97282   4.583   5.499   8.479 -5.2741 -1.9964 -0.6730
  721MOL0     H97283   4.524   5.351   8.557 -0.5300 -1.3377 -2.0896
  721MOL0     H97284   4.767   5.339   8.360 -0.7524 -0.6514 -3.1576
  721MOL0     H97285   4.711   5.215   8.466 -2.9245 -0.3493  0.3966
  721MOL0     H97286   4.695   5.150   8.157 -0.8422 -2.4290 -0.1893
  721MOL0     H97287   4.370   5.150   7.980 -0.4941 -1.9742  1.0393
  721MOL0     H97288   4.547   5.155   7.941  1.3167  0.3860  1.9032
  721MOL0     H97289   4.365   4.946   8.054 -0.4748  1.3646  2.6466
  721MOL0     H97290   4.482   4.940   7.922  0.7304  0.0039  0.8341
  721MOL0     H97291   4.565   4.929   8.209 -1.4399 -1.9287  0.7288
  721MOL0     H97292   4.671   4.922   8.064 -0.2151  3.0135  0.9302
  721MOL0     H97293   4.454   4.711   8.146  0.5420 -0.2176  0.8867
  721MOL0     H97294   4.637   4.704   8.173 -2.0202 -3.0149  2.2588
  721MOL0     H97295   4.520   4.475   8.195  0.2139  1.5009 -0.1090
  721MOL0     H97296   4.649   4.274   8.214 -1.9874 -1.1192 -1.0231
  721MOL0     H97297   5.076   4.016   8.058  4.1682 -2.2183 -0.6254
  721MOL0     H97298   5.156   3.785   8.048  1.5219  0.3977 -2.1379
  721MOL0     H97299   4.959   3.472   7.812  0.5584 -3.0856 -0.8564
  721MOL0     H97300   5.085   3.535   7.702  0.7663  0.2273 -0.1269
  721MOL0     H97301   5.250   3.409   7.814 -0.3600  1.2362  0.5270
  721MOL0     H97302   5.150   3.376   7.958  2.7843 -2.1718 -0.0738
  721MOL0     H97303   5.039   3.204   7.854  1.7333 -1.5890  0.9251
  721MOL0     H97304   5.035   3.294   7.696 -1.8455  1.1062  3.1619
  721MOL0     H97305   5.171   3.070   7.730 -0.2531 -0.6738 -1.0761
  721MOL0     H97306   5.286   3.181   7.802  2.2358 -0.6707 -2.1871
  721MOL0     H97307   5.266   3.324   7.575  1.3028  0.9173  3.3850
  721MOL0     H97308   5.179   3.186   7.508 -0.1218 -1.9465  0.6110
  721MOL0     H97309   5.477   3.217   7.591  0.6932 -0.6294  2.4012
  721MOL0     H97310   5.411   3.050   7.556  1.3136 -0.1386 -0.4219
  721MOL0     H97311   5.334   3.121   7.347 -1.2678  2.8796  1.6304
  721MOL0     H97312   5.516   3.119   7.356  1.9882  3.9622 -2.6633
  721MOL0     H97313   5.462   3.321   7.234 -0.7818  0.3317 -0.9111
  721MOL0     H97314   5.342   3.364   7.349 -0.7097 -2.5865  0.3257
  721MOL0     H97315   4.865   3.677   7.759  0.1339 -1.9929  0.8252
  721MOL0     H97316   4.752   3.895   7.789  0.0489 -1.6622 -1.4508
  721MOL0     H97317   4.809   4.319   7.825 -1.8157 -2.3171 -0.8784
  721MOL0     H97318   4.689   4.528   7.795 -2.2890  0.0361 -0.4920
  721MOL0     H97319   5.238   6.096   8.843  1.4393 -3.6805 -0.0691
  721MOL0     H97320   5.292   6.271   8.997 -1.6443  0.8706  0.4876
  721MOL0     H97321   5.208   6.470   9.373  1.0487 -1.1664 -0.8118
  721MOL0     H97322   5.244   6.664   9.539 -0.2870 -0.9371  2.6513
  721MOL0     H97323   5.617   6.859   9.678  3.0349 -0.5065  2.3370
  721MOL0     H97324   5.626   6.701   9.749 -1.3399 -0.5404  1.8767
  721MOL0     H97325   5.412   6.902   9.808  0.7653 -0.5251 -2.1475
  721MOL0     H97326   5.556   6.886   9.910 -0.2759  1.7971 -0.9466
  721MOL0     H97327   5.500   6.651   9.951  0.5423  0.4151 -0.2079
  721MOL0     H97328   5.340   6.676   9.867 -1.5513 -1.1073  2.3599
  721MOL0     H97329   5.438   6.831  10.117  0.0135  0.3764 -1.6031
  721MOL0     H97330   5.289   6.855  10.031 -2.3085 -1.8411 -1.1984
  721MOL0     H97331   5.155   6.485  10.160 -0.4696  0.2179 -1.7564
  721MOL0     H97332   5.651   6.544   9.590  0.2782 -4.1284 -0.9698
  721MOL0     H97333   5.706   6.397   9.305 -2.9939 -1.1206 -1.5966
  721MOL0     H97334   5.745   6.376   9.479 -2.0203 -1.4863  2.1506
  721MOL0     H97335   5.644   6.255   9.392 -1.1634 -0.1070 -1.3079
  722MOL0     O97336   3.042   3.664   5.654 -0.6355  1.0439 -0.2850
  722MOL0     C97337   3.063   3.713   5.544 -0.1319 -0.1842  0.0746
  722MOL0     O97338   3.176   3.718   5.486  0.0189  0.5684  0.4068
  722MOL0     C97339   3.289   3.647   5.510  0.2648  0.2620 -0.4094
  722MOL0     C97340   3.398   3.667   5.420  0.2681 -0.0642  0.3609
  722MOL0     C97341   3.526   3.621   5.443  0.0194 -0.3762 -1.3516
  722MOL0     C97342   3.558   3.561   5.568 -0.3893  1.0255 -0.5133
  722MOL0     O97343   3.680   3.510   5.599 -0.1600  0.2409 -0.0342
  722MOL0     C97344   3.777   3.483   5.492  0.2542 -0.5066 -0.2766
  722MOL0     C97345   3.866   3.604   5.454  0.7301 -0.4593 -0.0638
  722MOL0     C97346   4.005   3.566   5.395 -0.2924 -1.0333 -0.1473
  722MOL0     C97347   4.074   3.688   5.340 -1.2735  0.7872  0.0576
  722MOL0     C97348   4.191   3.666   5.245 -0.4019 -0.5488 -0.4153
  722MOL0     C97349   4.302   3.579   5.300 -0.9476 -0.0162 -0.3802
  722MOL0     C97350   4.373   3.505   5.184  0.8550  0.1094 -0.7869
  722MOL0     C97351   4.471   3.597   5.112 -0.1845  0.2585 -1.2794
  722MOL0     N97352   4.407   3.687   5.023  0.0783  0.6035 -0.8684
  722MOL0     C97353   4.403   3.820   5.035 -0.7220 -0.3880  0.5965
  722MOL0     C97354   4.301   3.859   4.943 -0.3898 -0.2125  0.3188
  722MOL0     C97355   4.246   4.004   4.920 -0.7374 -0.1559 -0.1968
  722MOL0     C97356   4.344   4.087   4.833  0.2906 -0.8629  0.9753
  722MOL0     C97357   4.266   4.197   4.772 -0.6213  0.9032  0.1932
  722MOL0     C97358   4.357   4.255   4.667 -0.0778 -0.7180  1.1375
  722MOL0     O97359   4.321   4.390   4.635 -0.7027  0.7630 -0.2513
  722MOL0     C97360   4.395   4.467   4.548 -0.0776 -1.0940 -0.8327
  722MOL0     C97361   4.353   4.594   4.534  0.4318 -0.0620 -0.2907
  722MOL0     C97362   4.426   4.687   4.458  0.7346 -0.3266 -0.0786
  722MOL0     C97363   4.548   4.657   4.404  0.2139  0.3884  0.5962
  722MOL0     C97364   4.622   4.753   4.323 -0.4190 -0.2778  0.0099
  722MOL0     O97365   4.729   4.707   4.263  0.2304 -0.6539  0.4775
  722MOL0     C97366   4.817   4.803   4.220 -0.6083  0.6023  0.3324
  722MOL0     C97367   4.856   4.924   4.276 -0.6412  0.0414  0.1568
  722MOL0     C97368   4.955   5.004   4.227  0.5885  0.6302  0.7527
  722MOL0     C97369   5.017   4.979   4.107 -0.5303 -0.2894 -0.0303
  722MOL0     O97370   5.088   5.085   4.069 -0.5239 -0.1018  0.3571
  722MOL0     C97371   5.130   5.083   3.932 -0.3926  0.3562  0.1931
  722MOL0     C97372   5.267   5.017   3.902  0.8403 -0.0126 -0.0179
  722MOL0     C97373   5.318   5.044   3.757  0.1886  0.2174 -0.2146
  722MOL0     C97374   5.354   5.193   3.737  0.4163  0.5752 -0.0624
  722MOL0     C97375   5.429   5.259   3.850 -0.4077  0.0454 -0.0010
  722MOL0     C97376   5.473   5.404   3.802  0.0434 -0.0739 -0.3186
  722MOL0     C97377   5.600   5.453   3.879  0.5485  0.1718  0.1908
  722MOL0     C97378   5.660   5.585   3.817  0.3124 -0.8332 -0.5371
  722MOL0    Cl97379   5.750   5.543   3.656  0.2505 -0.0265  0.1509
  722MOL0     C97380   4.975   4.862   4.037  0.3728 -0.8140 -0.6148
  722MOL0     C97381   4.879   4.778   4.093  0.3394 -0.2018 -0.3915
  722MOL0     O97382   4.590   4.873   4.314 -0.2457  0.6039  0.5275
  722MOL0     C97383   4.593   4.526   4.420  0.0211  1.6113 -0.1203
  722MOL0     C97384   4.520   4.434   4.494  0.3061 -0.0514 -0.2636
  722MOL0     N97385   4.238   3.751   4.895  0.6006  0.1054  0.1459
  722MOL0     N97386   4.296   3.650   4.950  0.5860  0.5393 -1.2391
  722MOL0     C97387   3.451   3.541   5.658  0.9975 -0.9433 -0.3253
  722MOL0     C97388   3.315   3.575   5.631 -0.3656 -0.4953  0.7657
  722MOL0     C97389   2.960   3.803   5.477 -0.1256 -0.1784  0.1853
  722MOL0     C97390   3.000   3.884   5.374 -0.4075 -0.5203 -0.2495
  722MOL0     C97391   2.904   3.963   5.299 -0.7000  0.2739 -0.0113
  722MOL0     C97392   2.773   3.968   5.336 -0.2895 -0.4209  0.1230
  722MOL0     O97393   2.678   4.024   5.254 -0.1267 -0.8376  0.7348
  722MOL0     C97394   2.546   4.042   5.314 -0.9430 -0.5223 -0.0197
  722MOL0     C97395   2.468   4.127   5.234 -0.2038  0.6629  0.2224
  722MOL0     C97396   2.324   4.124   5.263  0.0556 -0.4879 -0.0087
  722MOL0     C97397   2.249   4.227   5.176 -0.3192  0.6962  0.3915
  722MOL0     C97398   2.219   4.349   5.243  0.5408 -0.6503  0.6674
  722MOL0     C97399   2.212   4.455   5.304 -0.4074 -0.2355 -0.0673
  722MOL0     C97400   2.734   3.881   5.440 -0.6051  0.1803  0.6935
  722MOL0     C97401   2.821   3.802   5.516 -0.9616  0.4306  0.6458
  722MOL0     C97402   2.751   3.727   5.632 -0.2360 -0.4372  0.0559
  722MOL0     H97403   3.380   3.729   5.333  1.5964  0.2509  0.2886
  722MOL0     H97404   3.600   3.634   5.364  0.2788 -1.8759 -1.3773
  722MOL0     H97405   3.831   3.393   5.525 -1.6582 -2.0090 -1.0803
  722MOL0     H97406   3.726   3.430   5.411  0.5892  1.0359 -1.5453
  722MOL0     H97407   3.887   3.651   5.550  2.3454 -1.4119  0.1004
  722MOL0     H97408   3.811   3.680   5.397 -1.7732 -2.8490 -1.0648
  722MOL0     H97409   3.976   3.489   5.323 -0.9682 -4.1078  3.1344
  722MOL0     H97410   4.069   3.521   5.471 -0.9146  0.7960  1.5483
  722MOL0     H97411   4.005   3.762   5.299 -1.2900  0.5074 -0.4244
  722MOL0     H97412   4.098   3.739   5.434 -2.7120 -0.3196  1.0692
  722MOL0     H97413   4.146   3.635   5.150 -2.8758  0.4946  0.3401
  722MOL0     H97414   4.226   3.768   5.229 -1.6839 -0.3489 -2.0930
  722MOL0     H97415   4.376   3.635   5.359  2.3525 -4.1381 -0.1525
  722MOL0     H97416   4.263   3.506   5.371  3.5535  0.0910  2.6494
  722MOL0     H97417   4.307   3.454   5.112  0.2526  1.5853 -1.3190
  722MOL0     H97418   4.429   3.422   5.228  0.9418  0.6384  0.1153
  722MOL0     H97419   4.532   3.658   5.179 -3.3375  2.9702 -0.6659
  722MOL0     H97420   4.535   3.540   5.043  1.2109  0.4701 -0.1963
  722MOL0     H97421   4.447   3.887   5.108 -0.2869  2.4837 -2.1274
  722MOL0     H97422   4.152   3.991   4.865 -0.7774  0.1729 -0.2089
  722MOL0     H97423   4.238   4.066   5.010 -1.8080 -1.8965  0.9911
  722MOL0     H97424   4.419   4.126   4.901 -0.5067  2.9445 -0.1074
  722MOL0     H97425   4.396   4.025   4.760 -0.1912 -1.5142  1.1703
  722MOL0     H97426   4.251   4.269   4.853  1.9167  0.9669  0.6803
  722MOL0     H97427   4.169   4.164   4.736 -0.7210  0.4028  0.8940
  722MOL0     H97428   4.350   4.197   4.575  0.1063 -3.1336  2.5578
  722MOL0     H97429   4.458   4.235   4.704  0.7448 -1.9116 -1.5046
  722MOL0     H97430   4.252   4.619   4.564  0.4841  0.4743 -0.5613
  722MOL0     H97431   4.385   4.785   4.436 -3.2344 -2.0893 -1.4263
  722MOL0     H97432   4.819   4.948   4.375  0.9518  0.0543  0.7812
  722MOL0     H97433   4.970   5.100   4.275 -0.8933  1.4046 -0.2478
  722MOL0     H97434   5.051   5.049   3.865  0.1518 -0.2391 -0.1680
  722MOL0     H97435   5.151   5.188   3.911 -0.2431  0.4552  0.8347
  722MOL0     H97436   5.349   5.053   3.966  1.3094 -1.4413  0.2181
  722MOL0     H97437   5.264   4.908   3.914  0.5624 -0.2283 -1.7265
  722MOL0     H97438   5.413   4.989   3.761  0.0338 -0.1911 -1.5980
  722MOL0     H97439   5.252   5.005   3.679 -0.2606  2.1053 -0.8319
  722MOL0     H97440   5.265   5.253   3.714  2.1957  2.1501 -3.6274
  722MOL0     H97441   5.413   5.197   3.645  0.5710 -0.3495 -0.0075
  722MOL0     H97442   5.519   5.198   3.865 -0.8161 -0.8130 -0.9128
  722MOL0     H97443   5.361   5.268   3.936 -2.9916 -1.6650 -1.7198
  722MOL0     H97444   5.507   5.402   3.698  0.3493 -3.3545 -0.2540
  722MOL0     H97445   5.391   5.475   3.807  0.2426  0.0951  1.3826
  722MOL0     H97446   5.679   5.378   3.886 -0.3764 -0.7001  1.6734
  722MOL0     H97447   5.575   5.486   3.980  0.0903  1.2054 -0.2475
  722MOL0     H97448   5.576   5.651   3.792 -0.0760 -1.5437 -1.1264
  722MOL0     H97449   5.723   5.642   3.887 -1.6083 -0.7561  1.2162
  722MOL0     H97450   5.025   4.837   3.944 -0.5423 -1.6478 -0.8942
  722MOL0     H97451   4.851   4.688   4.039  2.2899  1.2253 -4.1648
  722MOL0     H97452   4.691   4.509   4.378 -0.6410  1.8875 -1.8685
  722MOL0     H97453   4.564   4.336   4.509 -0.8463 -0.7874 -1.4770
  722MOL0     H97454   3.470   3.512   5.761 -0.2351 -0.6333  0.0129
  722MOL0     H97455   3.239   3.561   5.707 -0.4121 -0.7362  0.6761
  722MOL0     H97456   3.102   3.890   5.337  1.0169  1.5794  3.5028
  722MOL0     H97457   2.934   4.034   5.222 -0.1117  0.0679  0.0208
  722MOL0     H97458   2.556   4.080   5.416 -0.3921  1.9479 -0.9283
  722MOL0     H97459   2.499   3.944   5.325  0.2168 -0.9742  1.3138
  722MOL0     H97460   2.486   4.104   5.129  0.6119  1.6298  0.1395
  722MOL0     H97461   2.501   4.230   5.251 -2.4075  1.1792  1.8418
  722MOL0     H97462   2.303   4.149   5.368 -0.5371 -0.9431 -0.0138
  722MOL0     H97463   2.269   4.030   5.264  0.2504 -0.6074  1.1670
  722MOL0     H97464   2.303   4.253   5.084  0.4820  0.5205  0.8006
  722MOL0     H97465   2.154   4.178   5.153  0.4276  0.6991 -3.2372
  722MOL0     H97466   2.203   4.541   5.368  5.1612  1.8793 -1.5577
  722MOL0     H97467   2.629   3.878   5.467 -0.8206 -0.4844 -0.1858
  722MOL0     H97468   2.655   3.774   5.655  1.1237  1.8370  1.5219
  722MOL0     H97469   2.741   3.622   5.605 -0.6168 -0.7164  1.2465
  722MOL0     H97470   2.817   3.729   5.719  2.4203 -2.0448 -1.7689
  723MOL0     O97471  10.404   8.281   5.905 -0.1735  0.5890 -0.0424
  723MOL0     C97472  10.415   8.362   5.998  0.3231  0.3058 -0.0453
  723MOL0     O97473  10.438   8.497   5.986  0.3182 -0.5126  0.0062
  723MOL0     C97474  10.452   8.559   5.859  0.7460 -0.4496  0.3793
  723MOL0     C97475  10.349   8.587   5.775  1.3647  1.4731 -0.6722
  723MOL0     C97476  10.355   8.649   5.651  0.0088  0.5457 -0.5926
  723MOL0     C97477  10.479   8.698   5.619  0.0335  0.4410 -0.1170
  723MOL0     O97478  10.483   8.765   5.503  0.2112  1.0630  0.0496
  723MOL0     C97479  10.590   8.851   5.477  0.0250 -0.6042  0.1533
  723MOL0     C97480  10.556   8.928   5.348  1.0529 -0.6389  0.1532
  723MOL0     C97481  10.491   9.060   5.377  0.3904 -0.5938 -0.8263
  723MOL0     C97482  10.489   9.158   5.250 -0.1704  1.1930 -0.1739
  723MOL0     C97483  10.427   9.295   5.260 -0.1625  0.6524  0.5440
  723MOL0     C97484  10.305   9.314   5.341  0.1514  0.2456 -0.6646
  723MOL0     C97485  10.179   9.251   5.271  0.0972 -0.5073 -0.0038
  723MOL0     C97486  10.107   9.371   5.205  0.6666 -0.1979  0.1142
  723MOL0     N97487   9.988   9.330   5.122  0.2626 -0.7305 -0.5182
  723MOL0     C97488   9.982   9.330   4.983  0.5245  0.7493  0.2958
  723MOL0     C97489   9.858   9.274   4.955  0.3641  0.3894 -0.1629
  723MOL0     C97490   9.816   9.241   4.817 -0.9250 -0.2448 -0.7158
  723MOL0     C97491   9.808   9.093   4.782  0.5479 -0.6192  0.9110
  723MOL0     C97492   9.773   9.090   4.626  0.0843  0.1425 -0.7882
  723MOL0     C97493   9.783   8.948   4.575  0.4362  0.7465 -0.1498
  723MOL0     O97494   9.690   8.872   4.650  0.2891 -0.2223  0.2961
  723MOL0     C97495   9.662   8.742   4.611  0.1071 -0.0629  0.8255
  723MOL0     C97496   9.762   8.655   4.571 -0.7768 -0.7538  0.4611
  723MOL0     C97497   9.734   8.528   4.529 -0.0725  0.3609  0.1143
  723MOL0     C97498   9.608   8.475   4.544  0.1003  0.0187  0.8190
  723MOL0     C97499   9.585   8.341   4.497  0.5189  0.4333  0.1340
  723MOL0     O97500   9.703   8.272   4.457  0.1160 -0.0752  0.0773
  723MOL0     C97501   9.688   8.140   4.436  0.1552 -0.5738 -0.1707
  723MOL0     C97502   9.674   8.105   4.305 -0.1538 -0.0627  0.4016
  723MOL0     C97503   9.657   7.968   4.270 -1.0022  0.5004 -0.7159
  723MOL0     C97504   9.661   7.877   4.375 -0.1501  0.8967  0.4881
  723MOL0     O97505   9.641   7.745   4.332  0.2603  0.3511  0.1772
  723MOL0     C97506   9.649   7.644   4.435  0.6270  0.0294 -0.8398
  723MOL0     C97507   9.646   7.506   4.367 -0.2808 -1.1417  0.2965
  723MOL0     C97508   9.786   7.451   4.318 -0.0632  0.0227 -0.7447
  723MOL0     C97509   9.762   7.333   4.234  0.6473  0.3204  0.0734
  723MOL0     C97510   9.899   7.297   4.176  0.0824  0.4646  0.4117
  723MOL0     C97511   9.929   7.153   4.142 -0.7401 -0.4713 -0.1017
  723MOL0     C97512  10.074   7.132   4.101 -0.5852 -1.2223 -0.3555
  723MOL0     C97513  10.087   7.023   3.996 -0.8672  0.5885 -0.2262
  723MOL0    Cl97514  10.262   6.995   3.984 -0.0663 -0.1177 -0.1865
  723MOL0     C97515   9.673   7.916   4.511 -0.0471  0.5095  0.5880
  723MOL0     C97516   9.687   8.050   4.539 -0.4850 -0.7432 -0.6054
  723MOL0     O97517   9.471   8.286   4.500  0.3352 -0.5103 -0.3251
  723MOL0     C97518   9.503   8.554   4.596 -0.5097 -0.9491  0.2762
  723MOL0     C97519   9.528   8.690   4.634 -0.6237 -0.4868  0.8199
  723MOL0     N97520   9.787   9.258   5.073 -0.5519  0.2509 -0.3719
  723MOL0     N97521   9.868   9.286   5.170 -0.2659 -0.1477 -0.4297
  723MOL0     C97522  10.598   8.671   5.706  0.8252  0.7169 -0.5651
  723MOL0     C97523  10.574   8.604   5.825  0.5271  0.2423  0.6006
  723MOL0     C97524  10.404   8.322   6.142 -0.6987 -0.1607  0.0217
  723MOL0     C97525  10.510   8.238   6.193 -0.5711  0.0056 -0.0226
  723MOL0     C97526  10.503   8.200   6.321 -0.2316  0.3811 -1.1911
  723MOL0     C97527  10.399   8.243   6.408  0.9077  0.2900 -0.5303
  723MOL0     O97528  10.398   8.192   6.539 -0.1513 -0.2607 -0.0083
  723MOL0     C97529  10.448   8.268   6.639  0.8418  0.1655 -0.4798
  723MOL0     C97530  10.323   8.301   6.709  0.3915  0.5694 -0.5370
  723MOL0     C97531  10.341   8.327   6.855  0.1889 -0.0760  0.4096
  723MOL0     C97532  10.362   8.216   6.956  0.3486 -1.2551  0.1292
  723MOL0     C97533  10.234   8.157   6.989 -0.3906  0.0485 -0.7484
  723MOL0     C97534  10.121   8.109   6.987 -0.5815 -0.5585 -0.3209
  723MOL0     C97535  10.303   8.335   6.364  0.8128 -0.7575 -0.1857
  723MOL0     C97536  10.302   8.367   6.225 -0.0549 -0.4769  0.4859
  723MOL0     C97537  10.191   8.447   6.164  0.5752  0.7920 -0.4845
  723MOL0     H97538  10.252   8.552   5.810  1.2012  0.8497 -1.7020
  723MOL0     H97539  10.275   8.679   5.584 -0.7735  0.0744  0.1135
  723MOL0     H97540  10.604   8.930   5.550 -0.1402  1.0898 -1.5700
  723MOL0     H97541  10.675   8.785   5.456 -0.6372 -0.5529 -3.4393
  723MOL0     H97542  10.491   8.867   5.285 -1.1026  0.8693  0.8266
  723MOL0     H97543  10.654   8.960   5.312  1.5742 -0.6233  1.5030
  723MOL0     H97544  10.540   9.118   5.455 -2.1517 -0.4237  0.7545
  723MOL0     H97545  10.390   9.039   5.412  0.0958 -0.3942 -1.5373
  723MOL0     H97546  10.588   9.170   5.206 -1.0756  1.4450 -2.3085
  723MOL0     H97547  10.428   9.107   5.174  0.9037 -1.7989  0.8415
  723MOL0     H97548  10.501   9.362   5.303  0.4016 -0.3540  1.1915
  723MOL0     H97549  10.407   9.334   5.160  3.3404 -3.0309 -1.9448
  723MOL0     H97550  10.314   9.271   5.441 -3.7537  0.7282  0.0847
  723MOL0     H97551  10.274   9.412   5.376 -3.9184 -0.3659 -1.9785
  723MOL0     H97552  10.123   9.201   5.350  1.2171 -0.1770  1.0334
  723MOL0     H97553  10.208   9.183   5.191  2.1760  1.0906 -0.6973
  723MOL0     H97554  10.066   9.439   5.280  0.7478 -1.5262  1.4111
  723MOL0     H97555  10.181   9.429   5.150  2.7257  0.0995  2.9518
  723MOL0     H97556  10.050   9.363   4.905  0.3034  1.5357  0.4299
  723MOL0     H97557   9.718   9.287   4.802  0.8460  4.1481 -0.2471
  723MOL0     H97558   9.868   9.309   4.749 -1.3972  0.2390 -0.6047
  723MOL0     H97559   9.905   9.045   4.799  2.3508  2.4203 -0.0000
  723MOL0     H97560   9.729   9.043   4.839  1.2404 -2.1888  0.5470
  723MOL0     H97561   9.841   9.159   4.576 -1.6692  1.5247 -1.3564
  723MOL0     H97562   9.671   9.123   4.608 -0.4897 -1.6564 -1.0028
  723MOL0     H97563   9.885   8.908   4.582 -0.0447 -0.3304  1.6374
  723MOL0     H97564   9.750   8.951   4.471 -2.2402  0.8639  0.6340
  723MOL0     H97565   9.867   8.681   4.560 -1.2576  0.0737 -4.1234
  723MOL0     H97566   9.817   8.473   4.487  0.4533  0.1666  1.3728
  723MOL0     H97567   9.681   8.185   4.231 -2.8788 -1.9294 -2.1276
  723MOL0     H97568   9.645   7.930   4.169  1.0863  0.9981 -1.2157
  723MOL0     H97569   9.738   7.657   4.496  0.4722 -3.4458  0.3234
  723MOL0     H97570   9.561   7.663   4.497  0.7416 -0.1286 -0.6300
  723MOL0     H97571   9.593   7.434   4.431 -0.9633 -0.8015  0.1247
  723MOL0     H97572   9.581   7.522   4.281 -0.2607 -0.8694  0.3310
  723MOL0     H97573   9.843   7.523   4.258  1.3237 -0.7212 -0.3599
  723MOL0     H97574   9.841   7.414   4.405 -0.3354  1.7489  0.1940
  723MOL0     H97575   9.688   7.346   4.154 -1.1611 -4.0602  0.7612
  723MOL0     H97576   9.735   7.249   4.298  0.2912  1.6657  1.7321
  723MOL0     H97577   9.965   7.323   4.259  1.5561  0.5593 -0.7297
  723MOL0     H97578   9.911   7.361   4.088 -0.4542 -0.8922 -0.6732
  723MOL0     H97579   9.911   7.091   4.231 -1.0899 -0.0623  0.1143
  723MOL0     H97580   9.861   7.119   4.064 -0.9803 -0.6519  0.1825
  723MOL0     H97581  10.144   7.106   4.181 -0.6982  2.7982  1.3149
  723MOL0     H97582  10.108   7.223   4.050 -1.5698 -0.7049 -0.1207
  723MOL0     H97583  10.037   6.934   4.036 -3.1876  2.4603  1.3584
  723MOL0     H97584  10.038   7.037   3.898 -1.7511 -1.6558 -0.1506
  723MOL0     H97585   9.666   7.845   4.593  1.0143  2.0645  2.1062
  723MOL0     H97586   9.706   8.091   4.638 -3.4650  2.4895 -1.2075
  723MOL0     H97587   9.399   8.523   4.603 -1.4271  0.6604 -3.5145
  723MOL0     H97588   9.446   8.746   4.679 -3.0412 -1.4208 -2.0712
  723MOL0     H97589  10.699   8.698   5.678  1.0806 -0.4528 -0.8209
  723MOL0     H97590  10.648   8.583   5.901 -0.9631  2.9235  2.9595
  723MOL0     H97591  10.597   8.210   6.135  0.7840 -1.0590  2.3598
  723MOL0     H97592  10.567   8.126   6.368 -0.7101  0.4875 -0.3570
  723MOL0     H97593  10.499   8.360   6.608  1.7947 -0.3754 -0.5493
  723MOL0     H97594  10.506   8.201   6.702  2.5860  3.8046  2.1860
  723MOL0     H97595  10.247   8.223   6.703 -1.9157  2.5196  1.2053
  723MOL0     H97596  10.283   8.390   6.659  1.1586  0.0879 -2.0705
  723MOL0     H97597  10.247   8.378   6.876  1.3316  3.7672 -2.4924
  723MOL0     H97598  10.409   8.410   6.874  0.8575 -0.4645 -0.2081
  723MOL0     H97599  10.446   8.151   6.929 -0.0828 -1.2559 -1.2683
  723MOL0     H97600  10.387   8.266   7.051  0.5474 -0.3495 -0.3870
  723MOL0     H97601  10.036   8.043   6.982 -2.0128  0.7526  3.2242
  723MOL0     H97602  10.236   8.390   6.429  2.3696 -0.9310  1.6410
  723MOL0     H97603  10.208   8.474   6.060 -1.2271  0.2534 -0.9716
  723MOL0     H97604  10.091   8.403   6.172 -0.1002  2.3853  0.3517
  723MOL0     H97605  10.188   8.537   6.227  3.2429  0.7275 -0.1741
  724MOL0     O97606   8.077   9.933   7.056 -0.1204 -0.4874 -0.6300
  724MOL0     C97607   8.100   9.805   7.065  0.2880 -1.0737 -0.1497
  724MOL0     O97608   8.196   9.737   6.992  0.0346 -0.0264 -0.0970
  724MOL0     C97609   8.301   9.788   6.939  0.1969  0.1666 -0.1936
  724MOL0     C97610   8.309   9.806   6.805 -0.1831  0.5554 -0.6744
  724MOL0     C97611   8.422   9.852   6.745 -0.1302  0.3673 -0.5454
  724MOL0     C97612   8.536   9.891   6.827  0.2429 -0.7888 -0.3519
  724MOL0     O97613   8.650   9.936   6.772  0.0574 -1.1489  0.1862
  724MOL0     C97614   8.734  10.027   6.843 -0.5480  0.4423 -0.4511
  724MOL0     C97615   8.819  10.122   6.760 -1.2181  0.5558 -0.1524
  724MOL0     C97616   8.932  10.034   6.700  0.1707 -0.0851 -0.6903
  724MOL0     C97617   9.031  10.110   6.622  0.8984 -0.3102 -0.1575
  724MOL0     C97618   9.136  10.008   6.557  0.2357  0.2512  0.2693
  724MOL0     C97619   9.087   9.931   6.429  0.0159  0.1236  0.5671
  724MOL0     C97620   9.198   9.827   6.389 -0.6788 -0.2684 -0.3227
  724MOL0     C97621   9.169   9.766   6.256 -0.5232  0.4324  0.8725
  724MOL0     N97622   9.214   9.843   6.144 -0.5251  0.3419  0.0324
  724MOL0     C97623   9.346   9.884   6.129  0.6363  0.1837 -0.3991
  724MOL0     C97624   9.357   9.963   6.020  0.7465 -0.1564 -0.5425
  724MOL0     C97625   9.479  10.017   5.952 -0.0232 -0.6163  0.6423
  724MOL0     C97626   9.493   9.967   5.806 -0.1955  0.8170  1.0176
  724MOL0     C97627   9.630   9.980   5.750  0.4935  0.7199  0.2401
  724MOL0     C97628   9.749   9.919   5.822 -0.1979  1.1361  0.3863
  724MOL0     O97629   9.748   9.775   5.844 -0.6114  0.4714  1.3385
  724MOL0     C97630   9.865   9.722   5.906 -0.7100  0.2676 -0.8421
  724MOL0     C97631   9.990   9.791   5.918  0.1225 -0.2107  0.2277
  724MOL0     C97632  10.094   9.738   5.987 -0.5658  0.5489 -0.8295
  724MOL0     C97633  10.096   9.607   6.037  0.4629  0.7283 -0.6469
  724MOL0     C97634  10.208   9.560   6.109 -0.2116 -0.0547 -0.5755
  724MOL0     O97635  10.174   9.468   6.200  0.3124  0.5436  0.2809
  724MOL0     C97636  10.273   9.401   6.265  0.3809 -0.2905 -0.0131
  724MOL0     C97637  10.284   9.437   6.398 -0.7218 -0.0265  0.1926
  724MOL0     C97638  10.381   9.366   6.471  0.5649 -1.1505  0.6906
  724MOL0     C97639  10.477   9.293   6.407 -0.3728 -0.0612 -0.9970
  724MOL0     O97640  10.584   9.257   6.482  0.9018 -0.3258  0.1721
  724MOL0     C97641  10.550   9.182   6.605 -0.1502 -0.2340  0.3402
  724MOL0     C97642  10.679   9.125   6.678  0.1799  0.6502 -0.6176
  724MOL0     C97643  10.785   9.222   6.733 -0.6278 -0.2189 -0.1205
  724MOL0     C97644  10.880   9.154   6.834 -0.3816  0.0524 -0.4689
  724MOL0     C97645  10.991   9.244   6.871 -0.6543 -0.4085 -1.2422
  724MOL0     C97646  10.945   9.356   6.968  0.7770 -0.5577 -0.5862
  724MOL0     C97647  11.054   9.459   6.991 -0.1220  1.1014 -0.2752
  724MOL0     C97648  11.016   9.596   7.044 -0.9790 -0.7289  0.0627
  724MOL0    Cl97649  11.179   9.681   7.061 -0.5371 -0.0400  0.0478
  724MOL0     C97650  10.474   9.265   6.272  0.3115  0.1372 -0.0073
  724MOL0     C97651  10.369   9.316   6.200  0.0128 -0.3915 -0.2061
  724MOL0     O97652  10.320   9.592   6.072 -0.2907  0.1491  0.3193
  724MOL0     C97653   9.977   9.533   6.003 -0.4147 -0.7983  0.3195
  724MOL0     C97654   9.866   9.590   5.944  0.2649  0.4736 -0.1306
  724MOL0     N97655   9.233   9.977   5.967 -0.7738 -0.3151  0.6715
  724MOL0     N97656   9.149   9.914   6.047  0.7357  0.2880  0.5638
  724MOL0     C97657   8.522   9.875   6.972  0.2017 -0.4031 -0.3001
  724MOL0     C97658   8.407   9.817   7.025  0.1521 -0.5474 -0.3897
  724MOL0     C97659   8.006   9.703   7.135 -0.3209  0.1015  0.0216
  724MOL0     C97660   8.045   9.563   7.142 -0.0340  0.3668 -0.7715
  724MOL0     C97661   7.963   9.461   7.201 -0.5370 -0.7836 -0.1065
  724MOL0     C97662   7.847   9.500   7.269  0.4280 -0.5338  0.4306
  724MOL0     O97663   7.770   9.412   7.342  0.0012 -0.1534 -0.0223
  724MOL0     C97664   7.779   9.268   7.336 -0.6924 -0.1901 -0.3454
  724MOL0     C97665   7.692   9.212   7.452  0.0668 -0.3978 -1.1015
  724MOL0     C97666   7.733   9.254   7.591  0.0488  0.5066 -0.0108
  724MOL0     C97667   7.885   9.246   7.612 -0.5313  0.4348  0.8180
  724MOL0     C97668   7.915   9.220   7.751 -0.8724  0.1204 -0.6183
  724MOL0     C97669   7.948   9.241   7.871  0.4329  0.2201  0.5514
  724MOL0     C97670   7.805   9.632   7.259  0.4905 -0.7343 -1.3385
  724MOL0     C97671   7.876   9.728   7.196 -0.8363  0.1068 -0.0293
  724MOL0     C97672   7.838   9.873   7.205  0.1724  0.0675  0.0578
  724MOL0     H97673   8.220   9.799   6.742  1.0784 -1.0795 -2.3972
  724MOL0     H97674   8.433   9.862   6.637 -0.5526  1.9358 -0.4803
  724MOL0     H97675   8.676  10.092   6.910  0.6037  0.6956  0.3280
  724MOL0     H97676   8.805   9.968   6.902 -1.7758  1.4370  2.1947
  724MOL0     H97677   8.872  10.206   6.806  0.7215  0.1883 -1.5809
  724MOL0     H97678   8.763  10.153   6.671 -0.1903 -3.8108 -2.5931
  724MOL0     H97679   8.898   9.952   6.637  2.3446 -1.5800 -0.0420
  724MOL0     H97680   8.993   9.997   6.783 -0.2868 -2.8215 -1.5005
  724MOL0     H97681   8.982  10.173   6.547  0.5867  0.7422  0.8949
  724MOL0     H97682   9.085  10.182   6.685 -0.3714 -0.3212  0.9721
  724MOL0     H97683   9.221  10.065   6.519 -0.8585  0.7522 -1.5543
  724MOL0     H97684   9.171   9.934   6.631 -1.1605  1.1651  1.9229
  724MOL0     H97685   8.994   9.874   6.442  1.9453 -2.8398  2.4602
  724MOL0     H97686   9.067   9.997   6.344  0.3014  0.7403  0.9811
  724MOL0     H97687   9.192   9.744   6.460 -0.8071 -0.0148 -0.0342
  724MOL0     H97688   9.293   9.879   6.397 -1.6562  1.7183 -0.9492
  724MOL0     H97689   9.206   9.665   6.241  1.1734  1.1231  0.1822
  724MOL0     H97690   9.060   9.759   6.255 -0.4214 -2.0281  1.5044
  724MOL0     H97691   9.417   9.863   6.208 -1.2087  1.0820  1.6048
  724MOL0     H97692   9.477  10.126   5.964  1.0910 -0.6761  1.4171
  724MOL0     H97693   9.564   9.992   6.016 -1.0016 -1.2618  1.7393
  724MOL0     H97694   9.467   9.860   5.809 -1.7379  1.0722 -1.1559
  724MOL0     H97695   9.420  10.022   5.745  0.6775 -0.0720 -0.9292
  724MOL0     H97696   9.655  10.086   5.753  4.1634  0.1864 -2.9662
  724MOL0     H97697   9.633   9.951   5.645 -2.2536  1.1240  0.0009
  724MOL0     H97698   9.775   9.978   5.910  0.7971  0.3936  0.6070
  724MOL0     H97699   9.831   9.943   5.754 -0.2934  0.1993 -0.0747
  724MOL0     H97700  10.001   9.891   5.879  2.5465 -1.3816 -2.4108
  724MOL0     H97701  10.182   9.798   6.008  1.0588 -1.7938 -0.6603
  724MOL0     H97702  10.227   9.517   6.444 -0.8169 -1.5276  2.9104
  724MOL0     H97703  10.377   9.395   6.576 -1.3079  2.0324 -0.1177
  724MOL0     H97704  10.505   9.250   6.678  0.3143 -0.8928  1.2737
  724MOL0     H97705  10.482   9.100   6.580  0.0062 -0.3343  0.2449
  724MOL0     H97706  10.642   9.066   6.763 -0.9390  0.7612 -1.0156
  724MOL0     H97707  10.718   9.053   6.605 -2.2100 -0.3855 -0.9498
  724MOL0     H97708  10.841   9.260   6.647 -2.1240 -1.6185 -1.7931
  724MOL0     H97709  10.738   9.300   6.794  0.9989 -1.7085  3.3626
  724MOL0     H97710  10.922   9.063   6.791  0.4486  0.5618 -0.7506
  724MOL0     H97711  10.814   9.133   6.919 -1.1993 -1.4654 -1.4424
  724MOL0     H97712  11.040   9.294   6.787  1.4358 -0.0330  0.1459
  724MOL0     H97713  11.063   9.181   6.924 -0.5457  0.4859 -0.3003
  724MOL0     H97714  10.867   9.415   6.919  0.3040 -2.1557 -1.8562
  724MOL0     H97715  10.900   9.308   7.055  3.2641 -2.0558 -0.0188
  724MOL0     H97716  11.099   9.482   6.894  1.3094 -2.2998 -0.5467
  724MOL0     H97717  11.117   9.411   7.066 -1.4598 -0.5170 -0.1471
  724MOL0     H97718  10.952   9.634   6.963  0.5605 -0.1214 -0.9334
  724MOL0     H97719  10.959   9.591   7.136 -1.1128  1.5532  0.1659
  724MOL0     H97720  10.548   9.201   6.225  1.5062 -0.1797  2.1782
  724MOL0     H97721  10.368   9.315   6.091  0.9474  1.8287 -0.2961
  724MOL0     H97722   9.980   9.428   6.028 -2.7738 -0.9693  0.0910
  724MOL0     H97723   9.782   9.526   5.922  0.6243  0.3977 -1.3609
  724MOL0     H97724   8.605   9.905   7.036  0.6256  1.3883 -1.6116
  724MOL0     H97725   8.401   9.811   7.133  2.4295  1.9207 -0.0188
  724MOL0     H97726   8.133   9.530   7.087 -0.4416 -2.4573  0.1259
  724MOL0     H97727   7.980   9.354   7.204 -0.1259 -0.8141 -2.1370
  724MOL0     H97728   7.883   9.243   7.361 -0.2289 -0.4719 -2.3481
  724MOL0     H97729   7.752   9.221   7.241 -0.0366 -0.1486 -0.5572
  724MOL0     H97730   7.706   9.104   7.448 -1.2312 -0.8888  2.9318
  724MOL0     H97731   7.588   9.236   7.428  0.1558 -0.5822 -1.6740
  724MOL0     H97732   7.670   9.186   7.648 -5.3141  3.1445 -2.0711
  724MOL0     H97733   7.693   9.355   7.604 -0.7226 -0.0493  2.3855
  724MOL0     H97734   7.928   9.168   7.550  3.2567  2.8382  0.0754
  724MOL0     H97735   7.940   9.331   7.570 -0.3620 -0.5559 -1.0776
  724MOL0     H97736   7.979   9.275   7.967  4.3750  0.8110 -0.7456
  724MOL0     H97737   7.710   9.660   7.303 -0.9979 -1.7749 -3.6996
  724MOL0     H97738   7.754   9.890   7.274 -1.0012 -0.3822 -1.2066
  724MOL0     H97739   7.920   9.940   7.230 -0.2846  0.4811  0.4881
  724MOL0     H97740   7.800   9.897   7.105  3.5211 -0.4939 -1.4943
  725MOL0     O97741  11.456   7.708   7.927  0.4433  0.2199 -0.2343
  725MOL0     C97742  11.442   7.733   8.049 -0.8597 -0.5265  0.4160
  725MOL0     O97743  11.356   7.834   8.099  1.1023  0.3020 -0.6115
  725MOL0     C97744  11.275   7.899   8.007  0.0793 -0.0419 -0.1395
  725MOL0     C97745  11.333   7.990   7.916 -0.4011 -0.9734  0.6782
  725MOL0     C97746  11.250   8.063   7.831  0.5061 -0.1762 -0.1557
  725MOL0     C97747  11.110   8.043   7.846  0.3794 -0.2881  0.5350
  725MOL0     O97748  11.014   8.094   7.762 -0.6264 -0.2184 -0.0840
  725MOL0     C97749  11.040   8.225   7.702  0.0448 -0.6980  0.3640
  725MOL0     C97750  11.057   8.190   7.555  0.9673  0.0084 -0.0097
  725MOL0     C97751  11.099   8.306   7.469 -0.0919  0.2780 -0.2308
  725MOL0     C97752  11.143   8.255   7.332  0.1912  0.3914 -0.0890
  725MOL0     C97753  11.174   8.370   7.237  0.5599  0.0980 -0.4491
  725MOL0     C97754  11.100   8.337   7.104  0.2324  0.2969  0.0149
  725MOL0     C97755  11.088   8.451   7.006 -1.1871  0.3019 -0.3018
  725MOL0     C97756  11.028   8.404   6.868  0.2602  0.3837  0.6751
  725MOL0     N97757  10.903   8.465   6.845  0.1469 -0.0144 -0.6254
  725MOL0     C97758  10.885   8.575   6.777  0.0390  0.0926  0.6721
  725MOL0     C97759  10.753   8.602   6.792  0.5172  0.7586 -0.2856
  725MOL0     C97760  10.684   8.734   6.747 -0.2315  0.3526 -0.2138
  725MOL0     C97761  10.527   8.745   6.775  0.1847  0.0535 -0.7098
  725MOL0     C97762  10.458   8.691   6.647 -0.4533  0.4658 -0.0670
  725MOL0     C97763  10.311   8.730   6.648 -0.7118 -0.4013  0.4649
  725MOL0     O97764  10.279   8.866   6.634  0.9976  0.6237 -0.5469
  725MOL0     C97765  10.193   8.926   6.721  0.1535 -1.1521 -0.4636
  725MOL0     C97766  10.177   9.063   6.701 -0.0042 -0.7029  0.1242
  725MOL0     C97767  10.091   9.135   6.777 -0.0918 -0.5879 -0.2896
  725MOL0     C97768  10.012   9.080   6.887 -0.6373  0.2048  0.5713
  725MOL0     C97769   9.903   9.152   6.963 -0.2015  0.3549 -0.0687
  725MOL0     O97770   9.905   9.288   6.949  0.0758 -0.2627 -0.5218
  725MOL0     C97771   9.823   9.368   7.018  0.0510  0.3278 -0.2204
  725MOL0     C97772   9.842   9.381   7.156 -0.6418 -0.0858 -1.2260
  725MOL0     C97773   9.754   9.469   7.224 -0.2298 -0.6258  0.1629
  725MOL0     C97774   9.648   9.538   7.164 -0.7300 -0.3348 -0.5655
  725MOL0     O97775   9.581   9.629   7.242  0.1748  0.0595  0.5235
  725MOL0     C97776   9.443   9.677   7.203  0.0866  0.3846 -0.7160
  725MOL0     C97777   9.338   9.559   7.218 -0.8075 -0.4008 -0.5422
  725MOL0     C97778   9.342   9.486   7.349  0.5594  0.2712  0.1931
  725MOL0     C97779   9.268   9.356   7.326  0.6134  0.2693  0.7229
  725MOL0     C97780   9.235   9.289   7.456  0.1095 -0.3882 -1.2118
  725MOL0     C97781   9.357   9.281   7.562 -0.0869 -0.4762  0.4199
  725MOL0     C97782   9.321   9.184   7.673 -0.0112 -0.0459 -0.6614
  725MOL0     C97783   9.337   9.041   7.620 -1.2182 -0.4141  0.4710
  725MOL0    Cl97784   9.336   8.930   7.755  0.3407  0.0815 -0.3356
  725MOL0     C97785   9.629   9.511   7.030  0.1254 -0.5941  0.6075
  725MOL0     C97786   9.719   9.435   6.952 -0.6654 -0.0823  0.0825
  725MOL0     O97787   9.825   9.091   7.025 -0.1123  0.6587 -0.4529
  725MOL0     C97788  10.033   8.943   6.909  0.3505  0.7818 -0.1778
  725MOL0     C97789  10.113   8.871   6.825 -0.3173 -0.2528 -0.0887
  725MOL0     N97790  10.695   8.497   6.860  0.1934 -0.5048  1.1345
  725MOL0     N97791  10.785   8.411   6.885 -0.3233  0.5129  0.2441
  725MOL0     C97792  11.057   7.943   7.925  0.5127 -0.3890  0.3593
  725MOL0     C97793  11.138   7.877   8.012 -0.7865 -0.5850 -0.6644
  725MOL0     C97794  11.486   7.640   8.153 -0.2703  0.0872  0.2156
  725MOL0     C97795  11.427   7.646   8.287 -1.5860 -0.0709 -0.3609
  725MOL0     C97796  11.467   7.565   8.390 -1.0981 -0.0636 -0.0911
  725MOL0     C97797  11.561   7.463   8.361 -0.4301  0.1241 -0.1561
  725MOL0     O97798  11.609   7.388   8.463  0.0339 -0.3873  0.6503
  725MOL0     C97799  11.729   7.442   8.514 -0.0735  0.7147 -0.8062
  725MOL0     C97800  11.826   7.325   8.548 -0.3699  0.4654 -0.1765
  725MOL0     C97801  11.752   7.201   8.599  0.5124 -1.0796 -0.1595
  725MOL0     C97802  11.686   7.234   8.731 -0.9778 -0.3981 -0.5564
  725MOL0     C97803  11.638   7.107   8.782 -0.2259  0.3509 -0.0492
  725MOL0     C97804  11.605   7.006   8.841 -0.9352 -0.0200 -0.7169
  725MOL0     C97805  11.602   7.435   8.227  1.3882  0.4795 -0.6008
  725MOL0     C97806  11.573   7.529   8.124 -0.1951 -0.1161 -0.5545
  725MOL0     C97807  11.639   7.496   7.994  0.4920 -0.4980 -0.4667
  725MOL0     H97808  11.439   8.007   7.899 -0.9043  1.1215 -0.6822
  725MOL0     H97809  11.283   8.130   7.753  2.1177  1.0121  1.4615
  725MOL0     H97810  10.956   8.292   7.721 -2.3591 -2.4304 -3.1270
  725MOL0     H97811  11.132   8.273   7.737  0.9262 -0.8314 -1.6250
  725MOL0     H97812  10.961   8.144   7.528  0.2108  0.8142  1.2122
  725MOL0     H97813  11.132   8.111   7.547  0.4132 -0.4612 -0.6252
  725MOL0     H97814  11.178   8.358   7.523 -0.4861  0.5926  0.0448
  725MOL0     H97815  11.014   8.373   7.459 -1.9645 -1.7514  1.2649
  725MOL0     H97816  11.220   8.177   7.336  1.1042  1.2781  3.9685
  725MOL0     H97817  11.055   8.197   7.303  1.3594 -0.3201 -2.4987
  725MOL0     H97818  11.125   8.461   7.274 -2.5397 -1.2579 -0.9105
  725MOL0     H97819  11.282   8.373   7.223  0.6625 -0.4099  0.1855
  725MOL0     H97820  11.155   8.259   7.050  3.3821  2.6940 -0.5469
  725MOL0     H97821  11.000   8.300   7.129  0.3770 -0.1511 -0.0539
  725MOL0     H97822  11.187   8.485   6.976 -0.0540 -2.4190  0.0608
  725MOL0     H97823  11.031   8.540   7.032 -0.2289  1.3002 -1.4948
  725MOL0     H97824  11.100   8.440   6.794  0.9767 -1.5276  0.3934
  725MOL0     H97825  11.031   8.295   6.868 -0.8402  0.3383  1.0697
  725MOL0     H97826  10.955   8.643   6.730 -0.5827 -0.9494 -1.9111
  725MOL0     H97827  10.733   8.809   6.810 -1.9936  0.0268  1.6579
  725MOL0     H97828  10.720   8.760   6.647  4.6790 -4.6811 -0.2958
  725MOL0     H97829  10.488   8.689   6.861  2.0688 -1.0540 -0.5181
  725MOL0     H97830  10.494   8.848   6.793 -3.5645 -1.4603  2.4486
  725MOL0     H97831  10.473   8.583   6.634 -0.4698  0.5519 -0.8572
  725MOL0     H97832  10.500   8.741   6.560  1.6040 -3.5468 -1.6602
  725MOL0     H97833  10.271   8.702   6.746  1.0362  4.1939  2.7529
  725MOL0     H97834  10.268   8.678   6.562  0.7234  0.5340 -0.8793
  725MOL0     H97835  10.220   9.122   6.620 -0.1174 -2.2970 -1.1413
  725MOL0     H97836  10.070   9.238   6.748  1.9931 -0.6575 -2.3543
  725MOL0     H97837   9.920   9.325   7.208 -0.4062 -1.7777 -3.2742
  725MOL0     H97838   9.751   9.503   7.328  3.2136  0.4733  0.0305
  725MOL0     H97839   9.411   9.759   7.268  0.3647  0.6050 -0.8527
  725MOL0     H97840   9.441   9.705   7.097 -0.2220 -0.8803 -1.0574
  725MOL0     H97841   9.236   9.598   7.206 -0.1238  3.0784  2.8220
  725MOL0     H97842   9.364   9.487   7.140  1.5375 -2.1348  1.6821
  725MOL0     H97843   9.447   9.472   7.378  1.1325  0.0047 -1.8074
  725MOL0     H97844   9.276   9.536   7.420 -0.4888  0.5538 -0.9497
  725MOL0     H97845   9.314   9.287   7.255 -1.7000  0.1532 -0.7790
  725MOL0     H97846   9.172   9.372   7.275 -0.2197 -2.9356  1.0759
  725MOL0     H97847   9.190   9.190   7.443 -0.2183 -0.6564  1.4441
  725MOL0     H97848   9.160   9.348   7.510  1.0611 -0.2352 -0.0378
  725MOL0     H97849   9.441   9.242   7.504 -1.2158 -1.1514 -0.8047
  725MOL0     H97850   9.399   9.376   7.597 -2.7463  0.2527  1.9760
  725MOL0     H97851   9.218   9.190   7.709 -0.7649  0.9088 -2.8116
  725MOL0     H97852   9.391   9.197   7.757  0.9546 -1.4611 -1.2155
  725MOL0     H97853   9.264   9.011   7.545 -1.5750  0.6660  0.3765
  725MOL0     H97854   9.435   9.011   7.580 -1.0895 -0.8351  1.0890
  725MOL0     H97855   9.561   9.563   6.963  2.8365  0.9180 -1.1859
  725MOL0     H97856   9.698   9.436   6.846 -3.4231 -1.8444  0.5311
  725MOL0     H97857   9.981   8.894   6.991 -2.3766  1.4598 -1.3714
  725MOL0     H97858  10.115   8.763   6.838  1.1210 -0.1088  1.1256
  725MOL0     H97859  10.953   7.914   7.917  0.7392 -0.8584 -1.4247
  725MOL0     H97860  11.105   7.800   8.080  1.1239 -1.1461 -0.3038
  725MOL0     H97861  11.356   7.725   8.308 -1.5734 -0.4661  1.3168
  725MOL0     H97862  11.423   7.590   8.486  0.2477  1.0026  0.2742
  725MOL0     H97863  11.714   7.505   8.602 -0.5345  1.1586 -1.1994
  725MOL0     H97864  11.781   7.494   8.432 -1.6965  1.8587 -1.1639
  725MOL0     H97865  11.881   7.372   8.630  0.3265  0.9882 -0.9256
  725MOL0     H97866  11.894   7.296   8.467 -1.1341 -1.8150 -0.0651
  725MOL0     H97867  11.838   7.133   8.604  1.5673  0.1791 -0.4970
  725MOL0     H97868  11.679   7.173   8.523 -1.5277  1.4545  0.7099
  725MOL0     H97869  11.760   7.278   8.799 -1.5974  2.9716 -1.8654
  725MOL0     H97870  11.603   7.305   8.730 -0.3225  0.3890  0.0138
  725MOL0     H97871  11.564   6.920   8.890 -0.7140 -0.2012 -0.8509
  725MOL0     H97872  11.676   7.356   8.222  2.8681  1.8699 -1.5463
  725MOL0     H97873  11.707   7.410   7.995  0.8869 -0.2166  1.8571
  725MOL0     H97874  11.559   7.485   7.920 -0.3203  0.9610  0.1662
  725MOL0     H97875  11.702   7.583   7.973 -0.3662  0.9005  2.3605
  726MOL0     O97876   9.730   4.793  11.394  0.0939  0.5850 -0.1659
  726MOL0     C97877   9.696   4.754  11.280  0.5390 -1.2902  0.4478
  726MOL0     O97878   9.567   4.774  11.236 -0.4307  0.3583  0.0142
  726MOL0     C97879   9.489   4.855  11.315 -0.1044  0.4357  0.5332
  726MOL0     C97880   9.367   4.796  11.351  0.5222 -0.2208 -0.0860
  726MOL0     C97881   9.280   4.869  11.434  0.3775  0.0923  1.0669
  726MOL0     C97882   9.306   5.001  11.466 -0.9894 -0.1521 -1.0391
  726MOL0     O97883   9.212   5.080  11.514 -0.1741 -1.4724  0.5507
  726MOL0     C97884   9.079   5.065  11.454  0.5370  1.0552 -0.2890
  726MOL0     C97885   9.003   5.199  11.468 -0.7635  0.5835  0.1784
  726MOL0     C97886   8.860   5.188  11.478  0.6463 -0.4308 -0.7672
  726MOL0     C97887   8.792   5.312  11.423 -0.1012  0.4775 -1.2427
  726MOL0     C97888   8.638   5.296  11.426 -0.5399  0.3992 -0.1264
  726MOL0     C97889   8.569   5.431  11.395  0.2921  0.3677 -0.4930
  726MOL0     C97890   8.419   5.423  11.414 -0.0380 -0.4011 -0.1378
  726MOL0     C97891   8.343   5.512  11.309 -0.8383 -0.2724  0.7147
  726MOL0     N97892   8.334   5.444  11.170 -0.2479 -0.1986 -0.1532
  726MOL0     C97893   8.330   5.309  11.127  0.3417 -0.0727 -0.2574
  726MOL0     C97894   8.338   5.313  11.001 -0.0420 -0.7878  0.7172
  726MOL0     C97895   8.339   5.192  10.908  0.6338 -0.1535  0.0021
  726MOL0     C97896   8.201   5.158  10.852  0.0435  0.0586 -0.5632
  726MOL0     C97897   8.115   5.074  10.942  0.9488 -0.6410 -0.2296
  726MOL0     C97898   7.999   5.026  10.868  0.7077 -0.0095 -0.0037
  726MOL0     O97899   7.923   5.139  10.830  0.4153 -0.5699  0.4241
  726MOL0     C97900   7.793   5.125  10.781  0.0157 -0.2291 -0.5158
  726MOL0     C97901   7.714   5.232  10.745  0.1746 -0.4212 -1.1812
  726MOL0     C97902   7.580   5.218  10.717 -0.8841 -1.1655  0.0788
  726MOL0     C97903   7.519   5.095  10.709  0.0440  0.2027 -0.2203
  726MOL0     C97904   7.369   5.066  10.684  0.5909  0.0871 -0.1792
  726MOL0     O97905   7.328   4.936  10.696  0.0254 -1.0054 -0.4019
  726MOL0     C97906   7.202   4.911  10.654 -0.1598  1.5898  0.1476
  726MOL0     C97907   7.146   4.954  10.540  0.8036 -0.5249  0.3221
  726MOL0     C97908   7.018   4.921  10.503  0.2500  0.9465  0.0281
  726MOL0     C97909   6.940   4.839  10.588 -0.6294 -0.0143 -0.5580
  726MOL0     O97910   6.817   4.809  10.560 -0.0052 -0.0612  0.5097
  726MOL0     C97911   6.778   4.671  10.556 -0.2846 -0.2945  0.6801
  726MOL0     C97912   6.626   4.659  10.536  0.7193  0.6496  0.1273
  726MOL0     C97913   6.554   4.750  10.634  0.6245 -0.1827 -0.0032
  726MOL0     C97914   6.399   4.744  10.616 -0.1423  0.3008  0.2027
  726MOL0     C97915   6.332   4.836  10.727  1.4716 -0.1929 -0.1899
  726MOL0     C97916   6.180   4.860  10.682 -0.9093  0.0673 -0.5408
  726MOL0     C97917   6.093   4.927  10.792  0.2337  0.7929 -0.4994
  726MOL0     C97918   5.952   5.001  10.753 -0.3549 -0.2780  0.9811
  726MOL0    Cl97919   5.902   5.093  10.894  0.5886  0.0557  0.4807
  726MOL0     C97920   7.003   4.788  10.707  0.0733 -0.3793  0.2533
  726MOL0     C97921   7.133   4.817  10.728  0.0348  1.2097 -1.1501
  726MOL0     O97922   7.299   5.158  10.652 -0.3518 -0.4232  0.4612
  726MOL0     C97923   7.601   4.981  10.731  0.1031  0.6542 -0.7141
  726MOL0     C97924   7.734   5.000  10.766  0.7714  0.0009  0.3295
  726MOL0     N97925   8.338   5.445  10.949 -0.6328  0.2691  0.2096
  726MOL0     N97926   8.332   5.516  11.055  0.3528 -0.5217  0.4722
  726MOL0     C97927   9.429   5.062  11.428 -0.7079 -0.0386 -0.0610
  726MOL0     C97928   9.515   4.988  11.350 -0.0472 -0.7941 -0.1270
  726MOL0     C97929   9.786   4.669  11.196 -0.1856  0.0859 -0.5978
  726MOL0     C97930   9.726   4.580  11.104 -0.1080 -0.3955 -0.4549
  726MOL0     C97931   9.800   4.499  11.016  1.3406 -0.7044 -0.2155
  726MOL0     C97932   9.939   4.525  11.009  0.7709  0.3090  0.2616
  726MOL0     O97933  10.019   4.451  10.927  0.2304  0.2537  0.7581
  726MOL0     C97934  10.037   4.318  10.968  0.1044 -0.0275  0.2201
  726MOL0     C97935  10.179   4.288  10.975 -0.9311 -0.3535  0.8620
  726MOL0     C97936  10.273   4.369  10.884 -0.1662 -0.8125  0.5453
  726MOL0     C97937  10.399   4.285  10.835  0.1926 -0.6642  0.3773
  726MOL0     C97938  10.497   4.285  10.946 -0.5801  0.9184  0.2773
  726MOL0     C97939  10.590   4.288  11.027  0.1383 -0.6461  0.3526
  726MOL0     C97940   9.998   4.625  11.084  0.0027  0.3391  0.7406
  726MOL0     C97941   9.923   4.701  11.175  0.1421 -0.1771  0.4461
  726MOL0     C97942   9.991   4.824  11.245 -0.3171 -0.2854 -0.0226
  726MOL0     H97943   9.344   4.692  11.326 -1.6955  0.4062 -0.9223
  726MOL0     H97944   9.202   4.814  11.486  0.1904 -0.9009 -0.2195
  726MOL0     H97945   9.088   5.045  11.347  0.7931 -0.6948  0.0357
  726MOL0     H97946   9.030   4.978  11.499  0.1768  0.3593 -1.9301
  726MOL0     H97947   9.021   5.258  11.377  1.0656  2.2750  1.5468
  726MOL0     H97948   9.041   5.264  11.547  2.8428 -1.7472  0.5585
  726MOL0     H97949   8.829   5.158  11.578  0.2623  3.5023  0.4887
  726MOL0     H97950   8.843   5.112  11.401  1.5650 -0.0879 -1.3224
  726MOL0     H97951   8.827   5.398  11.480 -1.8526  0.1982  0.3705
  726MOL0     H97952   8.822   5.324  11.318  4.0754 -3.5388 -0.8462
  726MOL0     H97953   8.616   5.221  11.349 -0.0694  0.3317 -0.1978
  726MOL0     H97954   8.607   5.256  11.523  0.6430 -1.0241 -0.2934
  726MOL0     H97955   8.626   5.496  11.463  3.0816  1.7630 -3.8678
  726MOL0     H97956   8.598   5.450  11.292 -0.0956  2.9450 -0.1864
  726MOL0     H97957   8.403   5.471  11.511 -1.6790 -1.3480  0.0950
  726MOL0     H97958   8.380   5.321  11.418 -2.2357  0.3031 -1.6230
  726MOL0     H97959   8.238   5.520  11.338 -1.6557 -1.1153 -1.8095
  726MOL0     H97960   8.399   5.603  11.287 -0.3185 -1.0167 -1.1661
  726MOL0     H97961   8.319   5.226  11.196  0.3207  1.8802  2.2277
  726MOL0     H97962   8.425   5.202  10.842  1.6996 -3.0051  0.7947
  726MOL0     H97963   8.371   5.103  10.963 -0.2962 -0.2120  0.4829
  726MOL0     H97964   8.142   5.248  10.833  1.5430  1.7461  2.1780
  726MOL0     H97965   8.221   5.105  10.758  1.4848 -2.1896  0.9194
  726MOL0     H97966   8.079   5.132  11.028 -0.2745 -3.1136  1.0426
  726MOL0     H97967   8.174   4.991  10.983  0.5541 -0.1852  1.3331
  726MOL0     H97968   7.937   4.963  10.932 -0.7587  2.2514  0.9184
  726MOL0     H97969   8.038   4.975  10.779 -2.7704 -1.6241 -0.7700
  726MOL0     H97970   7.759   5.331  10.746 -1.9223  0.6170  0.5505
  726MOL0     H97971   7.540   5.316  10.690  1.0032 -0.9618 -2.2878
  726MOL0     H97972   7.189   5.028  10.473 -0.9432 -0.0305 -0.3197
  726MOL0     H97973   6.974   4.973  10.418 -2.8872 -0.8390  0.4324
  726MOL0     H97974   6.828   4.611  10.479  0.6989  0.8498  0.4069
  726MOL0     H97975   6.810   4.626  10.650  2.4590  2.9682  1.4861
  726MOL0     H97976   6.607   4.671  10.429  2.7652 -1.0552 -0.4971
  726MOL0     H97977   6.597   4.559  10.569 -3.2931  1.0021 -1.7891
  726MOL0     H97978   6.577   4.716  10.735 -3.5377 -0.2149  1.1238
  726MOL0     H97979   6.571   4.858  10.629 -1.5400  0.2979  1.6053
  726MOL0     H97980   6.365   4.643  10.642  0.3344  0.3349  0.9841
  726MOL0     H97981   6.367   4.768  10.514 -5.5582  1.7215  1.9309
  726MOL0     H97982   6.367   4.940  10.730  0.0360  0.3603 -1.1137
  726MOL0     H97983   6.347   4.794  10.827 -1.3077 -0.9977 -0.0294
  726MOL0     H97984   6.171   4.920  10.591 -0.2464  0.5962 -0.2677
  726MOL0     H97985   6.143   4.761  10.658 -0.1808  0.1084 -1.9638
  726MOL0     H97986   6.156   5.002  10.840 -1.3940  0.3809  2.5783
  726MOL0     H97987   6.091   4.851  10.870  1.6066 -1.5880 -2.6136
  726MOL0     H97988   5.977   5.067  10.670  3.4860 -3.9214 -1.2052
  726MOL0     H97989   5.881   4.926  10.717  1.9019 -1.5085 -1.3082
  726MOL0     H97990   6.950   4.722  10.776  0.3567  1.6247  2.5180
  726MOL0     H97991   7.183   4.782  10.818 -0.9783  0.3450 -0.9012
  726MOL0     H97992   7.573   4.877  10.717 -0.5842  0.5084  1.4391
  726MOL0     H97993   7.796   4.914  10.789  2.3436  1.1766  0.6780
  726MOL0     H97994   9.458   5.166  11.446 -3.0051  0.3355  2.0271
  726MOL0     H97995   9.607   5.031  11.312 -0.7940  2.2285  1.2236
  726MOL0     H97996   9.618   4.582  11.103 -0.2881 -3.9053 -1.1053
  726MOL0     H97997   9.756   4.418  10.959 -0.8862  1.4773 -1.8336
  726MOL0     H97998   9.990   4.256  10.892  0.1594  1.4975 -1.1038
  726MOL0     H97999   9.983   4.303  11.062  0.0127 -0.1557  0.1467
  726MOL0     H98000  10.202   4.182  10.962  1.9808  0.0837  1.7273
  726MOL0     H98001  10.211   4.324  11.073  0.2367 -1.5385  0.9437
  726MOL0     H98002  10.302   4.460  10.937 -1.1377 -0.2592  0.1563
  726MOL0     H98003  10.214   4.401  10.797 -1.4551 -0.0112  1.6749
  726MOL0     H98004  10.375   4.188  10.791  1.8305 -0.0415 -2.0883
  726MOL0     H98005  10.445   4.339  10.751 -0.5221 -2.7421 -1.4473
  726MOL0     H98006  10.669   4.274  11.099  1.1546 -2.0081 -0.9632
  726MOL0     H98007  10.103   4.632  11.055  0.2404  0.4045  1.5820
  726MOL0     H98008  10.005   4.803  11.351  2.8993  3.1590  0.4036
  726MOL0     H98009  10.089   4.840  11.200  1.2385 -3.1041  2.0423
  726MOL0     H98010   9.940   4.919  11.227 -2.4893 -1.5337 -0.8561
  727MOL0     O98011   6.843   7.847   6.493  1.1312  0.2580 -0.4970
  727MOL0     C98012   6.772   7.765   6.553 -0.3000 -0.5611 -0.3812
  727MOL0     O98013   6.654   7.726   6.500  0.0661  0.4498  0.1520
  727MOL0     C98014   6.616   7.771   6.373  0.4304  0.0597  0.2596
  727MOL0     C98015   6.618   7.685   6.264  0.4840 -0.4040 -0.6264
  727MOL0     C98016   6.605   7.736   6.131  0.2395 -0.6577 -0.0878
  727MOL0     C98017   6.589   7.878   6.109  1.5447  0.9712  0.6453
  727MOL0     O98018   6.576   7.936   5.987  0.2970 -0.8410 -0.3754
  727MOL0     C98019   6.627   7.868   5.876  0.3101 -0.6066  1.2542
  727MOL0     C98020   6.627   7.959   5.737  1.3557  0.5558 -0.7991
  727MOL0     C98021   6.727   8.069   5.748  0.5805 -0.7013 -0.2147
  727MOL0     C98022   6.762   8.148   5.625  0.2464 -0.0007 -0.0807
  727MOL0     C98023   6.794   8.064   5.508 -0.2761 -0.4601  1.2445
  727MOL0     C98024   6.915   7.973   5.535 -0.0642 -0.1495 -0.1734
  727MOL0     C98025   6.997   7.969   5.402 -0.6778  0.1966  0.4356
  727MOL0     C98026   7.138   7.913   5.418 -0.9144  0.1109  0.3962
  727MOL0     N98027   7.192   7.866   5.290  1.0756 -1.1299 -0.5326
  727MOL0     C98028   7.231   7.947   5.177 -0.0896  0.3101  1.5531
  727MOL0     C98029   7.218   7.858   5.077  0.3816 -0.4113  1.0529
  727MOL0     C98030   7.231   7.884   4.925 -0.6985 -0.5444  0.3711
  727MOL0     C98031   7.117   7.975   4.873 -0.2082 -0.3797 -0.4130
  727MOL0     C98032   7.116   8.008   4.725 -0.5362  0.7720  0.7884
  727MOL0     C98033   7.010   8.110   4.687 -0.1702  0.2546  0.5300
  727MOL0     O98034   6.966   8.093   4.557 -0.4480  0.1489 -0.3607
  727MOL0     C98035   6.923   8.200   4.496 -0.5155 -0.0744  0.6349
  727MOL0     C98036   6.784   8.200   4.458  0.3816  0.4542 -0.8069
  727MOL0     C98037   6.741   8.302   4.375  0.5356 -0.8025  0.0548
  727MOL0     C98038   6.816   8.409   4.335  0.2911 -0.1390 -0.1597
  727MOL0     C98039   6.770   8.510   4.256 -0.3934  0.3519 -0.3884
  727MOL0     O98040   6.851   8.586   4.187  0.2640 -0.3926  0.1794
  727MOL0     C98041   6.785   8.694   4.131  0.0079  0.0539 -0.6835
  727MOL0     C98042   6.763   8.816   4.198 -0.6304  0.5547 -1.6134
  727MOL0     C98043   6.698   8.922   4.136 -0.3263 -0.0136  0.4025
  727MOL0     C98044   6.659   8.916   3.998 -0.4213  0.2749 -0.8197
  727MOL0     O98045   6.622   9.021   3.921  0.1355  0.4009 -0.0754
  727MOL0     C98046   6.511   8.992   3.830  0.0476  1.5540  0.1485
  727MOL0     C98047   6.451   9.126   3.788  0.9814 -0.8847  0.2834
  727MOL0     C98048   6.379   9.188   3.910 -0.2003 -0.2463 -0.0024
  727MOL0     C98049   6.315   9.329   3.876 -0.5152 -1.3323  0.2829
  727MOL0     C98050   6.174   9.334   3.942  0.7849  0.6819 -0.1561
  727MOL0     C98051   6.055   9.296   3.854 -0.6784  1.1242 -0.3549
  727MOL0     C98052   5.933   9.317   3.942 -0.2228 -0.4806 -0.0668
  727MOL0     C98053   5.808   9.276   3.863 -0.1565 -0.2443 -1.0013
  727MOL0    Cl98054   5.781   9.410   3.743  0.4298  0.1283  0.5104
  727MOL0     C98055   6.682   8.797   3.937 -1.4440  0.2001  0.7700
  727MOL0     C98056   6.738   8.683   3.998 -0.9446 -0.5522  1.4493
  727MOL0     O98057   6.650   8.540   4.280  0.7059  0.2444  0.3542
  727MOL0     C98058   6.951   8.410   4.373 -0.1521 -0.3026  0.9329
  727MOL0     C98059   7.003   8.302   4.440 -0.3672  0.3216 -0.2840
  727MOL0     N98060   7.179   7.738   5.119  0.2390  0.7775  0.1420
  727MOL0     N98061   7.179   7.737   5.248  0.1348 -1.1042 -0.2327
  727MOL0     C98062   6.573   7.960   6.224 -0.2107  0.7604  0.3159
  727MOL0     C98063   6.587   7.913   6.353  1.1753  0.2754  0.0213
  727MOL0     C98064   6.820   7.700   6.673  0.0714 -0.6760  0.1428
  727MOL0     C98065   6.773   7.569   6.716  1.0330  0.7175  0.1998
  727MOL0     C98066   6.815   7.517   6.840 -0.1703 -0.4328  1.0805
  727MOL0     C98067   6.913   7.578   6.920  0.0526 -0.7903 -0.3358
  727MOL0     O98068   6.957   7.525   7.033 -0.3932  0.8782 -0.2423
  727MOL0     C98069   6.912   7.396   7.090 -0.5819 -0.1861 -1.1745
  727MOL0     C98070   6.783   7.420   7.161 -0.5010 -0.0902 -0.5277
  727MOL0     C98071   6.714   7.283   7.198  0.0142 -0.0546 -0.2946
  727MOL0     C98072   6.594   7.308   7.293 -0.1048 -0.4046 -0.3745
  727MOL0     C98073   6.524   7.182   7.323 -0.3610  0.3860 -1.0973
  727MOL0     C98074   6.480   7.076   7.358  0.0094 -0.2371 -0.4652
  727MOL0     C98075   6.968   7.692   6.874  0.1328 -0.6510  0.0979
  727MOL0     C98076   6.919   7.764   6.756  0.3310  0.1846  0.2893
  727MOL0     C98077   6.978   7.895   6.725  0.6791  1.1043 -0.5312
  727MOL0     H98078   6.630   7.578   6.279 -3.0940 -0.8935 -0.4601
  727MOL0     H98079   6.621   7.666   6.050  0.1531  0.7152 -1.3280
  727MOL0     H98080   6.731   7.838   5.890  0.3036 -2.2226 -1.4309
  727MOL0     H98081   6.550   7.795   5.848 -3.4333  2.7454  1.7796
  727MOL0     H98082   6.528   8.001   5.716  0.9341  0.0746  0.1106
  727MOL0     H98083   6.650   7.886   5.659  0.3501 -1.0390  0.3017
  727MOL0     H98084   6.821   8.024   5.781  1.8509 -0.2203 -2.9085
  727MOL0     H98085   6.691   8.141   5.823  0.0017 -1.7789  0.5815
  727MOL0     H98086   6.674   8.210   5.605 -0.4397 -0.7677  0.4571
  727MOL0     H98087   6.841   8.219   5.648 -0.8482  0.3271  3.2505
  727MOL0     H98088   6.717   7.993   5.475 -0.0749 -0.7425  1.3795
  727MOL0     H98089   6.820   8.133   5.427  4.4180 -0.9302  2.0805
  727MOL0     H98090   6.986   8.021   5.602  0.1913  1.3298 -1.4470
  727MOL0     H98091   6.887   7.880   5.585  0.0806 -0.5320 -0.7989
  727MOL0     H98092   7.005   8.065   5.350 -1.0283  0.0344  0.0790
  727MOL0     H98093   6.939   7.904   5.336  0.5576  2.5622 -3.3238
  727MOL0     H98094   7.200   7.996   5.454 -0.8215  0.8370 -1.3416
  727MOL0     H98095   7.144   7.820   5.474  0.0336 -1.5474 -2.2955
  727MOL0     H98096   7.260   8.051   5.181 -0.9219  0.5583  1.4179
  727MOL0     H98097   7.331   7.926   4.914 -0.3025 -1.6762 -0.6028
  727MOL0     H98098   7.223   7.788   4.872 -0.9494 -0.2056 -0.2110
  727MOL0     H98099   7.023   7.927   4.901  0.0284 -1.3796 -1.2604
  727MOL0     H98100   7.114   8.070   4.927  0.0693 -1.8889  2.4533
  727MOL0     H98101   7.100   7.910   4.678  3.2045  0.1740  0.5048
  727MOL0     H98102   7.215   8.038   4.690  0.7592 -2.6620  1.1769
  727MOL0     H98103   7.061   8.206   4.699  0.9101 -0.4858  2.2107
  727MOL0     H98104   6.927   8.096   4.756 -0.3754  1.1281  0.4700
  727MOL0     H98105   6.717   8.117   4.473  0.5290 -0.2481 -3.5054
  727MOL0     H98106   6.641   8.305   4.332 -0.9197 -1.4290  3.1129
  727MOL0     H98107   6.802   8.829   4.299  1.1038 -0.5029 -2.1230
  727MOL0     H98108   6.692   9.012   4.196  1.8073 -1.5036  3.0627
  727MOL0     H98109   6.561   8.950   3.743  3.2445 -1.3425  3.0978
  727MOL0     H98110   6.439   8.920   3.872 -0.4060  1.3256 -0.9825
  727MOL0     H98111   6.529   9.190   3.746 -0.1419 -0.5384 -1.4067
  727MOL0     H98112   6.378   9.117   3.707 -0.6710  6.1407  0.2751
  727MOL0     H98113   6.311   9.119   3.960 -1.4639 -1.9301 -3.6842
  727MOL0     H98114   6.454   9.217   3.983 -1.4135  0.7657  0.8964
  727MOL0     H98115   6.302   9.339   3.768  1.6522  2.0959  0.1864
  727MOL0     H98116   6.373   9.414   3.911  0.8089 -2.2572  0.4107
  727MOL0     H98117   6.165   9.441   3.966  3.1585  0.4662  2.1540
  727MOL0     H98118   6.177   9.274   4.034  1.0035 -2.0099 -1.8313
  727MOL0     H98119   6.058   9.360   3.766  0.0461  0.7977 -0.5792
  727MOL0     H98120   6.060   9.193   3.817  1.9791  0.4913  1.4674
  727MOL0     H98121   5.922   9.419   3.980 -2.2794 -1.0017  0.8618
  727MOL0     H98122   5.934   9.258   4.034 -2.6189  1.1347  1.0803
  727MOL0     H98123   5.820   9.180   3.811  0.6511 -0.7906  0.1356
  727MOL0     H98124   5.731   9.276   3.940  1.5021  1.0023  0.7628
  727MOL0     H98125   6.654   8.786   3.832 -0.7761 -2.1173  0.7709
  727MOL0     H98126   6.757   8.589   3.948  0.0004  0.9736 -1.3100
  727MOL0     H98127   7.022   8.492   4.364 -3.8043  3.0483 -0.6282
  727MOL0     H98128   7.110   8.297   4.458 -0.2995 -2.8199 -1.0439
  727MOL0     H98129   6.562   8.064   6.196 -1.4988  0.8673  1.1227
  727MOL0     H98130   6.580   7.978   6.439  2.1901  0.6566 -0.1632
  727MOL0     H98131   6.690   7.520   6.667  0.1431  2.3629  0.0103
  727MOL0     H98132   6.790   7.416   6.872  0.8513 -1.4967 -1.2212
  727MOL0     H98133   6.981   7.355   7.163 -0.3410  0.2818 -1.1412
  727MOL0     H98134   6.908   7.326   7.006 -0.9332  0.9066 -2.0935
  727MOL0     H98135   6.717   7.485   7.103  1.8878  0.3527 -2.9473
  727MOL0     H98136   6.808   7.476   7.251  0.1463  2.5694 -2.2457
  727MOL0     H98137   6.788   7.224   7.254 -1.5083 -1.4784  0.3221
  727MOL0     H98138   6.692   7.231   7.104 -1.6265  0.6086 -0.3143
  727MOL0     H98139   6.630   7.352   7.386  0.0165  1.0010 -1.0661
  727MOL0     H98140   6.524   7.373   7.241 -0.6471 -0.3888  0.3522
  727MOL0     H98141   6.448   6.981   7.396  0.6881 -1.4952 -2.8428
  727MOL0     H98142   7.042   7.733   6.942  0.5323  1.5957 -1.5450
  727MOL0     H98143   6.904   7.975   6.729 -3.2392 -2.1761 -1.3439
  727MOL0     H98144   7.053   7.919   6.801 -0.5998 -0.4958  1.3268
  727MOL0     H98145   7.028   7.877   6.629  0.1908 -3.6653 -0.1272
  728MOL0     O98146   4.021   8.951   0.708  0.4146  0.3127 -0.2790
  728MOL0     C98147   4.036   9.047   0.621  0.5784 -0.2042 -1.1599
  728MOL0     O98148   4.047   9.024   0.485  0.1757 -0.1840  0.2895
  728MOL0     C98149   4.064   8.891   0.461 -1.0589 -0.4990  0.4103
  728MOL0     C98150   4.195   8.824   0.449  0.6047 -0.1775 -0.6201
  728MOL0     C98151   4.202   8.689   0.405 -0.1119 -0.3281 -0.5172
  728MOL0     C98152   4.083   8.621   0.365 -1.0267 -0.1766  0.0533
  728MOL0     O98153   4.106   8.498   0.316  0.3602  0.1766 -0.0696
  728MOL0     C98154   4.020   8.436   0.227  0.2495  0.2666 -0.2505
  728MOL0     C98155   4.083   8.309   0.156  0.3012 -0.7820  1.1105
  728MOL0     C98156   4.194   8.332   0.052 -0.0892  0.4912 -1.6876
  728MOL0     C98157   4.252   8.203   0.010 -0.2396  0.0232  1.5292
  728MOL0     C98158   4.353   8.217  -0.103 -0.1454  1.2342  0.3871
  728MOL0     C98159   4.383   8.090  -0.174  0.2287  0.3144  0.8474
  728MOL0     C98160   4.475   8.103  -0.289  0.4892 -0.8672 -0.3011
  728MOL0     C98161   4.613   8.154  -0.258 -1.1767  0.2252 -0.5562
  728MOL0     N98162   4.709   8.106  -0.357 -0.2170 -0.1998  0.1096
  728MOL0     C98163   4.695   8.122  -0.498  0.5634  0.4574  0.1387
  728MOL0     C98164   4.827   8.115  -0.538  0.2135  1.0561  0.0822
  728MOL0     C98165   4.889   8.109  -0.679 -0.5839 -0.4668 -0.6034
  728MOL0     C98166   4.959   8.236  -0.730  0.9322  0.7542  1.0881
  728MOL0     C98167   5.006   8.227  -0.876 -0.6567  0.3135 -0.1753
  728MOL0     C98168   4.908   8.268  -0.985 -0.1703  0.8851 -0.1873
  728MOL0     O98169   4.785   8.194  -0.976  0.8213  0.3316  0.3060
  728MOL0     C98170   4.706   8.168  -1.094  0.2408  0.0435  1.0410
  728MOL0     C98171   4.572   8.110  -1.098 -0.1875  0.7195  0.1445
  728MOL0     C98172   4.491   8.086  -1.214 -0.1634 -0.3261 -0.8355
  728MOL0     C98173   4.540   8.125  -1.338 -0.2361 -0.2331  0.1393
  728MOL0     C98174   4.460   8.109  -1.463 -0.0082 -0.7651 -0.3771
  728MOL0     O98175   4.536   8.118  -1.581  0.5212 -0.5796 -0.7344
  728MOL0     C98176   4.482   8.096  -1.705 -0.1931  0.5124  0.1873
  728MOL0     C98177   4.529   8.186  -1.801  0.3888 -1.0586 -0.3306
  728MOL0     C98178   4.489   8.185  -1.926 -0.1181 -0.5698  0.2069
  728MOL0     C98179   4.385   8.094  -1.977  0.1606 -0.4042 -0.2326
  728MOL0     O98180   4.352   8.096  -2.111 -0.4567 -0.4420 -0.1942
  728MOL0     C98181   4.242   8.018  -2.148 -0.4721  0.0406  0.4911
  728MOL0     C98182   4.212   8.034  -2.300 -1.0036 -0.2090  0.3164
  728MOL0     C98183   4.096   7.937  -2.338  0.1498  0.3364  0.5704
  728MOL0     C98184   4.062   7.934  -2.487 -0.3413 -1.0922 -0.3565
  728MOL0     C98185   4.006   7.809  -2.538  0.1405  0.8703  0.1934
  728MOL0     C98186   4.104   7.684  -2.550  0.3330  0.1958 -1.2129
  728MOL0     C98187   4.046   7.556  -2.616  0.4635  0.2769 -0.6695
  728MOL0     C98188   3.973   7.581  -2.738  0.4912  1.0057 -0.1032
  728MOL0    Cl98189   3.971   7.437  -2.847 -0.1335 -0.2215 -0.3356
  728MOL0     C98190   4.337   8.001  -1.874  0.1796 -0.1938  0.7952
  728MOL0     C98191   4.385   8.001  -1.739  0.6312  0.0312  0.4357
  728MOL0     O98192   4.335   8.115  -1.460  0.6542  0.1902  0.7760
  728MOL0     C98193   4.675   8.177  -1.344  0.4261  0.6322 -0.1785
  728MOL0     C98194   4.743   8.202  -1.224 -0.5986 -0.3565  0.5641
  728MOL0     N98195   4.908   8.095  -0.423  0.3003 -0.0729  1.0987
  728MOL0     N98196   4.836   8.073  -0.317 -0.4649  0.6170 -0.0689
  728MOL0     C98197   3.957   8.685   0.376 -0.2847 -0.1217 -0.6268
  728MOL0     C98198   3.952   8.816   0.433  0.5513  0.0368  0.2483
  728MOL0     C98199   4.037   9.197   0.657  0.0581  0.4826  0.2632
  728MOL0     C98200   4.055   9.287   0.555 -0.0769 -1.2111  0.0407
  728MOL0     C98201   4.052   9.434   0.567 -0.9545  0.6659 -0.8929
  728MOL0     C98202   4.025   9.481   0.701 -0.0160  0.3809  0.5016
  728MOL0     O98203   4.037   9.610   0.734  0.0295 -0.0074  0.1679
  728MOL0     C98204   4.042   9.710   0.633 -0.6359 -0.3708  0.3120
  728MOL0     C98205   4.071   9.848   0.705 -0.6520  0.0568  0.1519
  728MOL0     C98206   4.098   9.960   0.611  1.4704 -0.6819  0.5000
  728MOL0     C98207   4.143  10.087   0.683  0.7372  0.1772  0.1248
  728MOL0     C98208   4.281  10.070   0.723  0.2737  0.2665 -0.5883
  728MOL0     C98209   4.391  10.069   0.761 -0.2507 -0.3526  0.6867
  728MOL0     C98210   4.000   9.384   0.801 -0.1103 -0.2420 -0.9161
  728MOL0     C98211   4.010   9.247   0.782 -0.8854  0.5983  0.2486
  728MOL0     C98212   3.973   9.170   0.915 -0.1942  0.0455  0.5327
  728MOL0     H98213   4.293   8.870   0.465  0.6736 -0.1552 -1.1006
  728MOL0     H98214   4.290   8.625   0.404  0.8293  0.8337  1.6411
  728MOL0     H98215   3.947   8.388   0.292  1.2479 -0.1542  0.5747
  728MOL0     H98216   3.973   8.505   0.155 -0.5534  3.2345  2.8560
  728MOL0     H98217   3.996   8.262   0.110  0.8776 -0.3004 -0.5665
  728MOL0     H98218   4.116   8.242   0.236  1.7998 -0.7932  0.5219
  728MOL0     H98219   4.267   8.396   0.103  0.9144 -1.1693 -0.9561
  728MOL0     H98220   4.154   8.387  -0.033 -2.0695  2.3197  0.2894
  728MOL0     H98221   4.297   8.156   0.098  2.4307 -0.3305  0.0820
  728MOL0     H98222   4.177   8.137  -0.036 -0.0281  1.6577 -1.3883
  728MOL0     H98223   4.312   8.286  -0.178 -1.5121  0.0061 -0.0470
  728MOL0     H98224   4.450   8.258  -0.074  1.3394 -0.7795 -1.3890
  728MOL0     H98225   4.427   8.015  -0.108  0.1687 -2.5330 -2.1244
  728MOL0     H98226   4.292   8.038  -0.206  1.3720 -0.5475 -1.2419
  728MOL0     H98227   4.435   8.173  -0.363  1.9946 -1.3752 -1.6508
  728MOL0     H98228   4.483   8.006  -0.339  0.1488  1.0254 -4.4842
  728MOL0     H98229   4.612   8.261  -0.236  1.2794 -0.3356  3.1187
  728MOL0     H98230   4.645   8.124  -0.158 -2.6792  3.8502  1.2033
  728MOL0     H98231   4.615   8.148  -0.566 -0.1349 -1.3454  0.2222
  728MOL0     H98232   4.968   8.034  -0.695 -0.9351 -0.9326 -0.1647
  728MOL0     H98233   4.806   8.069  -0.737  0.1763 -1.7931 -0.8110
  728MOL0     H98234   4.877   8.307  -0.715 -0.8302 -1.3056  1.7078
  728MOL0     H98235   5.038   8.269  -0.661  0.2933  0.1970  2.1169
  728MOL0     H98236   5.035   8.124  -0.901  0.3448  0.8623 -1.3470
  728MOL0     H98237   5.101   8.282  -0.885 -1.6913  1.8490 -2.5230
  728MOL0     H98238   4.967   8.242  -1.074  3.1056 -5.0495  3.1251
  728MOL0     H98239   4.882   8.374  -0.987 -1.8753  0.5790 -4.2191
  728MOL0     H98240   4.535   8.076  -1.002  1.7059  2.3687  1.5151
  728MOL0     H98241   4.388   8.055  -1.198 -0.2212  0.9888  1.8591
  728MOL0     H98242   4.597   8.266  -1.774 -1.2879  1.1061 -2.1715
  728MOL0     H98243   4.537   8.261  -1.987  2.1514 -1.9785  0.0810
  728MOL0     H98244   4.270   7.915  -2.125  2.5256  0.5304 -0.5055
  728MOL0     H98245   4.156   8.037  -2.083 -0.6032  1.2332  0.0053
  728MOL0     H98246   4.184   8.138  -2.317  1.0443  0.8796  2.9960
  728MOL0     H98247   4.294   8.007  -2.367  0.3308  1.0591  1.3909
  728MOL0     H98248   4.119   7.833  -2.312  1.0393  1.3910  4.6126
  728MOL0     H98249   4.005   7.952  -2.279  1.7819 -0.2226  3.3915
  728MOL0     H98250   4.149   7.946  -2.552 -0.4786 -0.2957 -0.4009
  728MOL0     H98251   3.998   8.021  -2.506  2.2957  1.6852  2.3318
  728MOL0     H98252   3.954   7.834  -2.630  0.4777  0.2095 -0.1854
  728MOL0     H98253   3.934   7.791  -2.458  0.6966 -0.3986  0.4516
  728MOL0     H98254   4.197   7.722  -2.593 -0.4440  2.5428 -0.9655
  728MOL0     H98255   4.136   7.675  -2.446  0.9403 -0.7202 -1.4628
  728MOL0     H98256   3.995   7.480  -2.556 -0.3200  0.3316 -1.2496
  728MOL0     H98257   4.135   7.505  -2.654 -1.1706 -2.3961 -1.1495
  728MOL0     H98258   3.872   7.601  -2.701  1.3396  1.0702  2.3352
  728MOL0     H98259   4.024   7.667  -2.783  5.9457 -0.2864  2.8415
  728MOL0     H98260   4.249   7.940  -1.892  0.7858 -0.1650 -3.2828
  728MOL0     H98261   4.345   7.924  -1.675 -0.9628 -0.8914 -1.5662
  728MOL0     H98262   4.728   8.198  -1.436 -1.2597  1.7514 -0.9497
  728MOL0     H98263   4.844   8.237  -1.242 -0.0219 -1.5352  1.3852
  728MOL0     H98264   3.862   8.643   0.346 -1.2254  2.3650 -1.3461
  728MOL0     H98265   3.861   8.876   0.439  0.6434  0.0392  2.7111
  728MOL0     H98266   4.068   9.262   0.451  1.7662 -0.3270  0.0282
  728MOL0     H98267   4.077   9.500   0.484  1.0196 -0.2421 -1.0921
  728MOL0     H98268   3.948   9.700   0.578 -1.4152 -2.2631  1.8644
  728MOL0     H98269   4.125   9.685   0.567 -1.1280 -0.6442 -0.2079
  728MOL0     H98270   4.157   9.824   0.769 -2.2175  1.6730  3.0836
  728MOL0     H98271   3.994   9.872   0.779 -1.5825 -0.5770 -0.5916
  728MOL0     H98272   4.003   9.977   0.561  0.4653  2.3377  3.0833
  728MOL0     H98273   4.184   9.939   0.546  2.2232  1.3619  0.7499
  728MOL0     H98274   4.157  10.165   0.608 -2.1263 -0.4805 -1.2104
  728MOL0     H98275   4.071  10.112   0.762 -0.9058 -3.8104  0.1092
  728MOL0     H98276   4.492  10.070   0.795  0.4442 -1.9577 -1.1449
  728MOL0     H98277   3.979   9.418   0.902  1.7578  0.9091 -0.8547
  728MOL0     H98278   3.979   9.226   1.009 -0.6923 -0.0951  0.6534
  728MOL0     H98279   3.865   9.154   0.918 -0.3908  1.3437  1.2889
  728MOL0     H98280   4.012   9.069   0.923 -1.0836 -0.2974  0.6104
  729MOL0     O98281   7.074   8.552   6.740  0.0755 -0.0572  0.0295
  729MOL0     C98282   7.181   8.502   6.751 -1.5653 -0.0019 -0.4362
  729MOL0     O98283   7.291   8.515   6.661  0.8641  0.7586 -0.1362
  729MOL0     C98284   7.262   8.582   6.546 -0.5730  0.0550  0.0346
  729MOL0     C98285   7.190   8.525   6.443 -0.0038 -0.4670  0.2364
  729MOL0     C98286   7.165   8.589   6.324 -0.5152 -0.5638  0.2542
  729MOL0     C98287   7.184   8.731   6.312 -0.1023  0.2875  0.0884
  729MOL0     O98288   7.151   8.789   6.196  0.1110 -0.9618 -0.1220
  729MOL0     C98289   7.189   8.930   6.178 -0.4310  0.2033  0.3632
  729MOL0     C98290   7.153   8.965   6.029 -1.0597 -0.6183  0.3402
  729MOL0     C98291   7.005   8.991   5.999  0.5414 -0.4856  0.3615
  729MOL0     C98292   6.978   9.052   5.861  0.8557 -0.4899  0.4648
  729MOL0     C98293   7.014   8.950   5.750 -0.3559  0.1847  1.0056
  729MOL0     C98294   6.970   8.989   5.602  0.1589 -0.7170 -0.5674
  729MOL0     C98295   7.065   8.964   5.493  0.4871  0.0628 -0.1479
  729MOL0     C98296   7.068   8.812   5.480 -0.6979 -0.3424  1.1439
  729MOL0     N98297   7.164   8.784   5.374 -0.7032 -0.1321  0.5697
  729MOL0     C98298   7.295   8.752   5.398 -0.1500 -0.3611 -0.3658
  729MOL0     C98299   7.338   8.714   5.274 -0.0737 -0.1631 -0.4060
  729MOL0     C98300   7.477   8.665   5.239  0.0423 -0.1027  0.1096
  729MOL0     C98301   7.585   8.771   5.282  1.3087  0.4608 -0.9266
  729MOL0     C98302   7.610   8.795   5.438  0.5043 -0.5307 -0.2355
  729MOL0     C98303   7.632   8.665   5.533 -0.6228 -0.1395  0.1736
  729MOL0     O98304   7.715   8.574   5.462  0.0453  0.1744 -0.0115
  729MOL0     C98305   7.766   8.474   5.532 -0.8516  1.1553 -0.1328
  729MOL0     C98306   7.728   8.443   5.670 -0.8413 -0.0947  0.3206
  729MOL0     C98307   7.785   8.342   5.739  0.0761 -0.4345  0.3131
  729MOL0     C98308   7.876   8.258   5.667 -0.5175 -0.2484 -0.8567
  729MOL0     C98309   7.942   8.144   5.742  0.4879 -1.1688  0.1024
  729MOL0     O98310   8.015   8.053   5.667  0.7818 -0.8390 -0.6260
  729MOL0     C98311   8.070   7.953   5.727 -0.5823 -0.4454 -0.0456
  729MOL0     C98312   8.208   7.930   5.691  0.2817 -0.5654 -0.5091
  729MOL0     C98313   8.278   7.809   5.735 -0.2024 -1.0302 -0.0987
  729MOL0     C98314   8.209   7.718   5.814 -0.3081  0.6928 -0.3898
  729MOL0     O98315   8.260   7.594   5.854  0.6499 -1.2248  0.0337
  729MOL0     C98316   8.346   7.548   5.749  0.3996  0.8934 -0.0559
  729MOL0     C98317   8.348   7.393   5.768 -0.2553 -0.3950  0.2930
  729MOL0     C98318   8.427   7.321   5.658 -0.1303  1.2853  0.3334
  729MOL0     C98319   8.519   7.199   5.706  0.8678  0.0567  0.3884
  729MOL0     C98320   8.623   7.159   5.592 -0.3402 -0.1220  0.0497
  729MOL0     C98321   8.688   7.022   5.604 -0.6415  0.5140  0.1954
  729MOL0     C98322   8.728   6.956   5.468 -0.1290  1.4785 -0.0567
  729MOL0     C98323   8.873   6.991   5.434  0.0402  0.5007 -0.0124
  729MOL0    Cl98324   8.918   6.956   5.264 -0.4462 -0.1220  0.0635
  729MOL0     C98325   8.079   7.745   5.857 -0.2027 -0.2156  0.5318
  729MOL0     C98326   8.007   7.862   5.812 -0.5768  0.7619  0.0789
  729MOL0     O98327   7.937   8.148   5.867  0.2197 -0.1982  0.5163
  729MOL0     C98328   7.907   8.286   5.531  0.0957  0.3868  0.2027
  729MOL0     C98329   7.859   8.399   5.467 -0.1415  0.2607  0.1193
  729MOL0     N98330   7.243   8.736   5.182 -0.1855 -0.1677 -0.5677
  729MOL0     N98331   7.139   8.776   5.241  0.6507 -0.7519 -0.8397
  729MOL0     C98332   7.247   8.794   6.428  0.3660 -0.2433 -0.6134
  729MOL0     C98333   7.292   8.715   6.538 -0.3338  1.6003  0.5438
  729MOL0     C98334   7.217   8.424   6.873 -0.4429  0.0721 -0.6727
  729MOL0     C98335   7.258   8.296   6.845 -0.7159  0.3958 -0.0373
  729MOL0     C98336   7.298   8.217   6.953  0.8202  0.8945  0.0577
  729MOL0     C98337   7.268   8.247   7.088 -0.0844  0.5918  0.8674
  729MOL0     O98338   7.289   8.170   7.197 -0.1440  0.3375 -0.5327
  729MOL0     C98339   7.371   8.049   7.176  0.5974 -0.4064 -0.6402
  729MOL0     C98340   7.281   7.928   7.164 -0.0913  0.1932  0.4678
  729MOL0     C98341   7.173   7.910   7.273  0.0243 -0.3074 -0.3879
  729MOL0     C98342   7.088   7.780   7.241 -0.1293  0.6613 -0.1260
  729MOL0     C98343   7.015   7.744   7.361 -0.1146 -0.3473  0.4946
  729MOL0     C98344   6.951   7.728   7.464 -0.1485  0.2320  0.3014
  729MOL0     C98345   7.202   8.369   7.109  0.0715  0.0892  0.3044
  729MOL0     C98346   7.189   8.458   7.005  0.4968 -0.0914 -0.3814
  729MOL0     C98347   7.148   8.596   7.039 -0.2750 -0.0541 -0.5811
  729MOL0     H98348   7.145   8.426   6.445  0.8855 -0.9286 -1.0651
  729MOL0     H98349   7.123   8.535   6.239  1.3313 -3.1317  0.8460
  729MOL0     H98350   7.129   8.998   6.240 -2.1519  1.4727 -2.4841
  729MOL0     H98351   7.296   8.949   6.184 -0.6847  2.8614 -1.6704
  729MOL0     H98352   7.192   8.890   5.959  0.8501  0.4749  0.1710
  729MOL0     H98353   7.215   9.049   5.998 -2.7612  1.4859  2.3061
  729MOL0     H98354   6.955   9.048   6.077 -4.3259 -1.4493 -1.6452
  729MOL0     H98355   6.950   8.896   5.997 -1.9528  0.8684 -0.5787
  729MOL0     H98356   6.870   9.063   5.847  0.7313 -1.3840  0.6552
  729MOL0     H98357   7.024   9.151   5.858 -1.3137  0.6414  1.7961
  729MOL0     H98358   7.121   8.928   5.751 -0.5128 -0.5660  1.9019
  729MOL0     H98359   6.968   8.854   5.774  1.1870 -1.0862 -0.8763
  729MOL0     H98360   6.874   8.943   5.575  0.5779 -3.2549  1.8759
  729MOL0     H98361   6.952   9.097   5.599  0.5261 -0.6162  0.5534
  729MOL0     H98362   7.161   9.013   5.515  1.1730 -0.5226 -1.7085
  729MOL0     H98363   7.033   9.000   5.395  0.3188  0.5191  0.0749
  729MOL0     H98364   7.089   8.760   5.574 -2.5155 -2.0676  0.6464
  729MOL0     H98365   6.975   8.766   5.446 -0.0456  0.2634 -1.6600
  729MOL0     H98366   7.344   8.749   5.495 -0.5337  0.6540 -0.1326
  729MOL0     H98367   7.487   8.574   5.299  2.8116  1.5556  2.3631
  729MOL0     H98368   7.479   8.654   5.130 -0.0140  0.7863  0.0148
  729MOL0     H98369   7.678   8.738   5.234 -0.5822 -1.3693 -3.6325
  729MOL0     H98370   7.561   8.867   5.236 -4.5225 -1.3690 -2.5699
  729MOL0     H98371   7.535   8.858   5.485  0.6609 -0.3097 -0.2811
  729MOL0     H98372   7.705   8.848   5.451  0.4142 -0.3870 -0.1678
  729MOL0     H98373   7.534   8.625   5.562 -1.2765  1.3407  0.0692
  729MOL0     H98374   7.686   8.708   5.618 -0.0343 -0.4995 -0.0087
  729MOL0     H98375   7.657   8.509   5.720 -1.9094 -0.8893 -0.1170
  729MOL0     H98376   7.751   8.337   5.842  0.2934 -0.8288  0.3675
  729MOL0     H98377   8.246   7.998   5.615 -1.5706  2.3174  0.9447
  729MOL0     H98378   8.380   7.789   5.703  0.3744  0.8963  0.3489
  729MOL0     H98379   8.297   7.564   5.653 -1.3547  0.5879  0.7448
  729MOL0     H98380   8.441   7.602   5.757 -0.4627  2.1336  3.6564
  729MOL0     H98381   8.393   7.378   5.867 -0.9412  0.6996  0.7851
  729MOL0     H98382   8.251   7.342   5.776  0.0863 -0.9395  1.2241
  729MOL0     H98383   8.353   7.296   5.581 -0.2717  4.1270 -0.5783
  729MOL0     H98384   8.493   7.394   5.611 -2.6676  4.9538  2.0167
  729MOL0     H98385   8.463   7.112   5.740 -0.9056  0.2884 -1.7344
  729MOL0     H98386   8.587   7.228   5.787  3.3872  0.4667 -1.7238
  729MOL0     H98387   8.700   7.236   5.582 -0.7914  0.1623 -1.4131
  729MOL0     H98388   8.580   7.152   5.492  0.8044  0.8755 -0.5338
  729MOL0     H98389   8.775   7.031   5.669 -0.8411  3.7080  0.1792
  729MOL0     H98390   8.617   6.964   5.664 -1.4295  1.1549 -0.0943
  729MOL0     H98391   8.654   6.982   5.392  1.3838  0.9752 -1.7761
  729MOL0     H98392   8.716   6.848   5.479 -0.4110  1.6208  1.0879
  729MOL0     H98393   8.879   7.099   5.447  1.2556  0.4270  0.1763
  729MOL0     H98394   8.929   6.933   5.508  0.3404 -1.5634 -1.7601
  729MOL0     H98395   8.035   7.663   5.913  2.2324 -2.0260 -0.0660
  729MOL0     H98396   7.904   7.876   5.846 -0.3856 -1.2338  1.7433
  729MOL0     H98397   7.979   8.231   5.472  0.5771  2.2177 -1.0062
  729MOL0     H98398   7.869   8.403   5.359 -1.3659 -4.0044 -0.3511
  729MOL0     H98399   7.263   8.901   6.432 -0.5234 -0.0616 -1.5772
  729MOL0     H98400   7.345   8.758   6.622  2.2909 -0.0238 -0.1470
  729MOL0     H98401   7.268   8.259   6.743 -0.7636  0.7526 -0.1768
  729MOL0     H98402   7.325   8.115   6.928  2.9156  1.8325 -1.9353
  729MOL0     H98403   7.425   8.026   7.268 -1.4914 -1.9376  0.2908
  729MOL0     H98404   7.437   8.057   7.090  3.3833  0.2981  1.4025
  729MOL0     H98405   7.345   7.840   7.168 -0.6587 -0.2694 -0.4306
  729MOL0     H98406   7.243   7.940   7.062  0.7949  0.7048  0.1810
  729MOL0     H98407   7.117   8.002   7.293 -0.3815 -0.6253 -0.0668
  729MOL0     H98408   7.227   7.888   7.366 -0.9124 -0.4647  0.1283
  729MOL0     H98409   7.028   7.808   7.154  1.3301  1.6146 -0.8884
  729MOL0     H98410   7.151   7.697   7.209  0.4754  0.7141  0.8712
  729MOL0     H98411   6.879   7.708   7.540 -1.0461  2.4076  0.1134
  729MOL0     H98412   7.188   8.392   7.214  1.8045  0.3056  0.5142
  729MOL0     H98413   7.058   8.617   6.979 -0.4402 -0.5968 -0.5368
  729MOL0     H98414   7.138   8.611   7.147  1.1028 -0.9231 -0.3124
  729MOL0     H98415   7.235   8.657   7.014  0.9614 -0.2644  2.7267
  730MOL0     O98416   1.568   4.947  11.232 -0.1387  0.4399  0.3258
  730MOL0     C98417   1.464   5.005  11.195  0.9159  0.3168  0.5953
  730MOL0     O98418   1.465   5.129  11.143 -0.2886 -0.4895  0.9124
  730MOL0     C98419   1.567   5.217  11.157  0.2946 -0.4999  0.9251
  730MOL0     C98420   1.669   5.202  11.069  0.5720  0.4575 -0.8339
  730MOL0     C98421   1.766   5.298  11.065 -0.7095 -0.4790  1.3048
  730MOL0     C98422   1.761   5.413  11.148  0.4914  0.0654 -0.6250
  730MOL0     O98423   1.873   5.498  11.146  0.1458  0.6336 -0.1518
  730MOL0     C98424   1.884   5.613  11.222 -0.2441  0.0271 -0.4352
  730MOL0     C98425   1.824   5.738  11.161 -0.5043  0.4649  1.6745
  730MOL0     C98426   1.833   5.854  11.259  0.6500 -0.5049 -0.3747
  730MOL0     C98427   1.817   5.985  11.181  0.3128 -0.1976 -0.2219
  730MOL0     C98428   1.813   6.110  11.273 -0.1001  0.0540 -0.3045
  730MOL0     C98429   1.793   6.239  11.194  0.0550 -0.0611  0.3467
  730MOL0     C98430   1.649   6.278  11.174 -0.1606  0.1768  0.3752
  730MOL0     C98431   1.574   6.303  11.307 -0.7292  0.2256  0.1559
  730MOL0     N98432   1.490   6.194  11.349 -0.7266  0.4856  0.0996
  730MOL0     C98433   1.380   6.148  11.276 -0.1329  0.5998 -0.4813
  730MOL0     C98434   1.314   6.060  11.355  0.3107 -0.6649 -0.2791
  730MOL0     C98435   1.193   5.974  11.328  0.3127 -0.4541  0.7996
  730MOL0     C98436   1.212   5.891  11.201  0.9565  0.6352  0.6074
  730MOL0     C98437   1.335   5.801  11.229 -0.7580 -0.3729  0.3715
  730MOL0     C98438   1.387   5.736  11.105 -0.5614  0.1390  0.0465
  730MOL0     O98439   1.279   5.678  11.041  0.3722 -0.9266  0.0595
  730MOL0     C98440   1.314   5.628  10.917  1.1397  0.4326  0.8591
  730MOL0     C98441   1.219   5.559  10.839  0.2712 -0.9014  0.4400
  730MOL0     C98442   1.238   5.503  10.715  0.9909 -0.1632 -0.4587
  730MOL0     C98443   1.354   5.530  10.645 -1.0029  0.2225 -0.2592
  730MOL0     C98444   1.370   5.478  10.509  0.9237 -0.0857 -0.6655
  730MOL0     O98445   1.499   5.444  10.476 -0.2611 -0.3367  0.6750
  730MOL0     C98446   1.537   5.395  10.351 -0.2167 -0.4327  0.2095
  730MOL0     C98447   1.674   5.400  10.306  0.0075  0.6791 -0.0584
  730MOL0     C98448   1.715   5.347  10.181 -0.1670 -0.1639 -0.0075
  730MOL0     C98449   1.620   5.291  10.097  1.0694 -0.3688 -0.2345
  730MOL0     O98450   1.644   5.236   9.979 -0.3323 -0.3444  0.5281
  730MOL0     C98451   1.775   5.186   9.954  0.5867  0.3329  1.0393
  730MOL0     C98452   1.839   5.272   9.849  0.0809  0.0008 -0.2715
  730MOL0     C98453   1.750   5.317   9.727  0.0573  0.1102  0.2211
  730MOL0     C98454   1.816   5.394   9.615  0.5988  0.0283  0.8891
  730MOL0     C98455   1.714   5.406   9.498  0.6848  0.9017 -1.1232
  730MOL0     C98456   1.782   5.440   9.366  0.2237 -0.1590  0.4231
  730MOL0     C98457   1.662   5.446   9.268  0.0708  0.4272  0.0467
  730MOL0     C98458   1.706   5.490   9.123 -0.4380 -0.3252 -0.2273
  730MOL0    Cl98459   1.833   5.384   9.059 -0.5376  0.4276  0.4860
  730MOL0     C98460   1.482   5.307  10.126  0.2330  0.5678 -0.5212
  730MOL0     C98461   1.439   5.357  10.252 -0.4293  0.1914  0.0103
  730MOL0     O98462   1.275   5.490  10.430  0.6853  0.0196 -0.2631
  730MOL0     C98463   1.460   5.586  10.713  0.9501 -1.5489 -0.1902
  730MOL0     C98464   1.438   5.629  10.854 -0.6062 -0.0077 -0.3537
  730MOL0     N98465   1.375   6.059  11.479 -0.4174 -0.6891  0.7983
  730MOL0     N98466   1.465   6.153  11.481  0.0441 -0.1652 -0.3261
  730MOL0     C98467   1.643   5.433  11.225 -0.1975 -0.8482 -0.7672
  730MOL0     C98468   1.547   5.340  11.228 -0.1866  1.0488 -0.2558
  730MOL0     C98469   1.330   4.935  11.204 -0.2040 -0.3589 -0.8296
  730MOL0     C98470   1.329   4.791  11.219  0.0754 -0.2876  0.2972
  730MOL0     C98471   1.204   4.727  11.254 -0.5192 -0.0082 -0.4616
  730MOL0     C98472   1.087   4.798  11.246 -0.5986 -0.0776 -0.1120
  730MOL0     O98473   0.958   4.744  11.247  0.6619 -0.1488 -0.1604
  730MOL0     C98474   0.934   4.609  11.274  0.0171  0.4714 -1.2243
  730MOL0     C98475   0.952   4.563  11.418  0.2790  0.0473  0.0214
  730MOL0     C98476   0.895   4.645  11.528 -0.3090  0.7470  0.2549
  730MOL0     C98477   0.923   4.578  11.665 -0.1211 -1.1468 -1.2900
  730MOL0     C98478   0.882   4.668  11.776  0.3943 -0.3971  0.0734
  730MOL0     C98479   0.869   4.738  11.877 -0.6812 -0.0729 -0.6551
  730MOL0     C98480   1.087   4.938  11.225 -0.8455  0.2143 -0.0726
  730MOL0     C98481   1.204   5.001  11.192 -0.6995  0.8078 -0.0963
  730MOL0     C98482   1.180   5.136  11.128  0.0409  1.0219  0.5228
  730MOL0     H98483   1.700   5.108  11.024 -0.7283 -0.2403 -0.3010
  730MOL0     H98484   1.853   5.286  11.002  0.6024  2.3738  2.4042
  730MOL0     H98485   1.838   5.596  11.320  0.8307 -0.9216 -0.0797
  730MOL0     H98486   1.991   5.620  11.244  0.1007 -3.0224 -0.7425
  730MOL0     H98487   1.720   5.714  11.137  0.6167 -1.2300 -2.5799
  730MOL0     H98488   1.875   5.746  11.064 -1.6061 -2.4261  0.7334
  730MOL0     H98489   1.927   5.843  11.314  1.4024 -0.1941 -1.5604
  730MOL0     H98490   1.754   5.849  11.334  0.9892 -1.1765 -0.0452
  730MOL0     H98491   1.889   5.984  11.099 -1.8884  0.1168 -2.2636
  730MOL0     H98492   1.724   5.999  11.126  0.9673  3.8464 -0.6197
  730MOL0     H98493   1.734   6.115  11.348 -1.8064 -0.0244 -2.0188
  730MOL0     H98494   1.902   6.120  11.337  0.1050 -0.3164 -0.5291
  730MOL0     H98495   1.840   6.315  11.256  1.8571 -1.7196  1.1002
  730MOL0     H98496   1.839   6.248  11.095  1.9022  2.3480  1.3262
  730MOL0     H98497   1.589   6.205  11.119  2.3978 -0.4678 -1.8024
  730MOL0     H98498   1.647   6.366  11.109  0.3536  2.1669  2.9036
  730MOL0     H98499   1.646   6.330  11.384 -1.8173 -0.4964  1.4719
  730MOL0     H98500   1.505   6.388  11.306 -0.8449  0.1880  1.9932
  730MOL0     H98501   1.361   6.163  11.171  0.5574  0.2708 -0.6574
  730MOL0     H98502   1.178   5.902  11.409  2.2725  1.0011  2.5768
  730MOL0     H98503   1.106   6.040  11.318  0.2094 -0.7488 -0.2949
  730MOL0     H98504   1.117   5.842  11.178  0.4359  2.4897 -1.7012
  730MOL0     H98505   1.230   5.966  11.123 -2.4085  2.3132  1.2857
  730MOL0     H98506   1.300   5.736  11.310 -2.3415  1.5373  1.3256
  730MOL0     H98507   1.421   5.855  11.270 -0.3173  1.1737 -2.3630
  730MOL0     H98508   1.450   5.649  11.124 -0.9944 -1.0777 -3.4141
  730MOL0     H98509   1.442   5.811  11.048  3.7142 -2.8233 -0.1785
  730MOL0     H98510   1.115   5.553  10.870  0.1910 -0.2453  0.2979
  730MOL0     H98511   1.154   5.456  10.665  2.0125 -0.5244 -1.8993
  730MOL0     H98512   1.748   5.422  10.383  1.0534  3.0698 -1.6029
  730MOL0     H98513   1.822   5.329  10.169  0.1539  0.6495  1.4399
  730MOL0     H98514   1.832   5.162  10.045  0.8885  0.3069  0.8443
  730MOL0     H98515   1.745   5.092   9.908  2.0465  1.1036 -1.7337
  730MOL0     H98516   1.877   5.364   9.895  0.5076 -0.2154 -0.1875
  730MOL0     H98517   1.910   5.203   9.803 -2.8054 -1.0379 -3.5836
  730MOL0     H98518   1.710   5.224   9.687  0.5550 -0.9907  2.1257
  730MOL0     H98519   1.669   5.383   9.759  0.1859  0.8232 -0.8785
  730MOL0     H98520   1.908   5.344   9.583  1.5966  1.4757  1.3935
  730MOL0     H98521   1.836   5.490   9.663  1.7670  0.0911  0.3157
  730MOL0     H98522   1.646   5.485   9.531 -0.9146 -1.8867  3.1099
  730MOL0     H98523   1.672   5.305   9.495 -0.2264  1.2307 -0.0176
  730MOL0     H98524   1.838   5.533   9.370 -1.6248  0.9433  2.1668
  730MOL0     H98525   1.855   5.366   9.332 -0.4709  0.7427 -3.6048
  730MOL0     H98526   1.586   5.501   9.324 -0.6409 -1.9466  1.5718
  730MOL0     H98527   1.619   5.345   9.261 -1.6670  1.2012 -1.0549
  730MOL0     H98528   1.631   5.476   9.044 -0.4214 -3.3981  0.1751
  730MOL0     H98529   1.740   5.593   9.133 -1.3136 -0.2196  2.2180
  730MOL0     H98530   1.417   5.263  10.052  0.7386 -0.3230 -0.4526
  730MOL0     H98531   1.335   5.331  10.268 -0.4082 -0.6893 -1.1499
  730MOL0     H98532   1.558   5.611  10.673  0.3924  1.0756 -0.1176
  730MOL0     H98533   1.534   5.660  10.894  0.1480 -1.8159 -0.6530
  730MOL0     H98534   1.623   5.515  11.293 -1.2462 -3.8132  2.8502
  730MOL0     H98535   1.461   5.347  11.293  0.3322 -0.9638  0.7210
  730MOL0     H98536   1.423   4.738  11.221  0.5237  0.4277 -0.9252
  730MOL0     H98537   1.208   4.624  11.289 -1.7278 -0.4141 -1.4352
  730MOL0     H98538   0.995   4.545  11.210  1.4443  2.3814 -1.8567
  730MOL0     H98539   0.833   4.579  11.246  0.7724 -1.3565 -2.1920
  730MOL0     H98540   1.057   4.558  11.448 -0.6637 -2.4572  3.5165
  730MOL0     H98541   0.913   4.462  11.433  3.0391 -0.9044  1.4496
  730MOL0     H98542   0.790   4.666  11.508  0.1085 -0.0386 -3.6008
  730MOL0     H98543   0.936   4.746  11.525 -3.9973  2.4130  0.5008
  730MOL0     H98544   0.879   4.479  11.675  2.6835 -2.2417  2.9804
  730MOL0     H98545   1.031   4.561  11.676  0.2820  0.8471 -1.6465
  730MOL0     H98546   0.868   4.792  11.969 -1.3058 -0.4733 -0.4191
  730MOL0     H98547   0.992   4.992  11.227 -1.5917 -1.0185 -0.9040
  730MOL0     H98548   1.212   5.125  11.024 -2.1593 -3.0466  0.0656
  730MOL0     H98549   1.073   5.159  11.133 -0.7661 -1.7277 -1.3457
  730MOL0     H98550   1.237   5.219  11.168  1.6774  0.8093 -1.2049
  731MOL0     O98551   9.490  10.055   6.375  0.2363  0.7995 -0.7582
  731MOL0     C98552   9.608  10.077   6.398  0.6116  0.3220 -0.1030
  731MOL0     O98553   9.702   9.983   6.409  0.0372 -0.4879 -0.0458
  731MOL0     C98554   9.677   9.853   6.365  0.0254 -0.2585 -1.1582
  731MOL0     C98555   9.629   9.753   6.459 -0.4964 -0.4460 -0.3099
  731MOL0     C98556   9.590   9.625   6.416 -0.4198 -0.0428  0.0567
  731MOL0     C98557   9.597   9.597   6.280 -0.9497 -0.4527 -0.8125
  731MOL0     O98558   9.590   9.465   6.254  0.3997 -0.0888  0.9377
  731MOL0     C98559   9.457   9.408   6.215 -0.1096  0.0126 -0.1902
  731MOL0     C98560   9.361   9.341   6.320 -0.0531 -0.3397  0.2961
  731MOL0     C98561   9.430   9.230   6.403  0.5450  0.0499 -1.2481
  731MOL0     C98562   9.326   9.126   6.461  0.8453 -0.1763 -0.2734
  731MOL0     C98563   9.365   9.085   6.613  0.5505  0.0031  0.9790
  731MOL0     C98564   9.507   9.025   6.626  0.1082  0.6233 -0.0350
  731MOL0     C98565   9.578   9.048   6.756  0.8570 -1.1953  0.1550
  731MOL0     C98566   9.495   9.002   6.881  0.0254  0.4263 -0.7539
  731MOL0     N98567   9.536   8.861   6.914 -0.1652  0.4843  0.3438
  731MOL0     C98568   9.656   8.809   6.937  0.3039 -0.1508  0.5127
  731MOL0     C98569   9.636   8.675   6.946 -0.3449  0.2337  1.1870
  731MOL0     C98570   9.752   8.579   6.943 -0.3690  0.2187  0.5697
  731MOL0     C98571   9.773   8.494   7.070 -0.1439 -0.1628 -0.3682
  731MOL0     C98572   9.892   8.399   7.054 -0.0526  0.1856 -0.5260
  731MOL0     C98573   9.937   8.343   7.189  0.5510 -0.2084 -1.1684
  731MOL0     O98574   9.835   8.249   7.216  0.8716  0.7858 -0.0572
  731MOL0     C98575   9.770   8.270   7.336 -0.9382  0.1559 -0.2906
  731MOL0     C98576   9.677   8.372   7.366 -0.0776  0.3379 -0.2081
  731MOL0     C98577   9.622   8.375   7.494 -0.0903 -0.3410  0.0635
  731MOL0     C98578   9.643   8.278   7.594 -0.3127  0.7750 -0.5120
  731MOL0     C98579   9.591   8.294   7.731 -0.3664  0.4416  0.5370
  731MOL0     O98580   9.542   8.418   7.760  0.1865  0.0809  0.4517
  731MOL0     C98581   9.500   8.462   7.886 -0.1105  0.3860 -0.3426
  731MOL0     C98582   9.402   8.562   7.889 -0.1748  0.3737 -0.0350
  731MOL0     C98583   9.360   8.629   8.003 -0.2258 -0.5145 -0.1345
  731MOL0     C98584   9.407   8.585   8.127 -0.0744 -0.0701 -0.7277
  731MOL0     O98585   9.342   8.614   8.250  0.2130  0.3593 -0.0088
  731MOL0     C98586   9.198   8.593   8.254  0.5799  0.5290 -0.0512
  731MOL0     C98587   9.157   8.541   8.388  0.4284  0.9166  0.3396
  731MOL0     C98588   9.010   8.535   8.405  0.1930 -0.1590 -0.8346
  731MOL0     C98589   8.946   8.417   8.329  0.1085 -0.4594 -0.6502
  731MOL0     C98590   8.964   8.274   8.382  0.7038 -0.0376 -0.2612
  731MOL0     C98591   8.884   8.178   8.305  0.5666 -0.4415 -0.3920
  731MOL0     C98592   8.877   8.039   8.383 -0.2057  0.1865 -0.8070
  731MOL0     C98593   8.776   7.942   8.310 -0.0574 -0.0314  1.1196
  731MOL0    Cl98594   8.621   8.024   8.331  0.3324 -0.2459  0.1933
  731MOL0     C98595   9.508   8.483   8.126 -0.3436  0.1680  0.2801
  731MOL0     C98596   9.560   8.421   8.005 -0.3127  0.4518  0.1344
  731MOL0     O98597   9.606   8.206   7.814 -0.2141  0.2868  0.5044
  731MOL0     C98598   9.724   8.160   7.548  0.5618 -0.7005  0.2047
  731MOL0     C98599   9.792   8.161   7.426  0.1879 -0.4186 -0.0014
  731MOL0     N98600   9.500   8.646   6.925 -0.4155  0.0775 -0.7517
  731MOL0     N98601   9.447   8.760   6.896  0.4964  0.2336 -0.2996
  731MOL0     C98602   9.650   9.688   6.191  0.1164  0.5256 -0.8987
  731MOL0     C98603   9.683   9.821   6.234  0.0888  0.2319 -0.7159
  731MOL0     C98604   9.656  10.206   6.435 -0.4818 -0.0927  0.2234
  731MOL0     C98605   9.759  10.227   6.524 -0.4351  1.2831  0.5344
  731MOL0     C98606   9.812  10.348   6.572 -0.4085 -0.9424  0.6917
  731MOL0     C98607   9.749  10.469   6.520 -0.8683  0.8989 -0.7558
  731MOL0     O98608   9.787  10.594   6.561  0.0580  0.0153 -0.5002
  731MOL0     C98609   9.911  10.633   6.623  0.5689 -0.8247 -0.0356
  731MOL0     C98610   9.919  10.787   6.643 -0.0232 -0.5932 -0.9001
  731MOL0     C98611  10.033  10.828   6.734  0.8963  0.3486  0.3884
  731MOL0     C98612  10.169  10.775   6.671  0.3625 -0.1146 -0.1999
  731MOL0     C98613  10.196  10.800   6.525  0.0708 -0.0559 -0.6474
  731MOL0     C98614  10.239  10.829   6.412  0.1222  1.0965 -1.3171
  731MOL0     C98615   9.651  10.455   6.425 -0.5514 -0.2974  0.6232
  731MOL0     C98616   9.596  10.333   6.384  0.3571  0.5102 -0.9846
  731MOL0     C98617   9.475  10.338   6.290 -0.4291 -0.0273 -0.5001
  731MOL0     H98618   9.619   9.760   6.567 -2.7960 -2.9811 -0.2505
  731MOL0     H98619   9.549   9.547   6.480  0.7049 -0.5742  0.1510
  731MOL0     H98620   9.392   9.487   6.175 -2.7417 -0.6746  2.3618
  731MOL0     H98621   9.486   9.341   6.134 -0.1411  0.3216 -0.4596
  731MOL0     H98622   9.281   9.290   6.265 -1.2492  0.0371  1.6360
  731MOL0     H98623   9.323   9.406   6.399  0.1513 -2.3330  2.1443
  731MOL0     H98624   9.478   9.294   6.478  0.8264  2.0727 -3.0337
  731MOL0     H98625   9.507   9.183   6.341  0.6612  1.5684 -2.3249
  731MOL0     H98626   9.224   9.164   6.454  0.0741 -2.1196 -0.0431
  731MOL0     H98627   9.332   9.032   6.405  0.2153  0.2675 -1.1068
  731MOL0     H98628   9.360   9.176   6.675  0.0524 -1.6322  3.5025
  731MOL0     H98629   9.286   9.020   6.653 -0.4203 -0.0911 -0.9956
  731MOL0     H98630   9.496   8.916   6.622 -0.5789  0.7245 -1.5430
  731MOL0     H98631   9.570   9.071   6.549  1.7403  0.7806  1.3295
  731MOL0     H98632   9.605   9.154   6.761 -0.1996 -0.7727 -2.0255
  731MOL0     H98633   9.676   9.000   6.755  1.3039 -0.2985  0.3045
  731MOL0     H98634   9.518   9.053   6.976 -0.4735 -1.8447  0.6586
  731MOL0     H98635   9.387   9.005   6.862 -0.0959 -0.5263 -0.2752
  731MOL0     H98636   9.751   8.861   6.940 -0.0389  0.4908  0.2753
  731MOL0     H98637   9.756   8.521   6.850  0.9348  0.3543  0.5367
  731MOL0     H98638   9.841   8.641   6.939 -0.9565  1.0251 -0.7343
  731MOL0     H98639   9.779   8.562   7.155  1.3104 -0.2452 -0.3826
  731MOL0     H98640   9.684   8.433   7.091  0.0140 -0.3222 -0.1554
  731MOL0     H98641   9.977   8.449   7.007 -0.8250  0.7873 -1.3195
  731MOL0     H98642   9.870   8.317   6.985 -3.6646  0.3033  0.2525
  731MOL0     H98643   9.948   8.416   7.269  0.2849 -2.6785  1.2665
  731MOL0     H98644  10.039   8.306   7.173  2.2458  3.5626 -0.2339
  731MOL0     H98645   9.640   8.442   7.291 -1.5177 -1.0810 -0.8708
  731MOL0     H98646   9.554   8.453   7.525 -2.2684 -2.1457  0.1199
  731MOL0     H98647   9.369   8.585   7.789  2.4919 -0.0959 -1.1197
  731MOL0     H98648   9.279   8.701   8.006  0.9305  0.9871 -2.3653
  731MOL0     H98649   9.141   8.679   8.219  0.9014  0.3449 -1.0596
  731MOL0     H98650   9.181   8.506   8.190 -0.4357  1.0018 -0.4373
  731MOL0     H98651   9.200   8.444   8.414 -1.2807 -0.1525 -0.5662
  731MOL0     H98652   9.202   8.603   8.465 -1.1467  1.6806  0.6835
  731MOL0     H98653   8.992   8.516   8.512 -0.2299 -0.6920 -1.0004
  731MOL0     H98654   8.968   8.630   8.372  1.8717  0.6258 -0.8366
  731MOL0     H98655   8.978   8.404   8.225 -2.3042 -2.9487 -1.2038
  731MOL0     H98656   8.841   8.446   8.318  0.7370  3.1769  1.2254
  731MOL0     H98657   8.927   8.284   8.485 -0.8266  5.4175 -0.9917
  731MOL0     H98658   9.069   8.248   8.396  1.5306  1.3878 -3.1230
  731MOL0     H98659   8.782   8.216   8.292  0.3401 -1.2492 -1.0586
  731MOL0     H98660   8.928   8.164   8.206  1.5508  0.1680 -0.0446
  731MOL0     H98661   8.843   8.057   8.485  1.0097 -1.8166 -0.0009
  731MOL0     H98662   8.971   7.983   8.380 -0.6161 -0.5440 -0.3459
  731MOL0     H98663   8.806   7.942   8.205  1.2272  0.2070  1.4701
  731MOL0     H98664   8.765   7.840   8.348  1.3887 -1.4917 -2.0107
  731MOL0     H98665   9.541   8.439   8.219 -1.7215 -1.0476  0.2388
  731MOL0     H98666   9.642   8.352   8.022  0.1109  0.1026 -2.8770
  731MOL0     H98667   9.756   8.089   7.623  0.6449  0.1080  0.9596
  731MOL0     H98668   9.849   8.070   7.408  2.7496  1.3464 -1.4325
  731MOL0     H98669   9.663   9.656   6.088  2.0946 -0.2558 -0.4499
  731MOL0     H98670   9.721   9.895   6.165  0.5723  0.2922 -0.3869
  731MOL0     H98671   9.796  10.134   6.565 -0.7003  1.5123  1.3159
  731MOL0     H98672   9.887  10.355   6.650 -2.5088 -2.4259  3.0054
  731MOL0     H98673   9.993  10.591   6.564  0.5471  0.6093 -1.1597
  731MOL0     H98674   9.927  10.587   6.721 -3.0599 -1.3314  0.4617
  731MOL0     H98675   9.827  10.837   6.675 -0.1951 -0.8911 -0.9277
  731MOL0     H98676   9.938  10.841   6.550  1.6429  3.6148  1.5685
  731MOL0     H98677  10.020  10.776   6.829  0.6390  0.2036  0.2740
  731MOL0     H98678  10.027  10.937   6.741 -1.1276  0.3079  0.0037
  731MOL0     H98679  10.238  10.848   6.715 -2.8539  3.1999 -0.2005
  731MOL0     H98680  10.191  10.671   6.693 -0.3790 -0.2935 -0.2839
  731MOL0     H98681  10.276  10.860   6.316 -1.5436 -0.3052 -2.4932
  731MOL0     H98682   9.611  10.548   6.384 -0.4123  0.9194  3.0582
  731MOL0     H98683   9.385  10.304   6.342  0.9370  0.2127  2.1788
  731MOL0     H98684   9.460  10.443   6.263  3.5533  1.2351  1.4138
  731MOL0     H98685   9.488  10.292   6.191 -2.4130  0.4085 -1.0231
  732MOL0     O98686   8.696   3.307   4.977 -0.4275  0.0214 -0.1230
  732MOL0     C98687   8.669   3.386   4.890 -0.0205 -0.0543 -0.6719
  732MOL0     O98688   8.551   3.457   4.883  0.0135 -0.2847  0.0663
  732MOL0     C98689   8.497   3.509   4.997 -1.0860  0.1626  0.3610
  732MOL0     C98690   8.504   3.637   5.037  1.0242 -0.3813 -0.5416
  732MOL0     C98691   8.426   3.689   5.135 -0.4148 -0.0344  0.0167
  732MOL0     C98692   8.349   3.607   5.213 -0.4212 -0.4286 -0.3330
  732MOL0     O98693   8.281   3.654   5.319 -0.0524 -0.4055  0.0815
  732MOL0     C98694   8.192   3.763   5.298  1.4973 -0.8346  0.8555
  732MOL0     C98695   8.048   3.724   5.249 -0.0065  0.6600 -0.3397
  732MOL0     C98696   7.989   3.608   5.329 -0.5527  0.3529 -0.5067
  732MOL0     C98697   7.836   3.594   5.306 -0.6555  0.3094  0.1897
  732MOL0     C98698   7.759   3.681   5.394  0.1024 -0.6874 -0.2094
  732MOL0     C98699   7.607   3.644   5.376  0.0509 -1.0488 -0.2070
  732MOL0     C98700   7.535   3.740   5.473 -0.3999  0.4424  0.3501
  732MOL0     C98701   7.389   3.705   5.474 -0.3602 -0.7849 -0.6538
  732MOL0     N98702   7.369   3.568   5.518  0.0301 -0.1910  0.1046
  732MOL0     C98703   7.407   3.519   5.644  0.8340 -0.2074  0.4850
  732MOL0     C98704   7.356   3.389   5.632 -0.4381  0.2614  0.1047
  732MOL0     C98705   7.372   3.281   5.749  0.2521 -1.1089  0.3840
  732MOL0     C98706   7.518   3.234   5.762  0.2167 -0.6017 -0.1792
  732MOL0     C98707   7.534   3.118   5.862  0.9361  0.6774  0.5143
  732MOL0     C98708   7.527   2.971   5.802  0.0547  0.3359  0.4458
  732MOL0     O98709   7.626   2.877   5.872  0.1435 -0.4995  0.6251
  732MOL0     C98710   7.652   2.767   5.800 -0.2613  1.2642 -0.4669
  732MOL0     C98711   7.564   2.706   5.714 -0.6983 -0.2213 -0.1665
  732MOL0     C98712   7.598   2.599   5.623  0.0775 -0.4973  0.4528
  732MOL0     C98713   7.733   2.553   5.623 -0.3780  0.6436  0.3125
  732MOL0     C98714   7.797   2.456   5.523  0.2967  0.2707 -1.2878
  732MOL0     O98715   7.703   2.409   5.440 -0.9635 -0.4066 -0.3927
  732MOL0     C98716   7.734   2.296   5.377 -0.5365  0.0666 -0.6500
  732MOL0     C98717   7.669   2.179   5.428 -1.1169 -1.2670 -1.1220
  732MOL0     C98718   7.709   2.051   5.379  0.0791  1.2740  0.7707
  732MOL0     C98719   7.806   2.040   5.272 -0.0724  0.4975  0.8633
  732MOL0     O98720   7.837   1.919   5.215  0.7044  1.4224 -0.1462
  732MOL0     C98721   7.896   1.823   5.305 -0.4092 -0.7542 -1.0081
  732MOL0     C98722   7.982   1.736   5.225 -0.5219  0.7346 -0.0696
  732MOL0     C98723   8.053   1.626   5.310 -0.2019  0.7889  1.0192
  732MOL0     C98724   8.064   1.492   5.243  0.3373  0.2512  0.5186
  732MOL0     C98725   8.176   1.403   5.311  0.4696 -0.4917 -0.6655
  732MOL0     C98726   8.134   1.252   5.297 -0.2057  0.0981  0.3504
  732MOL0     C98727   8.136   1.205   5.157  0.7096 -0.3583  0.4904
  732MOL0     C98728   8.148   1.053   5.147 -0.4769  0.5005  0.5236
  732MOL0    Cl98729   7.992   0.963   5.200  0.3325 -0.1330 -0.1895
  732MOL0     C98730   7.878   2.154   5.243  0.2885  0.1494  0.1510
  732MOL0     C98731   7.834   2.277   5.282  0.6142 -0.4918 -0.7063
  732MOL0     O98732   7.918   2.438   5.518 -0.1319 -0.6335 -0.0774
  732MOL0     C98733   7.818   2.613   5.725  0.7608 -0.6614 -0.2269
  732MOL0     C98734   7.777   2.711   5.814  0.5014 -1.0170  0.1696
  732MOL0     N98735   7.296   3.359   5.518  0.1213 -0.4185 -1.3045
  732MOL0     N98736   7.291   3.470   5.458  0.0331  0.1372  0.2671
  732MOL0     C98737   8.353   3.470   5.194  0.2095 -0.1233 -0.5560
  732MOL0     C98738   8.429   3.423   5.083  0.3135 -0.4862 -0.0743
  732MOL0     C98739   8.766   3.385   4.771 -0.7231  1.0224  0.0874
  732MOL0     C98740   8.813   3.262   4.722 -0.4579  0.1960  0.4084
  732MOL0     C98741   8.892   3.265   4.606 -0.0167 -0.4989 -1.0046
  732MOL0     C98742   8.936   3.385   4.546  0.6033  1.2066  0.0684
  732MOL0     O98743   9.018   3.383   4.438  0.0495  0.1940  0.3334
  732MOL0     C98744   8.989   3.284   4.336 -0.3141 -0.5051  0.6668
  732MOL0     C98745   9.079   3.308   4.212  0.1048 -0.1431  0.1279
  732MOL0     C98746   9.237   3.308   4.250  0.1851  0.5781  0.2048
  732MOL0     C98747   9.306   3.430   4.189  0.6047 -0.6626 -0.2158
  732MOL0     C98748   9.301   3.430   4.046  0.2150 -0.0569  0.2832
  732MOL0     C98749   9.290   3.430   3.924  0.4836  0.2889 -0.1726
  732MOL0     C98750   8.884   3.505   4.590  0.7139 -0.3627 -0.7887
  732MOL0     C98751   8.804   3.500   4.703 -0.6109 -0.1671  0.2427
  732MOL0     C98752   8.758   3.636   4.759 -0.0078 -0.6962 -0.4154
  732MOL0     H98753   8.560   3.711   4.979  0.3492  0.1975 -0.4688
  732MOL0     H98754   8.425   3.794   5.162 -1.6095 -0.0269  0.0131
  732MOL0     H98755   8.190   3.819   5.391  2.9106  2.3390 -0.8674
  732MOL0     H98756   8.227   3.827   5.217 -2.5855  0.4779 -0.1180
  732MOL0     H98757   8.043   3.700   5.143 -2.4597 -1.0228  0.0565
  732MOL0     H98758   7.977   3.806   5.263 -0.3821 -0.0620  2.7837
  732MOL0     H98759   7.994   3.613   5.438  0.0344  1.2534 -0.5604
  732MOL0     H98760   8.050   3.521   5.302  0.7402  0.7949  0.8290
  732MOL0     H98761   7.801   3.621   5.206 -0.5112  1.8137  0.5140
  732MOL0     H98762   7.808   3.489   5.314  3.7562 -0.9282  3.9867
  732MOL0     H98763   7.791   3.679   5.499  3.6342 -0.9156 -1.1692
  732MOL0     H98764   7.772   3.786   5.369 -2.5619 -0.1084  0.5557
  732MOL0     H98765   7.578   3.656   5.271  0.3888 -1.6402 -0.3742
  732MOL0     H98766   7.600   3.538   5.401 -1.9326 -0.9721 -0.2639
  732MOL0     H98767   7.554   3.839   5.431 -0.9165  0.1408 -0.6271
  732MOL0     H98768   7.583   3.737   5.572 -0.1529 -1.4062  0.2079
  732MOL0     H98769   7.331   3.774   5.536 -3.6028 -1.0252 -3.1405
  732MOL0     H98770   7.348   3.727   5.375 -0.5997  1.2011 -0.1475
  732MOL0     H98771   7.458   3.567   5.726  1.0785  1.0699 -0.3864
  732MOL0     H98772   7.333   3.331   5.837  2.6929  2.6581 -0.4474
  732MOL0     H98773   7.301   3.199   5.737 -1.0445 -0.2422  1.8555
  732MOL0     H98774   7.554   3.211   5.661 -1.1098  2.9759 -1.6054
  732MOL0     H98775   7.586   3.313   5.795 -0.9619 -0.2385  1.4862
  732MOL0     H98776   7.469   3.125   5.950  1.7999  2.0225  1.0652
  732MOL0     H98777   7.633   3.128   5.907  0.5650 -1.8761  2.1217
  732MOL0     H98778   7.553   2.982   5.696 -0.7005 -1.8563 -0.0323
  732MOL0     H98779   7.423   2.940   5.819  1.6522 -5.3524  1.9269
  732MOL0     H98780   7.456   2.721   5.718 -0.9801 -0.4384 -3.8302
  732MOL0     H98781   7.532   2.553   5.550  2.9789 -0.1751 -2.5909
  732MOL0     H98782   7.611   2.187   5.519 -1.8105  2.2303 -1.7482
  732MOL0     H98783   7.657   1.959   5.401  1.2035  0.1939 -0.8743
  732MOL0     H98784   7.947   1.874   5.387 -3.6489 -0.1334  0.8208
  732MOL0     H98785   7.821   1.771   5.366 -0.0352  1.0932  1.1417
  732MOL0     H98786   7.925   1.690   5.144  0.8681  0.5484 -0.9896
  732MOL0     H98787   8.055   1.800   5.175 -2.4246  2.7232 -0.4324
  732MOL0     H98788   8.158   1.656   5.310  0.1708 -0.3837 -0.6857
  732MOL0     H98789   8.014   1.610   5.410  4.3614 -3.6838  2.4826
  732MOL0     H98790   8.081   1.510   5.136  2.7650  1.5727  1.0514
  732MOL0     H98791   7.965   1.444   5.242  0.1038  0.4515 -3.1849
  732MOL0     H98792   8.183   1.428   5.417  3.1934 -1.7187 -0.4618
  732MOL0     H98793   8.277   1.421   5.272  1.0446 -3.9370 -1.0976
  732MOL0     H98794   8.190   1.189   5.366  0.7169  0.2327 -0.2534
  732MOL0     H98795   8.033   1.231   5.333 -0.4448  0.0720 -0.3213
  732MOL0     H98796   8.203   1.259   5.090  0.3280  0.1499  0.5037
  732MOL0     H98797   8.040   1.224   5.108  1.2255 -1.4267 -0.9805
  732MOL0     H98798   8.172   1.036   5.042  2.2137  1.5301  0.8901
  732MOL0     H98799   8.237   1.017   5.201  0.1419 -0.3941 -1.0221
  732MOL0     H98800   7.970   2.142   5.185  1.1596 -0.5892  1.6290
  732MOL0     H98801   7.885   2.372   5.271  1.3274 -0.8661 -0.6603
  732MOL0     H98802   7.924   2.589   5.724  2.2609  4.5000 -3.9339
  732MOL0     H98803   7.834   2.744   5.900 -0.8678  0.5221  0.5566
  732MOL0     H98804   8.284   3.404   5.246  2.5415 -3.3222 -1.2228
  732MOL0     H98805   8.431   3.317   5.057  0.2588 -0.0181 -2.2143
  732MOL0     H98806   8.790   3.178   4.787 -4.3545 -0.1301 -1.0975
  732MOL0     H98807   8.941   3.170   4.587 -0.5413 -0.9444 -0.1677
  732MOL0     H98808   8.884   3.279   4.307  0.4829 -2.6560 -2.4442
  732MOL0     H98809   9.022   3.186   4.371  0.6007 -0.6828 -0.6033
  732MOL0     H98810   9.054   3.410   4.183  2.3040  0.6863  0.9789
  732MOL0     H98811   9.057   3.233   4.135  0.7861 -0.2060 -0.0142
  732MOL0     H98812   9.281   3.217   4.208 -0.3751 -0.0725  0.9948
  732MOL0     H98813   9.252   3.303   4.359  1.4858  5.3796  0.4876
  732MOL0     H98814   9.257   3.520   4.227 -2.4732 -3.0742  2.0198
  732MOL0     H98815   9.408   3.427   4.228  0.6620 -0.8653 -0.3787
  732MOL0     H98816   9.295   3.434   3.817 -1.7674  0.2658 -0.3259
  732MOL0     H98817   8.907   3.600   4.542  1.1662 -1.1992 -2.2930
  732MOL0     H98818   8.784   3.641   4.865 -1.2365  1.8039 -0.1622
  732MOL0     H98819   8.802   3.714   4.696  1.5041 -1.4875 -0.3924
  732MOL0     H98820   8.650   3.655   4.748 -0.3371 -2.3761 -0.3682
  733MOL0     O98821   9.646   5.475   5.875 -0.2848 -0.2484  0.3753
  733MOL0     C98822   9.606   5.583   5.841  0.5610  0.0842  0.9352
  733MOL0     O98823   9.555   5.676   5.925  1.0992 -0.2133  0.7418
  733MOL0     C98824   9.586   5.674   6.054  1.9587  0.8124  0.7243
  733MOL0     C98825   9.651   5.778   6.113 -0.4201  0.2714 -0.8195
  733MOL0     C98826   9.664   5.788   6.249  0.8854  1.1593 -0.3446
  733MOL0     C98827   9.606   5.688   6.334 -1.0728 -0.0124 -0.4270
  733MOL0     O98828   9.609   5.674   6.473 -0.0702  0.8391  0.2442
  733MOL0     C98829   9.623   5.805   6.538  0.8729 -0.4543 -0.4879
  733MOL0     C98830   9.480   5.864   6.535  0.1572 -0.2391  0.2267
  733MOL0     C98831   9.382   5.772   6.623 -1.0103 -0.0079  1.5785
  733MOL0     C98832   9.239   5.734   6.558  0.0865 -0.3072 -0.0910
  733MOL0     C98833   9.257   5.602   6.482  0.1086 -0.5736  0.5825
  733MOL0     C98834   9.123   5.543   6.430  1.0567  0.0976  0.1291
  733MOL0     C98835   9.146   5.453   6.301 -1.0779  0.1802  0.6115
  733MOL0     C98836   9.011   5.422   6.229  0.3157  0.9292  0.5911
  733MOL0     N98837   9.038   5.326   6.124 -0.0788  0.3267 -0.1939
  733MOL0     C98838   9.076   5.364   5.995 -0.4887 -0.4171 -0.1694
  733MOL0     C98839   9.090   5.246   5.940  0.1512 -0.2517  0.4760
  733MOL0     C98840   9.142   5.219   5.795 -0.4801 -0.0553 -0.1277
  733MOL0     C98841   9.236   5.323   5.756  0.5593 -0.2785 -1.1844
  733MOL0     C98842   9.317   5.300   5.621 -1.1130 -0.1053  0.4005
  733MOL0     C98843   9.232   5.322   5.498 -0.3686 -0.1248 -0.2451
  733MOL0     O98844   9.329   5.313   5.393  0.5624 -0.6854 -0.6232
  733MOL0     C98845   9.274   5.364   5.273 -0.0232  0.2944 -0.9777
  733MOL0     C98846   9.244   5.273   5.164 -0.2669  0.8721 -0.2943
  733MOL0     C98847   9.191   5.314   5.045  0.3298 -0.4920 -0.3284
  733MOL0     C98848   9.177   5.455   5.028 -0.1000  0.3053  0.1288
  733MOL0     C98849   9.105   5.498   4.901 -0.8942  0.3967  0.2760
  733MOL0     O98850   9.018   5.402   4.847 -0.5721 -0.2612  0.3096
  733MOL0     C98851   8.976   5.415   4.715 -0.5231  0.4764 -0.7320
  733MOL0     C98852   8.869   5.329   4.676  1.0784  1.1606 -0.7007
  733MOL0     C98853   8.805   5.336   4.554  0.3057  0.5780  0.4657
  733MOL0     C98854   8.863   5.419   4.455 -0.0600 -0.4595 -0.4043
  733MOL0     O98855   8.797   5.427   4.342  0.3924  0.3852  0.1121
  733MOL0     C98856   8.816   5.316   4.259 -0.1902  0.3311 -0.3277
  733MOL0     C98857   8.815   5.375   4.122 -0.1947  0.0853 -0.1068
  733MOL0     C98858   8.911   5.486   4.090 -0.1768 -0.0195 -0.4108
  733MOL0     C98859   8.873   5.532   3.955  0.7519  0.0304  0.0539
  733MOL0     C98860   8.992   5.606   3.885  0.9795  0.1755 -0.1310
  733MOL0     C98861   8.943   5.656   3.755 -0.3698 -0.1215  0.0734
  733MOL0     C98862   9.061   5.712   3.662  0.5422 -0.2833  0.0124
  733MOL0     C98863   9.001   5.754   3.531 -0.2269  1.0234 -1.5790
  733MOL0    Cl98864   9.119   5.831   3.411 -0.4776  0.0451 -0.3733
  733MOL0     C98865   8.987   5.487   4.485  0.3777 -0.0230  0.3672
  733MOL0     C98866   9.040   5.490   4.613  0.3257  0.4863 -0.3476
  733MOL0     O98867   9.136   5.609   4.848 -0.1240  0.0322 -0.0691
  733MOL0     C98868   9.211   5.545   5.128  0.3112 -0.3703  1.0386
  733MOL0     C98869   9.254   5.500   5.252 -0.7142 -0.2423  0.0612
  733MOL0     N98870   9.035   5.146   6.013 -0.4798 -0.2716 -0.0729
  733MOL0     N98871   8.997   5.195   6.125  0.7388  0.0217  1.0307
  733MOL0     C98872   9.536   5.585   6.272 -0.8668  0.5168 -0.7594
  733MOL0     C98873   9.532   5.574   6.131  0.1172 -0.5089 -0.4140
  733MOL0     C98874   9.599   5.613   5.696 -0.0137 -0.0306 -0.0709
  733MOL0     C98875   9.636   5.506   5.615 -1.1345  0.6795 -0.0234
  733MOL0     C98876   9.632   5.524   5.474 -0.1941 -0.6369  0.1398
  733MOL0     C98877   9.621   5.660   5.414 -0.2688  0.5685 -0.0662
  733MOL0     O98878   9.646   5.678   5.279 -0.0698 -1.1347 -0.6051
  733MOL0     C98879   9.630   5.578   5.182  0.1233 -0.5493 -0.5043
  733MOL0     C98880   9.633   5.664   5.057 -0.2442 -0.1512  1.1510
  733MOL0     C98881   9.502   5.739   5.032 -0.4384 -0.7025  1.1751
  733MOL0     C98882   9.519   5.864   4.953  0.0873  0.0516  0.9188
  733MOL0     C98883   9.382   5.907   4.910 -0.6273 -0.7783  0.6570
  733MOL0     C98884   9.270   5.953   4.904 -0.2420  0.3608  0.3008
  733MOL0     C98885   9.592   5.758   5.502 -0.4279 -0.2672 -1.2656
  733MOL0     C98886   9.576   5.746   5.644  0.5097  0.5066 -0.3979
  733MOL0     C98887   9.560   5.878   5.721 -0.3199  0.5145 -0.4116
  733MOL0     H98888   9.713   5.837   6.045 -0.5275 -0.0678 -1.2161
  733MOL0     H98889   9.712   5.876   6.291 -1.9748  3.1195 -0.8543
  733MOL0     H98890   9.656   5.785   6.640 -1.1856 -2.2829 -0.1171
  733MOL0     H98891   9.704   5.865   6.495  2.6217 -0.6193  2.3716
  733MOL0     H98892   9.436   5.869   6.435 -1.0259 -0.6598  0.7066
  733MOL0     H98893   9.485   5.965   6.575 -0.4807  0.2566 -0.8960
  733MOL0     H98894   9.355   5.836   6.707 -1.0424  2.8929 -0.4714
  733MOL0     H98895   9.444   5.692   6.663  0.0746 -0.3397 -0.6146
  733MOL0     H98896   9.162   5.716   6.634  0.5849  0.3287  0.5922
  733MOL0     H98897   9.201   5.812   6.492 -0.1912  0.1822  0.6289
  733MOL0     H98898   9.304   5.616   6.384 -3.2582  1.4220 -0.8956
  733MOL0     H98899   9.305   5.534   6.554  0.7669 -1.1634 -0.3949
  733MOL0     H98900   9.078   5.482   6.508  1.6320 -1.9038 -1.0433
  733MOL0     H98901   9.060   5.628   6.403  1.6359  0.6597  0.5050
  733MOL0     H98902   9.201   5.361   6.324 -0.4807  0.0324 -1.2850
  733MOL0     H98903   9.207   5.503   6.225  1.5230 -2.3459  0.8521
  733MOL0     H98904   8.934   5.384   6.298 -1.6647 -0.0704 -2.0098
  733MOL0     H98905   8.970   5.508   6.175 -1.0040 -0.5626 -0.8917
  733MOL0     H98906   9.111   5.458   5.954  3.7797 -2.4607 -1.7911
  733MOL0     H98907   9.195   5.123   5.792 -3.3375 -1.7463  0.2964
  733MOL0     H98908   9.065   5.205   5.719  2.0889  0.9232 -3.1294
  733MOL0     H98909   9.188   5.421   5.758  1.3032  0.1691  2.4726
  733MOL0     H98910   9.312   5.321   5.835  0.2652 -3.3551 -0.8652
  733MOL0     H98911   9.365   5.202   5.626  1.1226  0.9214  0.3415
  733MOL0     H98912   9.401   5.370   5.626  3.6272 -5.1625  1.0170
  733MOL0     H98913   9.181   5.418   5.501  3.3912  2.1636 -2.3120
  733MOL0     H98914   9.148   5.253   5.494 -2.9427  2.1159  5.1067
  733MOL0     H98915   9.250   5.169   5.194 -0.6954  0.5940 -1.1380
  733MOL0     H98916   9.151   5.243   4.973 -0.8022 -0.4657  0.2642
  733MOL0     H98917   8.825   5.273   4.758  1.5536 -0.6617 -1.6396
  733MOL0     H98918   8.704   5.295   4.548  0.7231 -0.9806  2.6630
  733MOL0     H98919   8.912   5.265   4.273  0.2209  0.9887 -0.7024
  733MOL0     H98920   8.727   5.254   4.277 -1.0542  1.7716  0.5820
  733MOL0     H98921   8.837   5.290   4.058 -0.8171  0.4812 -0.8772
  733MOL0     H98922   8.715   5.408   4.092 -0.2984  1.5013  1.6022
  733MOL0     H98923   8.912   5.566   4.164  1.7943 -1.3979  1.1641
  733MOL0     H98924   9.009   5.437   4.091 -1.2518 -2.5851 -3.5138
  733MOL0     H98925   8.792   5.605   3.960  1.8457  1.2552  0.2667
  733MOL0     H98926   8.840   5.450   3.890 -1.2353 -0.4467  1.5789
  733MOL0     H98927   9.075   5.535   3.878 -0.9796 -2.4234  1.2453
  733MOL0     H98928   9.017   5.697   3.941 -3.2348  1.3878  0.1287
  733MOL0     H98929   8.897   5.566   3.713  1.3241 -0.9026 -0.1598
  733MOL0     H98930   8.872   5.738   3.772 -0.1707  0.1440 -0.3564
  733MOL0     H98931   9.139   5.639   3.639  2.3916  2.1411 -1.8607
  733MOL0     H98932   9.118   5.793   3.708  1.2300  1.5186 -3.6315
  733MOL0     H98933   8.957   5.669   3.478  0.8046  0.3302 -1.3641
  733MOL0     H98934   8.920   5.825   3.548 -1.0163 -0.1079 -0.3786
  733MOL0     H98935   9.035   5.531   4.398 -1.6133 -1.2966 -1.4884
  733MOL0     H98936   9.130   5.547   4.634 -1.0010  2.1236  1.2881
  733MOL0     H98937   9.201   5.649   5.097  1.1686 -0.3812  0.6844
  733MOL0     H98938   9.276   5.566   5.335 -0.2007  1.2276 -1.1993
  733MOL0     H98939   9.505   5.503   6.335  1.6857  0.6764  0.8442
  733MOL0     H98940   9.484   5.492   6.078  1.3626 -0.1674 -2.1739
  733MOL0     H98941   9.655   5.407   5.653 -0.5216  1.8247  2.9021
  733MOL0     H98942   9.640   5.445   5.399 -2.6535  1.4118 -2.5236
  733MOL0     H98943   9.541   5.516   5.195  1.4275 -2.3566  0.1881
  733MOL0     H98944   9.720   5.517   5.193  1.2012  1.1593  0.4744
  733MOL0     H98945   9.649   5.609   4.964 -0.0286  0.9741  0.4913
  733MOL0     H98946   9.710   5.742   5.060 -0.5179  0.0987  1.8453
  733MOL0     H98947   9.453   5.786   5.117 -2.1643  1.9582 -1.0910
  733MOL0     H98948   9.434   5.665   4.989  0.8601 -0.5174 -1.4368
  733MOL0     H98949   9.567   5.948   5.004 -0.6885  2.6635 -2.2854
  733MOL0     H98950   9.571   5.845   4.858 -0.5757  2.3143  0.0333
  733MOL0     H98951   9.179   6.008   4.894 -0.4550  0.1472  0.9856
  733MOL0     H98952   9.573   5.853   5.453 -0.7180  0.3441  0.0079
  733MOL0     H98953   9.459   5.866   5.762 -1.3210  2.3554 -2.1517
  733MOL0     H98954   9.639   5.875   5.796 -1.0356 -2.6874  0.3932
  733MOL0     H98955   9.566   5.965   5.655  1.4326  1.4922  0.9592
  734MOL0     O98956   8.930   6.829   1.031  0.4969 -0.6854 -0.3111
  734MOL0     C98957   9.020   6.869   0.955 -0.1919  0.5315  0.0218
  734MOL0     O98958   9.007   6.949   0.852  0.1021 -0.5113  0.3918
  734MOL0     C98959   8.875   6.976   0.817 -0.0343 -0.5298 -0.5742
  734MOL0     C98960   8.757   6.995   0.908 -0.0153  0.7940 -0.1283
  734MOL0     C98961   8.636   7.027   0.846 -0.4058 -0.5966 -0.2329
  734MOL0     C98962   8.617   7.036   0.713 -0.2309  0.2178  0.4788
  734MOL0     O98963   8.497   7.051   0.645 -1.0392 -0.0101  0.8734
  734MOL0     C98964   8.378   7.080   0.714  1.4820  0.2984 -0.0936
  734MOL0     C98965   8.253   7.070   0.620  0.6640  0.4365  0.0094
  734MOL0     C98966   8.255   6.926   0.560 -0.3694 -0.4017  0.7409
  734MOL0     C98967   8.123   6.886   0.484 -0.6703 -0.3233 -0.6742
  734MOL0     C98968   8.030   6.821   0.585 -0.5457 -0.4987 -0.0144
  734MOL0     C98969   8.068   6.678   0.629  0.3213  0.0273 -0.1113
  734MOL0     C98970   8.010   6.659   0.774  0.1016  0.6675 -0.5495
  734MOL0     C98971   8.034   6.508   0.816 -0.5756  0.6920  0.2834
  734MOL0     N98972   8.009   6.480   0.962  0.0498  1.7065 -0.0982
  734MOL0     C98973   7.885   6.460   1.013 -0.3155 -0.1223  0.1339
  734MOL0     C98974   7.909   6.452   1.147  1.2792  0.1455  0.6202
  734MOL0     C98975   7.795   6.414   1.235  0.4272 -0.0913  0.3109
  734MOL0     C98976   7.716   6.540   1.276 -0.6230  0.6873 -0.0310
  734MOL0     C98977   7.598   6.481   1.340  0.2890  0.3267  0.0907
  734MOL0     C98978   7.525   6.583   1.410  0.1414  0.6322 -0.5523
  734MOL0     O98979   7.428   6.515   1.496 -0.0499 -0.2736  0.1220
  734MOL0     C98980   7.300   6.570   1.501 -0.6352  1.0020  0.3018
  734MOL0     C98981   7.209   6.492   1.561 -1.0381 -0.4123 -0.7415
  734MOL0     C98982   7.083   6.529   1.584  0.2628 -0.2597 -1.0808
  734MOL0     C98983   7.043   6.656   1.552  0.0018 -0.0411  0.6508
  734MOL0     C98984   6.911   6.703   1.587 -0.3028  0.5335  0.8566
  734MOL0     O98985   6.837   6.611   1.644 -0.7602 -0.1922  0.4069
  734MOL0     C98986   6.699   6.606   1.614 -0.2662 -0.0299  0.1905
  734MOL0     C98987   6.619   6.677   1.520  1.1523  0.8867  0.1572
  734MOL0     C98988   6.479   6.662   1.520  0.3625 -0.2866  0.0205
  734MOL0     C98989   6.414   6.565   1.600  1.2214  0.0358 -0.5120
  734MOL0     O98990   6.278   6.543   1.619 -0.1317  0.7897  0.6469
  734MOL0     C98991   6.184   6.644   1.594  0.0045  0.2916 -0.1618
  734MOL0     C98992   6.204   6.770   1.673  0.4189  0.4097  0.1169
  734MOL0     C98993   6.236   6.767   1.819  0.5945  0.2888 -0.1676
  734MOL0     C98994   6.099   6.732   1.897  0.7283  0.3968 -0.3296
  734MOL0     C98995   6.146   6.712   2.045  0.4901  0.2474 -0.4871
  734MOL0     C98996   6.052   6.625   2.138  0.3898  0.5670  0.5832
  734MOL0     C98997   5.910   6.701   2.148 -1.0868  0.2211  0.9892
  734MOL0     C98998   5.910   6.835   2.221  0.3982  0.3226  0.9278
  734MOL0    Cl98999   5.942   6.803   2.392  0.0621 -0.1169 -0.3682
  734MOL0     C99000   6.496   6.494   1.685 -0.2374  0.2583 -0.6700
  734MOL0     C99001   6.640   6.509   1.694  0.1401  0.3792  0.2793
  734MOL0     O99002   6.879   6.821   1.556 -0.2377  0.0244  1.2831
  734MOL0     C99003   7.122   6.734   1.477 -0.2651 -0.0780  0.1381
  734MOL0     C99004   7.250   6.692   1.455 -0.3387 -0.5265 -0.6041
  734MOL0     N99005   8.041   6.474   1.174  0.0615  0.8316 -0.2479
  734MOL0     N99006   8.098   6.494   1.057  0.3671 -0.4704  0.3448
  734MOL0     C99007   8.730   7.017   0.628 -0.6841  0.1495 -0.0816
  734MOL0     C99008   8.853   6.989   0.676  0.5792  0.1846 -0.5110
  734MOL0     C99009   9.149   6.792   0.948  0.2985 -0.3653 -0.3938
  734MOL0     C99010   9.223   6.771   0.826 -0.2779  0.2988 -0.0857
  734MOL0     C99011   9.337   6.688   0.819 -0.4675  0.6920 -0.4281
  734MOL0     C99012   9.386   6.617   0.930 -0.3179 -0.1198 -0.8387
  734MOL0     O99013   9.483   6.521   0.906 -0.3740  0.2245 -0.6930
  734MOL0     C99014   9.551   6.452   1.009  0.3419 -0.4353 -0.0989
  734MOL0     C99015   9.625   6.333   0.961  0.2559 -0.2662 -0.4554
  734MOL0     C99016   9.760   6.365   0.905  0.3659 -0.2920 -0.0517
  734MOL0     C99017   9.858   6.249   0.903  0.8251 -0.5839 -0.5292
  734MOL0     C99018   9.974   6.281   0.822  0.2534 -0.2953  0.1036
  734MOL0     C99019  10.062   6.298   0.740 -0.3321  0.4569  0.1100
  734MOL0     C99020   9.326   6.643   1.057  0.4085  0.5076 -0.6680
  734MOL0     C99021   9.207   6.726   1.070 -1.7072 -0.2550  0.0171
  734MOL0     C99022   9.150   6.738   1.206 -0.1710  0.0497 -0.7150
  734MOL0     H99023   8.753   6.973   1.014 -1.0918  0.5541 -0.2040
  734MOL0     H99024   8.546   7.046   0.904  0.8270 -1.5410  2.1290
  734MOL0     H99025   8.353   7.013   0.796 -1.6548  3.4067  1.8005
  734MOL0     H99026   8.381   7.185   0.746  3.7247  0.6357 -1.1987
  734MOL0     H99027   8.251   7.142   0.538 -1.3097  1.8396  1.2148
  734MOL0     H99028   8.156   7.077   0.670 -2.0592 -1.2995 -4.4365
  734MOL0     H99029   8.264   6.860   0.647 -0.5719 -0.4971  0.6888
  734MOL0     H99030   8.343   6.915   0.496 -0.4040 -1.2390  0.8327
  734MOL0     H99031   8.074   6.973   0.440 -0.5424  1.9132  3.1583
  734MOL0     H99032   8.153   6.816   0.406  0.8154 -1.7006  1.0432
  734MOL0     H99033   8.019   6.888   0.670  1.7188  1.1507 -0.9057
  734MOL0     H99034   7.928   6.820   0.545  0.8235 -4.4334 -4.2702
  734MOL0     H99035   8.020   6.604   0.565  1.1694 -1.8125  1.2796
  734MOL0     H99036   8.176   6.660   0.621  0.3052 -0.6026  0.9029
  734MOL0     H99037   7.904   6.687   0.771 -0.6378 -1.8981 -0.6232
  734MOL0     H99038   8.067   6.718   0.846  0.5150 -1.1968  0.7227
  734MOL0     H99039   7.959   6.454   0.758 -1.3000  2.5201 -0.5607
  734MOL0     H99040   8.134   6.474   0.785  0.8958  1.3121  3.7791
  734MOL0     H99041   7.793   6.459   0.955  0.7745 -0.2652 -1.6335
  734MOL0     H99042   7.739   6.337   1.181  2.2841  0.2855 -2.3970
  734MOL0     H99043   7.846   6.377   1.324  1.4437 -0.3774 -0.3634
  734MOL0     H99044   7.772   6.603   1.346  0.6742 -0.2880 -0.1669
  734MOL0     H99045   7.686   6.597   1.188  0.1839 -0.8238 -1.3346
  734MOL0     H99046   7.625   6.412   1.420  0.0409  0.6936  0.4963
  734MOL0     H99047   7.525   6.442   1.268 -1.2194  0.5591  1.4641
  734MOL0     H99048   7.471   6.645   1.338 -1.6093  0.1805  0.3215
  734MOL0     H99049   7.587   6.651   1.470 -0.7402  3.5599 -2.6958
  734MOL0     H99050   7.253   6.398   1.592 -2.1821 -0.3211  1.3652
  734MOL0     H99051   7.020   6.450   1.624  1.3975 -1.0760 -0.8459
  734MOL0     H99052   6.660   6.756   1.458  1.2667  1.7082  1.2497
  734MOL0     H99053   6.409   6.726   1.467  0.0248 -1.8128 -1.4925
  734MOL0     H99054   6.162   6.663   1.489  0.0932 -0.6919 -0.3755
  734MOL0     H99055   6.088   6.612   1.635  0.5776  1.7126  2.5048
  734MOL0     H99056   6.286   6.824   1.622 -0.0344  1.1721  0.1753
  734MOL0     H99057   6.115   6.833   1.667 -0.5194 -0.9627 -1.1119
  734MOL0     H99058   6.311   6.688   1.824  2.9928  2.2702 -2.1389
  734MOL0     H99059   6.289   6.859   1.845  2.9837 -0.3030 -2.5048
  734MOL0     H99060   6.063   6.635   1.862 -0.3243 -0.1681  2.1139
  734MOL0     H99061   6.021   6.807   1.885 -0.6707 -1.1230 -1.1018
  734MOL0     H99062   6.166   6.811   2.087 -1.5744  0.0838  1.0765
  734MOL0     H99063   6.235   6.650   2.053 -1.3906 -2.3369  3.1474
  734MOL0     H99064   6.031   6.526   2.097 -2.3158 -0.3699  3.7714
  734MOL0     H99065   6.102   6.621   2.235  0.4748  2.8011  0.6968
  734MOL0     H99066   5.834   6.635   2.190 -1.3529  0.9754  1.7311
  734MOL0     H99067   5.880   6.730   2.047 -1.1316 -1.2734  0.5468
  734MOL0     H99068   5.981   6.902   2.171  2.1242 -1.8089  0.3597
  734MOL0     H99069   5.811   6.880   2.206  0.9415  2.0496  2.1791
  734MOL0     H99070   6.467   6.416   1.755  0.1964  2.1840  1.7608
  734MOL0     H99071   6.705   6.455   1.761  0.3662  0.3211  0.0141
  734MOL0     H99072   7.093   6.832   1.439  1.7182 -0.2910 -2.1565
  734MOL0     H99073   7.310   6.762   1.397  0.3394  0.3047  1.0095
  734MOL0     H99074   8.726   7.026   0.520  0.4759 -2.6058 -0.4264
  734MOL0     H99075   8.923   6.967   0.597 -0.2015 -0.3761 -1.0663
  734MOL0     H99076   9.184   6.813   0.734 -0.8318 -0.3855 -0.1766
  734MOL0     H99077   9.389   6.692   0.723  1.5178 -1.5624  0.4402
  734MOL0     H99078   9.480   6.409   1.080  1.9621 -2.1262  0.5922
  734MOL0     H99079   9.626   6.513   1.059  2.4121 -1.3487 -1.9100
  734MOL0     H99080   9.561   6.290   0.883  0.2763  1.0356 -1.2069
  734MOL0     H99081   9.622   6.255   1.038  0.1214  0.5789  0.4102
  734MOL0     H99082   9.800   6.436   0.978 -1.0522  0.6858 -0.1787
  734MOL0     H99083   9.753   6.416   0.808  1.2308  1.0149  0.5436
  734MOL0     H99084   9.883   6.225   1.007  0.7166 -1.1118 -0.6220
  734MOL0     H99085   9.801   6.163   0.866  1.2974 -1.4266  0.6222
  734MOL0     H99086  10.145   6.325   0.678 -1.8731  1.7577 -1.5017
  734MOL0     H99087   9.359   6.586   1.143  0.1773  2.3329  0.6977
  734MOL0     H99088   9.052   6.691   1.212 -0.7118  0.4558 -4.0880
  734MOL0     H99089   9.220   6.707   1.284 -2.3600 -1.0323  0.9127
  734MOL0     H99090   9.130   6.844   1.223  0.1027  0.7218 -3.8565
  735MOL0     O99091   9.591   3.183   7.899 -0.2051 -0.5717  0.2405
  735MOL0     C99092   9.688   3.171   7.977  0.8029  0.2111  0.0869
  735MOL0     O99093   9.821   3.146   7.940 -0.4005  0.7879  0.4044
  735MOL0     C99094   9.852   3.185   7.812  0.4415 -0.7203  0.2058
  735MOL0     C99095   9.870   3.092   7.713 -0.6676  0.6297  0.0666
  735MOL0     C99096   9.915   3.136   7.587 -0.1577  0.0184  0.5122
  735MOL0     C99097   9.936   3.275   7.559 -0.1439  0.0198 -0.0272
  735MOL0     O99098   9.985   3.321   7.442  0.2370  0.1642 -0.1522
  735MOL0     C99099  10.072   3.236   7.367  0.2781 -0.4613 -0.2861
  735MOL0     C99100  10.187   3.325   7.329 -0.2507 -0.3692  0.4032
  735MOL0     C99101  10.266   3.381   7.446 -0.3619 -0.1685  0.1768
  735MOL0     C99102  10.396   3.456   7.403  0.0931 -0.1027 -0.1004
  735MOL0     C99103  10.465   3.521   7.530  0.5254 -0.4708 -0.1939
  735MOL0     C99104  10.546   3.428   7.615 -0.2074  0.2944 -0.6248
  735MOL0     C99105  10.664   3.368   7.529  0.3556  0.1909  0.5165
  735MOL0     C99106  10.720   3.240   7.603 -0.3980 -0.5208  0.6945
  735MOL0     N99107  10.829   3.178   7.525  0.5339  0.1832  0.5766
  735MOL0     C99108  10.929   3.254   7.462  1.2041  0.1584 -1.3501
  735MOL0     C99109  10.988   3.178   7.366  0.0354  0.0483 -0.4661
  735MOL0     C99110  11.088   3.230   7.272  0.2651  0.0034 -1.0952
  735MOL0     C99111  11.004   3.283   7.155 -0.0529  0.6536  0.2811
  735MOL0     C99112  11.086   3.356   7.044  0.2141  0.1869 -0.6390
  735MOL0     C99113  11.156   3.480   7.082 -0.3085  0.2127 -0.2414
  735MOL0     O99114  11.075   3.584   7.144 -0.3231 -0.0009 -0.0123
  735MOL0     C99115  11.059   3.583   7.281 -0.5029  0.3341 -0.7457
  735MOL0     C99116  11.161   3.569   7.374 -0.0100 -0.0434  0.4947
  735MOL0     C99117  11.143   3.591   7.507 -0.4224  0.3603 -0.5572
  735MOL0     C99118  11.014   3.630   7.553  0.0466  0.7113  0.6262
  735MOL0     C99119  10.984   3.626   7.702  0.1251  0.1821  0.1698
  735MOL0     O99120  11.085   3.582   7.779  0.0608 -0.0093  0.9567
  735MOL0     C99121  11.075   3.566   7.911 -0.0992  0.2957  0.6988
  735MOL0     C99122  11.013   3.455   7.959 -0.4238  1.0098  0.6570
  735MOL0     C99123  10.981   3.444   8.099 -1.0108 -0.5277  0.1354
  735MOL0     C99124  11.051   3.523   8.192  0.0008  0.0223  0.0375
  735MOL0     O99125  11.030   3.515   8.329  0.1158  0.0274  0.4548
  735MOL0     C99126  11.049   3.385   8.392 -0.2494 -0.7753 -0.5784
  735MOL0     C99127  10.920   3.340   8.463 -0.0424 -0.5362 -0.1086
  735MOL0     C99128  10.924   3.391   8.603  0.3098  0.7415  0.3105
  735MOL0     C99129  10.803   3.333   8.679 -0.5331  0.1599  0.0411
  735MOL0     C99130  10.848   3.193   8.733 -0.8945  0.2339  0.1067
  735MOL0     C99131  10.743   3.129   8.826 -0.1887  0.0727 -0.3662
  735MOL0     C99132  10.791   2.992   8.880 -0.6453  0.0965 -0.0981
  735MOL0     C99133  10.800   2.872   8.791  0.4269  0.0677 -0.4001
  735MOL0    Cl99134  10.635   2.851   8.719  0.2192  0.4369  0.1315
  735MOL0     C99135  11.121   3.632   8.138  0.7396  0.0162 -0.3149
  735MOL0     C99136  11.138   3.647   8.000  0.3097 -1.7089 -0.0072
  735MOL0     O99137  10.872   3.640   7.740 -0.1329  0.2132 -0.4982
  735MOL0     C99138  10.915   3.653   7.461  0.3942  0.3864 -0.4744
  735MOL0     C99139  10.937   3.630   7.330  0.3881 -0.3177  0.0990
  735MOL0     N99140  10.929   3.049   7.369  0.1127  0.1494 -0.1237
  735MOL0     N99141  10.839   3.052   7.467  0.5723  0.0792  0.4464
  735MOL0     C99142   9.906   3.369   7.656 -0.6351  0.4758  0.1775
  735MOL0     C99143   9.870   3.324   7.783  0.2583 -0.3093  0.1488
  735MOL0     C99144   9.648   3.164   8.120  0.7401 -0.7459 -0.0892
  735MOL0     C99145   9.691   3.052   8.198 -0.3962 -0.6756 -0.2437
  735MOL0     C99146   9.643   3.032   8.329  0.6026 -0.4815  0.8580
  735MOL0     C99147   9.548   3.119   8.392 -0.2103  0.0262 -0.2417
  735MOL0     O99148   9.509   3.100   8.524  0.4136 -0.3803  0.0221
  735MOL0     C99149   9.447   3.208   8.597 -0.1959  0.8918  0.3503
  735MOL0     C99150   9.452   3.158   8.741 -0.3932  0.4778  0.0009
  735MOL0     C99151   9.562   3.235   8.809 -0.3381 -0.5613 -0.7002
  735MOL0     C99152   9.552   3.208   8.961 -0.6660  0.3279 -0.3673
  735MOL0     C99153   9.575   3.057   8.980  0.4040 -0.9715  0.1145
  735MOL0     C99154   9.625   2.944   8.989 -0.8234  0.6361 -0.4409
  735MOL0     C99155   9.503   3.225   8.311 -0.3638 -0.0834 -0.1019
  735MOL0     C99156   9.556   3.255   8.184  1.0273  0.2660  0.8169
  735MOL0     C99157   9.508   3.389   8.120 -0.1732  0.6865  0.0432
  735MOL0     H99158   9.841   2.990   7.732 -0.9952  0.5972 -0.5920
  735MOL0     H99159   9.924   3.063   7.507 -0.2988  0.6790 -0.1169
  735MOL0     H99160  10.109   3.146   7.417 -1.4615  0.1589  2.2901
  735MOL0     H99161  10.022   3.198   7.277 -1.8471 -0.4543  0.8261
  735MOL0     H99162  10.166   3.412   7.265 -1.6813 -1.2998 -0.4476
  735MOL0     H99163  10.238   3.250   7.268  0.1216 -2.3059  2.9458
  735MOL0     H99164  10.288   3.302   7.519  3.3985 -0.8283 -1.4505
  735MOL0     H99165  10.203   3.442   7.511  2.8654  1.5068  1.9785
  735MOL0     H99166  10.456   3.390   7.339 -1.9847  1.1837 -3.6600
  735MOL0     H99167  10.371   3.535   7.332 -1.6863 -1.7876 -1.4851
  735MOL0     H99168  10.538   3.594   7.494 -1.8570  1.4452 -1.4351
  735MOL0     H99169  10.388   3.571   7.588  1.0163  0.1302 -0.0520
  735MOL0     H99170  10.585   3.487   7.698 -1.6145 -0.9530  1.0117
  735MOL0     H99171  10.488   3.350   7.665  1.1976  0.5315  1.4936
  735MOL0     H99172  10.734   3.451   7.509 -2.4928  3.1575  1.9383
  735MOL0     H99173  10.637   3.328   7.432  0.4016  1.5531 -0.0860
  735MOL0     H99174  10.759   3.276   7.698 -0.6339  1.0462  0.2208
  735MOL0     H99175  10.641   3.164   7.612  1.5702 -2.7359  0.1794
  735MOL0     H99176  10.956   3.358   7.475  0.4893  0.3286 -1.1746
  735MOL0     H99177  11.145   3.308   7.324  2.6149 -0.9315 -2.1152
  735MOL0     H99178  11.150   3.145   7.241 -0.3140 -1.5048  1.5072
  735MOL0     H99179  10.952   3.198   7.110 -0.1677 -1.2388  3.7043
  735MOL0     H99180  10.921   3.341   7.196 -2.7645 -1.1991 -2.1750
  735MOL0     H99181  11.009   3.380   6.969 -0.4364 -1.6818 -0.6283
  735MOL0     H99182  11.167   3.292   7.008  1.2475  1.2488 -0.2479
  735MOL0     H99183  11.189   3.518   6.985 -0.1613 -0.3434 -0.4131
  735MOL0     H99184  11.241   3.460   7.148 -0.6651  3.1696  1.2862
  735MOL0     H99185  11.260   3.537   7.343 -1.0968 -1.4703 -1.7359
  735MOL0     H99186  11.227   3.573   7.573 -0.5060 -2.5833 -1.1424
  735MOL0     H99187  10.982   3.389   7.878 -2.6513  1.6642  0.9100
  735MOL0     H99188  10.915   3.365   8.135  0.9000 -1.3661  2.0074
  735MOL0     H99189  11.083   3.308   8.321  1.2743  1.4284 -2.4019
  735MOL0     H99190  11.127   3.400   8.466  0.1137 -0.2130 -1.0629
  735MOL0     H99191  10.839   3.390   8.408 -1.5529  0.3375  2.7461
  735MOL0     H99192  10.918   3.232   8.449 -1.1815 -0.3071 -2.1879
  735MOL0     H99193  11.011   3.353   8.656 -0.2867 -2.4996 -0.8186
  735MOL0     H99194  10.927   3.499   8.617  2.7775  0.5899  1.4459
  735MOL0     H99195  10.718   3.306   8.615 -0.1442  0.3220 -0.5570
  735MOL0     H99196  10.776   3.401   8.761 -1.4631 -0.2824  0.1147
  735MOL0     H99197  10.933   3.218   8.798  1.8506 -2.2689 -2.2265
  735MOL0     H99198  10.885   3.131   8.652 -1.7236 -0.4971  0.2715
  735MOL0     H99199  10.727   3.192   8.914  0.0703  0.3355 -0.5023
  735MOL0     H99200  10.649   3.104   8.776 -2.3489 -3.7871  4.8311
  735MOL0     H99201  10.723   2.961   8.960  1.2517  0.2713  1.6393
  735MOL0     H99202  10.884   3.009   8.934 -2.5598  0.4884  3.3197
  735MOL0     H99203  10.873   2.876   8.709  1.4254  0.7322  0.5023
  735MOL0     H99204  10.828   2.780   8.843 -0.7943  0.4370  0.9735
  735MOL0     H99205  11.170   3.700   8.205  0.3932  0.9338 -0.9756
  735MOL0     H99206  11.207   3.728   7.981 -0.1790 -0.7156  2.1474
  735MOL0     H99207  10.816   3.685   7.490  0.3566  2.3968 -2.6000
  735MOL0     H99208  10.859   3.660   7.261  1.4633 -1.6994 -1.8644
  735MOL0     H99209   9.924   3.476   7.646  0.1612  0.1649 -2.3780
  735MOL0     H99210   9.840   3.396   7.858  0.3317  0.2384 -0.3425
  735MOL0     H99211   9.748   2.970   8.157  3.9835  0.3464  3.0966
  735MOL0     H99212   9.681   2.944   8.379  0.1682 -2.2416 -1.7077
  735MOL0     H99213   9.343   3.217   8.564 -0.9176 -0.9993  1.8774
  735MOL0     H99214   9.496   3.303   8.575 -4.5790  2.9609 -1.7787
  735MOL0     H99215   9.459   3.049   8.744  0.7518  0.5268 -0.3012
  735MOL0     H99216   9.361   3.186   8.796 -0.2098 -0.2332  0.6845
  735MOL0     H99217   9.546   3.343   8.800  1.6984  0.1571  2.4446
  735MOL0     H99218   9.656   3.212   8.758 -0.1045  0.4430 -0.7396
  735MOL0     H99219   9.624   3.264   9.022  1.3636  0.3810 -2.6425
  735MOL0     H99220   9.454   3.241   8.994  0.7899  3.2390  1.4853
  735MOL0     H99221   9.677   2.852   9.005 -1.6036  0.0811 -1.0306
  735MOL0     H99222   9.427   3.292   8.348  0.5261  1.9945 -1.8538
  735MOL0     H99223   9.417   3.379   8.061 -1.0163  1.9869  1.0639
  735MOL0     H99224   9.486   3.465   8.196  0.1419  2.1969 -1.3244
  735MOL0     H99225   9.592   3.431   8.064  4.6311 -0.0678  5.6395
  736MOL0     O99226   1.007   1.304   0.033 -0.0111  0.8520  0.6499
  736MOL0     C99227   1.075   1.359  -0.054 -0.4176  0.3792  0.9043
  736MOL0     O99228   1.136   1.482  -0.032 -0.2807 -0.2107 -0.0176
  736MOL0     C99229   1.106   1.548   0.084  0.6802  0.6259  0.3759
  736MOL0     C99230   1.169   1.517   0.202  0.5364  0.0690  0.0799
  736MOL0     C99231   1.152   1.582   0.323  1.1055 -0.1328  0.7454
  736MOL0     C99232   1.042   1.676   0.340 -0.7110 -0.3679  0.3591
  736MOL0     O99233   1.000   1.727   0.460  0.3638  0.4144  0.5214
  736MOL0     C99234   1.107   1.752   0.559  0.6119 -0.5460  0.1390
  736MOL0     C99235   1.069   1.692   0.695  0.5200 -0.1475 -0.1919
  736MOL0     C99236   1.009   1.554   0.697 -0.3279 -0.4126  0.3179
  736MOL0     C99237   1.133   1.459   0.704 -0.4156 -1.3665  0.3417
  736MOL0     C99238   1.197   1.431   0.836  0.1290 -0.3518  0.1331
  736MOL0     C99239   1.345   1.381   0.833 -0.2288  0.9349  0.5537
  736MOL0     C99240   1.416   1.370   0.970  0.0803  0.1985 -0.5902
  736MOL0     C99241   1.468   1.504   1.019 -0.3540  0.5089 -0.3466
  736MOL0     N99242   1.564   1.507   1.135 -0.2197  0.2560  0.7537
  736MOL0     C99243   1.550   1.476   1.264 -0.1849  0.5266  1.5503
  736MOL0     C99244   1.672   1.484   1.315  1.0240  0.4691 -1.0075
  736MOL0     C99245   1.743   1.458   1.444  0.4135  0.8596  0.3551
  736MOL0     C99246   1.845   1.562   1.477 -0.1762 -0.2748  0.5628
  736MOL0     C99247   1.907   1.518   1.606 -0.8128  0.0788 -0.5652
  736MOL0     C99248   2.011   1.619   1.643  1.3319  0.4859 -0.1210
  736MOL0     O99249   2.124   1.561   1.694  0.0687 -0.0405  0.4088
  736MOL0     C99250   2.117   1.497   1.813 -0.0112 -0.0185  1.0419
  736MOL0     C99251   2.008   1.477   1.901 -0.4195 -0.0213  0.2813
  736MOL0     C99252   2.023   1.379   1.996  0.0073  0.2266 -0.8465
  736MOL0     C99253   2.145   1.311   2.019  0.6048 -0.6433 -0.7478
  736MOL0     C99254   2.165   1.215   2.130  0.7647 -0.5529  0.2763
  736MOL0     O99255   2.052   1.144   2.186  0.7428 -0.5809 -0.5772
  736MOL0     C99256   2.058   1.110   2.314  0.4187  0.3322 -0.6882
  736MOL0     C99257   2.088   1.189   2.433 -0.4107  0.8354  0.8414
  736MOL0     C99258   2.090   1.136   2.567 -1.0241  0.3737 -0.2393
  736MOL0     C99259   2.042   1.011   2.596 -0.4445  0.5581  0.0407
  736MOL0     O99260   2.057   0.961   2.719 -0.4487  0.5686  0.2050
  736MOL0     C99261   2.000   0.828   2.770 -0.1877  0.4825 -0.4344
  736MOL0     C99262   2.086   0.784   2.885 -0.1309 -0.4686 -0.1080
  736MOL0     C99263   2.224   0.734   2.832 -0.2734 -0.0107  0.6520
  736MOL0     C99264   2.310   0.703   2.958  0.5753  0.0345  0.2964
  736MOL0     C99265   2.452   0.657   2.936 -0.0126 -0.6939  0.0683
  736MOL0     C99266   2.541   0.667   3.050 -0.7595  0.0219 -0.4972
  736MOL0     C99267   2.686   0.645   3.006  0.7212 -0.1244 -0.7111
  736MOL0     C99268   2.791   0.650   3.114 -0.5107 -1.1314  0.8370
  736MOL0    Cl99269   2.770   0.509   3.224  0.2882  0.4345  0.3688
  736MOL0     C99270   1.977   0.948   2.482 -0.2662 -0.1385  0.6697
  736MOL0     C99271   1.982   0.992   2.351 -0.2489  0.4004 -0.1151
  736MOL0     O99272   2.283   1.188   2.161 -0.3905  0.9632 -0.8016
  736MOL0     C99273   2.254   1.355   1.943 -0.1150  0.5652  0.7636
  736MOL0     C99274   2.244   1.440   1.836  0.9526  0.2844  1.0201
  736MOL0     N99275   1.756   1.523   1.212  0.4443  0.7439 -0.0395
  736MOL0     N99276   1.686   1.556   1.109  0.7699 -0.0253 -0.3629
  736MOL0     C99277   0.973   1.695   0.218  0.1155 -0.4451  0.0721
  736MOL0     C99278   1.004   1.639   0.090 -0.1956 -0.2656 -0.1226
  736MOL0     C99279   1.089   1.295  -0.182  0.0364 -0.2414 -0.4476
  736MOL0     C99280   1.178   1.342  -0.285 -0.2976 -0.1820 -0.8329
  736MOL0     C99281   1.193   1.275  -0.412  0.3281  0.0535 -0.5049
  736MOL0     C99282   1.121   1.157  -0.444 -0.6549 -0.1129  0.6437
  736MOL0     O99283   1.110   1.086  -0.560 -0.4555 -0.8006  0.4175
  736MOL0     C99284   1.185   1.122  -0.674 -0.0611  0.0309 -0.1810
  736MOL0     C99285   1.244   0.988  -0.741 -0.6973 -1.0295 -0.6431
  736MOL0     C99286   1.286   0.891  -0.637 -0.4638  1.2063 -0.9094
  736MOL0     C99287   1.354   0.773  -0.700 -0.8923  0.3153 -0.4784
  736MOL0     C99288   1.506   0.794  -0.683  0.6032  0.8020 -0.5240
  736MOL0     C99289   1.619   0.799  -0.674  0.1555  0.7766 -0.5160
  736MOL0     C99290   1.024   1.122  -0.354  0.4233 -0.1891  0.4007
  736MOL0     C99291   1.008   1.180  -0.230 -1.1356 -0.7927 -0.3525
  736MOL0     C99292   0.887   1.133  -0.145  0.7244  0.0360  0.4557
  736MOL0     H99293   1.246   1.440   0.198 -0.8433 -1.4798  1.6911
  736MOL0     H99294   1.213   1.548   0.406  2.8158 -6.0077 -2.3683
  736MOL0     H99295   1.207   1.712   0.539  0.5419 -0.4877 -0.3423
  736MOL0     H99296   1.120   1.860   0.572  1.8163 -0.4855 -1.3068
  736MOL0     H99297   1.011   1.766   0.752 -0.8525 -0.0829 -1.6233
  736MOL0     H99298   1.163   1.696   0.751  0.5425 -1.4726 -0.1070
  736MOL0     H99299   0.946   1.534   0.610  0.6427  1.3617 -0.8760
  736MOL0     H99300   0.950   1.558   0.789  0.8035 -0.8612  1.0784
  736MOL0     H99301   1.115   1.364   0.653  1.8583  0.3220 -4.1719
  736MOL0     H99302   1.203   1.504   0.633 -0.4717 -1.6095  0.1282
  736MOL0     H99303   1.198   1.521   0.898  2.4334 -0.5836  0.5472
  736MOL0     H99304   1.131   1.352   0.873  0.7140 -1.3359 -0.8455
  736MOL0     H99305   1.360   1.282   0.789 -1.5053  1.9168 -2.3333
  736MOL0     H99306   1.396   1.448   0.763 -3.0090  3.3005  0.6308
  736MOL0     H99307   1.502   1.310   0.942 -1.8723 -3.6518  0.9789
  736MOL0     H99308   1.357   1.321   1.047  0.2704 -2.4299 -2.0290
  736MOL0     H99309   1.525   1.541   0.933  1.9229  0.6475  1.1264
  736MOL0     H99310   1.383   1.571   1.032 -0.5094  0.4692 -1.1154
  736MOL0     H99311   1.460   1.437   1.310 -1.0348  2.3158  1.5021
  736MOL0     H99312   1.664   1.455   1.520 -1.4505  2.2892 -1.4199
  736MOL0     H99313   1.783   1.357   1.434  2.1915  1.7733 -3.2894
  736MOL0     H99314   1.915   1.567   1.393 -2.4557  0.0299 -1.4341
  736MOL0     H99315   1.803   1.661   1.495  0.4087 -0.1236  1.1677
  736MOL0     H99316   1.969   1.428   1.597  0.7191  0.6981  2.3773
  736MOL0     H99317   1.833   1.495   1.683  1.1090 -1.8263  0.8396
  736MOL0     H99318   1.960   1.696   1.701 -0.6916 -0.3979 -0.6514
  736MOL0     H99319   2.049   1.658   1.548 -1.3199  2.3809 -0.5363
  736MOL0     H99320   1.913   1.530   1.887 -1.1952 -1.0074  1.5774
  736MOL0     H99321   1.939   1.351   2.058  0.2008 -2.6966 -1.7408
  736MOL0     H99322   2.124   1.290   2.413 -1.4102  0.8881 -0.8083
  736MOL0     H99323   2.137   1.207   2.633 -2.1891 -0.5213  1.6246
  736MOL0     H99324   1.907   0.858   2.820  1.4217  1.6768  2.0244
  736MOL0     H99325   1.997   0.750   2.694 -5.3020 -0.3886  0.3061
  736MOL0     H99326   2.096   0.868   2.954 -0.0481 -0.1602 -0.4978
  736MOL0     H99327   2.034   0.701   2.935 -0.4548 -3.2178 -4.5170
  736MOL0     H99328   2.199   0.645   2.773  0.1600  1.6288 -2.1981
  736MOL0     H99329   2.276   0.799   2.761 -0.4676 -0.0693  0.4551
  736MOL0     H99330   2.247   0.629   3.008 -0.9750 -0.7915 -2.6593
  736MOL0     H99331   2.316   0.796   3.016  1.1283 -0.5495  1.2090
  736MOL0     H99332   2.496   0.719   2.857 -0.7182 -3.3521 -2.5586
  736MOL0     H99333   2.443   0.556   2.895  0.9183 -0.3455 -1.0491
  736MOL0     H99334   2.531   0.768   3.091  0.8030  0.1823 -0.4525
  736MOL0     H99335   2.506   0.598   3.127 -0.6026  2.3614  1.8268
  736MOL0     H99336   2.706   0.717   2.927 -0.5971 -1.5363 -2.4200
  736MOL0     H99337   2.697   0.550   2.952  0.7598  1.3212 -3.4164
  736MOL0     H99338   2.891   0.630   3.075 -1.7160 -2.3766 -1.8333
  736MOL0     H99339   2.781   0.742   3.172 -2.4461 -0.9276  0.2353
  736MOL0     H99340   1.924   0.864   2.527  0.4563  1.0507  4.0050
  736MOL0     H99341   1.921   0.954   2.270  3.0420 -1.6867 -1.8766
  736MOL0     H99342   2.353   1.313   1.960  0.8979  1.1345 -2.8331
  736MOL0     H99343   2.329   1.466   1.774  1.5266 -3.6813 -0.1439
  736MOL0     H99344   0.895   1.770   0.223  0.5726  0.0114  4.2690
  736MOL0     H99345   0.943   1.673   0.007 -2.7275 -1.4100  1.1816
  736MOL0     H99346   1.239   1.423  -0.247 -2.5697  1.7476 -1.0419
  736MOL0     H99347   1.277   1.294  -0.478  1.8621  1.0541  1.6041
  736MOL0     H99348   1.261   1.199  -0.662  2.1062 -1.4107 -3.3766
  736MOL0     H99349   1.116   1.173  -0.742  0.0171 -0.2074 -0.4419
  736MOL0     H99350   1.333   1.024  -0.794 -2.4087  1.9651 -1.6812
  736MOL0     H99351   1.168   0.947  -0.808 -2.7723 -0.2138  1.0857
  736MOL0     H99352   1.199   0.849  -0.586 -2.6616  4.1019 -1.9549
  736MOL0     H99353   1.347   0.925  -0.554  1.4816 -3.4690 -0.1120
  736MOL0     H99354   1.325   0.685  -0.642  1.8521  0.1623  0.8239
  736MOL0     H99355   1.329   0.755  -0.805  1.3795 -2.6361 -0.6330
  736MOL0     H99356   1.720   0.824  -0.646 -0.4712  1.6937  1.1103
  736MOL0     H99357   0.953   1.055  -0.403  2.4577 -0.0480 -3.0668
  736MOL0     H99358   0.810   1.210  -0.139  0.3834 -0.3487  1.1443
  736MOL0     H99359   0.850   1.040  -0.191  1.8004 -1.4136  2.3907
  736MOL0     H99360   0.923   1.094  -0.050  2.3663  2.3567  0.8582
  737MOL0     O99361   4.730   7.018   4.443 -0.0193  0.1330  0.9605
  737MOL0     C99362   4.843   7.052   4.481 -0.1182 -0.0213  0.4968
  737MOL0     O99363   4.919   7.160   4.422  0.0513  0.3902 -0.1839
  737MOL0     C99364   4.879   7.215   4.304  0.2577  0.4040 -0.4029
  737MOL0     C99365   4.781   7.313   4.309  0.6315  0.5929  0.5263
  737MOL0     C99366   4.765   7.401   4.206  0.2994 -0.2722  0.6493
  737MOL0     C99367   4.814   7.377   4.077 -0.5612 -0.6259  0.0043
  737MOL0     O99368   4.763   7.466   3.983 -0.1236 -1.0522  1.2386
  737MOL0     C99369   4.865   7.544   3.917  0.3194  0.4810 -0.3976
  737MOL0     C99370   4.906   7.653   4.011 -0.5230 -0.6401 -0.3653
  737MOL0     C99371   4.987   7.767   3.942  0.6550 -0.0542 -0.5054
  737MOL0     C99372   4.912   7.903   3.936  0.4784  0.4005  0.2012
  737MOL0     C99373   4.964   7.990   3.825 -0.6147 -0.9241 -0.1597
  737MOL0     C99374   5.109   8.044   3.864 -0.5270 -0.5896 -1.2022
  737MOL0     C99375   5.190   8.121   3.762 -0.0832  0.3004  0.5138
  737MOL0     C99376   5.165   8.095   3.612 -1.1703 -0.5016 -1.1742
  737MOL0     N99377   5.262   8.177   3.535  0.4831 -0.0763 -0.0831
  737MOL0     C99378   5.344   8.119   3.441  0.7519  0.1686  0.1357
  737MOL0     C99379   5.404   8.222   3.381  0.2979  0.4367  0.7716
  737MOL0     C99380   5.508   8.225   3.271  0.4449 -0.0118  0.1354
  737MOL0     C99381   5.446   8.263   3.139  0.2612  0.5613 -0.1269
  737MOL0     C99382   5.379   8.139   3.070  0.3394  0.3476  0.0980
  737MOL0     C99383   5.359   8.178   2.923 -0.5856 -0.2372 -1.0639
  737MOL0     O99384   5.256   8.096   2.867  0.1634  0.2492 -0.4330
  737MOL0     C99385   5.239   8.068   2.733 -0.0470 -0.7901 -0.1604
  737MOL0     C99386   5.172   7.951   2.680 -0.4774  0.2195  0.1895
  737MOL0     C99387   5.153   7.932   2.545  0.0096 -0.3468 -0.4250
  737MOL0     C99388   5.210   8.023   2.451  0.5334  0.2060  0.4430
  737MOL0     C99389   5.203   8.016   2.305  0.7991  0.7586  0.3650
  737MOL0     O99390   5.181   7.893   2.257  0.0335  1.1163 -0.3922
  737MOL0     C99391   5.140   7.871   2.125 -0.0653 -0.0195  0.7888
  737MOL0     C99392   5.178   7.752   2.059 -0.6188  1.0547  0.4757
  737MOL0     C99393   5.134   7.734   1.923 -0.0419 -0.3737  0.2771
  737MOL0     C99394   5.038   7.822   1.856 -0.7437 -0.4586  0.1416
  737MOL0     O99395   5.022   7.823   1.723 -0.7820 -0.3512 -0.7066
  737MOL0     C99396   5.016   7.948   1.657  0.0385  0.7709  0.7101
  737MOL0     C99397   5.017   7.908   1.504 -0.0367  0.0901  0.2178
  737MOL0     C99398   5.099   7.785   1.473 -0.3303  0.0447 -0.0726
  737MOL0     C99399   5.091   7.754   1.323 -0.2409 -0.1209 -0.8645
  737MOL0     C99400   5.144   7.614   1.297  0.6250  0.4280  0.1946
  737MOL0     C99401   5.099   7.585   1.156 -0.0157 -0.9362 -0.2301
  737MOL0     C99402   5.170   7.463   1.097  1.6299  0.2808  0.6850
  737MOL0     C99403   5.103   7.416   0.960  0.8953 -0.3575  0.2497
  737MOL0    Cl99404   5.092   7.568   0.854  0.3344  0.2312 -0.4334
  737MOL0     C99405   4.984   7.926   1.937 -0.6582  0.0311 -0.0125
  737MOL0     C99406   5.040   7.948   2.063 -0.0971  0.0550 -0.1192
  737MOL0     O99407   5.215   8.120   2.238  0.4686  0.8113  0.4175
  737MOL0     C99408   5.268   8.145   2.496  0.2120 -0.3359  0.0094
  737MOL0     C99409   5.273   8.169   2.640  0.1886 -0.1920  1.5114
  737MOL0     N99410   5.352   8.339   3.437  0.2968 -0.0448 -0.0061
  737MOL0     N99411   5.269   8.310   3.528 -0.7619 -0.6368  0.0037
  737MOL0     C99412   4.902   7.268   4.059 -0.2697 -0.0310 -0.0106
  737MOL0     C99413   4.934   7.193   4.179  0.6440  0.4524 -0.0478
  737MOL0     C99414   4.899   6.993   4.612  0.1375 -0.1806  1.3322
  737MOL0     C99415   4.966   7.077   4.704 -0.2045  0.4165  0.3160
  737MOL0     C99416   5.016   7.027   4.820 -0.4554  0.4275  0.0695
  737MOL0     C99417   5.003   6.889   4.856 -0.3396  0.0861  0.0969
  737MOL0     O99418   5.038   6.857   4.982  0.7382 -0.0588 -0.5032
  737MOL0     C99419   4.961   6.768   5.062 -0.0393 -0.2896  0.3017
  737MOL0     C99420   4.958   6.831   5.209 -0.3673 -0.2354  0.7487
  737MOL0     C99421   4.864   6.946   5.211 -1.0092  0.4166  0.1197
  737MOL0     C99422   4.841   7.013   5.350  0.4157  0.8116 -0.7287
  737MOL0     C99423   4.965   7.082   5.392 -0.1798  0.7292 -0.2244
  737MOL0     C99424   5.057   7.154   5.434 -0.0804  0.6973 -0.7646
  737MOL0     C99425   4.946   6.805   4.758 -0.7917  0.5261  0.4184
  737MOL0     C99426   4.892   6.853   4.639  0.2472  0.6750  0.6903
  737MOL0     C99427   4.829   6.750   4.546 -0.2958  0.1554  0.3089
  737MOL0     H99428   4.739   7.335   4.407 -2.5392  0.5645 -0.6878
  737MOL0     H99429   4.705   7.489   4.224  0.4104 -0.4348  1.8493
  737MOL0     H99430   4.949   7.488   3.875 -0.3185 -0.2609 -0.7133
  737MOL0     H99431   4.810   7.588   3.833 -0.1839 -1.3491 -1.0659
  737MOL0     H99432   4.977   7.601   4.075 -0.1516  1.0140  0.6266
  737MOL0     H99433   4.831   7.686   4.083  1.2740 -0.6769  1.5913
  737MOL0     H99434   5.028   7.731   3.847  2.4783 -1.5870  0.7969
  737MOL0     H99435   5.079   7.789   3.996  1.4210  0.4821 -1.9735
  737MOL0     H99436   4.805   7.901   3.917  0.5595 -0.1535 -0.2265
  737MOL0     H99437   4.923   7.949   4.035 -1.5915 -1.2637  1.2967
  737MOL0     H99438   4.990   7.936   3.733 -0.5434  1.2590 -1.4911
  737MOL0     H99439   4.904   8.079   3.800  0.1202 -0.7133 -1.2470
  737MOL0     H99440   5.078   8.111   3.945 -1.8549  0.4972 -2.5461
  737MOL0     H99441   5.165   7.968   3.919  2.0061  2.5396  0.8493
  737MOL0     H99442   5.297   8.104   3.775  0.1145  2.1264  1.7353
  737MOL0     H99443   5.176   8.226   3.793  3.2519  0.3984  2.0837
  737MOL0     H99444   5.173   7.989   3.585  0.6940 -0.0600 -2.5410
  737MOL0     H99445   5.062   8.130   3.599 -1.6227  0.0410  2.7550
  737MOL0     H99446   5.348   8.015   3.412 -0.1779  0.6546 -1.9476
  737MOL0     H99447   5.587   8.297   3.291  1.8079 -0.1033 -4.0597
  737MOL0     H99448   5.558   8.128   3.266  0.4292  0.0275 -1.4243
  737MOL0     H99449   5.380   8.350   3.154  0.5093  0.3970  2.4132
  737MOL0     H99450   5.521   8.290   3.064 -0.1413 -0.6212 -0.9747
  737MOL0     H99451   5.287   8.098   3.114 -0.6117  0.4773 -1.7034
  737MOL0     H99452   5.454   8.061   3.090  0.4663  0.4447 -0.0018
  737MOL0     H99453   5.451   8.165   2.866  0.6958  0.3370  0.7760
  737MOL0     H99454   5.325   8.282   2.924 -1.4537 -0.4448  1.7680
  737MOL0     H99455   5.112   7.883   2.740 -1.0812  1.1772  0.6898
  737MOL0     H99456   5.084   7.856   2.508  1.9284 -2.5460  0.2495
  737MOL0     H99457   5.246   7.676   2.097  2.7049  1.8088 -3.3197
  737MOL0     H99458   5.171   7.650   1.865  0.3097  0.0496 -0.1118
  737MOL0     H99459   4.931   8.014   1.681  0.3012  2.0198 -1.5236
  737MOL0     H99460   5.107   8.004   1.683  2.5111 -2.8225  0.5281
  737MOL0     H99461   4.910   7.898   1.484 -0.0173 -2.6185  1.0586
  737MOL0     H99462   5.062   7.995   1.456 -0.7463  1.7801  2.4227
  737MOL0     H99463   5.200   7.805   1.509 -0.5642  4.3027 -1.2702
  737MOL0     H99464   5.056   7.699   1.525 -0.4642 -0.0585 -0.3500
  737MOL0     H99465   5.156   7.829   1.277  1.3027 -0.9165 -0.0428
  737MOL0     H99466   4.988   7.758   1.286 -0.3651 -3.2634 -1.1123
  737MOL0     H99467   5.093   7.543   1.363 -0.6969 -0.8520 -2.0676
  737MOL0     H99468   5.252   7.602   1.298  0.6131  0.2708 -0.1353
  737MOL0     H99469   4.990   7.572   1.153 -0.3138  1.0310  0.4693
  737MOL0     H99470   5.121   7.677   1.102 -1.9290  0.9408  1.9858
  737MOL0     H99471   5.186   7.381   1.167  2.4157 -1.3908 -1.3654
  737MOL0     H99472   5.274   7.489   1.079  3.1207 -3.9046  2.1735
  737MOL0     H99473   5.156   7.331   0.916 -2.9111 -3.7190  1.5350
  737MOL0     H99474   5.004   7.380   0.987  0.1555  0.5576 -1.1060
  737MOL0     H99475   4.919   8.007   1.909 -0.4467  0.7250  1.3913
  737MOL0     H99476   4.996   8.032   2.116 -1.0514 -1.8462  2.3206
  737MOL0     H99477   5.307   8.224   2.432  0.9635  0.4477  1.3944
  737MOL0     H99478   5.323   8.254   2.686  2.5289 -0.8705  0.3596
  737MOL0     H99479   4.959   7.248   3.969  0.5410  2.3728 -0.1065
  737MOL0     H99480   5.011   7.117   4.172 -2.1499 -2.7852  1.8578
  737MOL0     H99481   4.976   7.185   4.702  2.0212  0.2599  0.3435
  737MOL0     H99482   5.076   7.086   4.889  0.2293 -3.6458  3.3947
  737MOL0     H99483   5.021   6.677   5.058  0.9605  0.3495  0.4822
  737MOL0     H99484   4.865   6.754   5.011  0.7509 -0.5689 -1.1367
  737MOL0     H99485   5.064   6.848   5.232  0.2159 -3.1986  0.7533
  737MOL0     H99486   4.931   6.762   5.290  2.1839 -0.8228  1.1956
  737MOL0     H99487   4.768   6.898   5.188  0.6703 -2.4173 -1.5049
  737MOL0     H99488   4.875   7.014   5.127 -0.1255 -1.2705 -1.1872
  737MOL0     H99489   4.752   7.075   5.336 -0.6754 -0.3693  0.7410
  737MOL0     H99490   4.807   6.950   5.433 -0.7338  1.0735 -0.9889
  737MOL0     H99491   5.138   7.211   5.474  1.3584 -1.3881 -0.5633
  737MOL0     H99492   4.927   6.699   4.776  0.7116 -0.2083 -1.8348
  737MOL0     H99493   4.812   6.781   4.442 -2.5295 -0.3242  0.4835
  737MOL0     H99494   4.877   6.652   4.544  0.5652  0.5562  0.8734
  737MOL0     H99495   4.727   6.745   4.586  1.1094 -2.0111  4.1267
  738MOL0     O99496   5.761   5.103   0.288 -0.8173 -0.5922  0.9167
  738MOL0     C99497   5.835   5.025   0.347 -0.2501 -0.7961  0.1995
  738MOL0     O99498   5.800   4.899   0.395  0.4096 -0.1380  0.5255
  738MOL0     C99499   5.682   4.869   0.458  1.0835 -0.4264  0.1147
  738MOL0     C99500   5.684   4.773   0.558  0.6649  0.0251  0.5568
  738MOL0     C99501   5.571   4.747   0.632  0.2504 -0.2048  0.0247
  738MOL0     C99502   5.446   4.813   0.599  0.2463  0.2082  0.9694
  738MOL0     O99503   5.338   4.782   0.674  0.3295 -1.1906 -0.2749
  738MOL0     C99504   5.323   4.648   0.719 -0.5938  0.5316 -0.8109
  738MOL0     C99505   5.167   4.638   0.722 -1.2731  0.6324 -0.5831
  738MOL0     C99506   5.114   4.512   0.788 -0.0118  0.5773 -0.7132
  738MOL0     C99507   5.119   4.378   0.699 -0.0412 -0.4820 -0.5955
  738MOL0     C99508   5.078   4.256   0.782 -0.7057  0.2913 -0.8491
  738MOL0     C99509   5.083   4.120   0.710 -0.0871 -0.0407 -0.5834
  738MOL0     C99510   5.027   4.002   0.800 -0.4769 -0.0499  0.4694
  738MOL0     C99511   5.076   3.986   0.941  0.2547  0.5747 -0.4644
  738MOL0     N99512   5.031   3.862   1.003  0.6665  0.4138 -0.2824
  738MOL0     C99513   4.918   3.788   0.962 -0.7032 -0.3934 -0.0065
  738MOL0     C99514   4.905   3.690   1.047 -0.4194 -0.3266 -0.1874
  738MOL0     C99515   4.813   3.575   1.060 -0.5864  0.1484  0.5789
  738MOL0     C99516   4.662   3.624   1.041 -0.8398  1.1902 -0.1369
  738MOL0     C99517   4.554   3.510   1.029 -0.3030  0.4262  0.2092
  738MOL0     C99518   4.428   3.566   0.972 -0.2110 -0.1957  0.8275
  738MOL0     O99519   4.366   3.648   1.073  0.0620 -1.0393 -0.2555
  738MOL0     C99520   4.306   3.599   1.179 -0.1330 -0.2388 -0.2357
  738MOL0     C99521   4.291   3.466   1.204  0.6327  0.6065 -0.9421
  738MOL0     C99522   4.207   3.430   1.315 -0.1861 -0.6927 -0.7891
  738MOL0     C99523   4.142   3.531   1.387 -1.4279  0.1303  0.0460
  738MOL0     C99524   4.044   3.488   1.485 -0.4599 -0.6010  0.9167
  738MOL0     O99525   4.017   3.355   1.495 -0.6869 -0.1605  0.3470
  738MOL0     C99526   3.913   3.307   1.572 -0.6990 -0.5903 -1.3982
  738MOL0     C99527   3.805   3.382   1.627  0.3012 -0.4295 -0.3033
  738MOL0     C99528   3.711   3.318   1.706  0.8632  0.0681 -1.0108
  738MOL0     C99529   3.723   3.184   1.731  0.2468 -0.6290 -0.1444
  738MOL0     O99530   3.625   3.104   1.790  0.0839 -0.2760 -0.7457
  738MOL0     C99531   3.489   3.146   1.764 -0.3127  0.1198  0.1431
  738MOL0     C99532   3.444   3.126   1.617  0.0893 -0.1758  0.5179
  738MOL0     C99533   3.301   3.171   1.609 -0.6137 -0.0544  0.0171
  738MOL0     C99534   3.240   3.130   1.467 -0.5351 -0.2213 -0.5650
  738MOL0     C99535   3.101   3.189   1.448 -0.3480 -0.6327 -0.0915
  738MOL0     C99536   3.054   3.153   1.307  0.3040 -0.2346 -0.8601
  738MOL0     C99537   3.007   3.010   1.305  1.2461 -0.5172  0.7569
  738MOL0     C99538   2.848   3.002   1.314 -0.1733 -0.3326 -0.9313
  738MOL0    Cl99539   2.776   3.078   1.455 -0.0663  0.4646  0.3358
  738MOL0     C99540   3.834   3.111   1.693  0.0409 -0.3342  1.5183
  738MOL0     C99541   3.937   3.172   1.620 -1.0744  0.2592  0.3701
  738MOL0     O99542   4.002   3.580   1.561  1.1752 -1.3959  0.0833
  738MOL0     C99543   4.167   3.667   1.354 -0.1011 -0.1531 -1.1285
  738MOL0     C99544   4.242   3.702   1.252 -0.0669 -0.7830  0.0113
  738MOL0     N99545   5.016   3.691   1.127  0.0265 -0.4646 -0.5062
  738MOL0     N99546   5.091   3.790   1.100 -0.3708  0.1415 -0.6117
  738MOL0     C99547   5.448   4.914   0.509  0.0299 -1.4630 -0.6160
  738MOL0     C99548   5.557   4.940   0.441  0.8570  0.3843 -0.4623
  738MOL0     C99549   5.976   5.083   0.363 -0.0650  0.0862  0.2163
  738MOL0     C99550   6.011   5.200   0.304  0.3530 -0.7295 -1.1270
  738MOL0     C99551   6.135   5.269   0.319 -0.4178 -0.4261  0.2397
  738MOL0     C99552   6.237   5.211   0.398  0.4351  0.2427  1.2024
  738MOL0     O99553   6.354   5.269   0.427 -0.0718 -0.2999 -0.6891
  738MOL0     C99554   6.417   5.357   0.330  0.1465 -0.6076  0.2969
  738MOL0     C99555   6.559   5.396   0.348  0.4551 -0.7433  0.7998
  738MOL0     C99556   6.589   5.465   0.478  0.5022 -0.5748  0.8598
  738MOL0     C99557   6.520   5.595   0.512 -0.1842 -0.8303  0.5232
  738MOL0     C99558   6.393   5.582   0.577 -0.2130  0.0298  0.4563
  738MOL0     C99559   6.284   5.586   0.628 -0.2374  0.4766  0.4933
  738MOL0     C99560   6.204   5.094   0.466  1.2442 -0.6371 -0.5460
  738MOL0     C99561   6.079   5.024   0.446  0.2284  0.5274 -0.1475
  738MOL0     C99562   6.062   4.899   0.519  0.2721 -0.7542  0.0556
  738MOL0     H99563   5.778   4.734   0.595  0.5968  0.6793  1.4538
  738MOL0     H99564   5.564   4.668   0.705 -2.4500  0.2383  0.3442
  738MOL0     H99565   5.352   4.574   0.644 -0.3401 -0.5260  0.2986
  738MOL0     H99566   5.370   4.619   0.814 -1.8402 -0.3294 -0.4308
  738MOL0     H99567   5.141   4.654   0.617 -0.4497  1.0224 -0.7342
  738MOL0     H99568   5.141   4.708   0.801 -3.6290 -1.8367  1.0025
  738MOL0     H99569   5.014   4.543   0.819  0.7399  0.1676  2.5279
  738MOL0     H99570   5.163   4.486   0.883 -2.6426 -2.7285 -0.0739
  738MOL0     H99571   5.036   4.392   0.629 -1.7314  2.9290  1.8054
  738MOL0     H99572   5.217   4.359   0.656  1.1212 -1.4440  2.2545
  738MOL0     H99573   5.146   4.248   0.867 -2.8697  0.6417  1.0230
  738MOL0     H99574   4.978   4.278   0.820  0.7094  1.3175  2.6464
  738MOL0     H99575   5.033   4.123   0.613 -0.9437 -3.0311 -0.3025
  738MOL0     H99576   5.183   4.080   0.691 -0.7938 -0.7854 -3.0692
  738MOL0     H99577   5.041   3.914   0.737  0.1236  1.6373 -1.8781
  738MOL0     H99578   4.920   4.025   0.803 -0.2174  1.5048 -1.1566
  738MOL0     H99579   5.185   3.974   0.940  0.9839  5.1012 -3.0175
  738MOL0     H99580   5.053   4.076   0.999 -0.8556  0.4484 -0.6871
  738MOL0     H99581   4.842   3.805   0.886 -0.7263 -0.4456  0.0048
  738MOL0     H99582   4.821   3.505   0.976 -0.2646  0.4569  0.3486
  738MOL0     H99583   4.822   3.516   1.152  0.4258  0.1887  0.5143
  738MOL0     H99584   4.646   3.669   1.139  0.9311  0.4056  0.5689
  738MOL0     H99585   4.652   3.689   0.954  0.5978 -1.2513 -2.2872
  738MOL0     H99586   4.546   3.470   1.130 -0.9742  2.5954  1.0671
  738MOL0     H99587   4.590   3.428   0.964 -0.0132 -1.5084  2.6514
  738MOL0     H99588   4.368   3.484   0.931  1.3556 -2.4004  2.6892
  738MOL0     H99589   4.446   3.638   0.891  2.7536  0.0217  1.5736
  738MOL0     H99590   4.346   3.397   1.141  2.1448  1.4731 -0.6213
  738MOL0     H99591   4.178   3.326   1.330 -0.0776 -0.6750 -0.4417
  738MOL0     H99592   3.782   3.485   1.604  0.5151 -0.4036 -0.4019
  738MOL0     H99593   3.626   3.373   1.745 -1.4057 -2.0049 -2.7484
  738MOL0     H99594   3.422   3.093   1.833 -0.7017 -0.1009 -0.3961
  738MOL0     H99595   3.474   3.252   1.787  3.7433  1.0276 -0.7550
  738MOL0     H99596   3.501   3.187   1.546 -0.1889 -0.6509 -0.1175
  738MOL0     H99597   3.454   3.022   1.587 -0.1575 -0.2412  0.6629
  738MOL0     H99598   3.251   3.108   1.682  1.3774  0.5536  2.0177
  738MOL0     H99599   3.308   3.276   1.640  0.3834 -0.6353  1.8702
  738MOL0     H99600   3.237   3.021   1.455 -1.1966 -0.1173 -1.4104
  738MOL0     H99601   3.314   3.162   1.393 -1.8247 -3.1079 -3.3255
  738MOL0     H99602   3.112   3.297   1.464 -0.2498 -0.4001 -1.5535
  738MOL0     H99603   3.033   3.154   1.526  1.7198  2.7528  3.6285
  738MOL0     H99604   2.969   3.221   1.298 -1.8579 -2.7905 -0.7754
  738MOL0     H99605   3.129   3.176   1.230  1.7539  0.3422  0.6521
  738MOL0     H99606   3.058   2.939   1.372  0.4603 -0.6524  1.2254
  738MOL0     H99607   3.023   2.982   1.200 -1.8990  1.8514 -0.4972
  738MOL0     H99608   2.791   3.012   1.221 -0.4376 -1.6695 -0.9294
  738MOL0     H99609   2.828   2.895   1.323  0.0735 -0.2800  0.5316
  738MOL0     H99610   3.840   3.006   1.720  2.5881 -0.4890  0.6424
  738MOL0     H99611   4.033   3.128   1.593 -0.5588  2.7598 -2.4919
  738MOL0     H99612   4.101   3.734   1.410  0.5037  1.9281 -2.7585
  738MOL0     H99613   4.261   3.805   1.224  3.3505 -1.7091 -1.5931
  738MOL0     H99614   5.355   4.964   0.484  0.2960 -0.9686 -0.6122
  738MOL0     H99615   5.543   5.023   0.373  3.6116  4.2045  3.0616
  738MOL0     H99616   5.944   5.258   0.241 -0.3393 -2.4869 -2.0767
  738MOL0     H99617   6.137   5.371   0.282 -1.3688  0.1939  1.8105
  738MOL0     H99618   6.353   5.445   0.328  0.6399 -0.1442  2.3914
  738MOL0     H99619   6.400   5.310   0.233  1.6815  1.4713 -1.0824
  738MOL0     H99620   6.586   5.473   0.275 -2.2224  0.4262  0.9265
  738MOL0     H99621   6.628   5.311   0.342  2.4798  0.8717 -0.1064
  738MOL0     H99622   6.698   5.473   0.482  0.6428 -1.6010 -0.2703
  738MOL0     H99623   6.564   5.395   0.558 -2.3427 -0.8473 -0.1535
  738MOL0     H99624   6.585   5.665   0.565 -2.4718  0.3607  1.9024
  738MOL0     H99625   6.496   5.645   0.418  1.6704 -0.3425  0.2635
  738MOL0     H99626   6.191   5.606   0.676 -0.3681  3.0427 -0.6396
  738MOL0     H99627   6.278   5.057   0.536 -0.1069  1.4203  2.2327
  738MOL0     H99628   6.041   4.821   0.445 -0.0580 -0.6565  0.0421
  738MOL0     H99629   6.156   4.862   0.559  1.6473  2.3281  0.0017
  738MOL0     H99630   5.984   4.908   0.595 -1.7582 -0.8973 -1.8783
  739MOL0     O99631  10.098   1.975   7.991  0.4491  0.0512 -0.4678
  739MOL0     C99632   9.981   2.020   8.021 -0.7453  1.0220  0.4154
  739MOL0     O99633   9.947   2.152   8.036  0.0524  0.2039 -0.8426
  739MOL0     C99634  10.043   2.252   8.064  0.0479  0.1356  0.7548
  739MOL0     C99635   9.976   2.375   8.091  0.8576  0.5732  0.5585
  739MOL0     C99636  10.048   2.487   8.130  0.2185 -0.6414  0.4122
  739MOL0     C99637  10.187   2.481   8.137 -0.3564  0.2178 -0.1636
  739MOL0     O99638  10.272   2.582   8.162 -0.1087  0.1759  0.2866
  739MOL0     C99639  10.340   2.571   8.286  0.1969 -0.0267 -0.4644
  739MOL0     C99640  10.307   2.696   8.387 -0.7325 -0.0919  0.0798
  739MOL0     C99641  10.184   2.673   8.475  0.2534 -0.2075 -0.3411
  739MOL0     C99642  10.124   2.810   8.499 -0.0573 -0.0859  1.0454
  739MOL0     C99643  10.020   2.804   8.612  0.5671 -0.2823 -0.4887
  739MOL0     C99644  10.056   2.718   8.743  0.3841 -1.1991 -0.0450
  739MOL0     C99645   9.936   2.725   8.836 -0.8523  0.4683  1.2342
  739MOL0     C99646   9.811   2.637   8.806 -0.1265  0.3612 -0.0899
  739MOL0     N99647   9.827   2.494   8.805 -0.0560 -0.1682  0.1898
  739MOL0     C99648   9.795   2.408   8.909 -0.3678 -0.0011 -0.1728
  739MOL0     C99649   9.828   2.287   8.862  0.3762  0.4627 -0.2272
  739MOL0     C99650   9.828   2.160   8.953  0.3341  0.6858 -0.2901
  739MOL0     C99651   9.876   2.035   8.882  0.2147  0.1449 -0.3410
  739MOL0     C99652   9.865   1.908   8.962 -0.3986  0.3081  0.3513
  739MOL0     C99653   9.940   1.799   8.904  0.2172 -0.4850 -0.3923
  739MOL0     O99654  10.087   1.818   8.924  0.4426  0.1035 -0.7069
  739MOL0     C99655  10.166   1.720   8.878  0.5417  0.3459  0.9710
  739MOL0     C99656  10.302   1.758   8.900  1.0090 -0.0420  0.1296
  739MOL0     C99657  10.401   1.670   8.860  0.5046 -0.2149 -0.5274
  739MOL0     C99658  10.369   1.538   8.821 -0.0738  1.1413 -0.2903
  739MOL0     C99659  10.467   1.452   8.768 -0.4284  0.5891  0.6697
  739MOL0     O99660  10.582   1.516   8.748 -0.3774  0.2417  0.3934
  739MOL0     C99661  10.676   1.467   8.660  0.5557 -0.9084  0.0536
  739MOL0     C99662  10.812   1.463   8.704  0.2893  0.7564  0.1735
  739MOL0     C99663  10.910   1.392   8.623 -0.2361 -0.8006 -0.7163
  739MOL0     C99664  10.874   1.342   8.499  0.6097  0.5863 -0.6708
  739MOL0     O99665  10.974   1.271   8.435  0.2209 -0.8591 -0.3057
  739MOL0     C99666  10.938   1.166   8.337  0.1275  0.0271 -0.9181
  739MOL0     C99667  11.048   1.134   8.250 -0.9698 -0.1541  0.2748
  739MOL0     C99668  11.176   1.131   8.326  0.0247  0.4698 -0.3139
  739MOL0     C99669  11.294   1.074   8.240  0.7688 -1.1007 -0.2368
  739MOL0     C99670  11.424   1.115   8.293  0.0134  0.0353 -0.7592
  739MOL0     C99671  11.446   1.039   8.421 -0.6127  0.2439 -0.1728
  739MOL0     C99672  11.458   0.886   8.395  1.0194  0.7079 -0.2847
  739MOL0     C99673  11.537   0.817   8.505  0.8291  0.2935  0.0130
  739MOL0    Cl99674  11.481   0.641   8.552  0.0480  0.2628 -0.0282
  739MOL0     C99675  10.743   1.362   8.454  0.5498  0.4946  0.1524
  739MOL0     C99676  10.644   1.428   8.536  0.1664  0.4207  0.8177
  739MOL0     O99677  10.444   1.330   8.744  0.2778  0.2880 -0.3061
  739MOL0     C99678  10.227   1.497   8.814 -0.9565  0.0299 -1.0097
  739MOL0     C99679  10.126   1.590   8.835 -0.0424  1.1929  0.7516
  739MOL0     N99680   9.867   2.298   8.733 -0.0946  0.7835 -0.1179
  739MOL0     N99681   9.862   2.418   8.697  0.5560  1.0673  0.3828
  739MOL0     C99682  10.250   2.360   8.096 -0.5381 -0.2617  0.8915
  739MOL0     C99683  10.184   2.245   8.053  0.4685  1.0419 -0.6542
  739MOL0     C99684   9.868   1.927   8.014 -0.3865  0.2582  0.5055
  739MOL0     C99685   9.737   1.979   8.029  0.3632  0.1533  0.0848
  739MOL0     C99686   9.626   1.897   8.024  0.5247  0.0768 -0.3162
  739MOL0     C99687   9.635   1.757   8.019  0.1327 -0.2691 -0.3331
  739MOL0     O99688   9.529   1.667   8.037 -0.3263  0.3570  1.0567
  739MOL0     C99689   9.482   1.622   7.909  0.5202  0.4680 -0.0175
  739MOL0     C99690   9.353   1.548   7.922  0.0120  0.8268 -0.4574
  739MOL0     C99691   9.233   1.634   7.908 -1.0761  0.0757  0.2104
  739MOL0     C99692   9.206   1.721   8.034 -1.1999  0.1553 -0.6516
  739MOL0     C99693   9.063   1.759   8.042 -0.1417  0.1125  0.5319
  739MOL0     C99694   8.941   1.786   8.055  0.0730  0.1105  0.0220
  739MOL0     C99695   9.758   1.699   8.026 -1.2184  0.3845 -0.1674
  739MOL0     C99696   9.877   1.779   8.015 -0.2455  0.2645 -0.6909
  739MOL0     C99697  10.014   1.705   8.001  1.0539  0.1175  0.3868
  739MOL0     H99698   9.869   2.376   8.069  1.0529  0.9419 -0.4258
  739MOL0     H99699   9.992   2.580   8.125 -1.5017 -1.6146 -5.0348
  739MOL0     H99700  10.313   2.483   8.345  1.8749  0.2971  0.8740
  739MOL0     H99701  10.446   2.552   8.266 -0.0128 -0.8268 -0.8610
  739MOL0     H99702  10.309   2.787   8.327 -0.3753  0.0653  0.3242
  739MOL0     H99703  10.395   2.705   8.452 -0.1607 -3.3283 -0.0841
  739MOL0     H99704  10.219   2.624   8.567 -1.0094 -2.0095 -0.7697
  739MOL0     H99705  10.112   2.604   8.431 -0.6848  0.1313  0.6292
  739MOL0     H99706  10.207   2.876   8.530 -0.8107  1.4866 -0.1479
  739MOL0     H99707  10.072   2.860   8.416  2.3174  0.5683 -0.1613
  739MOL0     H99708   9.977   2.900   8.641  3.5162  1.1353 -0.4140
  739MOL0     H99709   9.941   2.744   8.566 -1.2292  0.2879  1.6773
  739MOL0     H99710  10.086   2.615   8.721  0.0252 -1.0829 -1.1722
  739MOL0     H99711  10.129   2.766   8.808 -1.4412  1.1623  0.4175
  739MOL0     H99712   9.910   2.831   8.846  3.6140  2.3649 -3.2230
  739MOL0     H99713   9.971   2.679   8.929 -0.5881 -7.0196 -1.8915
  739MOL0     H99714   9.735   2.657   8.883  1.9446  1.9261  1.6903
  739MOL0     H99715   9.768   2.663   8.709 -0.9786  2.7918  0.8400
  739MOL0     H99716   9.759   2.446   9.003  3.5293  3.7339  0.1211
  739MOL0     H99717   9.884   2.172   9.047  1.9084 -2.5455 -0.6795
  739MOL0     H99718   9.728   2.140   8.990  0.9003  1.0503  1.5516
  739MOL0     H99719   9.819   2.025   8.789 -1.1669 -0.4047  0.5408
  739MOL0     H99720   9.983   2.043   8.861  0.4861  2.6120  1.4877
  739MOL0     H99721   9.762   1.872   8.952  0.0043 -0.5771 -0.8955
  739MOL0     H99722   9.904   1.926   9.062  3.4212  0.6372 -1.0288
  739MOL0     H99723   9.912   1.808   8.799 -2.6621 -0.3747  0.3091
  739MOL0     H99724   9.912   1.701   8.945  0.3323  0.1975  1.4132
  739MOL0     H99725  10.343   1.847   8.946 -1.7957  1.0376  0.7431
  739MOL0     H99726  10.507   1.688   8.874  0.9913 -2.3567 -1.1471
  739MOL0     H99727  10.834   1.479   8.808  0.2434 -0.6537  0.4168
  739MOL0     H99728  11.006   1.357   8.662 -0.6640 -3.2951 -1.6939
  739MOL0     H99729  10.896   1.078   8.386 -0.2103  0.4533 -0.4325
  739MOL0     H99730  10.856   1.202   8.275 -0.5033  2.7089  1.2987
  739MOL0     H99731  11.031   1.038   8.201  1.3264  0.5169 -2.0431
  739MOL0     H99732  11.055   1.215   8.177 -0.5887  0.6286  1.1546
  739MOL0     H99733  11.200   1.236   8.348 -3.0801  1.2332 -0.1118
  739MOL0     H99734  11.171   1.084   8.425 -3.0047  1.8838  0.2969
  739MOL0     H99735  11.298   1.113   8.137  0.5501  0.3966  0.2892
  739MOL0     H99736  11.285   0.966   8.231 -2.4740 -0.7791 -3.4591
  739MOL0     H99737  11.447   1.221   8.306 -0.2976  0.1086 -0.7784
  739MOL0     H99738  11.497   1.081   8.219 -2.7085 -1.2912 -3.0626
  739MOL0     H99739  11.535   1.073   8.475 -1.6566  0.9343  1.1817
  739MOL0     H99740  11.370   1.058   8.497  0.3067  1.6912  0.4423
  739MOL0     H99741  11.506   0.854   8.302  1.6922 -1.5859  0.7948
  739MOL0     H99742  11.356   0.848   8.395  0.1593  2.6328  3.0461
  739MOL0     H99743  11.643   0.819   8.480  0.4325 -2.7260 -2.5865
  739MOL0     H99744  11.530   0.879   8.595  2.0146 -0.3330  0.5665
  739MOL0     H99745  10.722   1.345   8.349 -2.3517  1.3228  0.5003
  739MOL0     H99746  10.547   1.463   8.505  1.3724  1.8691 -1.6558
  739MOL0     H99747  10.198   1.394   8.796  1.1879 -1.5288  3.0283
  739MOL0     H99748  10.024   1.554   8.823  0.7185 -1.0095  0.5305
  739MOL0     H99749  10.356   2.376   8.079 -0.9301 -0.4422 -2.5778
  739MOL0     H99750  10.231   2.155   8.015 -2.7926 -0.3606 -1.7215
  739MOL0     H99751   9.719   2.086   8.027 -0.8679 -0.0155  0.9392
  739MOL0     H99752   9.529   1.945   8.022  0.3076 -0.3450 -0.2095
  739MOL0     H99753   9.555   1.556   7.863 -0.2968  2.0493 -4.0274
  739MOL0     H99754   9.463   1.709   7.845  2.1287  0.8603 -0.0058
  739MOL0     H99755   9.344   1.496   8.018 -0.9389  1.8737  0.0399
  739MOL0     H99756   9.350   1.475   7.841  1.0270  2.2388 -1.8197
  739MOL0     H99757   9.147   1.566   7.910 -1.8530  1.0180  3.0076
  739MOL0     H99758   9.237   1.691   7.815 -1.3440  0.6360  0.5363
  739MOL0     H99759   9.234   1.664   8.123  1.1890  3.0864  0.6435
  739MOL0     H99760   9.267   1.811   8.042 -0.4889 -0.4202  0.6423
  739MOL0     H99761   8.836   1.808   8.049 -0.6071 -2.4840  0.9765
  739MOL0     H99762   9.773   1.592   8.039  0.4849  0.4409 -1.3235
  739MOL0     H99763  10.078   1.722   8.087  0.5662 -3.9889  1.7613
  739MOL0     H99764  10.000   1.599   7.976  2.4366  0.2952 -1.3763
  739MOL0     H99765  10.047   1.752   7.907 -0.4970  1.2160  0.3500
  740MOL0     O99766   0.739   5.394   5.772  0.1229 -0.1274  0.2822
  740MOL0     C99767   0.736   5.282   5.719  1.1496  0.4617  0.3816
  740MOL0     O99768   0.833   5.193   5.707 -0.4134  0.0029  0.4931
  740MOL0     C99769   0.967   5.221   5.734  0.1280  0.4566  0.2615
  740MOL0     C99770   1.014   5.316   5.830  0.3866  0.2931  0.3593
  740MOL0     C99771   1.152   5.349   5.834  0.7916  0.8526 -0.7989
  740MOL0     C99772   1.244   5.288   5.752  0.7654 -0.8057  0.1901
  740MOL0     O99773   1.376   5.295   5.771 -0.3515 -0.6546  0.6580
  740MOL0     C99774   1.433   5.394   5.683 -0.3089 -0.6404 -0.1339
  740MOL0     C99775   1.487   5.330   5.557  0.6922  0.3060  0.2461
  740MOL0     C99776   1.591   5.213   5.583  0.7095  0.6329 -0.7688
  740MOL0     C99777   1.730   5.244   5.529 -0.5386  0.4736  1.1155
  740MOL0     C99778   1.836   5.157   5.572 -0.2486  0.2159 -0.8529
  740MOL0     C99779   1.829   5.019   5.506 -0.1116  0.4832 -0.5155
  740MOL0     C99780   1.941   4.923   5.551 -0.2612  0.6053  0.2018
  740MOL0     C99781   1.917   4.783   5.489 -0.0867 -0.3464 -0.2077
  740MOL0     N99782   1.960   4.776   5.346 -0.3453  0.4910  0.8007
  740MOL0     C99783   2.077   4.818   5.290  0.2290  1.0592  1.0050
  740MOL0     C99784   2.061   4.802   5.153 -0.1379 -0.0361 -0.6791
  740MOL0     C99785   2.165   4.852   5.048 -0.0735 -0.3967 -0.1676
  740MOL0     C99786   2.176   5.011   5.067 -0.1759  0.0551  0.2119
  740MOL0     C99787   2.262   5.084   4.954  0.0236 -0.7896  0.8714
  740MOL0     C99788   2.247   5.232   4.950  0.4918 -0.8682  0.7840
  740MOL0     O99789   2.297   5.287   5.069 -0.0782  0.2090  0.7383
  740MOL0     C99790   2.425   5.341   5.076  0.2687  0.9667 -0.3861
  740MOL0     C99791   2.418   5.430   5.182 -0.4157  0.5420 -0.1447
  740MOL0     C99792   2.536   5.501   5.210 -0.6647  0.4256 -0.0153
  740MOL0     C99793   2.657   5.470   5.132 -0.7573 -0.3294  0.6543
  740MOL0     C99794   2.785   5.534   5.171  0.0728  0.4064 -0.4145
  740MOL0     O99795   2.782   5.626   5.275  0.0791  0.7271  0.8709
  740MOL0     C99796   2.896   5.678   5.327  0.0910  0.2999 -0.1017
  740MOL0     C99797   2.892   5.809   5.371 -0.5785 -0.5626 -1.5029
  740MOL0     C99798   3.010   5.873   5.417 -1.0236 -0.0259  0.8490
  740MOL0     C99799   3.134   5.799   5.429 -0.0313  0.8121  0.3911
  740MOL0     O99800   3.258   5.844   5.470  0.2470 -1.7169  0.3950
  740MOL0     C99801   3.285   5.986   5.479 -0.3486  0.7449 -1.3398
  740MOL0     C99802   3.422   6.003   5.415 -0.1563 -0.4851  0.6165
  740MOL0     C99803   3.544   5.991   5.510 -0.4882 -0.7818 -0.3764
  740MOL0     C99804   3.669   5.983   5.434  0.0218 -0.3348 -0.6052
  740MOL0     C99805   3.786   5.969   5.533 -0.7600  0.2424 -0.1656
  740MOL0     C99806   3.925   5.975   5.467 -0.2087 -0.5764 -1.1565
  740MOL0     C99807   3.950   6.098   5.390  0.3364  0.1689 -0.3646
  740MOL0     C99808   4.086   6.116   5.324  0.5378 -0.9342 -0.0599
  740MOL0    Cl99809   4.128   6.295   5.287  0.1083 -0.5053  0.1807
  740MOL0     C99810   3.130   5.668   5.396 -0.3337  0.0870  0.0035
  740MOL0     C99811   3.009   5.604   5.346 -0.0432  0.2148  0.8595
  740MOL0     O99812   2.886   5.504   5.107  0.5958 -0.2799 -0.0742
  740MOL0     C99813   2.651   5.378   5.023  0.6359 -1.4430 -0.1990
  740MOL0     C99814   2.528   5.307   4.998 -0.1024 -0.7704 -0.7522
  740MOL0     N99815   1.930   4.755   5.133 -0.7604  0.6888 -0.4413
  740MOL0     N99816   1.876   4.742   5.241  0.0253  0.1804  0.5227
  740MOL0     C99817   1.193   5.182   5.671 -0.2584 -0.6623  0.1904
  740MOL0     C99818   1.060   5.152   5.660  0.7035 -0.0114 -0.1494
  740MOL0     C99819   0.609   5.228   5.659 -0.4761 -0.3199 -0.8802
  740MOL0     C99820   0.563   5.103   5.698  0.5310  0.3414 -0.7656
  740MOL0     C99821   0.432   5.060   5.666 -0.8515  0.1633 -0.0763
  740MOL0     C99822   0.357   5.137   5.573 -1.1638  0.0463  0.4149
  740MOL0     O99823   0.239   5.084   5.523  0.7718 -0.7148  0.1940
  740MOL0     C99824   0.139   5.168   5.446  0.6294 -0.6895  0.4064
  740MOL0     C99825   0.062   5.251   5.551 -0.2808  0.1349  0.7724
  740MOL0     C99826  -0.060   5.322   5.481 -0.3658 -0.3841  0.7692
  740MOL0     C99827  -0.014   5.434   5.388 -0.1691  0.3131  1.2776
  740MOL0     C99828   0.047   5.552   5.445  0.1136 -0.0965 -0.0511
  740MOL0     C99829   0.097   5.644   5.506  0.1775 -0.5924  1.0634
  740MOL0     C99830   0.405   5.267   5.541  0.1204  0.9995 -1.4908
  740MOL0     C99831   0.524   5.320   5.586  0.2959 -0.3137 -0.2196
  740MOL0     C99832   0.560   5.467   5.548  0.1889 -0.0100 -0.0760
  740MOL0     H99833   0.945   5.378   5.886 -1.4631  0.8054 -2.2581
  740MOL0     H99834   1.205   5.416   5.901  1.3752  2.6997 -2.9585
  740MOL0     H99835   1.353   5.452   5.637  0.0990 -2.5427 -3.6364
  740MOL0     H99836   1.510   5.440   5.746 -0.7262  0.1749 -0.2024
  740MOL0     H99837   1.532   5.406   5.492 -0.0073 -0.3367 -1.0360
  740MOL0     H99838   1.404   5.290   5.498  0.6630 -1.2991  1.3164
  740MOL0     H99839   1.545   5.123   5.541  0.8857 -0.1611  0.6918
  740MOL0     H99840   1.591   5.190   5.690 -3.2725 -1.3871 -1.0166
  740MOL0     H99841   1.724   5.237   5.420  0.2173 -1.7657  1.1740
  740MOL0     H99842   1.758   5.345   5.562  5.9710 -1.1052  1.7545
  740MOL0     H99843   1.925   5.217   5.552  1.0335 -1.6418 -1.0661
  740MOL0     H99844   1.834   5.150   5.682 -2.1519  0.5378 -0.8458
  740MOL0     H99845   1.730   4.977   5.523 -0.8774  2.5426  0.3646
  740MOL0     H99846   1.852   5.029   5.399 -0.5936 -0.6437 -0.7436
  740MOL0     H99847   1.940   4.909   5.660  1.1472 -1.5160 -0.0056
  740MOL0     H99848   2.040   4.960   5.525  1.4230 -2.4264  1.7318
  740MOL0     H99849   1.973   4.703   5.540  0.3605  1.0268  1.5743
  740MOL0     H99850   1.808   4.772   5.495  0.0006 -0.4211  1.9373
  740MOL0     H99851   2.160   4.870   5.337 -0.1010  2.5256  0.0573
  740MOL0     H99852   2.267   4.812   5.052  0.1962 -0.3077 -3.3870
  740MOL0     H99853   2.130   4.830   4.946  2.0360  2.0621 -1.5441
  740MOL0     H99854   2.083   5.067   5.082  0.7077  0.7640  4.5960
  740MOL0     H99855   2.233   5.045   5.154  0.9959  1.4112 -1.0218
  740MOL0     H99856   2.231   5.048   4.855  1.8452 -0.5634  0.1869
  740MOL0     H99857   2.367   5.064   4.973  0.4625  0.0265 -0.5506
  740MOL0     H99858   2.140   5.252   4.934  0.8417  0.4266 -0.1385
  740MOL0     H99859   2.295   5.285   4.868  1.3991 -1.8287  0.6733
  740MOL0     H99860   2.327   5.443   5.240 -0.9305 -0.5417 -0.6977
  740MOL0     H99861   2.543   5.561   5.300 -1.0506 -0.2550  0.4741
  740MOL0     H99862   2.796   5.858   5.362  0.5772  2.4954  1.0092
  740MOL0     H99863   3.002   5.970   5.464  3.5528  2.0372 -1.9200
  740MOL0     H99864   3.210   6.051   5.433 -0.4265  3.3732  2.0767
  740MOL0     H99865   3.287   6.014   5.585  0.4070 -2.8041 -0.2682
  740MOL0     H99866   3.432   5.931   5.333  1.8430  1.8353 -1.3369
  740MOL0     H99867   3.418   6.105   5.377 -1.6861 -0.7528 -0.0296
  740MOL0     H99868   3.551   6.079   5.574 -0.6554 -0.6529 -0.5318
  740MOL0     H99869   3.536   5.899   5.569 -0.4607 -0.5009  0.0649
  740MOL0     H99870   3.677   6.073   5.372 -0.6138 -0.0344 -0.2604
  740MOL0     H99871   3.661   5.901   5.361 -1.2818  2.2834 -3.6901
  740MOL0     H99872   3.780   5.871   5.581 -2.3181 -1.1105 -2.9133
  740MOL0     H99873   3.775   6.053   5.602  1.3562 -0.9139  1.7236
  740MOL0     H99874   3.999   5.965   5.546 -0.3243 -0.3510 -1.0184
  740MOL0     H99875   3.930   5.889   5.400 -1.3608 -0.9557 -0.7861
  740MOL0     H99876   3.937   6.190   5.447  2.8432  2.4889 -3.1763
  740MOL0     H99877   3.878   6.099   5.307  2.1498 -0.1246 -2.0310
  740MOL0     H99878   4.168   6.077   5.385  1.0044 -0.9949 -0.7174
  740MOL0     H99879   4.087   6.063   5.228  0.7869 -2.2173  0.6325
  740MOL0     H99880   3.227   5.620   5.397  0.9675  2.5506 -0.5813
  740MOL0     H99881   3.016   5.499   5.320  3.3463  1.1932 -3.2405
  740MOL0     H99882   2.738   5.354   4.964  1.2730 -0.7552  0.4420
  740MOL0     H99883   2.518   5.238   4.915 -2.2256 -0.3706 -0.8904
  740MOL0     H99884   1.266   5.122   5.618 -0.5540 -0.1692 -0.8055
  740MOL0     H99885   1.032   5.071   5.594  1.6103 -0.1076 -0.4361
  740MOL0     H99886   0.615   5.026   5.753 -0.7580 -0.6924 -0.9510
  740MOL0     H99887   0.386   4.968   5.701  2.3680 -2.2464 -1.5665
  740MOL0     H99888   0.074   5.105   5.384 -0.0412  1.4731 -1.2287
  740MOL0     H99889   0.191   5.236   5.378  0.9133 -1.0279  0.2789
  740MOL0     H99890   0.137   5.319   5.594  2.1198 -0.6525 -1.8501
  740MOL0     H99891   0.027   5.194   5.638 -1.0587  0.5175  0.7130
  740MOL0     H99892  -0.121   5.371   5.557 -0.9606 -1.2855  0.8834
  740MOL0     H99893  -0.124   5.248   5.431 -0.6947  1.4165 -1.6657
  740MOL0     H99894   0.064   5.398   5.320 -0.8403  0.7179  0.2803
  740MOL0     H99895  -0.100   5.452   5.323  1.2340 -1.4673 -1.2658
  740MOL0     H99896   0.145   5.733   5.543  2.0390 -0.6928 -0.9268
  740MOL0     H99897   0.348   5.337   5.481  1.6554  3.8855  0.2088
  740MOL0     H99898   0.554   5.518   5.645 -1.3583  3.9083 -2.0143
  740MOL0     H99899   0.662   5.464   5.508  1.3050 -0.7890  2.6371
  740MOL0     H99900   0.502   5.515   5.469 -0.1217  0.0261  0.1756
  741MOL0     O99901   8.053   2.422  10.325 -1.0295  0.3206  0.9280
  741MOL0     C99902   8.090   2.312  10.275  0.3743 -0.0010 -0.7523
  741MOL0     O99903   8.214   2.278  10.246 -0.1417  0.0923 -0.0388
  741MOL0     C99904   8.323   2.356  10.277 -0.3471 -0.1664  0.7831
  741MOL0     C99905   8.397   2.312  10.386  0.1137  0.2672 -0.0598
  741MOL0     C99906   8.512   2.379  10.412 -0.4836 -0.7949 -0.1560
  741MOL0     C99907   8.554   2.492  10.340  0.2372 -0.3915 -0.1131
  741MOL0     O99908   8.670   2.548  10.392  0.5183 -0.0333  0.3135
  741MOL0     C99909   8.680   2.688  10.372 -0.6408 -0.0025  0.5073
  741MOL0     C99910   8.776   2.709  10.245  0.4767  0.5354  0.3158
  741MOL0     C99911   8.780   2.843  10.165 -0.0420  1.1237 -0.9119
  741MOL0     C99912   8.832   2.955  10.252  0.4450  0.5809  0.0574
  741MOL0     C99913   8.858   3.082  10.179 -0.7900  0.2518  0.0581
  741MOL0     C99914   8.961   3.087  10.065 -0.3290  0.4147 -0.2179
  741MOL0     C99915   9.095   3.014  10.103 -0.9353  0.1441 -0.1737
  741MOL0     C99916   9.217   3.071  10.029 -0.4779 -0.2315 -0.0188
  741MOL0     N99917   9.325   2.975  10.017  0.3377 -0.0120 -0.7054
  741MOL0     C99918   9.442   2.969  10.093  0.6776 -1.2544 -0.1573
  741MOL0     C99919   9.508   2.853  10.062 -0.4982  0.1665  0.1454
  741MOL0     C99920   9.645   2.804  10.126  0.6524 -0.5929  1.2655
  741MOL0     C99921   9.618   2.721  10.251  0.2566  0.4794 -0.8498
  741MOL0     C99922   9.584   2.578  10.210 -0.0605  0.2622 -0.5145
  741MOL0     C99923   9.695   2.498  10.159  0.0326 -0.2175 -0.4342
  741MOL0     O99924   9.814   2.524  10.231  0.5715  0.0067  0.0355
  741MOL0     C99925   9.919   2.472  10.168  0.2536  0.2953 -0.0788
  741MOL0     C99926   9.993   2.552  10.086 -0.5921  0.1249  0.6087
  741MOL0     C99927  10.106   2.509  10.007 -0.6002  1.0267 -0.3118
  741MOL0     C99928  10.148   2.376  10.028  0.0458 -0.3724 -0.3350
  741MOL0     C99929  10.258   2.320   9.943 -0.7501  0.9810  0.8218
  741MOL0     O99930  10.322   2.414   9.867 -0.1072 -0.5685 -0.0291
  741MOL0     C99931  10.415   2.380   9.768 -0.6970  0.1897  0.2019
  741MOL0     C99932  10.435   2.251   9.709  0.0989  0.3032 -0.8785
  741MOL0     C99933  10.559   2.214   9.656  0.1762 -0.1452 -0.3238
  741MOL0     C99934  10.654   2.316   9.627 -0.1188 -0.7034  0.2849
  741MOL0     O99935  10.777   2.306   9.571 -0.3992  0.2110  1.0523
  741MOL0     C99936  10.810   2.181   9.505 -0.0018 -0.3489  0.1351
  741MOL0     C99937  10.954   2.194   9.472  0.1915  0.3696  0.7296
  741MOL0     C99938  11.011   2.054   9.433  0.1724  0.9993 -0.4183
  741MOL0     C99939  10.956   1.978   9.309 -0.2365  0.4877 -0.1976
  741MOL0     C99940  11.017   1.839   9.301  0.1263 -0.0693  0.3741
  741MOL0     C99941  10.935   1.719   9.242 -0.3290 -0.6709 -0.3371
  741MOL0     C99942  10.920   1.714   9.085 -0.6121  0.1424  0.2066
  741MOL0     C99943  10.812   1.814   9.039  0.1811  0.6552  0.9697
  741MOL0    Cl99944  10.649   1.778   9.116  0.1899  0.0856  0.0223
  741MOL0     C99945  10.626   2.445   9.688 -1.3396  0.3237 -0.1273
  741MOL0     C99946  10.512   2.477   9.751 -0.1259 -0.5850  0.2901
  741MOL0     O99947  10.290   2.200   9.961 -0.4861 -0.1797 -0.0193
  741MOL0     C99948  10.064   2.289  10.105  0.4437 -0.2683 -0.0046
  741MOL0     C99949   9.959   2.344  10.189 -0.3257 -0.2566 -0.0464
  741MOL0     N99950   9.429   2.790   9.966 -0.3256  0.4209 -0.0059
  741MOL0     N99951   9.328   2.861   9.940  0.7216  0.0976  0.0848
  741MOL0     C99952   8.483   2.524  10.221  0.2119 -0.5007 -0.3975
  741MOL0     C99953   8.366   2.467  10.200 -0.1518  0.9822 -0.2813
  741MOL0     C99954   7.984   2.205  10.252 -0.0340  0.0680 -0.2943
  741MOL0     C99955   7.862   2.210  10.311 -0.1741 -0.4315  0.5589
  741MOL0     C99956   7.763   2.106  10.299  0.1210  0.5707  0.0789
  741MOL0     C99957   7.773   2.003  10.207 -0.8799 -0.6752  1.1066
  741MOL0     O99958   7.690   1.900  10.174  1.0310  0.4032 -0.0792
  741MOL0     C99959   7.585   1.872  10.265  0.4879 -0.6758  0.4258
  741MOL0     C99960   7.509   1.740  10.231  0.2874 -0.0798 -0.6540
  741MOL0     C99961   7.436   1.743  10.096  0.0540  0.1451  0.6405
  741MOL0     C99962   7.370   1.616  10.057 -0.2072  0.1748  0.8902
  741MOL0     C99963   7.462   1.500  10.053  0.7863 -1.1305 -0.8424
  741MOL0     C99964   7.553   1.418  10.062  0.4471  0.2274  0.2542
  741MOL0     C99965   7.899   1.992  10.137  0.1214 -0.8977  0.1067
  741MOL0     C99966   8.009   2.085  10.168 -0.1223 -0.8419 -0.0943
  741MOL0     C99967   8.134   2.061  10.089 -0.4926  0.6621  0.3005
  741MOL0     H99968   8.364   2.227  10.445 -3.5083  0.5822 -1.3762
  741MOL0     H99969   8.580   2.353  10.492  0.7203  2.2422 -0.0778
  741MOL0     H99970   8.583   2.738  10.362 -0.0429  0.9172 -0.9795
  741MOL0     H99971   8.724   2.740  10.458  0.5957 -0.2963  0.0630
  741MOL0     H99972   8.763   2.620  10.182 -0.8742  0.5327  0.5751
  741MOL0     H99973   8.874   2.709  10.294  0.7703  1.6733 -0.2375
  741MOL0     H99974   8.680   2.859  10.124 -0.1025  0.9244 -0.8452
  741MOL0     H99975   8.850   2.825  10.083 -1.8866  0.2482 -2.3623
  741MOL0     H99976   8.761   2.967  10.334  1.7114  0.1883  1.2493
  741MOL0     H99977   8.921   2.924  10.308  0.0788 -0.4515  0.0846
  741MOL0     H99978   8.765   3.134  10.152  1.1744  4.7305  1.0019
  741MOL0     H99979   8.906   3.136  10.261 -0.5751  0.3052 -0.1035
  741MOL0     H99980   8.914   3.037   9.981 -0.9588 -2.0016  1.4738
  741MOL0     H99981   8.986   3.191  10.040 -2.6334  1.2392  0.6019
  741MOL0     H99982   9.078   2.907  10.087 -2.9235  0.2086  1.1008
  741MOL0     H99983   9.125   3.024  10.207  2.1741  3.3657 -1.1856
  741MOL0     H99984   9.174   3.083   9.929 -3.2969  0.1772  1.1584
  741MOL0     H99985   9.240   3.164  10.082 -1.7403 -0.8401  1.6738
  741MOL0     H99986   9.469   3.033  10.176 -0.0882 -0.4287 -0.5244
  741MOL0     H99987   9.701   2.747  10.053 -1.8327 -3.1136  1.1592
  741MOL0     H99988   9.701   2.893  10.158  1.4281 -0.9234  0.8349
  741MOL0     H99989   9.705   2.717  10.318 -0.7203  1.0534  0.4969
  741MOL0     H99990   9.531   2.746  10.312 -0.3616  0.0992 -1.5716
  741MOL0     H99991   9.506   2.576  10.134  0.0704 -1.6394 -0.6347
  741MOL0     H99992   9.547   2.531  10.301  3.6374  1.0905  1.6440
  741MOL0     H99993   9.702   2.516  10.051 -1.2906  1.4662 -0.2835
  741MOL0     H99994   9.666   2.396  10.186  1.5032 -0.3272  0.8495
  741MOL0     H99995   9.964   2.656  10.073  2.4832  0.9333 -0.5485
  741MOL0     H99996  10.176   2.566   9.947 -2.2371  0.3230 -3.1216
  741MOL0     H99997  10.360   2.176   9.732 -0.4064  1.3895  1.3595
  741MOL0     H99998  10.569   2.109   9.631 -1.1159  0.1501 -2.3582
  741MOL0     H99999  10.787   2.092   9.564  1.5596 -2.5324 -2.3177
  741MOL0     H    0  10.759   2.174   9.409  0.4623 -1.1744 -0.0573
  741MOL0     H    1  10.957   2.263   9.388 -1.2387  1.4458  1.5207
  741MOL0     H    2  11.012   2.242   9.550  0.6122  0.1989  0.5235
  741MOL0     H    3  11.119   2.060   9.414  0.2357  2.0519  0.1887
  741MOL0     H    4  10.998   1.996   9.525 -3.7043  1.1060 -0.7443
  741MOL0     H    5  10.970   2.045   9.223 -0.1002  2.4831  1.3258
  741MOL0     H    6  10.849   1.964   9.328  0.3776 -1.9475  2.1212
  741MOL0     H    7  11.034   1.802   9.403  1.1236 -1.9830 -0.4248
  741MOL0     H    8  11.115   1.852   9.254  0.2793  0.7775  0.8939
  741MOL0     H    9  10.971   1.624   9.280 -2.6627 -1.5498 -0.1798
  741MOL0     H   10  10.838   1.740   9.288  1.7935  1.1679  3.9324
  741MOL0     H   11  10.897   1.609   9.062  3.3645 -1.3586  2.1682
  741MOL0     H   12  11.020   1.721   9.042 -0.6039 -1.2368 -0.0364
  741MOL0     H   13  10.832   1.918   9.069 -0.2342  0.7759  0.8377
  741MOL0     H   14  10.808   1.813   8.930 -3.1167 -3.7024  0.8824
  741MOL0     H   15  10.701   2.520   9.663 -1.6157  1.0243  1.0493
  741MOL0     H   16  10.481   2.569   9.800  0.5585 -0.3614  0.3153
  741MOL0     H   17  10.099   2.187  10.121  0.8696  0.1313  1.9710
  741MOL0     H   18   9.893   2.283  10.250 -2.4109 -0.0792 -2.0017
  741MOL0     H   19   8.511   2.592  10.141  0.8332 -0.7030 -0.3537
  741MOL0     H   20   8.305   2.499  10.116 -1.9838 -0.2056  0.5141
  741MOL0     H   21   7.839   2.292  10.377  0.7038  0.3874 -0.1288
  741MOL0     H   22   7.667   2.120  10.348  0.5300  0.9190  0.7972
  741MOL0     H   23   7.512   1.953  10.266 -2.3256 -3.0418  1.1578
  741MOL0     H   24   7.632   1.857  10.363  0.7596  1.1352  0.6002
  741MOL0     H   25   7.439   1.715  10.312 -1.1546  3.2814 -0.6786
  741MOL0     H   26   7.577   1.656  10.242 -3.4606 -3.1107  2.2687
  741MOL0     H   27   7.504   1.775  10.017 -3.7508  2.7315 -1.9640
  741MOL0     H   28   7.357   1.819  10.097  0.8918  1.0267  1.1826
  741MOL0     H   29   7.289   1.587  10.124  0.1709  1.4506  1.9493
  741MOL0     H   30   7.328   1.617   9.956  2.4697 -4.9181 -0.6534
  741MOL0     H   31   7.633   1.347  10.057 -1.0752 -1.6707  1.5072
  741MOL0     H   32   7.922   1.907  10.073  2.0010 -1.9575  2.0443
  741MOL0     H   33   8.116   1.996  10.003 -0.2089 -0.3649  0.9962
  741MOL0     H   34   8.184   2.148  10.045  3.2232 -2.1841 -1.6953
  741MOL0     H   35   8.200   2.006  10.157 -2.2964 -1.6266  0.3258
  742MOL0     O   36   3.535   7.930   8.004  0.1390 -0.5210  0.1408
  742MOL0     C   37   3.518   8.047   7.978 -0.6584 -0.8488  0.3228
  742MOL0     O   38   3.432   8.134   8.033  0.4357 -0.5247  0.8049
  742MOL0     C   39   3.338   8.081   8.118  0.1077 -0.1990  0.5377
  742MOL0     C   40   3.307   8.158   8.235 -0.6948 -0.6820  0.8594
  742MOL0     C   41   3.212   8.129   8.329 -0.5064 -1.5295  0.2834
  742MOL0     C   42   3.134   8.014   8.305 -0.3010 -0.4434 -0.8507
  742MOL0     O   43   3.036   7.979   8.390 -0.7869 -0.1430 -0.2902
  742MOL0     C   44   2.963   8.074   8.472 -0.5443  0.2503  0.3910
  742MOL0     C   45   2.873   8.162   8.388 -0.2885 -1.3584  0.3054
  742MOL0     C   46   2.800   8.283   8.457  0.1231  0.2785 -0.2916
  742MOL0     C   47   2.896   8.373   8.532  0.0844  0.1254  0.1088
  742MOL0     C   48   2.838   8.508   8.575 -0.0712 -0.7695  0.0346
  742MOL0     C   49   2.770   8.495   8.715  0.3687  0.5506 -0.1120
  742MOL0     C   50   2.657   8.595   8.716  0.9232  0.2751 -0.2567
  742MOL0     C   51   2.703   8.732   8.753  0.8323 -0.9820 -0.1094
  742MOL0     N   52   2.763   8.748   8.884  0.1315  0.1634 -0.4036
  742MOL0     C   53   2.901   8.752   8.903  0.2618  0.7787  0.4146
  742MOL0     C   54   2.933   8.736   9.038 -0.2160  0.3113 -0.5964
  742MOL0     C   55   3.065   8.741   9.119  0.0598 -0.2222  0.3923
  742MOL0     C   56   3.161   8.634   9.078 -1.4914  0.3882 -0.2487
  742MOL0     C   57   3.297   8.658   9.154  1.0904 -0.4181  0.4177
  742MOL0     C   58   3.406   8.560   9.106  0.7658 -0.7807  1.1819
  742MOL0     O   59   3.457   8.629   8.989  0.1236 -0.4398  0.3153
  742MOL0     C   60   3.569   8.575   8.938 -0.8664 -0.3643  0.3569
  742MOL0     C   61   3.655   8.485   9.003 -0.6113  0.1834  0.6008
  742MOL0     C   62   3.773   8.437   8.942  0.8237 -0.2190  0.4748
  742MOL0     C   63   3.814   8.500   8.823  0.2942  0.5202 -0.6687
  742MOL0     C   64   3.931   8.453   8.750  0.2325  0.3921 -0.4631
  742MOL0     O   65   3.960   8.519   8.638 -0.3638  0.2812  0.2191
  742MOL0     C   66   4.056   8.475   8.546 -0.7035 -0.6547 -0.4261
  742MOL0     C   67   4.079   8.339   8.506 -0.2728 -0.6225  0.8603
  742MOL0     C   68   4.168   8.312   8.397  0.0701  1.2662 -0.7111
  742MOL0     C   69   4.225   8.422   8.333 -0.2977  0.2112  0.5310
  742MOL0     O   70   4.310   8.383   8.232 -0.3562 -0.1453 -0.1271
  742MOL0     C   71   4.410   8.483   8.181  1.1029 -0.4330 -0.2740
  742MOL0     C   72   4.503   8.427   8.072 -0.1920  0.3927 -0.2351
  742MOL0     C   73   4.641   8.501   8.072  1.3056 -0.6523  0.8911
  742MOL0     C   74   4.621   8.651   8.016  1.2839  0.1564  0.6647
  742MOL0     C   75   4.749   8.729   8.032  0.5731 -0.0067  0.3791
  742MOL0     C   76   4.862   8.693   7.937 -0.4455  0.6978  0.0481
  742MOL0     C   77   4.828   8.694   7.792 -0.2001  0.0643 -0.1485
  742MOL0     C   78   4.835   8.834   7.724 -0.0183  0.7756  0.4199
  742MOL0    Cl   79   4.706   8.945   7.778  0.2508 -0.1345 -0.1257
  742MOL0     C   80   4.210   8.554   8.375  0.2188  0.5545  0.0322
  742MOL0     C   81   4.132   8.577   8.490 -0.4523 -0.7751 -0.6001
  742MOL0     O   82   4.000   8.361   8.798  0.6056 -0.0971 -0.2597
  742MOL0     C   83   3.739   8.598   8.766  0.3217  0.0653  0.1456
  742MOL0     C   84   3.617   8.637   8.826  0.9555 -0.2071  0.8698
  742MOL0     N   85   2.813   8.714   9.103  0.4311 -0.0453  0.0992
  742MOL0     N   86   2.718   8.711   9.010 -0.1061  1.1093 -0.6413
  742MOL0     C   87   3.170   7.934   8.198 -0.8597 -0.4068  0.2385
  742MOL0     C   88   3.266   7.965   8.108  0.3771  0.6681  0.7200
  742MOL0     C   89   3.632   8.110   7.894  0.5993  0.2331 -0.0890
  742MOL0     C   90   3.660   8.244   7.920 -0.0723  0.1588  0.7503
  742MOL0     C   91   3.762   8.307   7.858 -1.1378  0.6256  0.5635
  742MOL0     C   92   3.845   8.243   7.767  0.4031 -0.2046 -0.5493
  742MOL0     O   93   3.954   8.290   7.705 -0.0854  0.4179  0.4924
  742MOL0     C   94   4.018   8.408   7.761 -0.1167  0.2517 -0.1585
  742MOL0     C   95   4.147   8.438   7.686  0.3858  0.0781 -0.4685
  742MOL0     C   96   4.188   8.581   7.706 -0.0581  0.2578  0.5798
  742MOL0     C   97   4.278   8.577   7.834  1.1088  0.2699  0.8275
  742MOL0     C   98   4.307   8.718   7.866 -0.1675  1.1780 -0.8390
  742MOL0     C   99   4.329   8.831   7.909 -0.6512  0.0833 -0.2555
  742MOL0     C  100   3.817   8.109   7.735  0.5462 -0.3573 -0.5143
  742MOL0     C  101   3.710   8.037   7.795 -0.6976 -1.0726 -0.0760
  742MOL0     C  102   3.680   7.901   7.747  0.6281 -0.2248 -0.5639
  742MOL0     H  103   3.364   8.249   8.251 -2.2561  0.2734  1.1286
  742MOL0     H  104   3.202   8.189   8.418 -2.1903 -0.9799 -0.2521
  742MOL0     H  105   2.898   8.024   8.545 -0.9352  0.1075 -0.0535
  742MOL0     H  106   3.040   8.129   8.527 -0.7921  1.7442 -0.7101
  742MOL0     H  107   2.789   8.101   8.353  0.0695  0.2711 -3.9562
  742MOL0     H  108   2.929   8.200   8.303 -1.6854  1.5959  0.5926
  742MOL0     H  109   2.729   8.239   8.527 -1.0358  1.5655 -0.6286
  742MOL0     H  110   2.750   8.347   8.384 -1.8410 -2.0636 -1.1293
  742MOL0     H  111   2.939   8.316   8.616 -0.9562 -0.9142 -0.0449
  742MOL0     H  112   2.975   8.395   8.459 -0.8583 -0.2212 -1.0435
  742MOL0     H  113   2.923   8.577   8.587  0.6842 -1.5880 -0.4598
  742MOL0     H  114   2.782   8.545   8.488  1.1303 -2.3084 -1.4786
  742MOL0     H  115   2.726   8.397   8.737  1.4093  0.2299  0.6123
  742MOL0     H  116   2.838   8.520   8.797 -1.6019  0.9229  1.4833
  742MOL0     H  117   2.588   8.567   8.796 -1.5462  0.3425 -2.2428
  742MOL0     H  118   2.588   8.580   8.633 -1.7676 -0.9796  2.0450
  742MOL0     H  119   2.785   8.753   8.684 -0.6918 -1.8500 -2.2752
  742MOL0     H  120   2.627   8.809   8.738 -0.6909 -1.3381  4.2895
  742MOL0     H  121   2.975   8.761   8.824  1.7593 -6.1484  0.4264
  742MOL0     H  122   3.118   8.835   9.104  1.7729 -0.8494  2.0945
  742MOL0     H  123   3.039   8.731   9.225  0.3194 -2.9568  0.2787
  742MOL0     H  124   3.133   8.533   9.110 -1.4363  0.2252 -0.7103
  742MOL0     H  125   3.175   8.622   8.971 -0.2035 -1.2569  0.0547
  742MOL0     H  126   3.283   8.630   9.259  0.0274 -1.6051 -0.0196
  742MOL0     H  127   3.332   8.761   9.146 -0.5545  0.2013  0.9085
  742MOL0     H  128   3.358   8.463   9.089 -0.0383 -0.3018  0.6944
  742MOL0     H  129   3.486   8.548   9.180  3.4561 -1.0081 -1.5526
  742MOL0     H  130   3.627   8.437   9.096 -1.3070 -2.5572 -0.8958
  742MOL0     H  131   3.851   8.369   8.975  1.1732 -0.6254 -1.0952
  742MOL0     H  132   4.030   8.252   8.549 -0.0447  0.2630  3.0474
  742MOL0     H  133   4.193   8.210   8.369 -0.4646  0.9428 -0.0322
  742MOL0     H  134   4.350   8.563   8.137  1.2947  0.8976  1.7155
  742MOL0     H  135   4.449   8.532   8.270 -0.1152 -0.3806  0.2588
  742MOL0     H  136   4.518   8.318   8.076  0.2914  0.3471 -2.2749
  742MOL0     H  137   4.443   8.446   7.983 -3.3579  3.3474  2.2518
  742MOL0     H  138   4.692   8.505   8.169  1.0210  2.4376  1.0317
  742MOL0     H  139   4.702   8.427   8.020 -1.0076 -3.7359  2.2037
  742MOL0     H  140   4.550   8.707   8.077 -0.0653 -0.0723 -0.6582
  742MOL0     H  141   4.578   8.653   7.916 -1.2856 -0.3329  1.7024
  742MOL0     H  142   4.779   8.731   8.137 -0.1545  0.9185  0.5830
  742MOL0     H  143   4.727   8.834   8.012 -1.6180  0.1813  3.1401
  742MOL0     H  144   4.953   8.749   7.959 -0.4364  2.2410 -3.3996
  742MOL0     H  145   4.877   8.593   7.978 -2.3913  1.4516  2.8444
  742MOL0     H  146   4.727   8.653   7.783  0.0921 -1.5006  2.4782
  742MOL0     H  147   4.895   8.628   7.736 -2.2222 -1.9651 -0.3407
  742MOL0     H  148   4.935   8.869   7.754 -0.7664  1.5001  2.2786
  742MOL0     H  149   4.838   8.810   7.618 -0.9271 -1.2934  0.8191
  742MOL0     H  150   4.258   8.641   8.331  0.7861  0.0973 -0.2726
  742MOL0     H  151   4.112   8.680   8.518 -1.2154 -0.7342 -1.2422
  742MOL0     H  152   3.774   8.644   8.674  0.7746 -0.8868 -0.1717
  742MOL0     H  153   3.569   8.714   8.766  0.5889 -0.0184  1.4025
  742MOL0     H  154   3.118   7.840   8.178 -0.1236 -0.8842  0.5129
  742MOL0     H  155   3.278   7.902   8.020  0.9186  0.3338  1.0233
  742MOL0     H  156   3.608   8.308   7.990  0.0967  2.6733 -1.2686
  742MOL0     H  157   3.796   8.406   7.886  1.2452 -0.2126  0.8833
  742MOL0     H  158   4.035   8.375   7.864  0.0687 -0.4276 -0.4057
  742MOL0     H  159   3.952   8.496   7.762 -3.0207 -1.6740  3.3363
  742MOL0     H  160   4.123   8.425   7.581 -0.9848  2.5837 -0.5552
  742MOL0     H  161   4.231   8.371   7.709  0.4296  0.2986  0.0419
  742MOL0     H  162   4.102   8.647   7.719  0.0285  0.4048  0.4032
  742MOL0     H  163   4.254   8.613   7.625  2.6825 -2.2222  1.6726
  742MOL0     H  164   4.228   8.524   7.916 -0.9013  0.0263 -0.4790
  742MOL0     H  165   4.367   8.522   7.804  2.3278  1.7990  1.5218
  742MOL0     H  166   4.345   8.935   7.928 -0.7093 -0.1978  1.5408
  742MOL0     H  167   3.877   8.057   7.660 -0.2991 -1.6237 -0.3522
  742MOL0     H  168   3.698   7.885   7.640 -0.9080 -0.8506 -0.7687
  742MOL0     H  169   3.736   7.832   7.811 -0.2958  2.8430  4.0363
  742MOL0     H  170   3.573   7.876   7.754  0.6493 -0.3973 -0.8345
  743MOL0     O  171   9.527   5.619   3.668 -0.2120 -0.4221  0.3945
  743MOL0     C  172   9.558   5.610   3.787 -0.7438 -0.6988  0.3447
  743MOL0     O  173   9.661   5.678   3.852 -0.8335 -0.0806  0.3610
  743MOL0     C  174   9.751   5.761   3.794 -0.1830 -0.0679  0.3861
  743MOL0     C  175   9.796   5.744   3.662 -1.2648  0.4212  0.1633
  743MOL0     C  176   9.894   5.829   3.594 -0.3312 -0.1605 -1.1429
  743MOL0     C  177   9.952   5.931   3.680 -0.0815 -0.3882  0.4822
  743MOL0     O  178  10.037   6.023   3.629  0.3060  0.1541 -0.1636
  743MOL0     C  179  10.088   6.133   3.709 -0.3253  0.1507  1.2051
  743MOL0     C  180  10.197   6.188   3.618 -0.7491 -0.1833  0.2863
  743MOL0     C  181  10.216   6.343   3.640  0.4065  0.0213 -0.6430
  743MOL0     C  182  10.337   6.404   3.562  0.5982  0.7323  0.6165
  743MOL0     C  183  10.328   6.562   3.561 -0.0457 -0.0156 -0.4666
  743MOL0     C  184  10.440   6.645   3.507 -0.1145  0.1798  0.5470
  743MOL0     C  185  10.430   6.654   3.357 -0.3820  0.3995  0.5887
  743MOL0     C  186  10.538   6.743   3.282  0.0652  0.3726  0.9714
  743MOL0     N  187  10.678   6.701   3.301  0.0731  0.2255 -0.5147
  743MOL0     C  188  10.782   6.751   3.230 -0.2643 -0.2054 -0.1746
  743MOL0     C  189  10.894   6.688   3.263  0.1439 -0.7113 -0.7964
  743MOL0     C  190  11.036   6.701   3.217 -0.3099 -0.0923  0.3080
  743MOL0     C  191  11.097   6.843   3.204  0.0656  0.5911  1.2868
  743MOL0     C  192  11.117   6.923   3.330  0.1870 -0.1247 -0.0223
  743MOL0     C  193  10.980   6.964   3.390 -0.5824  0.3505 -0.5741
  743MOL0     O  194  10.887   7.040   3.303 -0.6622  0.3719  0.3814
  743MOL0     C  195  10.753   7.043   3.342  0.0028  0.8228 -0.4432
  743MOL0     C  196  10.653   7.076   3.247  0.5692  0.3596  0.7428
  743MOL0     C  197  10.523   7.103   3.279 -0.5377  0.4262 -0.3369
  743MOL0     C  198  10.489   7.091   3.419  1.2878 -0.2471  0.2117
  743MOL0     C  199  10.350   7.101   3.459 -1.3907 -0.4189  0.6191
  743MOL0     O  200  10.261   7.125   3.363  0.3618 -0.0457  0.4456
  743MOL0     C  201  10.128   7.088   3.373  0.7026  0.8912  1.0190
  743MOL0     C  202  10.040   7.192   3.347 -0.6582  0.6511 -0.0130
  743MOL0     C  203   9.908   7.165   3.369 -0.1106  0.3451 -0.2237
  743MOL0     C  204   9.857   7.045   3.410  0.0100 -0.4023  0.1477
  743MOL0     O  205   9.720   7.047   3.451 -0.1789  0.0822 -0.1218
  743MOL0     C  206   9.657   6.920   3.416 -0.1157 -0.2279 -0.3726
  743MOL0     C  207   9.512   6.917   3.424  0.3270 -0.3591 -0.8055
  743MOL0     C  208   9.460   6.954   3.572 -0.3489  0.3996 -0.3529
  743MOL0     C  209   9.489   6.847   3.679  0.1582  0.0779 -0.7704
  743MOL0     C  210   9.411   6.711   3.672  0.3323 -0.2740  0.5628
  743MOL0     C  211   9.496   6.588   3.634  0.0237 -0.5070  0.0638
  743MOL0     C  212   9.573   6.515   3.738  0.6357 -0.8081 -0.9525
  743MOL0     C  213   9.648   6.401   3.675 -0.3630 -0.1123  0.8740
  743MOL0    Cl  214   9.752   6.325   3.802  0.2203 -0.3337 -0.1152
  743MOL0     C  215   9.941   6.925   3.403  0.7767  0.7828 -0.1806
  743MOL0     C  216  10.083   6.947   3.397  0.0338  0.2546  0.1540
  743MOL0     O  217  10.329   7.065   3.581 -0.7005 -0.5586  0.3067
  743MOL0     C  218  10.589   7.061   3.516  0.5858  0.0246 -1.0721
  743MOL0     C  219  10.718   7.035   3.476 -1.0237 -0.2566  0.1441
  743MOL0     N  220  10.859   6.603   3.369 -0.0946 -0.5638 -0.2639
  743MOL0     N  221  10.728   6.597   3.379  0.0676  0.0290  0.4273
  743MOL0     C  222   9.897   5.956   3.810 -0.3760 -0.3735 -0.3297
  743MOL0     C  223   9.804   5.868   3.862  0.5950 -0.0952  0.1714
  743MOL0     C  224   9.489   5.501   3.862  0.5815  0.4636  0.4870
  743MOL0     C  225   9.523   5.369   3.835 -0.0102  0.3097 -0.5975
  743MOL0     C  226   9.458   5.280   3.914 -0.4671  0.0620  0.5111
  743MOL0     C  227   9.370   5.311   4.015  0.2309  0.3930  1.0680
  743MOL0     O  228   9.305   5.216   4.075  0.4069 -0.0259 -0.4721
  743MOL0     C  229   9.362   5.113   4.154  0.2098  0.1407  0.7276
  743MOL0     C  230   9.265   5.084   4.262 -0.0850  0.9471  0.5022
  743MOL0     C  231   9.252   5.191   4.368  0.3668 -0.0240 -0.6172
  743MOL0     C  232   9.161   5.143   4.478  0.1497 -0.3896 -0.2210
  743MOL0     C  233   9.229   5.051   4.571  0.2948 -0.4414 -0.3563
  743MOL0     C  234   9.292   4.988   4.656  0.3828  0.5212  0.4323
  743MOL0     C  235   9.338   5.441   4.029  0.0018 -0.3311  0.0683
  743MOL0     C  236   9.395   5.541   3.960  0.4072  0.1664  0.3938
  743MOL0     C  237   9.355   5.679   3.986  0.4694 -0.4858  0.0978
  743MOL0     H  238   9.775   5.670   3.585  2.5229  0.1381 -0.8202
  743MOL0     H  239   9.926   5.804   3.493  2.7204 -0.7349 -0.1143
  743MOL0     H  240  10.004   6.200   3.728 -2.4207 -3.1234  5.4219
  743MOL0     H  241  10.126   6.085   3.800 -2.9409 -1.3793  1.5885
  743MOL0     H  242  10.166   6.184   3.512  1.6695 -1.9670 -0.4352
  743MOL0     H  243  10.288   6.134   3.644 -0.7409  1.6132  4.7172
  743MOL0     H  244  10.237   6.353   3.747 -2.6990 -2.5728  0.3514
  743MOL0     H  245  10.130   6.406   3.618  1.0631  0.5781 -1.7215
  743MOL0     H  246  10.419   6.361   3.620 -0.6491 -0.2677  1.7063
  743MOL0     H  247  10.334   6.365   3.460 -1.2136  2.4045 -0.0268
  743MOL0     H  248  10.232   6.585   3.515 -0.2444  1.4577  0.6308
  743MOL0     H  249  10.322   6.579   3.669 -1.8298  0.7146 -0.6595
  743MOL0     H  250  10.426   6.748   3.541  4.8831  1.4533 -0.4997
  743MOL0     H  251  10.538   6.616   3.545  1.2768  4.6709  0.9988
  743MOL0     H  252  10.338   6.709   3.336  0.4401  1.7521  0.3988
  743MOL0     H  253  10.422   6.557   3.308  1.0864  0.4200  0.2611
  743MOL0     H  254  10.499   6.746   3.180 -0.0850 -1.3714  0.9412
  743MOL0     H  255  10.529   6.843   3.324  0.7303  0.3912  1.0870
  743MOL0     H  256  10.773   6.822   3.148 -2.7506  0.5988  0.6914
  743MOL0     H  257  11.102   6.645   3.284  2.4966  1.3644 -1.0361
  743MOL0     H  258  11.040   6.648   3.122 -2.1129 -0.9566  0.6748
  743MOL0     H  259  11.196   6.826   3.162 -0.8613 -1.1399 -0.3709
  743MOL0     H  260  11.030   6.892   3.132 -2.0623 -3.1906  0.3919
  743MOL0     H  261  11.177   7.012   3.307 -0.8632  1.8466  3.9681
  743MOL0     H  262  11.156   6.857   3.407  0.2031  1.1819  1.1382
  743MOL0     H  263  11.006   7.012   3.484 -0.9741  0.2401 -0.4054
  743MOL0     H  264  10.934   6.868   3.418  1.7526 -1.8905 -3.6198
  743MOL0     H  265  10.683   7.081   3.143  0.2431 -0.2863  0.6078
  743MOL0     H  266  10.448   7.100   3.201 -0.4563 -2.6010 -0.4001
  743MOL0     H  267  10.080   7.290   3.324 -0.1858 -0.3375 -4.1599
  743MOL0     H  268   9.844   7.249   3.344  1.8884  0.7733 -4.8841
  743MOL0     H  269   9.685   6.896   3.314  4.0627 -1.1153  0.7960
  743MOL0     H  270   9.696   6.829   3.463  0.5316  1.4491  2.6613
  743MOL0     H  271   9.483   6.997   3.355  1.9696  1.3329  0.3855
  743MOL0     H  272   9.483   6.814   3.398  0.0125  0.2804 -3.2377
  743MOL0     H  273   9.517   7.043   3.603  0.3628  0.1422 -0.9076
  743MOL0     H  274   9.352   6.971   3.573 -0.8359 -2.3022 -0.3553
  743MOL0     H  275   9.468   6.883   3.780 -1.4599  1.0258 -1.3973
  743MOL0     H  276   9.594   6.823   3.696 -0.2443 -0.8399  0.6849
  743MOL0     H  277   9.341   6.743   3.595 -2.6160  1.1051  3.5945
  743MOL0     H  278   9.343   6.690   3.754 -0.2918 -4.6754 -0.8565
  743MOL0     H  279   9.427   6.508   3.604  1.0554 -1.0037 -1.0724
  743MOL0     H  280   9.561   6.611   3.549  0.3478  0.3960  0.5429
  743MOL0     H  281   9.509   6.472   3.816  1.2763  2.9682  1.9171
  743MOL0     H  282   9.645   6.577   3.792 -2.0988  2.9094 -1.2361
  743MOL0     H  283   9.569   6.334   3.640 -0.0996 -0.4409  0.9023
  743MOL0     H  284   9.715   6.432   3.594  0.4044 -0.3310  1.4153
  743MOL0     H  285   9.895   6.827   3.412  1.4009  0.6654  2.7797
  743MOL0     H  286  10.158   6.871   3.414 -0.4657 -0.2228  0.2344
  743MOL0     H  287  10.571   7.061   3.623 -1.3447 -3.2437 -1.2553
  743MOL0     H  288  10.791   7.024   3.556  1.5784  2.9118 -1.5472
  743MOL0     H  289   9.926   6.032   3.881 -1.7927 -2.3002  2.5023
  743MOL0     H  290   9.768   5.882   3.963 -6.2069 -3.9670 -1.1007
  743MOL0     H  291   9.606   5.332   3.775 -0.7050 -1.6716 -0.4095
  743MOL0     H  292   9.453   5.176   3.881 -2.5214  0.3366 -0.1990
  743MOL0     H  293   9.459   5.145   4.194  0.4190  0.5782 -0.1086
  743MOL0     H  294   9.369   5.024   4.092 -1.3847  1.4891 -1.5269
  743MOL0     H  295   9.305   4.995   4.313  0.5545  0.6969 -0.4233
  743MOL0     H  296   9.165   5.060   4.225  0.6828  1.4188 -2.0795
  743MOL0     H  297   9.215   5.283   4.323  1.6774  0.9242  0.1667
  743MOL0     H  298   9.354   5.206   4.404  0.8097 -0.0006 -1.8285
  743MOL0     H  299   9.126   5.223   4.544 -1.0557 -0.1714 -1.0884
  743MOL0     H  300   9.067   5.102   4.440 -1.1149  3.4642 -1.6807
  743MOL0     H  301   9.355   4.946   4.732 -0.9174  1.7526  2.2761
  743MOL0     H  302   9.265   5.458   4.108  0.5402 -0.2888  0.5694
  743MOL0     H  303   9.437   5.744   4.017 -0.6215  0.2701  1.5202
  743MOL0     H  304   9.318   5.720   3.892  0.9345  0.8595  0.4760
  743MOL0     H  305   9.288   5.682   4.073 -0.1946 -0.6318 -0.3988
  744MOL0     O  306   1.880   0.165   8.286 -0.0101  0.0649 -0.2894
  744MOL0     C  307   1.845   0.053   8.240 -0.0196 -0.4901 -0.0272
  744MOL0     O  308   1.737  -0.023   8.287 -0.1520 -0.3209  0.0697
  744MOL0     C  309   1.658   0.037   8.378  0.2659  0.4097 -0.4571
  744MOL0     C  310   1.632  -0.047   8.494 -1.0730 -0.7915  0.0426
  744MOL0     C  311   1.546  -0.009   8.597 -0.1052 -0.0269  0.0944
  744MOL0     C  312   1.469   0.108   8.569  1.0394 -0.6235 -1.7333
  744MOL0     O  313   1.374   0.154   8.659  0.1781  1.0129  0.6616
  744MOL0     C  314   1.372   0.088   8.793 -0.2818 -0.3379  0.0517
  744MOL0     C  315   1.494   0.117   8.881 -0.3142 -0.0570 -0.3883
  744MOL0     C  316   1.467   0.041   9.014 -0.4770 -0.6887 -0.5945
  744MOL0     C  317   1.593  -0.034   9.055  0.8131  0.1307  0.5593
  744MOL0     C  318   1.594  -0.115   9.192 -0.3318 -0.1579  0.3502
  744MOL0     C  319   1.599  -0.012   9.300 -0.4274  0.2267  0.9048
  744MOL0     C  320   1.590  -0.091   9.435 -0.3663  0.3445  0.2180
  744MOL0     C  321   1.567   0.011   9.545 -0.5612  0.1492 -0.2733
  744MOL0     N  322   1.563  -0.063   9.674 -0.0174 -0.0433 -0.8316
  744MOL0     C  323   1.446  -0.084   9.748  0.0033 -0.5538  0.7368
  744MOL0     C  324   1.488  -0.137   9.861  1.3413 -0.4383 -1.1046
  744MOL0     C  325   1.395  -0.167   9.982 -0.4658  0.2556  0.0614
  744MOL0     C  326   1.302  -0.286   9.966 -0.8119  0.1239 -0.0721
  744MOL0     C  327   1.382  -0.413   9.927 -0.4686 -0.0078  0.2178
  744MOL0     C  328   1.281  -0.508   9.858  0.2562 -0.3681  0.4202
  744MOL0     O  329   1.336  -0.629   9.813 -0.2965 -0.9704 -0.2832
  744MOL0     C  330   1.270  -0.716   9.731  1.1650  0.0646  0.0272
  744MOL0     C  331   1.336  -0.827   9.680 -0.5190 -0.7638  0.9443
  744MOL0     C  332   1.282  -0.932   9.601 -0.7739 -0.3799  0.1241
  744MOL0     C  333   1.146  -0.932   9.581 -0.7378  0.1277  0.2460
  744MOL0     C  334   1.073  -1.028   9.489 -0.3066 -0.8380 -0.5907
  744MOL0     O  335   0.941  -1.005   9.467  0.3393  0.5890 -0.0284
  744MOL0     C  336   0.880  -1.087   9.381  0.5973 -0.6489 -0.7915
  744MOL0     C  337   0.808  -1.024   9.268  0.1807  0.1359  0.2034
  744MOL0     C  338   0.730  -1.106   9.175 -0.2041 -0.0061 -0.3495
  744MOL0     C  339   0.712  -1.245   9.198 -0.8821 -0.2388 -0.1429
  744MOL0     O  340   0.644  -1.313   9.101 -0.3369 -0.1260  0.2969
  744MOL0     C  341   0.569  -1.424   9.138  0.7151  1.1726 -0.1204
  744MOL0     C  342   0.456  -1.451   9.028  0.4040  1.4881 -0.3654
  744MOL0     C  343   0.351  -1.344   9.022 -0.1404 -1.0077  0.2231
  744MOL0     C  344   0.251  -1.370   8.913 -0.1626 -0.4493  0.9412
  744MOL0     C  345   0.121  -1.294   8.927  0.0543  0.1850 -0.3222
  744MOL0     C  346   0.033  -1.315   8.801 -0.3717  0.0547  0.3473
  744MOL0     C  347  -0.110  -1.275   8.812  0.9088 -0.8931 -0.1380
  744MOL0     C  348  -0.131  -1.125   8.827  0.7921  0.8642 -0.2265
  744MOL0    Cl  349  -0.308  -1.117   8.838  0.2637 -0.3137  0.0078
  744MOL0     C  350   0.760  -1.299   9.314 -0.9545 -0.6524  0.0719
  744MOL0     C  351   0.849  -1.221   9.404  0.6576  0.6432  0.1042
  744MOL0     O  352   1.143  -1.106   9.433  1.0385  0.1935  0.0830
  744MOL0     C  353   1.066  -0.828   9.641 -0.8845  0.4019 -0.1177
  744MOL0     C  354   1.128  -0.716   9.708 -0.4567 -0.8833 -1.2653
  744MOL0     N  355   1.626  -0.143   9.860 -0.3684 -0.4232  0.0063
  744MOL0     N  356   1.673  -0.088   9.752 -0.2143 -0.0304 -0.2733
  744MOL0     C  357   1.485   0.190   8.460  0.2028 -0.7929  0.2518
  744MOL0     C  358   1.586   0.155   8.362 -0.1136 -0.2015 -1.2439
  744MOL0     C  359   1.923   0.004   8.132 -0.3040  0.0764  0.6841
  744MOL0     C  360   1.951  -0.138   8.126  0.7189 -0.0389 -0.3112
  744MOL0     C  361   2.030  -0.189   8.021 -0.0587  0.3954 -0.8714
  744MOL0     C  362   2.080  -0.105   7.926 -0.0049  0.4802  0.6107
  744MOL0     O  363   2.122  -0.175   7.809  0.3513 -1.0846 -0.2063
  744MOL0     C  364   2.002  -0.195   7.722 -1.0931 -0.7281  0.3306
  744MOL0     C  365   2.059  -0.251   7.596  0.8822 -0.8817  0.2914
  744MOL0     C  366   1.944  -0.302   7.507  0.0885  0.3393  0.0452
  744MOL0     C  367   1.983  -0.321   7.357  0.1083 -0.5640 -0.4106
  744MOL0     C  368   2.063  -0.449   7.344  0.1646  1.0157  0.2199
  744MOL0     C  369   2.118  -0.551   7.308 -0.3018 -0.4477 -0.2320
  744MOL0     C  370   2.075   0.031   7.933 -0.1816 -0.0649  0.7290
  744MOL0     C  371   1.986   0.088   8.029  0.6423  0.2943 -0.7560
  744MOL0     C  372   1.969   0.237   8.021  0.8985 -1.1421  0.4558
  744MOL0     H  373   1.683  -0.143   8.497 -0.7767 -0.6656 -0.7378
  744MOL0     H  374   1.534  -0.079   8.679  4.7445 -1.7442 -0.3277
  744MOL0     H  375   1.285   0.138   8.836 -0.4993 -0.7561  0.1051
  744MOL0     H  376   1.350  -0.018   8.805 -1.9867 -0.0693 -0.4085
  744MOL0     H  377   1.502   0.222   8.912 -3.9649 -0.4643  2.6749
  744MOL0     H  378   1.586   0.086   8.830  1.0264 -1.2902  2.5160
  744MOL0     H  379   1.375  -0.016   9.003 -2.3156  2.1081 -0.7704
  744MOL0     H  380   1.454   0.120   9.089 -2.4389 -2.2537  0.8220
  744MOL0     H  381   1.596  -0.113   8.980 -1.7748 -3.1741  3.5777
  744MOL0     H  382   1.677   0.034   9.043  0.1852  1.3005  2.3562
  744MOL0     H  383   1.506  -0.178   9.201  1.2666 -2.4149  0.9989
  744MOL0     H  384   1.680  -0.180   9.208  1.9995  3.0205  1.6860
  744MOL0     H  385   1.692   0.044   9.287  0.6444 -1.6605  0.0385
  744MOL0     H  386   1.530   0.072   9.302  1.1335  1.5506  3.2852
  744MOL0     H  387   1.683  -0.146   9.451 -1.1963 -1.1550  0.0391
  744MOL0     H  388   1.513  -0.169   9.432 -0.4926  0.3535  2.1598
  744MOL0     H  389   1.651   0.081   9.545  0.6182 -1.1684  1.6227
  744MOL0     H  390   1.474   0.067   9.531  0.4411  1.8184 -0.5394
  744MOL0     H  391   1.345  -0.055   9.721 -0.5465 -2.1203  0.9710
  744MOL0     H  392   1.455  -0.196  10.069 -2.9209  1.6433  2.3647
  744MOL0     H  393   1.335  -0.081  10.014 -2.6754 -1.2465  0.1827
  744MOL0     H  394   1.259  -0.292  10.066  0.3854 -1.5091  0.3892
  744MOL0     H  395   1.231  -0.259   9.888  0.1037 -0.6283 -1.1973
  744MOL0     H  396   1.417  -0.459  10.019  0.6442 -1.2521 -0.7878
  744MOL0     H  397   1.464  -0.390   9.858 -0.6613 -1.8588 -0.6999
  744MOL0     H  398   1.239  -0.446   9.778 -1.3321 -2.0001 -0.0702
  744MOL0     H  399   1.209  -0.513   9.940  0.7780  2.2218  1.1281
  744MOL0     H  400   1.443  -0.825   9.699 -0.9029 -0.2414  3.5122
  744MOL0     H  401   1.339  -1.001   9.539 -2.0488 -1.0885 -0.3101
  744MOL0     H  402   0.819  -0.917   9.260 -1.1187  0.3182  0.7314
  744MOL0     H  403   0.681  -1.063   9.088 -1.6717  1.0100  0.9324
  744MOL0     H  404   0.632  -1.514   9.134 -0.9776 -0.0648 -0.2961
  744MOL0     H  405   0.520  -1.415   9.235  0.6239  0.8231 -0.1314
  744MOL0     H  406   0.495  -1.458   8.926  2.0369  2.6759  0.1254
  744MOL0     H  407   0.416  -1.548   9.056  1.2829  0.1456 -3.3413
  744MOL0     H  408   0.308  -1.331   9.121 -0.7308  1.0317 -0.2596
  744MOL0     H  409   0.396  -1.249   8.993  0.8921 -0.7986  2.3000
  744MOL0     H  410   0.235  -1.478   8.905  2.7640 -0.8879 -0.2719
  744MOL0     H  411   0.298  -1.347   8.817 -1.9709 -0.6721 -0.0473
  744MOL0     H  412   0.157  -1.191   8.934  1.0262 -0.2606  3.2549
  744MOL0     H  413   0.063  -1.310   9.019 -0.8276  0.6010 -0.7928
  744MOL0     H  414   0.063  -1.257   8.713 -1.7084 -1.4349 -1.1576
  744MOL0     H  415   0.033  -1.421   8.774 -1.6916  0.1097  0.0547
  744MOL0     H  416  -0.156  -1.325   8.898  0.6299  1.2485  1.0140
  744MOL0     H  417  -0.146  -1.305   8.713 -1.9114 -0.1027  0.5651
  744MOL0     H  418  -0.081  -1.091   8.918 -0.6329 -0.8813  1.3058
  744MOL0     H  419  -0.110  -1.070   8.735 -1.0248  1.3191 -0.4115
  744MOL0     H  420   0.744  -1.405   9.329 -2.4218 -0.7240 -1.6224
  744MOL0     H  421   0.902  -1.270   9.485  0.1782  1.8777  1.1847
  744MOL0     H  422   0.958  -0.824   9.630 -0.8609 -0.8508 -0.9709
  744MOL0     H  423   1.061  -0.651   9.763 -0.2764 -0.6605 -1.3087
  744MOL0     H  424   1.418   0.275   8.460 -0.7391 -1.4906  1.8460
  744MOL0     H  425   1.602   0.225   8.280  1.4327  3.7282  2.0827
  744MOL0     H  426   1.924  -0.201   8.211  0.8787  0.1351 -0.1306
  744MOL0     H  427   2.052  -0.294   8.009  2.1930  0.8100 -0.9598
  744MOL0     H  428   1.942  -0.104   7.711 -1.1336 -0.8308 -0.3365
  744MOL0     H  429   1.941  -0.271   7.771  0.7184 -0.5143  3.1568
  744MOL0     H  430   2.126  -0.333   7.622  1.5926 -0.3998  0.0034
  744MOL0     H  431   2.127  -0.181   7.547  2.5024 -3.2232 -1.0084
  744MOL0     H  432   1.856  -0.237   7.509 -0.9899 -1.0718  0.8459
  744MOL0     H  433   1.911  -0.400   7.545 -1.5672  1.5544  1.9159
  744MOL0     H  434   1.893  -0.322   7.296  0.6552 -0.0662 -1.2320
  744MOL0     H  435   2.028  -0.228   7.321 -3.2313  0.6382 -1.8443
  744MOL0     H  436   2.151  -0.651   7.286  1.2564  0.6071 -3.1662
  744MOL0     H  437   2.132   0.098   7.869 -0.1740  1.6589  2.4354
  744MOL0     H  438   2.062   0.283   8.054  0.6549  1.3255 -1.9900
  744MOL0     H  439   1.935   0.266   7.921  3.0991  4.0535  0.9035
  744MOL0     H  440   1.895   0.286   8.085  1.9400  0.6956  0.3358
  745MOL0     O  441   7.272   7.908   8.450 -0.6954  1.0262  0.1259
  745MOL0     C  442   7.332   7.846   8.534 -0.1640 -0.1878 -0.5313
  745MOL0     O  443   7.471   7.863   8.560  0.3678 -0.3676  0.1505
  745MOL0     C  444   7.527   7.964   8.496 -0.1344  0.2107  0.3853
  745MOL0     C  445   7.565   7.957   8.355 -0.3864 -0.5428  0.2600
  745MOL0     C  446   7.614   8.066   8.289  0.6644 -0.2012 -0.0251
  745MOL0     C  447   7.620   8.190   8.353 -0.0613 -0.3182 -0.1062
  745MOL0     O  448   7.672   8.296   8.283  0.7653 -0.1867  0.0396
  745MOL0     C  449   7.772   8.366   8.357  0.8232 -0.2619 -1.1695
  745MOL0     C  450   7.843   8.453   8.249 -0.0425  0.6404  0.4557
  745MOL0     C  451   7.927   8.372   8.159 -0.5140  0.3346  0.4923
  745MOL0     C  452   7.999   8.466   8.061 -0.4442  0.3534  0.8101
  745MOL0     C  453   8.077   8.381   7.952  0.2780  0.3497  0.9847
  745MOL0     C  454   8.199   8.317   8.008  0.0868  0.4427  0.5347
  745MOL0     C  455   8.286   8.226   7.913 -0.2345 -0.0511  1.0798
  745MOL0     C  456   8.435   8.225   7.955 -0.3177 -0.0413 -0.3723
  745MOL0     N  457   8.501   8.101   7.904 -0.2519  0.5069  0.1366
  745MOL0     C  458   8.565   8.084   7.782 -0.2406  0.2188 -0.9845
  745MOL0     C  459   8.574   7.941   7.762 -0.4765 -0.1854 -0.4925
  745MOL0     C  460   8.615   7.858   7.644  0.5178  0.3128 -0.0626
  745MOL0     C  461   8.769   7.829   7.636  0.0892  0.0165 -0.5353
  745MOL0     C  462   8.831   7.749   7.523 -0.7771  0.9767  0.1151
  745MOL0     C  463   8.849   7.820   7.394  0.2855 -0.6798  0.0840
  745MOL0     O  464   8.721   7.838   7.316  0.1801  0.0802 -0.3409
  745MOL0     C  465   8.712   7.939   7.224 -0.7402  0.0989  0.7021
  745MOL0     C  466   8.592   7.964   7.171  0.2639 -0.7297  0.5259
  745MOL0     C  467   8.572   8.059   7.066 -1.0637 -0.3193  0.2918
  745MOL0     C  468   8.688   8.116   7.001  0.2767 -0.0763 -0.1707
  745MOL0     C  469   8.661   8.204   6.887 -0.2589 -1.0457  0.3074
  745MOL0     O  470   8.771   8.264   6.836 -0.1233  0.4799 -0.0514
  745MOL0     C  471   8.751   8.347   6.719  0.7890  0.9921 -0.2015
  745MOL0     C  472   8.726   8.293   6.591 -0.4812  0.4750 -1.0812
  745MOL0     C  473   8.697   8.367   6.480  0.4732  0.6576  1.1976
  745MOL0     C  474   8.698   8.501   6.491  0.1941  0.0455 -0.0873
  745MOL0     O  475   8.682   8.593   6.389 -0.1035  0.3334  0.3035
  745MOL0     C  476   8.582   8.566   6.289  0.2604  0.0181  0.2729
  745MOL0     C  477   8.637   8.647   6.158  0.6307 -0.5519 -0.5103
  745MOL0     C  478   8.513   8.683   6.072 -0.4901 -0.1768 -0.2252
  745MOL0     C  479   8.534   8.815   5.992 -0.3620 -0.1964 -0.5002
  745MOL0     C  480   8.404   8.838   5.916 -0.9825  0.4472 -0.1946
  745MOL0     C  481   8.428   8.963   5.832 -0.2998  0.0752 -0.5620
  745MOL0     C  482   8.309   9.019   5.755 -0.7367 -0.3581 -0.3191
  745MOL0     C  483   8.346   9.144   5.669 -0.6888  0.5901  0.3693
  745MOL0    Cl  484   8.361   9.305   5.738 -0.4464  0.0888 -0.0035
  745MOL0     C  485   8.735   8.561   6.614  0.0548  0.4044  0.3452
  745MOL0     C  486   8.756   8.485   6.730 -0.6213  0.2811  0.1987
  745MOL0     O  487   8.547   8.221   6.858 -0.5029  0.1925  0.1355
  745MOL0     C  488   8.813   8.074   7.044  0.7827  0.2661  0.0703
  745MOL0     C  489   8.825   7.990   7.155  0.6174  0.3163 -0.4295
  745MOL0     N  490   8.518   7.884   7.873 -0.0751  0.6874 -0.5506
  745MOL0     N  491   8.477   7.978   7.960  0.5022  0.2936 -1.0012
  745MOL0     C  492   7.584   8.204   8.485 -0.0686  0.5384 -0.3854
  745MOL0     C  493   7.530   8.092   8.558 -0.9147  0.4360 -0.6893
  745MOL0     C  494   7.252   7.757   8.622  1.2514 -0.2707  0.8272
  745MOL0     C  495   7.276   7.764   8.762  0.5807 -0.0494  0.8774
  745MOL0     C  496   7.206   7.700   8.851 -0.1557  0.8246 -0.2582
  745MOL0     C  497   7.097   7.624   8.805  0.7233 -0.0206  0.2810
  745MOL0     O  498   7.009   7.555   8.883 -0.2425  0.7702 -0.0340
  745MOL0     C  499   7.027   7.556   9.025 -0.2074 -0.2955  0.1502
  745MOL0     C  500   6.909   7.485   9.091  0.0878  0.0501 -0.4469
  745MOL0     C  501   6.899   7.503   9.239  0.1284  0.3591 -0.3377
  745MOL0     C  502   6.747   7.520   9.279  0.7479  0.7030  0.2999
  745MOL0     C  503   6.669   7.398   9.251  0.5362  1.0816 -0.0261
  745MOL0     C  504   6.603   7.302   9.209 -0.0170 -0.0354  0.7520
  745MOL0     C  505   7.075   7.621   8.668 -0.2443  0.4825 -0.1992
  745MOL0     C  506   7.143   7.682   8.571  0.0496  1.3858 -0.5927
  745MOL0     C  507   7.106   7.670   8.423  0.6082  0.0133  0.4042
  745MOL0     H  508   7.546   7.865   8.301 -0.4712 -1.0758  1.1730
  745MOL0     H  509   7.649   8.068   8.186 -1.8417 -0.2871 -0.9587
  745MOL0     H  510   7.717   8.428   8.428 -1.9549 -0.2412 -3.1368
  745MOL0     H  511   7.849   8.316   8.417 -0.1528  1.4245  1.6637
  745MOL0     H  512   7.903   8.535   8.288  1.4349  0.5876 -1.5541
  745MOL0     H  513   7.767   8.500   8.185  0.3310  1.7200  0.7856
  745MOL0     H  514   7.866   8.305   8.098 -1.3293  1.8778 -0.4468
  745MOL0     H  515   7.999   8.315   8.219  0.4511  1.0991  0.0721
  745MOL0     H  516   7.929   8.523   7.999  1.2188  0.3220 -1.2005
  745MOL0     H  517   8.066   8.534   8.114 -0.1041 -1.4968  2.8900
  745MOL0     H  518   8.005   8.306   7.919 -0.6861  0.9870  1.5698
  745MOL0     H  519   8.104   8.438   7.862  4.0877 -2.1839  0.3038
  745MOL0     H  520   8.260   8.402   8.037 -2.2265  2.0411  1.0477
  745MOL0     H  521   8.175   8.261   8.099 -0.4933 -1.1613 -0.5729
  745MOL0     H  522   8.291   8.265   7.811  3.5547  0.5865  1.3755
  745MOL0     H  523   8.240   8.127   7.903 -1.3805  0.7054 -2.5795
  745MOL0     H  524   8.482   8.316   7.918  0.2709 -0.5883 -0.9985
  745MOL0     H  525   8.436   8.218   8.065  3.6973  0.5648 -0.2213
  745MOL0     H  526   8.595   8.165   7.717 -3.5314  0.4046 -2.4254
  745MOL0     H  527   8.562   7.762   7.637  0.5234  0.1928  1.2537
  745MOL0     H  528   8.592   7.903   7.547  1.9234 -1.8773 -1.5000
  745MOL0     H  529   8.823   7.924   7.632 -0.1118  0.1997  0.8061
  745MOL0     H  530   8.791   7.789   7.735  0.6607  2.4590  0.3971
  745MOL0     H  531   8.778   7.654   7.515 -1.5519  1.3792  0.3294
  745MOL0     H  532   8.932   7.720   7.553 -0.6903  0.8994 -0.2427
  745MOL0     H  533   8.934   7.772   7.344 -1.8774 -1.1385 -3.4435
  745MOL0     H  534   8.884   7.921   7.419 -1.7524 -0.4667  2.5999
  745MOL0     H  535   8.502   7.922   7.215 -0.4341 -0.0872 -0.2572
  745MOL0     H  536   8.469   8.086   7.044 -0.3052  2.2685 -0.4343
  745MOL0     H  537   8.708   8.186   6.586 -0.0803  0.1598  2.2262
  745MOL0     H  538   8.658   8.314   6.393  2.0702  1.3963 -0.0062
  745MOL0     H  539   8.586   8.462   6.255 -0.8820 -0.4777  1.5654
  745MOL0     H  540   8.478   8.593   6.312  0.1589  0.4555 -0.6407
  745MOL0     H  541   8.682   8.744   6.181 -0.6445  0.0679 -0.5599
  745MOL0     H  542   8.701   8.580   6.100 -0.1739 -1.3576 -0.4866
  745MOL0     H  543   8.482   8.598   6.009 -1.6582  0.4026 -0.4721
  745MOL0     H  544   8.427   8.700   6.138 -0.4969 -1.5179  0.1418
  745MOL0     H  545   8.617   8.809   5.921  0.7783  2.6122  0.4485
  745MOL0     H  546   8.559   8.905   6.050  2.0513 -0.1171 -1.5599
  745MOL0     H  547   8.323   8.851   5.988  1.2339  3.4793  2.0063
  745MOL0     H  548   8.391   8.749   5.854  1.9145  1.3766 -2.3525
  745MOL0     H  549   8.469   9.032   5.905 -2.0405 -0.6542  1.2132
  745MOL0     H  550   8.501   8.925   5.760 -1.3643  0.1686 -1.7461
  745MOL0     H  551   8.245   9.049   5.838  0.1958  0.1274  0.2445
  745MOL0     H  552   8.252   8.950   5.693 -0.3457  0.2324 -1.3564
  745MOL0     H  553   8.440   9.124   5.617 -1.8902 -0.0189 -1.6724
  745MOL0     H  554   8.281   9.147   5.581  1.6518 -0.6027 -1.5468
  745MOL0     H  555   8.728   8.669   6.618 -1.8563  0.6763 -4.2756
  745MOL0     H  556   8.765   8.529   6.829 -4.3115  4.4368 -0.9783
  745MOL0     H  557   8.902   8.106   6.992  1.9911 -1.8337  0.7310
  745MOL0     H  558   8.927   7.965   7.186 -0.6804 -1.5531  2.8702
  745MOL0     H  559   7.602   8.300   8.533 -0.5471 -0.8568  2.8625
  745MOL0     H  560   7.504   8.102   8.663  1.1017  1.6393 -0.2366
  745MOL0     H  561   7.346   7.841   8.794  2.1022 -1.1125  0.2140
  745MOL0     H  562   7.210   7.719   8.958 -0.6122  2.5639 -0.5191
  745MOL0     H  563   7.016   7.663   9.048  3.5179  0.8937 -2.5731
  745MOL0     H  564   7.124   7.518   9.057  0.7386  0.8039 -1.2437
  745MOL0     H  565   6.924   7.377   9.078 -1.5265 -0.3815  1.0005
  745MOL0     H  566   6.816   7.514   9.041 -0.7807 -1.0886  0.4764
  745MOL0     H  567   6.960   7.581   9.286 -2.1621  2.1654 -0.1630
  745MOL0     H  568   6.933   7.412   9.289 -3.4752 -0.3535  1.1475
  745MOL0     H  569   6.737   7.559   9.381 -1.4367  0.4040  0.2319
  745MOL0     H  570   6.707   7.598   9.215  1.0187  0.8698  0.3327
  745MOL0     H  571   6.544   7.220   9.172 -2.9259  2.6057 -0.9440
  745MOL0     H  572   6.981   7.568   8.655 -2.5174  3.3411  2.9416
  745MOL0     H  573   7.077   7.568   8.397  1.9470 -0.0436 -0.9754
  745MOL0     H  574   7.020   7.734   8.403  0.0683 -0.5342  0.9509
  745MOL0     H  575   7.182   7.691   8.346 -0.4258 -1.5839 -1.1233
  746MOL0     O  576   5.684  10.430   2.169  0.5323 -0.2985 -0.0053
  746MOL0     C  577   5.795  10.454   2.123  0.5946  0.0630  0.9053
  746MOL0     O  578   5.828  10.550   2.025 -0.0643 -0.1302  0.0424
  746MOL0     C  579   5.731  10.597   1.943 -0.9996 -0.5471 -0.2832
  746MOL0     C  580   5.623  10.519   1.886  0.3204 -0.2221 -0.3736
  746MOL0     C  581   5.528  10.587   1.802 -0.0626 -0.2780 -0.0706
  746MOL0     C  582   5.529  10.724   1.780  0.0239  0.5454  0.6177
  746MOL0     O  583   5.437  10.794   1.700 -0.7338 -0.4836 -0.1171
  746MOL0     C  584   5.348  10.720   1.609 -0.7006  0.1295  0.0601
  746MOL0     C  585   5.243  10.800   1.532  0.3408 -0.5588 -0.4531
  746MOL0     C  586   5.164  10.896   1.632  0.0204 -0.4609  0.1569
  746MOL0     C  587   5.024  10.924   1.598  0.1096  0.1507  0.1366
  746MOL0     C  588   5.024  10.998   1.467  0.3189  0.5627  0.4467
  746MOL0     C  589   4.879  11.004   1.413  1.0989  0.0056  0.0498
  746MOL0     C  590   4.868  11.064   1.275  0.6468  0.6815  0.0678
  746MOL0     C  591   4.719  11.031   1.239 -0.5793 -0.6125 -0.5262
  746MOL0     N  592   4.689  11.106   1.114  0.2185 -0.4843 -0.7636
  746MOL0     C  593   4.644  11.236   1.122 -1.3834 -0.8710  0.8822
  746MOL0     C  594   4.603  11.264   0.978 -0.0389  1.7752 -0.9455
  746MOL0     C  595   4.546  11.388   0.921 -0.4556  0.3640  0.2991
  746MOL0     C  596   4.398  11.411   0.934  0.7578  0.5843 -0.2366
  746MOL0     C  597   4.350  11.551   0.882 -0.2221  0.9668 -0.1659
  746MOL0     C  598   4.196  11.572   0.883  0.2367 -0.3448  0.3188
  746MOL0     O  599   4.118  11.515   0.994 -0.2247 -0.3062 -0.0135
  746MOL0     C  600   4.099  11.584   1.112  0.0513  0.6295 -0.2543
  746MOL0     C  601   4.080  11.730   1.106 -1.2634  1.2543 -0.4749
  746MOL0     C  602   4.042  11.800   1.226  0.3325 -0.1549  0.3423
  746MOL0     C  603   4.034  11.724   1.352  0.1209 -0.4620 -0.9432
  746MOL0     C  604   3.986  11.796   1.469  0.6211 -0.3547 -0.4556
  746MOL0     O  605   3.922  11.918   1.458  0.6996 -0.4208  0.2610
  746MOL0     C  606   3.872  11.976   1.568  0.3661  0.0521 -0.4694
  746MOL0     C  607   3.946  12.005   1.683  0.3925 -0.6628 -0.6492
  746MOL0     C  608   3.875  12.054   1.799 -0.5045 -0.0010  1.0077
  746MOL0     C  609   3.736  12.060   1.795  0.9035 -0.7787 -0.0396
  746MOL0     O  610   3.660  12.104   1.905 -0.5258 -0.7539 -0.2096
  746MOL0     C  611   3.722  12.185   2.010 -0.2897  0.3053  0.4564
  746MOL0     C  612   3.776  12.103   2.137  0.0972  0.3915 -0.4433
  746MOL0     C  613   3.654  12.049   2.212  0.1817 -0.1609  0.2622
  746MOL0     C  614   3.680  11.960   2.340  0.4528 -0.7689  0.2713
  746MOL0     C  615   3.562  11.873   2.386 -0.6024 -0.3349 -0.4206
  746MOL0     C  616   3.427  11.948   2.376 -0.5656  0.2335 -0.1600
  746MOL0     C  617   3.309  11.880   2.425  0.1343 -0.8509  0.2365
  746MOL0     C  618   3.182  11.967   2.390  0.1429  0.0491  0.8842
  746MOL0    Cl  619   3.037  11.866   2.396  0.0435 -0.2564  0.3051
  746MOL0     C  620   3.666  12.033   1.674 -0.4102  0.6721  0.9670
  746MOL0     C  621   3.734  11.990   1.564  0.8066 -0.8562 -0.0533
  746MOL0     O  622   4.006  11.747   1.576 -0.4490  0.5087 -0.1059
  746MOL0     C  623   4.080  11.597   1.358  0.4128  0.3827 -0.4429
  746MOL0     C  624   4.108  11.522   1.239 -0.5634  0.6001  1.5765
  746MOL0     N  625   4.633  11.149   0.912 -0.4542  0.6501  0.1637
  746MOL0     N  626   4.678  11.058   0.991  0.0681  0.2452 -1.5884
  746MOL0     C  627   5.641  10.793   1.830 -0.4961  0.8354 -0.6488
  746MOL0     C  628   5.742  10.733   1.908  0.2018  0.4053 -0.9189
  746MOL0     C  629   5.903  10.370   2.184  0.7225 -0.1612  0.5439
  746MOL0     C  630   6.004  10.312   2.095  0.4942 -0.1301  0.3745
  746MOL0     C  631   6.097  10.213   2.135  1.2805 -0.5813  0.3815
  746MOL0     C  632   6.089  10.162   2.261  0.9071  0.3609  0.1520
  746MOL0     O  633   6.168  10.057   2.293 -0.8412 -0.2539 -0.2021
  746MOL0     C  634   6.183  10.025   2.431 -0.2940  0.0466  0.8389
  746MOL0     C  635   6.299   9.922   2.452  0.3470 -0.0674  0.4689
  746MOL0     C  636   6.315   9.907   2.599 -0.4686  0.3123  0.4248
  746MOL0     C  637   6.439   9.966   2.673  0.1637 -0.0376 -0.8210
  746MOL0     C  638   6.395  10.070   2.771 -0.6975 -0.0716 -0.0323
  746MOL0     C  639   6.326  10.156   2.827 -0.6361 -0.2096  0.6877
  746MOL0     C  640   5.991  10.214   2.348  0.9405 -0.0875  0.9098
  746MOL0     C  641   5.903  10.326   2.315  0.0329 -0.0790 -0.7526
  746MOL0     C  642   5.801  10.383   2.409 -0.9269 -0.5574 -0.5834
  746MOL0     H  643   5.632  10.413   1.907  0.0375  0.1150  1.6513
  746MOL0     H  644   5.440  10.530   1.774 -2.2208  2.8593 -0.1351
  746MOL0     H  645   5.410  10.678   1.529  0.6340 -0.9105  1.5818
  746MOL0     H  646   5.299  10.648   1.675 -0.2737  0.7154  1.0280
  746MOL0     H  647   5.180  10.721   1.492 -1.6464  1.4124 -1.4552
  746MOL0     H  648   5.311  10.847   1.460  3.4585 -0.3050  2.4155
  746MOL0     H  649   5.224  10.986   1.640  0.1104 -0.5627  0.6620
  746MOL0     H  650   5.164  10.864   1.737 -0.1124 -0.5564  0.1287
  746MOL0     H  651   4.960  10.835   1.600  0.0225  0.2287  1.1551
  746MOL0     H  652   4.982  10.986   1.678 -1.2903 -3.1982  2.1928
  746MOL0     H  653   5.053  11.100   1.491 -0.6630  2.1825 -4.1404
  746MOL0     H  654   5.093  10.950   1.397  1.2115 -3.0622  3.5000
  746MOL0     H  655   4.845  10.901   1.421  4.7593 -1.3746 -0.0825
  746MOL0     H  656   4.820  11.065   1.481  0.8865 -1.3702  1.1254
  746MOL0     H  657   4.947  11.033   1.206  2.9339  1.0273  2.3877
  746MOL0     H  658   4.882  11.168   1.304 -1.8778  0.2312  3.5239
  746MOL0     H  659   4.697  10.925   1.219 -0.6246 -0.8234  0.5919
  746MOL0     H  660   4.650  11.045   1.323  0.5634  2.7002 -0.0390
  746MOL0     H  661   4.652  11.311   1.200  2.0407  2.1921 -2.0681
  746MOL0     H  662   4.599  11.479   0.951  0.6843  1.2206 -3.6814
  746MOL0     H  663   4.558  11.379   0.812  0.9712  2.6668  0.1949
  746MOL0     H  664   4.343  11.328   0.890  0.3088  0.0430  1.2850
  746MOL0     H  665   4.379  11.406   1.042 -0.2370  0.1646 -0.4249
  746MOL0     H  666   4.393  11.570   0.783  0.8912  4.1687  0.7834
  746MOL0     H  667   4.392  11.626   0.950  1.3016 -0.4503  0.5058
  746MOL0     H  668   4.165  11.517   0.793  0.9758  1.7084 -1.2671
  746MOL0     H  669   4.195  11.681   0.875 -0.3141  0.1265  4.6162
  746MOL0     H  670   4.106  11.786   1.017  1.8520  0.9797  0.1744
  746MOL0     H  671   4.013  11.905   1.229 -2.5444 -0.8784  2.9513
  746MOL0     H  672   4.051  11.977   1.687  0.2354 -1.3320 -1.0809
  746MOL0     H  673   3.926  12.075   1.893  0.3170 -1.0359  0.8061
  746MOL0     H  674   3.805  12.245   1.971  0.3421 -1.2435 -0.6569
  746MOL0     H  675   3.646  12.256   2.044 -1.0679 -0.7411  0.9568
  746MOL0     H  676   3.849  12.027   2.110  2.2137  1.7162  1.2050
  746MOL0     H  677   3.833  12.171   2.201 -0.5418 -0.3583  0.9668
  746MOL0     H  678   3.600  12.140   2.239  0.6217  0.4309 -0.8228
  746MOL0     H  679   3.577  12.015   2.142  0.2872  1.5873 -0.7515
  746MOL0     H  680   3.719  12.025   2.418  1.4819 -0.5845 -0.3850
  746MOL0     H  681   3.766  11.893   2.328 -0.0482 -1.2844 -0.5814
  746MOL0     H  682   3.579  11.845   2.491  0.1829  0.4798 -0.3182
  746MOL0     H  683   3.552  11.780   2.329  0.8737 -1.6983  1.3928
  746MOL0     H  684   3.425  12.036   2.440 -0.3543 -1.1122  1.7869
  746MOL0     H  685   3.404  11.967   2.271  0.3412 -1.6032 -0.7393
  746MOL0     H  686   3.316  11.865   2.533 -2.6223  0.0547  0.6351
  746MOL0     H  687   3.297  11.781   2.380 -0.8819 -1.6360  2.1191
  746MOL0     H  688   3.169  12.046   2.465 -1.3760  0.6034  0.0939
  746MOL0     H  689   3.195  12.001   2.287 -0.7672  1.1870  1.1106
  746MOL0     H  690   3.557  12.033   1.675 -0.4629  0.7313 -0.8918
  746MOL0     H  691   3.674  11.954   1.481 -3.5146 -0.6074  2.6946
  746MOL0     H  692   4.106  11.560   1.457  2.4970  0.0454 -1.0690
  746MOL0     H  693   4.145  11.420   1.241 -0.6498  0.5867  2.7214
  746MOL0     H  694   5.644  10.893   1.788  0.1610  0.0179 -2.6340
  746MOL0     H  695   5.824  10.785   1.956  1.4173 -2.5837  0.5053
  746MOL0     H  696   6.007  10.337   1.990 -2.6305  1.4990  0.5909
  746MOL0     H  697   6.158  10.173   2.055 -0.1363 -1.1565 -0.4525
  746MOL0     H  698   6.093   9.991   2.484 -1.3094  2.0113  0.4879
  746MOL0     H  699   6.215  10.108   2.495  1.9912  0.3524 -0.5977
  746MOL0     H  700   6.391   9.965   2.413 -0.1654  2.8608  2.1602
  746MOL0     H  701   6.266   9.828   2.407  1.0992  0.6449 -1.6325
  746MOL0     H  702   6.321   9.800   2.622  1.3371  0.6406  1.6966
  746MOL0     H  703   6.222   9.932   2.649 -0.6836  0.4922 -0.0539
  746MOL0     H  704   6.504   9.889   2.715  3.2310  1.7192 -1.9873
  746MOL0     H  705   6.495  10.027   2.601  1.0103  0.8391  0.5351
  746MOL0     H  706   6.261  10.232   2.867 -1.0463 -0.8883  1.3388
  746MOL0     H  707   5.976  10.169   2.446  1.3412 -0.7269  0.6824
  746MOL0     H  708   5.806  10.491   2.392  2.8669 -0.3414  0.9735
  746MOL0     H  709   5.705  10.332   2.396 -0.1718 -1.9111 -1.0254
  746MOL0     H  710   5.824  10.376   2.515 -1.8131  2.3478 -0.0947
  747MOL0     O  711  10.325   6.404   4.757  0.1444  0.5956  0.7325
  747MOL0     C  712  10.388   6.318   4.821 -0.3264 -0.2384  0.1997
  747MOL0     O  713  10.432   6.203   4.771 -0.9464  0.0906 -0.7628
  747MOL0     C  714  10.451   6.196   4.635  0.0965  1.2930  0.5953
  747MOL0     C  715  10.366   6.237   4.532 -0.2304  0.3768  0.1302
  747MOL0     C  716  10.399   6.206   4.399 -0.3101 -1.2088 -0.3163
  747MOL0     C  717  10.516   6.150   4.369 -0.0529 -0.3813 -0.0653
  747MOL0     O  718  10.541   6.121   4.241  0.1329 -0.3528 -0.4943
  747MOL0     C  719  10.673   6.140   4.192  0.3997 -0.8021  0.4880
  747MOL0     C  720  10.691   6.139   4.039  0.7044  0.5163 -0.3854
  747MOL0     C  721  10.843   6.152   4.002 -0.1020 -0.5650  0.1041
  747MOL0     C  722  10.904   6.017   3.982 -0.4007  0.4871  0.4784
  747MOL0     C  723  11.052   6.052   3.935  0.5113  0.1587  0.4593
  747MOL0     C  724  11.142   5.939   3.891  0.1082 -0.6281  0.6405
  747MOL0     C  725  11.281   5.995   3.865  0.0006  0.1718 -0.0186
  747MOL0     C  726  11.364   5.869   3.829 -0.4739  0.4107  0.6450
  747MOL0     N  727  11.496   5.896   3.772 -0.3929 -0.1803 -0.2283
  747MOL0     C  728  11.619   5.888   3.834 -0.3237 -0.3249 -0.6643
  747MOL0     C  729  11.709   5.913   3.740 -0.0781 -0.4815 -0.0588
  747MOL0     C  730  11.860   5.923   3.755 -0.0839  0.1632  0.3531
  747MOL0     C  731  11.919   6.028   3.658 -1.0255  0.2925  0.3110
  747MOL0     C  732  12.044   6.078   3.722  0.3950 -0.0571 -0.4495
  747MOL0     C  733  12.097   6.200   3.648 -0.7563  0.3303  0.3096
  747MOL0     O  734  12.154   6.161   3.522  0.1976 -0.3777  0.0373
  747MOL0     C  735  12.159   6.256   3.420  0.3108  0.7788 -0.5318
  747MOL0     C  736  12.194   6.203   3.306 -0.0343  0.4468  0.8228
  747MOL0     C  737  12.195   6.285   3.191 -1.2707  0.3551 -0.3281
  747MOL0     C  738  12.182   6.427   3.210  0.1534  0.0885  0.7379
  747MOL0     C  739  12.179   6.515   3.087 -0.3654  0.6133 -0.4037
  747MOL0     O  740  12.206   6.453   2.966 -0.9571 -0.4457  1.2828
  747MOL0     C  741  12.224   6.544   2.866  0.3170 -0.1915  0.8958
  747MOL0     C  742  12.115   6.584   2.795  0.2178 -0.1264 -0.7257
  747MOL0     C  743  12.121   6.702   2.710 -1.1484  0.7938 -0.1017
  747MOL0     C  744  12.245   6.771   2.702  0.6891 -0.2202  0.0869
  747MOL0     O  745  12.249   6.891   2.641 -0.2608 -0.8351  0.4473
  747MOL0     C  746  12.259   7.000   2.733  0.1250 -1.0726 -0.7977
  747MOL0     C  747  12.287   7.122   2.640  0.7910 -0.4756  0.4598
  747MOL0     C  748  12.167   7.213   2.610  0.5275  0.4154 -0.8486
  747MOL0     C  749  12.140   7.311   2.716  0.1907  0.5888 -0.6149
  747MOL0     C  750  11.989   7.361   2.694 -0.1972 -0.6438  0.7600
  747MOL0     C  751  11.956   7.451   2.809 -0.0623 -0.5395  0.5711
  747MOL0     C  752  11.803   7.484   2.811 -0.0121  0.5751 -0.3118
  747MOL0     C  753  11.767   7.592   2.917  0.1327 -0.3534 -0.0043
  747MOL0    Cl  754  11.821   7.755   2.863 -0.0625 -0.8729  0.4126
  747MOL0     C  755  12.354   6.715   2.767 -0.0433 -0.8701  0.0144
  747MOL0     C  756  12.352   6.599   2.841  0.6770 -1.1264 -0.3998
  747MOL0     O  757  12.150   6.635   3.100 -0.2259  0.5046  0.4145
  747MOL0     C  758  12.149   6.476   3.338 -0.2196 -0.7572  0.1208
  747MOL0     C  759  12.135   6.392   3.440 -0.2172  0.4128  0.4053
  747MOL0     N  760  11.647   5.952   3.625  0.2556  0.1308  0.0755
  747MOL0     N  761  11.512   5.951   3.647 -0.0835  0.6824  0.9351
  747MOL0     C  762  10.604   6.114   4.474  0.2263 -0.2306 -0.6376
  747MOL0     C  763  10.568   6.135   4.601 -0.0488  0.4146 -0.1654
  747MOL0     C  764  10.401   6.337   4.972  0.2559  0.8106  0.2084
  747MOL0     C  765  10.281   6.341   5.048  0.6238 -0.1659  0.1283
  747MOL0     C  766  10.286   6.354   5.187  0.1184  0.0620 -0.0473
  747MOL0     C  767  10.410   6.349   5.251  0.4145 -0.7301 -0.4121
  747MOL0     O  768  10.426   6.360   5.388 -0.7515 -0.4574 -0.4813
  747MOL0     C  769  10.321   6.418   5.473 -0.8372 -1.0674  0.5106
  747MOL0     C  770  10.330   6.382   5.621  0.5081  0.1574 -0.4741
  747MOL0     C  771  10.378   6.491   5.711 -0.4974 -0.3212 -0.6324
  747MOL0     C  772  10.290   6.562   5.811 -0.6772  0.7849 -0.9123
  747MOL0     C  773  10.250   6.473   5.922 -0.5208  0.0021  0.2173
  747MOL0     C  774  10.232   6.402   6.014 -0.7206 -0.2396 -0.7279
  747MOL0     C  775  10.526   6.351   5.172  0.5618  0.7584  1.0823
  747MOL0     C  776  10.522   6.331   5.037 -0.2993  0.7176  0.8736
  747MOL0     C  777  10.646   6.316   4.954 -0.2911  0.1047  0.5393
  747MOL0     H  778  10.276   6.297   4.543 -0.5064 -0.0367  0.1140
  747MOL0     H  779  10.330   6.225   4.317 -0.7471 -3.5788 -0.5823
  747MOL0     H  780  10.721   6.229   4.235 -0.0750 -0.2496 -0.1043
  747MOL0     H  781  10.719   6.049   4.232 -2.7732 -0.5789  5.5005
  747MOL0     H  782  10.626   6.217   3.998 -2.3281 -1.0253  1.1140
  747MOL0     H  783  10.648   6.042   4.010 -1.5666  1.1011  0.7339
  747MOL0     H  784  10.891   6.219   4.074 -2.0390 -0.4869  1.3975
  747MOL0     H  785  10.848   6.210   3.909  3.9648  1.2999  1.2534
  747MOL0     H  786  10.891   5.954   4.071 -2.1673  1.0289  0.6372
  747MOL0     H  787  10.867   5.960   3.896  1.3621 -3.9916  2.3302
  747MOL0     H  788  11.033   6.126   3.857 -1.2351  3.0553  3.4280
  747MOL0     H  789  11.095   6.111   4.016  0.1354  0.2623  0.5830
  747MOL0     H  790  11.151   5.865   3.972 -0.3629  0.6578  1.9091
  747MOL0     H  791  11.109   5.891   3.799  1.7891 -2.4445  0.9166
  747MOL0     H  792  11.318   6.040   3.957 -0.1794  0.0599  0.1101
  747MOL0     H  793  11.271   6.065   3.781  0.2199  0.3379  0.0944
  747MOL0     H  794  11.364   5.803   3.916 -3.6214  0.6301  0.9438
  747MOL0     H  795  11.310   5.816   3.750  2.5180  0.5961 -1.6818
  747MOL0     H  796  11.643   5.853   3.934 -1.5832  2.3837  0.6658
  747MOL0     H  797  11.875   5.957   3.857 -4.9687 -0.1592  1.4440
  747MOL0     H  798  11.905   5.824   3.765 -1.0782 -0.1808  1.6980
  747MOL0     H  799  11.939   5.990   3.557  0.2595 -0.7491  0.9250
  747MOL0     H  800  11.846   6.108   3.642 -1.5295 -0.2552 -0.1639
  747MOL0     H  801  12.118   5.998   3.711 -0.8436 -1.1373 -1.1228
  747MOL0     H  802  12.031   6.111   3.826 -1.8025  1.7090 -1.2056
  747MOL0     H  803  12.180   6.240   3.707 -0.2385 -4.7855  3.6822
  747MOL0     H  804  12.011   6.267   3.641 -2.3123 -1.4562  1.2793
  747MOL0     H  805  12.204   6.095   3.308 -1.2297  0.3225  0.7068
  747MOL0     H  806  12.198   6.240   3.092  2.1931 -2.0918  0.7194
  747MOL0     H  807  12.025   6.525   2.810 -0.2040  0.7909  0.4305
  747MOL0     H  808  12.032   6.757   2.682  0.2030  3.5676  0.7090
  747MOL0     H  809  12.165   7.018   2.785  0.2039  0.3891 -1.1204
  747MOL0     H  810  12.345   6.993   2.800 -0.4122 -1.8691 -0.1783
  747MOL0     H  811  12.363   7.186   2.686  2.3181 -1.7701 -0.1755
  747MOL0     H  812  12.326   7.088   2.543  0.2256  1.4631 -0.4987
  747MOL0     H  813  12.188   7.270   2.519  0.6049  2.0325  0.1476
  747MOL0     H  814  12.079   7.152   2.585  0.1136  1.4266 -1.9487
  747MOL0     H  815  12.212   7.393   2.709 -0.2138  0.9582 -0.4411
  747MOL0     H  816  12.153   7.257   2.811  0.4157  0.6407 -0.6158
  747MOL0     H  817  11.923   7.274   2.705 -1.1814 -0.1935 -1.1385
  747MOL0     H  818  11.986   7.403   2.593 -1.5323  0.4488  1.2242
  747MOL0     H  819  11.997   7.412   2.902 -0.0478 -0.5002  0.5818
  747MOL0     H  820  12.007   7.547   2.794  1.1908 -1.5709 -2.8220
  747MOL0     H  821  11.749   7.390   2.829  1.0753 -1.7890 -6.6149
  747MOL0     H  822  11.771   7.515   2.711  2.0929  0.4468 -1.0781
  747MOL0     H  823  11.658   7.603   2.923 -0.2068 -1.3364 -2.7327
  747MOL0     H  824  11.817   7.576   3.013  1.0184 -1.6229 -0.6570
  747MOL0     H  825  12.439   6.779   2.786 -0.3771 -0.8740  1.6811
  747MOL0     H  826  12.439   6.561   2.895 -1.0285 -2.3067  1.6466
  747MOL0     H  827  12.134   6.582   3.357 -0.6041 -1.0272  1.4223
  747MOL0     H  828  12.120   6.439   3.536  0.9056  0.1183  0.7455
  747MOL0     H  829  10.696   6.062   4.447 -1.5314 -4.4972  0.8137
  747MOL0     H  830  10.614   6.082   4.684 -2.3055 -1.5036 -0.0174
  747MOL0     H  831  10.185   6.336   4.998 -1.5592 -1.2848  4.0771
  747MOL0     H  832  10.192   6.373   5.238  0.5269 -0.9977  1.1598
  747MOL0     H  833  10.217   6.399   5.444 -0.2401 -1.0582 -1.8227
  747MOL0     H  834  10.331   6.527   5.469 -0.4634 -1.1404 -1.9432
  747MOL0     H  835  10.400   6.299   5.630  0.1869 -0.1474 -0.7623
  747MOL0     H  836  10.230   6.357   5.659  2.3426 -1.5105  3.8835
  747MOL0     H  837  10.423   6.578   5.663 -1.3388 -0.3505 -1.4845
  747MOL0     H  838  10.458   6.453   5.776  0.5103  3.3286  0.4764
  747MOL0     H  839  10.359   6.636   5.854  1.1716 -1.7553  0.7810
  747MOL0     H  840  10.199   6.611   5.774 -3.0407 -2.8505 -0.4242
  747MOL0     H  841  10.198   6.363   6.108 -1.6360  2.0282 -0.0633
  747MOL0     H  842  10.626   6.354   5.216  0.3426  1.5740  1.5370
  747MOL0     H  843  10.655   6.213   4.919 -1.7079  0.5866 -1.4562
  747MOL0     H  844  10.641   6.374   4.861 -2.6493 -1.5165 -0.4394
  747MOL0     H  845  10.738   6.331   5.011  0.8862 -3.1238 -0.2643
  748MOL0     O  846   7.187  10.731   7.517  0.5680  0.4817 -0.1866
  748MOL0     C  847   7.291  10.757   7.575 -0.6825 -1.1676 -0.0885
  748MOL0     O  848   7.365  10.671   7.649 -0.1514  0.6195  0.8269
  748MOL0     C  849   7.310  10.546   7.677 -0.3683 -0.8130 -0.1256
  748MOL0     C  850   7.294  10.463   7.568 -1.0080  0.7761 -1.1894
  748MOL0     C  851   7.270  10.324   7.597 -0.3101 -0.7333 -0.0082
  748MOL0     C  852   7.258  10.271   7.721 -0.6778  0.4068  0.6661
  748MOL0     O  853   7.220  10.145   7.746  0.6629  0.2461 -0.4038
  748MOL0     C  854   7.285  10.039   7.677 -0.2226 -0.3534 -0.1228
  748MOL0     C  855   7.220   9.904   7.700 -0.7271  0.2151 -0.4461
  748MOL0     C  856   7.096   9.904   7.600 -0.1668  0.0073  0.6458
  748MOL0     C  857   7.056   9.753   7.590  0.8123  1.0218 -1.1356
  748MOL0     C  858   6.922   9.745   7.526 -0.5766 -0.3973  0.0850
  748MOL0     C  859   6.916   9.633   7.434 -0.3312 -0.6870 -1.3965
  748MOL0     C  860   6.937   9.492   7.504 -0.0039 -0.0553 -1.0180
  748MOL0     C  861   6.941   9.378   7.410  1.0123 -0.9998  0.1219
  748MOL0     N  862   6.805   9.324   7.380 -0.1919  0.1605 -0.2037
  748MOL0     C  863   6.720   9.404   7.313  0.3281  0.4279 -0.0540
  748MOL0     C  864   6.595   9.376   7.349 -1.0028  0.3982 -0.3055
  748MOL0     C  865   6.468   9.442   7.308 -0.0758 -0.0974 -0.3887
  748MOL0     C  866   6.371   9.350   7.222 -0.6059  0.4275  0.2697
  748MOL0     C  867   6.226   9.404   7.217 -1.3419  0.1810  0.4091
  748MOL0     C  868   6.136   9.321   7.135 -0.1410 -0.6930 -0.8954
  748MOL0     O  869   6.008   9.376   7.169 -0.0982 -0.5350 -0.1963
  748MOL0     C  870   5.906   9.299   7.146  0.5573 -0.0839  0.4741
  748MOL0     C  871   5.868   9.297   7.014 -0.3329  0.4852 -0.0640
  748MOL0     C  872   5.758   9.214   6.976  0.1949  0.5362  0.0255
  748MOL0     C  873   5.685   9.143   7.077 -0.4930  0.2745  0.2061
  748MOL0     C  874   5.563   9.065   7.049  0.2587  0.9465  0.1958
  748MOL0     O  875   5.492   9.115   6.939 -0.2689  0.4631 -0.6743
  748MOL0     C  876   5.387   9.035   6.900 -0.2924 -1.5768  0.0004
  748MOL0     C  877   5.270   9.022   6.973  0.7216 -0.5902  0.1029
  748MOL0     C  878   5.167   8.938   6.922  0.1667 -0.5466  0.0654
  748MOL0     C  879   5.177   8.874   6.800 -0.6689  0.7157  0.1366
  748MOL0     O  880   5.078   8.791   6.745 -0.2110 -0.6104 -0.1763
  748MOL0     C  881   5.072   8.671   6.816 -0.0838  0.0147  0.3311
  748MOL0     C  882   5.008   8.554   6.737 -0.5542  0.0117 -0.4771
  748MOL0     C  883   5.091   8.511   6.622  0.9808  0.3457 -0.0283
  748MOL0     C  884   5.010   8.462   6.498 -0.0893 -0.0425  0.5406
  748MOL0     C  885   5.087   8.456   6.360  0.2466 -0.3848 -0.2807
  748MOL0     C  886   5.182   8.334   6.345  0.6483 -1.3664 -0.2476
  748MOL0     C  887   5.105   8.212   6.310 -0.1492  1.1377 -0.4096
  748MOL0     C  888   5.030   8.208   6.171  0.3518  0.9918 -0.2580
  748MOL0    Cl  889   4.955   8.042   6.165 -0.1343  0.3786  0.0023
  748MOL0     C  890   5.302   8.882   6.729 -0.1090 -0.2716  0.7484
  748MOL0     C  891   5.404   8.963   6.779  0.0772 -1.1563 -0.1316
  748MOL0     O  892   5.515   8.980   7.128 -0.8554 -0.3461  0.1973
  748MOL0     C  893   5.728   9.155   7.211  0.2416 -0.7416 -0.1504
  748MOL0     C  894   5.831   9.239   7.243  0.4483  0.3981  0.3386
  748MOL0     N  895   6.601   9.261   7.431  0.5975  0.5602 -0.5802
  748MOL0     N  896   6.736   9.247   7.455  0.8092 -0.0724  0.0977
  748MOL0     C  897   7.279  10.356   7.825  0.0095  0.0973 -0.8802
  748MOL0     C  898   7.306  10.499   7.807  0.6437  0.2774  0.7957
  748MOL0     C  899   7.365  10.885   7.548  0.3313 -0.7661 -0.8398
  748MOL0     C  900   7.467  10.925   7.637  0.2933  0.6555 -0.7186
  748MOL0     C  901   7.518  11.052   7.643  0.7889  0.8470 -0.5362
  748MOL0     C  902   7.485  11.149   7.550  0.5007  0.9758  0.6484
  748MOL0     O  903   7.523  11.277   7.554  0.4741  0.0693 -0.1060
  748MOL0     C  904   7.636  11.318   7.638 -0.3137  0.2776 -0.0039
  748MOL0     C  905   7.675  11.455   7.590  0.2470 -0.3564  1.5091
  748MOL0     C  906   7.689  11.468   7.434 -0.1761 -0.1644 -0.1767
  748MOL0     C  907   7.746  11.607   7.394  0.1073 -0.4085  0.5015
  748MOL0     C  908   7.786  11.596   7.254  0.8905 -0.0327  0.2395
  748MOL0     C  909   7.819  11.590   7.137  0.6169  0.3305  0.3966
  748MOL0     C  910   7.384  11.113   7.455 -0.1864 -0.6199  0.4611
  748MOL0     C  911   7.332  10.983   7.450  0.5052  0.0497  0.6117
  748MOL0     C  912   7.251  10.949   7.335  0.3330  0.3084  0.2191
  748MOL0     H  913   7.313  10.501   7.469 -0.6933 -0.2466 -1.5416
  748MOL0     H  914   7.269  10.251   7.517  2.9964 -2.5175  1.3790
  748MOL0     H  915   7.288  10.063   7.570  1.1855  2.4568  0.4524
  748MOL0     H  916   7.386  10.033   7.717 -0.6863 -0.6920  1.0411
  748MOL0     H  917   7.181   9.896   7.802 -0.5643 -0.7272 -0.4485
  748MOL0     H  918   7.294   9.825   7.681  1.7852  2.5305 -0.9061
  748MOL0     H  919   7.122   9.933   7.497  0.0916 -4.5473 -0.8354
  748MOL0     H  920   7.010   9.960   7.637 -1.2986 -0.9705 -0.4056
  748MOL0     H  921   7.128   9.689   7.539 -0.6550  1.3397 -3.7483
  748MOL0     H  922   7.060   9.705   7.689  0.6712  0.8141 -1.2305
  748MOL0     H  923   6.841   9.733   7.598 -0.1364 -2.2260  0.3190
  748MOL0     H  924   6.902   9.834   7.466  1.3624  0.9954  1.3771
  748MOL0     H  925   6.813   9.643   7.397 -1.2378  0.4180  1.1900
  748MOL0     H  926   6.983   9.642   7.348  1.0776  1.4924 -0.1720
  748MOL0     H  927   6.858   9.463   7.574  1.5778  0.9000  1.2971
  748MOL0     H  928   7.027   9.492   7.566 -0.3148 -1.6218 -0.5192
  748MOL0     H  929   6.991   9.401   7.315  3.7872 -2.3109  1.1515
  748MOL0     H  930   7.001   9.295   7.449  0.4228 -1.6819 -0.4023
  748MOL0     H  931   6.755   9.460   7.227  1.0903 -2.9018 -2.0935
  748MOL0     H  932   6.413   9.461   7.401  1.3805  1.4598  0.2092
  748MOL0     H  933   6.488   9.531   7.247  0.7756 -0.3814 -0.5413
  748MOL0     H  934   6.414   9.345   7.122  0.9118 -3.0680  0.9474
  748MOL0     H  935   6.377   9.247   7.259  0.5904  0.8470  1.3324
  748MOL0     H  936   6.220   9.504   7.173  0.4622  0.3474  0.4738
  748MOL0     H  937   6.188   9.418   7.319  0.2147  0.2525  1.0121
  748MOL0     H  938   6.140   9.217   7.169  3.4202  0.1135  1.8196
  748MOL0     H  939   6.178   9.322   7.035 -0.9471 -3.2137 -1.3390
  748MOL0     H  940   5.927   9.352   6.942  0.3303 -0.6908 -0.4353
  748MOL0     H  941   5.724   9.202   6.874  1.4932  3.1202 -0.7979
  748MOL0     H  942   5.260   9.085   7.061  1.5479  0.7103 -0.6980
  748MOL0     H  943   5.084   8.918   6.990 -0.8045 -0.9057 -1.2010
  748MOL0     H  944   5.168   8.625   6.842 -0.4189 -2.5774 -2.4862
  748MOL0     H  945   5.012   8.687   6.906 -2.9094  2.1890 -1.7477
  748MOL0     H  946   4.992   8.472   6.807 -1.6607  0.1197 -0.5848
  748MOL0     H  947   4.915   8.591   6.692 -1.4424  0.8601  1.9008
  748MOL0     H  948   5.164   8.591   6.610  0.8492  0.6006  0.7874
  748MOL0     H  949   5.149   8.424   6.654 -2.4441 -1.1830  2.7103
  748MOL0     H  950   4.923   8.526   6.481 -0.0163  0.3383  1.5172
  748MOL0     H  951   4.981   8.360   6.527  2.0057 -0.9789 -0.4246
  748MOL0     H  952   5.148   8.547   6.362 -2.3089  1.5966 -2.9168
  748MOL0     H  953   5.023   8.476   6.273 -0.2594  0.7421  0.3259
  748MOL0     H  954   5.260   8.356   6.271  3.0082  0.9289  2.6547
  748MOL0     H  955   5.236   8.322   6.440  3.5187 -0.3609 -1.6252
  748MOL0     H  956   5.022   8.200   6.380  2.3082 -1.4168  2.3741
  748MOL0     H  957   5.180   8.132   6.311  0.5440  1.6475 -3.0132
  748MOL0     H  958   4.963   8.294   6.160 -0.4871  0.3302 -0.4575
  748MOL0     H  959   5.108   8.216   6.095  3.1509  0.5589  2.3913
  748MOL0     H  960   5.312   8.842   6.629 -2.2926  0.6986  0.0895
  748MOL0     H  961   5.495   8.994   6.729  0.0620  0.3921  0.7430
  748MOL0     H  962   5.674   9.110   7.293  0.2650  2.8771  2.0767
  748MOL0     H  963   5.870   9.241   7.344  0.6059  2.0717  0.2621
  748MOL0     H  964   7.301  10.321   7.925 -2.7822 -1.0829 -0.5868
  748MOL0     H  965   7.334  10.570   7.884 -2.2165  2.0622  0.3362
  748MOL0     H  966   7.490  10.868   7.727  0.8952  0.8870 -0.7229
  748MOL0     H  967   7.579  11.089   7.725 -1.4741  1.2689  1.0377
  748MOL0     H  968   7.724  11.254   7.624 -0.4536 -0.5545  2.4459
  748MOL0     H  969   7.625  11.320   7.747 -0.8559 -0.5397 -0.0408
  748MOL0     H  970   7.774  11.467   7.636  0.0544  2.3206  1.3972
  748MOL0     H  971   7.605  11.528   7.633 -0.2500 -0.2923  0.6048
  748MOL0     H  972   7.601  11.449   7.372  0.7361  1.2555 -2.0123
  748MOL0     H  973   7.759  11.388   7.407  0.8887  1.2174 -1.7399
  748MOL0     H  974   7.661  11.676   7.395 -0.3753 -0.8806 -1.5038
  748MOL0     H  975   7.825  11.632   7.464 -0.9695 -0.8658  1.9279
  748MOL0     H  976   7.854  11.571   7.037 -2.6873 -2.0800 -0.4704
  748MOL0     H  977   7.348  11.176   7.375 -2.0657 -4.7738 -2.3278
  748MOL0     H  978   7.147  10.981   7.351  0.4769  1.4976 -0.9915
  748MOL0     H  979   7.283  11.009   7.249  0.1327 -1.5792 -1.2274
  748MOL0     H  980   7.255  10.842   7.313  0.5685  0.3971 -0.1710
  749MOL0     O  981   7.763   5.687   4.777  0.2883 -0.7759 -0.2404
  749MOL0     C  982   7.744   5.773   4.875  0.3182  0.1274  0.7845
  749MOL0     O  983   7.810   5.775   4.999 -0.0533 -0.2641 -0.2277
  749MOL0     C  984   7.858   5.654   5.031  0.9584 -0.5997 -0.1223
  749MOL0     C  985   7.977   5.608   4.975 -0.1843  0.3843 -0.7023
  749MOL0     C  986   8.032   5.495   5.021  0.3099  0.2385  0.5261
  749MOL0     C  987   7.971   5.420   5.126 -0.9886  0.0307  0.1089
  749MOL0     O  988   8.055   5.318   5.166 -0.2453  0.1330  0.3833
  749MOL0     C  989   8.040   5.255   5.297 -0.3464 -0.2236 -0.4505
  749MOL0     C  990   8.084   5.102   5.286  0.3786 -0.2934  0.6251
  749MOL0     C  991   8.082   5.057   5.428  0.0082  0.4173 -0.9924
  749MOL0     C  992   8.172   4.924   5.435  0.0821 -1.1296 -0.7487
  749MOL0     C  993   8.146   4.821   5.558 -0.5015  0.1474  0.5174
  749MOL0     C  994   8.182   4.882   5.688 -0.2666 -0.3114  0.9683
  749MOL0     C  995   8.182   4.777   5.800  0.3520 -0.0262 -0.4346
  749MOL0     C  996   8.251   4.829   5.922  0.0267  0.4069  0.6006
  749MOL0     N  997   8.237   4.754   6.050 -0.9635  0.5459  0.0062
  749MOL0     C  998   8.167   4.800   6.160 -0.2786 -0.3428 -0.8527
  749MOL0     C  999   8.153   4.683   6.234  0.5908 -0.7840 -0.9317
  749MOL0     C 1000   8.093   4.663   6.364  0.0079  0.4111 -0.1940
  749MOL0     C 1001   8.035   4.791   6.428 -0.1714  1.0550 -0.5904
  749MOL0     C 1002   7.941   4.770   6.555 -0.2575 -0.2535  0.3099
  749MOL0     C 1003   7.803   4.729   6.513  0.1246 -0.1737  1.5255
  749MOL0     O 1004   7.751   4.831   6.421 -0.4528 -0.0105  0.4771
  749MOL0     C 1005   7.691   4.945   6.483  0.0567  0.3044 -0.1691
  749MOL0     C 1006   7.714   5.067   6.430 -0.6411  0.1897 -0.3073
  749MOL0     C 1007   7.673   5.182   6.496 -1.0088  0.3788  0.2673
  749MOL0     C 1008   7.592   5.186   6.615 -0.5421 -0.4550 -0.6276
  749MOL0     C 1009   7.556   5.305   6.693 -0.0610 -0.3924  0.2188
  749MOL0     O 1010   7.518   5.309   6.827 -0.0619 -0.0573  0.7436
  749MOL0     C 1011   7.466   5.427   6.871 -0.2524  0.2513 -0.4277
  749MOL0     C 1012   7.345   5.485   6.812 -0.9359  0.4836 -0.6560
  749MOL0     C 1013   7.304   5.610   6.841 -0.4332 -0.4595  0.2661
  749MOL0     C 1014   7.387   5.688   6.922 -0.9549  0.0051  0.1303
  749MOL0     O 1015   7.338   5.820   6.947  0.8738  0.1882 -0.8817
  749MOL0     C 1016   7.380   5.894   7.065  0.2311  0.0910 -0.5651
  749MOL0     C 1017   7.336   5.819   7.192 -0.2154  0.2574  0.6039
  749MOL0     C 1018   7.201   5.755   7.197 -0.7131  0.6915 -0.1404
  749MOL0     C 1019   7.097   5.869   7.238  0.1510  0.1706  0.0178
  749MOL0     C 1020   6.963   5.825   7.188  0.9090 -0.3586  0.4248
  749MOL0     C 1021   6.967   5.814   7.034  0.2978 -0.1112 -0.5226
  749MOL0     C 1022   6.844   5.850   6.958  0.0393 -0.2497  1.2021
  749MOL0     C 1023   6.884   5.873   6.810 -0.8377  0.6073 -0.9033
  749MOL0    Cl 1024   6.922   5.701   6.756  0.2828  0.1482  0.0956
  749MOL0     C 1025   7.507   5.637   6.978 -0.4599 -0.1887  0.6881
  749MOL0     C 1026   7.548   5.509   6.948 -0.1310 -0.7244 -0.2084
  749MOL0     O 1027   7.537   5.399   6.611  0.1368  0.3906 -0.3238
  749MOL0     C 1028   7.558   5.063   6.665 -0.0881  0.5879  0.2889
  749MOL0     C 1029   7.610   4.944   6.605  0.8979 -0.2452 -0.8011
  749MOL0     N 1030   8.221   4.581   6.172 -0.3738 -0.8569  0.2796
  749MOL0     N 1031   8.268   4.623   6.062  0.3453 -0.2792 -0.5806
  749MOL0     C 1032   7.845   5.459   5.170 -1.4639 -0.4641 -0.7066
  749MOL0     C 1033   7.787   5.578   5.120 -0.0045 -0.3193  0.2029
  749MOL0     C 1034   7.655   5.901   4.846 -0.2866  0.6670 -0.3267
  749MOL0     C 1035   7.683   6.012   4.925 -0.1978  0.3000 -0.3609
  749MOL0     C 1036   7.605   6.121   4.906 -0.6179 -0.1447 -0.4571
  749MOL0     C 1037   7.500   6.133   4.818  0.6713  0.1212 -0.6673
  749MOL0     O 1038   7.408   6.241   4.806 -0.1993 -0.5140  0.9168
  749MOL0     C 1039   7.389   6.343   4.897  0.2463 -0.3273  0.4643
  749MOL0     C 1040   7.260   6.419   4.879  0.6214 -0.3184  0.9123
  749MOL0     C 1041   7.284   6.509   4.755 -0.0684 -0.7305  0.6043
  749MOL0     C 1042   7.160   6.567   4.692 -0.2670 -0.5213 -1.0049
  749MOL0     C 1043   7.093   6.673   4.774 -0.6505  1.1121 -0.6772
  749MOL0     C 1044   7.051   6.742   4.860 -0.0920 -0.4547  0.6752
  749MOL0     C 1045   7.472   6.014   4.739  0.0336  0.5836 -0.4098
  749MOL0     C 1046   7.545   5.902   4.754 -1.1856 -0.1082 -0.7779
  749MOL0     C 1047   7.496   5.784   4.670  0.3176 -0.2481 -0.4177
  749MOL0     H 1048   8.027   5.659   4.894  2.1764 -2.7252 -1.3637
  749MOL0     H 1049   8.128   5.462   4.984 -0.0904 -2.0912  1.4039
  749MOL0     H 1050   8.095   5.320   5.366  1.4944 -0.0482 -2.0152
  749MOL0     H 1051   7.933   5.261   5.316  0.1820  2.1238  2.5026
  749MOL0     H 1052   8.178   5.093   5.232 -0.3760 -0.2992 -0.7419
  749MOL0     H 1053   8.012   5.058   5.217  2.0721  0.2834 -1.6100
  749MOL0     H 1054   7.977   5.040   5.455 -0.8926  5.4716 -0.4147
  749MOL0     H 1055   8.122   5.137   5.491 -1.1877  1.9548 -2.1056
  749MOL0     H 1056   8.154   4.882   5.336 -0.4321  1.2182 -1.7229
  749MOL0     H 1057   8.274   4.960   5.449 -0.5260  0.2436  0.4864
  749MOL0     H 1058   8.043   4.785   5.548 -0.3955  0.0895 -0.5322
  749MOL0     H 1059   8.207   4.731   5.557 -2.3995 -1.2113  1.2238
  749MOL0     H 1060   8.280   4.931   5.678 -1.1531  1.3884  0.2810
  749MOL0     H 1061   8.112   4.966   5.697  0.3160  0.5216 -1.5505
  749MOL0     H 1062   8.239   4.688   5.771 -1.3203 -1.4720  0.5485
  749MOL0     H 1063   8.086   4.730   5.824  0.8080 -2.6539 -3.1278
  749MOL0     H 1064   8.355   4.843   5.891 -1.0452 -1.5992 -5.0383
  749MOL0     H 1065   8.234   4.935   5.940  0.0724  0.5959 -0.3960
  749MOL0     H 1066   8.131   4.897   6.191  2.9466 -0.4628  4.5793
  749MOL0     H 1067   8.022   4.580   6.365  1.9426 -1.3703  2.0909
  749MOL0     H 1068   8.158   4.615   6.437  0.1372 -2.2127 -1.9113
  749MOL0     H 1069   8.124   4.850   6.452  1.9698 -2.8879  2.4058
  749MOL0     H 1070   7.976   4.844   6.352  0.3977  0.0453 -1.7528
  749MOL0     H 1071   7.934   4.867   6.605  3.4370  1.4204 -2.0768
  749MOL0     H 1072   7.980   4.698   6.628 -0.6566 -0.7273  0.0653
  749MOL0     H 1073   7.745   4.724   6.605 -4.1276  2.1521 -0.7198
  749MOL0     H 1074   7.803   4.631   6.465  0.9326  1.4693 -2.1844
  749MOL0     H 1075   7.780   5.073   6.344 -1.8960  0.1341 -1.2994
  749MOL0     H 1076   7.709   5.278   6.462  4.2013 -0.8367  1.5611
  749MOL0     H 1077   7.287   5.422   6.745 -0.3547 -2.4710  1.4059
  749MOL0     H 1078   7.226   5.664   6.788 -0.0690  1.3424  1.4927
  749MOL0     H 1079   7.486   5.920   7.057  0.0862  0.3264 -1.9803
  749MOL0     H 1080   7.327   5.989   7.064  1.6476  0.9503  1.2105
  749MOL0     H 1081   7.408   5.739   7.204 -1.6228 -1.0823  0.4317
  749MOL0     H 1082   7.337   5.893   7.272  2.8894 -0.7190  1.5950
  749MOL0     H 1083   7.191   5.704   7.101  2.1273  1.3739 -0.9086
  749MOL0     H 1084   7.213   5.675   7.271 -0.1216  0.1427 -0.8060
  749MOL0     H 1085   7.133   5.962   7.195  0.0866  0.9921  1.6601
  749MOL0     H 1086   7.063   5.883   7.342  0.4571  0.7893  0.0382
  749MOL0     H 1087   6.885   5.899   7.207  0.9243 -0.9509  3.1801
  749MOL0     H 1088   6.941   5.725   7.225  2.9994 -1.8179 -1.8752
  749MOL0     H 1089   7.058   5.864   7.001 -0.1441  2.3006  1.5315
  749MOL0     H 1090   6.993   5.710   7.019  1.8108 -0.1600  1.9262
  749MOL0     H 1091   6.799   5.942   6.997  1.8883  2.1313 -1.8059
  749MOL0     H 1092   6.775   5.765   6.967  1.6544 -1.8350 -0.5993
  749MOL0     H 1093   6.806   5.903   6.739 -1.8596 -1.8048 -0.9160
  749MOL0     H 1094   6.971   5.937   6.799 -1.9342  2.1787 -0.7251
  749MOL0     H 1095   7.573   5.713   7.020  0.4744 -0.4203 -0.3089
  749MOL0     H 1096   7.635   5.467   6.996  1.4205  0.6853 -1.6468
  749MOL0     H 1097   7.500   5.053   6.756 -0.2546 -1.8969 -0.0201
  749MOL0     H 1098   7.585   4.849   6.651 -0.2956  1.0488  1.4015
  749MOL0     H 1099   7.798   5.412   5.256  1.7558 -0.4051  1.2661
  749MOL0     H 1100   7.704   5.632   5.164  1.4945  0.8204  1.7660
  749MOL0     H 1101   7.756   6.011   5.006  1.3643  0.1909 -1.7067
  749MOL0     H 1102   7.623   6.207   4.970 -2.6574  3.3104 -4.0390
  749MOL0     H 1103   7.480   6.404   4.887 -1.4652  2.0788 -1.8681
  749MOL0     H 1104   7.380   6.301   4.997 -1.8558  0.1866  0.5371
  749MOL0     H 1105   7.234   6.487   4.961 -0.0823 -1.0749  1.3296
  749MOL0     H 1106   7.185   6.341   4.865  1.3636 -0.6168 -2.1217
  749MOL0     H 1107   7.333   6.454   4.673  2.8409  1.3741  0.7440
  749MOL0     H 1108   7.349   6.595   4.775  2.1381 -0.1296 -6.2805
  749MOL0     H 1109   7.194   6.616   4.601  0.0066 -1.0153 -1.1734
  749MOL0     H 1110   7.086   6.488   4.677  1.6895 -2.5061 -0.6774
  749MOL0     H 1111   7.022   6.809   4.938  0.4407  1.5565 -0.7693
  749MOL0     H 1112   7.386   6.013   4.673  0.3136  0.5159 -0.7731
  749MOL0     H 1113   7.563   5.766   4.585  1.9260 -1.6057  1.0434
  749MOL0     H 1114   7.493   5.686   4.719 -2.9888 -0.6542 -1.2146
  749MOL0     H 1115   7.394   5.802   4.637 -0.8962 -1.7639  2.2292
  750MOL0     O 1116   8.021   4.848   5.029 -0.3535  0.4117 -0.1735
  750MOL0     C 1117   7.965   4.876   4.922  0.2916  0.3488 -0.1426
  750MOL0     O 1118   8.019   4.866   4.794  0.2403 -0.3510  0.4661
  750MOL0     C 1119   8.133   4.785   4.783 -0.5242  0.2343  0.4118
  750MOL0     C 1120   8.120   4.661   4.733 -0.2537  0.7885  0.1494
  750MOL0     C 1121   8.234   4.567   4.733  0.2612 -0.6622 -0.1162
  750MOL0     C 1122   8.361   4.611   4.771  0.8100  0.6067 -0.8987
  750MOL0     O 1123   8.464   4.522   4.780 -0.4430 -0.1059  0.1399
  750MOL0     C 1124   8.429   4.378   4.797 -0.6797 -0.1693  1.1809
  750MOL0     C 1125   8.554   4.299   4.850  0.0585 -0.2489 -0.8760
  750MOL0     C 1126   8.531   4.143   4.843 -0.3653  0.2775 -0.0262
  750MOL0     C 1127   8.492   4.083   4.705 -0.0023 -0.0429 -0.2940
  750MOL0     C 1128   8.593   4.117   4.600  0.4393  0.6022  0.7574
  750MOL0     C 1129   8.578   4.078   4.455  0.1899 -0.6067 -0.2848
  750MOL0     C 1130   8.558   3.927   4.438 -0.1005  0.1496  0.6732
  750MOL0     C 1131   8.569   3.877   4.298 -0.0536 -0.3011 -0.3494
  750MOL0     N 1132   8.512   3.740   4.295  0.4402  0.8683  0.9136
  750MOL0     C 1133   8.560   3.628   4.350 -0.0647 -0.2783  0.2008
  750MOL0     C 1134   8.469   3.532   4.343  0.3225 -1.0994  0.1681
  750MOL0     C 1135   8.474   3.395   4.399  0.4480  0.8004  0.6125
  750MOL0     C 1136   8.431   3.381   4.546  0.3381 -0.7105  0.2515
  750MOL0     C 1137   8.294   3.462   4.577 -0.0313  0.4626 -0.6463
  750MOL0     C 1138   8.226   3.434   4.709 -0.4879 -0.7765  0.5783
  750MOL0     O 1139   8.099   3.373   4.689 -0.2468  0.1745 -0.4778
  750MOL0     C 1140   8.020   3.345   4.801  0.1538  1.0581  0.7459
  750MOL0     C 1141   8.049   3.383   4.929 -0.2172  0.2744 -0.2520
  750MOL0     C 1142   7.963   3.341   5.035 -0.3176  0.0168  0.8621
  750MOL0     C 1143   7.864   3.241   5.008 -0.9657 -1.0938 -0.1735
  750MOL0     C 1144   7.778   3.191   5.115 -1.3528  0.1485  0.0725
  750MOL0     O 1145   7.658   3.136   5.076  0.0515 -0.3586 -0.8543
  750MOL0     C 1146   7.558   3.097   5.174 -0.5497 -0.2205  0.4867
  750MOL0     C 1147   7.528   3.166   5.291  0.3504 -0.6683 -0.2149
  750MOL0     C 1148   7.447   3.100   5.389 -0.2425  0.1052  0.6559
  750MOL0     C 1149   7.389   2.979   5.360 -0.2137 -0.3853  0.2569
  750MOL0     O 1150   7.308   2.921   5.447  0.1867  0.1419 -0.0285
  750MOL0     C 1151   7.172   2.962   5.440 -1.1095 -0.4288  0.5137
  750MOL0     C 1152   7.095   2.874   5.541  0.3931 -1.2465 -1.0142
  750MOL0     C 1153   7.149   2.915   5.683  0.3804 -0.1658  0.3263
  750MOL0     C 1154   7.040   2.887   5.796 -0.6670 -0.8413 -0.1728
  750MOL0     C 1155   7.006   2.736   5.813 -0.7968 -0.5256  0.2130
  750MOL0     C 1156   6.914   2.711   5.925  0.3540 -1.2428  0.2404
  750MOL0     C 1157   6.871   2.569   5.927 -0.9005 -0.4658 -0.0969
  750MOL0     C 1158   6.809   2.534   6.065 -0.2496 -0.3261  0.3163
  750MOL0    Cl 1159   6.697   2.657   6.115 -0.0291 -0.3600  0.0412
  750MOL0     C 1160   7.407   2.913   5.244 -0.4495  0.6080 -0.2449
  750MOL0     C 1161   7.496   2.970   5.154  0.8878 -0.4642  0.2858
  750MOL0     O 1162   7.816   3.215   5.232  0.5134 -0.4967  0.9744
  750MOL0     C 1163   7.835   3.209   4.880 -0.4540 -0.1631  0.0160
  750MOL0     C 1164   7.907   3.263   4.777 -0.2028  0.3646 -0.3715
  750MOL0     N 1165   8.362   3.590   4.279 -0.6285  0.4848  0.6710
  750MOL0     N 1166   8.387   3.713   4.252 -0.5065 -0.0796 -0.5151
  750MOL0     C 1167   8.372   4.737   4.826  0.0529  0.1791 -0.6658
  750MOL0     C 1168   8.260   4.820   4.826  0.0640 -0.4758  0.0940
  750MOL0     C 1169   7.839   4.939   4.941 -0.2208  0.8856  0.2945
  750MOL0     C 1170   7.809   5.039   4.851 -0.4686 -1.0531  0.3257
  750MOL0     C 1171   7.701   5.122   4.874  0.0031 -0.3975  0.0070
  750MOL0     C 1172   7.618   5.093   4.979  0.2299 -0.1347 -0.0662
  750MOL0     O 1173   7.513   5.176   5.002  0.3131  0.2279 -0.2534
  750MOL0     C 1174   7.516   5.244   5.128 -0.3055 -0.3989 -0.2716
  750MOL0     C 1175   7.407   5.352   5.126  0.5601  0.3530 -0.6703
  750MOL0     C 1176   7.272   5.277   5.159 -0.6787 -0.5265 -0.6355
  750MOL0     C 1177   7.149   5.323   5.078 -0.7145  0.4243  0.2603
  750MOL0     C 1178   7.030   5.237   5.114 -0.0252 -0.5117 -0.1414
  750MOL0     C 1179   6.938   5.169   5.160 -0.7813  0.4352  0.2762
  750MOL0     C 1180   7.645   4.993   5.067 -0.1591  0.7209 -0.5365
  750MOL0     C 1181   7.759   4.912   5.054 -0.2814 -0.7593 -0.0943
  750MOL0     C 1182   7.775   4.797   5.156  0.0537 -0.0955 -0.7738
  750MOL0     H 1183   8.022   4.620   4.709  0.3431 -0.0467 -0.9033
  750MOL0     H 1184   8.224   4.466   4.693  0.8586 -1.0201  0.6257
  750MOL0     H 1185   8.339   4.364   4.857 -3.6163 -2.3363 -3.1502
  750MOL0     H 1186   8.400   4.343   4.697 -3.3136 -4.3593  3.1610
  750MOL0     H 1187   8.578   4.320   4.955 -3.1132 -2.5000  0.4874
  750MOL0     H 1188   8.637   4.325   4.785 -1.3533 -0.4591 -2.8582
  750MOL0     H 1189   8.454   4.110   4.914 -2.0880  0.7528 -1.5883
  750MOL0     H 1190   8.629   4.099   4.864 -1.1325 -1.2476  0.5263
  750MOL0     H 1191   8.479   3.975   4.713 -1.4123 -0.0055 -1.7135
  750MOL0     H 1192   8.396   4.128   4.678 -0.6380 -0.3259  1.3256
  750MOL0     H 1193   8.606   4.226   4.597  1.9118  0.4914 -3.4230
  750MOL0     H 1194   8.690   4.066   4.608 -1.1209 -2.4697  1.6700
  750MOL0     H 1195   8.481   4.122   4.428 -0.8881  0.0760  3.9831
  750MOL0     H 1196   8.663   4.116   4.398  1.9380 -1.1189  1.8391
  750MOL0     H 1197   8.457   3.911   4.475  0.1125 -0.8857  0.8220
  750MOL0     H 1198   8.628   3.869   4.498  4.5967  1.7792 -2.6144
  750MOL0     H 1199   8.517   3.943   4.228  3.6163  1.8881 -1.3054
  750MOL0     H 1200   8.670   3.883   4.257 -0.1811  1.3741 -0.5036
  750MOL0     H 1201   8.652   3.618   4.407 -0.4066 -1.6844  0.5422
  750MOL0     H 1202   8.402   3.338   4.338  1.3234 -0.2608  0.5516
  750MOL0     H 1203   8.572   3.353   4.374 -0.3860 -1.3938  0.7411
  750MOL0     H 1204   8.419   3.273   4.554 -0.5535 -0.6826 -0.5818
  750MOL0     H 1205   8.505   3.408   4.623 -1.0006  1.4544  0.8729
  750MOL0     H 1206   8.226   3.454   4.491 -1.0900  2.8335 -0.1046
  750MOL0     H 1207   8.318   3.568   4.585  0.7008  0.3527 -1.2528
  750MOL0     H 1208   8.216   3.530   4.762 -1.2075 -1.1967  1.2278
  750MOL0     H 1209   8.293   3.375   4.771 -1.5104  0.6588  3.1887
  750MOL0     H 1210   8.132   3.448   4.953 -2.2925  3.0037 -0.0504
  750MOL0     H 1211   7.981   3.382   5.134 -0.0213  1.8026  0.0945
  750MOL0     H 1212   7.573   3.264   5.297 -0.4702  0.1202 -3.9977
  750MOL0     H 1213   7.428   3.155   5.481  1.6165 -0.3291  1.3486
  750MOL0     H 1214   7.153   3.067   5.463 -0.5709  0.5772 -3.0045
  750MOL0     H 1215   7.137   2.950   5.337 -0.8115  0.5548  0.2902
  750MOL0     H 1216   6.989   2.899   5.541  0.1610 -2.1793 -1.1800
  750MOL0     H 1217   7.103   2.766   5.523 -1.3799 -0.9462 -4.4199
  750MOL0     H 1218   7.241   2.862   5.710 -0.3652 -1.4608  0.3777
  750MOL0     H 1219   7.185   3.019   5.679 -1.0091  0.3103 -0.7421
  750MOL0     H 1220   6.956   2.951   5.768  1.0059  0.5944 -2.2876
  750MOL0     H 1221   7.084   2.928   5.887  1.9234 -3.2820 -0.1777
  750MOL0     H 1222   7.101   2.689   5.837  0.7754  2.0127 -0.6679
  750MOL0     H 1223   6.964   2.685   5.725  0.4922  0.6038 -1.0992
  750MOL0     H 1224   6.954   2.742   6.022 -4.0299 -1.4760  2.3482
  750MOL0     H 1225   6.831   2.776   5.894  2.3245  1.0952 -0.5076
  750MOL0     H 1226   6.947   2.493   5.906 -0.4463 -0.8724  2.6110
  750MOL0     H 1227   6.790   2.562   5.854 -0.1121 -0.5371 -0.9968
  750MOL0     H 1228   6.761   2.437   6.057  1.8181 -1.6449  2.4945
  750MOL0     H 1229   6.902   2.524   6.123  0.9566  1.3184 -1.2099
  750MOL0     H 1230   7.367   2.813   5.227  4.8408 -1.6367 -1.4933
  750MOL0     H 1231   7.526   2.917   5.065  0.2843 -1.5490  0.7119
  750MOL0     H 1232   7.755   3.143   4.850  1.3556 -0.8274 -3.9088
  750MOL0     H 1233   7.874   3.243   4.675 -2.3977 -0.9138  0.5064
  750MOL0     H 1234   8.471   4.758   4.865 -0.3372 -1.5399  1.3895
  750MOL0     H 1235   8.261   4.924   4.856  0.5580 -0.3404 -0.3722
  750MOL0     H 1236   7.878   5.074   4.775 -2.7853 -0.4318 -1.6238
  750MOL0     H 1237   7.679   5.212   4.817  1.8725  0.2026  0.1572
  750MOL0     H 1238   7.607   5.304   5.133 -1.5344  1.6505 -0.9484
  750MOL0     H 1239   7.523   5.181   5.217 -1.7128  0.6111  0.6106
  750MOL0     H 1240   7.382   5.393   5.028 -1.6051  0.1082 -0.2872
  750MOL0     H 1241   7.415   5.440   5.190 -1.6843  2.7447 -3.3624
  750MOL0     H 1242   7.246   5.294   5.264  0.1430 -0.6673 -0.3980
  750MOL0     H 1243   7.269   5.169   5.141 -0.1516 -0.1135 -3.6629
  750MOL0     H 1244   7.131   5.428   5.099  1.7571  0.6578  1.5080
  750MOL0     H 1245   7.179   5.314   4.973  1.3171 -3.6541  0.9693
  750MOL0     H 1246   6.869   5.088   5.176 -0.5574 -0.5104 -2.8380
  750MOL0     H 1247   7.566   4.971   5.139  2.2727  0.3590  2.1879
  750MOL0     H 1248   7.683   4.763   5.204  1.4911 -1.7656  0.9376
  750MOL0     H 1249   7.824   4.708   5.115  1.3587  1.3839 -2.6398
  750MOL0     H 1250   7.857   4.828   5.221  0.6111 -0.9645 -1.0584
  751MOL0     O 1251  11.313   8.049   5.683 -0.0585 -0.9915  0.3228
  751MOL0     C 1252  11.329   7.977   5.587 -0.5294  0.1560  0.0545
  751MOL0     O 1253  11.269   7.849   5.566  0.0162 -1.2142 -0.1828
  751MOL0     C 1254  11.155   7.809   5.648  0.2243 -0.9187  0.4690
  751MOL0     C 1255  11.176   7.719   5.750  0.5570 -0.9478 -0.2229
  751MOL0     C 1256  11.064   7.655   5.805 -0.0563 -0.3816 -0.0869
  751MOL0     C 1257  10.935   7.684   5.765 -1.1587  0.2784 -0.2249
  751MOL0     O 1258  10.830   7.622   5.827 -0.3918 -0.2256 -0.0726
  751MOL0     C 1259  10.840   7.479   5.841  0.7642  0.6173  0.2992
  751MOL0     C 1260  10.701   7.409   5.811  1.2105  0.1544 -0.1694
  751MOL0     C 1261  10.577   7.452   5.893  0.6105 -0.3990 -0.1180
  751MOL0     C 1262  10.553   7.339   6.002 -0.1300 -0.6254 -0.2578
  751MOL0     C 1263  10.485   7.389   6.130  0.2932 -0.2014 -0.4875
  751MOL0     C 1264  10.344   7.440   6.093 -0.3148 -0.7545 -0.2912
  751MOL0     C 1265  10.263   7.474   6.203  0.3779 -0.0056  0.3946
  751MOL0     C 1266  10.131   7.541   6.149 -0.2067 -0.3804 -0.1515
  751MOL0     N 1267  10.050   7.446   6.080 -0.1173 -0.6673  0.2748
  751MOL0     C 1268  10.001   7.461   5.949  0.1905 -0.5204 -0.6574
  751MOL0     C 1269   9.960   7.339   5.905  0.3779  0.1357 -0.1350
  751MOL0     C 1270   9.892   7.320   5.779  0.1374  0.7724  0.1565
  751MOL0     C 1271   9.814   7.183   5.774 -0.1850 -1.0278  0.7861
  751MOL0     C 1272   9.751   7.143   5.639 -0.2175 -0.5266  0.0013
  751MOL0     C 1273   9.637   7.227   5.569 -1.2002  0.3012 -1.0051
  751MOL0     O 1274   9.589   7.173   5.443  0.1106 -0.5052 -0.8823
  751MOL0     C 1275   9.676   7.149   5.339 -0.9177  0.7142 -0.1934
  751MOL0     C 1276   9.641   7.058   5.244 -0.2720 -0.8057 -0.4728
  751MOL0     C 1277   9.718   7.018   5.131  0.4480 -0.0314  0.4835
  751MOL0     C 1278   9.851   7.075   5.112 -0.3239  0.0706 -0.5370
  751MOL0     C 1279   9.921   7.036   5.003  0.1803  0.1323  0.1096
  751MOL0     O 1280   9.847   7.004   4.891  0.2384  0.7455 -0.0982
  751MOL0     C 1281   9.916   6.987   4.771 -0.7168 -0.4463 -0.0821
  751MOL0     C 1282  10.022   6.906   4.756  0.3412  0.2714 -0.6374
  751MOL0     C 1283  10.092   6.884   4.640 -0.1276 -0.2491 -0.3564
  751MOL0     C 1284  10.037   6.934   4.525  0.7200 -0.3441 -0.2658
  751MOL0     O 1285  10.095   6.910   4.404  0.7567 -0.4448 -0.2049
  751MOL0     C 1286  10.163   6.789   4.381  0.1114  0.1042  0.3460
  751MOL0     C 1287  10.153   6.765   4.236 -0.1357  0.3170  0.0009
  751MOL0     C 1288  10.188   6.614   4.212  0.0186  0.6666 -0.6606
  751MOL0     C 1289  10.225   6.583   4.064 -0.4161  0.0116 -0.3148
  751MOL0     C 1290  10.290   6.448   4.050 -0.1891 -0.3646  0.3215
  751MOL0     C 1291  10.191   6.336   4.059  0.5010 -0.0220 -1.1410
  751MOL0     C 1292  10.262   6.211   4.023 -0.4326 -1.0239  0.2575
  751MOL0     C 1293  10.184   6.087   4.056  0.0773  0.2545 -0.1818
  751MOL0    Cl 1294  10.233   5.943   3.967  0.2296 -0.0324  0.2732
  751MOL0     C 1295   9.918   7.013   4.532  0.2593  0.1268  1.3110
  751MOL0     C 1296   9.862   7.042   4.661 -0.2619  0.9476  0.8449
  751MOL0     O 1297  10.046   7.047   5.008 -0.1385  0.2361 -0.2844
  751MOL0     C 1298   9.886   7.172   5.203  0.0947 -0.5403  0.0433
  751MOL0     C 1299   9.806   7.206   5.316  0.3178  0.9002 -0.7739
  751MOL0     N 1300   9.966   7.248   6.009 -0.1298  0.0545  0.0947
  751MOL0     N 1301  10.024   7.312   6.104 -0.6202  0.5874 -0.3957
  751MOL0     C 1302  10.912   7.774   5.659 -0.4547  0.3597  0.8151
  751MOL0     C 1303  11.025   7.837   5.604 -0.5092  0.3934  0.5506
  751MOL0     C 1304  11.440   8.021   5.485  0.5297 -0.7709  0.2790
  751MOL0     C 1305  11.439   7.958   5.359 -0.5839 -0.2750 -0.4096
  751MOL0     C 1306  11.537   7.976   5.266 -0.9698  1.2415 -0.2475
  751MOL0     C 1307  11.655   8.053   5.286 -0.6201 -0.1356  0.5278
  751MOL0     O 1308  11.754   8.071   5.183  0.4103 -0.7246 -0.3526
  751MOL0     C 1309  11.891   8.032   5.224  0.5649 -0.2081 -0.3527
  751MOL0     C 1310  11.994   8.101   5.129 -0.2429 -0.5223  0.1933
  751MOL0     C 1311  11.996   8.055   4.990 -0.2899  0.1119  0.3060
  751MOL0     C 1312  11.981   7.910   4.957  0.7726  0.2393 -0.3398
  751MOL0     C 1313  11.978   7.874   4.813 -0.5311  0.3163  0.4854
  751MOL0     C 1314  12.015   7.861   4.696 -0.9047  1.5036 -0.5169
  751MOL0     C 1315  11.656   8.121   5.412 -0.2245 -0.1956 -0.1906
  751MOL0     C 1316  11.554   8.101   5.512  0.5266  0.5134  0.3685
  751MOL0     C 1317  11.580   8.168   5.644  0.8792 -0.2817 -0.2196
  751MOL0     H 1318  11.275   7.698   5.789  1.0558 -0.3564 -1.1337
  751MOL0     H 1319  11.095   7.577   5.872  0.3076 -1.6009 -1.6087
  751MOL0     H 1320  10.908   7.439   5.765 -1.1249  2.4739 -2.5598
  751MOL0     H 1321  10.882   7.445   5.936  2.3046 -0.2241 -0.6466
  751MOL0     H 1322  10.725   7.302   5.806 -0.0437 -0.2425  1.4228
  751MOL0     H 1323  10.670   7.441   5.711 -0.3142  0.6147  0.4188
  751MOL0     H 1324  10.491   7.481   5.832  1.3830  2.5907  0.0414
  751MOL0     H 1325  10.606   7.539   5.953  1.0888 -1.8983  1.9339
  751MOL0     H 1326  10.507   7.249   5.961  1.3772 -1.1857 -0.7975
  751MOL0     H 1327  10.652   7.306   6.036 -0.6890 -1.8745  0.2023
  751MOL0     H 1328  10.470   7.299   6.189 -0.1759 -0.2984 -0.7512
  751MOL0     H 1329  10.551   7.455   6.188  1.6927 -1.4160 -0.6247
  751MOL0     H 1330  10.359   7.531   6.035  1.9525 -0.0863  1.2022
  751MOL0     H 1331  10.298   7.354   6.044  1.7203 -2.7659  1.1197
  751MOL0     H 1332  10.313   7.543   6.271 -1.4165 -1.6548  3.6323
  751MOL0     H 1333  10.247   7.387   6.267  0.1413  0.8911  1.5872
  751MOL0     H 1334  10.092   7.585   6.242  1.6871 -0.3749  0.6858
  751MOL0     H 1335  10.157   7.615   6.073 -0.4188 -0.5976 -0.4354
  751MOL0     H 1336   9.990   7.560   5.907  2.3129 -0.4109 -1.0543
  751MOL0     H 1337   9.825   7.401   5.750 -1.7262 -0.6298  0.2703
  751MOL0     H 1338   9.969   7.328   5.702  1.7349 -0.8567  1.4806
  751MOL0     H 1339   9.885   7.104   5.802  0.9554 -2.3679 -4.7819
  751MOL0     H 1340   9.734   7.194   5.847  0.9469 -0.0430  1.9349
  751MOL0     H 1341   9.711   7.044   5.664  1.8867 -1.4275  0.0493
  751MOL0     H 1342   9.840   7.129   5.577  1.3123 -0.6164  2.1330
  751MOL0     H 1343   9.660   7.334   5.559 -0.0759  0.4479  2.0395
  751MOL0     H 1344   9.552   7.222   5.637  1.3311 -1.6363  2.3695
  751MOL0     H 1345   9.541   7.017   5.249 -1.5730  1.9817 -1.3699
  751MOL0     H 1346   9.679   6.948   5.058  0.3514 -0.3944  0.8843
  751MOL0     H 1347  10.052   6.860   4.849  1.5465 -3.3685 -2.6234
  751MOL0     H 1348  10.188   6.836   4.635 -1.6620 -3.4213 -3.2157
  751MOL0     H 1349  10.269   6.787   4.408 -0.1449 -1.5955  1.3790
  751MOL0     H 1350  10.121   6.701   4.430  0.5089 -2.4258 -3.4279
  751MOL0     H 1351  10.052   6.791   4.202 -0.1778 -1.0534 -0.9973
  751MOL0     H 1352  10.221   6.834   4.185  0.2754  0.8457  1.2250
  751MOL0     H 1353  10.272   6.589   4.277  0.8435  2.2295 -1.0702
  751MOL0     H 1354  10.105   6.544   4.229  1.1217 -1.6679 -3.9727
  751MOL0     H 1355  10.293   6.661   4.029 -1.4236  0.4399 -1.3754
  751MOL0     H 1356  10.140   6.590   3.995  0.2780  1.7427 -1.0258
  751MOL0     H 1357  10.377   6.439   4.115 -0.3105 -0.0829  0.5294
  751MOL0     H 1358  10.333   6.445   3.950  1.6385  1.6536  0.9684
  751MOL0     H 1359  10.153   6.331   4.162  0.7686  1.0762 -0.9816
  751MOL0     H 1360  10.098   6.341   4.003 -2.4632 -2.3609  2.9945
  751MOL0     H 1361  10.359   6.209   4.073 -0.4612  0.6837  0.4553
  751MOL0     H 1362  10.264   6.205   3.914 -3.0601  0.8815  0.0134
  751MOL0     H 1363  10.204   6.080   4.163 -0.1317  0.2460 -0.1442
  751MOL0     H 1364  10.076   6.098   4.046 -0.1359  1.8160  2.8861
  751MOL0     H 1365   9.858   7.063   4.458 -1.0698  0.7721  2.7681
  751MOL0     H 1366   9.772   7.103   4.670 -1.8490 -1.0242 -0.5960
  751MOL0     H 1367   9.988   7.209   5.206  0.6320 -2.0237  1.4090
  751MOL0     H 1368   9.847   7.289   5.373  0.8711 -0.4263  0.8386
  751MOL0     H 1369  10.819   7.791   5.606  0.9638  1.8517 -1.3505
  751MOL0     H 1370  11.012   7.903   5.519  3.2996 -1.5518 -1.7860
  751MOL0     H 1371  11.358   7.887   5.347 -2.6103  1.0746  3.4859
  751MOL0     H 1372  11.524   7.918   5.175 -2.7076 -0.4763  1.0127
  751MOL0     H 1373  11.907   7.924   5.233  1.6535  0.1026  3.2762
  751MOL0     H 1374  11.918   8.074   5.321  1.9972  0.3660 -0.9785
  751MOL0     H 1375  12.090   8.090   5.179 -0.7170  0.8410  1.4614
  751MOL0     H 1376  11.976   8.208   5.119 -2.5505 -0.9686 -1.4317
  751MOL0     H 1377  12.090   8.095   4.951 -0.3423  1.0531  1.1066
  751MOL0     H 1378  11.917   8.117   4.946  0.7255  2.5215  1.6743
  751MOL0     H 1379  12.059   7.856   5.010 -1.0344  1.0036  3.3970
  751MOL0     H 1380  11.886   7.883   5.005  0.8386 -1.2604 -1.0004
  751MOL0     H 1381  12.053   7.858   4.596 -0.3769 -0.0394 -0.2954
  751MOL0     H 1382  11.741   8.186   5.434  2.9572 -3.5521 -1.4518
  751MOL0     H 1383  11.515   8.256   5.643 -0.7564 -1.4229 -1.5793
  751MOL0     H 1384  11.550   8.109   5.731 -0.6629  1.7582  0.7201
  751MOL0     H 1385  11.685   8.193   5.656  1.0992 -1.1348 -0.2992
  752MOL0     O 1386   2.200   6.277   2.262 -0.2862  0.3076  0.0011
  752MOL0     C 1387   2.297   6.271   2.188  0.9601 -0.2854  0.4329
  752MOL0     O 1388   2.373   6.151   2.176 -0.1485 -0.0453  0.8531
  752MOL0     C 1389   2.354   6.042   2.243  0.9784 -0.0315  0.3457
  752MOL0     C 1390   2.354   5.919   2.181 -0.3562 -0.1392  0.1232
  752MOL0     C 1391   2.344   5.802   2.257  0.9581  1.2498  0.5217
  752MOL0     C 1392   2.319   5.810   2.398  0.4902 -0.5605  1.4365
  752MOL0     O 1393   2.304   5.700   2.476  0.0192  1.2520 -0.3227
  752MOL0     C 1394   2.241   5.587   2.422 -0.2832  0.3130 -0.1328
  752MOL0     C 1395   2.115   5.560   2.506  0.4608 -0.4756  0.0399
  752MOL0     C 1396   2.145   5.489   2.638  0.6449  0.4856 -0.6452
  752MOL0     C 1397   2.021   5.452   2.724  0.3632 -0.0332 -0.5518
  752MOL0     C 1398   2.055   5.376   2.852 -0.5818 -0.5553 -0.2543
  752MOL0     C 1399   1.928   5.330   2.927  0.6159  0.8596 -0.1533
  752MOL0     C 1400   1.965   5.204   3.006  0.3657  0.5300  0.6165
  752MOL0     C 1401   1.854   5.122   3.086  0.4908 -0.0156 -0.4832
  752MOL0     N 1402   1.798   5.229   3.172 -0.3758 -0.1679  0.2751
  752MOL0     C 1403   1.680   5.300   3.147  0.0664 -0.3836  0.1590
  752MOL0     C 1404   1.642   5.360   3.264  0.3621 -0.9972  0.2038
  752MOL0     C 1405   1.529   5.462   3.275  0.7987  0.4762  0.5584
  752MOL0     C 1406   1.519   5.559   3.155 -0.2866  0.0910 -0.2623
  752MOL0     C 1407   1.400   5.654   3.175 -0.5127  0.0049 -0.4593
  752MOL0     C 1408   1.386   5.762   3.068 -0.8027 -0.4272 -0.6849
  752MOL0     O 1409   1.306   5.709   2.965 -0.1569  0.3170  0.3030
  752MOL0     C 1410   1.293   5.791   2.857 -0.1328 -0.0478  0.6196
  752MOL0     C 1411   1.369   5.897   2.809 -0.4016  0.0656  0.0515
  752MOL0     C 1412   1.350   5.966   2.690  0.2103 -0.8303  0.3249
  752MOL0     C 1413   1.254   5.911   2.596  0.4389  0.4285 -0.5060
  752MOL0     C 1414   1.244   5.969   2.461  0.2896  0.1003  0.7021
  752MOL0     O 1415   1.354   6.026   2.404 -0.0666  0.0022 -0.0246
  752MOL0     C 1416   1.335   6.124   2.314  0.5356  0.8320  0.7914
  752MOL0     C 1417   1.382   6.245   2.354 -0.3076  0.3367  0.0163
  752MOL0     C 1418   1.358   6.359   2.278 -0.4897  0.8164 -0.0088
  752MOL0     C 1419   1.309   6.348   2.148 -0.3842  0.6013  0.7701
  752MOL0     O 1420   1.288   6.460   2.069 -0.5038  0.9298  0.1255
  752MOL0     C 1421   1.386   6.559   2.073 -0.2517  0.9553 -0.3159
  752MOL0     C 1422   1.372   6.659   1.963  0.5056 -0.1490 -0.0523
  752MOL0     C 1423   1.473   6.774   1.962 -0.4041 -0.2522 -0.0026
  752MOL0     C 1424   1.620   6.721   1.952  1.3367  0.1437 -0.7613
  752MOL0     C 1425   1.732   6.819   1.926  0.6386 -0.4813 -0.6409
  752MOL0     C 1426   1.728   6.944   2.008  0.4402 -0.1233  0.2411
  752MOL0     C 1427   1.862   7.023   1.971 -0.3116 -0.1893 -0.1829
  752MOL0     C 1428   1.862   7.165   2.049  0.1975  0.1841  0.0194
  752MOL0    Cl 1429   1.707   7.252   2.028 -0.1230  1.0606 -0.1062
  752MOL0     C 1430   1.272   6.222   2.101  1.0806 -0.0313 -0.2821
  752MOL0     C 1431   1.282   6.114   2.183 -0.2283  0.6623 -0.6706
  752MOL0     O 1432   1.133   5.971   2.403 -0.6444 -0.2258  0.1514
  752MOL0     C 1433   1.183   5.802   2.641  0.9393 -0.1194  0.2927
  752MOL0     C 1434   1.201   5.743   2.760 -0.1948  1.6842  0.2706
  752MOL0     N 1435   1.734   5.321   3.358 -0.7434  0.2767  0.4628
  752MOL0     N 1436   1.817   5.230   3.309  0.0772 -0.2762  0.9603
  752MOL0     C 1437   2.325   5.937   2.462 -0.0965 -0.9845  0.3921
  752MOL0     C 1438   2.346   6.048   2.382 -0.6204  0.3075 -0.3481
  752MOL0     C 1439   2.351   6.397   2.137  0.1547  0.2709 -0.0679
  752MOL0     C 1440   2.478   6.390   2.078 -0.6803 -1.0298  0.2494
  752MOL0     C 1441   2.549   6.498   2.026 -0.5103 -0.9053  0.3851
  752MOL0     C 1442   2.505   6.626   2.062  0.6450  0.2529  0.3064
  752MOL0     O 1443   2.582   6.729   2.023 -0.6081 -0.1944 -0.3102
  752MOL0     C 1444   2.522   6.848   1.948  0.2925 -0.8023  0.1579
  752MOL0     C 1445   2.493   6.966   2.036  0.4504 -0.4739  0.6286
  752MOL0     C 1446   2.620   7.003   2.105 -0.6991  0.0882 -0.3975
  752MOL0     C 1447   2.607   7.118   2.199  0.3365 -0.3391  0.0331
  752MOL0     C 1448   2.501   7.102   2.290  0.1560  0.5171  0.2446
  752MOL0     C 1449   2.417   7.066   2.369 -0.4761 -0.9395  0.3990
  752MOL0     C 1450   2.371   6.634   2.101 -1.0123 -0.0544 -0.4046
  752MOL0     C 1451   2.295   6.524   2.142  0.4753  1.0213 -0.1313
  752MOL0     C 1452   2.154   6.539   2.209 -0.3959 -0.1212  1.0104
  752MOL0     H 1453   2.361   5.907   2.074  0.9061 -0.3680  0.2130
  752MOL0     H 1454   2.359   5.706   2.207  0.4836  0.6045  1.5758
  752MOL0     H 1455   2.213   5.615   2.319 -0.1326  2.1733  0.2903
  752MOL0     H 1456   2.308   5.501   2.426 -1.7082 -0.8454 -0.3842
  752MOL0     H 1457   2.055   5.500   2.437 -0.3935  1.2730 -0.8079
  752MOL0     H 1458   2.078   5.660   2.533  5.1932  0.9244  2.4559
  752MOL0     H 1459   2.207   5.545   2.709  1.0061 -1.2534  0.4698
  752MOL0     H 1460   2.188   5.396   2.599 -1.8259 -0.7804 -0.4962
  752MOL0     H 1461   1.972   5.545   2.755  2.1100  0.9180 -0.4943
  752MOL0     H 1462   1.958   5.378   2.674 -0.2756 -1.8299  2.6629
  752MOL0     H 1463   2.119   5.298   2.809  1.1907  1.6661 -1.9111
  752MOL0     H 1464   2.120   5.439   2.913 -1.0292 -0.0098 -0.3374
  752MOL0     H 1465   1.899   5.412   2.993 -0.4220  1.0643 -0.8445
  752MOL0     H 1466   1.855   5.291   2.856 -1.8269 -0.0297  2.6468
  752MOL0     H 1467   2.045   5.241   3.070 -0.3927  2.6671  0.4108
  752MOL0     H 1468   2.008   5.130   2.937 -0.0989  0.7820  0.0455
  752MOL0     H 1469   1.788   5.070   3.016 -0.2996 -2.4504  1.9204
  752MOL0     H 1470   1.897   5.042   3.147  0.7426 -0.1596 -0.8464
  752MOL0     H 1471   1.627   5.301   3.053 -1.9573 -0.6777  1.2363
  752MOL0     H 1472   1.435   5.406   3.282 -0.7561  2.9229  0.7165
  752MOL0     H 1473   1.524   5.523   3.366 -3.3486  0.6365  0.4071
  752MOL0     H 1474   1.616   5.607   3.139  0.0188 -0.6995 -0.8123
  752MOL0     H 1475   1.504   5.503   3.063 -0.0915  0.5312 -0.5679
  752MOL0     H 1476   1.423   5.706   3.268  0.3788 -1.1001 -0.0345
  752MOL0     H 1477   1.315   5.586   3.176  1.2136 -2.2994  0.9204
  752MOL0     H 1478   1.487   5.787   3.033 -0.3201  0.2328  1.0696
  752MOL0     H 1479   1.336   5.845   3.118 -2.8650 -1.6361 -0.5998
  752MOL0     H 1480   1.440   5.935   2.881 -1.4576 -0.1787  1.2592
  752MOL0     H 1481   1.414   6.049   2.662  0.3831 -1.4013 -1.0676
  752MOL0     H 1482   1.426   6.263   2.451 -0.1383 -0.1211  0.0283
  752MOL0     H 1483   1.371   6.459   2.319 -1.0180  1.1040 -0.5464
  752MOL0     H 1484   1.380   6.615   2.167  2.2686  1.5981 -0.4722
  752MOL0     H 1485   1.486   6.516   2.065 -0.0601  1.0197  1.4844
  752MOL0     H 1486   1.375   6.609   1.865 -0.0595  0.0598 -0.1749
  752MOL0     H 1487   1.271   6.695   1.981  0.9418  1.7299 -1.1211
  752MOL0     H 1488   1.453   6.842   1.879  2.2077 -1.4521 -1.7434
  752MOL0     H 1489   1.465   6.840   2.049  0.3951  0.6102 -0.5618
  752MOL0     H 1490   1.629   6.646   1.873 -3.0068  3.2231 -4.7250
  752MOL0     H 1491   1.634   6.675   2.050 -2.1496 -1.4635 -0.8702
  752MOL0     H 1492   1.724   6.845   1.821  1.6569  0.4900 -0.4976
  752MOL0     H 1493   1.826   6.764   1.939 -1.2528 -3.4732  1.9082
  752MOL0     H 1494   1.642   7.001   1.972  0.2928 -1.7617 -2.2710
  752MOL0     H 1495   1.709   6.919   2.113 -0.4756  2.1181  0.6478
  752MOL0     H 1496   1.867   7.048   1.865  0.6362  2.7090  0.4613
  752MOL0     H 1497   1.952   6.962   1.987  1.6400  2.4349 -0.5556
  752MOL0     H 1498   1.884   7.144   2.154  1.6680 -1.0504 -0.4965
  752MOL0     H 1499   1.945   7.222   2.006  1.2207  0.5981  2.3864
  752MOL0     H 1500   1.229   6.220   2.001  0.1451  2.2455 -0.0017
  752MOL0     H 1501   1.237   6.018   2.157 -1.7389  0.9234  0.7983
  752MOL0     H 1502   1.107   5.746   2.588 -2.3859  1.5379  2.8922
  752MOL0     H 1503   1.153   5.654   2.798 -0.4386  1.8779  0.4249
  752MOL0     H 1504   2.328   5.945   2.570  0.7807  2.5495  0.2211
  752MOL0     H 1505   2.345   6.144   2.433 -2.9296  0.1420  0.0337
  752MOL0     H 1506   2.524   6.292   2.075 -5.0383 -3.3078 -0.4275
  752MOL0     H 1507   2.640   6.465   1.977 -0.2039 -1.0505  1.0326
  752MOL0     H 1508   2.440   6.814   1.883  1.1275 -0.7192 -0.9599
  752MOL0     H 1509   2.597   6.892   1.881 -1.8266 -0.5234 -2.2226
  752MOL0     H 1510   2.411   6.937   2.101  1.0794  1.5184  2.4326
  752MOL0     H 1511   2.467   7.057   1.982  0.4095 -0.5579  0.5060
  752MOL0     H 1512   2.697   7.036   2.035  0.8678  1.3879  1.8042
  752MOL0     H 1513   2.664   6.913   2.149  3.1833  0.5675 -2.8363
  752MOL0     H 1514   2.694   7.138   2.262  0.3863 -5.1162  1.9023
  752MOL0     H 1515   2.599   7.212   2.143  2.8444 -0.1347 -0.1017
  752MOL0     H 1516   2.332   7.035   2.427 -0.7257  0.7528  0.9884
  752MOL0     H 1517   2.340   6.735   2.125  3.0796  1.5217 -1.0003
  752MOL0     H 1518   2.076   6.475   2.167  0.8246 -0.2824 -1.2193
  752MOL0     H 1519   2.149   6.529   2.317 -0.3608 -3.6564  0.8014
  752MOL0     H 1520   2.125   6.644   2.193  1.2602 -0.0502 -2.5022
  753MOL0     O 1521   3.821   9.091   3.961  0.3494 -0.3261  0.2326
  753MOL0     C 1522   3.751   9.159   3.886 -1.2258  0.0857 -0.6543
  753MOL0     O 1523   3.619   9.185   3.907 -0.1032 -0.2030 -0.1239
  753MOL0     C 1524   3.545   9.181   4.026 -0.5548 -0.4189  1.5266
  753MOL0     C 1525   3.596   9.179   4.156 -1.1634 -0.6325  0.5123
  753MOL0     C 1526   3.508   9.153   4.262  1.3248 -1.2923  0.3965
  753MOL0     C 1527   3.363   9.158   4.242  0.8578  0.2458 -0.5907
  753MOL0     O 1528   3.290   9.156   4.361 -0.1083 -0.6574  0.2999
  753MOL0     C 1529   3.153   9.187   4.348 -0.4924 -0.4243 -0.1698
  753MOL0     C 1530   3.070   9.179   4.484 -0.0227 -1.3342 -0.1336
  753MOL0     C 1531   2.917   9.198   4.462  0.2358 -0.1391 -0.2445
  753MOL0     C 1532   2.829   9.188   4.594  0.7986  0.5267 -0.5468
  753MOL0     C 1533   2.760   9.324   4.623  0.1264  0.1925  0.6371
  753MOL0     C 1534   2.710   9.348   4.769  0.2502  0.0023 -0.8227
  753MOL0     C 1535   2.613   9.245   4.826 -0.5748  0.6343  0.9018
  753MOL0     C 1536   2.565   9.281   4.966  0.1253 -0.4332  0.0869
  753MOL0     N 1537   2.452   9.195   5.010  0.3405 -0.6384  0.7072
  753MOL0     C 1538   2.448   9.058   5.009  0.4571  0.0419 -0.6314
  753MOL0     C 1539   2.319   9.029   5.045 -1.6428  0.9565  0.1769
  753MOL0     C 1540   2.278   8.878   5.037 -0.1527 -0.4737  0.1388
  753MOL0     C 1541   2.234   8.852   4.894 -0.3233  0.1728  0.7578
  753MOL0     C 1542   2.160   8.717   4.888 -0.4112  0.3173  1.0594
  753MOL0     C 1543   2.266   8.600   4.910  0.4172  0.0598  0.6379
  753MOL0     O 1544   2.234   8.509   5.011  0.0971 -0.0672  0.9574
  753MOL0     C 1545   2.193   8.381   4.976 -0.4351 -0.3716  0.2425
  753MOL0     C 1546   2.255   8.271   5.051 -0.7369 -0.0333  0.4866
  753MOL0     C 1547   2.196   8.141   5.032  0.0091  0.0205  0.4179
  753MOL0     C 1548   2.097   8.124   4.927 -0.6174  0.1382  0.7040
  753MOL0     C 1549   2.049   7.981   4.896 -0.6118 -0.3358  0.6907
  753MOL0     O 1550   2.109   7.879   4.962 -0.7503 -0.5656 -0.0055
  753MOL0     C 1551   2.069   7.754   4.928  0.1593 -0.7269  0.3094
  753MOL0     C 1552   1.967   7.683   5.011  0.1425 -0.6689  0.7859
  753MOL0     C 1553   1.938   7.553   4.986 -0.1470  0.5479  0.8296
  753MOL0     C 1554   1.987   7.488   4.874 -0.2197 -0.1222 -0.1997
  753MOL0     O 1555   1.939   7.369   4.831 -0.3834 -0.8819 -1.1821
  753MOL0     C 1556   1.794   7.350   4.852  0.6974  0.3713  0.2248
  753MOL0     C 1557   1.693   7.405   4.750 -0.2563 -0.4546  0.4787
  753MOL0     C 1558   1.743   7.400   4.615 -0.1304  0.2593  0.6794
  753MOL0     C 1559   1.627   7.373   4.505  0.0732 -0.5576  0.3516
  753MOL0     C 1560   1.678   7.364   4.364  0.0616  0.0051 -0.0636
  753MOL0     C 1561   1.570   7.320   4.254 -0.6868  0.5435  0.4754
  753MOL0     C 1562   1.623   7.340   4.120  0.5396 -1.5421  0.3141
  753MOL0     C 1563   1.544   7.267   4.016 -0.5567 -0.5450  0.2391
  753MOL0    Cl 1564   1.586   7.343   3.855 -0.1270 -0.3020  0.5239
  753MOL0     C 1565   2.073   7.557   4.781  0.8795  0.5844 -0.6963
  753MOL0     C 1566   2.124   7.684   4.815 -0.8010  0.5096  0.2426
  753MOL0     O 1567   1.954   7.968   4.819  0.4519 -0.7225  0.7578
  753MOL0     C 1568   2.040   8.230   4.853 -0.2172  0.2744  0.9122
  753MOL0     C 1569   2.091   8.356   4.881 -0.3901 -0.0965  0.0888
  753MOL0     N 1570   2.253   9.146   5.061 -1.0562 -0.3276 -0.0298
  753MOL0     N 1571   2.334   9.245   5.052  0.0589  0.0947  0.0768
  753MOL0     C 1572   3.322   9.173   4.108  0.3662 -0.5230  0.0906
  753MOL0     C 1573   3.411   9.179   4.002  0.1491  0.3685  0.3714
  753MOL0     C 1574   3.797   9.212   3.761 -0.1346 -0.0876  0.8821
  753MOL0     C 1575   3.773   9.142   3.640  0.0941 -0.2211  0.1306
  753MOL0     C 1576   3.811   9.203   3.522 -0.2948 -0.2284  0.0969
  753MOL0     C 1577   3.896   9.322   3.524 -0.0315  0.1889 -0.2797
  753MOL0     O 1578   3.943   9.384   3.414 -0.4531 -0.3513 -0.5463
  753MOL0     C 1579   3.928   9.328   3.280  0.2627 -0.1427 -0.5282
  753MOL0     C 1580   4.033   9.388   3.188  0.7240  0.5626 -0.8323
  753MOL0     C 1581   4.002   9.371   3.044  0.7115  0.2821  1.4553
  753MOL0     C 1582   4.126   9.382   2.953 -0.5441  0.3869  0.7917
  753MOL0     C 1583   4.172   9.529   2.979 -0.0962  0.8709  0.7470
  753MOL0     C 1584   4.205   9.637   3.004  0.2866 -0.4842 -0.3641
  753MOL0     C 1585   3.931   9.378   3.651  0.0611 -0.0058  0.0366
  753MOL0     C 1586   3.886   9.320   3.771  0.2881 -0.0321  0.9199
  753MOL0     C 1587   3.909   9.390   3.903  0.6248 -1.1635 -0.0652
  753MOL0     H 1588   3.703   9.191   4.172 -0.5051  1.8173 -4.0885
  753MOL0     H 1589   3.556   9.140   4.358 -0.1398 -1.5177  1.1338
  753MOL0     H 1590   3.142   9.286   4.303 -2.5859 -0.3631  0.3756
  753MOL0     H 1591   3.108   9.115   4.279 -2.2341 -1.1746  1.6363
  753MOL0     H 1592   3.102   9.250   4.561  1.8722 -0.2874 -1.7673
  753MOL0     H 1593   3.098   9.082   4.526  0.6511 -0.1269  2.4583
  753MOL0     H 1594   2.869   9.116   4.408 -2.4068  1.1540 -0.0087
  753MOL0     H 1595   2.899   9.296   4.416  0.3559  1.8413  3.4876
  753MOL0     H 1596   2.742   9.122   4.585  1.6272 -1.1371  2.2303
  753MOL0     H 1597   2.889   9.171   4.684 -1.5472 -1.2346  0.8264
  753MOL0     H 1598   2.821   9.412   4.603 -0.6289  1.1249  2.2324
  753MOL0     H 1599   2.669   9.329   4.561  0.6436 -2.7404 -0.5246
  753MOL0     H 1600   2.793   9.356   4.840 -1.6740 -2.1694  1.9423
  753MOL0     H 1601   2.663   9.446   4.778 -0.9469 -0.7021  1.1803
  753MOL0     H 1602   2.667   9.150   4.830 -1.6611  0.0337  2.4689
  753MOL0     H 1603   2.529   9.240   4.756  0.2597  0.9454 -0.1556
  753MOL0     H 1604   2.651   9.269   5.032 -0.2897  1.1842  0.9941
  753MOL0     H 1605   2.537   9.387   4.973  2.2967  0.2567 -0.7134
  753MOL0     H 1606   2.521   8.985   4.973  1.7359  1.0375 -0.1452
  753MOL0     H 1607   2.364   8.817   5.067  1.8465  1.7618 -0.7269
  753MOL0     H 1608   2.205   8.853   5.114  1.8834  0.6381  2.5647
  753MOL0     H 1609   2.166   8.931   4.861  1.6935  1.2131 -1.2258
  753MOL0     H 1610   2.313   8.851   4.818  0.2650  2.7814  1.2100
  753MOL0     H 1611   2.133   8.701   4.783  1.2336  1.7957  0.3611
  753MOL0     H 1612   2.068   8.724   4.948 -0.8946  0.3238  0.3397
  753MOL0     H 1613   2.367   8.639   4.928  0.8874 -0.7313 -0.1796
  753MOL0     H 1614   2.280   8.547   4.815  0.5446 -1.7229  1.5964
  753MOL0     H 1615   2.328   8.294   5.128 -0.1197  0.6387 -0.2767
  753MOL0     H 1616   2.220   8.052   5.090  1.5701 -0.0750 -0.3100
  753MOL0     H 1617   1.933   7.734   5.101 -0.5669 -3.4302  2.1794
  753MOL0     H 1618   1.870   7.510   5.059 -0.1128 -1.5084 -0.2828
  753MOL0     H 1619   1.780   7.242   4.837 -0.7753  0.6811 -0.8246
  753MOL0     H 1620   1.758   7.373   4.952  6.2131 -0.7531  2.8923
  753MOL0     H 1621   1.598   7.356   4.774 -0.1962 -1.1255 -0.5889
  753MOL0     H 1622   1.689   7.513   4.769 -0.5072 -0.1271 -1.2933
  753MOL0     H 1623   1.799   7.492   4.592  1.1569 -0.4131  0.9888
  753MOL0     H 1624   1.807   7.312   4.600 -3.0863 -1.5695 -2.4771
  753MOL0     H 1625   1.547   7.447   4.511  0.6047 -0.0933  2.3749
  753MOL0     H 1626   1.590   7.272   4.525  1.0102 -0.5703  2.1648
  753MOL0     H 1627   1.763   7.296   4.377  1.9060  2.0104 -0.9877
  753MOL0     H 1628   1.712   7.463   4.334 -1.5142  0.5764 -0.0619
  753MOL0     H 1629   1.542   7.216   4.268  1.7904 -0.4854 -1.4370
  753MOL0     H 1630   1.482   7.384   4.246 -0.4413  0.7203 -1.1154
  753MOL0     H 1631   1.725   7.300   4.124  0.5118 -1.6348  0.1035
  753MOL0     H 1632   1.621   7.446   4.092 -0.9831 -1.9524 -1.3439
  753MOL0     H 1633   1.551   7.157   4.020 -2.8377 -0.7997 -1.2526
  753MOL0     H 1634   1.440   7.278   4.048 -1.3273 -1.9736 -1.5569
  753MOL0     H 1635   2.109   7.500   4.696  1.9485 -2.3199  1.5218
  753MOL0     H 1636   2.214   7.726   4.771 -1.9648  0.7569 -2.0777
  753MOL0     H 1637   1.961   8.219   4.780 -0.9566  1.4355  1.4995
  753MOL0     H 1638   2.065   8.437   4.813 -0.0514  1.5723  1.8576
  753MOL0     H 1639   3.220   9.205   4.088  0.1822 -0.3239  1.2988
  753MOL0     H 1640   3.371   9.182   3.901  1.4124 -0.0659 -0.1625
  753MOL0     H 1641   3.706   9.057   3.634 -0.9119  0.6391 -0.9820
  753MOL0     H 1642   3.784   9.156   3.429  1.8920  1.9960 -1.8050
  753MOL0     H 1643   3.826   9.330   3.241  0.2226 -0.1080 -0.4231
  753MOL0     H 1644   3.969   9.227   3.287  2.6531  0.8620  2.4538
  753MOL0     H 1645   4.128   9.333   3.190  0.0380 -0.8693 -3.1068
  753MOL0     H 1646   4.041   9.494   3.213 -2.4220  0.5386  0.7654
  753MOL0     H 1647   3.930   9.448   3.013 -2.9670 -2.5203  2.3092
  753MOL0     H 1648   3.955   9.274   3.026 -0.8608  1.5881 -2.7296
  753MOL0     H 1649   4.202   9.309   2.983 -1.5640 -0.8373  0.5131
  753MOL0     H 1650   4.091   9.368   2.850 -3.8603  3.5498  1.2766
  753MOL0     H 1651   4.241   9.736   3.023  0.5796 -0.5306 -0.6519
  753MOL0     H 1652   3.985   9.472   3.650  0.0206  0.0884  1.9227
  753MOL0     H 1653   3.979   9.472   3.882 -1.7168  0.4665 -2.1199
  753MOL0     H 1654   3.811   9.435   3.918 -0.6150 -3.1129 -1.8606
  753MOL0     H 1655   3.951   9.335   3.988  1.4150 -0.6460 -0.1028
  754MOL0     O 1656   8.562   4.564   2.716  0.1613  0.2958  0.3753
  754MOL0     C 1657   8.477   4.650   2.717 -0.6900 -0.8273  0.4032
  754MOL0     O 1658   8.370   4.663   2.625  0.1337  0.8508 -0.7851
  754MOL0     C 1659   8.358   4.568   2.524 -0.4317  0.5438 -0.0666
  754MOL0     C 1660   8.366   4.430   2.527  0.0259  0.1585  0.6422
  754MOL0     C 1661   8.368   4.353   2.411 -0.2337 -1.2607 -0.4680
  754MOL0     C 1662   8.329   4.406   2.295 -0.5828 -0.1486 -0.4270
  754MOL0     O 1663   8.312   4.329   2.183 -1.1969 -0.0952  0.3510
  754MOL0     C 1664   8.442   4.269   2.152 -0.3106 -0.4788 -0.9664
  754MOL0     C 1665   8.476   4.264   2.008  0.2792  0.2495  0.3008
  754MOL0     C 1666   8.553   4.392   1.967 -0.5144  0.1639 -1.2574
  754MOL0     C 1667   8.579   4.384   1.816 -0.8139  0.0205  1.1845
  754MOL0     C 1668   8.724   4.326   1.775  0.0752  0.0471  0.0502
  754MOL0     C 1669   8.736   4.296   1.626  0.1662 -0.1820 -0.2453
  754MOL0     C 1670   8.679   4.166   1.573 -0.3248  0.1080 -0.7211
  754MOL0     C 1671   8.715   4.135   1.423 -0.3800  0.8146 -0.2620
  754MOL0     N 1672   8.600   4.173   1.343  0.6442 -1.1555 -0.0289
  754MOL0     C 1673   8.519   4.087   1.266 -0.9173 -0.1296 -0.1303
  754MOL0     C 1674   8.436   4.150   1.188  1.1086  0.8448  0.3233
  754MOL0     C 1675   8.322   4.088   1.097  0.0374 -0.5387  0.0435
  754MOL0     C 1676   8.198   4.055   1.187 -0.5515 -0.4172  0.1088
  754MOL0     C 1677   8.082   3.995   1.107  0.1688 -0.6576 -0.0735
  754MOL0     C 1678   7.996   3.911   1.208 -0.9562 -0.8710 -0.1670
  754MOL0     O 1679   8.042   3.773   1.213  0.0975 -0.1202 -0.3862
  754MOL0     C 1680   7.987   3.713   1.324  0.2561 -0.5999  0.2361
  754MOL0     C 1681   8.062   3.620   1.380 -0.0901  0.5132 -0.0359
  754MOL0     C 1682   8.031   3.555   1.505 -0.8816  0.2216 -0.2141
  754MOL0     C 1683   7.917   3.586   1.563  0.5636  0.3701  1.0027
  754MOL0     C 1684   7.874   3.519   1.682  0.0853 -0.5805  0.8508
  754MOL0     O 1685   7.895   3.387   1.685  0.8836  0.5304  0.2212
  754MOL0     C 1686   7.843   3.314   1.788  0.2743 -0.6984  0.3310
  754MOL0     C 1687   7.715   3.257   1.772  0.0433  0.1984 -0.2359
  754MOL0     C 1688   7.665   3.188   1.879  0.5104  0.3635 -0.3720
  754MOL0     C 1689   7.739   3.176   2.000 -0.0256  0.1184 -0.2080
  754MOL0     O 1690   7.680   3.095   2.099  0.1816  0.1992  0.7035
  754MOL0     C 1691   7.749   3.047   2.209  0.3181 -0.4392 -0.5047
  754MOL0     C 1692   7.644   3.010   2.308  0.6424 -0.6691  0.4834
  754MOL0     C 1693   7.696   2.909   2.409 -0.1133 -0.2597  0.1749
  754MOL0     C 1694   7.586   2.871   2.505  0.0126 -0.6208  0.7886
  754MOL0     C 1695   7.624   2.744   2.576  0.2374  0.3029 -0.3535
  754MOL0     C 1696   7.538   2.714   2.704 -0.0675  0.9693 -0.7089
  754MOL0     C 1697   7.590   2.614   2.801 -0.6631 -1.6018  0.1295
  754MOL0     C 1698   7.609   2.474   2.751  0.2212  1.2200 -0.3341
  754MOL0    Cl 1699   7.448   2.412   2.697  0.0905  0.1854 -0.0627
  754MOL0     C 1700   7.866   3.228   2.015  0.0740 -0.2128  0.0134
  754MOL0     C 1701   7.914   3.304   1.908 -0.1520  0.4441 -0.2110
  754MOL0     O 1702   7.857   3.591   1.784  0.4450  0.0818 -0.3602
  754MOL0     C 1703   7.825   3.674   1.499 -1.2415  0.2207  0.8581
  754MOL0     C 1704   7.859   3.738   1.381 -0.1148 -0.4709  0.0991
  754MOL0     N 1705   8.462   4.278   1.230  0.0989  0.6896 -0.3268
  754MOL0     N 1706   8.551   4.296   1.313  0.1457  0.5100  0.0512
  754MOL0     C 1707   8.282   4.543   2.296  0.4481 -0.0910  0.1219
  754MOL0     C 1708   8.315   4.630   2.407  0.2548  0.2981  0.3517
  754MOL0     C 1709   8.491   4.758   2.815 -0.1854  0.2652 -0.3898
  754MOL0     C 1710   8.370   4.809   2.855  0.2918  0.2953  0.3937
  754MOL0     C 1711   8.365   4.914   2.943 -0.1601 -1.4050 -0.8216
  754MOL0     C 1712   8.485   4.974   2.989  0.6412  0.7151  0.1053
  754MOL0     O 1713   8.490   5.058   3.093 -0.5494 -0.4059  0.5190
  754MOL0     C 1714   8.411   5.178   3.098  1.0317 -0.5155  0.0336
  754MOL0     C 1715   8.462   5.284   3.192  0.0634  0.2221  0.0607
  754MOL0     C 1716   8.579   5.364   3.132  1.4940 -0.6013 -0.6603
  754MOL0     C 1717   8.609   5.486   3.219  0.4125 -0.7472 -0.0782
  754MOL0     C 1718   8.699   5.577   3.147 -0.2928  0.5326  0.4875
  754MOL0     C 1719   8.775   5.652   3.099 -0.0882  0.6028  1.1823
  754MOL0     C 1720   8.609   4.925   2.949 -0.9583  0.4828 -0.7411
  754MOL0     C 1721   8.616   4.810   2.868  0.2193 -0.4402  0.6455
  754MOL0     C 1722   8.754   4.753   2.835 -0.4350  0.3063 -0.3417
  754MOL0     H 1723   8.370   4.359   2.609  1.8867 -4.5458 -3.0626
  754MOL0     H 1724   8.413   4.255   2.420  4.6715  0.8102  1.0043
  754MOL0     H 1725   8.525   4.309   2.211 -0.6836 -1.9902  0.6743
  754MOL0     H 1726   8.434   4.164   2.183 -1.9447 -0.0959 -0.0021
  754MOL0     H 1727   8.378   4.262   1.959  0.4990  0.6790 -0.1672
  754MOL0     H 1728   8.532   4.174   1.978 -0.0130  0.1969 -0.0980
  754MOL0     H 1729   8.645   4.409   2.024 -0.1823 -5.0283  0.2930
  754MOL0     H 1730   8.486   4.477   1.988  1.6003  1.8340 -0.8998
  754MOL0     H 1731   8.498   4.350   1.751  0.1640  2.1761 -1.3324
  754MOL0     H 1732   8.592   4.489   1.788 -0.2167 -1.2094 -4.0976
  754MOL0     H 1733   8.794   4.408   1.795 -1.9217  1.8048  0.1111
  754MOL0     H 1734   8.741   4.245   1.847  0.3088 -0.4358 -0.5370
  754MOL0     H 1735   8.688   4.378   1.572  1.0674  1.3653  1.2057
  754MOL0     H 1736   8.842   4.305   1.600  0.0648  0.2996 -0.5032
  754MOL0     H 1737   8.572   4.182   1.591  0.2277  1.0200  2.3292
  754MOL0     H 1738   8.719   4.087   1.638 -0.4933 -1.1905 -2.1422
  754MOL0     H 1739   8.804   4.186   1.387  0.4864  0.0434  0.7073
  754MOL0     H 1740   8.732   4.027   1.432  0.0254  1.0145  2.1025
  754MOL0     H 1741   8.528   3.979   1.253  0.2836  0.0474 -0.9313
  754MOL0     H 1742   8.292   4.161   1.021  1.0616 -0.3838 -0.2279
  754MOL0     H 1743   8.369   4.006   1.042 -1.0404 -2.0643  1.3051
  754MOL0     H 1744   8.233   3.982   1.260 -1.0703  0.5800  1.3979
  754MOL0     H 1745   8.179   4.148   1.241  0.8148  2.2873 -3.6425
  754MOL0     H 1746   8.128   3.921   1.039 -0.9766 -0.9493 -0.5529
  754MOL0     H 1747   8.025   4.065   1.046  0.4400 -0.4334 -0.0716
  754MOL0     H 1748   7.890   3.914   1.180 -0.6854  0.1477 -1.1526
  754MOL0     H 1749   7.993   3.964   1.303 -2.3562 -1.2431  0.0178
  754MOL0     H 1750   8.156   3.598   1.331 -0.2037  2.5091 -1.2444
  754MOL0     H 1751   8.097   3.479   1.548 -0.2906  1.5523  1.3385
  754MOL0     H 1752   7.662   3.249   1.677  0.3105 -2.2782 -0.2400
  754MOL0     H 1753   7.568   3.144   1.863  0.0651  0.4516  1.7627
  754MOL0     H 1754   7.813   2.959   2.194  0.1176 -0.3792 -1.7890
  754MOL0     H 1755   7.803   3.117   2.273 -0.5533  2.4991 -2.7691
  754MOL0     H 1756   7.611   3.103   2.354  1.0490 -0.9838  1.4454
  754MOL0     H 1757   7.562   2.972   2.247 -2.3558  2.7877  2.0241
  754MOL0     H 1758   7.732   2.818   2.361 -0.3270 -0.7733  0.9906
  754MOL0     H 1759   7.781   2.962   2.454  0.8828 -1.1456 -0.6093
  754MOL0     H 1760   7.491   2.856   2.454  0.5941  0.9586 -0.8621
  754MOL0     H 1761   7.576   2.943   2.587  0.1188  0.6304 -0.2667
  754MOL0     H 1762   7.727   2.759   2.609  1.3901 -0.5627 -3.2893
  754MOL0     H 1763   7.626   2.656   2.511 -0.9639  0.5284 -0.7254
  754MOL0     H 1764   7.524   2.803   2.766 -1.0084 -0.2379  0.8868
  754MOL0     H 1765   7.439   2.686   2.666  0.4344 -3.9023  0.7480
  754MOL0     H 1766   7.522   2.604   2.887  1.9879 -2.0005  2.3233
  754MOL0     H 1767   7.688   2.646   2.837 -0.4597 -1.1269 -0.8343
  754MOL0     H 1768   7.688   2.486   2.677  1.3098  1.7038  0.8717
  754MOL0     H 1769   7.653   2.413   2.830 -1.0240 -3.6514 -3.0388
  754MOL0     H 1770   7.929   3.213   2.102  0.3838  1.8865  0.2009
  754MOL0     H 1771   8.021   3.322   1.910 -0.4797  2.6613  2.2994
  754MOL0     H 1772   7.737   3.709   1.552 -1.5043 -1.1043  1.3532
  754MOL0     H 1773   7.792   3.818   1.350 -1.1911 -1.8221 -1.1730
  754MOL0     H 1774   8.228   4.587   2.212  2.6580  1.9705 -0.3191
  754MOL0     H 1775   8.294   4.737   2.414 -1.2669  0.0345  0.1908
  754MOL0     H 1776   8.278   4.771   2.812  1.0555 -1.3480  0.1310
  754MOL0     H 1777   8.278   4.956   2.993  0.2963  1.0014 -1.9292
  754MOL0     H 1778   8.309   5.152   3.128  0.3356  1.5510 -0.3464
  754MOL0     H 1779   8.403   5.223   2.998  2.6857  1.9184  0.9061
  754MOL0     H 1780   8.503   5.242   3.284  2.8716 -0.5832 -1.4626
  754MOL0     H 1781   8.376   5.347   3.217  1.7751  2.1020  1.4586
  754MOL0     H 1782   8.539   5.412   3.042 -0.2198 -1.9036 -0.6658
  754MOL0     H 1783   8.667   5.301   3.118  1.5092 -1.5597  2.8809
  754MOL0     H 1784   8.510   5.532   3.232  0.9308  0.5861 -0.7463
  754MOL0     H 1785   8.654   5.457   3.314 -1.6390 -3.6090  0.1508
  754MOL0     H 1786   8.849   5.715   3.052 -0.8436  1.2452  0.8248
  754MOL0     H 1787   8.700   4.974   2.983  0.7240 -2.1536 -1.1444
  754MOL0     H 1788   8.769   4.659   2.889  0.0037  1.6128  1.9334
  754MOL0     H 1789   8.762   4.727   2.729  0.9023  0.7702 -0.3738
  754MOL0     H 1790   8.837   4.820   2.859  1.4383 -1.8113 -0.6347
  755MOL0     O 1791   4.869   5.283  10.844  0.0719  0.2383  0.1742
  755MOL0     C 1792   4.761   5.286  10.898  0.7878  0.1317 -0.1975
  755MOL0     O 1793   4.680   5.395  10.922 -0.5901  0.0804  0.5735
  755MOL0     C 1794   4.727   5.511  10.870 -0.9743  0.4939  0.1319
  755MOL0     C 1795   4.739   5.539  10.728 -0.4939 -0.3706  0.0464
  755MOL0     C 1796   4.760   5.669  10.690  0.0221  0.3389 -1.0530
  755MOL0     C 1797   4.777   5.768  10.788  0.2478 -0.7450 -0.0273
  755MOL0     O 1798   4.812   5.895  10.753 -0.3826 -0.3270 -0.3573
  755MOL0     C 1799   4.953   5.915  10.727  0.3532 -0.3518 -0.8979
  755MOL0     C 1800   4.986   6.059  10.672  0.4345  0.2041  0.4246
  755MOL0     C 1801   4.889   6.109  10.567 -0.3103  0.0494  0.0653
  755MOL0     C 1802   4.880   6.015  10.448 -0.0005  0.0821 -0.2930
  755MOL0     C 1803   4.803   6.058  10.327  0.5217  0.2677  0.5303
  755MOL0     C 1804   4.651   6.096  10.366 -0.3067 -0.3574  0.8629
  755MOL0     C 1805   4.565   5.986  10.438 -0.0118 -0.4873  0.6468
  755MOL0     C 1806   4.421   6.021  10.466  0.2454  0.3190  1.4198
  755MOL0     N 1807   4.373   5.932  10.571  0.4695  0.1446 -0.0142
  755MOL0     C 1808   4.394   5.949  10.711 -0.4591  0.8355  0.1189
  755MOL0     C 1809   4.340   5.842  10.770 -0.3834  0.1577  0.0829
  755MOL0     C 1810   4.332   5.829  10.914  0.4796  1.0646  0.0416
  755MOL0     C 1811   4.385   5.699  10.972 -0.2254 -0.4465 -0.4895
  755MOL0     C 1812   4.307   5.646  11.093 -0.1192  0.2536  0.1219
  755MOL0     C 1813   4.374   5.529  11.168  0.1872 -0.3052  0.2789
  755MOL0     O 1814   4.341   5.394  11.127  0.4002  0.2498  0.6323
  755MOL0     C 1815   4.254   5.320  11.211 -0.6240  0.7041  0.1713
  755MOL0     C 1816   4.296   5.279  11.339 -0.2906  0.4262  0.2406
  755MOL0     C 1817   4.228   5.189  11.416 -0.1006  0.8910  0.4608
  755MOL0     C 1818   4.107   5.133  11.364  0.7411 -0.0449  0.3343
  755MOL0     C 1819   4.037   5.025  11.438 -0.0740  0.0313 -0.6053
  755MOL0     O 1820   4.098   4.976  11.551  0.0921  0.0101 -0.0647
  755MOL0     C 1821   4.025   4.909  11.651  0.4105 -0.0574 -0.0774
  755MOL0     C 1822   4.064   4.936  11.784 -0.6018  0.0287 -0.5085
  755MOL0     C 1823   4.018   4.862  11.899  0.3376  0.7930  0.9602
  755MOL0     C 1824   3.905   4.766  11.866  0.9659 -0.4306 -0.2800
  755MOL0     O 1825   3.837   4.720  11.978  0.6327 -0.9463 -0.7831
  755MOL0     C 1826   3.885   4.736  12.111 -0.2161  0.3020  0.2422
  755MOL0     C 1827   3.810   4.624  12.185 -0.4736  0.0037 -0.1040
  755MOL0     C 1828   3.849   4.611  12.333  0.1693  0.4640  0.5503
  755MOL0     C 1829   3.753   4.671  12.427  0.5103  0.4242  0.1081
  755MOL0     C 1830   3.822   4.668  12.565  0.1720  0.4756  0.1202
  755MOL0     C 1831   3.713   4.728  12.667  0.6376  0.1409 -0.4191
  755MOL0     C 1832   3.769   4.718  12.808 -0.5887 -0.1834 -0.2839
  755MOL0     C 1833   3.688   4.797  12.913  0.0497 -0.2766 -1.2151
  755MOL0    Cl 1834   3.700   4.972  12.907 -0.2832 -0.3249  0.1176
  755MOL0     C 1835   3.856   4.762  11.730  0.1576 -0.1002  0.0878
  755MOL0     C 1836   3.917   4.829  11.632 -0.1771  0.1829 -0.8886
  755MOL0     O 1837   3.926   4.999  11.393 -0.1398 -0.3616  0.0412
  755MOL0     C 1838   4.049   5.199  11.248  0.2077 -0.1517  0.1344
  755MOL0     C 1839   4.120   5.293  11.170 -0.3267  0.0763 -0.5832
  755MOL0     N 1840   4.296   5.754  10.679  0.0124 -0.0148 -0.3303
  755MOL0     N 1841   4.307   5.818  10.561 -0.2909  0.7984 -1.0933
  755MOL0     C 1842   4.802   5.732  10.922  0.5610 -0.5774  0.5860
  755MOL0     C 1843   4.779   5.603  10.959 -0.0329 -0.9907  0.6995
  755MOL0     C 1844   4.712   5.148  10.942 -0.1973  0.1154  0.1563
  755MOL0     C 1845   4.569   5.140  10.956  0.2291  0.3982 -0.5488
  755MOL0     C 1846   4.508   5.018  10.976 -0.6765 -0.2284 -0.3148
  755MOL0     C 1847   4.580   4.902  10.963 -0.3026  0.7277 -0.6729
  755MOL0     O 1848   4.503   4.785  10.976 -0.2328 -0.1225 -0.0351
  755MOL0     C 1849   4.567   4.655  10.998  0.2699  0.1386  0.2183
  755MOL0     C 1850   4.453   4.570  11.060  1.2309  0.2721  0.8684
  755MOL0     C 1851   4.456   4.575  11.213 -0.9121 -0.1264  0.0861
  755MOL0     C 1852   4.361   4.480  11.276  0.0055  0.7497  0.0100
  755MOL0     C 1853   4.408   4.345  11.254  0.6080 -0.0730 -0.3635
  755MOL0     C 1854   4.444   4.233  11.240  0.3481  0.0484 -0.3792
  755MOL0     C 1855   4.718   4.905  10.951  0.0786  0.5450  0.3483
  755MOL0     C 1856   4.790   5.020  10.945 -0.2281  0.0517  0.6933
  755MOL0     C 1857   4.932   5.027  10.933  0.7646 -0.3954 -0.3784
  755MOL0     H 1858   4.727   5.451  10.665 -0.0402 -0.0394 -0.5109
  755MOL0     H 1859   4.759   5.702  10.587  2.7722 -1.7742 -1.8793
  755MOL0     H 1860   5.000   5.920  10.825  1.2393  1.6283 -1.3658
  755MOL0     H 1861   4.997   5.831  10.672  0.8136 -1.5275  1.1903
  755MOL0     H 1862   5.087   6.066  10.631 -1.0443  1.5093 -3.4119
  755MOL0     H 1863   4.990   6.129  10.756  2.7152  0.9168 -0.2091
  755MOL0     H 1864   4.914   6.209  10.530 -1.3717  0.0592 -0.7042
  755MOL0     H 1865   4.786   6.106  10.604 -0.4424  0.9824 -0.1975
  755MOL0     H 1866   4.976   5.993  10.400 -0.0819 -1.1948  0.1028
  755MOL0     H 1867   4.834   5.922  10.480 -0.4647 -0.8230 -3.2646
  755MOL0     H 1868   4.853   6.149  10.293 -0.6127  1.1621  1.1799
  755MOL0     H 1869   4.808   5.978  10.252 -2.5457  1.0370 -0.6667
  755MOL0     H 1870   4.661   6.191  10.420 -2.2814  0.7599 -0.6220
  755MOL0     H 1871   4.600   6.117  10.272  0.1747  2.5691  1.1588
  755MOL0     H 1872   4.618   5.943  10.523 -0.9144  0.5779  1.7990
  755MOL0     H 1873   4.559   5.911  10.359 -1.5905  0.0223  0.2342
  755MOL0     H 1874   4.409   6.122  10.506 -0.9007 -0.0001  1.9386
  755MOL0     H 1875   4.362   6.016  10.373  0.4951  4.6956  0.8196
  755MOL0     H 1876   4.441   6.031  10.762 -0.4640  1.1330 -0.3523
  755MOL0     H 1877   4.388   5.913  10.957 -2.2811  2.8908  0.3413
  755MOL0     H 1878   4.234   5.845  10.959  0.1249 -2.6217  0.9057
  755MOL0     H 1879   4.386   5.611  10.907  0.4956 -0.4209 -0.5127
  755MOL0     H 1880   4.486   5.720  11.008 -1.2984  1.7488  1.4651
  755MOL0     H 1881   4.202   5.619  11.073  0.9515 -4.2580 -0.6126
  755MOL0     H 1882   4.301   5.727  11.166 -0.5854  1.1202 -0.8508
  755MOL0     H 1883   4.319   5.530  11.263 -1.8802 -4.0177 -0.6508
  755MOL0     H 1884   4.480   5.545  11.190  0.5359 -1.2919 -0.5624
  755MOL0     H 1885   4.383   5.323  11.387 -0.7973  1.1403  0.5169
  755MOL0     H 1886   4.268   5.163  11.514  3.5897 -0.1822 -1.1668
  755MOL0     H 1887   4.147   5.006  11.791 -0.8538  0.4643 -1.7304
  755MOL0     H 1888   4.067   4.882  11.993  0.2705  0.1871  1.1296
  755MOL0     H 1889   3.994   4.728  12.112 -0.0312  2.1946  1.5329
  755MOL0     H 1890   3.860   4.838  12.142  0.9935  2.3386 -4.4587
  755MOL0     H 1891   3.702   4.622  12.163 -0.3949 -2.2388 -0.5403
  755MOL0     H 1892   3.850   4.541  12.125  4.3696 -0.7918  3.6683
  755MOL0     H 1893   3.886   4.509  12.343  0.3061  0.4883  0.3025
  755MOL0     H 1894   3.942   4.669  12.341 -0.5934  1.7715  0.3464
  755MOL0     H 1895   3.661   4.612  12.426  1.5817 -1.3783 -2.6818
  755MOL0     H 1896   3.750   4.773  12.389 -1.4753  0.2685 -0.2509
  755MOL0     H 1897   3.913   4.728  12.557  2.7370 -2.9973  0.9117
  755MOL0     H 1898   3.839   4.562  12.587 -3.7065 -0.2464  0.3657
  755MOL0     H 1899   3.680   4.828  12.637  0.9260 -0.5475 -3.3991
  755MOL0     H 1900   3.632   4.655  12.658  0.5352  0.0475  1.0493
  755MOL0     H 1901   3.870   4.760  12.807 -0.6009 -0.1632 -0.8032
  755MOL0     H 1902   3.768   4.614  12.842 -1.1455  0.6791  2.6067
  755MOL0     H 1903   3.583   4.767  12.904  0.0169 -1.2772  1.5629
  755MOL0     H 1904   3.724   4.754  13.006 -0.4048  2.5465  0.3649
  755MOL0     H 1905   3.760   4.715  11.710 -0.0917 -0.1150  1.2614
  755MOL0     H 1906   3.888   4.803  11.531 -3.7108  3.3911 -0.8892
  755MOL0     H 1907   3.956   5.153  11.216  0.7773 -1.6231  0.5010
  755MOL0     H 1908   4.076   5.341  11.083  0.8879  0.9892 -0.7259
  755MOL0     H 1909   4.829   5.810  10.993 -0.1893  0.3883 -0.1636
  755MOL0     H 1910   4.789   5.563  11.059 -0.5884 -0.1287  1.1114
  755MOL0     H 1911   4.509   5.230  10.954 -3.8262 -2.1003 -1.0587
  755MOL0     H 1912   4.399   5.019  10.978 -0.6999 -0.3044 -1.2167
  755MOL0     H 1913   4.647   4.655  11.072  2.1780 -1.8128 -1.6802
  755MOL0     H 1914   4.609   4.622  10.902 -0.8724  4.0815 -1.8431
  755MOL0     H 1915   4.474   4.465  11.040 -1.0681 -0.0376 -0.1996
  755MOL0     H 1916   4.355   4.601  11.022  2.0014  2.3931  0.4958
  755MOL0     H 1917   4.442   4.678  11.247 -2.5121  0.8272 -3.1049
  755MOL0     H 1918   4.552   4.541  11.253 -3.0671 -0.3060  6.2620
  755MOL0     H 1919   4.355   4.505  11.383  1.6477  0.7546  0.1384
  755MOL0     H 1920   4.266   4.508  11.230 -2.2578 -0.6687  3.3905
  755MOL0     H 1921   4.454   4.127  11.225  1.0977  0.1988 -1.0585
  755MOL0     H 1922   4.774   4.813  10.941 -2.7868 -1.0217 -3.4096
  755MOL0     H 1923   4.959   5.043  10.828  2.2743 -1.5222 -0.1984
  755MOL0     H 1924   4.970   5.113  10.989 -0.6551  1.3031 -1.9058
  755MOL0     H 1925   4.971   4.932  10.971 -0.9522  0.0385  2.7662
  756MOL0     O 1926   2.985   4.666   7.972  0.3765  0.0113 -0.3719
  756MOL0     C 1927   2.867   4.695   7.969  0.1470  0.0295 -0.2295
  756MOL0     O 1928   2.815   4.758   7.864 -0.5541 -0.2284 -0.6880
  756MOL0     C 1929   2.888   4.821   7.764 -0.5066 -0.6168  0.1422
  756MOL0     C 1930   2.992   4.775   7.687 -0.6508 -0.4375 -0.4360
  756MOL0     C 1931   3.065   4.851   7.596 -0.9618 -0.2174  0.1348
  756MOL0     C 1932   3.033   4.986   7.574  0.3035 -0.3764  0.1471
  756MOL0     O 1933   3.089   5.071   7.482 -0.5569 -0.2988  0.5181
  756MOL0     C 1934   3.204   5.032   7.421 -1.2979  0.0657  0.0807
  756MOL0     C 1935   3.259   5.130   7.312  0.1659  0.3152 -0.2409
  756MOL0     C 1936   3.322   5.246   7.382 -0.4823 -0.0343 -0.0209
  756MOL0     C 1937   3.380   5.350   7.286  0.4259  0.0817 -0.9172
  756MOL0     C 1938   3.428   5.478   7.352 -0.0370 -0.7500  0.0759
  756MOL0     C 1939   3.556   5.531   7.275  0.0047 -0.7059 -0.4645
  756MOL0     C 1940   3.532   5.612   7.145 -0.0280  0.1351 -0.1101
  756MOL0     C 1941   3.509   5.756   7.173 -0.1769 -0.2293  0.2817
  756MOL0     N 1942   3.515   5.841   7.051 -0.0609 -0.6458 -0.2949
  756MOL0     C 1943   3.629   5.889   6.982  0.9070 -0.3304 -0.4998
  756MOL0     C 1944   3.584   5.980   6.893  0.4323  0.2562  0.1548
  756MOL0     C 1945   3.683   6.051   6.803  0.7021 -0.8129  0.3647
  756MOL0     C 1946   3.819   5.977   6.777 -0.0734  1.2900 -0.6357
  756MOL0     C 1947   3.878   6.019   6.650 -0.4891  0.0019  0.3268
  756MOL0     C 1948   4.026   5.964   6.644  0.5670  0.6266 -0.3026
  756MOL0     O 1949   4.104   6.045   6.555  0.2654  0.5572 -0.1490
  756MOL0     C 1950   4.241   6.036   6.589  0.4940 -0.2601  0.6323
  756MOL0     C 1951   4.321   6.153   6.587 -0.0315 -0.2953 -0.1880
  756MOL0     C 1952   4.443   6.154   6.646 -0.9372 -0.8643  0.0457
  756MOL0     C 1953   4.503   6.040   6.700 -1.0700  0.9238 -0.2870
  756MOL0     C 1954   4.640   6.042   6.755 -0.2128 -0.3170  0.4044
  756MOL0     O 1955   4.679   6.163   6.792  1.2531 -1.2440  0.2340
  756MOL0     C 1956   4.789   6.172   6.872  0.4834 -0.5019  1.0833
  756MOL0     C 1957   4.780   6.196   7.010  0.4612  0.3649 -0.3176
  756MOL0     C 1958   4.894   6.207   7.091 -0.6251 -0.4640 -0.7784
  756MOL0     C 1959   5.020   6.196   7.027  0.2433 -0.4528 -0.8475
  756MOL0     O 1960   5.132   6.217   7.110 -0.3980 -0.4888  0.1680
  756MOL0     C 1961   5.220   6.105   7.126  0.8533 -0.2367  0.6633
  756MOL0     C 1962   5.359   6.155   7.167  0.6164 -0.0500 -0.0713
  756MOL0     C 1963   5.444   6.191   7.039 -0.4471 -0.2156 -0.1083
  756MOL0     C 1964   5.589   6.211   7.078 -0.8603  0.6660  0.6511
  756MOL0     C 1965   5.655   6.307   6.976  0.3940  0.3262 -0.1360
  756MOL0     C 1966   5.806   6.312   7.014  0.2215 -0.1506  0.6716
  756MOL0     C 1967   5.844   6.357   7.160  0.5027  0.2150  0.2311
  756MOL0     C 1968   5.997   6.396   7.174 -0.4435 -0.5011  0.1249
  756MOL0    Cl 1969   6.102   6.275   7.114 -0.2410  0.4922  0.0332
  756MOL0     C 1970   5.034   6.180   6.890  1.0163  0.0516 -0.3368
  756MOL0     C 1971   4.921   6.162   6.807  0.8018 -0.2148 -0.2938
  756MOL0     O 1972   4.704   5.938   6.767 -0.1543 -0.2331  0.9142
  756MOL0     C 1973   4.428   5.916   6.698 -0.6724  1.0004  0.7552
  756MOL0     C 1974   4.304   5.915   6.635  0.0758 -0.7359  0.6234
  756MOL0     N 1975   3.444   5.993   6.905  0.7847  0.9590 -0.3625
  756MOL0     N 1976   3.406   5.912   7.002  1.2479  0.4257  0.1195
  756MOL0     C 1977   2.928   5.033   7.636 -0.5383 -0.2126 -1.1018
  756MOL0     C 1978   2.855   4.952   7.734 -0.9697 -0.9309 -0.1118
  756MOL0     C 1979   2.772   4.648   8.082 -0.1721 -0.4777 -0.1063
  756MOL0     C 1980   2.695   4.761   8.127  0.1407  0.8488 -0.1051
  756MOL0     C 1981   2.600   4.740   8.225 -0.8995  0.4714 -0.1670
  756MOL0     C 1982   2.574   4.612   8.273 -0.9218 -0.3933  0.7460
  756MOL0     O 1983   2.463   4.597   8.352 -0.5602 -0.1324 -0.4478
  756MOL0     C 1984   2.345   4.571   8.277  0.8986  0.1246  0.1150
  756MOL0     C 1985   2.219   4.567   8.369 -0.0639 -0.1116  0.7599
  756MOL0     C 1986   2.093   4.530   8.295  0.4345 -0.2980 -0.0009
  756MOL0     C 1987   2.028   4.650   8.226 -0.3159 -0.2171 -1.6418
  756MOL0     C 1988   1.981   4.756   8.310  0.8780  0.5145  0.1229
  756MOL0     C 1989   1.925   4.840   8.377 -0.1142 -0.1659 -0.7724
  756MOL0     C 1990   2.663   4.512   8.241  0.3892  0.4067 -1.0533
  756MOL0     C 1991   2.746   4.520   8.128  0.5870  0.4763  0.4445
  756MOL0     C 1992   2.823   4.403   8.072 -1.4668  0.3227  0.0110
  756MOL0     H 1993   3.011   4.671   7.712 -0.4955  0.1985  2.5540
  756MOL0     H 1994   3.159   4.818   7.553  0.2461  0.9981  1.7086
  756MOL0     H 1995   3.284   5.017   7.494 -0.1716  1.0215 -0.9051
  756MOL0     H 1996   3.182   4.939   7.368  1.3957 -1.0786  0.8094
  756MOL0     H 1997   3.182   5.147   7.236  1.4678 -1.2443 -2.0070
  756MOL0     H 1998   3.329   5.069   7.254  0.5443 -0.1348  0.6848
  756MOL0     H 1999   3.407   5.209   7.440 -1.3752  1.5741  2.4674
  756MOL0     H 2000   3.244   5.289   7.445 -2.1082 -0.7654 -1.4432
  756MOL0     H 2001   3.464   5.301   7.237  2.3832  2.2115  0.1233
  756MOL0     H 2002   3.309   5.365   7.203  0.8400 -1.2643 -1.5508
  756MOL0     H 2003   3.350   5.547   7.384  0.7941 -0.0231  0.5679
  756MOL0     H 2004   3.467   5.456   7.452  2.6625  1.9049 -0.2377
  756MOL0     H 2005   3.607   5.592   7.350 -1.2393 -0.0095 -0.1430
  756MOL0     H 2006   3.634   5.457   7.257 -0.0109 -0.9679  0.4778
  756MOL0     H 2007   3.444   5.574   7.093 -2.0313  1.5565  2.0329
  756MOL0     H 2008   3.623   5.603   7.085 -1.4984  0.5416 -2.5304
  756MOL0     H 2009   3.411   5.771   7.219 -0.2206  0.1104  0.0809
  756MOL0     H 2010   3.577   5.789   7.252 -2.6941  2.4469  1.5269
  756MOL0     H 2011   3.729   5.855   7.009  1.6345  1.3373 -0.9917
  756MOL0     H 2012   3.634   6.060   6.705  1.8706  1.0462 -0.1060
  756MOL0     H 2013   3.694   6.150   6.849  1.0505  1.8927 -4.7884
  756MOL0     H 2014   3.882   6.015   6.859 -0.7942  2.5910 -0.6665
  756MOL0     H 2015   3.801   5.869   6.784  1.4781  1.0907  1.6872
  756MOL0     H 2016   3.878   6.126   6.629 -2.2089 -0.1677 -0.7153
  756MOL0     H 2017   3.822   5.973   6.568  0.9246 -2.1372  0.4858
  756MOL0     H 2018   4.025   5.865   6.596 -1.5046 -1.1175  2.9315
  756MOL0     H 2019   4.067   5.944   6.744  3.8843 -1.7543 -1.9590
  756MOL0     H 2020   4.286   6.248   6.549 -1.3959  0.2311  2.1496
  756MOL0     H 2021   4.500   6.245   6.653  0.5882 -1.8715  1.5279
  756MOL0     H 2022   4.689   6.200   7.069 -0.5011 -0.9277 -1.6455
  756MOL0     H 2023   4.887   6.213   7.199 -1.0679  0.6704 -0.8557
  756MOL0     H 2024   5.181   6.041   7.206  0.5644 -2.2704 -0.9965
  756MOL0     H 2025   5.226   6.041   7.037 -0.3745 -0.4363  0.7060
  756MOL0     H 2026   5.362   6.239   7.238  3.2980 -2.8479  3.5467
  756MOL0     H 2027   5.406   6.070   7.218 -0.5481 -0.3468  0.5373
  756MOL0     H 2028   5.440   6.120   6.956  4.5450 -0.2807 -0.6086
  756MOL0     H 2029   5.410   6.287   7.000 -2.2337  0.0465  1.9039
  756MOL0     H 2030   5.649   6.120   7.068 -2.1851 -0.1038 -0.6727
  756MOL0     H 2031   5.598   6.252   7.179  1.5253  0.0672  0.7508
  756MOL0     H 2032   5.614   6.408   6.988 -0.5606 -0.0269 -0.3460
  756MOL0     H 2033   5.633   6.266   6.878 -1.3003 -0.5366  0.5665
  756MOL0     H 2034   5.850   6.213   7.000 -1.7615 -1.1555  1.2128
  756MOL0     H 2035   5.852   6.381   6.942 -1.1933  1.1273  0.9480
  756MOL0     H 2036   5.815   6.276   7.228  0.9755 -0.8171 -0.7616
  756MOL0     H 2037   5.790   6.446   7.195  0.2057  0.4411 -0.7601
  756MOL0     H 2038   6.013   6.484   7.111 -0.4643  0.2369  1.1084
  756MOL0     H 2039   6.019   6.421   7.279 -0.0095 -1.8704  0.3822
  756MOL0     H 2040   5.134   6.179   6.848  0.6661 -1.3171 -1.2013
  756MOL0     H 2041   4.919   6.148   6.700 -2.9803  2.6259 -0.8245
  756MOL0     H 2042   4.453   5.830   6.760 -4.6278 -0.5790  0.4226
  756MOL0     H 2043   4.256   5.819   6.650  0.0094 -0.5393  1.7370
  756MOL0     H 2044   2.900   5.135   7.614 -1.1030 -0.4579 -1.5641
  756MOL0     H 2045   2.781   4.999   7.799 -1.8307  0.9073 -2.2904
  756MOL0     H 2046   2.702   4.861   8.084  1.0609  0.8221 -0.0465
  756MOL0     H 2047   2.537   4.820   8.262  0.6345  0.9290  1.6061
  756MOL0     H 2048   2.369   4.478   8.225  0.5851 -0.5861  1.1962
  756MOL0     H 2049   2.336   4.629   8.185  3.0288 -3.3873 -2.5624
  756MOL0     H 2050   2.206   4.662   8.422  0.4253  0.7892 -0.6650
  756MOL0     H 2051   2.239   4.493   8.447  1.8598 -0.9715 -0.4765
  756MOL0     H 2052   2.021   4.492   8.368 -0.6857 -0.4686 -1.1608
  756MOL0     H 2053   2.107   4.446   8.227 -2.6026 -1.3930  0.5511
  756MOL0     H 2054   2.103   4.702   8.165  0.5182  1.5319  0.7311
  756MOL0     H 2055   1.942   4.631   8.161 -2.4391  1.3648  0.5410
  756MOL0     H 2056   1.881   4.920   8.434  4.3118  2.1990 -0.2452
  756MOL0     H 2057   2.652   4.414   8.286  2.6330 -0.3805 -2.0697
  756MOL0     H 2058   2.867   4.340   8.150  3.5618  1.0165 -1.9147
  756MOL0     H 2059   2.763   4.343   8.004  0.8847  0.0002 -1.9174
  756MOL0     H 2060   2.910   4.431   8.011 -1.2941  2.4913  1.1398
  757MOL0     O 2061   6.900   5.898   2.766  0.4653  0.5906  0.0752
  757MOL0     C 2062   6.800   5.966   2.775  0.1724  0.2954  0.2255
  757MOL0     O 2063   6.796   6.084   2.841 -0.1506 -0.0786  0.3762
  757MOL0     C 2064   6.910   6.165   2.853  0.7370 -0.4317 -0.2259
  757MOL0     C 2065   6.909   6.297   2.809 -0.2254 -1.2807  0.1734
  757MOL0     C 2066   7.012   6.385   2.835 -0.3563 -0.4268 -0.2942
  757MOL0     C 2067   7.121   6.347   2.919  0.7560  0.8718 -0.1354
  757MOL0     O 2068   7.225   6.423   2.961 -0.4848  0.5525 -0.1636
  757MOL0     C 2069   7.209   6.565   2.923 -0.5473  0.5541 -0.1572
  757MOL0     C 2070   7.319   6.662   2.967  0.8552  0.0497  0.8442
  757MOL0     C 2071   7.329   6.804   2.903 -0.3933  0.6240 -0.4588
  757MOL0     C 2072   7.436   6.823   2.789  0.2964  0.7043 -0.3294
  757MOL0     C 2073   7.418   6.970   2.741  0.1542  1.1080 -0.5107
  757MOL0     C 2074   7.448   7.085   2.842  0.0092  0.2568  1.6023
  757MOL0     C 2075   7.590   7.066   2.924  0.4657  0.1562  0.0020
  757MOL0     C 2076   7.627   7.191   3.017  0.4095  1.0561  1.3691
  757MOL0     N 2077   7.505   7.242   3.081  0.4003  0.5013  0.1608
  757MOL0     C 2078   7.435   7.170   3.181  0.2332 -0.3160  0.2885
  757MOL0     C 2079   7.317   7.246   3.200  0.1759 -0.1244  0.4658
  757MOL0     C 2080   7.210   7.229   3.304 -0.8341 -0.0443 -0.5361
  757MOL0     C 2081   7.280   7.229   3.442 -0.4456  0.7143  0.5693
  757MOL0     C 2082   7.173   7.231   3.550  1.1463 -0.3361 -0.0757
  757MOL0     C 2083   7.216   7.281   3.692  0.1021  0.5069  0.3437
  757MOL0     O 2084   7.313   7.394   3.684  0.3764 -0.6866  0.8831
  757MOL0     C 2085   7.342   7.441   3.806 -0.1042 -0.4602  0.2295
  757MOL0     C 2086   7.297   7.570   3.839  0.8077 -0.8204 -0.1580
  757MOL0     C 2087   7.318   7.619   3.968  0.1335 -0.5300  0.0504
  757MOL0     C 2088   7.400   7.546   4.058  0.1833 -0.0097  0.3607
  757MOL0     C 2089   7.424   7.608   4.188 -0.3135 -0.1565 -0.3782
  757MOL0     O 2090   7.429   7.522   4.295  0.6069  0.6967 -0.7171
  757MOL0     C 2091   7.448   7.569   4.417 -0.3219 -0.2059  0.1823
  757MOL0     C 2092   7.329   7.604   4.492 -1.3358 -0.0920  0.0761
  757MOL0     C 2093   7.362   7.657   4.620  0.7611  0.1631 -0.7957
  757MOL0     C 2094   7.486   7.671   4.680  0.0983 -0.3126 -0.2416
  757MOL0     O 2095   7.489   7.737   4.808 -0.4647 -0.2851  1.1153
  757MOL0     C 2096   7.611   7.771   4.865  0.3209 -0.0945 -0.2079
  757MOL0     C 2097   7.659   7.907   4.820 -0.1538 -0.3158 -0.6608
  757MOL0     C 2098   7.817   7.922   4.850 -0.4159 -0.2470 -0.7759
  757MOL0     C 2099   7.912   7.845   4.764 -0.1200 -0.1984  0.7271
  757MOL0     C 2100   8.055   7.839   4.814 -0.0987 -0.0221  0.9647
  757MOL0     C 2101   8.146   7.778   4.703 -0.4444 -0.3530 -0.5558
  757MOL0     C 2102   8.291   7.784   4.756 -0.0155 -0.4051  0.4828
  757MOL0     C 2103   8.391   7.760   4.648  0.0026  0.8750  0.8071
  757MOL0    Cl 2104   8.416   7.573   4.636  0.3522  0.5215 -0.4731
  757MOL0     C 2105   7.591   7.625   4.606  0.1732  0.5814  0.3974
  757MOL0     C 2106   7.572   7.587   4.472 -0.4825 -0.1199 -0.4046
  757MOL0     O 2107   7.417   7.730   4.200  0.6485 -0.3699 -0.6462
  757MOL0     C 2108   7.436   7.417   4.020  0.5036 -0.0015 -0.3654
  757MOL0     C 2109   7.413   7.364   3.898  0.0870 -0.3426  1.0048
  757MOL0     N 2110   7.324   7.356   3.112  0.1160 -0.6069  0.6855
  757MOL0     N 2111   7.434   7.352   3.048  0.4939 -0.9735  0.2359
  757MOL0     C 2112   7.122   6.207   2.966 -0.4531  0.5570  1.2205
  757MOL0     C 2113   7.022   6.121   2.923 -0.3165 -0.1193 -0.3706
  757MOL0     C 2114   6.670   5.921   2.703 -0.3029 -0.5012  0.6826
  757MOL0     C 2115   6.579   6.011   2.677  0.2546 -0.0532  0.2625
  757MOL0     C 2116   6.461   5.985   2.614  0.4359  2.0756  0.6487
  757MOL0     C 2117   6.431   5.845   2.578 -0.1101 -1.2489 -0.2228
  757MOL0     O 2118   6.308   5.811   2.523 -0.3663 -0.4773 -0.4638
  757MOL0     C 2119   6.306   5.760   2.385 -0.4168  0.0142 -0.2128
  757MOL0     C 2120   6.221   5.855   2.298 -0.5633 -0.1999  0.2648
  757MOL0     C 2121   6.067   5.853   2.328 -0.0128  0.5860  1.0738
  757MOL0     C 2122   6.030   5.938   2.444 -0.0373 -0.3776 -0.0105
  757MOL0     C 2123   6.004   6.071   2.395  0.0145  0.5264  0.0411
  757MOL0     C 2124   5.996   6.187   2.366  0.5803 -0.2644 -0.4332
  757MOL0     C 2125   6.527   5.744   2.605 -0.2259 -0.6358  0.5003
  757MOL0     C 2126   6.645   5.785   2.672 -0.0921  0.1908 -0.0344
  757MOL0     C 2127   6.734   5.665   2.691  0.3855  0.3064 -0.8136
  757MOL0     H 2128   6.822   6.317   2.748 -1.4536 -1.4269  1.8271
  757MOL0     H 2129   7.008   6.481   2.785 -0.4577  1.7911  3.6070
  757MOL0     H 2130   7.213   6.576   2.814  2.2056 -0.4601 -0.2252
  757MOL0     H 2131   7.123   6.609   2.974  2.0123  3.2886  2.1304
  757MOL0     H 2132   7.413   6.615   2.937  0.4939  1.7035 -3.5510
  757MOL0     H 2133   7.314   6.680   3.075 -4.3142 -0.0096  0.8684
  757MOL0     H 2134   7.353   6.872   2.986 -3.2388  0.3175  0.7670
  757MOL0     H 2135   7.233   6.832   2.858 -2.3237 -1.6893  1.8744
  757MOL0     H 2136   7.539   6.811   2.825  1.2225  0.7887 -2.7354
  757MOL0     H 2137   7.407   6.749   2.713 -2.4925 -0.4542  1.6960
  757MOL0     H 2138   7.487   6.983   2.657 -0.5285  0.2219 -1.2417
  757MOL0     H 2139   7.320   6.972   2.692  0.4496 -2.0046 -1.4347
  757MOL0     H 2140   7.430   7.176   2.784 -4.0726 -1.3192 -0.0086
  757MOL0     H 2141   7.372   7.093   2.921 -0.2879 -0.5539  1.4107
  757MOL0     H 2142   7.662   7.026   2.852 -0.4235 -0.1390 -0.7568
  757MOL0     H 2143   7.570   6.975   2.982  0.4154 -0.4134 -0.8893
  757MOL0     H 2144   7.708   7.162   3.085  0.9187  2.1688  1.2578
  757MOL0     H 2145   7.661   7.276   2.957  2.6336  1.6723  3.3555
  757MOL0     H 2146   7.473   7.092   3.245  0.0026 -0.8677 -0.2301
  757MOL0     H 2147   7.144   7.317   3.303  0.2845  0.8210 -0.5507
  757MOL0     H 2148   7.142   7.146   3.283 -0.8316  0.0663 -0.9948
  757MOL0     H 2149   7.337   7.136   3.445 -2.7855 -0.8761 -1.1748
  757MOL0     H 2150   7.334   7.324   3.438  0.0439  0.4094 -2.6649
  757MOL0     H 2151   7.130   7.130   3.553  1.1774 -0.3615 -0.4278
  757MOL0     H 2152   7.104   7.305   3.508  1.5808 -0.9630 -1.9929
  757MOL0     H 2153   7.275   7.200   3.736 -0.9474 -0.9529 -0.8633
  757MOL0     H 2154   7.130   7.295   3.759 -0.0085 -2.0859  0.8399
  757MOL0     H 2155   7.237   7.637   3.778 -0.0740  0.1405  1.6696
  757MOL0     H 2156   7.279   7.717   3.990  2.9101  1.3799 -2.5516
  757MOL0     H 2157   7.232   7.590   4.445 -0.9412 -1.0842 -0.4646
  757MOL0     H 2158   7.275   7.700   4.668  0.5041 -2.2022  1.0127
  757MOL0     H 2159   7.604   7.778   4.974  0.9232 -1.2760 -0.0852
  757MOL0     H 2160   7.691   7.700   4.842  0.6368  0.3126 -0.3772
  757MOL0     H 2161   7.650   7.906   4.711 -0.9426 -1.0613 -0.6005
  757MOL0     H 2162   7.605   7.997   4.852  1.3224 -0.1704  1.7384
  757MOL0     H 2163   7.837   8.029   4.839 -1.7044  0.1703  0.6320
  757MOL0     H 2164   7.828   7.896   4.956 -2.1118  2.6529  0.2257
  757MOL0     H 2165   7.919   7.897   4.668  0.1743 -0.9107  0.3564
  757MOL0     H 2166   7.882   7.746   4.728 -2.4815  1.0726 -1.1060
  757MOL0     H 2167   8.058   7.779   4.905  2.0906 -0.0294  0.9290
  757MOL0     H 2168   8.088   7.940   4.842  0.6369  0.2815 -0.8709
  757MOL0     H 2169   8.126   7.671   4.700 -1.2900 -0.2024 -0.5637
  757MOL0     H 2170   8.126   7.822   4.605  1.1174  0.1081 -0.7009
  757MOL0     H 2171   8.302   7.719   4.843 -1.4347 -0.5986  0.5417
  757MOL0     H 2172   8.315   7.880   4.803 -1.6004  0.2784 -0.0208
  757MOL0     H 2173   8.368   7.786   4.544  2.2020 -0.0804  0.0034
  757MOL0     H 2174   8.481   7.811   4.682  2.8628  0.6954 -5.1732
  757MOL0     H 2175   7.691   7.638   4.646 -0.3902  1.1452  1.6817
  757MOL0     H 2176   7.656   7.537   4.425  0.9058  0.3143  1.4624
  757MOL0     H 2177   7.492   7.354   4.089  1.4406 -1.1862 -2.1256
  757MOL0     H 2178   7.447   7.266   3.866 -0.5050  0.4134 -2.2749
  757MOL0     H 2179   7.201   6.162   3.026 -0.8358 -1.7431  0.1129
  757MOL0     H 2180   7.016   6.019   2.959  2.1886 -0.0035  0.6122
  757MOL0     H 2181   6.604   6.114   2.700  1.6716 -0.7260  1.9235
  757MOL0     H 2182   6.397   6.070   2.593  2.3326  3.8250  1.6035
  757MOL0     H 2183   6.274   5.656   2.378 -1.3184  0.2000  0.7767
  757MOL0     H 2184   6.404   5.756   2.338  0.3316  0.5747  1.2153
  757MOL0     H 2185   6.232   5.809   2.199 -0.8709 -0.4212  0.3331
  757MOL0     H 2186   6.264   5.956   2.295  0.7355 -0.7427 -0.0653
  757MOL0     H 2187   6.037   5.748   2.331  1.2411  0.1892  0.3343
  757MOL0     H 2188   6.015   5.886   2.237 -0.4755 -3.1475 -0.1725
  757MOL0     H 2189   5.944   5.894   2.497 -0.7282  1.3481  0.3546
  757MOL0     H 2190   6.102   5.943   2.526  0.7009 -1.1090 -0.5920
  757MOL0     H 2191   5.989   6.292   2.345  1.3513 -0.1094  0.0460
  757MOL0     H 2192   6.515   5.645   2.563 -2.1418 -0.3932  0.3793
  757MOL0     H 2193   6.682   5.568   2.686  1.0255  0.0034 -1.9986
  757MOL0     H 2194   6.804   5.657   2.607  1.2620  0.4396 -0.1052
  757MOL0     H 2195   6.793   5.678   2.782  0.3516  0.1866 -0.7746
  758MOL0     O 2196   8.118   7.665  11.093 -0.5222 -0.1608  1.1369
  758MOL0     C 2197   8.002   7.622  11.102  1.2205 -0.0351  0.1356
  758MOL0     O 2198   7.910   7.650  11.203 -0.3526 -0.4921 -0.2398
  758MOL0     C 2199   7.940   7.747  11.292 -0.1652  0.1428  0.4164
  758MOL0     C 2200   7.939   7.881  11.246  1.0347 -0.0344 -0.3307
  758MOL0     C 2201   7.968   7.988  11.334  0.4371 -0.3460  0.5375
  758MOL0     C 2202   7.997   7.966  11.466 -0.1780 -0.9467  0.4074
  758MOL0     O 2203   8.023   8.069  11.556  0.5752 -0.7398  0.0410
  758MOL0     C 2204   8.093   8.184  11.502  0.7064  0.9969  0.2245
  758MOL0     C 2205   8.119   8.271  11.616 -0.2130  1.1511  0.6635
  758MOL0     C 2206   8.238   8.211  11.693 -0.0810 -0.3830 -0.0537
  758MOL0     C 2207   8.278   8.284  11.827 -0.5652  0.1189 -0.1001
  758MOL0     C 2208   8.160   8.297  11.924 -0.7072 -0.0815  0.7392
  758MOL0     C 2209   8.189   8.338  12.068  0.4184  0.5309 -0.7260
  758MOL0     C 2210   8.249   8.228  12.149  1.0167 -0.0411  0.5609
  758MOL0     C 2211   8.276   8.270  12.290 -0.3891  0.4040 -0.0207
  758MOL0     N 2212   8.420   8.313  12.306  0.5582  0.2414  0.1277
  758MOL0     C 2213   8.521   8.254  12.377  0.1829 -0.4673  0.4816
  758MOL0     C 2214   8.634   8.334  12.361 -0.3832  0.1992 -0.6941
  758MOL0     C 2215   8.754   8.296  12.438  0.1840  0.2062 -0.4697
  758MOL0     C 2216   8.872   8.390  12.411  0.8901  0.1568 -0.2085
  758MOL0     C 2217   9.004   8.325  12.466 -0.1051 -0.4870  0.6277
  758MOL0     C 2218   9.116   8.423  12.467 -0.0991 -0.5987 -0.0479
  758MOL0     O 2219   9.229   8.378  12.554  0.0661 -0.3193 -0.2976
  758MOL0     C 2220   9.358   8.426  12.543  1.0505  0.0640 -0.7018
  758MOL0     C 2221   9.447   8.349  12.616 -0.3180 -0.0405 -1.0801
  758MOL0     C 2222   9.586   8.382  12.632  0.2449  0.4396  0.0377
  758MOL0     C 2223   9.628   8.498  12.563 -0.4519  1.4422  0.4168
  758MOL0     C 2224   9.774   8.536  12.571 -0.2887 -0.0530  0.3944
  758MOL0     O 2225   9.810   8.657  12.509 -0.0762 -0.2282 -0.7950
  758MOL0     C 2226   9.942   8.686  12.501  0.3073  0.1120 -0.1136
  758MOL0     C 2227   9.987   8.744  12.380 -0.8402 -0.0993  0.7440
  758MOL0     C 2228  10.122   8.779  12.364  0.9103  0.5330  1.0193
  758MOL0     C 2229  10.212   8.756  12.470 -0.0759  0.4480  0.4683
  758MOL0     O 2230  10.343   8.788  12.448  0.5034 -0.0961  0.1254
  758MOL0     C 2231  10.396   8.714  12.347 -0.9329  0.6750  0.0952
  758MOL0     C 2232  10.552   8.738  12.359 -0.6349 -0.9350  0.0275
  758MOL0     C 2233  10.611   8.661  12.477  0.1499 -0.6867 -0.2981
  758MOL0     C 2234  10.652   8.532  12.412 -0.2346  0.2527  0.0056
  758MOL0     C 2235  10.693   8.419  12.507  0.0116 -0.0307 -0.3342
  758MOL0     C 2236  10.619   8.387  12.641  0.6366  1.1001  0.3831
  758MOL0     C 2237  10.479   8.333  12.620 -0.4249  0.0034  0.7013
  758MOL0     C 2238  10.377   8.343  12.737  0.2451  0.8855 -0.2451
  758MOL0    Cl 2239  10.459   8.279  12.881  0.2776 -0.0791  0.1230
  758MOL0     C 2240  10.162   8.708  12.590 -0.4627  0.9780 -0.0133
  758MOL0     C 2241  10.035   8.672  12.601  0.1587 -0.3224 -0.1971
  758MOL0     O 2242   9.844   8.459  12.632 -0.2208 -0.6462  0.0291
  758MOL0     C 2243   9.533   8.586  12.508  0.0872  0.0598  0.0992
  758MOL0     C 2244   9.401   8.550  12.500  0.3154  0.0277  0.3515
  758MOL0     N 2245   8.606   8.426  12.260 -0.0510 -0.1632  0.9292
  758MOL0     N 2246   8.480   8.410  12.234  0.0780  0.1736  0.8495
  758MOL0     C 2247   7.973   7.839  11.516  0.3288  0.2539 -0.0575
  758MOL0     C 2248   7.957   7.729  11.430 -0.4565 -0.0488  0.3023
  758MOL0     C 2249   7.962   7.529  10.991 -0.3782  0.1734 -0.2560
  758MOL0     C 2250   8.057   7.445  10.935 -0.5923 -0.0890  0.7600
  758MOL0     C 2251   8.028   7.348  10.844 -0.3723 -0.0940 -0.4024
  758MOL0     C 2252   7.904   7.348  10.780 -0.5961  0.3611  0.0023
  758MOL0     O 2253   7.904   7.247  10.687  0.0475  0.0846  0.4722
  758MOL0     C 2254   7.771   7.187  10.670  0.3037  0.2765 -0.3329
  758MOL0     C 2255   7.783   7.080  10.560 -0.4267 -0.1752 -0.0879
  758MOL0     C 2256   7.646   7.007  10.535  0.0199  0.2080 -0.2246
  758MOL0     C 2257   7.646   6.954  10.392  0.5320  0.5213 -0.1955
  758MOL0     C 2258   7.743   6.847  10.371  0.3505 -0.3413 -0.3633
  758MOL0     C 2259   7.837   6.773  10.357 -0.2575 -0.0867  0.2685
  758MOL0     C 2260   7.809   7.436  10.824  0.1889 -0.9152  0.4099
  758MOL0     C 2261   7.835   7.518  10.935  0.5752 -0.9781 -0.6331
  758MOL0     C 2262   7.714   7.600  10.989  0.0382  0.6787  0.3503
  758MOL0     H 2263   7.897   7.901  11.149  1.7850  3.1350 -0.1019
  758MOL0     H 2264   7.959   8.088  11.293  2.8222  0.1500  1.1076
  758MOL0     H 2265   8.170   8.153  11.431  0.3079  1.0440 -0.2376
  758MOL0     H 2266   8.013   8.232  11.445  0.3073  2.7049  2.1061
  758MOL0     H 2267   8.023   8.261  11.666 -2.3821  0.4504 -3.1967
  758MOL0     H 2268   8.138   8.377  11.600 -1.8368  1.7461  2.3307
  758MOL0     H 2269   8.332   8.208  11.637 -1.3222 -0.1687 -2.2830
  758MOL0     H 2270   8.221   8.107  11.720 -3.2412  0.7290  2.8704
  758MOL0     H 2271   8.358   8.231  11.880 -1.5967 -0.2235  1.1742
  758MOL0     H 2272   8.305   8.387  11.800  0.2032 -0.0836 -0.1367
  758MOL0     H 2273   8.092   8.369  11.878  0.3897 -0.1803 -1.1224
  758MOL0     H 2274   8.106   8.202  11.923 -1.1705  0.1599  1.5654
  758MOL0     H 2275   8.258   8.423  12.066  1.7087 -0.4829 -0.5555
  758MOL0     H 2276   8.098   8.379  12.112  1.4935  1.0107  1.1701
  758MOL0     H 2277   8.342   8.201  12.099 -0.6734 -2.0562 -1.7282
  758MOL0     H 2278   8.187   8.138  12.157 -0.4995  1.0662  2.0873
  758MOL0     H 2279   8.204   8.341  12.332 -0.5555 -1.5432  3.3161
  758MOL0     H 2280   8.273   8.177  12.347  2.1241  1.2943  1.6856
  758MOL0     H 2281   8.504   8.177  12.452  3.0012 -1.6107  0.0726
  758MOL0     H 2282   8.744   8.267  12.543 -1.8483 -3.5085 -1.4822
  758MOL0     H 2283   8.785   8.204  12.387  0.3821 -0.5000  0.8914
  758MOL0     H 2284   8.888   8.402  12.304 -0.9979 -1.4902 -0.7318
  758MOL0     H 2285   8.847   8.491  12.446 -0.0297  0.0448 -0.5245
  758MOL0     H 2286   9.042   8.241  12.407  0.4189  1.3569 -1.8731
  758MOL0     H 2287   8.980   8.288  12.566  2.6440 -1.6907  0.9219
  758MOL0     H 2288   9.081   8.518  12.509 -0.4172  1.2049 -3.9534
  758MOL0     H 2289   9.143   8.443  12.363  1.1537 -2.2207 -0.0592
  758MOL0     H 2290   9.408   8.263  12.669 -0.1716  1.8080  2.3454
  758MOL0     H 2291   9.653   8.313  12.681  2.1963  1.7499 -0.6891
  758MOL0     H 2292   9.918   8.744  12.297 -0.4720 -2.0996  0.3853
  758MOL0     H 2293  10.174   8.824  12.280  3.3949  2.8823  3.6024
  758MOL0     H 2294  10.363   8.609  12.353 -1.1265  0.7118 -0.3307
  758MOL0     H 2295  10.363   8.755  12.252  0.9475  2.9629  0.3412
  758MOL0     H 2296  10.606   8.725  12.265  0.1403  3.8350 -0.4308
  758MOL0     H 2297  10.573   8.843  12.385  3.2657 -1.1183 -1.6379
  758MOL0     H 2298  10.697   8.709  12.524  0.4912  1.5097 -2.9068
  758MOL0     H 2299  10.532   8.641  12.550  1.7742  0.1455  1.7821
  758MOL0     H 2300  10.741   8.551  12.351  2.3445  0.0923  3.4321
  758MOL0     H 2301  10.574   8.495  12.344 -0.4157  3.3357 -1.6172
  758MOL0     H 2302  10.797   8.436  12.536 -0.4503  0.8170  0.9036
  758MOL0     H 2303  10.687   8.334  12.438 -0.8446  2.0529 -3.0046
  758MOL0     H 2304  10.668   8.305  12.694 -1.7958  1.4173  3.4181
  758MOL0     H 2305  10.622   8.471  12.711 -0.9581 -1.0007  3.1885
  758MOL0     H 2306  10.476   8.226  12.594  1.4269 -0.4609  2.1412
  758MOL0     H 2307  10.437   8.370  12.526  0.9645  0.4258  0.2192
  758MOL0     H 2308  10.339   8.445  12.746 -0.8561  0.4059  0.6521
  758MOL0     H 2309  10.298   8.272  12.712  1.3047 -1.2483  1.9737
  758MOL0     H 2310  10.227   8.687  12.674  0.5198  2.0439 -0.4801
  758MOL0     H 2311  10.003   8.628  12.695 -0.9016 -3.8532 -2.0246
  758MOL0     H 2312   9.559   8.675  12.453  0.9264 -1.6746 -2.5137
  758MOL0     H 2313   9.330   8.607  12.440  0.5713 -2.7846 -2.8962
  758MOL0     H 2314   7.989   7.822  11.622  0.0656  2.5916  0.4193
  758MOL0     H 2315   7.950   7.625  11.460  2.7528 -0.5694 -0.4356
  758MOL0     H 2316   8.161   7.450  10.968 -1.2486  3.5135  2.8076
  758MOL0     H 2317   8.102   7.277  10.809 -2.5941 -1.8541 -1.8290
  758MOL0     H 2318   7.705   7.269  10.641 -0.3046  0.2147  0.8193
  758MOL0     H 2319   7.732   7.140  10.761 -1.6590  0.6024 -0.9674
  758MOL0     H 2320   7.850   7.000  10.594 -1.8290 -1.1436  0.4530
  758MOL0     H 2321   7.806   7.114  10.459 -1.7501  2.6480  0.4654
  758MOL0     H 2322   7.559   7.074  10.536 -0.1328  0.0705 -1.9667
  758MOL0     H 2323   7.638   6.927  10.609  1.0482  0.1759 -0.1290
  758MOL0     H 2324   7.552   6.901  10.375  1.3084 -2.6374  3.6973
  758MOL0     H 2325   7.681   7.022  10.315  0.1515 -2.1244 -2.8985
  758MOL0     H 2326   7.930   6.724  10.334 -0.4360  1.0001 -3.4728
  758MOL0     H 2327   7.705   7.437  10.795  0.3889 -1.3674 -0.3541
  758MOL0     H 2328   7.737   7.706  11.002 -1.6912  0.9687  1.4016
  758MOL0     H 2329   7.624   7.596  10.927 -4.1742  5.0816  5.1951
  758MOL0     H 2330   7.672   7.575  11.087 -2.6052  2.0149 -0.3349
  759MOL0     O 2331   7.934   7.675  10.524 -0.3567 -0.1403 -0.4127
  759MOL0     C 2332   7.809   7.668  10.515  0.0564 -0.5098  0.6191
  759MOL0     O 2333   7.743   7.604  10.416 -0.5782  0.4241 -0.3120
  759MOL0     C 2334   7.813   7.526  10.330  0.2631  0.6684 -0.2142
  759MOL0     C 2335   7.811   7.543  10.193 -0.0014 -0.4582  0.0977
  759MOL0     C 2336   7.870   7.457  10.106  0.4442 -0.5981 -0.1867
  759MOL0     C 2337   7.938   7.351  10.162 -0.3509 -0.5415 -0.4984
  759MOL0     O 2338   7.999   7.251  10.095  0.6563  1.0768 -0.1111
  759MOL0     C 2339   8.093   7.272   9.982  0.3553  0.6821 -0.5563
  759MOL0     C 2340   8.188   7.152   9.989 -1.0404  0.9978  0.0809
  759MOL0     C 2341   8.127   7.019  10.013  1.1020  0.3236  0.6034
  759MOL0     C 2342   8.241   6.917  10.051  0.7762  0.9403 -0.2656
  759MOL0     C 2343   8.327   6.891   9.929  0.5638  0.4536  0.4055
  759MOL0     C 2344   8.460   6.948   9.931 -0.8149 -0.7369 -0.0920
  759MOL0     C 2345   8.535   6.923   9.809 -0.1117  0.4729  0.6081
  759MOL0     C 2346   8.681   6.996   9.800 -0.4491  0.3830 -0.2352
  759MOL0     N 2347   8.751   6.959   9.674  0.5675  0.1673 -0.0950
  759MOL0     C 2348   8.822   6.842   9.638  0.8071  0.0633 -0.4884
  759MOL0     C 2349   8.832   6.836   9.503  0.4169 -0.0451 -0.9214
  759MOL0     C 2350   8.896   6.725   9.430  0.1857 -0.7260  0.0631
  759MOL0     C 2351   8.801   6.615   9.390  0.0796 -0.5711 -0.0394
  759MOL0     C 2352   8.873   6.485   9.368 -0.2289  0.2355 -0.2672
  759MOL0     C 2353   8.972   6.470   9.254 -0.6526  0.0507 -0.2951
  759MOL0     O 2354   8.910   6.452   9.126  1.3989  0.6698  0.5700
  759MOL0     C 2355   8.980   6.402   9.019 -0.4410  0.1485 -0.4409
  759MOL0     C 2356   8.938   6.281   8.965  0.9433  0.0656  0.2345
  759MOL0     C 2357   9.012   6.230   8.855 -0.5207  0.3616 -0.3366
  759MOL0     C 2358   9.125   6.295   8.804 -0.1000  0.5750  0.1554
  759MOL0     C 2359   9.205   6.232   8.696 -0.7111 -0.2383 -0.1623
  759MOL0     O 2360   9.343   6.221   8.712  1.1645 -0.2512 -0.1503
  759MOL0     C 2361   9.418   6.138   8.629 -0.1854  0.0124  0.6414
  759MOL0     C 2362   9.493   6.205   8.526 -0.0613 -1.0839  0.1250
  759MOL0     C 2363   9.583   6.132   8.452  0.8196  0.0535  0.1671
  759MOL0     C 2364   9.593   5.993   8.464  0.1005 -0.1386  0.3875
  759MOL0     O 2365   9.687   5.927   8.384 -0.0170 -0.0792  0.5009
  759MOL0     C 2366   9.700   5.940   8.248  0.1297  0.4488 -0.0075
  759MOL0     C 2367   9.665   5.795   8.191 -1.1478 -0.2053  0.3074
  759MOL0     C 2368   9.766   5.688   8.232 -0.0251  0.5101 -0.2739
  759MOL0     C 2369   9.880   5.688   8.130  0.4663 -0.1483  0.2684
  759MOL0     C 2370  10.007   5.637   8.181  0.7592 -0.0550 -0.2449
  759MOL0     C 2371  10.104   5.608   8.062 -0.2679 -0.0342 -0.4463
  759MOL0     C 2372  10.250   5.593   8.106  0.7047  0.0402 -0.2201
  759MOL0     C 2373  10.279   5.461   8.172  0.6263  0.1568 -0.1724
  759MOL0    Cl 2374  10.443   5.433   8.245 -0.1042 -0.1130 -0.0439
  759MOL0     C 2375   9.509   5.924   8.548  0.3496 -0.7702 -0.6537
  759MOL0     C 2376   9.430   6.000   8.646 -0.1394  0.0316  0.2636
  759MOL0     O 2377   9.142   6.199   8.596  0.0137  0.0042 -0.2908
  759MOL0     C 2378   9.159   6.417   8.858 -0.0707 -0.3457  0.4367
  759MOL0     C 2379   9.092   6.465   8.974  0.6656  0.3179 -0.5435
  759MOL0     N 2380   8.786   6.953   9.461  0.1688 -1.4059 -0.4599
  759MOL0     N 2381   8.732   7.031   9.560 -0.8072  1.2175  0.0927
  759MOL0     C 2382   7.928   7.325  10.298 -0.1172  0.4532 -0.2286
  759MOL0     C 2383   7.853   7.407  10.380 -0.6489  0.9490 -0.0118
  759MOL0     C 2384   7.723   7.752  10.603 -0.1802 -0.4086 -0.2352
  759MOL0     C 2385   7.581   7.744  10.604 -0.2336  0.0865 -0.5211
  759MOL0     C 2386   7.494   7.826  10.680  0.0472 -0.1192 -0.7619
  759MOL0     C 2387   7.540   7.922  10.765  0.0703 -0.6558  0.1812
  759MOL0     O 2388   7.454   8.015  10.828 -0.4120  0.6932  0.5055
  759MOL0     C 2389   7.478   8.151  10.810  0.6888  0.0497  0.6281
  759MOL0     C 2390   7.440   8.168  10.661  0.3876  0.8216 -0.0075
  759MOL0     C 2391   7.423   8.315  10.621 -1.4011  0.5744  0.5271
  759MOL0     C 2392   7.404   8.333  10.465 -0.3564  0.0636 -0.3795
  759MOL0     C 2393   7.310   8.439  10.433 -0.3025 -0.1009  0.0252
  759MOL0     C 2394   7.224   8.521  10.421  0.1653  0.0614  0.4065
  759MOL0     C 2395   7.676   7.920  10.774 -1.7619 -0.6020 -0.1721
  759MOL0     C 2396   7.776   7.841  10.701  0.6350  0.3182  0.5851
  759MOL0     C 2397   7.915   7.872  10.735 -0.6362 -0.2190  0.3816
  759MOL0     H 2398   7.766   7.639  10.168  0.0317 -0.3768  0.3562
  759MOL0     H 2399   7.874   7.465   9.997 -1.6171  1.9193 -0.1788
  759MOL0     H 2400   8.046   7.285   9.884  1.8838  3.1889 -1.0498
  759MOL0     H 2401   8.143   7.369   9.987  0.6793  0.4913 -0.0087
  759MOL0     H 2402   8.257   7.169  10.073  3.1668  0.8887 -3.0050
  759MOL0     H 2403   8.248   7.142   9.898 -3.0532 -5.6088 -1.0316
  759MOL0     H 2404   8.070   6.983   9.927  0.0696  0.8768  1.0395
  759MOL0     H 2405   8.050   7.034  10.090  0.8880 -2.7538  1.1001
  759MOL0     H 2406   8.295   6.946  10.142 -1.9174  3.7671  0.6204
  759MOL0     H 2407   8.184   6.827  10.073  2.1641 -0.7116 -2.9358
  759MOL0     H 2408   8.334   6.782   9.929 -0.1955  0.3925 -0.0822
  759MOL0     H 2409   8.281   6.920   9.833  2.5905 -0.0107 -0.7679
  759MOL0     H 2410   8.458   7.056   9.945  0.4683 -0.8310  1.0021
  759MOL0     H 2411   8.518   6.895  10.007 -3.3351 -3.3961  0.1572
  759MOL0     H 2412   8.475   6.949   9.721  0.1675 -0.3759  0.1467
  759MOL0     H 2413   8.556   6.815   9.804  1.0597  0.7422 -1.2812
  759MOL0     H 2414   8.672   7.105   9.810 -1.6171  0.0979  2.5972
  759MOL0     H 2415   8.742   6.967   9.886 -3.2914 -0.3849  1.6374
  759MOL0     H 2416   8.855   6.764   9.705  0.9395  0.9333  0.4956
  759MOL0     H 2417   8.940   6.764   9.338 -1.3911 -0.8148 -0.7690
  759MOL0     H 2418   8.980   6.685   9.487  1.2515  0.6568 -0.4702
  759MOL0     H 2419   8.733   6.586   9.470 -1.0041  1.1492 -0.2887
  759MOL0     H 2420   8.748   6.643   9.299 -0.3896 -2.5643 -0.4246
  759MOL0     H 2421   8.802   6.406   9.343  2.4530 -2.3557 -0.2113
  759MOL0     H 2422   8.921   6.454   9.461  2.6117 -1.6967 -2.2274
  759MOL0     H 2423   9.023   6.376   9.278 -3.4317 -1.9859 -1.8028
  759MOL0     H 2424   9.046   6.551   9.260  0.2451 -0.7813  0.2405
  759MOL0     H 2425   8.862   6.223   9.017  1.9852 -1.9105 -0.3516
  759MOL0     H 2426   8.991   6.132   8.814 -0.1886 -0.8278  2.1315
  759MOL0     H 2427   9.499   6.313   8.516 -3.1067 -0.7960  0.3520
  759MOL0     H 2428   9.637   6.184   8.373 -0.3358  0.4518 -0.3765
  759MOL0     H 2429   9.633   6.014   8.204 -0.9143 -0.4763 -0.0465
  759MOL0     H 2430   9.805   5.959   8.222  1.0959  1.1862  3.8805
  759MOL0     H 2431   9.567   5.769   8.232 -0.8384 -4.3977 -1.1562
  759MOL0     H 2432   9.678   5.791   8.083  0.4251 -0.5953  0.4930
  759MOL0     H 2433   9.786   5.702   8.339 -3.3101 -0.2166  0.5653
  759MOL0     H 2434   9.722   5.588   8.234  1.5892 -0.2437  2.7333
  759MOL0     H 2435   9.899   5.788   8.090 -1.1916  0.3220  0.5743
  759MOL0     H 2436   9.860   5.632   8.039 -0.2972  2.2356 -1.1301
  759MOL0     H 2437  10.003   5.546   8.240  3.3422 -1.2673 -1.7764
  759MOL0     H 2438  10.048   5.714   8.247  2.1318 -2.6046  2.0563
  759MOL0     H 2439  10.066   5.521   8.008  0.5422 -1.3801  1.0683
  759MOL0     H 2440  10.094   5.698   8.001 -0.6729  1.9733  2.3896
  759MOL0     H 2441  10.292   5.666   8.176  3.1346 -1.5638  0.1285
  759MOL0     H 2442  10.309   5.602   8.015 -1.1959  0.4182 -1.4736
  759MOL0     H 2443  10.205   5.448   8.252 -1.1515 -0.2133 -1.8127
  759MOL0     H 2444  10.269   5.380   8.099 -3.7281  1.1832 -1.0053
  759MOL0     H 2445   9.528   5.818   8.564 -0.4652 -0.8109  0.1121
  759MOL0     H 2446   9.377   5.951   8.728  0.2638  0.7042  0.9340
  759MOL0     H 2447   9.250   6.465   8.822  1.1843 -2.3841  0.6955
  759MOL0     H 2448   9.132   6.554   9.022  0.3902 -0.3088  0.8913
  759MOL0     H 2449   7.964   7.235  10.346  1.9417  1.2246 -0.1892
  759MOL0     H 2450   7.840   7.370  10.481 -1.8499  2.4481  0.4269
  759MOL0     H 2451   7.542   7.661  10.546  0.2253 -1.6616  1.5488
  759MOL0     H 2452   7.387   7.811  10.674 -0.0177 -1.3481  2.0777
  759MOL0     H 2453   7.585   8.163  10.826  0.9766  0.7335 -1.4413
  759MOL0     H 2454   7.419   8.211  10.880 -1.0221 -1.4619  0.5479
  759MOL0     H 2455   7.353   8.109  10.632  1.0336  0.5824 -1.5266
  759MOL0     H 2456   7.513   8.126  10.592 -0.0320  2.2192 -1.3473
  759MOL0     H 2457   7.518   8.355  10.659 -3.4063  2.1270  4.4949
  759MOL0     H 2458   7.341   8.364  10.675 -1.1985  2.9599 -1.1469
  759MOL0     H 2459   7.499   8.366  10.422 -0.0022  2.5655  1.9758
  759MOL0     H 2460   7.368   8.236  10.430 -2.5461 -1.1474  4.3701
  759MOL0     H 2461   7.140   8.586  10.407  0.2839 -0.4768 -4.5731
  759MOL0     H 2462   7.719   7.999  10.835  0.3133 -1.9109  0.1573
  759MOL0     H 2463   7.921   7.906  10.838 -0.0049  0.1601  0.2236
  759MOL0     H 2464   7.971   7.778  10.733 -2.3038 -1.2565 -2.1410
  759MOL0     H 2465   7.952   7.944  10.661  0.6671 -1.5146 -0.2765
  760MOL0     O 2466   1.033   9.331   4.026 -0.6081 -0.9176 -0.1916
  760MOL0     C 2467   1.134   9.365   4.080  0.4130 -0.0509 -1.0155
  760MOL0     O 2468   1.177   9.488   4.083  0.2915 -0.9616 -0.6505
  760MOL0     C 2469   1.073   9.579   4.107 -0.5502  0.5778  0.1715
  760MOL0     C 2470   1.058   9.690   4.026 -0.3892  0.6534  0.1992
  760MOL0     C 2471   0.961   9.785   4.052  0.1585  0.3490 -0.6000
  760MOL0     C 2472   0.872   9.779   4.160  0.7063  0.0936  0.1233
  760MOL0     O 2473   0.778   9.880   4.177 -0.4301 -0.0433  0.7469
  760MOL0     C 2474   0.702   9.883   4.298 -0.3150 -1.0686 -1.0777
  760MOL0     C 2475   0.594   9.986   4.286  0.9616 -0.2433  0.0438
  760MOL0     C 2476   0.482   9.921   4.209  0.0228 -0.4871 -0.2160
  760MOL0     C 2477   0.368  10.017   4.196 -0.5800  0.0169 -0.6223
  760MOL0     C 2478   0.266   9.992   4.089  0.1392  0.4834  0.4027
  760MOL0     C 2479   0.165   9.876   4.135 -0.6652 -0.0772  0.2978
  760MOL0     C 2480   0.087   9.849   4.007 -0.1220  0.1434  0.3855
  760MOL0     C 2481   0.006   9.974   3.957  0.2799  0.0729  0.1781
  760MOL0     N 2482  -0.112   9.920   3.897 -0.1645 -0.5449 -0.6953
  760MOL0     C 2483  -0.146   9.911   3.766 -0.1824 -0.4979 -0.0055
  760MOL0     C 2484  -0.276   9.875   3.758 -0.0199 -0.2194 -0.1097
  760MOL0     C 2485  -0.356   9.878   3.635 -0.0796 -0.2303  0.2838
  760MOL0     C 2486  -0.304   9.795   3.515  0.2646 -0.7893 -0.7034
  760MOL0     C 2487  -0.400   9.817   3.393 -0.3824 -0.2409  0.4226
  760MOL0     C 2488  -0.376   9.714   3.276  0.2515  0.0385 -0.1535
  760MOL0     O 2489  -0.273   9.770   3.193 -0.0426 -0.0888  0.0361
  760MOL0     C 2490  -0.254   9.725   3.070 -0.4270 -0.0591  0.4187
  760MOL0     C 2491  -0.330   9.626   3.004 -0.0262  0.2395  0.4599
  760MOL0     C 2492  -0.315   9.592   2.870 -0.4360  0.7142  0.1359
  760MOL0     C 2493  -0.217   9.655   2.793 -0.8436 -0.5312 -0.1778
  760MOL0     C 2494  -0.206   9.642   2.644 -0.3397 -0.1878  0.4963
  760MOL0     O 2495  -0.204   9.757   2.572  0.1121  0.1942  0.5440
  760MOL0     C 2496  -0.183   9.762   2.438  0.9070 -0.6543  0.4464
  760MOL0     C 2497  -0.121   9.674   2.358 -0.0917  0.1068 -0.6167
  760MOL0     C 2498  -0.102   9.691   2.221  1.0174  0.4558 -0.5105
  760MOL0     C 2499  -0.141   9.814   2.170  0.5505  0.1464 -0.4985
  760MOL0     O 2500  -0.129   9.853   2.038  0.1488 -0.3350  0.3365
  760MOL0     C 2501  -0.074   9.773   1.936 -0.1518 -0.1845 -0.2011
  760MOL0     C 2502   0.077   9.758   1.960 -0.1511 -0.6512  0.1613
  760MOL0     C 2503   0.168   9.842   1.874 -0.1167 -0.6380  0.9855
  760MOL0     C 2504   0.322   9.812   1.879 -0.7460 -0.2353  0.1380
  760MOL0     C 2505   0.424   9.862   1.780  0.3868  0.3309  0.0027
  760MOL0     C 2506   0.380   9.859   1.630 -0.1084 -0.8111 -0.8056
  760MOL0     C 2507   0.468   9.945   1.528  0.9983 -1.3698  0.5640
  760MOL0     C 2508   0.603   9.875   1.497 -0.4333 -0.5641  0.1047
  760MOL0    Cl 2509   0.721   9.989   1.425 -0.0783  0.4767  0.1125
  760MOL0     C 2510  -0.199   9.914   2.252 -0.3984 -0.1170  0.8088
  760MOL0     C 2511  -0.217   9.885   2.382 -0.8698 -0.4260 -0.7137
  760MOL0     O 2512  -0.217   9.528   2.605  0.4281  0.3953 -0.1939
  760MOL0     C 2513  -0.130   9.743   2.865  0.3704 -0.5512  0.6984
  760MOL0     C 2514  -0.152   9.781   2.999  0.7967 -1.4557  0.5546
  760MOL0     N 2515  -0.320   9.850   3.885  0.1429  0.0847 -0.0295
  760MOL0     N 2516  -0.222   9.885   3.964  0.5997  0.3842 -0.2537
  760MOL0     C 2517   0.882   9.667   4.249 -0.0995  0.8666  0.3319
  760MOL0     C 2518   0.988   9.573   4.225 -0.0304  0.4909  0.4038
  760MOL0     C 2519   1.223   9.264   4.153  1.0967  0.0400 -0.0279
  760MOL0     C 2520   1.360   9.304   4.171 -0.2413  0.5033  0.2720
  760MOL0     C 2521   1.445   9.212   4.237  0.5975  0.0463  0.3877
  760MOL0     C 2522   1.393   9.083   4.272 -0.6429  0.6915 -0.3636
  760MOL0     O 2523   1.487   9.003   4.329  0.7620  0.4374  1.0221
  760MOL0     C 2524   1.454   8.873   4.366 -0.1736  0.6821 -0.0872
  760MOL0     C 2525   1.461   8.780   4.246 -0.1438  1.2238  0.0634
  760MOL0     C 2526   1.587   8.773   4.156  0.9708 -0.9941 -0.2376
  760MOL0     C 2527   1.702   8.680   4.193 -0.3591  0.1413 -0.1832
  760MOL0     C 2528   1.818   8.679   4.091 -0.0935 -0.0098 -0.1781
  760MOL0     C 2529   1.889   8.679   3.994  0.1854  1.1937  0.3234
  760MOL0     C 2530   1.266   9.041   4.249  0.2236 -0.3754 -0.2616
  760MOL0     C 2531   1.177   9.134   4.189 -0.5342  0.4597 -0.2223
  760MOL0     C 2532   1.047   9.090   4.151  0.0715 -0.1046  0.0701
  760MOL0     H 2533   1.128   9.707   3.944  1.7729 -0.7771  1.6268
  760MOL0     H 2534   0.944   9.871   3.987 -1.1696  0.3185 -0.3301
  760MOL0     H 2535   0.660   9.786   4.322 -0.0185 -0.7956  0.6733
  760MOL0     H 2536   0.772   9.913   4.377 -1.2020  0.2216 -0.7392
  760MOL0     H 2537   0.629  10.081   4.245 -2.4049  0.1116 -2.4157
  760MOL0     H 2538   0.567  10.006   4.390 -2.4605 -0.4223 -0.6717
  760MOL0     H 2539   0.441   9.837   4.267 -0.7961  0.6891  0.9659
  760MOL0     H 2540   0.532   9.900   4.114  4.2313  3.4778  0.7846
  760MOL0     H 2541   0.324  10.039   4.295  0.1539  0.2882 -0.3515
  760MOL0     H 2542   0.410  10.110   4.158 -0.2782 -0.0747 -0.5101
  760MOL0     H 2543   0.205  10.081   4.069 -1.7598 -0.7508  0.4971
  760MOL0     H 2544   0.330   9.968   4.004  2.2167 -0.7210  2.2104
  760MOL0     H 2545   0.221   9.788   4.172 -2.9592 -1.2873  1.0829
  760MOL0     H 2546   0.094   9.908   4.211 -0.4505 -3.4084  2.1282
  760MOL0     H 2547   0.015   9.769   4.024 -0.6713  0.5893  0.1730
  760MOL0     H 2548   0.158   9.814   3.932  0.8265  2.8662 -0.0945
  760MOL0     H 2549  -0.029  10.033   4.042 -0.8683 -3.5940  2.4745
  760MOL0     H 2550   0.064  10.030   3.883 -1.9090  0.3028 -1.4636
  760MOL0     H 2551  -0.084   9.953   3.688  2.7889  0.2873  2.5976
  760MOL0     H 2552  -0.456   9.842   3.661 -0.3197  1.4220  1.8464
  760MOL0     H 2553  -0.373   9.983   3.611  0.6425 -0.4849 -1.4420
  760MOL0     H 2554  -0.203   9.835   3.502  1.3475 -3.0128  0.3086
  760MOL0     H 2555  -0.302   9.687   3.529 -0.2559 -0.7410 -0.2247
  760MOL0     H 2556  -0.385   9.916   3.350 -3.3113 -0.8643 -2.4710
  760MOL0     H 2557  -0.503   9.794   3.422  0.4509 -0.3903  3.7374
  760MOL0     H 2558  -0.464   9.695   3.214  0.3362 -0.2711 -0.1824
  760MOL0     H 2559  -0.351   9.619   3.322 -2.9654  0.3539  2.6489
  760MOL0     H 2560  -0.410   9.577   3.058  1.2098  0.5240  2.6968
  760MOL0     H 2561  -0.386   9.526   2.821 -2.5528  3.7904 -1.2348
  760MOL0     H 2562  -0.082   9.579   2.394  1.0764 -0.2005 -2.5396
  760MOL0     H 2563  -0.048   9.624   2.156  0.6491 -0.1044 -0.2514
  760MOL0     H 2564  -0.116   9.672   1.940  0.4490 -0.3930  2.0028
  760MOL0     H 2565  -0.095   9.819   1.839  0.8846 -0.6876 -0.6860
  760MOL0     H 2566   0.106   9.771   2.064 -1.2162 -0.2808  0.4232
  760MOL0     H 2567   0.098   9.655   1.930 -1.4603 -0.7416 -0.5142
  760MOL0     H 2568   0.137   9.815   1.773  3.2803  0.4294 -0.4817
  760MOL0     H 2569   0.151   9.950   1.880  2.3458 -0.1249 -0.0859
  760MOL0     H 2570   0.349   9.707   1.891 -1.9288 -0.5260  0.4157
  760MOL0     H 2571   0.351   9.852   1.977 -0.6519 -0.6569  0.2806
  760MOL0     H 2572   0.519   9.814   1.802  0.2550  0.8404  1.8052
  760MOL0     H 2573   0.432   9.966   1.814 -1.1894 -0.4890  3.2132
  760MOL0     H 2574   0.384   9.756   1.594 -0.8501 -0.3674 -2.2247
  760MOL0     H 2575   0.278   9.895   1.612  1.2522  3.2285 -1.4236
  760MOL0     H 2576   0.482  10.045   1.571 -2.4880 -0.8891  0.9269
  760MOL0     H 2577   0.414   9.958   1.434  1.3899  0.0593  0.5079
  760MOL0     H 2578   0.647   9.836   1.589  3.5620 -1.9839 -2.1133
  760MOL0     H 2579   0.582   9.782   1.442 -2.6745 -1.4605  2.2650
  760MOL0     H 2580  -0.221  10.006   2.199  1.8566 -0.4357 -0.8150
  760MOL0     H 2581  -0.263   9.961   2.445 -1.0618 -1.1569  0.0545
  760MOL0     H 2582  -0.047   9.783   2.808 -1.4830  0.1697 -1.6385
  760MOL0     H 2583  -0.087   9.854   3.048  1.2459 -2.3377  1.3109
  760MOL0     H 2584   0.817   9.661   4.335  0.8487  0.9214  1.0796
  760MOL0     H 2585   0.981   9.479   4.280 -0.4609 -2.3510 -3.9707
  760MOL0     H 2586   1.397   9.397   4.129 -0.5509  0.1841 -0.7349
  760MOL0     H 2587   1.550   9.234   4.249  0.4457  0.9655  0.0535
  760MOL0     H 2588   1.353   8.861   4.407 -1.2949  0.4797 -2.6897
  760MOL0     H 2589   1.516   8.846   4.451 -1.9871 -1.9409  0.5354
  760MOL0     H 2590   1.377   8.816   4.186 -2.8717  0.7969  3.3490
  760MOL0     H 2591   1.428   8.684   4.287  1.6935  1.5125  2.4379
  760MOL0     H 2592   1.615   8.878   4.144  1.0895 -1.1519 -1.4780
  760MOL0     H 2593   1.571   8.744   4.052  3.3623  1.3732 -1.3814
  760MOL0     H 2594   1.738   8.702   4.293 -0.9854 -0.7089  0.2462
  760MOL0     H 2595   1.648   8.584   4.190 -0.9513  0.3774  1.6374
  760MOL0     H 2596   1.956   8.685   3.911  0.5800 -3.9610 -0.0518
  760MOL0     H 2597   1.248   8.934   4.261  0.9024 -0.4851 -0.1765
  760MOL0     H 2598   1.026   9.102   4.044  2.8055 -2.4871 -0.8702
  760MOL0     H 2599   1.033   8.983   4.164  1.2885 -0.6702 -2.4974
  760MOL0     H 2600   0.973   9.152   4.201 -0.1031  0.4251 -0.8277
  761MOL0     O 2601   3.197   5.647   9.625  0.0694 -0.2894  0.0919
  761MOL0     C 2602   3.157   5.668   9.736 -0.2434  0.0429 -0.7815
  761MOL0     O 2603   3.103   5.579   9.821  0.0961  0.4482 -0.5321
  761MOL0     C 2604   3.087   5.448   9.772 -0.3076 -0.2907 -0.0766
  761MOL0     C 2605   3.179   5.349   9.812 -0.0092 -0.5396  0.3350
  761MOL0     C 2606   3.166   5.218   9.766  0.2570 -0.4598  0.6706
  761MOL0     C 2607   3.075   5.180   9.668 -0.9867  0.1519  1.3960
  761MOL0     O 2608   3.054   5.059   9.618  1.3413 -0.3536  0.4839
  761MOL0     C 2609   3.128   4.945   9.667  0.3196  0.5554  0.3337
  761MOL0     C 2610   3.093   4.803   9.617 -0.0644 -0.9186  0.3864
  761MOL0     C 2611   3.135   4.770   9.471  0.5008 -0.0408 -0.1310
  761MOL0     C 2612   3.115   4.623   9.439  0.4615 -0.2455 -0.1525
  761MOL0     C 2613   3.127   4.600   9.278  0.3473 -1.6435 -0.4837
  761MOL0     C 2614   3.184   4.459   9.242  0.1488 -0.1069 -0.2984
  761MOL0     C 2615   3.140   4.385   9.114 -0.6738 -0.1282  0.7640
  761MOL0     C 2616   3.182   4.469   8.992  0.0366 -0.2818  0.3682
  761MOL0     N 2617   3.168   4.375   8.876  0.0257 -0.9764  0.0476
  761MOL0     C 2618   3.072   4.370   8.785  0.4923  1.1069  0.1695
  761MOL0     C 2619   3.123   4.282   8.692 -0.5188 -0.9227 -0.0601
  761MOL0     C 2620   3.054   4.247   8.560  0.5128 -0.7858  0.7800
  761MOL0     C 2621   2.925   4.161   8.583  0.1628 -0.4256 -0.4989
  761MOL0     C 2622   2.855   4.120   8.451 -0.3227 -0.9000  0.3315
  761MOL0     C 2623   2.707   4.077   8.468 -0.5575  0.7203 -0.1476
  761MOL0     O 2624   2.622   4.168   8.527 -0.6545  0.2611 -0.5535
  761MOL0     C 2625   2.490   4.126   8.538  0.6673 -0.2291 -0.7126
  761MOL0     C 2626   2.389   4.211   8.501 -0.3559  0.3205  0.0502
  761MOL0     C 2627   2.249   4.177   8.518 -1.0332 -0.5687  0.8938
  761MOL0     C 2628   2.214   4.055   8.570  0.2995 -0.3464  0.7294
  761MOL0     C 2629   2.075   4.012   8.599  0.7841 -0.8217 -0.7615
  761MOL0     O 2630   2.055   3.908   8.683  0.7789 -0.4385 -0.5850
  761MOL0     C 2631   1.921   3.877   8.697 -0.0554  0.5301  0.7072
  761MOL0     C 2632   1.823   3.945   8.768 -0.0957 -0.8452 -0.0253
  761MOL0     C 2633   1.689   3.898   8.765 -0.8051  0.8987 -0.1511
  761MOL0     C 2634   1.658   3.777   8.692 -0.4352 -0.7032 -0.7063
  761MOL0     O 2635   1.528   3.734   8.682  1.0189 -0.3006  0.1995
  761MOL0     C 2636   1.466   3.703   8.808 -0.8408  1.4475  0.4051
  761MOL0     C 2637   1.372   3.586   8.779 -0.6660  1.2235  0.2158
  761MOL0     C 2638   1.245   3.643   8.705 -0.0931 -0.2189 -0.5347
  761MOL0     C 2639   1.139   3.534   8.716 -0.5758  0.4123  0.2379
  761MOL0     C 2640   1.001   3.586   8.660  0.5569 -0.0785 -0.2427
  761MOL0     C 2641   0.922   3.653   8.775  0.4552  0.4218 -0.1035
  761MOL0     C 2642   0.782   3.712   8.722  0.1853  0.0560  0.1607
  761MOL0     C 2643   0.687   3.596   8.715  0.1983 -0.1641 -0.0530
  761MOL0    Cl 2644   0.510   3.633   8.682 -0.2761 -0.2051 -0.3585
  761MOL0     C 2645   1.757   3.699   8.628 -0.2708 -0.4512 -0.8227
  761MOL0     C 2646   1.881   3.758   8.630  0.0125  0.5271  0.4562
  761MOL0     O 2647   1.984   4.078   8.547  0.2251 -0.1697  0.6963
  761MOL0     C 2648   2.319   3.973   8.621 -0.0548 -0.3815 -0.3334
  761MOL0     C 2649   2.453   4.004   8.605 -0.1018  0.3617  0.9061
  761MOL0     N 2650   3.239   4.237   8.740 -0.3575  0.5567 -0.4355
  761MOL0     N 2651   3.264   4.290   8.847 -0.4597 -0.5186 -0.0328
  761MOL0     C 2652   2.984   5.283   9.620  0.6921  1.5132  0.1409
  761MOL0     C 2653   2.991   5.414   9.669  0.1659 -0.0129  0.2308
  761MOL0     C 2654   3.180   5.809   9.784  0.2379 -0.1309  0.1132
  761MOL0     C 2655   3.191   5.832   9.919 -0.1034 -0.2128 -0.0815
  761MOL0     C 2656   3.192   5.966   9.967 -0.3846  1.3714  0.1323
  761MOL0     C 2657   3.206   6.083   9.888 -0.5316  0.0491  0.1904
  761MOL0     O 2658   3.197   6.208   9.951 -0.2678 -0.6920  0.0768
  761MOL0     C 2659   3.164   6.328   9.875  0.9523 -0.2130  0.0701
  761MOL0     C 2660   3.147   6.441   9.977  0.0910 -0.6499 -0.2331
  761MOL0     C 2661   3.282   6.495  10.015 -0.1598  0.6262 -0.0067
  761MOL0     C 2662   3.280   6.566  10.155  0.4612  0.6911  1.4931
  761MOL0     C 2663   3.409   6.630  10.162  0.0466 -0.9108 -0.4004
  761MOL0     C 2664   3.523   6.673  10.170  0.4357  0.0264  0.6198
  761MOL0     C 2665   3.202   6.054   9.751 -1.4101 -0.4773  0.0949
  761MOL0     C 2666   3.188   5.924   9.700  0.1632 -0.4817 -1.8409
  761MOL0     C 2667   3.174   5.920   9.555  0.5416 -0.1894 -0.5585
  761MOL0     H 2668   3.261   5.369   9.881 -0.6913  3.4588  0.2538
  761MOL0     H 2669   3.246   5.156   9.806  1.5479  0.7555  0.0415
  761MOL0     H 2670   3.236   4.955   9.656 -0.0275  2.3727 -2.5695
  761MOL0     H 2671   3.124   4.959   9.775 -1.5703 -0.9934  0.5147
  761MOL0     H 2672   2.984   4.793   9.629  0.0170 -1.4731  0.6934
  761MOL0     H 2673   3.153   4.729   9.672  0.4177 -3.0565 -2.7750
  761MOL0     H 2674   3.242   4.791   9.469  0.2784  1.6544  2.1823
  761MOL0     H 2675   3.084   4.840   9.404  1.4645  1.5965  0.7834
  761MOL0     H 2676   3.199   4.568   9.482  0.4860  0.6218  0.9367
  761MOL0     H 2677   3.030   4.570   9.484  2.4794 -1.6635  2.2605
  761MOL0     H 2678   3.026   4.613   9.237  0.2343 -0.0653  0.2029
  761MOL0     H 2679   3.188   4.678   9.232  0.3322  1.2616  3.8038
  761MOL0     H 2680   3.293   4.460   9.247  0.1502 -1.4419  0.3828
  761MOL0     H 2681   3.148   4.395   9.323 -1.5812 -1.4155 -1.9927
  761MOL0     H 2682   3.031   4.382   9.122 -0.9334  2.1279 -0.9265
  761MOL0     H 2683   3.177   4.283   9.102 -1.4600 -0.3877  0.4781
  761MOL0     H 2684   3.128   4.564   8.984  2.2821  1.4076  2.9649
  761MOL0     H 2685   3.286   4.501   9.007 -0.2684 -0.2241  2.7556
  761MOL0     H 2686   2.975   4.418   8.776 -0.7709 -0.4401  3.8327
  761MOL0     H 2687   3.039   4.344   8.512 -2.7049  0.2385  3.3904
  761MOL0     H 2688   3.119   4.200   8.487 -0.0746  0.2296 -0.4297
  761MOL0     H 2689   2.951   4.074   8.643 -1.3149 -1.4605 -1.3238
  761MOL0     H 2690   2.858   4.229   8.636  0.9353 -2.1699  2.9992
  761MOL0     H 2691   2.900   4.030   8.406 -1.5307 -0.7679 -1.2474
  761MOL0     H 2692   2.853   4.197   8.373  0.3232  0.5335  1.7000
  761MOL0     H 2693   2.709   3.980   8.518 -0.2887  0.3458 -0.8548
  761MOL0     H 2694   2.652   4.042   8.380  0.3710 -2.6174  0.4850
  761MOL0     H 2695   2.416   4.302   8.449 -1.7873  1.3682  1.0846
  761MOL0     H 2696   2.168   4.234   8.473  0.2402  0.0414 -0.7442
  761MOL0     H 2697   1.854   4.035   8.819  0.8105 -1.0261 -0.2405
  761MOL0     H 2698   1.624   3.956   8.829  0.0707  1.8783 -0.1148
  761MOL0     H 2699   1.542   3.688   8.886  0.4529 -0.1650 -1.0713
  761MOL0     H 2700   1.404   3.783   8.849  1.3703  1.2229  4.7557
  761MOL0     H 2701   1.421   3.508   8.720  0.2475  1.0138  1.2035
  761MOL0     H 2702   1.348   3.546   8.878 -1.0051  2.7257  0.7737
  761MOL0     H 2703   1.212   3.735   8.754 -1.5356 -2.6700  3.6761
  761MOL0     H 2704   1.254   3.677   8.602 -0.6736  1.9388  0.0717
  761MOL0     H 2705   1.148   3.493   8.817 -1.2156  1.4776  0.7451
  761MOL0     H 2706   1.186   3.459   8.652  3.0231  1.2183  1.6716
  761MOL0     H 2707   0.945   3.503   8.615  2.4246 -1.4743 -0.1179
  761MOL0     H 2708   1.018   3.658   8.580  0.3779  0.7319  0.4283
  761MOL0     H 2709   0.899   3.583   8.855  0.5371  1.2013  0.6180
  761MOL0     H 2710   0.986   3.729   8.821  2.1015 -0.3888 -0.9655
  761MOL0     H 2711   0.794   3.767   8.628 -1.4560 -1.2406 -0.8575
  761MOL0     H 2712   0.741   3.782   8.796 -0.4361 -1.0431  0.8901
  761MOL0     H 2713   0.721   3.520   8.644  1.2622 -3.3439  3.5240
  761MOL0     H 2714   0.685   3.547   8.813 -2.1205 -0.4806 -0.1885
  761MOL0     H 2715   1.728   3.606   8.580 -0.5248 -1.5857  1.3833
  761MOL0     H 2716   1.958   3.714   8.566 -1.9255 -2.5092  0.0109
  761MOL0     H 2717   2.293   3.891   8.687 -1.2471  0.5546  0.3989
  761MOL0     H 2718   2.535   3.947   8.647 -0.4523 -1.7887 -1.1271
  761MOL0     H 2719   2.922   5.265   9.533  1.0962  0.8814 -0.0198
  761MOL0     H 2720   2.922   5.487   9.629 -0.5000 -0.1805  1.0455
  761MOL0     H 2721   3.194   5.745   9.984  2.4769 -0.2872 -0.1823
  761MOL0     H 2722   3.188   5.962  10.075  3.7480  0.8184  0.4258
  761MOL0     H 2723   3.074   6.315   9.814  2.8145 -2.1144 -2.4786
  761MOL0     H 2724   3.230   6.348   9.790  0.0359 -1.9611 -1.1168
  761MOL0     H 2725   3.092   6.413  10.067  1.3092 -2.7012 -0.0486
  761MOL0     H 2726   3.091   6.524   9.935 -0.3908  1.9909  4.8619
  761MOL0     H 2727   3.307   6.567   9.937 -2.1886  0.3967 -0.9303
  761MOL0     H 2728   3.358   6.416  10.025  1.2951  2.0928  1.0721
  761MOL0     H 2729   3.191   6.630  10.155 -2.3398 -2.6822 -1.9074
  761MOL0     H 2730   3.278   6.488  10.231  1.9370 -3.0435 -1.9231
  761MOL0     H 2731   3.620   6.714  10.191  2.4173 -0.6871 -5.3047
  761MOL0     H 2732   3.215   6.133   9.677 -2.9683  0.0103  0.3014
  761MOL0     H 2733   3.264   5.898   9.497 -0.1893 -0.9327 -1.4608
  761MOL0     H 2734   3.096   5.848   9.526 -0.0673  0.7155 -1.2500
  761MOL0     H 2735   3.143   6.018   9.518  0.0035 -0.4316 -0.7628
  762MOL0     O 2736   4.650   5.493  11.428 -0.3927 -0.5999 -0.9640
  762MOL0     C 2737   4.723   5.444  11.519  0.3022  1.1879  0.4213
  762MOL0     O 2738   4.863   5.441  11.512  1.0877  0.3075  0.1038
  762MOL0     C 2739   4.912   5.518  11.408 -0.5308  0.1020  0.6364
  762MOL0     C 2740   4.919   5.665  11.402 -0.1862 -0.1729  0.1153
  762MOL0     C 2741   4.992   5.732  11.293 -0.5262  0.1221 -0.8714
  762MOL0     C 2742   5.042   5.660  11.183  0.7095 -0.9073 -0.8728
  762MOL0     O 2743   5.103   5.719  11.073 -0.8119  0.5637  0.0350
  762MOL0     C 2744   5.153   5.855  11.076  0.2306  0.3956 -1.0947
  762MOL0     C 2745   5.271   5.875  11.166 -0.0252 -0.5602 -0.0313
  762MOL0     C 2746   5.358   6.008  11.162 -0.2127 -0.2571 -0.3201
  762MOL0     C 2747   5.339   6.070  11.025 -1.0450  0.3574  0.2371
  762MOL0     C 2748   5.431   6.178  10.984 -0.6767 -0.2250  0.3950
  762MOL0     C 2749   5.577   6.151  10.983  0.2317  0.6727 -0.2973
  762MOL0     C 2750   5.620   6.031  10.882 -0.4951 -0.0260  0.4204
  762MOL0     C 2751   5.762   6.059  10.833 -0.2001 -0.9422 -0.1775
  762MOL0     N 2752   5.810   5.956  10.741 -0.1169  0.0253 -0.6803
  762MOL0     C 2753   5.841   5.825  10.768 -0.7191 -0.7561 -0.1901
  762MOL0     C 2754   5.886   5.786  10.644 -0.0446  0.4345  0.2253
  762MOL0     C 2755   5.950   5.657  10.615  0.1021  0.3152  0.1497
  762MOL0     C 2756   6.090   5.634  10.671 -0.4620  0.5361  0.6359
  762MOL0     C 2757   6.201   5.735  10.618 -0.2492  0.0538 -0.1911
  762MOL0     C 2758   6.218   5.852  10.721  0.4364  0.1337  0.2011
  762MOL0     O 2759   6.321   5.813  10.812 -0.3511 -0.3545 -0.3432
  762MOL0     C 2760   6.390   5.915  10.861 -0.3398 -0.1804  0.2980
  762MOL0     C 2761   6.347   6.012  10.947 -0.4503 -0.3387  0.2510
  762MOL0     C 2762   6.438   6.108  10.994  0.5646 -0.0345 -0.2097
  762MOL0     C 2763   6.572   6.109  10.946 -0.2204 -0.2124 -0.4524
  762MOL0     C 2764   6.656   6.230  10.986 -0.1966  1.3038 -0.1056
  762MOL0     O 2765   6.781   6.216  10.938  0.2784  0.1103  0.1436
  762MOL0     C 2766   6.865   6.303  10.998 -0.5858  0.2276  0.1549
  762MOL0     C 2767   6.910   6.294  11.131 -0.8032 -0.1397  0.5921
  762MOL0     C 2768   7.019   6.374  11.163  0.6070 -0.1411 -0.6035
  762MOL0     C 2769   7.077   6.464  11.082  0.4214 -0.5961 -0.6791
  762MOL0     O 2770   7.181   6.545  11.117 -0.3595  0.4709  0.1006
  762MOL0     C 2771   7.184   6.612  11.241 -0.4068  0.8036  0.0342
  762MOL0     C 2772   7.275   6.735  11.241 -0.1780 -0.5300  0.1020
  762MOL0     C 2773   7.413   6.699  11.179 -0.0570 -0.4145  0.0846
  762MOL0     C 2774   7.521   6.818  11.199 -0.4165 -0.1851 -0.4225
  762MOL0     C 2775   7.661   6.780  11.135  0.4516  0.6052  0.3243
  762MOL0     C 2776   7.672   6.785  10.987 -0.4365  0.7792  0.0988
  762MOL0     C 2777   7.816   6.768  10.939  0.4165 -0.2268 -0.0228
  762MOL0     C 2778   7.847   6.625  10.933 -2.0322  0.8270  0.2012
  762MOL0    Cl 2779   7.765   6.523  10.816 -0.5407 -0.4971 -0.2996
  762MOL0     C 2780   7.028   6.488  10.955 -0.0859 -0.4913  0.2162
  762MOL0     C 2781   6.921   6.405  10.912  0.1470  0.2566 -0.0648
  762MOL0     O 2782   6.611   6.314  11.060 -0.2149  0.4254 -0.5534
  762MOL0     C 2783   6.622   6.005  10.862  1.1195  0.1315 -0.0515
  762MOL0     C 2784   6.522   5.906  10.821 -0.4773 -0.2029 -0.4106
  762MOL0     N 2785   5.862   5.889  10.550 -0.5720  0.2887  0.0156
  762MOL0     N 2786   5.836   5.994  10.617 -0.1241  0.3536 -0.2494
  762MOL0     C 2787   5.028   5.521  11.181 -1.0459 -0.0409  0.0339
  762MOL0     C 2788   4.975   5.452  11.290  0.0856  0.1814 -0.8610
  762MOL0     C 2789   4.656   5.377  11.629  0.0335  0.3705  0.2592
  762MOL0     C 2790   4.729   5.281  11.692  0.0846  0.4696 -0.7696
  762MOL0     C 2791   4.671   5.185  11.778  0.5810 -0.3465 -0.5808
  762MOL0     C 2792   4.533   5.197  11.818  0.3464  0.2224 -0.2159
  762MOL0     O 2793   4.463   5.109  11.904 -0.0313  0.2857  0.4499
  762MOL0     C 2794   4.536   4.992  11.951 -0.2344 -0.1672 -0.2730
  762MOL0     C 2795   4.479   4.922  12.076 -0.0071 -0.2772  0.8814
  762MOL0     C 2796   4.503   5.004  12.201 -0.0687  0.3106 -0.4007
  762MOL0     C 2797   4.449   4.938  12.334 -1.0306 -0.5912  1.0038
  762MOL0     C 2798   4.307   4.912  12.334  0.1047 -0.3386  0.1033
  762MOL0     C 2799   4.190   4.886  12.320 -0.3206 -0.0821 -0.3904
  762MOL0     C 2800   4.460   5.301  11.759 -0.3455 -1.4472 -0.1311
  762MOL0     C 2801   4.524   5.398  11.675 -0.5113  0.2583  0.8357
  762MOL0     C 2802   4.443   5.515  11.634 -0.0648 -0.0191  0.6834
  762MOL0     H 2803   4.887   5.728  11.485  1.5412  2.0589 -0.8147
  762MOL0     H 2804   5.009   5.839  11.294  1.8875 -0.2011  0.3831
  762MOL0     H 2805   5.178   5.874  10.971 -0.4595 -1.8410 -1.7218
  762MOL0     H 2806   5.073   5.926  11.099 -2.2265 -2.5794  0.2697
  762MOL0     H 2807   5.334   5.788  11.146 -0.8316 -0.8003 -1.6737
  762MOL0     H 2808   5.218   5.872  11.262 -0.8861 -1.6255 -0.5226
  762MOL0     H 2809   5.466   5.997  11.179 -0.2927  1.7176  2.0314
  762MOL0     H 2810   5.327   6.079  11.239  1.1713 -1.3526  1.3280
  762MOL0     H 2811   5.345   5.997  10.943  2.2919  2.5452 -1.6968
  762MOL0     H 2812   5.236   6.106  11.030 -1.9649 -1.9254 -0.7456
  762MOL0     H 2813   5.413   6.217  10.884 -0.6081 -2.5358 -0.5863
  762MOL0     H 2814   5.419   6.261  11.054  2.2646  1.0620 -0.4613
  762MOL0     H 2815   5.629   6.240  10.947  0.1131  0.3593 -1.2610
  762MOL0     H 2816   5.617   6.130  11.083 -1.0781  1.1576  0.3431
  762MOL0     H 2817   5.548   6.025  10.800 -2.0070 -1.0931  1.7460
  762MOL0     H 2818   5.625   5.936  10.938 -1.1007 -0.6472 -0.5454
  762MOL0     H 2819   5.762   6.157  10.784 -2.3170 -0.8478 -0.0897
  762MOL0     H 2820   5.831   6.066  10.917 -2.0983 -2.4376  1.6155
  762MOL0     H 2821   5.834   5.771  10.862 -3.5239 -1.0104 -0.4577
  762MOL0     H 2822   5.892   5.573  10.652 -1.1218  2.1734  2.7511
  762MOL0     H 2823   5.953   5.659  10.505 -3.2688 -1.1722 -0.1077
  762MOL0     H 2824   6.080   5.645  10.779 -0.3505  4.3580  0.3958
  762MOL0     H 2825   6.130   5.539  10.637  2.5006  1.2339  1.8108
  762MOL0     H 2826   6.179   5.767  10.516  1.8684 -1.2873 -1.1347
  762MOL0     H 2827   6.297   5.685  10.602  0.1302  0.4493  0.7550
  762MOL0     H 2828   6.123   5.877  10.771  0.4837  2.3737 -0.7164
  762MOL0     H 2829   6.253   5.943  10.672  1.4041  1.0275  2.3903
  762MOL0     H 2830   6.250   6.023  10.996  1.3685  2.8697  3.6271
  762MOL0     H 2831   6.409   6.184  11.066  0.4131 -0.2640 -0.0307
  762MOL0     H 2832   6.874   6.214  11.195 -1.2647 -2.7750 -2.6725
  762MOL0     H 2833   7.045   6.365  11.268  0.2823  1.2477 -0.3800
  762MOL0     H 2834   7.084   6.644  11.272 -0.7895 -1.9053  1.8473
  762MOL0     H 2835   7.219   6.537  11.312  2.2534  1.4229 -0.4845
  762MOL0     H 2836   7.225   6.811  11.180  3.0859  2.2958  0.6880
  762MOL0     H 2837   7.288   6.762  11.347 -0.6064 -1.3754  0.3809
  762MOL0     H 2838   7.440   6.604  11.227  0.3698  0.4527  1.6176
  762MOL0     H 2839   7.389   6.688  11.073  1.9279 -0.4236 -0.4148
  762MOL0     H 2840   7.543   6.835  11.304 -2.0331 -3.4734  0.5805
  762MOL0     H 2841   7.488   6.908  11.145 -4.1960 -0.0112  1.8025
  762MOL0     H 2842   7.674   6.674  11.160  1.3030 -0.2495 -3.2241
  762MOL0     H 2843   7.738   6.835  11.189  1.7100 -1.3482  0.6285
  762MOL0     H 2844   7.605   6.708  10.945  0.9299 -0.7394  0.5855
  762MOL0     H 2845   7.625   6.878  10.955  0.3113  0.9219 -0.6098
  762MOL0     H 2846   7.889   6.809  11.010 -0.9056 -3.6557  3.7221
  762MOL0     H 2847   7.826   6.815  10.841  3.1433 -0.2346  0.1778
  762MOL0     H 2848   7.955   6.613  10.918 -1.7047  2.0384  1.4268
  762MOL0     H 2849   7.826   6.579  11.030 -1.8452  0.0087 -0.1365
  762MOL0     H 2850   7.079   6.549  10.881 -3.6114  1.5036 -0.8210
  762MOL0     H 2851   6.886   6.407  10.809 -2.3049 -5.4045  0.2995
  762MOL0     H 2852   6.723   6.000  10.823  1.3133 -1.3865  0.5683
  762MOL0     H 2853   6.555   5.824  10.759  1.6400  1.2934 -1.3955
  762MOL0     H 2854   5.066   5.452  11.107 -0.3699 -1.0889  1.3207
  762MOL0     H 2855   4.965   5.344  11.287 -1.9075  0.1404  2.3882
  762MOL0     H 2856   4.829   5.256  11.657  0.4769 -2.0490  1.7449
  762MOL0     H 2857   4.724   5.096  11.809 -0.4835 -0.4966  0.9237
  762MOL0     H 2858   4.636   5.020  11.984  0.0852 -1.8809  0.3464
  762MOL0     H 2859   4.544   4.914  11.874  2.8661  2.8717 -3.3651
  762MOL0     H 2860   4.548   4.838  12.092  1.5833  0.1681 -2.6462
  762MOL0     H 2861   4.380   4.882  12.056 -0.2455  1.6659 -2.4473
  762MOL0     H 2862   4.468   5.106  12.187  3.2748  1.3565 -2.2908
  762MOL0     H 2863   4.611   5.016  12.210  0.6220 -0.9319 -4.7543
  762MOL0     H 2864   4.503   4.845  12.350  0.9839  0.2913 -0.2776
  762MOL0     H 2865   4.481   4.994  12.422  0.0279 -2.1234  1.6275
  762MOL0     H 2866   4.090   4.868  12.285 -0.5971 -2.1864  1.2915
  762MOL0     H 2867   4.359   5.336  11.779 -0.1362 -1.4470  1.0106
  762MOL0     H 2868   4.502   5.607  11.626  0.9777 -0.5542  1.9014
  762MOL0     H 2869   4.405   5.497  11.533  1.4173  1.2025 -0.1472
  762MOL0     H 2870   4.370   5.539  11.711  0.9804  1.3150  1.2983
  763MOL0     O 2871   7.098   9.456   0.909 -1.4015 -0.6453 -0.5228
  763MOL0     C 2872   7.063   9.427   0.798 -0.3070  1.1338  0.8079
  763MOL0     O 2873   6.934   9.407   0.748  0.1029 -0.8548 -0.4863
  763MOL0     C 2874   6.841   9.429   0.852  0.7178 -0.3550  0.3106
  763MOL0     C 2875   6.761   9.544   0.860 -0.3691 -0.1202 -0.8057
  763MOL0     C 2876   6.653   9.550   0.949  0.5933 -0.9560 -0.0963
  763MOL0     C 2877   6.623   9.435   1.022  0.3737 -0.3500  0.6038
  763MOL0     O 2878   6.511   9.435   1.097  0.8975 -0.3888  0.4395
  763MOL0     C 2879   6.548   9.476   1.227 -0.5856  1.2058 -0.3020
  763MOL0     C 2880   6.473   9.590   1.281  0.6308 -0.0348 -0.7733
  763MOL0     C 2881   6.325   9.577   1.297  0.1173  0.0442 -0.4421
  763MOL0     C 2882   6.274   9.479   1.413 -0.3979 -0.0249 -0.1207
  763MOL0     C 2883   6.117   9.477   1.417  0.0755  0.5613  0.4829
  763MOL0     C 2884   6.055   9.414   1.550 -0.2929 -0.4423 -0.2051
  763MOL0     C 2885   5.902   9.444   1.579 -0.5572  0.2853 -0.2425
  763MOL0     C 2886   5.821   9.338   1.507  0.3604  0.1233  1.5856
  763MOL0     N 2887   5.680   9.368   1.506  0.2345 -0.0743  0.4107
  763MOL0     C 2888   5.618   9.419   1.623  0.0050  0.2833  0.7091
  763MOL0     C 2889   5.515   9.493   1.565  0.2561  0.1923 -0.2258
  763MOL0     C 2890   5.406   9.576   1.627 -0.2121 -0.2509 -0.3465
  763MOL0     C 2891   5.434   9.591   1.783  0.0713  0.2657 -0.3473
  763MOL0     C 2892   5.328   9.678   1.848  0.3856 -1.4965 -0.4909
  763MOL0     C 2893   5.397   9.739   1.974 -0.1848 -1.1464 -0.5301
  763MOL0     O 2894   5.401   9.632   2.068  0.0056  0.2623  0.3847
  763MOL0     C 2895   5.370   9.678   2.192  0.0796  0.1281  0.8852
  763MOL0     C 2896   5.234   9.684   2.239 -0.2911 -1.7822  0.6864
  763MOL0     C 2897   5.196   9.720   2.374 -0.4592  0.1430 -0.5418
  763MOL0     C 2898   5.299   9.771   2.456  0.2889  0.6842  0.5738
  763MOL0     C 2899   5.266   9.819   2.593 -0.2801 -0.4379  0.4703
  763MOL0     O 2900   5.139   9.788   2.630  0.3620 -0.3218 -0.0518
  763MOL0     C 2901   5.087   9.826   2.750 -0.1884  0.4761 -0.0894
  763MOL0     C 2902   5.036   9.952   2.757 -0.6655  0.3255  0.5815
  763MOL0     C 2903   4.956   9.998   2.873  0.8986  0.2132 -0.1014
  763MOL0     C 2904   4.945   9.899   2.981 -0.5027 -0.5846  0.2150
  763MOL0     O 2905   4.877   9.923   3.098 -0.2514  0.4485  0.3136
  763MOL0     C 2906   4.791  10.041   3.119  0.4330  0.8315 -0.1728
  763MOL0     C 2907   4.646  10.027   3.073  0.8390 -0.3256  0.4303
  763MOL0     C 2908   4.636  10.031   2.919 -1.2892 -0.0448 -0.5791
  763MOL0     C 2909   4.491  10.029   2.873  0.1000  0.6891 -0.5249
  763MOL0     C 2910   4.463  10.076   2.721 -0.2718 -1.6687 -0.4825
  763MOL0     C 2911   4.554  10.008   2.623 -1.6311 -0.0845 -0.0507
  763MOL0     C 2912   4.525  10.061   2.482  0.8957  0.3780 -0.5927
  763MOL0     C 2913   4.652  10.082   2.398 -0.2714 -0.7313  0.6147
  763MOL0    Cl 2914   4.758   9.943   2.391  0.0546 -0.0154 -0.6674
  763MOL0     C 2915   5.014   9.780   2.975  1.1619 -0.0855  0.3384
  763MOL0     C 2916   5.083   9.739   2.864  0.2116 -0.0369  0.0565
  763MOL0     O 2917   5.353   9.859   2.671  0.3516 -0.7788 -0.0040
  763MOL0     C 2918   5.426   9.781   2.406 -0.9120 -0.1246  0.5046
  763MOL0     C 2919   5.466   9.719   2.285  0.4694  0.2575 -0.8812
  763MOL0     N 2920   5.522   9.486   1.425 -0.1718  0.4461 -0.1662
  763MOL0     N 2921   5.613   9.404   1.395  0.5134  0.2661  0.0898
  763MOL0     C 2922   6.717   9.334   1.032 -1.1097 -0.5085 -0.3604
  763MOL0     C 2923   6.824   9.334   0.948  0.3606  0.2058 -0.7040
  763MOL0     C 2924   7.161   9.420   0.687  0.2751 -0.9274 -0.3490
  763MOL0     C 2925   7.132   9.493   0.570 -0.0039  0.1981  0.4941
  763MOL0     C 2926   7.230   9.507   0.469 -0.6832 -0.4607 -0.0348
  763MOL0     C 2927   7.351   9.434   0.491 -0.0229 -0.3521  1.1074
  763MOL0     O 2928   7.441   9.418   0.389  0.2081 -0.1322  0.0974
  763MOL0     C 2929   7.441   9.491   0.268 -1.0810 -0.9645  0.5202
  763MOL0     C 2930   7.564   9.445   0.187  0.3822  0.3518 -0.4045
  763MOL0     C 2931   7.538   9.487   0.037 -0.5549  0.3685 -1.0096
  763MOL0     C 2932   7.567   9.636   0.005 -0.2655 -1.4587 -0.4943
  763MOL0     C 2933   7.557   9.664  -0.137  0.0419  0.5745  0.3940
  763MOL0     C 2934   7.537   9.677  -0.253  0.1727  0.3958  0.6184
  763MOL0     C 2935   7.374   9.368   0.613 -0.0095 -0.5478 -0.4218
  763MOL0     C 2936   7.273   9.345   0.706  0.0651 -0.8594 -0.3079
  763MOL0     C 2937   7.286   9.253   0.819 -0.7401  0.4715  0.3355
  763MOL0     H 2938   6.797   9.619   0.791  0.6455  0.0267 -0.1495
  763MOL0     H 2939   6.577   9.628   0.952  0.5416 -1.0202  0.2413
  763MOL0     H 2940   6.530   9.386   1.286 -0.9404  0.0166 -2.1575
  763MOL0     H 2941   6.653   9.507   1.229 -0.4758  0.9699 -1.5716
  763MOL0     H 2942   6.494   9.682   1.226  0.2058  0.9679  0.6887
  763MOL0     H 2943   6.510   9.607   1.383  0.2309  1.6747 -0.8793
  763MOL0     H 2944   6.278   9.544   1.204 -0.4232  0.5402 -0.3491
  763MOL0     H 2945   6.291   9.678   1.323 -0.7196  0.2129 -2.0965
  763MOL0     H 2946   6.306   9.375   1.398 -0.3907  0.1620 -1.4413
  763MOL0     H 2947   6.318   9.510   1.508  2.1915 -3.5945  0.0844
  763MOL0     H 2948   6.067   9.574   1.405 -1.1072 -0.2741 -1.8480
  763MOL0     H 2949   6.086   9.442   1.318  2.1270 -2.2764  0.7282
  763MOL0     H 2950   6.076   9.308   1.539 -2.4108 -0.9596  0.2492
  763MOL0     H 2951   6.114   9.443   1.637  0.1626 -0.9423 -0.3449
  763MOL0     H 2952   5.882   9.542   1.533  1.3805  1.8166  1.9610
  763MOL0     H 2953   5.883   9.438   1.687  0.0010 -2.3384 -0.2401
  763MOL0     H 2954   5.867   9.333   1.408 -1.1558  0.2440  0.8386
  763MOL0     H 2955   5.837   9.237   1.546 -0.6612 -0.2449  1.0965
  763MOL0     H 2956   5.652   9.429   1.725 -0.4076 -0.0067  0.8787
  763MOL0     H 2957   5.402   9.673   1.577  0.3324  0.2168  0.4830
  763MOL0     H 2958   5.305   9.533   1.625 -1.2804  2.1093 -1.6328
  763MOL0     H 2959   5.440   9.499   1.841 -2.8969  0.9379  1.2499
  763MOL0     H 2960   5.530   9.643   1.777 -0.8064  2.0982  0.6752
  763MOL0     H 2961   5.234   9.623   1.861 -0.6049 -0.0691 -1.3512
  763MOL0     H 2962   5.310   9.766   1.786 -1.2631 -2.8834 -2.0821
  763MOL0     H 2963   5.359   9.837   2.004  2.7538  0.0431 -0.3137
  763MOL0     H 2964   5.495   9.769   1.935 -0.1645 -1.2370 -0.5496
  763MOL0     H 2965   5.168   9.658   2.157  0.2305  0.0905 -0.3706
  763MOL0     H 2966   5.094   9.709   2.410  0.2761 -0.5381  1.4770
  763MOL0     H 2967   5.052  10.023   2.677  1.3978 -0.3084  0.3724
  763MOL0     H 2968   4.908  10.095   2.884 -3.1593 -1.7476  1.1761
  763MOL0     H 2969   4.794  10.080   3.222  2.7577  1.0969 -0.2683
  763MOL0     H 2970   4.831  10.124   3.060 -0.4734  1.0653 -0.4674
  763MOL0     H 2971   4.600   9.940   3.121  0.8083  0.3675  1.7107
  763MOL0     H 2972   4.590  10.114   3.109  2.1450 -0.0330  1.8356
  763MOL0     H 2973   4.682  10.117   2.870 -1.0216 -0.1478 -0.5165
  763MOL0     H 2974   4.676   9.939   2.875 -1.9667  0.0907 -1.5104
  763MOL0     H 2975   4.429  10.076   2.950 -2.9366 -0.2859 -2.1998
  763MOL0     H 2976   4.465   9.923   2.866  2.8492 -0.1264  0.5183
  763MOL0     H 2977   4.480  10.184   2.711 -3.2025 -0.9024  1.4907
  763MOL0     H 2978   4.360  10.060   2.689 -0.1729 -0.6752 -1.3782
  763MOL0     H 2979   4.660  10.027   2.641 -1.2535 -1.1777 -0.9816
  763MOL0     H 2980   4.536   9.900   2.631 -0.3333 -0.1865  2.5251
  763MOL0     H 2981   4.467  10.153   2.488  1.9536  1.0644 -0.6762
  763MOL0     H 2982   4.460   9.983   2.441 -0.9243  1.1848  0.6439
  763MOL0     H 2983   4.627  10.122   2.299  2.2117  1.7703  0.8642
  763MOL0     H 2984   4.707  10.155   2.458 -2.7153  0.2435  1.7854
  763MOL0     H 2985   4.995   9.711   3.057 -1.1462  1.0409  0.8409
  763MOL0     H 2986   5.117   9.636   2.858  0.7290  0.1696 -0.7131
  763MOL0     H 2987   5.509   9.831   2.455  1.0137 -1.6888 -1.0073
  763MOL0     H 2988   5.572   9.738   2.274  0.9843 -1.8651 -0.1245
  763MOL0     H 2989   6.691   9.248   1.092  1.7514 -0.7448  0.7045
  763MOL0     H 2990   6.891   9.248   0.948 -1.6769 -1.4921  0.6729
  763MOL0     H 2991   7.031   9.530   0.556 -1.6853 -2.9126  3.0231
  763MOL0     H 2992   7.208   9.564   0.379 -0.6938 -0.3882  0.0142
  763MOL0     H 2993   7.441   9.598   0.289  2.5284 -0.3127 -1.9145
  763MOL0     H 2994   7.351   9.470   0.210 -1.1810  1.7255 -0.4024
  763MOL0     H 2995   7.570   9.336   0.193 -1.0970  0.2631 -0.2141
  763MOL0     H 2996   7.660   9.487   0.219  0.6040  0.9707 -1.7998
  763MOL0     H 2997   7.438   9.458   0.006  0.0828 -0.4701 -2.3719
  763MOL0     H 2998   7.599   9.415  -0.018  1.1492 -0.7192  2.0209
  763MOL0     H 2999   7.485   9.692   0.050  0.7744 -0.0993 -0.2474
  763MOL0     H 3000   7.663   9.673   0.043 -0.0425  0.7656 -2.8936
  763MOL0     H 3001   7.525   9.660  -0.358  1.3415  0.3196  0.4799
  763MOL0     H 3002   7.469   9.319   0.630  0.0441  0.0772  1.1756
  763MOL0     H 3003   7.330   9.310   0.902  1.6420 -1.5183  0.5808
  763MOL0     H 3004   7.195   9.201   0.850  0.6568 -1.7830  0.8386
  763MOL0     H 3005   7.365   9.184   0.788 -2.1593 -0.3991 -1.4928
  764MOL0     O 3006  11.058   5.095   8.456 -0.5625  0.1119 -0.0892
  764MOL0     C 3007  11.086   5.165   8.560 -0.2352  0.1566  0.7110
  764MOL0     O 3008  11.212   5.181   8.614 -0.0108  0.5607  0.5269
  764MOL0     C 3009  11.330   5.108   8.600  0.8559 -0.0210  1.0272
  764MOL0     C 3010  11.448   5.165   8.645 -0.4096  0.3395 -0.2074
  764MOL0     C 3011  11.566   5.088   8.644 -0.1888  0.7501 -0.6378
  764MOL0     C 3012  11.576   4.962   8.574  0.0671  0.6469  0.1721
  764MOL0     O 3013  11.691   4.886   8.581 -0.3930  1.2309  0.0310
  764MOL0     C 3014  11.726   4.838   8.713  0.7481 -0.1842  0.3317
  764MOL0     C 3015  11.853   4.756   8.727  0.3069  0.4704  0.4457
  764MOL0     C 3016  11.969   4.842   8.684 -0.0417 -0.4990 -0.2523
  764MOL0     C 3017  12.098   4.760   8.676 -1.1222  0.0229 -0.4409
  764MOL0     C 3018  12.204   4.831   8.586  0.5135  0.0909 -0.3901
  764MOL0     C 3019  12.254   4.972   8.631 -0.8145 -0.7267  0.2580
  764MOL0     C 3020  12.359   5.040   8.545  0.5099  0.4720 -0.5347
  764MOL0     C 3021  12.496   4.964   8.564  0.0020  0.1082  0.0329
  764MOL0     N 3022  12.596   5.011   8.475  0.5961  0.6130 -0.5345
  764MOL0     C 3023  12.630   5.145   8.462  0.2394 -0.7178  0.3852
  764MOL0     C 3024  12.698   5.153   8.348  0.0792 -0.3994 -0.3449
  764MOL0     C 3025  12.727   5.278   8.263 -0.4857 -0.1528  0.1499
  764MOL0     C 3026  12.849   5.255   8.168 -1.1413 -0.0575 -0.2389
  764MOL0     C 3027  12.806   5.226   8.026  0.3876 -0.2050  0.4574
  764MOL0     C 3028  12.930   5.168   7.940  0.9697 -0.5502 -0.0112
  764MOL0     O 3029  13.037   5.262   7.928  0.4133 -0.8601 -0.1918
  764MOL0     C 3030  13.055   5.331   7.811 -1.4249 -0.4524 -1.3331
  764MOL0     C 3031  12.954   5.378   7.723  0.2761  0.1184 -0.3537
  764MOL0     C 3032  12.990   5.448   7.605 -0.4272  0.0990  0.2554
  764MOL0     C 3033  13.126   5.475   7.570 -0.1966  1.3017 -0.5154
  764MOL0     C 3034  13.145   5.560   7.450  0.9196  1.0167 -0.0938
  764MOL0     O 3035  13.275   5.582   7.414  0.3088 -0.3610  0.3867
  764MOL0     C 3036  13.318   5.657   7.297 -0.0182  0.4880 -0.0169
  764MOL0     C 3037  13.242   5.722   7.197  0.3085 -0.2950  0.2788
  764MOL0     C 3038  13.298   5.805   7.105 -0.6528  0.0702 -0.0989
  764MOL0     C 3039  13.438   5.816   7.097 -1.1159 -0.5819  1.0161
  764MOL0     O 3040  13.495   5.897   7.001 -0.0076  0.0184 -1.1175
  764MOL0     C 3041  13.598   5.990   7.055  0.0261  1.0655  0.2194
  764MOL0     C 3042  13.547   6.066   7.180  0.5620  1.3503 -0.2762
  764MOL0     C 3043  13.613   6.199   7.191  0.0294  0.0408 -0.3263
  764MOL0     C 3044  13.549   6.282   7.310  0.8452  0.2638  1.1700
  764MOL0     C 3045  13.565   6.225   7.441  0.0057 -0.0334  0.2867
  764MOL0     C 3046  13.514   6.300   7.559 -0.0689 -0.2403 -0.6055
  764MOL0     C 3047  13.532   6.223   7.692 -0.4584  0.6782  0.0453
  764MOL0     C 3048  13.503   6.299   7.822  0.6395 -0.6851 -0.4072
  764MOL0    Cl 3049  13.329   6.305   7.824 -0.0889  0.5197  0.3686
  764MOL0     C 3050  13.521   5.726   7.163  0.0555 -0.4541 -1.4971
  764MOL0     C 3051  13.459   5.656   7.267  0.2142 -0.3503 -0.0167
  764MOL0     O 3052  13.047   5.600   7.388 -0.5105  0.2751 -0.3113
  764MOL0     C 3053  13.227   5.452   7.665  0.7040 -0.1638  0.1228
  764MOL0     C 3054  13.189   5.377   7.784  0.2786 -0.5041  0.5191
  764MOL0     N 3055  12.711   5.021   8.298  0.0930 -0.3587  1.1086
  764MOL0     N 3056  12.645   4.938   8.369 -1.0818 -0.0818  0.7978
  764MOL0     C 3057  11.463   4.917   8.521 -0.3863 -0.5313 -0.1144
  764MOL0     C 3058  11.343   4.989   8.536 -0.6632  0.1616 -1.1728
  764MOL0     C 3059  10.968   5.239   8.620 -0.7836 -0.2690 -0.5752
  764MOL0     C 3060  10.839   5.203   8.597  0.2047 -0.4515 -0.2157
  764MOL0     C 3061  10.726   5.245   8.663  0.0564 -0.0556 -0.2629
  764MOL0     C 3062  10.745   5.353   8.748 -0.3821 -0.5686  0.6644
  764MOL0     O 3063  10.642   5.434   8.799  0.5380 -0.2526  0.2259
  764MOL0     C 3064  10.519   5.368   8.843 -0.1283  0.0990 -0.0397
  764MOL0     C 3065  10.441   5.464   8.930  0.5340  0.5757  0.2511
  764MOL0     C 3066  10.302   5.425   8.941  0.2622 -0.6732  0.6653
  764MOL0     C 3067  10.206   5.506   9.026 -0.8029  0.5541 -0.7443
  764MOL0     C 3068  10.070   5.459   8.991  0.5234  0.0008  0.0166
  764MOL0     C 3069   9.961   5.414   8.970 -0.8930  0.2901  0.4497
  764MOL0     C 3070  10.875   5.401   8.774 -0.1708  0.0493  0.1521
  764MOL0     C 3071  10.992   5.343   8.718 -0.9840 -0.8501  1.3534
  764MOL0     C 3072  11.131   5.413   8.746  0.7236 -0.0412 -0.6747
  764MOL0     H 3073  11.455   5.262   8.693  2.3150  0.7313 -1.2456
  764MOL0     H 3074  11.663   5.126   8.674  0.0062  0.4939 -0.9415
  764MOL0     H 3075  11.729   4.924   8.779 -0.8848 -1.5778  2.3548
  764MOL0     H 3076  11.648   4.773   8.754 -0.1822  0.4896 -0.3181
  764MOL0     H 3077  11.844   4.668   8.663 -0.3247  2.7977 -2.9392
  764MOL0     H 3078  11.859   4.727   8.833 -1.1750  2.3078  1.0998
  764MOL0     H 3079  11.985   4.927   8.751  0.9520 -0.4221 -0.5761
  764MOL0     H 3080  11.952   4.887   8.586 -1.6162 -2.4798 -0.9331
  764MOL0     H 3081  12.143   4.737   8.773  0.2579 -0.9944 -1.2859
  764MOL0     H 3082  12.078   4.659   8.641 -0.6449  0.0703 -0.8670
  764MOL0     H 3083  12.293   4.768   8.596  1.7796  1.6479 -1.3384
  764MOL0     H 3084  12.171   4.829   8.481  0.3196 -2.1669 -0.3360
  764MOL0     H 3085  12.161   5.030   8.625 -0.2731  0.0581 -0.7768
  764MOL0     H 3086  12.306   4.961   8.727  1.6472 -1.0918 -1.0387
  764MOL0     H 3087  12.362   5.147   8.571 -1.4408  1.2875 -3.2216
  764MOL0     H 3088  12.320   5.036   8.443 -0.2291  2.3437 -0.3775
  764MOL0     H 3089  12.538   4.984   8.663 -0.4320 -0.6403  0.3804
  764MOL0     H 3090  12.508   4.858   8.541 -2.1472  0.2708 -2.1682
  764MOL0     H 3091  12.603   5.231   8.523  0.4254 -0.3143 -0.0822
  764MOL0     H 3092  12.633   5.297   8.212 -0.1067 -0.5323 -0.7135
  764MOL0     H 3093  12.760   5.355   8.334  2.8148 -0.8686 -0.4405
  764MOL0     H 3094  12.921   5.337   8.166  0.2407 -1.2236 -0.0057
  764MOL0     H 3095  12.894   5.166   8.212 -1.6836  0.7250  2.0353
  764MOL0     H 3096  12.767   5.314   7.974  1.1457  0.2794  0.6944
  764MOL0     H 3097  12.723   5.155   8.030 -0.9782  0.9023 -3.5259
  764MOL0     H 3098  12.894   5.130   7.844  0.7626  0.5030 -0.3607
  764MOL0     H 3099  12.978   5.077   7.979 -0.3687 -2.6830 -2.9837
  764MOL0     H 3100  12.856   5.343   7.754  0.1571 -2.1202 -2.8543
  764MOL0     H 3101  12.907   5.471   7.539  0.0512 -2.6415 -1.4611
  764MOL0     H 3102  13.135   5.712   7.202  0.2457  0.7277  1.6755
  764MOL0     H 3103  13.254   5.882   7.042  2.7613  1.8300 -0.5505
  764MOL0     H 3104  13.697   5.945   7.069  0.0870  0.6424 -1.3937
  764MOL0     H 3105  13.620   6.067   6.979  0.9261 -2.6048 -3.6362
  764MOL0     H 3106  13.441   6.079   7.156  0.4468  1.0941  0.0781
  764MOL0     H 3107  13.547   6.008   7.273 -1.1625  1.8533  0.0862
  764MOL0     H 3108  13.722   6.195   7.197 -0.0366 -2.2261  0.2030
  764MOL0     H 3109  13.590   6.256   7.100 -0.5078  0.3405 -0.0097
  764MOL0     H 3110  13.448   6.317   7.288 -0.3738 -3.1090  0.8966
  764MOL0     H 3111  13.597   6.380   7.305  0.0786  0.5760 -1.3425
  764MOL0     H 3112  13.672   6.206   7.437  0.1105  0.7232 -1.2432
  764MOL0     H 3113  13.509   6.132   7.451  0.2559 -0.1682  0.4516
  764MOL0     H 3114  13.573   6.392   7.561  0.4671 -0.5580 -1.1732
  764MOL0     H 3115  13.410   6.329   7.540  0.1460  0.6327 -0.4959
  764MOL0     H 3116  13.638   6.196   7.685 -0.5543 -0.3208  1.9624
  764MOL0     H 3117  13.469   6.135   7.703 -1.3577  1.6179  3.7356
  764MOL0     H 3118  13.546   6.240   7.903 -1.6028 -0.8866  0.7171
  764MOL0     H 3119  13.531   6.405   7.820  0.1582 -0.4957 -3.5816
  764MOL0     H 3120  13.627   5.722   7.141  0.3895  0.3799 -0.1597
  764MOL0     H 3121  13.528   5.587   7.314  2.6396 -0.2073 -3.0223
  764MOL0     H 3122  13.325   5.487   7.637 -0.3935  0.4233 -3.5747
  764MOL0     H 3123  13.279   5.341   7.833  0.6316 -2.4617 -1.4154
  764MOL0     H 3124  11.471   4.823   8.468  1.7700 -0.5690  0.1784
  764MOL0     H 3125  11.249   4.953   8.495 -0.4617 -1.3336 -0.4012
  764MOL0     H 3126  10.827   5.113   8.538 -0.2966 -2.2211  2.3727
  764MOL0     H 3127  10.626   5.208   8.640  0.0163 -1.1638  1.4676
  764MOL0     H 3128  10.545   5.289   8.914 -1.1134  1.0109  1.3847
  764MOL0     H 3129  10.462   5.346   8.752 -0.9071  0.3829  0.3700
  764MOL0     H 3130  10.459   5.562   8.884  1.6347 -0.1716 -0.9706
  764MOL0     H 3131  10.480   5.471   9.032  2.6369 -1.1096 -0.3583
  764MOL0     H 3132  10.294   5.321   8.975  0.7363 -1.3341 -1.1407
  764MOL0     H 3133  10.271   5.416   8.837  3.4277 -1.9888 -0.2892
  764MOL0     H 3134  10.222   5.484   9.131  0.0828 -2.8704 -1.4784
  764MOL0     H 3135  10.225   5.614   9.024 -0.0305  0.4209 -1.2046
  764MOL0     H 3136   9.869   5.367   8.943  1.0796 -2.8900 -1.3672
  764MOL0     H 3137  10.891   5.500   8.817  1.3804  0.3666 -1.0477
  764MOL0     H 3138  11.209   5.342   8.777 -0.0469 -0.5247  0.1913
  764MOL0     H 3139  11.159   5.467   8.654 -2.3124 -0.0314 -1.6873
  764MOL0     H 3140  11.132   5.487   8.825  2.2510 -1.2703  0.5296
  765MOL0     O 3141   4.328   0.649   5.933 -0.0448 -0.5644 -0.2245
  765MOL0     C 3142   4.300   0.558   6.014  0.1996  0.3719 -0.5315
  765MOL0     O 3143   4.352   0.431   6.012 -0.3668 -0.0935  0.7816
  765MOL0     C 3144   4.435   0.391   5.907 -0.2410  0.0128  0.4114
  765MOL0     C 3145   4.394   0.406   5.774  0.1272 -0.3946 -0.8329
  765MOL0     C 3146   4.482   0.378   5.674 -0.1640  0.5226 -0.3443
  765MOL0     C 3147   4.613   0.322   5.691  0.3730 -0.2711  0.1016
  765MOL0     O 3148   4.700   0.291   5.582 -0.2164  0.4074  0.7434
  765MOL0     C 3149   4.678   0.157   5.548 -0.7065  0.2845  0.3560
  765MOL0     C 3150   4.790   0.116   5.452  0.0992 -0.0598  0.4322
  765MOL0     C 3151   4.767  -0.018   5.383  0.1178 -0.5582  0.1413
  765MOL0     C 3152   4.822  -0.141   5.464  0.2724 -0.3240  0.3824
  765MOL0     C 3153   4.828  -0.267   5.378  0.2960  0.5675 -0.8389
  765MOL0     C 3154   4.935  -0.255   5.271  0.2569  1.1570  0.2105
  765MOL0     C 3155   4.903  -0.320   5.136 -0.6578 -0.2441 -0.7414
  765MOL0     C 3156   4.873  -0.201   5.034 -0.5120 -0.0378  0.3622
  765MOL0     N 3157   4.769  -0.100   5.055 -0.0988  1.3063  1.1217
  765MOL0     C 3158   4.639  -0.138   5.070  0.7273  0.1752 -0.6630
  765MOL0     C 3159   4.574  -0.022   5.074  0.4392 -0.2142 -0.1689
  765MOL0     C 3160   4.425   0.003   5.085  0.4778 -0.5798 -0.4284
  765MOL0     C 3161   4.355   0.059   4.965  0.3691 -0.9586 -0.6351
  765MOL0     C 3162   4.208   0.101   4.990  1.3908  0.2986 -0.2874
  765MOL0     C 3163   4.145   0.165   4.868  0.6006 -0.4732 -0.1822
  765MOL0     O 3164   4.006   0.185   4.915  0.0482  0.1453  0.5104
  765MOL0     C 3165   3.919   0.224   4.815 -0.3433 -0.4827  0.0849
  765MOL0     C 3166   3.796   0.160   4.809  0.6771 -0.7408 -0.3335
  765MOL0     C 3167   3.708   0.183   4.701  0.1171 -0.1929  1.1582
  765MOL0     C 3168   3.742   0.272   4.596 -0.2963  0.6325  1.5250
  765MOL0     C 3169   3.638   0.297   4.492 -0.3781  0.7393  0.8433
  765MOL0     O 3170   3.657   0.412   4.418 -1.0801 -0.8201  0.3491
  765MOL0     C 3171   3.557   0.449   4.333  1.4752 -0.8635 -0.0572
  765MOL0     C 3172   3.466   0.557   4.356 -0.5164  0.2378 -1.0065
  765MOL0     C 3173   3.358   0.584   4.273  0.1851  0.0449 -0.3573
  765MOL0     C 3174   3.338   0.515   4.163  0.5522  1.2502  0.1734
  765MOL0     O 3175   3.221   0.540   4.093 -0.5359 -0.9425  0.2369
  765MOL0     C 3176   3.165   0.445   4.000  0.7149  0.5697 -0.4635
  765MOL0     C 3177   3.023   0.504   3.972  0.1630  0.4813  0.0507
  765MOL0     C 3178   3.015   0.591   3.852  0.3578  0.0480  0.5744
  765MOL0     C 3179   3.091   0.723   3.872  0.7478 -0.4254  0.7674
  765MOL0     C 3180   3.067   0.823   3.759 -0.0252 -0.1281  0.7903
  765MOL0     C 3181   3.133   0.785   3.622  0.3420 -0.8690  0.4654
  765MOL0     C 3182   3.039   0.746   3.508  0.8858 -1.1167 -0.4769
  765MOL0     C 3183   3.096   0.695   3.379 -0.2314  0.0017  0.5295
  765MOL0    Cl 3184   3.195   0.541   3.408  0.0340  0.1173 -0.0804
  765MOL0     C 3185   3.425   0.419   4.128  0.0665 -0.1828  0.6158
  765MOL0     C 3186   3.536   0.390   4.207 -0.9166 -0.7242 -0.5339
  765MOL0     O 3187   3.549   0.214   4.465  0.3179  0.6839 -0.1898
  765MOL0     C 3188   3.862   0.344   4.603 -0.4481  0.7573  0.2590
  765MOL0     C 3189   3.951   0.303   4.708  0.0695 -0.0236  0.0522
  765MOL0     N 3190   4.657   0.086   5.059 -0.0006 -0.4289 -0.6539
  765MOL0     N 3191   4.776   0.034   5.041  0.5245  0.0261  0.1618
  765MOL0     C 3192   4.651   0.288   5.824 -0.6577  0.5969  0.0199
  765MOL0     C 3193   4.560   0.329   5.928  0.1695 -1.1054  0.2469
  765MOL0     C 3194   4.209   0.582   6.123  0.1152  0.2864 -1.2659
  765MOL0     C 3195   4.252   0.556   6.254  0.7419 -0.3132 -0.3323
  765MOL0     C 3196   4.157   0.596   6.350 -0.5896 -0.9498  0.0338
  765MOL0     C 3197   4.042   0.661   6.324  1.0978  0.8816  0.0332
  765MOL0     O 3198   3.963   0.708   6.432 -0.0795  0.3398  0.3019
  765MOL0     C 3199   3.894   0.844   6.412  0.3678  0.2499 -0.5041
  765MOL0     C 3200   3.989   0.955   6.361  0.2564 -0.2064 -1.1162
  765MOL0     C 3201   3.913   1.090   6.321 -0.0596  0.1540  0.3078
  765MOL0     C 3202   3.981   1.151   6.199  0.2028 -0.0944  0.7191
  765MOL0     C 3203   3.977   1.067   6.073  0.8438  1.6346 -0.5032
  765MOL0     C 3204   3.937   0.986   5.989 -0.6483  0.4734  0.1848
  765MOL0     C 3205   3.998   0.663   6.193  0.3199 -0.4287  0.3518
  765MOL0     C 3206   4.079   0.623   6.089  0.4723 -0.0562  0.0722
  765MOL0     C 3207   4.023   0.632   5.944  0.1125 -0.2780 -0.2268
  765MOL0     H 3208   4.297   0.448   5.750 -0.5100 -2.5598 -2.3029
  765MOL0     H 3209   4.451   0.387   5.570 -0.9271  0.4993 -0.1292
  765MOL0     H 3210   4.677   0.087   5.633 -0.8727  1.4484  1.3425
  765MOL0     H 3211   4.582   0.149   5.496 -0.0451  0.0396 -0.8693
  765MOL0     H 3212   4.876   0.094   5.517 -0.1868 -1.6064  0.3104
  765MOL0     H 3213   4.808   0.201   5.385 -4.1677  2.8109  2.4344
  765MOL0     H 3214   4.831  -0.011   5.295  2.3449 -2.2600  1.5350
  765MOL0     H 3215   4.663  -0.037   5.353 -0.3063  2.3660 -0.5456
  765MOL0     H 3216   4.926  -0.127   5.495  1.3024 -0.8766 -2.5571
  765MOL0     H 3217   4.761  -0.144   5.555  2.2086 -0.7501  1.7308
  765MOL0     H 3218   4.857  -0.357   5.434 -1.5889  0.0299 -0.6509
  765MOL0     H 3219   4.729  -0.287   5.337 -0.2911  1.9225 -0.1523
  765MOL0     H 3220   4.973  -0.155   5.249  3.1875 -0.1742 -1.4618
  765MOL0     H 3221   5.020  -0.312   5.310 -0.6331 -0.3359  0.0316
  765MOL0     H 3222   4.830  -0.401   5.140  0.0498 -0.8613  0.1425
  765MOL0     H 3223   5.002  -0.356   5.104  0.0032 -0.1980  1.1041
  765MOL0     H 3224   4.971  -0.155   5.018  0.3746 -2.0417 -0.3133
  765MOL0     H 3225   4.856  -0.251   4.938 -0.0028 -0.7054  0.6153
  765MOL0     H 3226   4.586  -0.232   5.082 -0.1403  0.7715  0.3993
  765MOL0     H 3227   4.376  -0.093   5.103 -0.5014 -0.2031 -0.9601
  765MOL0     H 3228   4.405   0.076   5.164 -3.4549  0.1708 -1.8852
  765MOL0     H 3229   4.412   0.147   4.934  0.6171  0.6523  3.7491
  765MOL0     H 3230   4.363  -0.023   4.893  1.7828 -3.0704  1.7294
  765MOL0     H 3231   4.204   0.182   5.064 -0.9071 -1.5896  1.8139
  765MOL0     H 3232   4.148   0.027   5.045  0.7885  1.7196  1.0494
  765MOL0     H 3233   4.157   0.081   4.799  2.4248 -1.0238  0.7610
  765MOL0     H 3234   4.194   0.257   4.833 -1.9520  1.3747  0.7466
  765MOL0     H 3235   3.772   0.081   4.880  0.8376 -0.8568 -0.4096
  765MOL0     H 3236   3.613   0.133   4.687 -0.4454  1.5085 -2.7010
  765MOL0     H 3237   3.456   0.617   4.446 -2.5749  0.6593 -1.4722
  765MOL0     H 3238   3.277   0.656   4.283 -1.2909 -1.5996 -0.1182
  765MOL0     H 3239   3.230   0.446   3.912  1.2709  2.0963 -0.0699
  765MOL0     H 3240   3.145   0.342   4.029  2.7499 -0.1233 -1.3180
  765MOL0     H 3241   2.966   0.411   3.964  0.0893  0.4909  0.4409
  765MOL0     H 3242   2.980   0.560   4.056 -2.0318 -0.0296 -0.6626
  765MOL0     H 3243   3.047   0.538   3.762  0.2318  0.8973  0.0213
  765MOL0     H 3244   2.910   0.618   3.842  0.5943  2.5136  3.3572
  765MOL0     H 3245   3.197   0.700   3.887 -0.0139 -4.2529  1.4931
  765MOL0     H 3246   3.058   0.771   3.964  1.7306  1.3282  0.2498
  765MOL0     H 3247   3.104   0.922   3.788  0.6130 -0.2664  0.4689
  765MOL0     H 3248   2.965   0.852   3.734  0.1058  0.5121  0.9792
  765MOL0     H 3249   3.195   0.870   3.589 -3.8745  1.0760 -3.6752
  765MOL0     H 3250   3.198   0.700   3.643  2.5043  1.1104  2.5597
  765MOL0     H 3251   2.975   0.834   3.492  1.7841 -0.8456 -3.0349
  765MOL0     H 3252   2.972   0.665   3.538 -1.5520  0.8254 -0.3714
  765MOL0     H 3253   3.026   0.666   3.300  1.3350  1.0993 -1.3493
  765MOL0     H 3254   3.167   0.772   3.348 -1.8600  1.3862  0.0967
  765MOL0     H 3255   3.417   0.361   4.037  2.2078 -0.6621  0.6598
  765MOL0     H 3256   3.591   0.306   4.165 -0.9568 -0.7340 -0.5664
  765MOL0     H 3257   3.891   0.408   4.521 -0.1424  1.4807  0.9239
  765MOL0     H 3258   4.053   0.341   4.704 -0.5920  1.7701 -1.3510
  765MOL0     H 3259   4.749   0.247   5.846 -0.4006  1.7018  1.0544
  765MOL0     H 3260   4.593   0.311   6.030 -1.5193 -3.9729  0.3947
  765MOL0     H 3261   4.341   0.496   6.269  0.1231 -0.8954  1.2227
  765MOL0     H 3262   4.190   0.586   6.452 -0.9881 -0.7660  0.1818
  765MOL0     H 3263   3.841   0.871   6.504  1.3904  0.4570  0.0330
  765MOL0     H 3264   3.820   0.823   6.334  0.1252 -0.2214 -0.1482
  765MOL0     H 3265   4.051   0.911   6.282 -1.3410 -3.6534 -0.6205
  765MOL0     H 3266   4.062   0.991   6.433  2.1151  0.0154 -2.9919
  765MOL0     H 3267   3.911   1.169   6.396  2.2218  0.1721  0.4290
  765MOL0     H 3268   3.809   1.064   6.300  0.2306 -0.7748 -0.0464
  765MOL0     H 3269   3.942   1.252   6.181 -0.5333 -0.1198  2.0584
  765MOL0     H 3270   4.088   1.156   6.218  1.5859  0.7420 -5.2670
  765MOL0     H 3271   3.887   0.920   5.920  0.1136 -1.0327  1.0126
  765MOL0     H 3272   3.904   0.703   6.155  1.7040  1.6758 -1.0855
  765MOL0     H 3273   4.040   0.729   5.897 -0.6056 -1.6765 -3.7412
  765MOL0     H 3274   4.066   0.547   5.889  0.9384 -1.5542  2.2525
  765MOL0     H 3275   3.914   0.616   5.940 -0.0699  0.8578 -0.2318
  766MOL0     O 3276   0.646   4.332  10.734  0.6757 -0.2957 -0.2365
  766MOL0     C 3277   0.626   4.404  10.640 -0.4623 -0.4182  0.3344
  766MOL0     O 3278   0.713   4.435  10.538 -0.0314 -0.1237 -1.3552
  766MOL0     C 3279   0.838   4.375  10.547  0.0306 -0.5234  0.1711
  766MOL0     C 3280   0.935   4.453  10.497  0.1836  0.0718 -0.6937
  766MOL0     C 3281   1.067   4.413  10.484 -0.3705 -0.5027 -1.1000
  766MOL0     C 3282   1.103   4.284  10.524 -0.4467  0.7393  0.3013
  766MOL0     O 3283   1.224   4.225  10.508 -0.5667 -0.6715  0.5899
  766MOL0     C 3284   1.314   4.270  10.413  0.0778 -0.4337 -0.3880
  766MOL0     C 3285   1.408   4.163  10.378 -0.2583  0.4038  0.5430
  766MOL0     C 3286   1.496   4.182  10.249  0.3912  0.4849  1.1215
  766MOL0     C 3287   1.554   4.046  10.208  0.1052 -0.8154 -0.4593
  766MOL0     C 3288   1.633   3.973  10.309  0.2769 -0.4346 -0.9513
  766MOL0     C 3289   1.691   3.841  10.246 -0.4614  0.1478  1.0270
  766MOL0     C 3290   1.744   3.747  10.361 -0.5734 -0.5385  0.2398
  766MOL0     C 3291   1.819   3.632  10.301 -0.2457 -0.8117 -0.0841
  766MOL0     N 3292   1.740   3.547  10.216  0.0815 -0.1922  1.2165
  766MOL0     C 3293   1.632   3.471  10.248 -0.2762 -0.3672 -0.1017
  766MOL0     C 3294   1.563   3.457  10.136  0.3656 -0.7242  0.4067
  766MOL0     C 3295   1.425   3.395  10.110  0.1670 -0.1563 -0.9051
  766MOL0     C 3296   1.416   3.309   9.991  0.9734 -0.7586  0.5152
  766MOL0     C 3297   1.284   3.213   9.996 -0.2278  0.9444 -0.2685
  766MOL0     C 3298   1.263   3.141   9.856 -0.3174  0.2854 -0.6205
  766MOL0     O 3299   1.124   3.152   9.814 -0.1086  0.1250 -0.0741
  766MOL0     C 3300   1.082   3.138   9.685  0.1758 -0.3848 -0.9318
  766MOL0     C 3301   1.157   3.090   9.581  0.0229  0.4199  0.1055
  766MOL0     C 3302   1.106   3.082   9.448  0.0848  0.3427 -0.1165
  766MOL0     C 3303   0.968   3.126   9.432  0.1511  0.5249 -0.8062
  766MOL0     C 3304   0.913   3.118   9.290 -0.7125 -0.1436  0.1180
  766MOL0     O 3305   1.018   3.097   9.194 -0.2682 -0.8762  1.5581
  766MOL0     C 3306   0.998   3.048   9.066  0.1824 -0.0532 -0.1542
  766MOL0     C 3307   1.075   2.934   9.024  1.0144  0.2339 -0.6776
  766MOL0     C 3308   1.057   2.900   8.889  0.2285  0.1967 -0.5984
  766MOL0     C 3309   0.964   2.956   8.807  0.1306 -0.1405 -0.0317
  766MOL0     O 3310   0.957   2.909   8.677 -0.4750  0.4460  0.0431
  766MOL0     C 3311   0.845   2.950   8.604 -0.3565  0.1501  0.2811
  766MOL0     C 3312   0.847   2.882   8.466 -0.9409 -0.4394  0.2470
  766MOL0     C 3313   0.802   2.735   8.476  0.3602 -0.8871 -0.4823
  766MOL0     C 3314   0.648   2.736   8.474  0.9780  0.0067 -0.3696
  766MOL0     C 3315   0.591   2.601   8.456  1.3236  0.1106  0.7744
  766MOL0     C 3316   0.609   2.508   8.578 -0.1580 -0.1936  0.2152
  766MOL0     C 3317   0.506   2.545   8.680 -0.8918 -0.3842 -0.5972
  766MOL0     C 3318   0.519   2.449   8.798  0.6183 -0.0675  0.5805
  766MOL0    Cl 3319   0.676   2.464   8.884 -0.0022  0.5382 -0.3881
  766MOL0     C 3320   0.879   3.061   8.866 -1.2482 -0.3941 -0.3095
  766MOL0     C 3321   0.903   3.113   8.988 -0.4509 -0.4136 -0.0985
  766MOL0     O 3322   0.795   3.115   9.262 -0.3250  0.8018 -0.5248
  766MOL0     C 3323   0.891   3.177   9.538  0.5113  0.3289 -0.2768
  766MOL0     C 3324   0.953   3.175   9.664  0.7531 -0.2694  0.4996
  766MOL0     N 3325   1.620   3.529  10.037 -0.0685  0.1338  0.5484
  766MOL0     N 3326   1.735   3.577  10.085  0.4132  0.0853 -0.2909
  766MOL0     C 3327   1.001   4.200  10.577 -0.4519 -0.2758  0.8756
  766MOL0     C 3328   0.874   4.246  10.576  0.0140 -0.3127 -0.1129
  766MOL0     C 3329   0.491   4.484  10.633 -0.1465  0.7594  0.2960
  766MOL0     C 3330   0.437   4.530  10.748 -0.3506  0.2523 -0.5386
  766MOL0     C 3331   0.326   4.616  10.739 -0.0660  0.0993 -1.7204
  766MOL0     C 3332   0.273   4.659  10.620 -0.4215 -0.8990 -0.7638
  766MOL0     O 3333   0.170   4.751  10.604 -0.0817 -0.0163 -0.1359
  766MOL0     C 3334   0.091   4.788  10.715  0.1219 -0.5811  0.6865
  766MOL0     C 3335  -0.016   4.883  10.660 -0.7598 -0.3955 -0.0525
  766MOL0     C 3336  -0.105   4.917  10.783 -0.4586  0.6549 -0.3734
  766MOL0     C 3337  -0.222   5.014  10.742  0.3104 -0.4710  0.5234
  766MOL0     C 3338  -0.229   5.118  10.839 -0.6496  0.4741  0.0525
  766MOL0     C 3339  -0.233   5.214  10.912  0.2941  0.5187  0.6909
  766MOL0     C 3340   0.324   4.606  10.502  0.4133  1.0138 -0.7665
  766MOL0     C 3341   0.424   4.505  10.512 -0.3108  0.0766 -0.1306
  766MOL0     C 3342   0.466   4.438  10.383  1.0719  0.0356  0.3560
  766MOL0     H 3343   0.914   4.557  10.475  0.3196  0.5030  1.0863
  766MOL0     H 3344   1.138   4.474  10.429  0.0866  2.2078  2.1459
  766MOL0     H 3345   1.254   4.302  10.328 -4.3586 -1.1800  2.1146
  766MOL0     H 3346   1.366   4.360  10.445 -0.4748  0.2356 -1.3363
  766MOL0     H 3347   1.355   4.067  10.373 -2.5576  1.6731 -0.8421
  766MOL0     H 3348   1.477   4.157  10.464 -1.1327  1.1640  1.3179
  766MOL0     H 3349   1.570   4.260  10.268 -1.8667  3.2189 -0.5742
  766MOL0     H 3350   1.430   4.214  10.168  0.7158 -4.6020 -1.5324
  766MOL0     H 3351   1.470   3.982  10.178 -0.9690 -0.2324  1.1965
  766MOL0     H 3352   1.617   4.076  10.124  3.4376  1.3022  2.5198
  766MOL0     H 3353   1.713   4.028  10.358  0.0976 -2.4737  1.8772
  766MOL0     H 3354   1.566   3.938  10.388 -0.7680 -1.1779 -2.1187
  766MOL0     H 3355   1.629   3.787  10.174  0.2777  1.6248 -0.7830
  766MOL0     H 3356   1.772   3.879  10.184 -3.2549  2.2732 -1.6351
  766MOL0     H 3357   1.657   3.714  10.419 -0.6296  2.1074  1.8079
  766MOL0     H 3358   1.812   3.802  10.426  2.1534 -2.3788 -0.8490
  766MOL0     H 3359   1.901   3.679  10.246 -1.6358  2.8493  0.6337
  766MOL0     H 3360   1.848   3.568  10.385 -0.3648 -0.0823  0.5240
  766MOL0     H 3361   1.599   3.454  10.350 -0.7084  2.7782  0.3988
  766MOL0     H 3362   1.392   3.354  10.206  2.7324  1.2626  0.7141
  766MOL0     H 3363   1.361   3.482  10.092  3.6094  2.9065  0.4053
  766MOL0     H 3364   1.414   3.371   9.901 -0.4171  1.8406  2.2027
  766MOL0     H 3365   1.511   3.254   9.985  2.0940  1.1971 -1.1691
  766MOL0     H 3366   1.188   3.262  10.014 -0.8574 -0.2100 -0.3762
  766MOL0     H 3367   1.296   3.141  10.078 -3.1870  0.7529  0.0821
  766MOL0     H 3368   1.291   3.036   9.867  1.2621  0.8429  1.4472
  766MOL0     H 3369   1.336   3.185   9.788  0.7374  3.2719  2.1685
  766MOL0     H 3370   1.263   3.068   9.578  0.3738  1.9763 -0.1175
  766MOL0     H 3371   1.167   3.048   9.366  1.1762  2.0596 -0.0556
  766MOL0     H 3372   1.139   2.886   9.098  0.6154 -0.0335 -0.5035
  766MOL0     H 3373   1.118   2.821   8.846 -0.2037 -0.7903  0.5437
  766MOL0     H 3374   0.750   2.935   8.657 -1.7112  1.9250 -1.4758
  766MOL0     H 3375   0.857   3.056   8.579 -2.5617  0.4824  0.4284
  766MOL0     H 3376   0.796   2.932   8.384 -2.4289  1.2693  2.1210
  766MOL0     H 3377   0.954   2.882   8.444 -0.0925 -3.0901  3.4830
  766MOL0     H 3378   0.843   2.681   8.390  1.1017  0.0855 -0.7651
  766MOL0     H 3379   0.851   2.694   8.564  1.4050 -1.6852 -1.3989
  766MOL0     H 3380   0.609   2.798   8.393  0.2903 -1.1700 -0.9490
  766MOL0     H 3381   0.615   2.783   8.567  3.8473  1.0682  0.2327
  766MOL0     H 3382   0.645   2.566   8.368 -1.6584  0.4636 -1.3124
  766MOL0     H 3383   0.485   2.614   8.434  1.1605 -0.3764  1.2333
  766MOL0     H 3384   0.612   2.403   8.545  3.5804  0.5421 -2.5756
  766MOL0     H 3385   0.708   2.524   8.621  0.4933 -1.7428 -0.6079
  766MOL0     H 3386   0.402   2.540   8.644 -1.1266 -1.3224  0.1613
  766MOL0     H 3387   0.510   2.647   8.717 -3.6523 -0.6256  0.6176
  766MOL0     H 3388   0.441   2.478   8.869 -1.7199 -1.7898 -1.1218
  766MOL0     H 3389   0.491   2.354   8.751  1.8768  0.4290 -1.3168
  766MOL0     H 3390   0.810   3.118   8.803  0.2495  1.7536 -0.1416
  766MOL0     H 3391   0.855   3.199   9.033  3.3699  0.4878  2.8226
  766MOL0     H 3392   0.788   3.210   9.530 -1.4706 -5.0508 -1.6929
  766MOL0     H 3393   0.900   3.202   9.755  0.6887  0.3868  0.2704
  766MOL0     H 3394   0.997   4.092  10.584 -0.2221 -0.3723 -0.2993
  766MOL0     H 3395   0.796   4.182  10.614  1.3801 -1.6888  0.4978
  766MOL0     H 3396   0.493   4.509  10.839  2.4280  4.4144 -0.9831
  766MOL0     H 3397   0.271   4.649  10.827  3.7401 -1.6461  1.6865
  766MOL0     H 3398   0.146   4.827  10.800  0.4732 -2.0388  1.1530
  766MOL0     H 3399   0.038   4.698  10.748 -0.2928  0.0463  1.8036
  766MOL0     H 3400  -0.072   4.834  10.580  0.0766  1.7495 -2.0548
  766MOL0     H 3401   0.035   4.970  10.618 -1.3286  0.2490  0.5613
  766MOL0     H 3402  -0.051   4.948  10.873 -1.4872  0.6872  0.2565
  766MOL0     H 3403  -0.157   4.823  10.805  2.7220 -0.6411  2.6222
  766MOL0     H 3404  -0.196   5.046  10.641  0.4736 -2.9130 -0.2983
  766MOL0     H 3405  -0.322   4.970  10.747  0.6411 -1.0507  2.8208
  766MOL0     H 3406  -0.250   5.304  10.969 -3.6173 -0.3414  1.1844
  766MOL0     H 3407   0.284   4.628  10.404  0.5501 -2.2216 -1.6542
  766MOL0     H 3408   0.529   4.504  10.321  1.8360  0.2646  1.3475
  766MOL0     H 3409   0.522   4.345  10.394  0.2948 -0.2246  2.5760
  766MOL0     H 3410   0.380   4.427  10.316  0.3620  2.2916  0.8031
  767MOL0     O 3411   4.935   9.641   4.387 -0.0312  0.1202 -0.9784
  767MOL0     C 3412   4.862   9.732   4.343  0.4326  0.0746  1.7351
  767MOL0     O 3413   4.895   9.817   4.236  0.0787 -0.1713 -0.1381
  767MOL0     C 3414   5.027   9.834   4.184  0.5915 -0.9009  0.2290
  767MOL0     C 3415   5.140   9.789   4.247  0.1604  0.6082  0.1048
  767MOL0     C 3416   5.261   9.815   4.179 -0.0420  0.3349 -0.0876
  767MOL0     C 3417   5.271   9.864   4.055  1.0138 -0.3558  0.4028
  767MOL0     O 3418   5.387   9.860   3.981  0.7753 -0.2190  0.0865
  767MOL0     C 3419   5.472   9.979   3.971 -0.7448 -0.1778 -0.4233
  767MOL0     C 3420   5.397  10.086   3.884  0.6632  0.0275  0.1029
  767MOL0     C 3421   5.499  10.200   3.848 -0.3313 -0.3523 -0.4076
  767MOL0     C 3422   5.427  10.332   3.808  0.1450  0.4023  0.0239
  767MOL0     C 3423   5.545  10.414   3.766 -0.0282  0.8182 -1.2994
  767MOL0     C 3424   5.495  10.558   3.756 -0.2036  0.9978 -0.1028
  767MOL0     C 3425   5.596  10.654   3.704 -1.4940  0.1849 -0.2797
  767MOL0     C 3426   5.549  10.786   3.691  1.1804  0.0362  0.3564
  767MOL0     N 3427   5.646  10.884   3.655 -0.3715 -0.4650  0.6347
  767MOL0     C 3428   5.714  10.906   3.531  0.4866 -0.2304 -0.7025
  767MOL0     C 3429   5.791  11.019   3.549  1.2906 -1.0006 -0.6791
  767MOL0     C 3430   5.871  11.111   3.461  0.1790  0.5000 -0.1611
  767MOL0     C 3431   5.778  11.210   3.390 -0.2707 -0.0026  0.2187
  767MOL0     C 3432   5.706  11.313   3.474 -0.4439  0.3657 -0.2042
  767MOL0     C 3433   5.550  11.309   3.453 -0.2518  0.1952  0.0655
  767MOL0     O 3434   5.481  11.200   3.515 -1.5128 -0.3637 -0.4757
  767MOL0     C 3435   5.435  11.210   3.644  0.2750 -0.1065  0.6894
  767MOL0     C 3436   5.470  11.309   3.733  0.4155  0.8896  0.0091
  767MOL0     C 3437   5.430  11.302   3.873  0.3087  0.3527 -0.0117
  767MOL0     C 3438   5.341  11.204   3.923 -0.2834 -0.0514  0.6174
  767MOL0     C 3439   5.326  11.192   4.064  0.2386  0.2109 -0.1765
  767MOL0     O 3440   5.260  11.077   4.104  0.1842  0.0795 -0.2982
  767MOL0     C 3441   5.209  11.076   4.236 -1.0344  0.1557  0.7754
  767MOL0     C 3442   5.178  10.954   4.294  0.1490 -0.1668 -0.4668
  767MOL0     C 3443   5.120  10.953   4.424  0.4114  1.0017 -0.2593
  767MOL0     C 3444   5.101  11.068   4.498 -0.1082 -0.4341  0.1824
  767MOL0     O 3445   5.052  11.068   4.626 -0.0333  0.6899  0.9749
  767MOL0     C 3446   4.944  10.979   4.659  0.0969  0.5676  0.1716
  767MOL0     C 3447   4.809  11.011   4.604 -0.6530 -0.6810 -0.3303
  767MOL0     C 3448   4.726  11.100   4.687  0.7819  0.3337  0.6095
  767MOL0     C 3449   4.788  11.244   4.659  0.7332 -0.1735  0.2056
  767MOL0     C 3450   4.675  11.349   4.673  0.2189 -0.0781  0.3463
  767MOL0     C 3451   4.735  11.493   4.679  0.2306  0.8499 -0.3103
  767MOL0     C 3452   4.624  11.591   4.678  1.0118 -0.9127 -0.4449
  767MOL0     C 3453   4.675  11.731   4.647 -0.5171 -0.9536 -0.3890
  767MOL0    Cl 3454   4.547  11.853   4.639 -0.2257  0.0589 -0.3314
  767MOL0     C 3455   5.143  11.187   4.447  0.3681 -0.1378  0.3831
  767MOL0     C 3456   5.189  11.191   4.312 -0.1863 -0.3122 -0.2577
  767MOL0     O 3457   5.400  11.256   4.134 -0.3214  0.1639  0.2842
  767MOL0     C 3458   5.298  11.099   3.833 -0.1584 -0.5888  0.7472
  767MOL0     C 3459   5.347  11.105   3.694 -0.0845 -0.2430 -0.8102
  767MOL0     N 3460   5.775  11.055   3.679 -0.2668 -0.5577  0.4519
  767MOL0     N 3461   5.691  10.978   3.745 -0.5319  0.0859  0.2859
  767MOL0     C 3462   5.154   9.914   3.995 -1.6298  0.2180 -0.1962
  767MOL0     C 3463   5.031   9.905   4.063 -0.0539 -0.4863 -0.0703
  767MOL0     C 3464   4.728   9.751   4.400  0.0922 -0.1739  0.2806
  767MOL0     C 3465   4.654   9.638   4.437 -1.1960  0.0781  0.4670
  767MOL0     C 3466   4.527   9.647   4.491  0.0528  0.3606 -0.1036
  767MOL0     C 3467   4.460   9.769   4.511 -0.0476  0.6174 -0.3318
  767MOL0     O 3468   4.334   9.761   4.559  0.2555  0.6239  0.1839
  767MOL0     C 3469   4.255   9.876   4.546  0.2362  0.5327  0.7982
  767MOL0     C 3470   4.103   9.849   4.562 -0.3126 -0.0553  0.1090
  767MOL0     C 3471   4.054   9.745   4.452  0.1098 -0.0304  0.1578
  767MOL0     C 3472   3.910   9.716   4.444  0.5680 -0.3144 -0.3072
  767MOL0     C 3473   3.884   9.654   4.311 -0.0767  0.2096 -0.1924
  767MOL0     C 3474   3.879   9.599   4.204  0.1428 -0.2062 -0.5586
  767MOL0     C 3475   4.537   9.878   4.470  0.4506 -1.0492 -0.8222
  767MOL0     C 3476   4.666   9.877   4.413 -0.5757  0.9077  0.5888
  767MOL0     C 3477   4.743  10.001   4.387  0.9057 -0.7720 -0.3841
  767MOL0     H 3478   5.150   9.739   4.342 -1.9946 -0.2595 -0.0698
  767MOL0     H 3479   5.358   9.787   4.217 -0.5075  0.9384  1.6716
  767MOL0     H 3480   5.487  10.014   4.074 -1.0123  1.8503 -1.0381
  767MOL0     H 3481   5.566   9.955   3.921 -0.7760 -0.9697 -0.1218
  767MOL0     H 3482   5.317  10.145   3.930  1.0981  1.9904 -1.4994
  767MOL0     H 3483   5.354  10.030   3.801  0.3468 -0.6189  0.6857
  767MOL0     H 3484   5.562  10.169   3.764  0.2352 -1.4636  0.4113
  767MOL0     H 3485   5.560  10.221   3.936 -0.1081 -1.1055 -0.3813
  767MOL0     H 3486   5.354  10.319   3.728 -1.8006  0.8101  1.6235
  767MOL0     H 3487   5.377  10.390   3.886 -1.3195  0.4823 -0.9504
  767MOL0     H 3488   5.624  10.401   3.840  1.2389  1.3869 -2.4959
  767MOL0     H 3489   5.582  10.380   3.668  2.4296  0.4381 -0.3094
  767MOL0     H 3490   5.415  10.565   3.682 -0.1196 -0.5884 -0.3928
  767MOL0     H 3491   5.460  10.592   3.854 -0.6151  0.4433 -0.0524
  767MOL0     H 3492   5.630  10.619   3.607 -0.6075 -3.8830  1.2787
  767MOL0     H 3493   5.686  10.657   3.766 -0.1298  0.2098 -2.2039
  767MOL0     H 3494   5.463  10.792   3.623  0.0093  4.1080  1.9401
  767MOL0     H 3495   5.515  10.814   3.791  4.0237 -1.9585  2.0429
  767MOL0     H 3496   5.690  10.849   3.442 -1.7240  1.9257 -1.6001
  767MOL0     H 3497   5.936  11.175   3.522 -2.1054  4.0284 -1.1161
  767MOL0     H 3498   5.923  11.060   3.380 -0.2869  3.6328 -2.6061
  767MOL0     H 3499   5.842  11.269   3.324  2.4846 -0.3188  2.4312
  767MOL0     H 3500   5.721  11.145   3.322  2.3552 -1.9107 -0.3358
  767MOL0     H 3501   5.742  11.413   3.450  0.6433 -0.4845 -2.4163
  767MOL0     H 3502   5.730  11.297   3.580 -0.5024 -0.8228 -0.3593
  767MOL0     H 3503   5.533  11.288   3.347  2.5839 -1.5858 -0.1345
  767MOL0     H 3504   5.492  11.401   3.466 -0.9436 -0.4805  2.2030
  767MOL0     H 3505   5.540  11.390   3.712  0.2860  1.1133  0.4376
  767MOL0     H 3506   5.461  11.376   3.945 -1.9720  0.5328  0.8558
  767MOL0     H 3507   5.188  10.860   4.241 -3.1477 -1.0891  0.2470
  767MOL0     H 3508   5.105  10.860   4.478 -0.0185  1.0456 -0.2961
  767MOL0     H 3509   4.972  10.876   4.634  1.3226  0.8067  0.4620
  767MOL0     H 3510   4.941  10.985   4.769 -0.8954  0.0976  0.1751
  767MOL0     H 3511   4.813  11.065   4.509 -1.3249  0.8452  0.4675
  767MOL0     H 3512   4.750  10.921   4.588  0.1719 -1.7492  2.1449
  767MOL0     H 3513   4.626  11.106   4.643  1.1705 -0.6781 -0.4745
  767MOL0     H 3514   4.730  11.074   4.793  1.1100  0.0342  0.5245
  767MOL0     H 3515   4.833  11.262   4.561 -2.3427  5.4007 -0.5912
  767MOL0     H 3516   4.862  11.275   4.734  0.0758  0.9903  0.4038
  767MOL0     H 3517   4.606  11.327   4.756  0.2341  0.0794  0.4015
  767MOL0     H 3518   4.614  11.336   4.584 -0.7472  0.3009  0.9338
  767MOL0     H 3519   4.792  11.498   4.772  1.4483 -2.0400 -0.7957
  767MOL0     H 3520   4.802  11.519   4.596  0.3218  1.0857 -0.1655
  767MOL0     H 3521   4.589  11.590   4.782 -1.7899  0.0590 -1.2670
  767MOL0     H 3522   4.535  11.564   4.621 -0.5305  1.8844  0.4354
  767MOL0     H 3523   4.741  11.763   4.728  0.6061  1.2490 -2.0616
  767MOL0     H 3524   4.732  11.725   4.554 -2.0651  1.2763 -1.5913
  767MOL0     H 3525   5.135  11.270   4.517  0.5066  0.0149  0.2220
  767MOL0     H 3526   5.206  11.285   4.260  0.9907 -0.4468 -0.1329
  767MOL0     H 3527   5.242  11.014   3.870  0.9815 -2.8914 -2.4349
  767MOL0     H 3528   5.319  11.025   3.625 -1.2936 -2.4254  2.0007
  767MOL0     H 3529   5.163   9.934   3.888 -0.8390 -3.1587 -0.8603
  767MOL0     H 3530   4.933   9.940   4.033 -0.3367 -0.6839  0.5817
  767MOL0     H 3531   4.699   9.540   4.422 -0.3563  0.1273  2.3352
  767MOL0     H 3532   4.463   9.563   4.515  2.4085 -1.5185  0.0106
  767MOL0     H 3533   4.271   9.931   4.453 -1.1748  1.0285  0.8151
  767MOL0     H 3534   4.291   9.945   4.624  1.9145  1.9107 -1.0927
  767MOL0     H 3535   4.041   9.939   4.550  1.5964  1.0056 -2.9107
  767MOL0     H 3536   4.078   9.809   4.660  0.9907  1.9620  1.3349
  767MOL0     H 3537   4.101   9.652   4.485 -0.9931  0.7980  4.7394
  767MOL0     H 3538   4.095   9.778   4.356 -3.8743 -1.2645 -2.1959
  767MOL0     H 3539   3.880   9.660   4.534  1.9457  0.8679  0.9306
  767MOL0     H 3540   3.853   9.809   4.453  1.0980 -0.0927  0.9620
  767MOL0     H 3541   3.885   9.558   4.105  1.9774 -0.7196 -0.2703
  767MOL0     H 3542   4.498   9.979   4.469 -0.5200 -1.3837 -3.0802
  767MOL0     H 3543   4.715  10.048   4.292 -3.7852 -1.3266  0.4678
  767MOL0     H 3544   4.710  10.071   4.464  3.8027 -0.2748  0.5045
  767MOL0     H 3545   4.849   9.990   4.409  1.5569  2.8148 -1.0930
  768MOL0     O 3546   5.180   8.959   5.832 -0.5548  0.1751  0.1124
  768MOL0     C 3547   5.274   8.955   5.758  0.8508  1.4997  0.1634
  768MOL0     O 3548   5.272   8.899   5.632  0.8429 -0.0036  0.1653
  768MOL0     C 3549   5.172   8.808   5.598  0.3949 -0.5747  0.4367
  768MOL0     C 3550   5.109   8.715   5.682 -1.2766  0.5312  0.0494
  768MOL0     C 3551   5.013   8.624   5.629 -1.1441  0.3371 -0.3941
  768MOL0     C 3552   4.972   8.640   5.498 -0.0446 -1.0611 -0.0593
  768MOL0     O 3553   4.874   8.553   5.459  0.2883 -1.0876 -0.1310
  768MOL0     C 3554   4.814   8.568   5.324  0.4419  0.7378 -0.2406
  768MOL0     C 3555   4.673   8.501   5.342  0.3141 -0.7276  0.0067
  768MOL0     C 3556   4.599   8.513   5.204  0.5143  0.5572  0.3917
  768MOL0     C 3557   4.468   8.418   5.218 -0.2136 -0.1672 -0.3094
  768MOL0     C 3558   4.385   8.396   5.089 -0.1750 -0.0129  0.1247
  768MOL0     C 3559   4.312   8.514   5.049 -0.3514  0.5397  0.5191
  768MOL0     C 3560   4.215   8.499   4.931  1.3328  0.5369  0.3931
  768MOL0     C 3561   4.108   8.402   4.971  0.7646  0.1663 -0.1507
  768MOL0     N 3562   4.124   8.261   4.946 -0.8632  0.5120  0.1639
  768MOL0     C 3563   4.083   8.167   5.038  0.3998 -0.1841  0.2231
  768MOL0     C 3564   4.104   8.054   4.972  0.2774  0.7658 -0.1760
  768MOL0     C 3565   4.082   7.908   5.004  0.3991 -0.6274 -0.3928
  768MOL0     C 3566   3.984   7.879   5.121  0.0284  0.5200 -0.0270
  768MOL0     C 3567   3.953   7.723   5.120 -1.2360  0.1707 -0.0438
  768MOL0     C 3568   3.874   7.671   5.239  0.0988  0.7526  0.7136
  768MOL0     O 3569   3.740   7.689   5.224 -0.1617 -0.4387  0.5143
  768MOL0     C 3570   3.653   7.597   5.163 -1.1763  1.4075  0.2184
  768MOL0     C 3571   3.521   7.640   5.129  0.1246 -0.0951 -0.6241
  768MOL0     C 3572   3.429   7.567   5.046  0.9292 -0.0274 -0.2580
  768MOL0     C 3573   3.466   7.441   4.999 -0.3698 -1.0029 -0.0205
  768MOL0     C 3574   3.376   7.360   4.929  0.9208  0.2063  0.5223
  768MOL0     O 3575   3.244   7.378   4.952  0.3264 -0.0565  0.4793
  768MOL0     C 3576   3.162   7.304   4.869  0.4828  1.2461  0.8448
  768MOL0     C 3577   3.137   7.349   4.742 -1.0047  0.2555  0.4744
  768MOL0     C 3578   3.065   7.277   4.647 -0.6356 -0.1030 -0.0227
  768MOL0     C 3579   3.020   7.150   4.690  1.0016  0.0603  0.1967
  768MOL0     O 3580   2.942   7.060   4.617  0.6269 -0.2886 -0.9246
  768MOL0     C 3581   2.935   7.074   4.472 -0.3618 -0.0339 -0.0941
  768MOL0     C 3582   2.831   6.971   4.414 -1.0818  0.4727  0.7853
  768MOL0     C 3583   2.814   6.985   4.264  0.6303  0.1231  0.2873
  768MOL0     C 3584   2.932   6.917   4.195  1.3025 -0.2918  0.6814
  768MOL0     C 3585   2.898   6.897   4.049 -0.2328 -1.4138  0.5952
  768MOL0     C 3586   2.994   6.814   3.980  0.5881  0.2421 -0.2828
  768MOL0     C 3587   2.973   6.811   3.826 -0.6722  0.3508 -0.7983
  768MOL0     C 3588   3.054   6.919   3.760 -0.4035 -0.0700  0.6705
  768MOL0    Cl 3589   3.235   6.914   3.774  0.0277  0.0179 -0.2199
  768MOL0     C 3590   3.034   7.110   4.818 -0.7642  0.2164  0.6916
  768MOL0     C 3591   3.109   7.182   4.904 -0.7348 -0.2810  0.0770
  768MOL0     O 3592   3.427   7.279   4.856 -0.3057  0.8183  0.8761
  768MOL0     C 3593   3.598   7.391   5.052  0.2345 -0.2727  0.7499
  768MOL0     C 3594   3.693   7.468   5.123  0.1095 -0.6034 -0.5102
  768MOL0     N 3595   4.145   8.073   4.847  0.2165  0.1520  0.3294
  768MOL0     N 3596   4.154   8.196   4.828  0.7869 -0.0474 -0.7250
  768MOL0     C 3597   5.019   8.750   5.422 -0.5307  0.6133 -0.3632
  768MOL0     C 3598   5.126   8.827   5.474  0.1684 -0.8080 -1.3045
  768MOL0     C 3599   5.401   9.017   5.795  0.8764  0.3891  0.1219
  768MOL0     C 3600   5.436   9.019   5.936 -0.8770 -0.1402 -0.2260
  768MOL0     C 3601   5.543   9.094   5.986  0.3196  0.6582  0.1645
  768MOL0     C 3602   5.629   9.153   5.903 -0.0321 -0.5689 -0.4511
  768MOL0     O 3603   5.716   9.243   5.940 -1.1924  0.1601  0.5237
  768MOL0     C 3604   5.739   9.289   6.072 -0.6553 -0.0611  0.5311
  768MOL0     C 3605   5.831   9.206   6.157 -0.8746  0.2677 -0.6584
  768MOL0     C 3606   5.857   9.272   6.292 -0.6544 -1.2510 -0.1816
  768MOL0     C 3607   5.932   9.410   6.278 -0.1773 -0.1020 -0.1392
  768MOL0     C 3608   6.060   9.393   6.339 -0.2068  0.0413  0.0703
  768MOL0     C 3609   6.155   9.369   6.406 -0.2348 -0.4710 -0.3812
  768MOL0     C 3610   5.605   9.149   5.763 -0.7162 -0.1964 -1.4136
  768MOL0     C 3611   5.491   9.085   5.711  0.0717 -1.0745  0.4848
  768MOL0     C 3612   5.477   9.093   5.568  0.5380  1.3868 -0.6924
  768MOL0     H 3613   5.144   8.706   5.784  0.6173 -1.9170 -0.7238
  768MOL0     H 3614   4.967   8.542   5.683  1.2843  1.1792  3.3409
  768MOL0     H 3615   4.806   8.673   5.293  1.3063  1.1178  0.7866
  768MOL0     H 3616   4.879   8.497   5.271 -0.0502 -0.3471  0.5610
  768MOL0     H 3617   4.620   8.560   5.417  1.0466  0.5291 -0.4118
  768MOL0     H 3618   4.684   8.395   5.366  1.8879 -1.1758 -2.3062
  768MOL0     H 3619   4.665   8.471   5.127  1.4222  3.2870 -0.4488
  768MOL0     H 3620   4.568   8.613   5.173 -2.6261 -0.9316 -1.7333
  768MOL0     H 3621   4.502   8.322   5.257  1.5454  0.2419 -0.7189
  768MOL0     H 3622   4.406   8.459   5.299  0.1014 -1.1783  0.4600
  768MOL0     H 3623   4.443   8.356   5.005  0.1682 -2.1128  1.2741
  768MOL0     H 3624   4.314   8.313   5.098  1.8880 -1.6695  2.3363
  768MOL0     H 3625   4.253   8.544   5.136  1.0125  0.8239  1.3643
  768MOL0     H 3626   4.373   8.600   5.021  1.6161 -0.0812  2.5416
  768MOL0     H 3627   4.267   8.464   4.842  1.4119  0.4442  0.4751
  768MOL0     H 3628   4.175   8.600   4.916 -0.1032 -0.1454 -0.6045
  768MOL0     H 3629   4.079   8.422   5.075  3.2986 -0.1692  0.6955
  768MOL0     H 3630   4.021   8.437   4.915  2.0895 -0.3216 -2.6850
  768MOL0     H 3631   4.050   8.181   5.141 -1.2508  0.0472 -0.3003
  768MOL0     H 3632   4.032   7.879   4.911 -3.4126 -0.6685  1.4813
  768MOL0     H 3633   4.179   7.863   5.028 -0.0267 -0.3644  2.0536
  768MOL0     H 3634   4.024   7.914   5.217 -0.6675 -0.3519  0.5988
  768MOL0     H 3635   3.884   7.920   5.104 -0.1689  0.3366  0.6251
  768MOL0     H 3636   4.052   7.679   5.102 -0.3612  2.2630 -0.5599
  768MOL0     H 3637   3.895   7.707   5.029 -0.5680 -2.6337 -0.0959
  768MOL0     H 3638   3.916   7.718   5.329  2.1018  2.0060 -0.7798
  768MOL0     H 3639   3.893   7.565   5.255  0.8406  0.8510  0.5299
  768MOL0     H 3640   3.501   7.741   5.164 -1.1248 -0.5015 -0.1206
  768MOL0     H 3641   3.325   7.600   5.040  0.4519 -1.7174 -3.2447
  768MOL0     H 3642   3.179   7.446   4.719 -0.0063 -0.1176  0.6953
  768MOL0     H 3643   3.068   7.302   4.541 -1.6921  1.4736  0.2966
  768MOL0     H 3644   2.906   7.173   4.437 -0.3521 -0.0673 -0.1978
  768MOL0     H 3645   3.036   7.053   4.437  0.4517 -1.1384  2.6127
  768MOL0     H 3646   2.875   6.877   4.450 -1.3169 -0.0585 -0.2915
  768MOL0     H 3647   2.742   6.992   4.473  1.1228  0.1701  4.5720
  768MOL0     H 3648   2.716   6.938   4.247  0.5011  0.4185  0.2101
  768MOL0     H 3649   2.813   7.088   4.228  0.3742  1.4285  3.6457
  768MOL0     H 3650   2.964   6.829   4.252  2.9076  0.1046  0.4246
  768MOL0     H 3651   3.022   6.977   4.182  0.1234  1.2953 -0.5189
  768MOL0     H 3652   2.891   6.998   4.008  0.3103 -0.4204  2.8047
  768MOL0     H 3653   2.791   6.873   4.040 -1.1043  1.7499  1.2705
  768MOL0     H 3654   3.095   6.854   3.996  0.9888 -1.3718  1.6505
  768MOL0     H 3655   2.993   6.718   4.032 -2.2268  0.6328  0.5322
  768MOL0     H 3656   2.868   6.831   3.803 -1.3971 -3.1222 -0.9943
  768MOL0     H 3657   3.000   6.715   3.781  1.0801  1.1772 -1.6099
  768MOL0     H 3658   3.019   6.926   3.657  0.2983 -1.8169  0.2719
  768MOL0     H 3659   3.021   7.013   3.804 -3.2868  0.8334 -2.9982
  768MOL0     H 3660   2.985   7.019   4.848  0.2684 -1.6479 -2.7419
  768MOL0     H 3661   3.134   7.141   5.001  3.2362  1.0256 -0.2341
  768MOL0     H 3662   3.621   7.287   5.029  0.1835 -0.4952  1.6784
  768MOL0     H 3663   3.782   7.419   5.161 -0.4046  0.2569  1.9975
  768MOL0     H 3664   4.974   8.777   5.327  0.5557 -0.1311 -1.1140
  768MOL0     H 3665   5.169   8.900   5.406  1.8524 -0.1572  0.3653
  768MOL0     H 3666   5.370   8.967   6.004  0.7966 -0.8223  0.9396
  768MOL0     H 3667   5.553   9.103   6.094  0.7067  0.8440  0.1167
  768MOL0     H 3668   5.646   9.305   6.128 -1.2972 -0.0507 -0.4968
  768MOL0     H 3669   5.784   9.389   6.060 -1.6788  0.2665 -1.0146
  768MOL0     H 3670   5.928   9.202   6.106 -1.4974 -0.2966 -1.8431
  768MOL0     H 3671   5.799   9.102   6.171 -2.2007  0.3926 -2.4567
  768MOL0     H 3672   5.933   9.204   6.332  0.0187 -1.4635 -1.7369
  768MOL0     H 3673   5.773   9.274   6.362  0.3316 -2.0865  1.0755
  768MOL0     H 3674   5.940   9.433   6.171 -4.2545  0.4412 -0.4773
  768MOL0     H 3675   5.878   9.497   6.317 -0.4119  1.0236 -2.7541
  768MOL0     H 3676   6.227   9.354   6.485 -2.1010  0.0556  1.5184
  768MOL0     H 3677   5.685   9.197   5.707  0.8775 -1.1915 -0.0806
  768MOL0     H 3678   5.513   9.190   5.531 -1.0314  2.7808  1.2417
  768MOL0     H 3679   5.540   9.019   5.519 -1.8931 -1.4084  0.1414
  768MOL0     H 3680   5.377   9.074   5.530  0.7948 -2.2884  0.1084
  769MOL0     O 3681   6.367   5.627   5.198  0.6447  0.4588 -0.3603
  769MOL0     C 3682   6.304   5.720   5.253  0.7566  0.0758 -0.1675
  769MOL0     O 3683   6.301   5.844   5.204 -0.0370 -0.8038 -0.1919
  769MOL0     C 3684   6.359   5.859   5.080  0.5968 -0.1673  0.2360
  769MOL0     C 3685   6.289   5.836   4.961 -0.1677  0.8534 -0.7898
  769MOL0     C 3686   6.344   5.852   4.830 -0.6143 -0.7543 -1.2012
  769MOL0     C 3687   6.478   5.898   4.824 -0.5995 -0.7667  0.0699
  769MOL0     O 3688   6.534   5.923   4.698 -0.5899  0.2216 -0.2987
  769MOL0     C 3689   6.584   5.792   4.652 -0.1028 -0.0009 -0.3499
  769MOL0     C 3690   6.693   5.828   4.547 -0.6482 -0.6534 -0.3184
  769MOL0     C 3691   6.800   5.929   4.591  0.2901  0.0378  0.3987
  769MOL0     C 3692   6.878   5.980   4.469 -0.8150 -0.1840  0.5337
  769MOL0     C 3693   6.984   6.068   4.543  0.5694 -0.2014 -0.6006
  769MOL0     C 3694   7.087   6.122   4.450 -0.7970 -0.7465 -0.1605
  769MOL0     C 3695   7.174   6.218   4.533 -0.2191 -0.6815 -0.4890
  769MOL0     C 3696   7.289   6.272   4.442  0.5824 -0.0422 -0.8959
  769MOL0     N 3697   7.344   6.168   4.359 -0.3001 -0.9048  0.1391
  769MOL0     C 3698   7.462   6.101   4.377  0.0241 -0.8778  0.5243
  769MOL0     C 3699   7.488   6.028   4.272  1.1039 -0.2163  0.2433
  769MOL0     C 3700   7.605   5.946   4.241  0.0932  0.0868  0.0998
  769MOL0     C 3701   7.691   6.038   4.144  0.1825  0.5290 -0.1959
  769MOL0     C 3702   7.812   5.959   4.097 -0.8820 -0.2101  0.0535
  769MOL0     C 3703   7.938   5.981   4.196  0.0636  0.8757 -0.5406
  769MOL0     O 3704   8.043   5.909   4.136 -0.1719 -0.3668  0.3778
  769MOL0     C 3705   8.164   5.926   4.178  0.5546 -0.2684  0.3734
  769MOL0     C 3706   8.265   5.847   4.116 -0.0644 -0.5451  0.0659
  769MOL0     C 3707   8.401   5.878   4.132  0.0753  1.4223 -0.4787
  769MOL0     C 3708   8.449   5.968   4.229 -0.0933  0.3426 -0.0525
  769MOL0     C 3709   8.582   5.995   4.267 -0.2116  0.6213 -0.2896
  769MOL0     O 3710   8.673   5.940   4.188  0.9648  0.0559 -0.3981
  769MOL0     C 3711   8.803   5.945   4.228 -0.1308 -0.4748  0.5879
  769MOL0     C 3712   8.868   6.069   4.235 -0.5129 -0.4451 -0.5809
  769MOL0     C 3713   8.990   6.082   4.291 -0.4776 -0.5097 -0.9763
  769MOL0     C 3714   9.060   5.970   4.322 -0.8326 -0.0214  0.1769
  769MOL0     O 3715   9.178   6.001   4.377  0.7336  0.2904  0.1950
  769MOL0     C 3716   9.269   5.891   4.403 -0.8101  0.2451  1.2234
  769MOL0     C 3717   9.257   5.832   4.547  0.4684 -0.3875  0.5146
  769MOL0     C 3718   9.362   5.727   4.591 -0.0217  0.3451 -0.0791
  769MOL0     C 3719   9.385   5.615   4.485 -0.0875  0.0932 -0.1355
  769MOL0     C 3720   9.485   5.501   4.525 -0.2069 -0.2117 -0.1298
  769MOL0     C 3721   9.637   5.535   4.531  0.0583 -0.2195 -0.3961
  769MOL0     C 3722   9.712   5.568   4.394 -0.3947 -0.4514  0.3258
  769MOL0     C 3723   9.691   5.722   4.350 -0.4998 -0.3207  0.7646
  769MOL0    Cl 3724   9.803   5.768   4.209 -0.4723 -0.2399 -0.3050
  769MOL0     C 3725   9.004   5.845   4.301 -0.5012 -0.1592  0.4781
  769MOL0     C 3726   8.869   5.831   4.251 -0.4992 -0.1419  0.5728
  769MOL0     O 3727   8.612   6.053   4.376  0.2140  0.5884  0.3230
  769MOL0     C 3728   8.345   6.038   4.293  0.0376 -0.3366  0.0773
  769MOL0     C 3729   8.209   6.018   4.273 -0.1767 -0.8727  0.2911
  769MOL0     N 3730   7.379   6.053   4.186  1.0734  1.3714  0.9186
  769MOL0     N 3731   7.303   6.137   4.238  0.3598 -1.1283 -0.4290
  769MOL0     C 3732   6.556   5.918   4.939 -0.2332 -0.6000  0.3223
  769MOL0     C 3733   6.496   5.891   5.065 -0.3639 -0.5679 -0.3363
  769MOL0     C 3734   6.236   5.691   5.379 -0.4077 -0.0183 -0.5895
  769MOL0     C 3735   6.170   5.791   5.453 -0.1381 -0.0288 -0.2014
  769MOL0     C 3736   6.090   5.768   5.566  0.0834  0.4661  0.5675
  769MOL0     C 3737   6.063   5.645   5.607  0.3588  0.7859 -0.4662
  769MOL0     O 3738   5.988   5.636   5.717 -0.5006  0.1310  0.2514
  769MOL0     C 3739   5.996   5.514   5.804  0.1844  0.6595 -0.1093
  769MOL0     C 3740   5.948   5.548   5.942 -0.3255  0.7310  0.6306
  769MOL0     C 3741   6.059   5.610   6.021  0.2272  0.5107  1.0224
  769MOL0     C 3742   6.090   5.749   5.959  0.5466  0.0202 -0.6873
  769MOL0     C 3743   6.183   5.818   6.040  0.3148  0.5560  0.5950
  769MOL0     C 3744   6.267   5.872   6.102 -0.2699 -0.0734 -0.2505
  769MOL0     C 3745   6.120   5.539   5.538  0.3695 -0.3699 -0.0586
  769MOL0     C 3746   6.204   5.554   5.424  0.2078  0.8423  0.6469
  769MOL0     C 3747   6.228   5.432   5.354  0.0197  0.4814  0.9462
  769MOL0     H 3748   6.186   5.800   4.961 -1.9111  5.1396  1.1517
  769MOL0     H 3749   6.297   5.843   4.733  1.3990  0.6210 -2.4052
  769MOL0     H 3750   6.641   5.740   4.730 -0.1041 -0.7439 -0.8310
  769MOL0     H 3751   6.501   5.735   4.608 -1.2896  0.8897  0.6931
  769MOL0     H 3752   6.642   5.869   4.459 -1.3055 -1.6359 -0.4249
  769MOL0     H 3753   6.729   5.729   4.516  2.8216  0.6189 -0.7171
  769MOL0     H 3754   6.862   5.873   4.662 -1.9703 -2.1565  0.8150
  769MOL0     H 3755   6.761   6.022   4.633 -1.6097 -0.5273 -0.0188
  769MOL0     H 3756   6.934   5.896   4.426 -1.9606 -2.8039  3.6861
  769MOL0     H 3757   6.824   6.036   4.393 -1.8379 -0.3598  1.1198
  769MOL0     H 3758   6.936   6.154   4.591  1.8793 -0.5505  1.4749
  769MOL0     H 3759   7.022   6.008   4.626 -2.4522 -0.1802  0.9601
  769MOL0     H 3760   7.139   6.031   4.420 -1.5126 -1.4424  0.6707
  769MOL0     H 3761   7.047   6.182   4.367 -0.5839 -2.1429 -1.3080
  769MOL0     H 3762   7.208   6.163   4.622 -2.7878  2.9731  3.1459
  769MOL0     H 3763   7.104   6.295   4.569  0.0741 -0.1081 -1.1308
  769MOL0     H 3764   7.254   6.358   4.384  0.5217  0.8132  0.3630
  769MOL0     H 3765   7.367   6.301   4.512 -1.3881  1.2324  0.8895
  769MOL0     H 3766   7.538   6.124   4.451  1.2548  1.2105 -1.2616
  769MOL0     H 3767   7.658   5.910   4.330  0.0101 -1.4886 -0.4600
  769MOL0     H 3768   7.564   5.858   4.191 -1.0880  0.2135  0.8131
  769MOL0     H 3769   7.635   6.075   4.059 -2.5835 -1.8050  0.4565
  769MOL0     H 3770   7.718   6.126   4.204 -1.8711  0.5262  0.8064
  769MOL0     H 3771   7.844   5.998   4.000 -0.3723 -2.2616 -0.6506
  769MOL0     H 3772   7.797   5.851   4.106 -0.8234 -0.0513  4.2492
  769MOL0     H 3773   7.915   5.925   4.287 -0.5382 -1.2707 -1.9397
  769MOL0     H 3774   7.962   6.087   4.208  2.0892  0.1849  3.1701
  769MOL0     H 3775   8.239   5.773   4.041  0.4485 -0.1111 -0.5524
  769MOL0     H 3776   8.459   5.821   4.060 -3.1737 -1.3423 -1.1756
  769MOL0     H 3777   8.813   6.154   4.197 -0.5482 -0.0601  0.3073
  769MOL0     H 3778   9.038   6.177   4.312 -0.9485  0.0856 -2.4821
  769MOL0     H 3779   9.259   5.813   4.327 -1.6943  1.7496 -0.2630
  769MOL0     H 3780   9.367   5.940   4.397 -0.5367 -0.2730 -4.2401
  769MOL0     H 3781   9.267   5.909   4.624  1.4234  0.6325 -0.5961
  769MOL0     H 3782   9.160   5.785   4.565  0.4659 -0.2469  0.8804
  769MOL0     H 3783   9.458   5.774   4.613  1.7479 -3.1380  0.3084
  769MOL0     H 3784   9.338   5.686   4.689  3.8896  0.0693  0.9147
  769MOL0     H 3785   9.411   5.654   4.386  3.1763 -1.1674  0.0939
  769MOL0     H 3786   9.291   5.563   4.465  0.2693  0.5033 -3.4739
  769MOL0     H 3787   9.472   5.416   4.458  1.3015 -1.5546  1.1781
  769MOL0     H 3788   9.459   5.467   4.626 -1.6419 -0.8824 -0.6997
  769MOL0     H 3789   9.647   5.624   4.594 -0.6606 -0.2018 -0.2964
  769MOL0     H 3790   9.689   5.446   4.566 -1.2576 -0.3104  1.4255
  769MOL0     H 3791   9.678   5.499   4.315 -2.2525  2.8926 -2.0737
  769MOL0     H 3792   9.819   5.551   4.402  0.1840  0.2574 -3.6978
  769MOL0     H 3793   9.586   5.741   4.329 -1.2422 -0.5000  3.8414
  769MOL0     H 3794   9.723   5.787   4.432 -0.4650 -0.3822  0.7998
  769MOL0     H 3795   9.054   5.757   4.341  5.3513  2.0456 -1.0538
  769MOL0     H 3796   8.817   5.737   4.237 -1.9915  0.3627  2.2991
  769MOL0     H 3797   8.373   6.119   4.360  1.3458  0.1993 -1.0705
  769MOL0     H 3798   8.131   6.081   4.315 -0.7847  0.0066 -2.0105
  769MOL0     H 3799   6.656   5.958   4.930  0.1772 -1.9500 -1.9294
  769MOL0     H 3800   6.548   5.901   5.160 -1.0505  1.0620 -0.0958
  769MOL0     H 3801   6.175   5.891   5.411  0.8294 -0.6059 -1.5556
  769MOL0     H 3802   6.036   5.853   5.606  1.0258  1.9265 -1.0915
  769MOL0     H 3803   6.100   5.479   5.802 -0.5629 -1.7388 -2.7542
  769MOL0     H 3804   5.928   5.437   5.767  1.0514 -0.8714  1.3618
  769MOL0     H 3805   5.914   5.458   5.993 -1.0890  0.0842 -0.9544
  769MOL0     H 3806   5.863   5.616   5.925 -0.8889 -0.6812 -3.0241
  769MOL0     H 3807   6.153   5.554   6.031  1.6714  3.0760  3.1371
  769MOL0     H 3808   6.029   5.619   6.125  0.6342 -2.2146  1.4580
  769MOL0     H 3809   6.151   5.729   5.870  0.0486 -0.4810 -0.9213
  769MOL0     H 3810   6.004   5.816   5.948  2.1338  2.9530  2.5898
  769MOL0     H 3811   6.331   5.926   6.169 -0.5164 -2.0809  1.7483
  769MOL0     H 3812   6.086   5.440   5.564 -2.5001  1.0249  2.0249
  769MOL0     H 3813   6.168   5.431   5.263 -0.7942 -2.0805  1.4418
  769MOL0     H 3814   6.336   5.428   5.339  0.0949  2.6578  0.4447
  769MOL0     H 3815   6.196   5.348   5.415 -3.6218  0.3806 -0.8085
  770MOL0     O 3816   4.804   5.606   6.679 -0.5377  0.4301  0.1370
  770MOL0     C 3817   4.916   5.598   6.626 -0.2521  0.4172 -0.6087
  770MOL0     O 3818   4.951   5.532   6.515  0.5268 -0.1041  0.1549
  770MOL0     C 3819   4.850   5.450   6.465  0.1758 -1.8271 -0.0084
  770MOL0     C 3820   4.851   5.321   6.497  0.5746  0.9631  0.4350
  770MOL0     C 3821   4.754   5.244   6.438 -0.3516 -0.4216 -0.1955
  770MOL0     C 3822   4.661   5.300   6.348 -0.0838  0.3792  0.3022
  770MOL0     O 3823   4.560   5.222   6.291  0.1018 -0.5053 -0.2207
  770MOL0     C 3824   4.531   5.088   6.343 -0.2741 -0.1178  0.7487
  770MOL0     C 3825   4.390   5.051   6.315 -0.0321 -0.5467 -0.4101
  770MOL0     C 3826   4.364   5.020   6.167 -0.8453  0.0112  0.7992
  770MOL0     C 3827   4.460   4.935   6.087 -1.1541 -0.0976  0.6733
  770MOL0     C 3828   4.403   4.888   5.960 -0.0214 -0.3693  0.5760
  770MOL0     C 3829   4.519   4.844   5.872  0.1995  0.8150  0.8423
  770MOL0     C 3830   4.461   4.800   5.733 -0.5989 -0.3240 -0.9124
  770MOL0     C 3831   4.559   4.740   5.623 -0.3353 -0.3760 -0.3729
  770MOL0     N 3832   4.683   4.822   5.590 -0.3481 -0.4969  0.2415
  770MOL0     C 3833   4.689   4.960   5.575  0.4503 -0.0124 -0.7863
  770MOL0     C 3834   4.816   4.980   5.534 -0.2629  0.4177  0.3688
  770MOL0     C 3835   4.863   5.114   5.486  0.0425  0.7573 -1.5725
  770MOL0     C 3836   4.917   5.099   5.344 -0.8257  0.7934  0.3137
  770MOL0     C 3837   4.936   5.231   5.271 -0.5233 -0.8517  0.1509
  770MOL0     C 3838   4.949   5.204   5.121 -0.5397  0.6847 -0.3531
  770MOL0     O 3839   4.952   5.321   5.031  0.9417  0.3834 -0.1660
  770MOL0     C 3840   5.055   5.403   5.067 -0.2050 -0.5690 -0.2628
  770MOL0     C 3841   5.034   5.531   5.108  0.4600 -0.2237 -0.6527
  770MOL0     C 3842   5.138   5.623   5.127  1.3905 -0.0538 -0.4358
  770MOL0     C 3843   5.270   5.590   5.097 -0.7335 -0.4649  0.2354
  770MOL0     C 3844   5.385   5.683   5.123 -0.0754 -0.1778  0.4947
  770MOL0     O 3845   5.420   5.716   5.251  0.4531  0.3193 -0.1088
  770MOL0     C 3846   5.514   5.816   5.259  0.8490 -0.4653 -0.9328
  770MOL0     C 3847   5.631   5.785   5.326  0.1632 -0.7355  0.7289
  770MOL0     C 3848   5.742   5.885   5.323 -0.0787  0.3053 -0.1768
  770MOL0     C 3849   5.719   6.020   5.280  0.0137 -0.0535 -0.5241
  770MOL0     O 3850   5.809   6.120   5.287 -0.0503 -0.3963  0.3766
  770MOL0     C 3851   5.954   6.094   5.305 -0.4554  0.8348  0.1520
  770MOL0     C 3852   6.027   6.230   5.295  0.8307 -0.9596  0.1251
  770MOL0     C 3853   6.175   6.205   5.295  0.0029 -0.2538  0.8857
  770MOL0     C 3854   6.231   6.153   5.157 -0.8490 -0.5359 -0.2185
  770MOL0     C 3855   6.268   6.267   5.053  0.5297  0.2635 -0.0995
  770MOL0     C 3856   6.328   6.232   4.918  0.0365 -0.3002  0.1525
  770MOL0     C 3857   6.227   6.202   4.811  0.1260 -1.5416 -0.2683
  770MOL0     C 3858   6.275   6.186   4.668 -0.3500  0.0100 -1.0568
  770MOL0    Cl 3859   6.316   6.337   4.590  0.0343 -0.7651 -0.1725
  770MOL0     C 3860   5.592   6.044   5.226 -0.0571 -0.0262  0.8799
  770MOL0     C 3861   5.492   5.948   5.223 -0.0902 -0.0715 -0.0579
  770MOL0     O 3862   5.443   5.727   5.019 -1.1401 -0.2875 -0.0286
  770MOL0     C 3863   5.299   5.456   5.054  0.4362 -0.4483  0.7284
  770MOL0     C 3864   5.190   5.368   5.041  0.1108  0.2970  0.3420
  770MOL0     N 3865   4.888   4.864   5.534 -0.2430 -0.4170 -0.0058
  770MOL0     N 3866   4.806   4.772   5.569  0.3787  0.1735  0.1494
  770MOL0     C 3867   4.661   5.435   6.323 -0.1622  1.0634  0.5027
  770MOL0     C 3868   4.755   5.511   6.379 -0.5285 -0.6750 -0.1658
  770MOL0     C 3869   5.034   5.642   6.711  1.3984 -0.2346 -1.1641
  770MOL0     C 3870   5.006   5.700   6.842 -0.1295 -0.0514 -0.2815
  770MOL0     C 3871   5.106   5.735   6.933  0.0956 -0.2927  0.6646
  770MOL0     C 3872   5.239   5.732   6.897 -0.1458  0.2137 -0.1066
  770MOL0     O 3873   5.316   5.768   7.000 -0.8463 -0.3056 -0.3762
  770MOL0     C 3874   5.456   5.795   6.968 -0.2972  0.6683  0.2695
  770MOL0     C 3875   5.538   5.772   7.103  0.7278  0.4346 -0.2321
  770MOL0     C 3876   5.686   5.805   7.093 -0.4215  0.7788 -0.7548
  770MOL0     C 3877   5.762   5.740   7.204 -0.0685  0.3883 -0.3486
  770MOL0     C 3878   5.908   5.765   7.200 -0.5311  0.7678 -0.1538
  770MOL0     C 3879   6.034   5.778   7.196  0.1047  0.2066 -0.7354
  770MOL0     C 3880   5.269   5.691   6.769 -0.7551  0.2429  0.3106
  770MOL0     C 3881   5.169   5.651   6.676  0.5917 -0.1033  0.0476
  770MOL0     C 3882   5.215   5.604   6.541 -0.1861  0.3961  0.4020
  770MOL0     H 3883   4.937   5.281   6.549  0.6786  0.1090 -0.3667
  770MOL0     H 3884   4.766   5.137   6.451  1.5176 -0.4083 -1.3232
  770MOL0     H 3885   4.605   5.021   6.299 -0.8447 -0.3708  0.1484
  770MOL0     H 3886   4.544   5.089   6.452 -0.8486 -1.1267  0.8368
  770MOL0     H 3887   4.320   5.132   6.338 -0.8805 -1.3395 -0.1478
  770MOL0     H 3888   4.366   4.955   6.362  0.2823 -0.4712 -0.0870
  770MOL0     H 3889   4.352   5.112   6.110  1.0307 -0.7336 -0.9304
  770MOL0     H 3890   4.276   4.955   6.168  0.6530 -2.2292 -1.5302
  770MOL0     H 3891   4.548   4.998   6.066  0.0357 -0.2202  4.6080
  770MOL0     H 3892   4.493   4.853   6.151  0.6395 -1.1173 -1.4112
  770MOL0     H 3893   4.331   4.806   5.974 -2.8622  1.6463 -1.2148
  770MOL0     H 3894   4.350   4.969   5.911  0.5548  0.5932  1.4953
  770MOL0     H 3895   4.591   4.924   5.851  0.6526  0.1597 -0.2150
  770MOL0     H 3896   4.572   4.755   5.906 -0.1107 -0.0581 -0.8327
  770MOL0     H 3897   4.409   4.884   5.686  1.7738  3.0867  2.0057
  770MOL0     H 3898   4.392   4.717   5.750  0.3417 -1.8124 -3.6982
  770MOL0     H 3899   4.593   4.641   5.656 -1.2901 -0.0521  1.7751
  770MOL0     H 3900   4.489   4.727   5.541 -1.4050  0.7021  0.3294
  770MOL0     H 3901   4.605   5.028   5.583  0.8487  0.2422  1.7601
  770MOL0     H 3902   4.770   5.171   5.478 -0.1807  0.4722 -1.0583
  770MOL0     H 3903   4.930   5.168   5.555 -2.1257  0.1376  1.1738
  770MOL0     H 3904   5.016   5.053   5.345 -1.8819 -2.1264 -3.7003
  770MOL0     H 3905   4.860   5.028   5.284 -2.2325  0.2620  2.1744
  770MOL0     H 3906   5.024   5.276   5.318 -2.6424  2.1787  1.5029
  770MOL0     H 3907   4.863   5.309   5.295  3.1968  2.5058  1.6905
  770MOL0     H 3908   4.863   5.141   5.097  0.2428 -0.4457 -0.2684
  770MOL0     H 3909   5.038   5.146   5.093 -1.6026  0.0089 -2.5239
  770MOL0     H 3910   4.926   5.543   5.112  0.3976 -0.6053 -1.0737
  770MOL0     H 3911   5.126   5.721   5.171  1.3488 -1.6989  3.6286
  770MOL0     H 3912   5.654   5.687   5.368 -0.8927 -0.7311  1.3565
  770MOL0     H 3913   5.834   5.858   5.375 -1.5877 -1.1994  1.8737
  770MOL0     H 3914   5.981   6.039   5.395 -0.0172  0.8373  0.0214
  770MOL0     H 3915   5.982   6.049   5.209  2.1894  1.1373  0.7245
  770MOL0     H 3916   6.005   6.281   5.200 -0.4909 -0.8153  0.4864
  770MOL0     H 3917   6.004   6.296   5.379 -1.3701 -0.6792 -0.6173
  770MOL0     H 3918   6.224   6.299   5.319 -2.7078  0.7987  2.7569
  770MOL0     H 3919   6.207   6.131   5.368 -1.3984 -1.6396  0.1777
  770MOL0     H 3920   6.175   6.074   5.107  0.3546 -0.5344 -1.6436
  770MOL0     H 3921   6.329   6.109   5.179 -0.6008  1.5704  3.9044
  770MOL0     H 3922   6.346   6.323   5.106  1.0067  0.3087 -0.8248
  770MOL0     H 3923   6.186   6.338   5.038 -1.0594 -1.6219 -0.7119
  770MOL0     H 3924   6.386   6.318   4.884 -3.7389  2.6625  0.4476
  770MOL0     H 3925   6.388   6.141   4.925  1.2544  0.4978  0.2801
  770MOL0     H 3926   6.134   6.258   4.820 -0.6170 -2.9959  1.8999
  770MOL0     H 3927   6.178   6.107   4.837 -1.6442 -0.9733 -1.2790
  770MOL0     H 3928   6.359   6.115   4.666 -0.2546  0.0444  0.3875
  770MOL0     H 3929   6.194   6.142   4.610 -1.1883  1.3203 -0.9086
  770MOL0     H 3930   5.565   6.135   5.173 -1.3259 -0.3336  0.9584
  770MOL0     H 3931   5.398   5.957   5.170 -0.6867 -0.9074  0.8248
  770MOL0     H 3932   5.400   5.418   5.038 -0.4304 -2.8500  0.5589
  770MOL0     H 3933   5.201   5.265   5.010 -2.0539 -0.3263  1.4511
  770MOL0     H 3934   4.602   5.469   6.239 -1.8136  2.0375  1.9693
  770MOL0     H 3935   4.765   5.616   6.350  2.1575 -1.3831 -2.2812
  770MOL0     H 3936   4.908   5.721   6.883 -0.8140  1.2323 -2.4171
  770MOL0     H 3937   5.087   5.775   7.032 -1.0270 -1.9672  1.1689
  770MOL0     H 3938   5.478   5.899   6.940 -0.6955  0.2021 -1.9819
  770MOL0     H 3939   5.484   5.730   6.885 -2.7855 -1.1219  0.7221
  770MOL0     H 3940   5.514   5.670   7.133  1.6404  1.4691  4.9540
  770MOL0     H 3941   5.497   5.829   7.187  0.8196 -0.0850  0.1748
  770MOL0     H 3942   5.706   5.912   7.086 -0.1515  0.7959  0.1119
  770MOL0     H 3943   5.732   5.759   7.006 -0.3886 -2.0063  0.6250
  770MOL0     H 3944   5.718   5.774   7.298  0.5775 -0.5663  0.3147
  770MOL0     H 3945   5.746   5.632   7.198  1.8002  0.0440  0.1924
  770MOL0     H 3946   6.139   5.789   7.178  0.2693  2.2700  1.0862
  770MOL0     H 3947   5.370   5.695   6.729 -0.7094  0.5043  0.4454
  770MOL0     H 3948   5.197   5.496   6.528  1.7958 -0.0140  0.8464
  770MOL0     H 3949   5.180   5.659   6.453  0.4342  0.4942  0.2101
  770MOL0     H 3950   5.323   5.620   6.540  0.0029  1.7563  6.3635
  771MOL0     O 3951  11.479   2.455  10.359 -0.3929 -0.0288  0.5779
  771MOL0     C 3952  11.402   2.437  10.261 -0.1248  0.0826  0.8907
  771MOL0     O 3953  11.333   2.532  10.196 -0.4553  0.6209 -0.4714
  771MOL0     C 3954  11.307   2.642  10.277  0.2587 -1.0409  0.7322
  771MOL0     C 3955  11.350   2.766  10.228  1.8682  0.3841 -0.4555
  771MOL0     C 3956  11.340   2.881  10.314 -0.5418  1.3343 -0.3411
  771MOL0     C 3957  11.297   2.862  10.448 -0.3568 -1.7314 -0.0021
  771MOL0     O 3958  11.318   2.973  10.529 -0.1466  0.2470  0.3754
  771MOL0     C 3959  11.255   2.966  10.655  0.2990 -0.9003 -1.1749
  771MOL0     C 3960  11.279   3.095  10.737  0.1835 -0.2929 -0.3542
  771MOL0     C 3961  11.399   3.180  10.695 -0.4257  0.2220 -1.4271
  771MOL0     C 3962  11.537   3.116  10.728  0.0495 -0.3050 -0.2386
  771MOL0     C 3963  11.652   3.199  10.695  0.2465 -0.5759 -0.8775
  771MOL0     C 3964  11.661   3.250  10.556 -0.5809 -0.1977  0.0110
  771MOL0     C 3965  11.687   3.134  10.455 -0.7461 -0.1627  0.0686
  771MOL0     C 3966  11.742   3.184  10.318  0.2751  0.2092 -0.8905
  771MOL0     N 3967  11.706   3.078  10.223  0.9879 -0.2670 -0.9437
  771MOL0     C 3968  11.779   2.974  10.188 -0.7325  0.9063  0.6612
  771MOL0     C 3969  11.722   2.926  10.081  0.8577  0.4465 -0.3081
  771MOL0     C 3970  11.764   2.815   9.988 -0.4022 -1.6289 -0.2886
  771MOL0     C 3971  11.696   2.682  10.014  1.0621  0.0084 -0.0716
  771MOL0     C 3972  11.718   2.584   9.897  0.8019 -0.6090 -0.2652
  771MOL0     C 3973  11.626   2.463   9.918  1.0511  0.3056 -0.0195
  771MOL0     O 3974  11.690   2.361   9.848 -0.1025  1.0158  0.2773
  771MOL0     C 3975  11.607   2.258   9.801 -0.4748  0.7054 -0.4812
  771MOL0     C 3976  11.467   2.242   9.824 -1.0368 -0.1498  0.3983
  771MOL0     C 3977  11.389   2.132   9.778  0.4343  0.0677 -0.5315
  771MOL0     C 3978  11.443   2.038   9.692 -0.1861  0.2715  0.8837
  771MOL0     C 3979  11.365   1.931   9.635  0.3384  0.1747  0.4491
  771MOL0     O 3980  11.408   1.861   9.525  0.3154 -1.3306 -0.1654
  771MOL0     C 3981  11.348   1.755   9.465  0.4181  0.1279 -0.1206
  771MOL0     C 3982  11.288   1.661   9.537  0.0684 -0.1135 -0.6743
  771MOL0     C 3983  11.226   1.543   9.482  0.6970  0.5735  0.3362
  771MOL0     C 3984  11.219   1.530   9.341  0.0463 -0.5512 -0.2311
  771MOL0     O 3985  11.163   1.435   9.248 -0.2329 -0.3455 -0.1944
  771MOL0     C 3986  11.103   1.317   9.313  0.3153 -0.3196  0.7166
  771MOL0     C 3987  11.223   1.218   9.345  0.2283  0.3762 -0.1382
  771MOL0     C 3988  11.174   1.077   9.363  0.1378 -0.4050 -0.1197
  771MOL0     C 3989  11.132   0.998   9.248 -0.0577 -0.3888  0.1443
  771MOL0     C 3990  11.247   0.963   9.154  0.3181  0.5773 -0.1993
  771MOL0     C 3991  11.207   0.851   9.060 -0.5309  0.3799 -0.2796
  771MOL0     C 3992  11.294   0.830   8.945 -0.6658  0.9186 -0.1975
  771MOL0     C 3993  11.294   0.685   8.906 -0.0988 -0.1719  0.1668
  771MOL0    Cl 3994  11.415   0.585   9.009 -0.3061 -0.7279 -0.0915
  771MOL0     C 3995  11.284   1.627   9.267  0.1303  0.0718  0.0739
  771MOL0     C 3996  11.350   1.741   9.318 -0.7706 -0.0841 -0.2748
  771MOL0     O 3997  11.257   1.914   9.689 -0.3453  0.7358  0.6952
  771MOL0     C 3998  11.581   2.055   9.669 -1.1447 -0.0654 -1.2212
  771MOL0     C 3999  11.660   2.163   9.723 -1.0036  0.6715  0.0657
  771MOL0     N 4000  11.599   2.992  10.050  0.3837 -0.6740 -0.3562
  771MOL0     N 4001  11.592   3.082  10.148 -0.1371 -0.3377  0.4288
  771MOL0     C 4002  11.235   2.744  10.484  0.6908  0.4105  0.3678
  771MOL0     C 4003  11.240   2.633  10.394 -0.0715 -0.7782 -0.3148
  771MOL0     C 4004  11.386   2.312  10.190  0.1088 -0.4776  0.5210
  771MOL0     C 4005  11.252   2.281  10.166  0.2246  0.7808  0.1648
  771MOL0     C 4006  11.212   2.149  10.118  0.5480  0.4766 -0.5442
  771MOL0     C 4007  11.312   2.054  10.103 -0.4189 -0.0320  0.6070
  771MOL0     O 4008  11.296   1.925  10.069 -0.0823 -0.0487 -0.7012
  771MOL0     C 4009  11.169   1.879  10.018  0.2669 -0.1174 -0.0549
  771MOL0     C 4010  11.189   1.742   9.951  0.4016 -0.3903  0.3938
  771MOL0     C 4011  11.234   1.652  10.062 -0.4252 -0.2643 -0.2365
  771MOL0     C 4012  11.205   1.510  10.034 -0.0133  0.0253  0.2348
  771MOL0     C 4013  11.299   1.460   9.939 -0.0545 -0.4416 -0.1047
  771MOL0     C 4014  11.387   1.415   9.861  0.9544 -0.0431  0.6736
  771MOL0     C 4015  11.444   2.088  10.122 -0.1666 -0.6243 -1.1835
  771MOL0     C 4016  11.481   2.219  10.167  0.2185  0.3772 -0.6673
  771MOL0     C 4017  11.626   2.235  10.198  0.6482 -1.0617 -0.2107
  771MOL0     H 4018  11.393   2.784  10.130  1.2116  3.6481 -0.2525
  771MOL0     H 4019  11.382   2.978  10.289  0.1029  0.5481 -2.5564
  771MOL0     H 4020  11.147   2.956  10.645  0.3077 -1.5307 -0.7436
  771MOL0     H 4021  11.295   2.879  10.709  0.2773  0.0647  0.4445
  771MOL0     H 4022  11.305   3.065  10.839  0.0594 -0.3890 -0.3511
  771MOL0     H 4023  11.195   3.163  10.721  0.6514 -0.1600 -2.5547
  771MOL0     H 4024  11.397   3.275  10.750 -0.2480  0.5792 -2.0399
  771MOL0     H 4025  11.384   3.187  10.587 -1.1271 -1.4680 -1.4636
  771MOL0     H 4026  11.528   3.083  10.832  0.8358  2.5561  0.8116
  771MOL0     H 4027  11.550   3.027  10.666 -1.8609 -1.2609  0.6402
  771MOL0     H 4028  11.672   3.276  10.770  3.5972 -2.1756  0.0563
  771MOL0     H 4029  11.736   3.130  10.711 -0.2208 -1.0274 -0.3063
  771MOL0     H 4030  11.576   3.312  10.527 -0.4029 -1.5301 -4.0932
  771MOL0     H 4031  11.736   3.330  10.554  0.2955 -0.9914  0.2562
  771MOL0     H 4032  11.591   3.085  10.442 -1.7053  1.6821 -0.1530
  771MOL0     H 4033  11.758   3.061  10.496  1.8031  2.5936  0.8958
  771MOL0     H 4034  11.716   3.288  10.293 -0.8151 -0.1178 -1.1608
  771MOL0     H 4035  11.851   3.185  10.321  0.2780 -1.1819  0.5626
  771MOL0     H 4036  11.880   2.940  10.209 -1.2042 -3.9051 -3.1085
  771MOL0     H 4037  11.741   2.858   9.890  0.6671  1.1558  0.5964
  771MOL0     H 4038  11.870   2.790   9.999  0.0069 -0.9283 -2.1650
  771MOL0     H 4039  11.748   2.643  10.102 -0.0366  2.5918  1.8688
  771MOL0     H 4040  11.591   2.697  10.037  1.2080  1.9455 -0.4581
  771MOL0     H 4041  11.825   2.565   9.908  0.9630 -0.3946 -1.3390
  771MOL0     H 4042  11.692   2.617   9.796 -1.7670 -1.2136  0.1159
  771MOL0     H 4043  11.529   2.500   9.884  0.7183 -1.0343 -0.5979
  771MOL0     H 4044  11.617   2.436  10.023  0.2010  0.4447 -0.0564
  771MOL0     H 4045  11.407   2.311   9.882 -2.6819 -1.0801 -0.1246
  771MOL0     H 4046  11.285   2.136   9.811  0.5738 -1.8622  0.2710
  771MOL0     H 4047  11.300   1.669   9.644  0.4479  0.6254 -0.7654
  771MOL0     H 4048  11.165   1.485   9.551  2.0327  1.8166  2.6695
  771MOL0     H 4049  11.056   1.348   9.407  0.7372  1.6441  0.3122
  771MOL0     H 4050  11.025   1.276   9.249  0.3311 -1.2034  1.2417
  771MOL0     H 4051  11.295   1.214   9.262  3.1608 -2.5483  2.2700
  771MOL0     H 4052  11.267   1.245   9.441 -0.2774 -0.9778  0.5099
  771MOL0     H 4053  11.243   1.023   9.428  2.0857  1.5388 -0.4709
  771MOL0     H 4054  11.081   1.089   9.420  0.3817  1.5795 -0.0752
  771MOL0     H 4055  11.046   1.052   9.206  0.4627 -0.2483 -0.7604
  771MOL0     H 4056  11.101   0.900   9.287  0.4308 -0.7948 -0.4712
  771MOL0     H 4057  11.334   0.933   9.213  0.9346  1.0010 -0.8639
  771MOL0     H 4058  11.272   1.048   9.090  1.3777 -1.3526 -2.5327
  771MOL0     H 4059  11.199   0.765   9.128 -0.7375  0.8046  0.2406
  771MOL0     H 4060  11.111   0.876   9.013 -0.4405  0.1964 -0.5650
  771MOL0     H 4061  11.390   0.852   8.994 -0.5927 -1.7720  1.0460
  771MOL0     H 4062  11.276   0.896   8.860  1.7773  2.1704  0.1582
  771MOL0     H 4063  11.196   0.635   8.907 -0.7519  0.7979  4.1116
  771MOL0     H 4064  11.329   0.683   8.803  1.5145 -2.2723  0.6882
  771MOL0     H 4065  11.292   1.606   9.161  0.8250  0.1305  0.1129
  771MOL0     H 4066  11.394   1.818   9.256  0.2685  0.9559  1.6579
  771MOL0     H 4067  11.621   1.986   9.595  0.9026  0.4983 -0.7001
  771MOL0     H 4068  11.767   2.175   9.712 -1.3088  1.0607 -3.2403
  771MOL0     H 4069  11.172   2.733  10.572 -0.3147 -1.5095 -0.5267
  771MOL0     H 4070  11.217   2.533  10.429 -2.2552 -0.7405 -1.4613
  771MOL0     H 4071  11.171   2.354  10.167 -2.9255 -2.4037  2.8649
  771MOL0     H 4072  11.113   2.125  10.078  1.3022 -1.1958 -1.5245
  771MOL0     H 4073  11.134   1.949   9.941  2.0212  0.2076 -0.5877
  771MOL0     H 4074  11.098   1.862  10.100  1.0887 -1.1160  0.4682
  771MOL0     H 4075  11.264   1.746   9.872 -0.4270  1.1413 -0.3542
  771MOL0     H 4076  11.096   1.697   9.917 -0.8050  1.1198  1.5268
  771MOL0     H 4077  11.179   1.671  10.154 -0.7220 -2.0802 -0.0123
  771MOL0     H 4078  11.341   1.666  10.083 -0.1090 -1.4173 -0.9670
  771MOL0     H 4079  11.222   1.442  10.118  1.5650  2.0199  1.6271
  771MOL0     H 4080  11.100   1.498  10.006 -0.0564 -0.5156  0.6153
  771MOL0     H 4081  11.467   1.365   9.810 -1.6402 -2.6792 -1.1290
  771MOL0     H 4082  11.524   2.018  10.101 -2.3936 -2.5482 -4.1800
  771MOL0     H 4083  11.655   2.179  10.287  1.6310 -1.1457 -0.5747
  771MOL0     H 4084  11.690   2.207  10.114  0.8652  1.3911 -0.9492
  771MOL0     H 4085  11.644   2.342  10.210 -0.1611 -0.6699 -2.1971
  772MOL0     O 4086   9.361   5.680   2.230 -0.1739 -0.2257 -0.6314
  772MOL0     C 4087   9.427   5.775   2.236  0.2816 -0.0521 -1.0840
  772MOL0     O 4088   9.394   5.891   2.186 -0.2338 -0.0936  0.7218
  772MOL0     C 4089   9.286   5.906   2.099 -0.0143 -0.8956 -0.9701
  772MOL0     C 4090   9.154   5.926   2.147  0.2509 -0.5205 -0.7080
  772MOL0     C 4091   9.045   5.924   2.062 -0.5876 -0.0311  0.1006
  772MOL0     C 4092   9.062   5.900   1.921 -0.0633 -0.3027 -0.2026
  772MOL0     O 4093   8.968   5.907   1.837  0.2841  0.1783  0.4196
  772MOL0     C 4094   8.830   5.918   1.883  0.3361 -0.1786  0.4998
  772MOL0     C 4095   8.740   5.949   1.765 -0.2925  0.4903  0.0172
  772MOL0     C 4096   8.714   5.824   1.672  0.1161 -0.6491 -0.6093
  772MOL0     C 4097   8.622   5.860   1.557  0.1023  0.0358 -0.8309
  772MOL0     C 4098   8.624   5.740   1.466  1.1064 -1.1767 -0.1598
  772MOL0     C 4099   8.556   5.779   1.334  0.7833  0.1282 -0.5138
  772MOL0     C 4100   8.531   5.657   1.249  0.0829  0.9284  0.0304
  772MOL0     C 4101   8.432   5.682   1.135  0.9139  0.2616 -0.2030
  772MOL0     N 4102   8.299   5.735   1.187  0.1463  0.1349 -0.2877
  772MOL0     C 4103   8.263   5.865   1.215 -0.2426  1.5146 -0.3475
  772MOL0     C 4104   8.126   5.862   1.232  0.2474 -0.0854  0.9418
  772MOL0     C 4105   8.028   5.979   1.281  0.6028  0.2673  0.2242
  772MOL0     C 4106   8.030   6.089   1.166 -0.3127  0.2187  1.1308
  772MOL0     C 4107   7.976   6.016   1.042  0.1830  0.6190  0.9724
  772MOL0     C 4108   7.953   6.120   0.938  0.2162  0.4880 -0.0639
  772MOL0     O 4109   7.926   6.073   0.810 -0.0270 -0.6229  0.6611
  772MOL0     C 4110   8.035   6.062   0.715  0.2736 -0.2801 -0.3695
  772MOL0     C 4111   8.009   6.091   0.579  0.5058 -0.0604 -1.2094
  772MOL0     C 4112   8.121   6.119   0.499 -1.1495 -0.2437 -0.0867
  772MOL0     C 4113   8.260   6.118   0.546  0.3565  0.4071 -0.3009
  772MOL0     C 4114   8.375   6.117   0.445 -0.0425  0.3242  0.0442
  772MOL0     O 4115   8.504   6.101   0.506  0.3946 -0.2709  0.9377
  772MOL0     C 4116   8.618   6.128   0.438 -0.3184  0.5079 -0.4272
  772MOL0     C 4117   8.645   6.110   0.305 -0.8298 -0.4321  0.5437
  772MOL0     C 4118   8.774   6.124   0.256  0.2019  0.3922 -0.3391
  772MOL0     C 4119   8.868   6.176   0.341 -1.5773  0.3945  0.2616
  772MOL0     O 4120   8.993   6.195   0.290  0.4663 -0.1750  0.0089
  772MOL0     C 4121   9.056   6.311   0.313 -0.4935 -0.7052  0.4879
  772MOL0     C 4122   9.200   6.307   0.257 -0.3297  0.1504 -0.0495
  772MOL0     C 4123   9.289   6.413   0.323  0.0301 -0.1928  0.2930
  772MOL0     C 4124   9.422   6.399   0.261 -0.4335  0.0408  0.3547
  772MOL0     C 4125   9.543   6.472   0.338 -0.3215 -0.0482  0.1210
  772MOL0     C 4126   9.517   6.615   0.387 -0.3590 -0.9943 -0.6299
  772MOL0     C 4127   9.643   6.672   0.457 -0.8640  0.3887 -0.7254
  772MOL0     C 4128   9.637   6.825   0.454 -0.2856  0.2744  0.4902
  772MOL0    Cl 4129   9.461   6.874   0.473  0.1253  0.1211  0.1871
  772MOL0     C 4130   8.845   6.205   0.471 -0.6719  0.6334 -0.6776
  772MOL0     C 4131   8.717   6.182   0.523  0.6741  1.2447  0.2907
  772MOL0     O 4132   8.356   6.123   0.319  0.0770 -0.2038 -0.7326
  772MOL0     C 4133   8.278   6.082   0.681  0.2292  0.3267  0.8786
  772MOL0     C 4134   8.167   6.043   0.754  0.1123  0.4124 -0.0022
  772MOL0     N 4135   8.085   5.729   1.217  0.0238  0.1390 -0.1975
  772MOL0     N 4136   8.189   5.659   1.187 -0.3836 -0.5095  0.1501
  772MOL0     C 4137   9.194   5.884   1.873  1.2686 -0.3213  0.2988
  772MOL0     C 4138   9.301   5.891   1.960 -0.7253 -0.2426 -0.4418
  772MOL0     C 4139   9.575   5.774   2.284 -0.4349 -0.4316 -0.3371
  772MOL0     C 4140   9.598   5.693   2.401  0.8663 -1.1166 -0.5684
  772MOL0     C 4141   9.727   5.665   2.436  0.5562  0.5960 -0.0718
  772MOL0     C 4142   9.835   5.692   2.363 -0.1384 -0.2534  0.2095
  772MOL0     O 4143   9.951   5.652   2.421  0.3230 -0.5633 -0.8675
  772MOL0     C 4144  10.065   5.658   2.333 -0.1413  0.3619 -0.6084
  772MOL0     C 4145  10.162   5.542   2.360 -0.4761 -0.7310  0.3587
  772MOL0     C 4146  10.250   5.518   2.229  1.0078 -0.4186 -0.2285
  772MOL0     C 4147  10.367   5.425   2.250 -1.1253 -0.0553  0.4836
  772MOL0     C 4148  10.458   5.506   2.332  1.3123 -0.1644  1.0937
  772MOL0     C 4149  10.530   5.569   2.401 -0.7363 -0.3226  0.5178
  772MOL0     C 4150   9.816   5.779   2.263 -0.0089 -0.1702  0.2722
  772MOL0     C 4151   9.693   5.829   2.220  0.8999  0.7960  0.3684
  772MOL0     C 4152   9.681   5.918   2.101  0.0665  0.3582 -0.0867
  772MOL0     H 4153   9.138   5.944   2.253 -2.2967  0.4367 -1.1776
  772MOL0     H 4154   8.941   5.931   2.093 -1.3191  0.3768 -2.2581
  772MOL0     H 4155   8.804   5.824   1.933 -0.0404 -1.2468 -1.6023
  772MOL0     H 4156   8.823   5.999   1.956  0.1347 -0.0239  0.3045
  772MOL0     H 4157   8.774   6.036   1.708 -0.4167 -0.7518 -2.0239
  772MOL0     H 4158   8.640   5.966   1.804 -1.3899  1.5351 -2.9892
  772MOL0     H 4159   8.656   5.763   1.742  1.4918 -0.7945  0.4347
  772MOL0     H 4160   8.809   5.776   1.649  0.2536 -0.8649  0.3679
  772MOL0     H 4161   8.524   5.890   1.594  0.4095 -0.1495  0.1708
  772MOL0     H 4162   8.654   5.948   1.500  1.9546  0.2994  0.5073
  772MOL0     H 4163   8.726   5.714   1.437  0.4236 -2.0411 -1.9331
  772MOL0     H 4164   8.583   5.664   1.534  1.0796  2.0542  3.8347
  772MOL0     H 4165   8.458   5.820   1.361 -1.1897 -4.9706  1.3113
  772MOL0     H 4166   8.623   5.845   1.279  4.7454 -1.5008  1.9436
  772MOL0     H 4167   8.481   5.577   1.304 -0.3175 -1.1147 -3.0483
  772MOL0     H 4168   8.621   5.604   1.216  0.0393  1.9180 -1.7525
  772MOL0     H 4169   8.468   5.750   1.058 -0.0636  1.2930  0.2154
  772MOL0     H 4170   8.423   5.582   1.093 -0.1621 -0.4048  1.4861
  772MOL0     H 4171   8.335   5.941   1.241  0.8611  0.1696  0.7293
  772MOL0     H 4172   7.925   5.949   1.304 -1.0896  5.8255  1.4495
  772MOL0     H 4173   8.066   6.025   1.372 -1.4520 -2.2314  2.5044
  772MOL0     H 4174   7.967   6.175   1.191 -1.4667  0.9624 -3.4323
  772MOL0     H 4175   8.132   6.121   1.146 -0.5517  0.1444 -0.3260
  772MOL0     H 4176   7.880   5.967   1.060  0.2507 -1.1538 -2.5748
  772MOL0     H 4177   8.042   5.938   1.003 -0.4935 -0.9950  2.9082
  772MOL0     H 4178   8.037   6.191   0.927  0.4888  0.2675  0.5503
  772MOL0     H 4179   7.862   6.172   0.969  0.9274  0.7014  1.8011
  772MOL0     H 4180   7.907   6.113   0.549 -0.1927  0.0424  1.0158
  772MOL0     H 4181   8.107   6.148   0.396  0.2617  0.8625 -0.0111
  772MOL0     H 4182   8.574   6.060   0.239 -1.6368 -0.7509  1.6161
  772MOL0     H 4183   8.793   6.098   0.152 -2.1415 -2.2181 -0.1983
  772MOL0     H 4184   9.010   6.402   0.274  0.6757 -0.0081  0.6803
  772MOL0     H 4185   9.053   6.323   0.422 -2.8401 -0.7523  0.4632
  772MOL0     H 4186   9.242   6.210   0.282  2.5647  1.4570  0.5157
  772MOL0     H 4187   9.197   6.327   0.149 -1.4691  1.6943  0.2199
  772MOL0     H 4188   9.257   6.515   0.300  2.2072 -0.1294 -3.0445
  772MOL0     H 4189   9.290   6.403   0.432  1.4451  0.4366  0.3562
  772MOL0     H 4190   9.435   6.429   0.157  0.7982 -1.8017 -0.0719
  772MOL0     H 4191   9.453   6.294   0.262  0.1640  0.2126  0.6291
  772MOL0     H 4192   9.629   6.489   0.273 -0.4968  0.1732 -0.0516
  772MOL0     H 4193   9.572   6.408   0.422 -0.8560 -1.2957 -0.6032
  772MOL0     H 4194   9.485   6.683   0.308  0.9473  1.8142  1.0626
  772MOL0     H 4195   9.439   6.615   0.465 -0.9444 -0.9940 -1.2058
  772MOL0     H 4196   9.743   6.637   0.428 -0.5509 -0.2887  1.0388
  772MOL0     H 4197   9.650   6.656   0.565  1.1191  1.7285 -0.5809
  772MOL0     H 4198   9.703   6.870   0.528  0.8149  2.7679 -1.8214
  772MOL0     H 4199   9.661   6.852   0.351 -0.3255 -0.9257  0.1505
  772MOL0     H 4200   8.915   6.243   0.545 -0.5555  0.9669 -0.9578
  772MOL0     H 4201   8.681   6.217   0.619  0.7108  1.4146  0.2420
  772MOL0     H 4202   8.380   6.083   0.717  2.1900  0.3242 -3.8820
  772MOL0     H 4203   8.190   6.015   0.856 -3.5681  3.9793  2.1226
  772MOL0     H 4204   9.190   5.884   1.764 -1.1368 -0.7698  0.3285
  772MOL0     H 4205   9.403   5.883   1.922 -1.3416 -2.5076 -1.8705
  772MOL0     H 4206   9.518   5.642   2.453 -1.4944  3.7699  1.2026
  772MOL0     H 4207   9.753   5.610   2.526  0.5743  1.2671  0.3392
  772MOL0     H 4208  10.108   5.758   2.340 -0.9637  0.6169  4.2678
  772MOL0     H 4209  10.039   5.649   2.227  1.5462 -2.4604 -0.9009
  772MOL0     H 4210  10.110   5.449   2.386  1.5626 -3.1303 -3.2324
  772MOL0     H 4211  10.229   5.582   2.436 -2.1840  4.7813 -0.6088
  772MOL0     H 4212  10.274   5.613   2.181 -0.0911  1.3525  2.4748
  772MOL0     H 4213  10.186   5.475   2.152 -0.8002 -0.9321  1.4777
  772MOL0     H 4214  10.342   5.326   2.289  2.0287 -1.0410  0.2305
  772MOL0     H 4215  10.413   5.408   2.153  0.1904  0.6377  0.9619
  772MOL0     H 4216  10.599   5.632   2.454 -1.1664  1.6736 -1.1892
  772MOL0     H 4217   9.903   5.797   2.201  0.6637 -3.3709  0.1132
  772MOL0     H 4218   9.760   5.899   2.028  1.5759  0.5296  1.4346
  772MOL0     H 4219   9.582   5.914   2.053  0.0032  0.8719 -0.0026
  772MOL0     H 4220   9.704   6.022   2.125  1.9526 -0.0281 -0.0836
  773MOL0     O 4221   8.941  11.258   8.997  0.1882 -0.8159 -0.3238
  773MOL0     C 4222   8.850  11.335   8.974 -1.0283  0.1829  0.4314
  773MOL0     O 4223   8.791  11.416   9.066  0.7452 -0.9601  0.5580
  773MOL0     C 4224   8.851  11.431   9.181 -0.1335 -0.9569  0.4770
  773MOL0     C 4225   8.800  11.370   9.295  0.5336 -0.4653  0.4682
  773MOL0     C 4226   8.846  11.401   9.417  0.2435  0.4624 -0.9032
  773MOL0     C 4227   8.963  11.466   9.443  0.6908 -0.0293  0.6703
  773MOL0     O 4228   8.996  11.486   9.572 -0.1108 -0.1744  0.5736
  773MOL0     C 4229   9.074  11.604   9.608  0.8764  0.2147  0.9742
  773MOL0     C 4230   8.997  11.737   9.577  0.2827  0.2225 -0.1322
  773MOL0     C 4231   8.882  11.785   9.679 -0.9293  0.6181  0.6168
  773MOL0     C 4232   8.761  11.701   9.668  0.9025  0.7382 -0.6071
  773MOL0     C 4233   8.698  11.685   9.807 -0.0953 -0.6129  0.4107
  773MOL0     C 4234   8.575  11.592   9.805  0.8488 -0.8998 -0.3818
  773MOL0     C 4235   8.527  11.579   9.947  0.2955  0.4612  0.1117
  773MOL0     C 4236   8.437  11.690   9.997  0.7640 -0.1933 -0.4836
  773MOL0     N 4237   8.424  11.696  10.142  0.1290  0.6662  0.0458
  773MOL0     C 4238   8.520  11.742  10.226  0.1272 -0.0907  0.5676
  773MOL0     C 4239   8.477  11.722  10.346  1.5766  0.7344  0.0115
  773MOL0     C 4240   8.533  11.786  10.475  0.2725 -0.0648  0.2954
  773MOL0     C 4241   8.510  11.933  10.492 -0.7709 -0.2698 -0.3548
  773MOL0     C 4242   8.358  11.981  10.471  0.4587  0.2832 -0.2955
  773MOL0     C 4243   8.271  11.954  10.598 -0.4818  0.2732  0.1953
  773MOL0     O 4244   8.132  11.952  10.558 -0.0158  0.2502  0.3918
  773MOL0     C 4245   8.046  11.885  10.643 -0.0778 -1.2064  0.1882
  773MOL0     C 4246   8.045  11.925  10.778  1.4302 -0.6577 -1.3395
  773MOL0     C 4247   7.963  11.865  10.876  0.1297 -0.7009  0.0949
  773MOL0     C 4248   7.873  11.763  10.835  0.7208  0.6721  0.3791
  773MOL0     C 4249   7.782  11.686  10.922 -0.7118 -0.6527 -0.0126
  773MOL0     O 4250   7.697  11.591  10.873 -0.7495  0.5718 -0.6301
  773MOL0     C 4251   7.597  11.531  10.951 -1.1170  0.8218 -0.5268
  773MOL0     C 4252   7.474  11.494  10.888 -0.6603 -0.2455 -0.1751
  773MOL0     C 4253   7.378  11.417  10.955  0.1728  0.6529  0.1909
  773MOL0     C 4254   7.412  11.350  11.071 -0.7879  0.5576 -0.0949
  773MOL0     O 4255   7.313  11.261  11.113  0.5659 -0.0421  0.3925
  773MOL0     C 4256   7.362  11.147  11.193  0.0668 -0.3562  1.0478
  773MOL0     C 4257   7.251  11.043  11.190 -0.9930  0.6662 -0.3516
  773MOL0     C 4258   7.304  10.907  11.251  0.2667  0.2413 -0.1238
  773MOL0     C 4259   7.187  10.806  11.277 -0.4261  0.3885  0.4219
  773MOL0     C 4260   7.226  10.675  11.340  0.1402  0.4646 -0.5508
  773MOL0     C 4261   7.340  10.685  11.453  0.9592 -0.4486 -0.4315
  773MOL0     C 4262   7.360  10.562  11.543 -0.1743 -0.6414  1.2718
  773MOL0     C 4263   7.362  10.440  11.457 -0.2403  0.3428  0.0764
  773MOL0    Cl 4264   7.360  10.322  11.582 -0.3715  0.0153  0.0566
  773MOL0     C 4265   7.527  11.393  11.139  0.7378  0.8182  0.6859
  773MOL0     C 4266   7.624  11.475  11.074 -0.3007  0.3944  0.1153
  773MOL0     O 4267   7.779  11.732  11.039  0.7897  0.1693  0.0125
  773MOL0     C 4268   7.866  11.731  10.696 -0.6365  0.2304  0.6592
  773MOL0     C 4269   7.965  11.783  10.604  0.3670  0.1724 -0.0432
  773MOL0     N 4270   8.347  11.655  10.344 -0.3881  0.5783  0.7859
  773MOL0     N 4271   8.322  11.652  10.215 -0.5382  0.5293 -1.0128
  773MOL0     C 4272   9.021  11.531   9.332 -0.1508  0.4204  1.0534
  773MOL0     C 4273   8.962  11.515   9.199 -0.1539  0.6820  0.1121
  773MOL0     C 4274   8.796  11.338   8.842  1.1553  0.5540 -0.2961
  773MOL0     C 4275   8.823  11.440   8.754 -1.2383  0.0133 -0.4902
  773MOL0     C 4276   8.779  11.434   8.624 -0.3268 -0.3091  0.0504
  773MOL0     C 4277   8.710  11.322   8.578  0.6455  0.1317  0.2474
  773MOL0     O 4278   8.668  11.316   8.451  0.0967  0.4847  1.3084
  773MOL0     C 4279   8.726  11.203   8.369  0.2006  0.4889 -0.6725
  773MOL0     C 4280   8.801  11.263   8.257 -0.0981  0.1653  0.5909
  773MOL0     C 4281   8.912  11.347   8.323 -1.0752  0.0640 -0.5530
  773MOL0     C 4282   9.039  11.366   8.231  1.1644  1.1567  0.6716
  773MOL0     C 4283   9.139  11.254   8.227  0.1236 -0.7705  0.0953
  773MOL0     C 4284   9.181  11.149   8.208 -0.5893 -0.6028  0.3154
  773MOL0     C 4285   8.675  11.222   8.664 -0.3574  0.6839  1.3355
  773MOL0     C 4286   8.715  11.228   8.793  0.5919 -0.0369 -0.7312
  773MOL0     C 4287   8.663  11.124   8.895  1.3376  0.5179 -0.0319
  773MOL0     H 4288   8.706  11.319   9.276 -0.0321 -1.2410  4.4201
  773MOL0     H 4289   8.804  11.349   9.502 -0.4586  1.6075 -0.5189
  773MOL0     H 4290   9.097  11.597   9.715  2.1292  0.7183  0.7518
  773MOL0     H 4291   9.168  11.601   9.552 -1.6859  1.0728 -3.9687
  773MOL0     H 4292   8.965  11.742   9.473 -1.9007 -1.8190  0.3446
  773MOL0     H 4293   9.077  11.810   9.589 -1.1845  1.4197  4.6589
  773MOL0     H 4294   8.850  11.888   9.667  0.4150  1.4986  3.5106
  773MOL0     H 4295   8.929  11.775   9.778  2.6992 -3.3788 -1.1766
  773MOL0     H 4296   8.690  11.758   9.608  0.9197  1.1838 -0.2100
  773MOL0     H 4297   8.773  11.602   9.623  1.7133  0.8031 -0.5429
  773MOL0     H 4298   8.767  11.628   9.869  2.6398  3.2147  1.2740
  773MOL0     H 4299   8.683  11.788   9.840  0.9906 -0.0590 -0.7345
  773MOL0     H 4300   8.497  11.634   9.740  2.6742 -0.7021 -2.5438
  773MOL0     H 4301   8.591  11.493   9.760  3.4187  0.6739 -3.3399
  773MOL0     H 4302   8.611  11.577  10.017 -0.0268  0.1382  0.4920
  773MOL0     H 4303   8.470  11.486   9.956 -0.8067  1.2387  1.8485
  773MOL0     H 4304   8.478  11.787   9.967  1.7040  0.6718  3.2048
  773MOL0     H 4305   8.339  11.677   9.949  1.0431  3.3593 -2.3355
  773MOL0     H 4306   8.599  11.814  10.209  0.6120  0.1894  3.4707
  773MOL0     H 4307   8.499  11.734  10.565  1.4888  1.0950  1.4902
  773MOL0     H 4308   8.642  11.780  10.464  0.2045  1.3770 -1.7131
  773MOL0     H 4309   8.540  11.958  10.594  1.8561 -0.7342 -0.9379
  773MOL0     H 4310   8.579  11.978  10.420  2.0806 -4.9705 -0.9932
  773MOL0     H 4311   8.312  11.926  10.388 -0.5593 -1.1183  1.1415
  773MOL0     H 4312   8.351  12.088  10.449  1.4798  0.9249  2.1509
  773MOL0     H 4313   8.276  12.032  10.674 -0.0587 -0.4017  0.8792
  773MOL0     H 4314   8.301  11.861  10.648  1.4397  0.7557  0.0210
  773MOL0     H 4315   8.121  11.997  10.804  2.5411 -1.8050 -1.3332
  773MOL0     H 4316   7.977  11.903  10.977 -3.1895  0.2809  0.3068
  773MOL0     H 4317   7.460  11.528  10.786  1.7860 -1.7442 -1.1068
  773MOL0     H 4318   7.283  11.386  10.912  0.6745  1.4089 -1.5562
  773MOL0     H 4319   7.457  11.109  11.155  1.6040  1.2997  3.0653
  773MOL0     H 4320   7.388  11.179  11.294  1.9671  0.2997  0.3776
  773MOL0     H 4321   7.169  11.089  11.247  1.5008  2.6938  1.8371
  773MOL0     H 4322   7.231  11.016  11.085 -0.0514  1.9211 -0.8829
  773MOL0     H 4323   7.384  10.860  11.194  1.1400 -1.7420  2.5363
  773MOL0     H 4324   7.362  10.923  11.342  0.5948 -0.5105 -0.1991
  773MOL0     H 4325   7.127  10.790  11.187 -2.6496  1.7104  1.5922
  773MOL0     H 4326   7.104  10.850  11.333 -2.0479 -0.1453 -1.4458
  773MOL0     H 4327   7.278  10.622  11.260  2.6900 -0.3941  1.5300
  773MOL0     H 4328   7.144  10.614  11.380 -0.6395  3.1370  2.2980
  773MOL0     H 4329   7.433  10.714  11.404  0.3563 -1.6136 -2.3577
  773MOL0     H 4330   7.315  10.764  11.524  2.5471 -0.4501  0.1667
  773MOL0     H 4331   7.275  10.562  11.612 -2.3578  1.4536 -1.2017
  773MOL0     H 4332   7.450  10.569  11.604  0.3864 -2.1816  0.6574
  773MOL0     H 4333   7.272  10.429  11.396 -1.9179  2.7513  1.9761
  773MOL0     H 4334   7.456  10.437  11.400 -0.6862 -0.0339 -0.6648
  773MOL0     H 4335   7.553  11.339  11.230 -2.5302  0.7280  1.6983
  773MOL0     H 4336   7.716  11.477  11.131 -2.3518  1.2199  3.7236
  773MOL0     H 4337   7.795  11.661  10.653  0.2453 -0.5366  0.4181
  773MOL0     H 4338   7.977  11.749  10.501 -1.3129 -0.6712  0.0150
  773MOL0     H 4339   9.100  11.605   9.340 -0.9715  1.8223 -2.0357
  773MOL0     H 4340   8.996  11.568   9.110 -3.1777  1.3278 -0.7575
  773MOL0     H 4341   8.887  11.519   8.791 -1.1386 -0.3531  0.1329
  773MOL0     H 4342   8.812  11.506   8.550 -3.8688  0.0278 -1.4381
  773MOL0     H 4343   8.652  11.129   8.339  0.9845 -0.1766 -1.0024
  773MOL0     H 4344   8.794  11.154   8.440 -0.9348  0.7712  0.6480
  773MOL0     H 4345   8.730  11.303   8.185  1.2513 -4.5799 -4.0091
  773MOL0     H 4346   8.847  11.183   8.198 -3.9863 -0.8470 -1.3442
  773MOL0     H 4347   8.941  11.320   8.425  3.9521  0.0322 -1.7345
  773MOL0     H 4348   8.881  11.451   8.339  0.9001  0.7143 -0.6076
  773MOL0     H 4349   9.003  11.410   8.137  1.6693  1.0790  0.4361
  773MOL0     H 4350   9.103  11.445   8.272  0.5523  1.3353  1.2942
  773MOL0     H 4351   9.206  11.046   8.195 -0.7368 -0.5447 -0.4407
  773MOL0     H 4352   8.611  11.145   8.621 -1.9894  2.0574  1.2062
  773MOL0     H 4353   8.745  11.057   8.923  1.7414  0.8411 -0.4299
  773MOL0     H 4354   8.636  11.174   8.989 -0.4327  1.1175 -0.8056
  773MOL0     H 4355   8.580  11.071   8.848  2.3406  0.9955 -2.4991
  774MOL0     O 4356   7.295   3.990   3.775  0.2890 -0.0454  0.6631
  774MOL0     C 4357   7.331   3.870   3.781  0.1372 -0.5212  0.6745
  774MOL0     O 4358   7.380   3.804   3.677  0.4189  0.2435  0.3219
  774MOL0     C 4359   7.430   3.873   3.567 -0.1233 -0.7983  0.5266
  774MOL0     C 4360   7.351   3.939   3.471 -0.0292 -0.7783 -0.1160
  774MOL0     C 4361   7.404   4.003   3.365  0.6412  0.5834  0.1469
  774MOL0     C 4362   7.540   4.002   3.334 -0.1693 -0.2121 -0.2769
  774MOL0     O 4363   7.598   4.075   3.232  0.1878  0.5787 -0.1745
  774MOL0     C 4364   7.511   4.124   3.129  0.1016 -0.1691 -0.4575
  774MOL0     C 4365   7.579   4.180   2.996  0.5281  0.8810 -0.6581
  774MOL0     C 4366   7.476   4.248   2.899  0.2956  0.3774  0.4763
  774MOL0     C 4367   7.529   4.285   2.768 -0.3511  0.2825 -0.6946
  774MOL0     C 4368   7.404   4.329   2.686  0.3861 -0.2248 -0.2024
  774MOL0     C 4369   7.349   4.473   2.703  0.4394 -0.8662  0.5135
  774MOL0     C 4370   7.209   4.500   2.626  0.1350 -0.6357  0.6468
  774MOL0     C 4371   7.209   4.460   2.474  1.0382  0.0023 -0.0646
  774MOL0     N 4372   7.304   4.544   2.394  0.3481  0.2098  0.0480
  774MOL0     C 4373   7.310   4.685   2.383 -0.1592  0.0449  0.1273
  774MOL0     C 4374   7.416   4.703   2.302 -0.6178 -1.4561  1.2923
  774MOL0     C 4375   7.474   4.829   2.259  0.0414 -0.1996 -0.8220
  774MOL0     C 4376   7.566   4.883   2.379 -0.4389 -0.5136  0.7724
  774MOL0     C 4377   7.502   4.917   2.513  0.3988 -0.5209  0.0232
  774MOL0     C 4378   7.546   4.808   2.608  0.6132 -0.1636  0.2508
  774MOL0     O 4379   7.462   4.844   2.717  0.0303 -0.1385 -0.9768
  774MOL0     C 4380   7.502   4.773   2.831 -0.4158  0.5444 -0.1300
  774MOL0     C 4381   7.407   4.787   2.937  0.5654 -0.1755  0.6443
  774MOL0     C 4382   7.439   4.719   3.058  0.8383  1.5158  0.1057
  774MOL0     C 4383   7.549   4.631   3.075 -0.2802 -0.0931  1.0242
  774MOL0     C 4384   7.579   4.557   3.199  0.0612 -0.2183  0.5433
  774MOL0     O 4385   7.498   4.563   3.310  0.3579 -0.6333 -0.4408
  774MOL0     C 4386   7.518   4.502   3.433 -0.3982  0.8700  0.6219
  774MOL0     C 4387   7.442   4.553   3.540  1.1775  1.1394  0.5145
  774MOL0     C 4388   7.454   4.496   3.667  1.6238  0.9467  0.0917
  774MOL0     C 4389   7.528   4.377   3.680  0.3282 -0.3871 -0.4843
  774MOL0     O 4390   7.527   4.325   3.813  0.0314  0.1519  0.2585
  774MOL0     C 4391   7.549   4.184   3.837 -0.6746  0.3772  0.5361
  774MOL0     C 4392   7.697   4.164   3.863 -0.0961  0.6765  0.2655
  774MOL0     C 4393   7.733   4.014   3.916 -0.9166 -0.4515  0.0354
  774MOL0     C 4394   7.764   4.017   4.059 -0.7489 -0.2505 -0.1269
  774MOL0     C 4395   7.777   3.875   4.114 -0.1273  0.2291 -0.0740
  774MOL0     C 4396   7.850   3.867   4.249  0.7008 -0.1254  0.5501
  774MOL0     C 4397   7.906   3.723   4.280 -0.0062  0.0648 -0.4434
  774MOL0     C 4398   7.977   3.710   4.412  0.3264  0.3686  0.3827
  774MOL0    Cl 4399   7.866   3.689   4.549 -0.5235 -0.2398 -0.8462
  774MOL0     C 4400   7.598   4.324   3.571  0.4078  0.8455 -0.1303
  774MOL0     C 4401   7.592   4.389   3.449 -0.4934 -0.0105  0.7669
  774MOL0     O 4402   7.692   4.512   3.192 -0.7165 -0.5697  0.3577
  774MOL0     C 4403   7.625   4.613   2.962 -0.1587 -0.1846 -0.2166
  774MOL0     C 4404   7.605   4.680   2.841 -0.4274 -0.1917 -0.9211
  774MOL0     N 4405   7.463   4.586   2.264  0.4537  0.6149 -0.4204
  774MOL0     N 4406   7.398   4.491   2.317 -0.4757 -0.2473 -0.5247
  774MOL0     C 4407   7.614   3.919   3.421  0.1509 -0.6207  0.7027
  774MOL0     C 4408   7.564   3.852   3.532 -0.7682 -0.5719  0.1053
  774MOL0     C 4409   7.302   3.782   3.890  0.2211 -0.2930 -0.0764
  774MOL0     C 4410   7.408   3.719   3.955  0.9086 -0.2731  0.1613
  774MOL0     C 4411   7.392   3.638   4.066  0.9257  0.0905  0.0358
  774MOL0     C 4412   7.265   3.607   4.111 -0.4540  0.3909 -0.3347
  774MOL0     O 4413   7.246   3.525   4.214 -1.0748 -0.2474 -0.3051
  774MOL0     C 4414   7.300   3.389   4.206 -0.3942  0.0546 -0.2062
  774MOL0     C 4415   7.319   3.317   4.334 -0.2210 -0.1158 -0.1475
  774MOL0     C 4416   7.415   3.202   4.295  0.4959  0.1106 -0.1972
  774MOL0     C 4417   7.416   3.089   4.408 -0.5585 -0.5098 -0.0017
  774MOL0     C 4418   7.464   3.163   4.529 -0.0205 -0.4700  0.5946
  774MOL0     C 4419   7.490   3.213   4.630  0.3118  0.0793  0.2934
  774MOL0     C 4420   7.154   3.663   4.042 -0.4528 -1.0627  0.2903
  774MOL0     C 4421   7.173   3.745   3.931  0.6592  0.2553  0.2508
  774MOL0     C 4422   7.041   3.779   3.854  0.2238 -0.3930  0.5984
  774MOL0     H 4423   7.245   3.950   3.495  0.2878 -1.1597  1.6418
  774MOL0     H 4424   7.342   4.068   3.304 -1.0445 -2.7692 -2.0271
  774MOL0     H 4425   7.431   4.050   3.114 -0.4818  0.3354  0.0989
  774MOL0     H 4426   7.474   4.212   3.182  2.9044 -0.3844  2.1033
  774MOL0     H 4427   7.635   4.094   2.959  1.2221  1.0877 -0.1029
  774MOL0     H 4428   7.637   4.266   3.029 -0.4420  0.9407  0.9939
  774MOL0     H 4429   7.461   4.345   2.946  1.0096  0.8923 -0.3397
  774MOL0     H 4430   7.385   4.187   2.891  0.1784  0.6341 -0.1494
  774MOL0     H 4431   7.600   4.365   2.787 -1.4755  1.4621 -1.2881
  774MOL0     H 4432   7.584   4.205   2.717 -1.2285 -1.9284  1.5672
  774MOL0     H 4433   7.435   4.314   2.582 -0.9455 -1.0425 -0.5083
  774MOL0     H 4434   7.318   4.261   2.695 -0.8743  1.1145 -1.4189
  774MOL0     H 4435   7.321   4.481   2.808 -2.5477 -0.5682 -0.2094
  774MOL0     H 4436   7.427   4.547   2.682 -0.1442  0.3259  2.3205
  774MOL0     H 4437   7.199   4.608   2.644 -2.7392  0.1578 -4.0347
  774MOL0     H 4438   7.128   4.456   2.685  1.2529 -1.3411  1.6855
  774MOL0     H 4439   7.241   4.355   2.470 -0.0994 -0.3321 -0.9063
  774MOL0     H 4440   7.109   4.470   2.431  1.5211  2.9490 -0.6949
  774MOL0     H 4441   7.243   4.762   2.421  1.4534  0.5586  2.1208
  774MOL0     H 4442   7.532   4.808   2.169  3.1011 -2.0626  1.3935
  774MOL0     H 4443   7.393   4.900   2.242 -0.7873 -0.3219  2.0663
  774MOL0     H 4444   7.640   4.803   2.385 -0.0392 -0.3000 -0.8812
  774MOL0     H 4445   7.618   4.973   2.345 -1.8040 -0.1069 -0.3448
  774MOL0     H 4446   7.394   4.920   2.498  0.4564  2.3242 -0.2984
  774MOL0     H 4447   7.535   5.016   2.546 -1.9329  0.2867  0.0891
  774MOL0     H 4448   7.655   4.811   2.620  0.9472 -0.8228 -2.0185
  774MOL0     H 4449   7.518   4.711   2.566 -0.4159  0.5527 -0.7635
  774MOL0     H 4450   7.322   4.853   2.927  0.3323 -0.2624  1.9517
  774MOL0     H 4451   7.362   4.731   3.133 -1.2903  2.0158 -2.0115
  774MOL0     H 4452   7.380   4.639   3.517 -0.0512 -0.0664 -0.8184
  774MOL0     H 4453   7.407   4.533   3.757  2.6763  3.0926 -0.1831
  774MOL0     H 4454   7.494   4.158   3.928  0.2292 -1.9177  0.4972
  774MOL0     H 4455   7.526   4.113   3.757  3.6601 -1.3498  0.5429
  774MOL0     H 4456   7.763   4.194   3.780  2.5012 -3.1472  0.6866
  774MOL0     H 4457   7.717   4.239   3.941  2.3886 -2.0255  2.4758
  774MOL0     H 4458   7.644   3.951   3.903 -1.0323 -0.2246 -0.2716
  774MOL0     H 4459   7.819   3.971   3.864  1.4893  1.7545  1.9289
  774MOL0     H 4460   7.691   4.077   4.113 -2.1790  1.0197 -3.1881
  774MOL0     H 4461   7.859   4.069   4.071 -1.5443  1.1382  0.2512
  774MOL0     H 4462   7.842   3.813   4.051  0.6084 -1.4167  2.1595
  774MOL0     H 4463   7.675   3.835   4.119 -1.7985  4.1853  1.5298
  774MOL0     H 4464   7.921   3.949   4.259 -1.6980  1.9287  2.0700
  774MOL0     H 4465   7.774   3.883   4.326 -1.2845  0.5155 -1.4375
  774MOL0     H 4466   7.966   3.694   4.193  1.3371  1.1310  0.0840
  774MOL0     H 4467   7.819   3.657   4.272 -0.5616  0.6186  0.8134
  774MOL0     H 4468   8.044   3.624   4.415 -0.7990 -0.5347  0.4696
  774MOL0     H 4469   8.045   3.792   4.435  0.3645  0.8472 -1.3350
  774MOL0     H 4470   7.651   4.230   3.576 -2.2298 -0.6927  1.0770
  774MOL0     H 4471   7.656   4.359   3.366 -0.5878  0.8347  0.3800
  774MOL0     H 4472   7.706   4.542   2.946 -0.7283 -0.5278 -1.7628
  774MOL0     H 4473   7.663   4.655   2.753  1.0034  2.8126 -0.9611
  774MOL0     H 4474   7.721   3.922   3.400  1.0508  1.5157  4.7448
  774MOL0     H 4475   7.630   3.796   3.597 -0.9691 -0.3071  0.5459
  774MOL0     H 4476   7.510   3.743   3.926  1.8423 -2.0182  1.8032
  774MOL0     H 4477   7.479   3.615   4.127  0.2928 -1.6797  0.3553
  774MOL0     H 4478   7.391   3.380   4.145 -1.0457 -1.3002 -1.0225
  774MOL0     H 4479   7.225   3.338   4.145 -1.2059  1.6956 -0.6332
  774MOL0     H 4480   7.222   3.273   4.362 -0.0516 -0.0454  0.5753
  774MOL0     H 4481   7.359   3.383   4.411  6.1718 -2.4699 -0.8615
  774MOL0     H 4482   7.506   3.263   4.289 -0.5296  1.7650  0.1985
  774MOL0     H 4483   7.391   3.150   4.202 -0.5882  0.5053 -0.1476
  774MOL0     H 4484   7.315   3.045   4.410 -0.4088 -1.3542 -3.7505
  774MOL0     H 4485   7.485   3.008   4.382  0.0291 -1.2284  3.3926
  774MOL0     H 4486   7.492   3.273   4.718 -3.7008  1.3233 -0.2474
  774MOL0     H 4487   7.050   3.641   4.065 -1.0429  1.8306  0.8110
  774MOL0     H 4488   6.954   3.814   3.911  1.1394  2.6372  0.3442
  774MOL0     H 4489   7.054   3.860   3.782  1.3107 -1.8934 -0.9517
  774MOL0     H 4490   7.015   3.689   3.799 -0.7672  0.3248 -0.1470
  775MOL0     O 4491   1.248   0.761   7.700 -0.2983 -0.5027  0.5218
  775MOL0     C 4492   1.127   0.743   7.674 -0.7954  0.3598  0.2618
  775MOL0     O 4493   1.047   0.820   7.588 -0.4837 -0.0140 -0.7492
  775MOL0     C 4494   1.077   0.948   7.564 -0.5193 -0.3916 -0.2140
  775MOL0     C 4495   0.999   1.053   7.616  0.3298 -0.3117 -0.2196
  775MOL0     C 4496   1.025   1.191   7.589 -1.0782 -0.6765  0.1770
  775MOL0     C 4497   1.137   1.219   7.512 -0.0135 -0.3896  0.8191
  775MOL0     O 4498   1.156   1.340   7.453 -0.4418  0.3967 -0.0797
  775MOL0     C 4499   1.108   1.351   7.309 -1.0257  0.2183 -0.2255
  775MOL0     C 4500   1.200   1.454   7.240 -0.1722 -0.6312 -0.5331
  775MOL0     C 4501   1.179   1.447   7.086 -0.7165 -0.7993 -0.4176
  775MOL0     C 4502   1.272   1.555   7.031  0.4178 -0.3383 -0.3285
  775MOL0     C 4503   1.288   1.531   6.878 -0.3471  0.1039 -0.0727
  775MOL0     C 4504   1.146   1.512   6.804 -0.1231 -0.7033  0.1785
  775MOL0     C 4505   1.058   1.636   6.823  0.6448  0.3307 -0.5741
  775MOL0     C 4506   0.936   1.634   6.727  0.6931 -0.3162 -0.0227
  775MOL0     N 4507   0.838   1.743   6.746 -0.7545  0.1536 -0.1704
  775MOL0     C 4508   0.742   1.757   6.852 -1.0574  0.1592  0.6292
  775MOL0     C 4509   0.675   1.871   6.807  0.6130 -0.4610  0.0442
  775MOL0     C 4510   0.544   1.930   6.856 -1.1168 -0.9589 -0.6714
  775MOL0     C 4511   0.558   2.017   6.979 -0.9890  0.1439 -0.9240
  775MOL0     C 4512   0.430   2.069   7.030 -1.1173 -0.7560 -0.0247
  775MOL0     C 4513   0.341   2.140   6.914 -0.2873 -0.6252  0.4897
  775MOL0     O 4514   0.254   2.233   6.985 -0.0289  0.0215  0.1140
  775MOL0     C 4515   0.289   2.359   7.008 -0.0114  0.4847 -0.4711
  775MOL0     C 4516   0.410   2.431   6.964 -0.4272 -0.4207 -0.3141
  775MOL0     C 4517   0.408   2.569   7.004  0.1031  0.1509  0.0125
  775MOL0     C 4518   0.305   2.633   7.075  0.1450 -0.6009  0.3641
  775MOL0     C 4519   0.311   2.777   7.103 -0.0960  0.2447 -0.4623
  775MOL0     O 4520   0.405   2.849   7.051 -0.5634  0.7736 -0.0630
  775MOL0     C 4521   0.419   2.984   7.070  0.0325 -0.6467 -0.8765
  775MOL0     C 4522   0.460   3.054   6.952  0.8764  0.4381 -0.4048
  775MOL0     C 4523   0.486   3.187   6.957  0.2539  0.4890 -0.4685
  775MOL0     C 4524   0.477   3.271   7.069 -0.1642  0.3065 -0.9962
  775MOL0     O 4525   0.508   3.404   7.059  0.5937 -0.2061 -1.0449
  775MOL0     C 4526   0.404   3.488   7.124 -0.0451  1.2951  0.4542
  775MOL0     C 4527   0.459   3.634   7.142  0.3727  1.2191  0.0548
  775MOL0     C 4528   0.496   3.700   7.007  0.2984  0.2529  0.7579
  775MOL0     C 4529   0.593   3.816   7.048  0.7871 -0.0467 -0.4280
  775MOL0     C 4530   0.584   3.943   6.961 -0.5943  0.1049 -0.8219
  775MOL0     C 4531   0.690   4.047   7.004 -0.3231 -0.4516  0.1727
  775MOL0     C 4532   0.677   4.183   6.917  0.1921 -0.1538  0.0480
  775MOL0     C 4533   0.804   4.275   6.927 -0.1034  0.0789 -0.0168
  775MOL0    Cl 4534   0.947   4.185   6.869  0.3740  0.1786  0.5038
  775MOL0     C 4535   0.444   3.197   7.188 -0.4352 -0.6366  0.4421
  775MOL0     C 4536   0.414   3.057   7.185  0.1700 -0.7118 -0.5101
  775MOL0     O 4537   0.221   2.820   7.178 -0.5175 -0.1668  0.0846
  775MOL0     C 4538   0.191   2.558   7.114 -0.2735  0.5725  0.3425
  775MOL0     C 4539   0.190   2.423   7.085  0.2333  0.4587 -0.4077
  775MOL0     N 4540   0.735   1.923   6.688  0.0813 -0.3888 -0.0251
  775MOL0     N 4541   0.824   1.846   6.654 -0.3532  0.6397  0.4735
  775MOL0     C 4542   1.206   1.114   7.455 -0.2431 -0.2676 -0.3857
  775MOL0     C 4543   1.184   0.976   7.481 -0.1508 -0.8469 -0.3410
  775MOL0     C 4544   1.069   0.632   7.734 -0.4508  0.7467 -0.4674
  775MOL0     C 4545   0.929   0.623   7.760  0.6043 -0.3245 -1.5420
  775MOL0     C 4546   0.858   0.521   7.816 -0.7582  0.7224 -0.1168
  775MOL0     C 4547   0.931   0.410   7.845  0.1638  0.0801 -0.4427
  775MOL0     O 4548   0.879   0.300   7.913 -0.3161 -0.3695  0.1030
  775MOL0     C 4549   0.740   0.290   7.927  0.7184  0.2046  0.8336
  775MOL0     C 4550   0.696   0.165   8.015  1.1501  0.7329  0.2950
  775MOL0     C 4551   0.757   0.155   8.154 -0.1507  0.0442 -0.0983
  775MOL0     C 4552   0.745   0.008   8.187 -0.0765 -0.1077 -0.1076
  775MOL0     C 4553   0.857  -0.068   8.127  0.3382 -0.0588 -0.6768
  775MOL0     C 4554   0.953  -0.121   8.065 -0.6941 -0.5647 -0.0434
  775MOL0     C 4555   1.069   0.402   7.813  0.0672 -0.1139 -0.0560
  775MOL0     C 4556   1.146   0.513   7.764  0.7633  0.3605 -0.0969
  775MOL0     C 4557   1.292   0.479   7.751 -0.4384 -0.1728 -0.7338
  775MOL0     H 4558   0.909   1.024   7.669 -0.4747 -0.8105 -1.7972
  775MOL0     H 4559   0.971   1.271   7.638  1.3056  1.3503 -0.3011
  775MOL0     H 4560   1.120   1.253   7.261  1.2701 -0.9318  2.3485
  775MOL0     H 4561   1.001   1.364   7.292 -1.0299 -1.6761 -2.0767
  775MOL0     H 4562   1.307   1.444   7.259  1.2660  0.0350 -6.1708
  775MOL0     H 4563   1.176   1.557   7.269  3.6475  0.8920 -2.1367
  775MOL0     H 4564   1.074   1.466   7.063 -0.3102  0.8560 -1.0527
  775MOL0     H 4565   1.218   1.353   7.046 -0.1301  0.2531 -2.4653
  775MOL0     H 4566   1.230   1.652   7.056 -0.4477 -0.3442 -1.6674
  775MOL0     H 4567   1.372   1.540   7.073  0.1567 -0.6573  0.1870
  775MOL0     H 4568   1.343   1.610   6.827 -1.3259  0.9593  0.1547
  775MOL0     H 4569   1.353   1.444   6.866  1.2211  0.8234  2.3211
  775MOL0     H 4570   1.169   1.516   6.697 -0.1241 -0.8969  0.1711
  775MOL0     H 4571   1.090   1.423   6.833 -2.1966 -0.0362 -1.5044
  775MOL0     H 4572   1.102   1.733   6.797 -2.1572  1.7609 -0.3260
  775MOL0     H 4573   1.042   1.646   6.931  3.2450 -2.7833  0.2813
  775MOL0     H 4574   0.974   1.653   6.626 -0.7543  0.8488 -0.3882
  775MOL0     H 4575   0.883   1.539   6.715  3.1869 -1.9077  0.7985
  775MOL0     H 4576   0.727   1.707   6.947  1.5779 -2.0090  0.0451
  775MOL0     H 4577   0.500   1.980   6.769 -0.8600 -0.2968 -0.4272
  775MOL0     H 4578   0.487   1.837   6.864 -0.7613 -1.1226  0.0736
  775MOL0     H 4579   0.602   1.945   7.050  1.1345  0.6737 -1.6400
  775MOL0     H 4580   0.627   2.101   6.966 -0.3562 -0.4080 -1.1495
  775MOL0     H 4581   0.448   2.146   7.105 -2.3006 -0.4283 -0.0512
  775MOL0     H 4582   0.377   1.985   7.076 -3.2211  0.6620  0.2854
  775MOL0     H 4583   0.290   2.070   6.848  0.1386  1.3374 -2.0577
  775MOL0     H 4584   0.406   2.187   6.840  0.9643 -4.4207 -1.0738
  775MOL0     H 4585   0.488   2.381   6.908 -1.2997 -1.4468 -0.6586
  775MOL0     H 4586   0.485   2.631   6.958 -1.2157  0.8326 -1.3851
  775MOL0     H 4587   0.467   2.998   6.859  0.4993  1.1103 -0.8479
  775MOL0     H 4588   0.512   3.246   6.869 -1.7496 -0.3330 -1.6772
  775MOL0     H 4589   0.323   3.485   7.051 -1.8932  1.1357  2.4275
  775MOL0     H 4590   0.369   3.441   7.216 -0.4110 -0.1627 -0.4005
  775MOL0     H 4591   0.382   3.680   7.203  2.2695  1.0550  2.7324
  775MOL0     H 4592   0.541   3.650   7.212 -0.6654  0.5850  1.4605
  775MOL0     H 4593   0.554   3.631   6.946  0.7996 -0.8053  2.3537
  775MOL0     H 4594   0.405   3.735   6.956  0.7129 -0.6191 -0.6239
  775MOL0     H 4595   0.696   3.779   7.042  1.5114  2.0584 -1.9700
  775MOL0     H 4596   0.568   3.848   7.150  0.2613 -1.9566  0.0855
  775MOL0     H 4597   0.482   3.980   6.973 -0.8475 -1.1529  1.5872
  775MOL0     H 4598   0.597   3.914   6.857 -0.1340 -0.9583 -0.4775
  775MOL0     H 4599   0.687   4.068   7.111  3.9661  0.3756  0.3153
  775MOL0     H 4600   0.789   4.004   6.988  0.0838  1.0036 -1.5400
  775MOL0     H 4601   0.593   4.241   6.956  4.0706  3.0941  4.7365
  775MOL0     H 4602   0.658   4.165   6.810  0.8957  0.2211 -0.1421
  775MOL0     H 4603   0.777   4.367   6.874 -0.1885  0.5072  0.7660
  775MOL0     H 4604   0.824   4.314   7.027  0.6971 -0.5392  0.0705
  775MOL0     H 4605   0.426   3.256   7.277 -1.3206  2.0406 -1.4022
  775MOL0     H 4606   0.389   3.003   7.275 -1.3849 -0.7280 -0.9224
  775MOL0     H 4607   0.117   2.608   7.175  1.2189  1.9706  1.0673
  775MOL0     H 4608   0.107   2.361   7.117  1.2310 -2.1448 -2.5414
  775MOL0     H 4609   1.282   1.133   7.379 -0.5604 -0.9078 -0.8723
  775MOL0     H 4610   1.251   0.899   7.444  2.5447  0.3248  1.6926
  775MOL0     H 4611   0.871   0.714   7.749  1.8229  0.7847  0.6327
  775MOL0     H 4612   0.752   0.538   7.835 -0.7698  0.3476  0.1517
  775MOL0     H 4613   0.693   0.283   7.828  2.6494  1.0161 -0.1948
  775MOL0     H 4614   0.696   0.380   7.971 -2.3899  0.1020 -1.6820
  775MOL0     H 4615   0.713   0.073   7.959  1.0225  2.7670 -3.3923
  775MOL0     H 4616   0.587   0.164   8.017  1.1613 -0.7039  1.9754
  775MOL0     H 4617   0.702   0.217   8.226 -3.3920  0.0517 -2.3396
  775MOL0     H 4618   0.860   0.188   8.137  1.0718 -3.8181 -1.1420
  775MOL0     H 4619   0.746   0.006   8.296 -0.9937  1.1958 -0.0514
  775MOL0     H 4620   0.649  -0.023   8.143  1.0253  0.3532 -3.0916
  775MOL0     H 4621   1.035  -0.169   8.016  0.4714 -0.8087  2.0642
  775MOL0     H 4622   1.114   0.309   7.846  3.2192  1.4424  0.3377
  775MOL0     H 4623   1.358   0.547   7.696 -1.3804  1.5254  0.1413
  775MOL0     H 4624   1.333   0.456   7.850 -1.5227 -1.1901 -0.5060
  775MOL0     H 4625   1.306   0.388   7.693 -0.2170 -1.9730  1.9276
  776MOL0     O 4626  10.109   7.505   2.229  0.7140 -0.8962 -0.0897
  776MOL0     C 4627  10.010   7.508   2.159  0.3755 -0.5148  0.4959
  776MOL0     O 4628  10.008   7.457   2.033 -0.0691  0.2119  0.3547
  776MOL0     C 4629  10.113   7.381   1.993 -0.5191 -0.3008 -1.0425
  776MOL0     C 4630  10.157   7.265   2.064 -0.3848  0.5447  0.7184
  776MOL0     C 4631  10.260   7.187   2.003  0.5464  0.3701  0.9812
  776MOL0     C 4632  10.304   7.205   1.874  0.0427  0.1201 -0.2203
  776MOL0     O 4633  10.396   7.124   1.814 -0.4585  0.0239  0.5112
  776MOL0     C 4634  10.511   7.180   1.745  0.7476 -0.6904 -0.0928
  776MOL0     C 4635  10.638   7.103   1.766 -0.9006  0.0280  0.5741
  776MOL0     C 4636  10.750   7.181   1.708 -1.2357  1.1779 -1.2375
  776MOL0     C 4637  10.877   7.094   1.660  0.4420 -0.5747 -0.3575
  776MOL0     C 4638  11.006   7.169   1.635 -0.4260 -0.1949  0.6727
  776MOL0     C 4639  11.096   7.079   1.553  0.0063  1.1809 -0.2037
  776MOL0     C 4640  11.242   7.111   1.573 -0.1137 -1.3879 -0.9924
  776MOL0     C 4641  11.343   7.064   1.468  0.0999  0.3481  0.0430
  776MOL0     N 4642  11.331   7.127   1.336 -0.6539  0.3482 -0.7905
  776MOL0     C 4643  11.330   7.261   1.301  0.4712 -0.5373  0.4878
  776MOL0     C 4644  11.353   7.258   1.169  0.2192  0.2208 -0.2321
  776MOL0     C 4645  11.339   7.370   1.070  0.0362 -0.0110 -0.1663
  776MOL0     C 4646  11.178   7.369   1.045 -0.2481  0.5234 -0.7128
  776MOL0     C 4647  11.135   7.440   0.924  0.7557 -1.3891  0.5148
  776MOL0     C 4648  11.138   7.364   0.788 -0.0344  0.5021  0.4551
  776MOL0     O 4649  11.226   7.250   0.797  0.0949  0.4822 -0.0276
  776MOL0     C 4650  11.210   7.137   0.710 -0.5951 -0.6851  0.0572
  776MOL0     C 4651  11.253   7.013   0.766 -0.3221 -1.1255  0.1000
  776MOL0     C 4652  11.246   6.897   0.682 -1.0005 -0.1612 -0.0052
  776MOL0     C 4653  11.197   6.911   0.549  0.5026  0.3386 -0.6639
  776MOL0     C 4654  11.201   6.795   0.452  0.4294 -0.4077 -0.5462
  776MOL0     O 4655  11.130   6.808   0.338  0.7893  0.3149  0.0708
  776MOL0     C 4656  11.138   6.708   0.243 -0.6737 -0.5749  0.7554
  776MOL0     C 4657  11.257   6.658   0.191  0.3039 -0.5104  0.8281
  776MOL0     C 4658  11.253   6.570   0.091 -0.4076  0.3382  0.6350
  776MOL0     C 4659  11.132   6.532   0.026  0.3683 -0.3269  0.3432
  776MOL0     O 4660  11.118   6.444  -0.076 -0.2565 -0.8522  0.8646
  776MOL0     C 4661  11.214   6.421  -0.180 -1.1103  0.6539 -0.1753
  776MOL0     C 4662  11.229   6.544  -0.280 -0.6076  0.4461 -0.3924
  776MOL0     C 4663  11.099   6.556  -0.353  0.0053 -0.1705 -0.9753
  776MOL0     C 4664  11.069   6.695  -0.418 -0.4319 -0.0503 -0.4988
  776MOL0     C 4665  10.944   6.749  -0.350  1.3911 -0.1715  0.2808
  776MOL0     C 4666  10.877   6.876  -0.424  0.4461  0.0533  0.1331
  776MOL0     C 4667  10.774   6.949  -0.338 -0.0655  0.3667  0.3627
  776MOL0     C 4668  10.712   7.068  -0.419  0.7981  0.2473  0.3460
  776MOL0    Cl 4669  10.838   7.199  -0.436 -0.6257 -0.3531 -0.0146
  776MOL0     C 4670  11.013   6.588   0.073 -0.7712 -0.3828 -0.0884
  776MOL0     C 4671  11.016   6.674   0.186 -0.6304 -0.3280  0.2211
  776MOL0     O 4672  11.262   6.697   0.491  0.5825 -0.1869  0.2278
  776MOL0     C 4673  11.152   7.036   0.507  0.0555 -0.8660  0.1499
  776MOL0     C 4674  11.159   7.150   0.585  0.1456  0.4112 -0.4799
  776MOL0     N 4675  11.371   7.121   1.132  0.3636  0.2916  0.0817
  776MOL0     N 4676  11.363   7.045   1.235  0.1850  0.5216 -0.3121
  776MOL0     C 4677  10.252   7.318   1.803  0.2589  0.1515  0.1814
  776MOL0     C 4678  10.155   7.405   1.863  0.5450  0.0313  0.3436
  776MOL0     C 4679   9.888   7.582   2.196 -0.1601 -0.2468 -0.7990
  776MOL0     C 4680   9.791   7.614   2.100 -0.2317  0.6659 -0.2903
  776MOL0     C 4681   9.674   7.678   2.124  0.0330  0.3258  0.9648
  776MOL0     C 4682   9.647   7.712   2.253  0.4124 -0.1781  0.4467
  776MOL0     O 4683   9.526   7.779   2.284 -0.9479  0.2809 -0.0083
  776MOL0     C 4684   9.412   7.779   2.193 -1.0624  0.1473  0.4864
  776MOL0     C 4685   9.407   7.917   2.120  0.4994 -0.9306  0.4926
  776MOL0     C 4686   9.328   7.927   1.994  1.2700 -0.4089  0.3740
  776MOL0     C 4687   9.173   7.918   2.017  0.3226  0.3283  0.3614
  776MOL0     C 4688   9.124   7.781   2.027  0.0436  0.5666 -0.2958
  776MOL0     C 4689   9.073   7.672   2.022 -0.0529  0.4555 -0.7533
  776MOL0     C 4690   9.734   7.699   2.353 -0.5429 -0.1139  0.4846
  776MOL0     C 4691   9.857   7.633   2.333 -0.5137 -0.3623 -0.3395
  776MOL0     C 4692   9.959   7.636   2.452  0.8706  0.4024  0.3018
  776MOL0     H 4693  10.119   7.242   2.164 -1.8318 -2.8365 -0.4547
  776MOL0     H 4694  10.300   7.099   2.053  0.4482 -0.8598 -0.9950
  776MOL0     H 4695  10.495   7.178   1.637  0.3557 -2.4672 -0.0299
  776MOL0     H 4696  10.515   7.288   1.765  2.4769  0.0470 -3.6039
  776MOL0     H 4697  10.630   7.007   1.715  1.5466 -0.2185  0.5138
  776MOL0     H 4698  10.653   7.094   1.874  0.7060 -0.1195  0.3682
  776MOL0     H 4699  10.791   7.243   1.789  0.6963  0.0682 -1.3099
  776MOL0     H 4700  10.728   7.240   1.618  0.9923  1.1684 -1.8492
  776MOL0     H 4701  10.905   7.025   1.740 -1.3357  0.4923  1.2655
  776MOL0     H 4702  10.845   7.028   1.578 -0.1062 -2.5333  1.3379
  776MOL0     H 4703  10.990   7.264   1.584 -2.0111 -0.9779 -0.4000
  776MOL0     H 4704  11.060   7.200   1.724 -1.4703  0.4227  1.1095
  776MOL0     H 4705  11.089   6.974   1.583 -2.6449  0.3146 -3.3223
  776MOL0     H 4706  11.070   7.093   1.448 -1.2691  1.1711  0.0984
  776MOL0     H 4707  11.275   7.065   1.666  1.5905  1.8009  0.1281
  776MOL0     H 4708  11.253   7.218   1.591 -2.1752 -1.2390 -0.3624
  776MOL0     H 4709  11.448   7.071   1.496 -0.1468  0.7751  0.8891
  776MOL0     H 4710  11.329   6.957   1.453 -0.2900  0.5577 -1.2606
  776MOL0     H 4711  11.316   7.354   1.356  2.8708  1.9795 -2.8183
  776MOL0     H 4712  11.378   7.464   1.110  0.9892 -0.9155  1.1211
  776MOL0     H 4713  11.386   7.353   0.973 -2.6840  1.4141 -1.8339
  776MOL0     H 4714  11.151   7.264   1.030 -0.7107  0.7579 -1.5414
  776MOL0     H 4715  11.119   7.416   1.124  1.2918  2.1575 -0.4610
  776MOL0     H 4716  11.205   7.524   0.916 -1.8764  1.0076  0.6962
  776MOL0     H 4717  11.034   7.481   0.936  1.5985  1.1097 -0.2472
  776MOL0     H 4718  11.172   7.427   0.705  0.2335 -2.0176 -1.4946
  776MOL0     H 4719  11.037   7.336   0.756  0.2488 -3.2115  2.2569
  776MOL0     H 4720  11.300   7.013   0.863  0.7532 -0.7725 -0.4032
  776MOL0     H 4721  11.301   6.822   0.739 -0.0531  2.2091  2.4136
  776MOL0     H 4722  11.350   6.691   0.237  0.9509 -1.6674  0.4214
  776MOL0     H 4723  11.347   6.528   0.058 -0.2427 -0.5488  2.1554
  776MOL0     H 4724  11.307   6.395  -0.129 -1.6958  1.3190  1.3053
  776MOL0     H 4725  11.186   6.332  -0.238  0.7060  1.0126 -1.6886
  776MOL0     H 4726  11.249   6.635  -0.224  3.9092  0.9358 -2.3298
  776MOL0     H 4727  11.315   6.527  -0.346  1.1073 -1.4274  2.1249
  776MOL0     H 4728  11.085   6.477  -0.427 -0.3888 -3.4591  2.3679
  776MOL0     H 4729  11.019   6.538  -0.281  2.0633 -0.2065  1.4362
  776MOL0     H 4730  11.064   6.681  -0.526  3.4358 -1.4735 -0.6454
  776MOL0     H 4731  11.145   6.772  -0.400 -2.6103  2.4833 -1.3893
  776MOL0     H 4732  10.966   6.772  -0.245  0.8197 -1.9649  0.8384
  776MOL0     H 4733  10.866   6.672  -0.348  0.9505  0.2448  2.3032
  776MOL0     H 4734  10.964   6.939  -0.446  0.2684  1.2625  2.5076
  776MOL0     H 4735  10.828   6.851  -0.518  0.2744  2.9057 -0.6364
  776MOL0     H 4736  10.820   6.999  -0.252  2.2665 -1.6968  0.4030
  776MOL0     H 4737  10.691   6.885  -0.306  1.0109 -0.9951  0.5287
  776MOL0     H 4738  10.665   7.037  -0.512 -0.4675 -1.1914  1.4242
  776MOL0     H 4739  10.629   7.110  -0.362 -0.3956 -1.5090 -0.0407
  776MOL0     H 4740  10.922   6.583   0.015 -0.8591 -3.3142  0.1826
  776MOL0     H 4741  10.925   6.725   0.217 -0.8807 -1.8177  2.1020
  776MOL0     H 4742  11.119   7.048   0.404  0.8512 -3.9045 -0.5829
  776MOL0     H 4743  11.135   7.250   0.552  3.3410  1.9334  1.2700
  776MOL0     H 4744  10.293   7.313   1.702  0.6760 -2.8311  0.4099
  776MOL0     H 4745  10.112   7.490   1.810  1.5531 -0.3605 -1.1555
  776MOL0     H 4746   9.802   7.591   1.995  0.2103  1.0615 -0.3348
  776MOL0     H 4747   9.626   7.723   2.037  1.2229 -0.3282 -0.0577
  776MOL0     H 4748   9.319   7.769   2.251 -1.1150 -0.3361  0.3257
  776MOL0     H 4749   9.418   7.695   2.124  1.5314  0.8546 -0.2362
  776MOL0     H 4750   9.510   7.945   2.099 -0.2238  0.6590 -1.2907
  776MOL0     H 4751   9.372   7.995   2.188 -1.9009  0.7143 -2.3830
  776MOL0     H 4752   9.360   7.848   1.925  0.4537  0.1308 -0.6590
  776MOL0     H 4753   9.353   8.019   1.939 -2.0125  2.0087  2.5594
  776MOL0     H 4754   9.149   7.974   2.108  0.8288  2.5319 -0.7831
  776MOL0     H 4755   9.122   7.970   1.936  0.4582 -1.7125 -1.1180
  776MOL0     H 4756   9.035   7.575   1.995  3.0021  0.1237 -4.8540
  776MOL0     H 4757   9.706   7.734   2.452  0.6115 -1.6468  1.3989
  776MOL0     H 4758   9.933   7.723   2.513 -1.1533  0.2137 -0.2256
  776MOL0     H 4759   9.955   7.539   2.503 -0.2919  0.1069 -0.3203
  776MOL0     H 4760  10.059   7.661   2.415  0.0146  0.6156 -2.0727
  777MOL0     O 4761   7.496   5.999   2.082  0.6310 -0.3170 -0.4304
  777MOL0     C 4762   7.558   5.908   2.127 -0.0055 -0.1987  0.2560
  777MOL0     O 4763   7.576   5.791   2.058 -0.5482  0.0953  0.6048
  777MOL0     C 4764   7.516   5.763   1.939  0.5668 -0.5441  0.7842
  777MOL0     C 4765   7.581   5.682   1.851 -0.0920  0.5915 -1.0695
  777MOL0     C 4766   7.525   5.642   1.731  0.0334  0.5896 -0.0281
  777MOL0     C 4767   7.396   5.669   1.697  0.7654 -0.1914  0.5950
  777MOL0     O 4768   7.341   5.633   1.577  0.3597 -1.0650 -0.0388
  777MOL0     C 4769   7.208   5.572   1.588 -0.3448  0.3089  0.3787
  777MOL0     C 4770   7.189   5.489   1.454 -0.5739 -0.5300 -0.7939
  777MOL0     C 4771   7.227   5.338   1.471 -0.0598 -0.2724  0.1417
  777MOL0     C 4772   7.371   5.321   1.509 -0.1553 -0.1182 -0.3954
  777MOL0     C 4773   7.417   5.179   1.471 -0.2076  0.9783 -0.5349
  777MOL0     C 4774   7.554   5.119   1.529 -0.4942 -0.4389  0.8782
  777MOL0     C 4775   7.525   4.978   1.596  0.1759 -0.0441 -0.5161
  777MOL0     C 4776   7.664   4.912   1.641 -0.5083  0.0306 -0.0132
  777MOL0     N 4777   7.700   4.979   1.768  0.8645  1.4739  0.0996
  777MOL0     C 4778   7.790   5.074   1.782 -0.1978  0.0855 -0.2659
  777MOL0     C 4779   7.830   5.056   1.913  0.9272 -0.2993  0.3331
  777MOL0     C 4780   7.923   5.144   1.985  0.0815 -1.2572 -0.5614
  777MOL0     C 4781   7.920   5.289   1.922 -0.3494  0.8154 -0.5172
  777MOL0     C 4782   7.979   5.413   2.001  0.7238  1.1224 -1.0004
  777MOL0     C 4783   7.910   5.427   2.142 -0.6811 -0.4899  0.4473
  777MOL0     O 4784   7.952   5.555   2.188  0.4414  0.1659 -0.2191
  777MOL0     C 4785   8.080   5.564   2.248  0.7914  0.4002 -0.4364
  777MOL0     C 4786   8.165   5.467   2.282 -0.3158  0.3469  0.1533
  777MOL0     C 4787   8.276   5.500   2.363  0.8520  0.3510  0.6763
  777MOL0     C 4788   8.309   5.630   2.401 -0.0784  0.4428  0.6594
  777MOL0     C 4789   8.435   5.647   2.465 -0.0719  0.1142  0.1579
  777MOL0     O 4790   8.454   5.778   2.495  0.0641 -0.7955  1.2248
  777MOL0     C 4791   8.572   5.819   2.552 -0.3112 -0.9998 -0.6236
  777MOL0     C 4792   8.625   5.752   2.662 -0.4637  0.0341  0.3721
  777MOL0     C 4793   8.743   5.790   2.718 -0.9933 -0.5108 -0.0316
  777MOL0     C 4794   8.825   5.884   2.654  0.8077 -0.2842  0.5004
  777MOL0     O 4795   8.954   5.904   2.680 -0.3833  0.0103 -0.1309
  777MOL0     C 4796   9.019   5.850   2.788  0.5662  0.5334 -0.4374
  777MOL0     C 4797   9.110   5.951   2.853  0.4093 -0.5685 -0.4818
  777MOL0     C 4798   9.029   6.042   2.942 -0.6305  0.1194 -0.6321
  777MOL0     C 4799   9.116   6.165   2.981 -0.1702  0.3135  0.3939
  777MOL0     C 4800   9.044   6.263   3.071  0.1757 -0.2971 -0.1500
  777MOL0     C 4801   9.007   6.214   3.205 -0.2847  0.0388  0.1654
  777MOL0     C 4802   9.127   6.163   3.288 -0.5577 -0.2242  0.1104
  777MOL0     C 4803   9.107   6.176   3.433  0.0464 -0.8973  0.6076
  777MOL0    Cl 4804   9.109   6.348   3.476 -0.2607 -0.3345  0.0428
  777MOL0     C 4805   8.768   5.948   2.546 -0.0267 -0.0686  0.6016
  777MOL0     C 4806   8.644   5.917   2.495 -0.4967  1.2271  0.3904
  777MOL0     O 4807   8.513   5.556   2.487  0.1619 -0.9552  0.1003
  777MOL0     C 4808   8.218   5.732   2.380  1.0753  0.6814 -0.5528
  777MOL0     C 4809   8.101   5.693   2.299 -0.4115  0.0305 -0.1176
  777MOL0     N 4810   7.763   4.950   1.968  0.4443 -0.3863 -0.8527
  777MOL0     N 4811   7.682   4.911   1.885 -0.4647 -0.8454 -0.5364
  777MOL0     C 4812   7.324   5.733   1.798  0.1586 -0.8458 -0.1699
  777MOL0     C 4813   7.383   5.788   1.914  0.8151  0.9477  0.0078
  777MOL0     C 4814   7.632   5.939   2.258 -0.5174  0.8052 -0.2567
  777MOL0     C 4815   7.722   5.843   2.304 -0.0447 -0.5851  0.4017
  777MOL0     C 4816   7.806   5.883   2.412 -0.3787  1.2500 -0.0550
  777MOL0     C 4817   7.787   5.993   2.484 -0.1461 -0.6075 -0.1041
  777MOL0     O 4818   7.865   6.027   2.590  0.0681 -0.1911 -0.1075
  777MOL0     C 4819   7.887   5.925   2.697  0.3840 -0.2707  0.8035
  777MOL0     C 4820   7.810   5.972   2.824 -0.9726 -0.0929  0.0475
  777MOL0     C 4821   7.826   5.877   2.943 -0.4617  0.4926  0.8834
  777MOL0     C 4822   7.774   5.919   3.081  1.2518 -0.6304 -0.1722
  777MOL0     C 4823   7.842   6.037   3.120 -0.3151  0.3068 -0.4984
  777MOL0     C 4824   7.908   6.136   3.144  0.5207  0.3531  0.1492
  777MOL0     C 4825   7.690   6.084   2.451 -0.2211  0.6035 -0.4576
  777MOL0     C 4826   7.609   6.058   2.342 -0.1374  0.2874  1.1838
  777MOL0     C 4827   7.498   6.153   2.318  0.3168 -0.7946 -0.3077
  777MOL0     H 4828   7.685   5.668   1.875  0.6734 -1.7879 -4.9240
  777MOL0     H 4829   7.579   5.599   1.648 -0.2106 -0.2989  0.2561
  777MOL0     H 4830   7.196   5.507   1.675 -3.4089 -1.9284 -1.5064
  777MOL0     H 4831   7.125   5.643   1.599 -2.3959 -2.0072  0.6320
  777MOL0     H 4832   7.242   5.536   1.371 -0.8281  0.8591 -0.2000
  777MOL0     H 4833   7.081   5.492   1.438 -0.7509  0.6353  0.3595
  777MOL0     H 4834   7.217   5.286   1.375 -0.6102  0.3209 -0.1283
  777MOL0     H 4835   7.164   5.289   1.546  1.0959  1.4920  2.4122
  777MOL0     H 4836   7.432   5.380   1.440  2.2107  0.6351  2.1398
  777MOL0     H 4837   7.404   5.331   1.613 -0.0083 -1.8905 -0.2497
  777MOL0     H 4838   7.341   5.110   1.507  0.3709 -0.2501 -1.5627
  777MOL0     H 4839   7.421   5.179   1.361  3.2930 -1.0472 -0.5735
  777MOL0     H 4840   7.631   5.103   1.452 -0.3283 -0.0564  0.9640
  777MOL0     H 4841   7.594   5.191   1.601  2.4227 -2.3965  1.3971
  777MOL0     H 4842   7.481   4.907   1.525  2.1524 -0.9969 -0.8608
  777MOL0     H 4843   7.456   4.981   1.681  1.0710 -3.2668  0.4607
  777MOL0     H 4844   7.658   4.803   1.648 -1.9874  0.1021  0.0828
  777MOL0     H 4845   7.734   4.946   1.563 -3.2466  1.8541 -1.8389
  777MOL0     H 4846   7.814   5.146   1.704  1.7243 -0.7844 -0.5322
  777MOL0     H 4847   7.910   5.155   2.093 -3.4293  1.5337 -1.0676
  777MOL0     H 4848   8.019   5.094   1.971 -0.7700 -3.3542  0.5698
  777MOL0     H 4849   7.981   5.284   1.831 -1.4428 -1.4494 -1.2105
  777MOL0     H 4850   7.816   5.317   1.899 -0.6455  2.0702  2.0156
  777MOL0     H 4851   7.943   5.499   1.944 -2.3577  0.2289 -0.5838
  777MOL0     H 4852   8.088   5.403   2.003  0.7408  1.4737  0.9041
  777MOL0     H 4853   7.952   5.347   2.203  0.5412  0.4248  0.8683
  777MOL0     H 4854   7.802   5.422   2.133 -0.6918  0.0182  0.2601
  777MOL0     H 4855   8.156   5.360   2.271  1.3368 -0.3360  4.0019
  777MOL0     H 4856   8.351   5.424   2.381  3.1652  2.6985  1.4115
  777MOL0     H 4857   8.569   5.667   2.700 -1.3249  0.0858 -0.7053
  777MOL0     H 4858   8.783   5.722   2.792  0.3888  0.1333 -0.1604
  777MOL0     H 4859   8.944   5.819   2.860 -0.4695  0.4144 -1.5361
  777MOL0     H 4860   9.072   5.758   2.760 -1.3556 -1.1251  1.0933
  777MOL0     H 4861   9.170   5.900   2.928 -1.0085 -1.4991  0.0726
  777MOL0     H 4862   9.166   6.006   2.777 -3.1728 -0.7367 -3.5308
  777MOL0     H 4863   8.957   6.079   2.867 -0.1182  2.2796 -0.1302
  777MOL0     H 4864   8.976   5.999   3.028  0.4720  0.5224  0.2773
  777MOL0     H 4865   9.151   6.211   2.888 -1.6431  0.3804 -0.1640
  777MOL0     H 4866   9.205   6.136   3.038  0.3493 -1.1104 -1.0573
  777MOL0     H 4867   8.948   6.298   3.031 -0.8210 -0.6290  1.8489
  777MOL0     H 4868   9.112   6.348   3.076 -0.7876  0.4118  2.2075
  777MOL0     H 4869   8.963   6.300   3.257  1.3803  0.7530  0.4384
  777MOL0     H 4870   8.920   6.148   3.197  0.0429 -0.2468 -1.4006
  777MOL0     H 4871   9.221   6.216   3.271  0.9637 -2.6437  0.3925
  777MOL0     H 4872   9.125   6.056   3.265  1.9212  0.0498 -1.8865
  777MOL0     H 4873   9.015   6.119   3.451  1.4872 -3.7549 -0.4467
  777MOL0     H 4874   9.178   6.118   3.492  1.4007 -0.6872 -0.7483
  777MOL0     H 4875   8.834   6.016   2.494  1.0277 -3.1325 -2.4053
  777MOL0     H 4876   8.618   5.975   2.407  1.1306 -1.6213 -2.1436
  777MOL0     H 4877   8.231   5.833   2.416 -2.2544  1.3275 -0.8102
  777MOL0     H 4878   8.034   5.775   2.274  1.2705  1.9175  1.2684
  777MOL0     H 4879   7.218   5.756   1.805 -0.1857 -2.7828  3.5429
  777MOL0     H 4880   7.324   5.839   1.990 -2.0855  1.0371 -2.1722
  777MOL0     H 4881   7.735   5.752   2.246 -2.0247 -1.0306  0.5827
  777MOL0     H 4882   7.886   5.811   2.422 -3.1346 -2.8595 -3.3889
  777MOL0     H 4883   7.994   5.916   2.717  1.0155  2.5981 -0.6830
  777MOL0     H 4884   7.843   5.831   2.664 -4.6062  1.6116  1.1930
  777MOL0     H 4885   7.711   5.993   2.783 -0.2793 -0.3453 -1.8528
  777MOL0     H 4886   7.850   6.070   2.851  1.5713 -0.9362 -0.3793
  777MOL0     H 4887   7.931   5.846   2.952 -1.2147 -2.8474 -0.1702
  777MOL0     H 4888   7.769   5.786   2.922  0.0421 -0.0920  1.9305
  777MOL0     H 4889   7.669   5.949   3.081  0.4756 -3.1009 -1.3879
  777MOL0     H 4890   7.796   5.833   3.145  1.4039 -1.0038 -0.7194
  777MOL0     H 4891   7.978   6.213   3.171  0.1911  1.5919 -2.2578
  777MOL0     H 4892   7.683   6.183   2.497 -0.7012  1.1390 -1.6536
  777MOL0     H 4893   7.474   6.202   2.413  0.3906 -0.7999 -0.2870
  777MOL0     H 4894   7.535   6.227   2.246  1.9551 -2.6465 -1.4580
  777MOL0     H 4895   7.406   6.114   2.272 -2.3830  3.8462  0.4351
  778MOL0     O 4896  11.364   1.750   7.475  0.7337 -0.0194 -0.5307
  778MOL0     C 4897  11.304   1.825   7.395  0.3714 -0.7522  1.0945
  778MOL0     O 4898  11.216   1.778   7.287 -0.4194 -0.3617 -0.0576
  778MOL0     C 4899  11.132   1.672   7.316 -0.3240  0.3572 -0.1022
  778MOL0     C 4900  11.073   1.619   7.204  0.4793 -0.2766  0.8519
  778MOL0     C 4901  10.983   1.508   7.203 -0.3448 -0.2214 -0.2641
  778MOL0     C 4902  10.954   1.455   7.326  0.5269  0.6758 -0.9868
  778MOL0     O 4903  10.851   1.360   7.341  0.1713  0.5300  0.5749
  778MOL0     C 4904  10.883   1.246   7.420  0.6588  0.9035 -0.6468
  778MOL0     C 4905  10.785   1.128   7.392  1.2499  0.3962  0.2379
  778MOL0     C 4906  10.817   0.997   7.478  0.0899  0.2023  0.1530
  778MOL0     C 4907  10.745   0.877   7.422  0.1813 -0.1372 -0.5019
  778MOL0     C 4908  10.780   0.737   7.486  0.0927 -0.7539 -0.0731
  778MOL0     C 4909  10.695   0.634   7.417 -1.1237 -0.9060 -0.1632
  778MOL0     C 4910  10.681   0.507   7.498 -0.6597  0.2359 -0.8420
  778MOL0     C 4911  10.558   0.424   7.458  0.5014 -1.2016 -0.5817
  778MOL0     N 4912  10.527   0.309   7.545 -0.1459  0.2477  0.5193
  778MOL0     C 4913  10.476   0.330   7.671 -0.5025 -1.8819  0.9193
  778MOL0     C 4914  10.473   0.210   7.727  0.7273  0.0746 -0.1457
  778MOL0     C 4915  10.402   0.193   7.863  0.4907 -0.3880 -0.2288
  778MOL0     C 4916  10.272   0.124   7.846  0.5083  0.2832 -0.6849
  778MOL0     C 4917  10.220   0.064   7.981  0.0760 -0.1759  0.2974
  778MOL0     C 4918  10.115  -0.046   7.979 -0.7319 -0.5173 -0.4164
  778MOL0     O 4919   9.986  -0.021   7.907 -0.3554  0.3585 -0.0402
  778MOL0     C 4920   9.909   0.086   7.937 -0.3686 -0.2844 -0.2118
  778MOL0     C 4921   9.875   0.126   8.062  0.8668  0.1674  0.0046
  778MOL0     C 4922   9.789   0.237   8.072 -0.9445 -0.4657  1.0734
  778MOL0     C 4923   9.752   0.313   7.960  0.8115  0.9702 -0.1663
  778MOL0     C 4924   9.659   0.429   7.968  0.6259 -0.0101 -0.0735
  778MOL0     O 4925   9.547   0.438   8.057  0.7568  0.0145  0.0247
  778MOL0     C 4926   9.473   0.550   8.071 -1.0999 -0.7086  0.5015
  778MOL0     C 4927   9.496   0.695   8.042 -1.1301  1.4197  0.2805
  778MOL0     C 4928   9.417   0.796   8.068 -0.2926 -0.3678  0.2434
  778MOL0     C 4929   9.285   0.770   8.108 -0.3451 -0.4360  1.1680
  778MOL0     O 4930   9.186   0.870   8.135 -0.7168 -0.3927  0.0479
  778MOL0     C 4931   9.218   1.011   8.151  0.4404  0.0523 -0.3593
  778MOL0     C 4932   9.092   1.077   8.197  0.0493 -0.8591 -0.5797
  778MOL0     C 4933   9.063   1.212   8.119  0.4751  0.8497  0.1635
  778MOL0     C 4934   8.954   1.295   8.175  0.4968  0.3665  1.0348
  778MOL0     C 4935   8.927   1.435   8.113  0.0397 -0.7666 -0.4190
  778MOL0     C 4936   8.883   1.456   7.969 -0.2572  0.2310  0.4178
  778MOL0     C 4937   8.747   1.384   7.922  1.0680  0.7583  0.0848
  778MOL0     C 4938   8.626   1.466   7.921  0.2798 -0.7429 -0.4681
  778MOL0    Cl 4939   8.581   1.498   8.094  0.0247  0.1669 -0.1588
  778MOL0     C 4940   9.254   0.637   8.128 -0.3031 -1.3887 -0.7701
  778MOL0     C 4941   9.345   0.530   8.114 -0.0845 -0.8378  0.4238
  778MOL0     O 4942   9.701   0.519   7.896 -0.2922  0.3724 -0.3804
  778MOL0     C 4943   9.791   0.263   7.839 -0.6641 -0.0755  0.2413
  778MOL0     C 4944   9.873   0.149   7.823 -0.4436 -0.4458 -0.6610
  778MOL0     N 4945  10.532   0.118   7.641 -0.2154  0.4709  0.2615
  778MOL0     N 4946  10.555   0.178   7.531 -0.2456 -0.1631 -0.1449
  778MOL0     C 4947  11.023   1.495   7.444 -0.7048  0.1870 -0.6610
  778MOL0     C 4948  11.110   1.614   7.437 -0.1264  0.1515 -0.2508
  778MOL0     C 4949  11.365   1.964   7.375  0.7574  0.8326 -0.2410
  778MOL0     C 4950  11.349   2.038   7.256  0.1428  0.4423  0.0056
  778MOL0     C 4951  11.403   2.169   7.248  0.2018  1.0407 -0.2648
  778MOL0     C 4952  11.477   2.221   7.354  0.2598 -0.0607 -0.0395
  778MOL0     O 4953  11.522   2.352   7.341 -0.0398 -0.5466 -0.1293
  778MOL0     C 4954  11.532   2.431   7.455 -0.2407  0.3104 -1.1836
  778MOL0     C 4955  11.399   2.492   7.466 -0.7646  0.3387 -1.1630
  778MOL0     C 4956  11.396   2.591   7.580  0.4823 -0.2529 -0.6217
  778MOL0     C 4957  11.256   2.647   7.595  0.6081  0.7913 -0.1140
  778MOL0     C 4958  11.224   2.760   7.497 -0.0472 -0.5173  0.2642
  778MOL0     C 4959  11.204   2.870   7.457  0.7814 -0.0061  0.3853
  778MOL0     C 4960  11.491   2.147   7.471  0.8386  1.9016 -0.0162
  778MOL0     C 4961  11.437   2.016   7.487  0.6807  0.2192  0.1523
  778MOL0     C 4962  11.458   1.957   7.629 -0.0577 -0.3121  0.1863
  778MOL0     H 4963  11.087   1.657   7.103  0.8206 -1.2332  0.5312
  778MOL0     H 4964  10.956   1.466   7.107  2.5936 -1.6738 -0.5742
  778MOL0     H 4965  10.982   1.208   7.394 -0.2498 -2.3597  0.1963
  778MOL0     H 4966  10.884   1.276   7.526  1.5507  1.5801 -0.8331
  778MOL0     H 4967  10.797   1.103   7.286  0.0672 -0.1717  0.2266
  778MOL0     H 4968  10.680   1.156   7.402  0.3874 -1.8812 -1.6264
  778MOL0     H 4969  10.783   1.029   7.577 -2.4774  1.6398 -1.0773
  778MOL0     H 4970  10.923   0.973   7.472  0.1550 -0.4833  2.7998
  778MOL0     H 4971  10.639   0.903   7.431  0.6996  1.5613  1.5329
  778MOL0     H 4972  10.767   0.861   7.316  1.7021  2.8129 -0.7078
  778MOL0     H 4973  10.884   0.718   7.456  0.1896 -0.0609 -0.1899
  778MOL0     H 4974  10.762   0.720   7.592 -3.0714 -1.2891 -0.6061
  778MOL0     H 4975  10.592   0.672   7.413 -0.3496  1.8055  2.2753
  778MOL0     H 4976  10.735   0.609   7.319 -0.5089 -2.4761  0.4662
  778MOL0     H 4977  10.662   0.523   7.604  0.0708 -2.9931 -0.1005
  778MOL0     H 4978  10.774   0.451   7.482 -1.2095 -1.3680  1.0514
  778MOL0     H 4979  10.476   0.497   7.461  1.6629  0.1245  1.4619
  778MOL0     H 4980  10.565   0.393   7.354  2.8322  0.2922 -0.9357
  778MOL0     H 4981  10.445   0.429   7.704 -0.9216 -2.3691  2.0484
  778MOL0     H 4982  10.476   0.132   7.916 -0.2196 -0.6480  0.4783
  778MOL0     H 4983  10.385   0.292   7.904 -1.1467  0.7450 -3.2881
  778MOL0     H 4984  10.204   0.209   7.832  1.5775  0.8627 -2.7333
  778MOL0     H 4985  10.261   0.053   7.763  2.5225  2.0630 -2.6116
  778MOL0     H 4986  10.189   0.143   8.050 -1.1947 -2.0225  1.9331
  778MOL0     H 4987  10.305   0.017   8.031  0.9918  1.8319  0.7047
  778MOL0     H 4988  10.077  -0.055   8.081 -4.6593  2.8812 -1.3298
  778MOL0     H 4989  10.152  -0.136   7.928 -3.0258 -1.5176 -0.4578
  778MOL0     H 4990   9.918   0.060   8.136  2.2486 -1.2495 -1.9801
  778MOL0     H 4991   9.758   0.263   8.173  0.8448 -0.1345  1.5555
  778MOL0     H 4992   9.596   0.716   8.006  1.0040 -1.7332  3.5773
  778MOL0     H 4993   9.455   0.892   8.034  0.3104 -0.2213  1.2868
  778MOL0     H 4994   9.299   1.029   8.223 -1.4014  1.2000  1.5568
  778MOL0     H 4995   9.252   1.060   8.060  0.1793  0.1002 -0.4299
  778MOL0     H 4996   9.012   1.003   8.189 -1.6857  0.9171 -0.5529
  778MOL0     H 4997   9.088   1.091   8.306  0.4300 -2.4092 -0.3460
  778MOL0     H 4998   9.160   1.261   8.109  0.9217  0.0871  0.6164
  778MOL0     H 4999   9.043   1.176   8.018 -1.5933 -0.8168  1.0929
  778MOL0     H 5000   8.983   1.306   8.280 -1.7172 -2.1820  2.0558
  778MOL0     H 5001   8.861   1.237   8.171  2.1109 -2.3023 -0.1643
  778MOL0     H 5002   9.016   1.496   8.131  0.4355 -0.7782 -2.1404
  778MOL0     H 5003   8.852   1.473   8.183  2.6766  1.2796  1.4545
  778MOL0     H 5004   8.869   1.562   7.946 -1.8303 -0.2352 -0.9599
  778MOL0     H 5005   8.960   1.420   7.900  2.0811  1.6470  2.1381
  778MOL0     H 5006   8.726   1.301   7.990 -2.4380 -0.6720 -2.4792
  778MOL0     H 5007   8.770   1.359   7.818 -0.0272 -1.0931  0.2586
  778MOL0     H 5008   8.643   1.564   7.875  0.1652 -0.8415 -0.7266
  778MOL0     H 5009   8.538   1.429   7.867  0.7891 -0.9060 -1.2019
  778MOL0     H 5010   9.152   0.605   8.142 -0.0112 -1.1732  2.6531
  778MOL0     H 5011   9.319   0.425   8.119 -1.4597 -0.4906  1.1873
  778MOL0     H 5012   9.752   0.311   7.750 -1.2425 -0.0897  0.4828
  778MOL0     H 5013   9.896   0.109   7.725  1.0768 -0.3569 -0.3676
  778MOL0     H 5014  10.996   1.461   7.543 -1.2755 -0.9623 -1.1881
  778MOL0     H 5015  11.121   1.671   7.528 -5.1103  1.1176  0.0342
  778MOL0     H 5016  11.287   1.995   7.178 -1.2176 -1.6792  2.1052
  778MOL0     H 5017  11.375   2.228   7.162  0.5502  1.6516  0.0361
  778MOL0     H 5018  11.600   2.516   7.444 -0.6895  0.7570 -0.5872
  778MOL0     H 5019  11.559   2.384   7.550 -1.4664 -1.7084 -1.7649
  778MOL0     H 5020  11.319   2.420   7.485  0.7183 -1.4409 -1.3716
  778MOL0     H 5021  11.360   2.549   7.381 -1.7961  1.9198  0.3157
  778MOL0     H 5022  11.466   2.674   7.566 -2.1182  1.9963 -0.9300
  778MOL0     H 5023  11.421   2.543   7.676 -0.0333  1.2295  0.2826
  778MOL0     H 5024  11.180   2.569   7.600 -0.6906  2.0734  1.5389
  778MOL0     H 5025  11.250   2.685   7.698  3.1246  0.6949  0.1328
  778MOL0     H 5026  11.178   2.968   7.424  3.8235  0.9791  0.6155
  778MOL0     H 5027  11.558   2.183   7.549 -1.1559  3.2691  1.1629
  778MOL0     H 5028  11.556   1.909   7.637  1.1572  1.9347 -0.3458
  778MOL0     H 5029  11.459   2.043   7.697 -2.7858  0.0600 -0.1064
  778MOL0     H 5030  11.387   1.889   7.678 -0.7740 -0.1994 -0.6843
  779MOL0     O 5031   5.905  10.035   6.743 -0.0681 -0.1455 -1.0011
  779MOL0     C 5032   6.018  10.080   6.751 -0.0180 -0.4530  0.2716
  779MOL0     O 5033   6.106  10.092   6.647 -0.5600 -1.0615 -0.5079
  779MOL0     C 5034   6.080  10.019   6.531  0.7877  0.8552 -0.3058
  779MOL0     C 5035   6.031  10.080   6.425 -0.4744 -0.8893  0.7798
  779MOL0     C 5036   5.975  10.005   6.318 -0.5066  0.0964 -0.3805
  779MOL0     C 5037   5.991   9.860   6.317 -0.2795  0.1467  0.5360
  779MOL0     O 5038   5.957   9.767   6.220 -0.5124 -0.4402 -0.0392
  779MOL0     C 5039   5.996   9.810   6.087 -0.0942 -0.4573  0.0180
  779MOL0     C 5040   5.896   9.900   6.020  0.3076  1.0254  0.6293
  779MOL0     C 5041   5.872   9.826   5.883 -0.3925 -1.3422 -0.6076
  779MOL0     C 5042   5.973   9.866   5.785  0.2726 -1.1310  1.2537
  779MOL0     C 5043   5.944   9.827   5.639 -0.3300  0.4275 -0.2224
  779MOL0     C 5044   6.050   9.877   5.552  0.4080  0.3994 -0.1845
  779MOL0     C 5045   6.051   9.804   5.409  0.1779 -0.5439 -0.5027
  779MOL0     C 5046   6.054   9.652   5.401 -0.6236  0.2090 -0.9903
  779MOL0     N 5047   6.156   9.609   5.309  0.8785 -0.2570  0.0892
  779MOL0     C 5048   6.286   9.564   5.332  0.0190 -0.1093  0.2344
  779MOL0     C 5049   6.335   9.510   5.220  0.4750  0.4134 -0.8052
  779MOL0     C 5050   6.474   9.441   5.199  0.0386  0.5609 -0.2851
  779MOL0     C 5051   6.459   9.294   5.255 -0.5433 -0.4623  0.2299
  779MOL0     C 5052   6.388   9.201   5.158 -0.6189  0.4543  0.0260
  779MOL0     C 5053   6.356   9.065   5.205  0.0647  0.2096 -0.0915
  779MOL0     O 5054   6.299   8.993   5.101  1.1213  0.6219  0.5325
  779MOL0     C 5055   6.270   8.858   5.104  0.1172  0.0837 -0.1245
  779MOL0     C 5056   6.356   8.763   5.059  0.2293 -0.5546 -0.0916
  779MOL0     C 5057   6.316   8.633   5.071  0.6341  0.7405  0.5028
  779MOL0     C 5058   6.181   8.591   5.086  0.7730 -0.8724  0.0187
  779MOL0     C 5059   6.141   8.450   5.074  0.4800  0.2175  0.0684
  779MOL0     O 5060   6.010   8.417   5.118 -0.4179 -0.5363  0.7850
  779MOL0     C 5061   5.944   8.299   5.097  0.1400  0.1640  0.1463
  779MOL0     C 5062   6.007   8.172   5.100 -0.0537 -0.4247  0.4743
  779MOL0     C 5063   5.925   8.064   5.070 -0.2853  0.3790 -0.0114
  779MOL0     C 5064   5.795   8.078   5.037  0.4925  0.1965 -0.1815
  779MOL0     O 5065   5.718   7.970   5.005 -1.1653  0.5424  0.0215
  779MOL0     C 5066   5.681   7.883   5.108  0.3256 -0.3762 -0.1013
  779MOL0     C 5067   5.624   7.752   5.065 -0.6749 -0.2245 -0.4969
  779MOL0     C 5068   5.730   7.665   5.001 -0.8830  0.2175 -0.2770
  779MOL0     C 5069   5.673   7.522   4.985  0.0969 -0.4569 -0.0354
  779MOL0     C 5070   5.779   7.431   4.933 -0.9185 -0.1933  0.2868
  779MOL0     C 5071   5.742   7.289   4.905 -0.5485  0.4226  0.6909
  779MOL0     C 5072   5.850   7.205   4.832  0.6606  0.6168  0.1805
  779MOL0     C 5073   5.784   7.140   4.711 -0.0089  0.5581 -0.7631
  779MOL0    Cl 5074   5.737   7.259   4.590 -0.0010 -0.0218 -0.2035
  779MOL0     C 5075   5.733   8.201   5.047  0.0347 -0.8574  0.4707
  779MOL0     C 5076   5.809   8.316   5.090  0.2580  0.5218  0.2362
  779MOL0     O 5077   6.219   8.370   5.023 -0.4264  0.8047 -0.3700
  779MOL0     C 5078   6.101   8.694   5.147  0.2746  1.1958 -0.5282
  779MOL0     C 5079   6.143   8.824   5.149  0.6024 -0.7169  0.6166
  779MOL0     N 5080   6.247   9.539   5.123 -0.6286 -0.1218  0.4550
  779MOL0     N 5081   6.144   9.595   5.168  0.6409 -0.2056  0.2203
  779MOL0     C 5082   6.051   9.794   6.426 -0.7540 -0.1477  0.5350
  779MOL0     C 5083   6.089   9.880   6.534  0.3367 -0.2318 -0.5485
  779MOL0     C 5084   6.066  10.147   6.887  1.2430 -0.4932  0.1511
  779MOL0     C 5085   6.184  10.223   6.881  0.2105 -0.3136 -0.0710
  779MOL0     C 5086   6.236  10.281   6.997  0.2270  0.2573  0.1035
  779MOL0     C 5087   6.178  10.273   7.121  0.1509 -0.4023 -0.0526
  779MOL0     O 5088   6.233  10.350   7.223  0.1430 -0.5022 -0.2290
  779MOL0     C 5089   6.172  10.347   7.354 -0.2590  1.0107  0.5618
  779MOL0     C 5090   6.054  10.441   7.371  0.6589 -0.0819  0.2377
  779MOL0     C 5091   6.043  10.490   7.526  0.5548  0.3847  0.1715
  779MOL0     C 5092   5.908  10.532   7.577 -0.0736 -0.6586  0.5463
  779MOL0     C 5093   5.893  10.674   7.591  0.7953 -0.6879 -0.4985
  779MOL0     C 5094   5.899  10.799   7.596 -0.2125  0.7611 -0.0697
  779MOL0     C 5095   6.067  10.193   7.131 -0.2456  0.2481 -0.3373
  779MOL0     C 5096   6.003  10.129   7.024  0.1702  0.1700  0.5534
  779MOL0     C 5097   5.883  10.041   7.054 -0.7870 -0.2924 -0.0990
  779MOL0     H 5098   6.027  10.188   6.430 -1.4247 -0.8813 -0.0334
  779MOL0     H 5099   5.936  10.060   6.233  1.2513 -0.8989 -1.9025
  779MOL0     H 5100   6.085   9.873   6.091 -0.2320 -0.0277 -2.2261
  779MOL0     H 5101   6.027   9.723   6.029  1.0558 -0.2679  0.3268
  779MOL0     H 5102   5.931  10.003   6.005  1.6808  0.2486 -1.9754
  779MOL0     H 5103   5.802   9.897   6.076  0.0772  1.2030  0.2580
  779MOL0     H 5104   5.778   9.874   5.853 -0.5975 -0.0318  1.8911
  779MOL0     H 5105   5.852   9.719   5.892  1.3357 -1.5116  3.4577
  779MOL0     H 5106   5.985   9.975   5.795 -2.8146 -0.3750 -1.5279
  779MOL0     H 5107   6.069   9.822   5.814  1.4440 -0.4505 -1.2764
  779MOL0     H 5108   5.942   9.717   5.635 -2.3339  0.3959  0.5933
  779MOL0     H 5109   5.842   9.843   5.602 -0.3338  0.9887  0.0291
  779MOL0     H 5110   6.038   9.984   5.530  0.5147 -0.0394 -2.6774
  779MOL0     H 5111   6.148   9.861   5.599 -0.3044 -1.6306  0.7099
  779MOL0     H 5112   6.141   9.844   5.361  1.2793  1.0218  2.6113
  779MOL0     H 5113   5.964   9.851   5.361  0.1549  2.3438  2.0319
  779MOL0     H 5114   6.065   9.611   5.501  0.5400  0.0058 -1.1812
  779MOL0     H 5115   5.963   9.615   5.353 -0.6112  3.8880 -4.3902
  779MOL0     H 5116   6.335   9.557   5.429  0.1603  0.6081  0.2219
  779MOL0     H 5117   6.499   9.429   5.093 -1.3333 -1.0173 -0.4874
  779MOL0     H 5118   6.553   9.492   5.254 -0.5439 -0.0414  1.1480
  779MOL0     H 5119   6.554   9.248   5.285  0.8978  2.5489  0.6293
  779MOL0     H 5120   6.404   9.303   5.349 -0.3827 -3.0346  0.6412
  779MOL0     H 5121   6.456   9.196   5.072  1.9269  2.1820  1.7654
  779MOL0     H 5122   6.294   9.252   5.137 -1.5116 -0.4830  1.5693
  779MOL0     H 5123   6.293   9.065   5.295  3.5649 -0.4128  2.5810
  779MOL0     H 5124   6.441   9.004   5.235 -0.0154  0.3457  0.4391
  779MOL0     H 5125   6.448   8.795   5.010  1.0527 -1.4858  0.7957
  779MOL0     H 5126   6.383   8.551   5.044  0.0984  0.3830  0.2398
  779MOL0     H 5127   6.114   8.167   5.110 -0.1208 -0.7540  1.0494
  779MOL0     H 5128   5.970   7.967   5.089  0.1505  0.9587  2.2602
  779MOL0     H 5129   5.764   7.865   5.178  1.9675  1.4437 -1.4711
  779MOL0     H 5130   5.605   7.939   5.162 -2.2737 -0.9554 -2.8885
  779MOL0     H 5131   5.585   7.717   5.161  1.9023  4.2112  2.5301
  779MOL0     H 5132   5.538   7.775   5.001 -0.8052  0.5793 -0.0360
  779MOL0     H 5133   5.763   7.703   4.904  0.8660 -3.2320 -1.2122
  779MOL0     H 5134   5.824   7.651   5.055 -0.4521 -2.3278 -1.4891
  779MOL0     H 5135   5.588   7.521   4.916  1.4973  2.3608 -2.0249
  779MOL0     H 5136   5.642   7.489   5.084 -2.0077  1.2649 -0.0598
  779MOL0     H 5137   5.866   7.437   4.998  1.0798  4.9109 -2.3064
  779MOL0     H 5138   5.806   7.468   4.834 -0.7368  1.6291  0.9881
  779MOL0     H 5139   5.721   7.237   5.000  2.8928  0.8442  1.8086
  779MOL0     H 5140   5.658   7.295   4.836  2.2786 -0.1307 -3.0885
  779MOL0     H 5141   5.886   7.123   4.894 -0.3316 -1.6877 -2.0864
  779MOL0     H 5142   5.941   7.250   4.792  2.4695 -3.3977 -0.7215
  779MOL0     H 5143   5.856   7.070   4.666  0.0231  0.6494 -0.8548
  779MOL0     H 5144   5.699   7.080   4.744 -0.0546  1.0920  0.1052
  779MOL0     H 5145   5.625   8.203   5.036 -0.0084  0.9478  0.8214
  779MOL0     H 5146   5.764   8.414   5.080 -0.0788  0.3627  0.1778
  779MOL0     H 5147   6.008   8.671   5.200  0.6725 -0.5440 -0.5108
  779MOL0     H 5148   6.083   8.899   5.200  1.0388 -1.2678  1.9920
  779MOL0     H 5149   6.057   9.686   6.439  0.0996 -0.4034 -1.5714
  779MOL0     H 5150   6.123   9.828   6.623  1.8707 -1.1129 -1.6001
  779MOL0     H 5151   6.235  10.243   6.787  0.7676 -0.0119  0.2838
  779MOL0     H 5152   6.326  10.340   6.987 -0.3106  1.1527  0.4604
  779MOL0     H 5153   6.247  10.377   7.427  0.5894 -2.5853  1.3655
  779MOL0     H 5154   6.148  10.243   7.379 -1.7828  0.5533 -2.3384
  779MOL0     H 5155   5.964  10.390   7.335  2.5709 -3.0198 -0.6795
  779MOL0     H 5156   6.072  10.535   7.318  1.0706  0.4981  1.3779
  779MOL0     H 5157   6.114  10.572   7.539  1.6772 -0.1405 -2.2186
  779MOL0     H 5158   6.083  10.420   7.600  1.3266  1.5521  0.9093
  779MOL0     H 5159   5.831  10.491   7.510 -0.1436  0.9380 -0.4224
  779MOL0     H 5160   5.886  10.482   7.671 -2.6985 -3.0799 -1.1821
  779MOL0     H 5161   5.891  10.906   7.589  1.1446  0.9897  1.4007
  779MOL0     H 5162   6.023  10.178   7.230 -5.1014  0.5640 -2.1782
  779MOL0     H 5163   5.887  10.039   7.163  2.1440  3.4705  0.0680
  779MOL0     H 5164   5.792  10.085   7.011  0.6694  3.2071  0.0994
  779MOL0     H 5165   5.899   9.939   7.018 -1.1427 -0.0107 -1.1103
  780MOL0     O 5166   4.309   2.439  10.668  0.1952  0.4606  0.3888
  780MOL0     C 5167   4.285   2.356  10.759  0.6149  0.3121 -0.6966
  780MOL0     O 5168   4.322   2.376  10.890  0.0450  0.7357 -0.1354
  780MOL0     C 5169   4.446   2.429  10.910  0.5401 -0.1904 -0.3365
  780MOL0     C 5170   4.467   2.517  11.020 -0.7659  1.3509  0.5634
  780MOL0     C 5171   4.595   2.569  11.043  0.8210 -0.0729 -0.1440
  780MOL0     C 5172   4.701   2.553  10.953  0.7506  0.5526 -0.3588
  780MOL0     O 5173   4.815   2.626  10.981  0.4594 -0.5315 -1.1003
  780MOL0     C 5174   4.939   2.582  10.941 -0.6526  0.1676  0.2762
  780MOL0     C 5175   5.052   2.663  11.002  0.1221  0.7659  0.2747
  780MOL0     C 5176   5.080   2.607  11.147  0.1618 -0.2428 -0.3672
  780MOL0     C 5177   5.193   2.679  11.223 -0.0513 -0.6591 -0.0135
  780MOL0     C 5178   5.239   2.591  11.331 -0.1341 -0.0469 -0.7519
  780MOL0     C 5179   5.311   2.662  11.447 -0.3050  0.1412  0.3752
  780MOL0     C 5180   5.421   2.758  11.414 -0.1367 -0.9886 -0.1985
  780MOL0     C 5181   5.479   2.826  11.534  0.0144  0.5279  0.4528
  780MOL0     N 5182   5.374   2.913  11.596 -0.0291  0.9851 -0.3254
  780MOL0     C 5183   5.310   3.022  11.536 -0.5047  1.2223 -0.0093
  780MOL0     C 5184   5.279   3.098  11.645 -0.9499 -0.0588 -0.5088
  780MOL0     C 5185   5.223   3.243  11.621  0.6008 -0.1443  0.2167
  780MOL0     C 5186   5.089   3.228  11.537 -0.4074  0.3831 -0.3153
  780MOL0     C 5187   5.048   3.368  11.488  0.3829  0.7748  0.4258
  780MOL0     C 5188   4.923   3.364  11.403 -0.4625  0.7891 -0.1618
  780MOL0     O 5189   4.811   3.327  11.478 -1.1908  0.3464  0.3995
  780MOL0     C 5190   4.699   3.280  11.412 -0.3379 -0.5089 -1.0304
  780MOL0     C 5191   4.617   3.196  11.486  0.3586 -0.7756  0.8079
  780MOL0     C 5192   4.485   3.160  11.440 -0.9830 -0.1594  0.1585
  780MOL0     C 5193   4.443   3.216  11.316  0.7921  0.5506  0.8558
  780MOL0     C 5194   4.309   3.190  11.252 -0.0081 -1.1977 -0.6310
  780MOL0     O 5195   4.271   3.262  11.137 -0.2936  1.1030  0.3767
  780MOL0     C 5196   4.165   3.220  11.067  0.5972  0.3269 -0.2605
  780MOL0     C 5197   4.170   3.282  10.942 -0.4849  0.0465 -1.5557
  780MOL0     C 5198   4.075   3.269  10.847  0.0845  0.6189 -0.1385
  780MOL0     C 5199   3.966   3.176  10.863 -0.1837  0.9011  0.3712
  780MOL0     O 5200   3.872   3.168  10.766 -0.7316  0.4116 -0.4164
  780MOL0     C 5201   3.776   3.060  10.763  1.0178  0.0476 -0.0643
  780MOL0     C 5202   3.636   3.105  10.785  0.7577  0.3981 -0.2661
  780MOL0     C 5203   3.608   3.155  10.925  0.1410 -0.5427  0.9723
  780MOL0     C 5204   3.465   3.194  10.950 -0.4879 -0.0655  0.3781
  780MOL0     C 5205   3.422   3.148  11.089  0.3992 -0.7595  0.1111
  780MOL0     C 5206   3.275   3.192  11.124  0.4886  0.5737 -0.5604
  780MOL0     C 5207   3.246   3.151  11.267  2.2148  0.4436 -1.1294
  780MOL0     C 5208   3.101   3.095  11.290  0.1061  0.1821 -0.1709
  780MOL0    Cl 5209   3.069   2.958  11.178  0.5342  0.5487 -0.0070
  780MOL0     C 5210   3.962   3.116  10.997  0.3810 -0.0998  0.3635
  780MOL0     C 5211   4.055   3.144  11.100 -0.0957 -1.0741  0.7429
  780MOL0     O 5212   4.248   3.097  11.303  0.6534  0.4731  0.2313
  780MOL0     C 5213   4.530   3.303  11.248  1.4523 -0.3171 -0.1126
  780MOL0     C 5214   4.655   3.334  11.287 -0.5566 -0.1324  0.7873
  780MOL0     N 5215   5.324   3.040  11.763 -0.4974  0.0423 -0.1604
  780MOL0     N 5216   5.369   2.921  11.733  0.7621  0.3889  0.5989
  780MOL0     C 5217   4.669   2.487  10.837  0.1470  0.3702  0.3054
  780MOL0     C 5218   4.550   2.420  10.815  0.1777 -0.3575  0.0311
  780MOL0     C 5219   4.182   2.253  10.717 -0.3041  0.6788 -1.3598
  780MOL0     C 5220   4.168   2.235  10.577  0.2768  0.1637 -0.0853
  780MOL0     C 5221   4.085   2.136  10.524 -0.2121 -0.0665  0.5603
  780MOL0     C 5222   4.000   2.065  10.614 -0.4937  0.6643  0.2744
  780MOL0     O 5223   3.896   1.990  10.551 -0.0250 -0.6146 -0.2993
  780MOL0     C 5224   3.769   1.995  10.607 -0.2335  0.3384  0.7430
  780MOL0     C 5225   3.663   2.018  10.496 -0.3224 -0.0505 -0.0565
  780MOL0     C 5226   3.660   1.905  10.401 -1.4817  0.0126 -1.4918
  780MOL0     C 5227   3.565   1.792  10.454 -0.0712  0.0845 -0.0155
  780MOL0     C 5228   3.529   1.692  10.350  0.5416  0.2347  0.3943
  780MOL0     C 5229   3.488   1.613  10.259 -0.1643  0.2925  0.3723
  780MOL0     C 5230   4.006   2.088  10.754  0.5583  0.3712 -0.3996
  780MOL0     C 5231   4.101   2.180  10.805 -0.2003 -0.5161  0.4170
  780MOL0     C 5232   4.092   2.212  10.947  0.3338 -0.3440 -0.3691
  780MOL0     H 5233   4.379   2.541  11.079 -2.4205 -0.9259 -0.8441
  780MOL0     H 5234   4.610   2.613  11.141  2.0641  0.5071 -0.5748
  780MOL0     H 5235   4.957   2.478  10.971  0.6633 -0.3199 -1.9898
  780MOL0     H 5236   4.942   2.579  10.832 -0.3325  0.5113  0.2713
  780MOL0     H 5237   5.021   2.766  11.020  3.9658  2.4192 -1.3808
  780MOL0     H 5238   5.137   2.664  10.933 -0.5413 -2.1638 -0.7215
  780MOL0     H 5239   5.100   2.500  11.139  0.8536 -0.3861  2.3802
  780MOL0     H 5240   4.986   2.631  11.197  1.1686  1.7267  0.6697
  780MOL0     H 5241   5.276   2.683  11.152 -1.3089 -1.3658 -1.5826
  780MOL0     H 5242   5.159   2.781  11.245  0.0477 -0.7915  0.7741
  780MOL0     H 5243   5.149   2.554  11.381  1.8570 -0.9701  2.4643
  780MOL0     H 5244   5.297   2.504  11.297 -1.5857 -0.9976 -0.8896
  780MOL0     H 5245   5.229   2.716  11.495  0.5828  1.3311  0.5830
  780MOL0     H 5246   5.357   2.583  11.507 -0.6555 -3.6278 -3.7563
  780MOL0     H 5247   5.376   2.842  11.360 -0.9920  1.1675  3.4771
  780MOL0     H 5248   5.505   2.722  11.354  2.1888  2.1294  0.9453
  780MOL0     H 5249   5.515   2.762  11.616 -2.1277  1.6760  2.4385
  780MOL0     H 5250   5.566   2.884  11.502  0.5502 -0.9810 -0.9729
  780MOL0     H 5251   5.305   3.045  11.430  1.9649  1.1175 -0.1961
  780MOL0     H 5252   5.181   3.279  11.716 -2.6237  0.7241 -1.3856
  780MOL0     H 5253   5.296   3.311  11.577  0.9203 -0.6886 -0.0893
  780MOL0     H 5254   5.111   3.161  11.453  0.6339 -1.1312  1.0827
  780MOL0     H 5255   5.008   3.186  11.597  0.3486  1.8016  1.7958
  780MOL0     H 5256   5.122   3.408  11.419 -1.4716 -2.0070 -3.6008
  780MOL0     H 5257   5.038   3.441  11.569 -1.4243 -0.3420  1.3118
  780MOL0     H 5258   4.938   3.292  11.322 -1.4016 -0.7118  0.9558
  780MOL0     H 5259   4.911   3.464  11.359 -1.5518  1.0127  0.6126
  780MOL0     H 5260   4.661   3.157  11.577  1.5765 -0.4081  0.3940
  780MOL0     H 5261   4.429   3.085  11.493 -0.6163  0.2607  1.1734
  780MOL0     H 5262   4.256   3.347  10.931  0.9217 -1.2615  0.8259
  780MOL0     H 5263   4.082   3.309  10.746 -1.9590 -1.6090 -1.2445
  780MOL0     H 5264   3.777   3.028  10.659  1.0016  1.6441 -0.5858
  780MOL0     H 5265   3.809   2.980  10.830 -2.2025  0.5477  2.3503
  780MOL0     H 5266   3.609   3.185  10.715 -1.6898  0.4723  0.6662
  780MOL0     H 5267   3.576   3.017  10.762  1.7855 -0.9835  2.0162
  780MOL0     H 5268   3.637   3.074  10.993 -0.1416 -2.3612 -0.9811
  780MOL0     H 5269   3.669   3.243  10.948  0.1207 -0.0420 -0.7427
  780MOL0     H 5270   3.405   3.151  10.869  1.4159  0.0620 -1.1615
  780MOL0     H 5271   3.453   3.303  10.949  3.1624  0.4574  0.7921
  780MOL0     H 5272   3.489   3.180  11.170 -0.1618  1.7746 -0.3623
  780MOL0     H 5273   3.424   3.039  11.088  1.1681 -0.8249  2.2929
  780MOL0     H 5274   3.266   3.301  11.123  1.0244  0.6669  1.3659
  780MOL0     H 5275   3.210   3.141  11.052  1.4028 -0.0066 -0.9970
  780MOL0     H 5276   3.258   3.235  11.337  0.8439  2.4811 -3.1908
  780MOL0     H 5277   3.309   3.069  11.300  2.5221  1.2522  0.3856
  780MOL0     H 5278   3.096   3.059  11.393 -0.6195 -0.8180 -0.5294
  780MOL0     H 5279   3.037   3.182  11.274 -0.2299  0.0622  0.4873
  780MOL0     H 5280   3.873   3.054  11.012  0.8235 -1.0480 -0.7519
  780MOL0     H 5281   4.045   3.094  11.195  0.1054  3.7429  3.6253
  780MOL0     H 5282   4.485   3.356  11.164  2.8047  1.1298  0.0376
  780MOL0     H 5283   4.719   3.402  11.231  0.4984 -1.9757 -0.3307
  780MOL0     H 5284   4.742   2.474  10.757 -1.2397 -1.4033 -0.7755
  780MOL0     H 5285   4.539   2.364  10.723 -1.9919 -0.0693  0.0496
  780MOL0     H 5286   4.232   2.288  10.507 -1.3766  1.0783 -0.9568
  780MOL0     H 5287   4.060   2.123  10.419 -1.2249 -1.6657  0.9655
  780MOL0     H 5288   3.767   2.076  10.680 -1.2709  0.3479  0.7132
  780MOL0     H 5289   3.749   1.901  10.661 -2.0048  0.2996  0.0925
  780MOL0     H 5290   3.698   2.098  10.430 -0.3516 -2.1214 -2.7572
  780MOL0     H 5291   3.563   2.041  10.531  0.4940  5.8855 -0.5786
  780MOL0     H 5292   3.765   1.875  10.392 -0.6774  1.5930  1.3430
  780MOL0     H 5293   3.637   1.935  10.298  0.1970 -0.4351 -2.0355
  780MOL0     H 5294   3.608   1.743  10.542 -1.9967  0.9265  1.4792
  780MOL0     H 5295   3.471   1.834  10.491 -0.6688 -0.9617 -0.3114
  780MOL0     H 5296   3.447   1.544  10.189 -0.8381  0.4303  0.6235
  780MOL0     H 5297   3.950   2.040  10.834  0.5875 -0.9578 -1.1486
  780MOL0     H 5298   4.189   2.200  10.996  1.2988 -1.5794 -2.4598
  780MOL0     H 5299   4.053   2.309  10.977 -0.6526 -1.8672  4.1354
  780MOL0     H 5300   4.033   2.138  11.003  1.3211 -0.4343  0.5747
  781MOL0     O 5301   5.183   5.455   9.101  0.7434  0.0207 -0.1810
  781MOL0     C 5302   5.185   5.556   9.168 -0.8605  0.5811  0.1603
  781MOL0     O 5303   5.303   5.622   9.201  0.2744 -0.2084 -0.1996
  781MOL0     C 5304   5.419   5.602   9.125 -0.5083  0.3405  0.3142
  781MOL0     C 5305   5.529   5.642   9.193 -0.4118  0.1451 -1.1937
  781MOL0     C 5306   5.656   5.636   9.135 -0.6487 -0.1072  0.1105
  781MOL0     C 5307   5.676   5.612   8.996 -0.5684  1.4011 -1.1821
  781MOL0     O 5308   5.792   5.616   8.934 -0.1454 -0.4524  0.2125
  781MOL0     C 5309   5.911   5.646   9.006  0.3808  0.4038 -0.0023
  781MOL0     C 5310   5.962   5.516   9.059 -0.3220  0.3102 -0.8050
  781MOL0     C 5311   6.080   5.543   9.154 -0.2854 -0.0203  0.9462
  781MOL0     C 5312   6.198   5.607   9.082  0.2652 -0.2373 -0.2234
  781MOL0     C 5313   6.325   5.616   9.165  0.2911  0.0293  0.0181
  781MOL0     C 5314   6.340   5.749   9.255 -0.0411  0.5503 -0.2611
  781MOL0     C 5315   6.480   5.755   9.316 -1.3046  0.3265  0.8672
  781MOL0     C 5316   6.498   5.882   9.395 -0.3366 -0.7868 -0.7575
  781MOL0     N 5317   6.630   5.909   9.454  0.3927  0.2008  0.3808
  781MOL0     C 5318   6.713   5.809   9.483 -0.4839  0.0189 -1.6147
  781MOL0     C 5319   6.820   5.870   9.540 -0.3588 -0.5792  0.3324
  781MOL0     C 5320   6.936   5.804   9.609 -0.7795 -0.5097 -0.5090
  781MOL0     C 5321   6.923   5.782   9.761 -0.0030 -0.9461  0.1734
  781MOL0     C 5322   6.882   5.636   9.796 -1.0628  0.3136 -0.5317
  781MOL0     C 5323   6.952   5.583   9.922  0.3402  0.9163 -0.4494
  781MOL0     O 5324   6.893   5.446   9.935  0.5676 -0.7749  0.2720
  781MOL0     C 5325   6.975   5.343   9.972 -0.6098  0.8052 -0.8350
  781MOL0     C 5326   7.113   5.368  10.015 -0.4104 -0.4615 -0.6590
  781MOL0     C 5327   7.186   5.268  10.072 -0.3172 -0.5731 -0.8358
  781MOL0     C 5328   7.133   5.147  10.089  0.5491  0.1871 -0.2240
  781MOL0     C 5329   7.212   5.035  10.145  0.3273  0.0504  0.3812
  781MOL0     O 5330   7.137   4.930  10.184 -0.0254 -0.6935  0.4884
  781MOL0     C 5331   7.184   4.799  10.173 -1.0639  0.2119  1.1104
  781MOL0     C 5332   7.146   4.707  10.268 -0.0997  1.0426  0.4293
  781MOL0     C 5333   7.167   4.567  10.246 -0.1627 -0.9017  0.7190
  781MOL0     C 5334   7.235   4.528  10.122 -0.0053 -0.1850  0.9738
  781MOL0     O 5335   7.273   4.402  10.092 -0.4199  0.3504 -0.3004
  781MOL0     C 5336   7.311   4.303  10.193 -0.2749 -0.2964 -0.2406
  781MOL0     C 5337   7.355   4.172  10.127 -0.7311 -1.0293 -0.7840
  781MOL0     C 5338   7.461   4.182  10.026  0.2678 -0.7116 -0.7350
  781MOL0     C 5339   7.487   4.055   9.944  0.6287 -0.2384 -0.5458
  781MOL0     C 5340   7.612   4.074   9.858 -0.8901  0.1406 -0.8892
  781MOL0     C 5341   7.579   4.175   9.745  0.8718 -0.1602  0.4414
  781MOL0     C 5342   7.681   4.171   9.635  0.9241  0.4624  0.3332
  781MOL0     C 5343   7.629   4.273   9.542  0.2767 -1.1388 -0.3564
  781MOL0    Cl 5344   7.739   4.288   9.403  0.1474  0.0517  0.5469
  781MOL0     C 5345   7.281   4.625  10.033  0.8528  0.0994  0.1937
  781MOL0     C 5346   7.256   4.763  10.056 -0.4873  0.3899  0.5913
  781MOL0     O 5347   7.327   5.030  10.124  0.1039 -0.0439 -0.6157
  781MOL0     C 5348   7.005   5.120  10.050  0.1795  0.0626  0.3767
  781MOL0     C 5349   6.925   5.218   9.991 -0.1452 -1.1245  0.0305
  781MOL0     N 5350   6.807   6.008   9.529  0.0771 -0.9639 -0.3055
  781MOL0     N 5351   6.688   6.030   9.468  0.2636  0.1075 -0.1178
  781MOL0     C 5352   5.557   5.572   8.924 -0.0093  0.3860 -0.2651
  781MOL0     C 5353   5.428   5.570   8.986  0.2734 -0.3499 -0.5307
  781MOL0     C 5354   5.065   5.605   9.219  0.4968  0.8067 -0.0856
  781MOL0     C 5355   4.943   5.555   9.156 -0.6681 -0.6809  0.4490
  781MOL0     C 5356   4.826   5.574   9.209  0.4688  0.0617  0.3572
  781MOL0     C 5357   4.804   5.656   9.323  0.8513  0.9763 -0.7059
  781MOL0     O 5358   4.679   5.672   9.362 -0.0380 -0.8185 -0.3533
  781MOL0     C 5359   4.639   5.598   9.472  0.0047  0.5003  0.3995
  781MOL0     C 5360   4.506   5.648   9.531  0.3469  0.4317  0.2857
  781MOL0     C 5361   4.480   5.545   9.646  0.1519 -0.5237 -0.5794
  781MOL0     C 5362   4.333   5.552   9.717 -0.1809  1.3071 -0.0269
  781MOL0     C 5363   4.349   5.481   9.850 -0.0029  0.2780 -0.0204
  781MOL0     C 5364   4.325   5.427   9.953  0.3699 -0.5769 -0.2749
  781MOL0     C 5365   4.920   5.705   9.383  0.5597 -0.2136  0.5812
  781MOL0     C 5366   5.049   5.680   9.335 -0.3564 -0.4316  0.0315
  781MOL0     C 5367   5.160   5.724   9.428 -0.1584 -0.2358  0.1277
  781MOL0     H 5368   5.526   5.672   9.297 -0.2934 -0.0299 -1.1401
  781MOL0     H 5369   5.738   5.668   9.198  2.1831 -1.9365 -2.3269
  781MOL0     H 5370   5.974   5.678   8.923  1.1248  0.0655  0.4272
  781MOL0     H 5371   5.901   5.716   9.089 -3.5652 -1.0470  1.0074
  781MOL0     H 5372   5.999   5.444   8.985 -1.6868 -0.2381 -0.9733
  781MOL0     H 5373   5.874   5.461   9.094 -1.4355  1.5697 -1.5207
  781MOL0     H 5374   6.105   5.448   9.201 -2.8298 -0.7395  0.9847
  781MOL0     H 5375   6.052   5.602   9.241  0.0311 -0.3028  1.2440
  781MOL0     H 5376   6.213   5.550   8.990  1.5230 -0.2077 -0.0539
  781MOL0     H 5377   6.165   5.703   9.042  0.3322  0.1283  0.5880
  781MOL0     H 5378   6.316   5.537   9.240  0.3096  1.6111  1.7605
  781MOL0     H 5379   6.416   5.601   9.106 -0.1516  4.5976 -2.2665
  781MOL0     H 5380   6.340   5.834   9.186 -0.4156  0.6644 -0.1196
  781MOL0     H 5381   6.266   5.754   9.335 -1.4882  1.8815 -1.6112
  781MOL0     H 5382   6.550   5.757   9.232 -0.1246  3.6081  1.7753
  781MOL0     H 5383   6.518   5.668   9.370  3.6687  1.3087 -0.5208
  781MOL0     H 5384   6.487   5.976   9.340  2.1415  1.5702  2.3739
  781MOL0     H 5385   6.420   5.888   9.471 -1.2398  0.5601 -1.7475
  781MOL0     H 5386   6.693   5.703   9.477  0.1348 -0.4182  1.8468
  781MOL0     H 5387   6.971   5.712   9.560  0.3769  0.8463 -2.3471
  781MOL0     H 5388   7.022   5.871   9.605 -2.3546  1.8543  1.7209
  781MOL0     H 5389   7.023   5.815   9.792  0.4051 -0.8233 -1.1867
  781MOL0     H 5390   6.857   5.856   9.806 -2.6182  0.1221 -4.6405
  781MOL0     H 5391   6.904   5.566   9.715 -1.0259  1.0220 -1.1518
  781MOL0     H 5392   6.775   5.639   9.820 -1.0262 -1.2275 -0.0827
  781MOL0     H 5393   6.913   5.644  10.004 -2.5505 -0.4841 -0.6443
  781MOL0     H 5394   7.061   5.587   9.912  0.8161 -3.1016  1.0751
  781MOL0     H 5395   7.165   5.462  10.028  1.2988 -1.5723  0.9344
  781MOL0     H 5396   7.288   5.276  10.107 -1.2247 -0.4007  2.0004
  781MOL0     H 5397   7.093   4.738  10.357  1.4766  2.2154  1.0000
  781MOL0     H 5398   7.140   4.490  10.317  1.1753 -0.9341  1.2241
  781MOL0     H 5399   7.380   4.349  10.265 -2.0490  0.4510  1.0927
  781MOL0     H 5400   7.223   4.290  10.257  0.1881  0.0962  0.4954
  781MOL0     H 5401   7.376   4.101  10.208  1.3395  3.7466  3.4327
  781MOL0     H 5402   7.263   4.147  10.075 -2.5467  2.6255  0.3070
  781MOL0     H 5403   7.433   4.263   9.957  1.8351  0.4136 -0.1268
  781MOL0     H 5404   7.550   4.213  10.082 -0.1492 -4.0284  2.0448
  781MOL0     H 5405   7.396   4.039   9.886  0.9754  2.6471 -2.0640
  781MOL0     H 5406   7.506   3.974  10.015  0.4706 -0.2714 -0.5418
  781MOL0     H 5407   7.633   3.986   9.797  2.8917  1.4679 -1.7551
  781MOL0     H 5408   7.701   4.109   9.911  0.6910  2.6908 -4.7872
  781MOL0     H 5409   7.478   4.173   9.702  1.6456 -0.6129 -1.4913
  781MOL0     H 5410   7.576   4.275   9.790 -0.2636  0.0054  0.0190
  781MOL0     H 5411   7.691   4.074   9.586 -0.1514 -0.3075  1.5853
  781MOL0     H 5412   7.780   4.191   9.677  1.0569 -0.7317  0.6200
  781MOL0     H 5413   7.530   4.243   9.505 -1.2000  0.3001  2.1223
  781MOL0     H 5414   7.621   4.368   9.597  0.6243 -1.5858  0.4821
  781MOL0     H 5415   7.327   4.595   9.940  1.7136  2.2000 -0.1235
  781MOL0     H 5416   7.300   4.829   9.982 -1.5810  0.0308 -0.4160
  781MOL0     H 5417   6.966   5.019  10.059 -0.1762  0.2186  0.6059
  781MOL0     H 5418   6.822   5.198   9.965 -0.2896  0.8486 -1.1555
  781MOL0     H 5419   5.568   5.550   8.819  5.1326 -3.8374  0.7052
  781MOL0     H 5420   5.340   5.552   8.925 -0.3089  2.4039 -0.6289
  781MOL0     H 5421   4.951   5.506   9.059  0.3537 -0.7511  0.5569
  781MOL0     H 5422   4.737   5.522   9.175 -0.1003  0.1445  1.6689
  781MOL0     H 5423   4.715   5.603   9.551  0.3369 -0.2004  0.1392
  781MOL0     H 5424   4.631   5.493   9.440 -2.4997  0.3734  1.2896
  781MOL0     H 5425   4.426   5.640   9.456 -1.6311 -1.8778  2.4776
  781MOL0     H 5426   4.525   5.753   9.555 -0.3143  1.6909 -3.8607
  781MOL0     H 5427   4.554   5.552   9.726  0.1658  0.3117 -0.6540
  781MOL0     H 5428   4.483   5.449   9.593 -2.4549 -0.1901 -1.5115
  781MOL0     H 5429   4.299   5.656   9.728  1.3066  1.6607  1.7932
  781MOL0     H 5430   4.257   5.493   9.664 -0.7407  0.4988  1.5954
  781MOL0     H 5431   4.316   5.409  10.058  3.4408  0.0307  0.1863
  781MOL0     H 5432   4.911   5.758   9.477  0.0557  0.8137 -0.0344
  781MOL0     H 5433   5.234   5.644   9.428  0.0354 -0.0913  1.8011
  781MOL0     H 5434   5.209   5.816   9.395 -0.6492  0.1815  0.5370
  781MOL0     H 5435   5.115   5.734   9.527 -0.5048  1.3326 -0.1528
  782MOL0     O 5436   7.234   4.417   8.822 -0.4544 -0.2214  0.2892
  782MOL0     C 5437   7.232   4.394   8.939  0.0840  0.4058  0.0962
  782MOL0     O 5438   7.309   4.451   9.036  0.3034  0.0768  0.3171
  782MOL0     C 5439   7.405   4.534   8.976  0.3055 -0.0138  0.2976
  782MOL0     C 5440   7.379   4.673   8.947 -0.3439 -0.3980 -0.4061
  782MOL0     C 5441   7.484   4.753   8.898 -0.2932 -0.1833  0.1213
  782MOL0     C 5442   7.601   4.695   8.854 -0.7662 -0.1445  0.8830
  782MOL0     O 5443   7.696   4.749   8.778  0.3958 -0.5872 -0.3865
  782MOL0     C 5444   7.694   4.886   8.720 -0.2162 -0.1862 -1.0939
  782MOL0     C 5445   7.774   4.882   8.589  0.0727 -0.1914  0.5908
  782MOL0     C 5446   7.916   4.835   8.613 -0.1312 -0.6849 -0.3920
  782MOL0     C 5447   8.019   4.898   8.513  0.3771  0.1796 -0.9592
  782MOL0     C 5448   8.153   4.823   8.530 -0.4403  1.0548 -0.3376
  782MOL0     C 5449   8.160   4.676   8.495 -0.0876 -0.1732 -0.5393
  782MOL0     C 5450   8.101   4.643   8.358 -0.0986  0.9934 -0.3499
  782MOL0     C 5451   8.180   4.713   8.238  0.4929 -0.4266 -0.1414
  782MOL0     N 5452   8.316   4.665   8.240  0.3803  0.9494  0.6843
  782MOL0     C 5453   8.336   4.535   8.196  0.0159 -0.7029  0.7814
  782MOL0     C 5454   8.467   4.534   8.148  1.2703  0.3544 -0.1231
  782MOL0     C 5455   8.532   4.420   8.076  0.8014  1.2758 -0.1812
  782MOL0     C 5456   8.659   4.436   8.003  0.8663 -0.4234  0.1532
  782MOL0     C 5457   8.788   4.372   8.067  0.1991  0.4627  0.5120
  782MOL0     C 5458   8.909   4.409   7.990  0.2761 -0.4254 -0.3377
  782MOL0     O 5459   9.020   4.420   8.082  0.2112 -0.1884  0.1723
  782MOL0     C 5460   9.035   4.542   8.147 -0.7005 -0.1103  0.5287
  782MOL0     C 5461   9.153   4.553   8.220  0.7769 -0.4990 -0.1796
  782MOL0     C 5462   9.184   4.674   8.277  0.3618  0.1678  0.8876
  782MOL0     C 5463   9.084   4.772   8.293 -1.1162 -0.1904 -0.6288
  782MOL0     C 5464   9.115   4.885   8.376  0.6571  0.1566 -0.3884
  782MOL0     O 5465   9.020   4.991   8.371 -0.0699 -0.1940 -0.5499
  782MOL0     C 5466   9.034   5.093   8.462  0.0404  0.2376 -0.4941
  782MOL0     C 5467   9.143   5.187   8.451  0.1931 -0.5596 -0.1778
  782MOL0     C 5468   9.151   5.288   8.548 -0.8756  1.1987 -0.1324
  782MOL0     C 5469   9.062   5.291   8.658  0.1659  0.3568 -0.1298
  782MOL0     O 5470   9.060   5.397   8.749  0.0490 -0.3061  0.1348
  782MOL0     C 5471   9.159   5.496   8.752 -0.0586  0.4887  0.3470
  782MOL0     C 5472   9.116   5.615   8.837  1.2434 -0.0290 -0.3387
  782MOL0     C 5473   9.015   5.684   8.750 -0.5070 -1.2269  0.3721
  782MOL0     C 5474   8.936   5.799   8.830 -0.7852 -0.1345 -0.3873
  782MOL0     C 5475   8.861   5.886   8.732 -0.6580  0.6231 -0.2864
  782MOL0     C 5476   8.749   5.973   8.805 -0.9920 -0.0550  0.1503
  782MOL0     C 5477   8.626   5.898   8.837 -0.1822 -0.2735  0.0028
  782MOL0     C 5478   8.560   5.933   8.969  0.8003 -1.0203  0.6391
  782MOL0    Cl 5479   8.657   5.889   9.106  0.5356 -0.2676  0.1009
  782MOL0     C 5480   8.957   5.197   8.668 -0.0952  0.4938  0.4677
  782MOL0     C 5481   8.937   5.102   8.569  0.6447  0.1676 -0.2514
  782MOL0     O 5482   9.219   4.893   8.436  0.5483  0.3820 -0.3187
  782MOL0     C 5483   8.957   4.751   8.249 -0.1895 -0.0879  0.8813
  782MOL0     C 5484   8.933   4.643   8.158 -0.4214 -0.0013 -0.1853
  782MOL0     N 5485   8.522   4.664   8.168 -0.2450 -0.9222  0.7039
  782MOL0     N 5486   8.428   4.733   8.217 -0.1513 -0.2282  0.4817
  782MOL0     C 5487   7.624   4.562   8.881  0.1782 -0.0846 -0.8782
  782MOL0     C 5488   7.536   4.477   8.946 -0.8968 -0.0065 -0.4431
  782MOL0     C 5489   7.151   4.267   8.971  0.7804  0.2405  0.9019
  782MOL0     C 5490   7.193   4.197   9.090  0.7517 -0.1646  0.4173
  782MOL0     C 5491   7.121   4.084   9.130  0.8376 -0.4760  0.4023
  782MOL0     C 5492   7.005   4.037   9.068 -0.4614 -0.1308  0.1084
  782MOL0     O 5493   6.935   3.940   9.131 -0.9267  0.6158 -0.0429
  782MOL0     C 5494   6.820   3.881   9.064 -0.7198  0.2295  0.1720
  782MOL0     C 5495   6.859   3.779   8.956 -0.0871  0.5522 -0.4832
  782MOL0     C 5496   6.855   3.631   9.012  0.0899 -0.7062  0.0958
  782MOL0     C 5497   6.945   3.536   8.942 -0.5984  0.9413 -0.8259
  782MOL0     C 5498   7.088   3.565   8.960 -0.8153  0.4084 -0.0106
  782MOL0     C 5499   7.204   3.593   8.967 -0.5193  0.8178 -0.5455
  782MOL0     C 5500   6.962   4.117   8.955  0.8783  0.3423 -0.1272
  782MOL0     C 5501   7.031   4.227   8.912  0.4130  0.8182  0.8980
  782MOL0     C 5502   6.974   4.300   8.799  1.0691 -0.3164  0.7173
  782MOL0     H 5503   7.282   4.713   8.976 -0.4349  1.1498 -2.6520
  782MOL0     H 5504   7.463   4.859   8.885 -1.1364 -0.3044  0.4353
  782MOL0     H 5505   7.595   4.914   8.682 -0.5547 -0.0080 -0.1050
  782MOL0     H 5506   7.731   4.958   8.793 -1.0291  1.1786 -1.9828
  782MOL0     H 5507   7.775   4.985   8.551  2.3497  0.4302  2.1346
  782MOL0     H 5508   7.721   4.813   8.523  2.1069  0.2771 -1.7249
  782MOL0     H 5509   7.911   4.726   8.606 -2.6636 -0.7030  0.5683
  782MOL0     H 5510   7.944   4.858   8.717 -1.2549  1.1616 -0.4497
  782MOL0     H 5511   7.977   4.894   8.412 -0.1505  3.5565 -0.9881
  782MOL0     H 5512   8.030   5.002   8.547  0.3988 -0.0892 -0.1042
  782MOL0     H 5513   8.232   4.865   8.466  1.7962 -2.1611  0.0829
  782MOL0     H 5514   8.187   4.827   8.633  1.2621  0.4243 -0.8404
  782MOL0     H 5515   8.267   4.653   8.497 -0.5417 -3.1359 -2.7398
  782MOL0     H 5516   8.106   4.605   8.559 -1.3884 -0.0084 -1.4064
  782MOL0     H 5517   8.002   4.691   8.357 -2.2517 -3.0440 -0.9118
  782MOL0     H 5518   8.100   4.537   8.334  2.8187  0.9124 -0.3671
  782MOL0     H 5519   8.137   4.675   8.145  0.7865  1.7066 -1.2087
  782MOL0     H 5520   8.177   4.821   8.247  0.7464 -0.2824 -1.5964
  782MOL0     H 5521   8.260   4.458   8.193 -2.2599  1.4327  0.5470
  782MOL0     H 5522   8.542   4.343   8.152  1.4825 -0.0582 -1.5574
  782MOL0     H 5523   8.470   4.383   7.994 -0.5528 -1.0710  1.8066
  782MOL0     H 5524   8.647   4.387   7.906  2.3708 -2.3112  0.8484
  782MOL0     H 5525   8.676   4.540   7.975  1.3400 -0.7930 -0.9836
  782MOL0     H 5526   8.784   4.263   8.060  3.9205  0.2645 -0.6720
  782MOL0     H 5527   8.791   4.406   8.171  0.3194  4.4361 -0.6153
  782MOL0     H 5528   8.897   4.502   7.934  3.4211 -0.1062 -0.6530
  782MOL0     H 5529   8.931   4.338   7.910  0.8717  0.9217 -1.4065
  782MOL0     H 5530   9.219   4.467   8.221 -0.4345 -1.5910 -2.8615
  782MOL0     H 5531   9.279   4.688   8.327 -0.1976  1.3748  1.6427
  782MOL0     H 5532   9.217   5.164   8.376  2.0266  0.8020  1.1138
  782MOL0     H 5533   9.232   5.360   8.548  2.1271 -1.8858  1.0904
  782MOL0     H 5534   9.240   5.443   8.804 -0.3598 -0.7148 -0.3728
  782MOL0     H 5535   9.186   5.538   8.655  2.5263 -3.1197 -0.7290
  782MOL0     H 5536   9.074   5.600   8.937 -1.9036  1.3776 -1.3255
  782MOL0     H 5537   9.202   5.677   8.862  0.8269  0.8425 -1.0086
  782MOL0     H 5538   9.068   5.729   8.666 -1.6167  5.5186  2.6949
  782MOL0     H 5539   8.934   5.618   8.717 -0.1780  0.4099 -4.4633
  782MOL0     H 5540   9.011   5.867   8.871  0.1793  2.0565 -5.0876
  782MOL0     H 5541   8.864   5.760   8.902  0.1806 -1.1441  0.0618
  782MOL0     H 5542   8.805   5.821   8.664 -2.7144  0.4791  1.4263
  782MOL0     H 5543   8.933   5.941   8.672  1.8763  0.0371  2.0148
  782MOL0     H 5544   8.789   6.034   8.886 -0.4652 -0.9245  0.5672
  782MOL0     H 5545   8.727   6.046   8.726  0.5391 -0.5336 -0.7588
  782MOL0     H 5546   8.644   5.790   8.835 -0.5228 -0.3557  1.0480
  782MOL0     H 5547   8.547   5.923   8.766 -1.1026 -1.4679  0.5608
  782MOL0     H 5548   8.542   6.040   8.978  0.4210 -0.9021 -1.1191
  782MOL0     H 5549   8.457   5.894   8.970 -0.6239  2.4006  1.4481
  782MOL0     H 5550   8.893   5.193   8.756 -0.5344 -3.5975  0.1370
  782MOL0     H 5551   8.850   5.040   8.549 -2.1872  4.5228 -3.1120
  782MOL0     H 5552   8.873   4.818   8.266  0.5599  1.3434 -0.7291
  782MOL0     H 5553   8.835   4.643   8.111 -0.3395 -0.3251 -0.3569
  782MOL0     H 5554   7.707   4.525   8.822  0.4134  1.0354 -1.2747
  782MOL0     H 5555   7.562   4.374   8.969 -2.0503 -0.3771 -0.7430
  782MOL0     H 5556   7.260   4.237   9.165 -1.8765  2.0867  1.7498
  782MOL0     H 5557   7.158   4.037   9.221 -0.3420  0.5861  1.4470
  782MOL0     H 5558   6.758   3.966   9.036 -1.8121  0.2434  2.4138
  782MOL0     H 5559   6.762   3.835   9.145 -3.7501  2.0650 -0.7970
  782MOL0     H 5560   6.955   3.799   8.907  0.5154 -2.6754 -0.8936
  782MOL0     H 5561   6.779   3.786   8.882 -0.1253  0.5735 -0.4401
  782MOL0     H 5562   6.756   3.586   8.995  0.0196 -0.0086 -1.5018
  782MOL0     H 5563   6.876   3.639   9.119  1.0578 -2.9032  0.1140
  782MOL0     H 5564   6.931   3.442   8.996 -1.0028  2.0157  1.0006
  782MOL0     H 5565   6.908   3.527   8.839 -0.2741  2.1728 -1.0672
  782MOL0     H 5566   7.306   3.625   8.964 -0.5782  1.3668  1.4317
  782MOL0     H 5567   6.863   4.110   8.910  1.7893 -1.2079 -2.0376
  782MOL0     H 5568   7.003   4.402   8.827  0.1396  1.2496 -3.4099
  782MOL0     H 5569   7.019   4.272   8.704 -1.2192  1.0088 -0.8428
  782MOL0     H 5570   6.866   4.296   8.786  1.4660 -2.3637 -3.8245
  783MOL0     O 5571   9.312  11.398   2.615  0.6625 -0.2047 -0.3141
  783MOL0     C 5572   9.287  11.283   2.643 -0.1698  1.0281  0.6999
  783MOL0     O 5573   9.169  11.214   2.610  0.0165  0.4376 -0.8209
  783MOL0     C 5574   9.078  11.263   2.521 -0.6306  0.8402 -0.4870
  783MOL0     C 5575   9.055  11.400   2.499 -1.1115 -0.5400  0.0682
  783MOL0     C 5576   8.970  11.451   2.406 -0.3685 -0.4648 -0.0872
  783MOL0     C 5577   8.916  11.361   2.304 -0.3251 -0.0261 -0.0019
  783MOL0     O 5578   8.822  11.401   2.214 -0.7893  0.4296  0.1694
  783MOL0     C 5579   8.888  11.474   2.107 -0.2579  0.0765 -0.5723
  783MOL0     C 5580   8.791  11.543   2.021  0.5613  0.2107 -0.2321
  783MOL0     C 5581   8.835  11.562   1.882  0.4190  0.5943 -0.4994
  783MOL0     C 5582   8.727  11.623   1.793 -0.2903 -0.5531  0.5092
  783MOL0     C 5583   8.670  11.747   1.847 -0.5154  0.2047  1.1468
  783MOL0     C 5584   8.758  11.864   1.876 -0.6911 -0.1130  0.0610
  783MOL0     C 5585   8.696  11.995   1.919  0.1974  0.1822  1.4110
  783MOL0     C 5586   8.607  11.985   2.038 -0.6629  0.1752  0.8664
  783MOL0     N 5587   8.687  11.947   2.156 -0.0992  0.2696 -0.9393
  783MOL0     C 5588   8.651  11.844   2.238  0.2926 -0.1217 -0.5543
  783MOL0     C 5589   8.736  11.862   2.343  1.2302  0.8235 -0.7757
  783MOL0     C 5590   8.735  11.780   2.476  0.9421 -0.0458 -0.0330
  783MOL0     C 5591   8.612  11.828   2.551  0.2040 -0.9275 -0.6972
  783MOL0     C 5592   8.622  11.982   2.603 -0.0870  0.1842 -0.6700
  783MOL0     C 5593   8.747  12.000   2.694 -0.0626 -0.6753  0.4523
  783MOL0     O 5594   8.726  12.120   2.764  0.0412  0.1382 -0.1024
  783MOL0     C 5595   8.828  12.201   2.815 -0.3929  0.8941 -0.5715
  783MOL0     C 5596   8.795  12.327   2.878 -0.4875  0.1624  0.6191
  783MOL0     C 5597   8.896  12.406   2.933  0.7470 -0.1901 -0.4937
  783MOL0     C 5598   9.030  12.368   2.938 -0.3314  0.1554 -0.8849
  783MOL0     C 5599   9.129  12.458   3.006 -0.4207 -0.3719 -0.4021
  783MOL0     O 5600   9.090  12.584   3.018  0.5998  0.6058  0.5869
  783MOL0     C 5601   9.175  12.678   3.071  0.4073 -0.5332 -0.8897
  783MOL0     C 5602   9.119  12.797   3.122 -0.2453  0.7632  0.0186
  783MOL0     C 5603   9.203  12.884   3.183 -0.4850  0.5139 -0.3648
  783MOL0     C 5604   9.345  12.862   3.188  0.3344  0.0799 -0.4131
  783MOL0     O 5605   9.422  12.958   3.248  0.3057  0.0880 -0.3814
  783MOL0     C 5606   9.567  12.940   3.267  0.8295  0.0697  0.6835
  783MOL0     C 5607   9.622  13.065   3.327 -0.2120  0.4217  0.0620
  783MOL0     C 5608   9.572  13.100   3.464  0.2814  0.9703  0.0818
  783MOL0     C 5609   9.637  13.230   3.496 -1.1491  0.6521  0.0034
  783MOL0     C 5610   9.600  13.285   3.636  0.6183 -0.1997  0.4875
  783MOL0     C 5611   9.661  13.418   3.669  0.6716  0.3096 -0.3278
  783MOL0     C 5612   9.625  13.533   3.584 -0.6021 -0.0364 -0.3854
  783MOL0     C 5613   9.473  13.556   3.594 -0.3466 -0.5007 -0.1893
  783MOL0    Cl 5614   9.432  13.726   3.541 -0.2488 -0.0668  0.3964
  783MOL0     C 5615   9.407  12.762   3.113  0.0164 -0.4510  0.2346
  783MOL0     C 5616   9.316  12.665   3.060 -0.2070 -0.3555 -1.8129
  783MOL0     O 5617   9.235  12.406   3.054 -0.0196  0.4601  0.2200
  783MOL0     C 5618   9.060  12.241   2.883 -0.1249  0.1943  0.0417
  783MOL0     C 5619   8.969  12.158   2.832  0.2130  0.6922  0.6810
  783MOL0     N 5620   8.819  11.975   2.319  0.3827 -0.3156 -0.4923
  783MOL0     N 5621   8.782  12.023   2.208 -0.3217 -0.5373  0.2893
  783MOL0     C 5622   8.942  11.217   2.326  0.8029 -0.0920  0.2164
  783MOL0     C 5623   9.026  11.179   2.426  0.7450  0.1472 -0.4076
  783MOL0     C 5624   9.391  11.210   2.720 -0.5081  0.2777  0.0389
  783MOL0     C 5625   9.376  11.071   2.734 -0.0221  0.0237  0.2399
  783MOL0     C 5626   9.462  11.003   2.820  0.0415  0.4074  0.5693
  783MOL0     C 5627   9.571  11.055   2.876 -0.0613  0.1980 -1.0210
  783MOL0     O 5628   9.665  10.993   2.957  0.1134 -0.1771 -0.8576
  783MOL0     C 5629   9.688  10.857   2.942  0.0664 -0.1029 -0.5208
  783MOL0     C 5630   9.757  10.848   2.805 -1.3731 -0.1153  0.2947
  783MOL0     C 5631   9.798  10.708   2.783 -0.4995 -0.0863 -0.3952
  783MOL0     C 5632   9.872  10.693   2.647 -0.2362  0.7787 -0.0875
  783MOL0     C 5633   9.784  10.656   2.537 -1.0761 -0.5283 -0.2437
  783MOL0     C 5634   9.715  10.635   2.443  0.2258  0.0605  0.0179
  783MOL0     C 5635   9.592  11.186   2.854 -0.2888  0.2781  0.3953
  783MOL0     C 5636   9.510  11.268   2.770 -0.2071 -0.0820 -0.1294
  783MOL0     C 5637   9.550  11.418   2.764  0.8220  0.1760 -0.2908
  783MOL0     H 5638   9.097  11.465   2.575  3.0994 -2.1524 -0.5653
  783MOL0     H 5639   8.947  11.557   2.409  1.0312 -0.1354  3.9248
  783MOL0     H 5640   8.956  11.546   2.152  3.0798 -2.7209 -0.6843
  783MOL0     H 5641   8.952  11.415   2.041 -0.6482  2.3844 -3.1925
  783MOL0     H 5642   8.762  11.635   2.072  0.8329 -1.2416  2.7193
  783MOL0     H 5643   8.702  11.480   2.021  1.9025 -1.7959  0.8682
  783MOL0     H 5644   8.868  11.462   1.852  0.1635  0.3996 -0.1379
  783MOL0     H 5645   8.926  11.623   1.879  0.0924  1.0623 -2.0036
  783MOL0     H 5646   8.776  11.639   1.696  1.8655 -1.7079  1.3332
  783MOL0     H 5647   8.647  11.551   1.775 -0.1487 -1.2101  2.3437
  783MOL0     H 5648   8.612  11.789   1.765  2.5347  0.4198 -1.0961
  783MOL0     H 5649   8.618  11.730   1.942  5.1772 -3.4815  4.2092
  783MOL0     H 5650   8.821  11.835   1.960  0.9734  1.3184 -0.6180
  783MOL0     H 5651   8.827  11.883   1.793  0.3551  0.1680  0.9628
  783MOL0     H 5652   8.624  12.044   1.852 -1.4624  2.0138  4.3284
  783MOL0     H 5653   8.777  12.069   1.927  2.6456 -2.1080 -0.4450
  783MOL0     H 5654   8.561  12.084   2.054  0.1763  0.7922 -0.4154
  783MOL0     H 5655   8.523  11.915   2.031 -0.6057  0.2622 -1.1800
  783MOL0     H 5656   8.574  11.769   2.230  0.8810 -0.7867 -0.1174
  783MOL0     H 5657   8.734  11.672   2.458 -0.0468 -0.2890  1.2855
  783MOL0     H 5658   8.829  11.803   2.528  0.5285 -1.7444  1.5857
  783MOL0     H 5659   8.523  11.829   2.488 -0.6492 -0.3044  0.4885
  783MOL0     H 5660   8.592  11.769   2.640  0.9257  1.6520  1.2902
  783MOL0     H 5661   8.533  12.011   2.658 -0.4128 -2.8649  0.6221
  783MOL0     H 5662   8.623  12.052   2.519  2.6851 -0.0925 -0.9798
  783MOL0     H 5663   8.833  12.004   2.627  0.0687  1.7532  0.6827
  783MOL0     H 5664   8.757  11.925   2.773  0.0791  0.7774  1.8771
  783MOL0     H 5665   8.696  12.367   2.859  0.7317  1.8431 -3.1388
  783MOL0     H 5666   8.864  12.503   2.970 -1.8259 -0.2956 -2.1647
  783MOL0     H 5667   9.013  12.819   3.114 -0.9564 -0.5166  3.8560
  783MOL0     H 5668   9.169  12.979   3.223  0.7351  0.8953 -0.1893
  783MOL0     H 5669   9.579  12.850   3.328  0.6771 -0.5377 -0.1704
  783MOL0     H 5670   9.607  12.927   3.166  0.7188 -1.1761  0.7903
  783MOL0     H 5671   9.731  13.056   3.328 -0.1752  0.6427  2.2052
  783MOL0     H 5672   9.611  13.149   3.257  4.2602 -0.2952 -1.8563
  783MOL0     H 5673   9.463  13.117   3.464  0.1550  0.2035  0.2457
  783MOL0     H 5674   9.597  13.023   3.537  0.5361  0.2414 -0.7612
  783MOL0     H 5675   9.638  13.295   3.407  1.8945 -0.5866 -1.0001
  783MOL0     H 5676   9.744  13.210   3.507 -1.4120 -0.1906  1.0905
  783MOL0     H 5677   9.622  13.203   3.706  1.4816 -1.3353 -1.0437
  783MOL0     H 5678   9.491  13.285   3.631  0.4509 -1.1089  2.8763
  783MOL0     H 5679   9.626  13.446   3.769 -0.1226  0.1873 -0.5625
  783MOL0     H 5680   9.770  13.413   3.680  0.5809 -3.3609  0.2925
  783MOL0     H 5681   9.661  13.514   3.483 -1.3070  0.8615 -0.8257
  783MOL0     H 5682   9.676  13.626   3.614 -3.3230  0.8510  1.9958
  783MOL0     H 5683   9.419  13.487   3.528 -3.1620 -0.0655  1.4895
  783MOL0     H 5684   9.428  13.547   3.693 -2.7978  1.5850 -0.9948
  783MOL0     H 5685   9.513  12.743   3.106 -0.0870 -0.6455 -0.9137
  783MOL0     H 5686   9.363  12.586   3.002 -4.6631 -3.5709 -1.4967
  783MOL0     H 5687   9.162  12.208   2.874 -0.5773 -0.8774 -1.5640
  783MOL0     H 5688   9.005  12.064   2.792  0.0837  1.3228 -0.9746
  783MOL0     H 5689   8.900  11.145   2.257  0.1632  1.1880 -0.7560
  783MOL0     H 5690   9.024  11.071   2.428  1.0640  0.1564  1.2746
  783MOL0     H 5691   9.292  11.022   2.686  0.8277 -1.4193  0.1735
  783MOL0     H 5692   9.422  10.905   2.845 -1.6604  1.5734  2.7617
  783MOL0     H 5693   9.598  10.796   2.948 -0.7861  1.2488  1.2198
  783MOL0     H 5694   9.745  10.821   3.028 -1.1914 -2.6483 -0.6665
  783MOL0     H 5695   9.847  10.910   2.808 -0.0178 -1.9942  0.5166
  783MOL0     H 5696   9.689  10.886   2.728 -3.8202  0.8613  2.7597
  783MOL0     H 5697   9.701  10.656   2.782 -0.6944  0.1748  1.7416
  783MOL0     H 5698   9.857  10.677   2.870 -0.3880  0.7405 -0.1640
  783MOL0     H 5699   9.933  10.779   2.618 -1.4141  1.4648 -0.6007
  783MOL0     H 5700   9.947  10.618   2.673 -1.0029  0.7445  2.3207
  783MOL0     H 5701   9.659  10.593   2.361  3.3597 -1.1373 -1.7236
  783MOL0     H 5702   9.684  11.218   2.902  0.5837 -1.3452 -0.0892
  783MOL0     H 5703   9.656  11.432   2.789  1.3644 -0.9310 -1.8485
  783MOL0     H 5704   9.558  11.449   2.660  0.0354 -0.2098 -0.4673
  783MOL0     H 5705   9.480  11.486   2.814  0.8672 -1.9348  2.8994
  784MOL0     O 5706   4.063   3.011   1.902  0.5910 -0.6262  0.1269
  784MOL0     C 5707   4.163   2.983   1.961  0.2345  0.3877 -1.2187
  784MOL0     O 5708   4.267   3.068   1.985 -0.7362 -0.4298 -0.5095
  784MOL0     C 5709   4.254   3.203   1.961 -0.2751  0.2330  1.2779
  784MOL0     C 5710   4.228   3.247   1.827 -0.5830  0.4633 -0.1314
  784MOL0     C 5711   4.222   3.382   1.805 -0.4196 -0.6588  0.0723
  784MOL0     C 5712   4.267   3.471   1.898  0.5124  0.0345  0.4385
  784MOL0     O 5713   4.285   3.594   1.850 -0.1335  0.4755 -0.0198
  784MOL0     C 5714   4.257   3.715   1.929 -0.1038  0.5137 -0.0580
  784MOL0     C 5715   4.125   3.793   1.894  1.2958 -0.0178  0.3569
  784MOL0     C 5716   4.114   3.821   1.745  0.0095 -0.0474  0.4322
  784MOL0     C 5717   4.180   3.953   1.723 -0.4822 -0.5648 -0.1852
  784MOL0     C 5718   4.192   3.985   1.578  0.1320 -0.2719 -0.0710
  784MOL0     C 5719   4.244   4.127   1.566 -1.1457 -0.5198 -0.6926
  784MOL0     C 5720   4.168   4.245   1.622  0.4906  0.0147 -0.8836
  784MOL0     C 5721   4.018   4.231   1.590  0.5273  0.1249  0.6781
  784MOL0     N 5722   4.001   4.269   1.450 -0.5138  1.3205 -0.2204
  784MOL0     C 5723   3.978   4.168   1.352  1.6062  0.2029 -0.7934
  784MOL0     C 5724   3.932   4.230   1.243 -0.4217 -0.3744  0.8112
  784MOL0     C 5725   3.886   4.177   1.107  0.4391 -0.1114  0.3910
  784MOL0     C 5726   3.989   4.180   1.001 -0.0610 -0.1692 -0.7337
  784MOL0     C 5727   3.930   4.109   0.874 -0.4162 -1.1115  0.2028
  784MOL0     C 5728   4.029   4.099   0.764 -0.0793  0.2462 -1.0828
  784MOL0     O 5729   4.133   4.028   0.817 -0.5454 -0.3579 -0.1323
  784MOL0     C 5730   4.243   4.009   0.743  0.1381  0.4738 -0.3243
  784MOL0     C 5731   4.336   3.928   0.801  0.4892 -0.0412 -0.0498
  784MOL0     C 5732   4.461   3.902   0.737 -0.2019  0.1361 -0.1747
  784MOL0     C 5733   4.496   3.973   0.620  0.1585  0.2448  0.2100
  784MOL0     C 5734   4.630   3.957   0.563  0.2039 -0.2188 -0.2544
  784MOL0     O 5735   4.648   4.023   0.448  0.0085  0.8296  0.4836
  784MOL0     C 5736   4.768   3.997   0.385 -0.4295  0.5914 -0.0898
  784MOL0     C 5737   4.847   4.102   0.344  0.3676  0.0014 -0.2612
  784MOL0     C 5738   4.956   4.080   0.257 -0.1574  0.2814  0.4503
  784MOL0     C 5739   5.001   3.951   0.226 -0.6281  0.0790 -0.4074
  784MOL0     O 5740   5.125   3.955   0.157  0.2764 -0.3224 -0.0880
  784MOL0     C 5741   5.209   3.839   0.175  0.5915 -0.9364 -0.5260
  784MOL0     C 5742   5.269   3.827   0.315 -0.1628  0.3756  0.3043
  784MOL0     C 5743   5.361   3.942   0.348 -0.6561 -1.1131 -0.4871
  784MOL0     C 5744   5.446   3.938   0.474  0.5045 -0.5999 -0.6291
  784MOL0     C 5745   5.545   3.820   0.493  0.3629  0.3496 -0.5781
  784MOL0     C 5746   5.658   3.810   0.384 -0.3283 -0.1659 -0.1574
  784MOL0     C 5747   5.717   3.948   0.356 -0.2934 -0.2091 -0.3566
  784MOL0     C 5748   5.823   3.935   0.252 -0.6262  0.1339 -0.4768
  784MOL0    Cl 5749   5.965   3.838   0.323  0.3418  0.1727 -0.2342
  784MOL0     C 5750   4.924   3.846   0.272 -0.9548  1.3088  0.8487
  784MOL0     C 5751   4.808   3.872   0.341 -0.5397 -0.2281 -0.3767
  784MOL0     O 5752   4.718   3.895   0.631 -0.5628 -0.0381 -0.3153
  784MOL0     C 5753   4.408   4.066   0.563  0.7062  0.5070  1.0089
  784MOL0     C 5754   4.280   4.079   0.622  0.5078 -1.1215  0.1683
  784MOL0     N 5755   3.916   4.362   1.281  0.1205  0.1448  0.1896
  784MOL0     N 5756   3.968   4.381   1.395 -0.4661 -0.2304 -0.0757
  784MOL0     C 5757   4.310   3.431   2.022  0.4974  0.2076 -0.1218
  784MOL0     C 5758   4.299   3.293   2.054 -0.1297 -0.7547  0.6494
  784MOL0     C 5759   4.188   2.840   1.978 -0.0083 -0.2488 -0.3191
  784MOL0     C 5760   4.321   2.802   1.951 -0.5067 -0.4428 -0.5347
  784MOL0     C 5761   4.363   2.667   1.974 -0.1478  0.4548  0.9024
  784MOL0     C 5762   4.274   2.565   2.020 -0.4836  0.3637  0.4025
  784MOL0     O 5763   4.334   2.440   2.049  0.2578  0.0238 -0.5779
  784MOL0     C 5764   4.253   2.348   2.125  0.3775 -0.1329  0.1761
  784MOL0     C 5765   4.348   2.239   2.177  0.5822  0.0394  0.8211
  784MOL0     C 5766   4.431   2.165   2.075 -0.1939 -0.1014  0.5388
  784MOL0     C 5767   4.485   2.041   2.141  1.2233 -0.6101  0.3668
  784MOL0     C 5768   4.613   2.071   2.208 -0.2955 -0.0137 -0.7780
  784MOL0     C 5769   4.726   2.084   2.267  0.4305 -1.0376  0.3602
  784MOL0     C 5770   4.138   2.604   2.040  0.5015  0.9785  0.3349
  784MOL0     C 5771   4.095   2.737   2.020 -0.7301  0.1990  0.9070
  784MOL0     C 5772   3.948   2.772   2.035  0.3226 -1.1042 -0.2136
  784MOL0     H 5773   4.194   3.179   1.750 -1.7595  1.1753 -0.2714
  784MOL0     H 5774   4.194   3.423   1.708 -2.2976  0.5016  1.0482
  784MOL0     H 5775   4.255   3.701   2.038  1.1282 -0.4804 -0.1448
  784MOL0     H 5776   4.346   3.775   1.913 -0.1966  0.1670 -2.0932
  784MOL0     H 5777   4.118   3.886   1.950  0.8826 -0.0033  0.2875
  784MOL0     H 5778   4.034   3.742   1.928 -0.1347  1.6463 -0.7662
  784MOL0     H 5779   4.010   3.822   1.712 -0.9342 -2.4832  2.9406
  784MOL0     H 5780   4.160   3.736   1.694  1.7944  0.2685  1.4331
  784MOL0     H 5781   4.135   4.036   1.777  2.5214  1.5220 -0.6275
  784MOL0     H 5782   4.275   3.944   1.776 -0.7451 -0.0331  0.3736
  784MOL0     H 5783   4.242   3.906   1.521  0.1223 -1.8768  2.0458
  784MOL0     H 5784   4.089   3.979   1.544 -0.2420  0.4787  0.8931
  784MOL0     H 5785   4.344   4.135   1.611 -1.4997 -0.8567  0.1862
  784MOL0     H 5786   4.259   4.146   1.459 -0.4557 -2.7150 -1.0303
  784MOL0     H 5787   4.203   4.341   1.583 -2.7633  0.8251 -2.0869
  784MOL0     H 5788   4.171   4.242   1.731 -2.6604  0.6425 -0.6800
  784MOL0     H 5789   3.965   4.140   1.619  1.5232 -0.5125  0.5512
  784MOL0     H 5790   3.970   4.310   1.649  1.8362 -0.0836  2.0707
  784MOL0     H 5791   3.984   4.059   1.353 -2.5559 -0.2134  0.8605
  784MOL0     H 5792   3.865   4.071   1.124  0.4439 -0.2640 -0.5445
  784MOL0     H 5793   3.796   4.237   1.089 -0.1442 -0.6369  1.4259
  784MOL0     H 5794   4.020   4.284   0.985  2.4541 -0.4723  1.5659
  784MOL0     H 5795   4.076   4.123   1.035 -1.2679  0.5147  4.1752
  784MOL0     H 5796   3.859   4.182   0.834  2.7286  2.4992  0.7197
  784MOL0     H 5797   3.879   4.015   0.898 -5.0619  1.7134  2.7202
  784MOL0     H 5798   4.062   4.197   0.729  3.5832  1.3455  4.2740
  784MOL0     H 5799   3.981   4.035   0.689 -1.1946 -2.6093  1.8248
  784MOL0     H 5800   4.306   3.867   0.886 -0.5542 -5.0836 -3.5685
  784MOL0     H 5801   4.532   3.844   0.794 -0.9595  0.0822  0.7389
  784MOL0     H 5802   4.835   4.208   0.364  4.4754  1.1075 -2.6107
  784MOL0     H 5803   5.017   4.156   0.210  1.9480 -2.9702 -2.5169
  784MOL0     H 5804   5.161   3.742   0.157 -0.1764 -0.9232  1.2751
  784MOL0     H 5805   5.292   3.847   0.104  0.9878 -1.9445 -0.2001
  784MOL0     H 5806   5.191   3.809   0.389 -1.4310 -0.1358 -1.1125
  784MOL0     H 5807   5.323   3.732   0.313 -0.8753 -0.0517  1.0025
  784MOL0     H 5808   5.418   3.965   0.258  0.5163 -2.1093 -0.0220
  784MOL0     H 5809   5.288   4.019   0.375  1.6656 -0.1567  3.9516
  784MOL0     H 5810   5.379   3.939   0.560  0.2237  0.9747 -0.8387
  784MOL0     H 5811   5.509   4.027   0.484  1.7439 -1.5047 -0.0669
  784MOL0     H 5812   5.495   3.724   0.500  1.4388 -0.0901  2.9450
  784MOL0     H 5813   5.592   3.822   0.592 -0.4699  0.7294 -0.1844
  784MOL0     H 5814   5.728   3.731   0.411 -0.9659 -0.5109  0.5167
  784MOL0     H 5815   5.612   3.776   0.290  2.3006 -0.5356 -1.3827
  784MOL0     H 5816   5.743   3.987   0.455 -1.7834 -1.1415  0.4330
  784MOL0     H 5817   5.639   3.998   0.297 -0.0116  1.1523  0.3818
  784MOL0     H 5818   5.781   3.882   0.167 -4.6519  1.7589  0.2574
  784MOL0     H 5819   5.846   4.038   0.221  0.4144 -0.5577 -2.1491
  784MOL0     H 5820   4.951   3.746   0.239  2.0339  2.1939  0.3304
  784MOL0     H 5821   4.744   3.795   0.383  0.0307 -1.3104 -1.4429
  784MOL0     H 5822   4.431   4.122   0.473  1.7263  3.3671  2.9022
  784MOL0     H 5823   4.214   4.149   0.572  1.0562 -1.1210 -0.5692
  784MOL0     H 5824   4.363   3.497   2.089  0.4538  3.5605 -3.1458
  784MOL0     H 5825   4.333   3.250   2.148  1.4652 -1.4226 -0.2007
  784MOL0     H 5826   4.388   2.880   1.916  1.2351 -0.1178  3.1013
  784MOL0     H 5827   4.468   2.638   1.971 -0.9476 -2.7458  0.5506
  784MOL0     H 5828   4.178   2.298   2.062  2.1699 -3.8861  0.7622
  784MOL0     H 5829   4.209   2.401   2.210  0.4743  1.5877 -0.7948
  784MOL0     H 5830   4.277   2.173   2.227  0.6668 -0.1299  0.7193
  784MOL0     H 5831   4.411   2.287   2.253  0.4009  2.3885 -0.4110
  784MOL0     H 5832   4.515   2.230   2.049  0.5107 -1.3182 -0.3079
  784MOL0     H 5833   4.381   2.127   1.986  1.5579 -1.2296 -0.0082
  784MOL0     H 5834   4.410   1.989   2.202  0.6487 -0.0370  0.1587
  784MOL0     H 5835   4.497   1.967   2.062 -0.7191 -0.0928 -0.4875
  784MOL0     H 5836   4.816   2.114   2.318 -0.8857  1.2047  1.5042
  784MOL0     H 5837   4.062   2.533   2.069  2.2025 -0.7174  0.8534
  784MOL0     H 5838   3.909   2.796   1.936  0.2182  1.5323  0.4050
  784MOL0     H 5839   3.888   2.688   2.074  1.4027 -1.5968  0.4391
  784MOL0     H 5840   3.924   2.861   2.094  1.2479 -1.5413  0.8795
  785MOL0     O 5841   7.831   2.113   6.644 -0.6785  0.1234 -0.0134
  785MOL0     C 5842   7.858   2.164   6.752 -0.0760 -0.6304  0.1165
  785MOL0     O 5843   7.885   2.102   6.863 -0.4452 -0.1434  0.5777
  785MOL0     C 5844   7.907   1.967   6.869  0.2777 -0.1091 -0.1025
  785MOL0     C 5845   7.897   1.910   6.995 -0.4588  0.2624 -0.2226
  785MOL0     C 5846   7.923   1.774   7.028  0.2373  0.3950  0.0320
  785MOL0     C 5847   7.938   1.682   6.933  0.2890  0.5006 -0.2992
  785MOL0     O 5848   7.934   1.544   6.962  0.1225  0.7578 -0.1580
  785MOL0     C 5849   7.957   1.454   6.847 -0.8470  0.3439  0.1859
  785MOL0     C 5850   7.821   1.436   6.763 -0.2000 -0.1738 -0.3144
  785MOL0     C 5851   7.707   1.391   6.856 -0.2469  0.9933  0.3781
  785MOL0     C 5852   7.580   1.378   6.776 -0.7816 -0.6672 -0.2332
  785MOL0     C 5853   7.454   1.342   6.849  1.0092 -0.2175 -0.3530
  785MOL0     C 5854   7.455   1.197   6.906 -0.4540 -0.1298  0.7925
  785MOL0     C 5855   7.489   1.075   6.810  0.6375 -0.3286 -0.2532
  785MOL0     C 5856   7.512   0.948   6.886  0.7329 -0.1124  0.1265
  785MOL0     N 5857   7.644   0.925   6.944 -0.0172  0.3715 -0.2611
  785MOL0     C 5858   7.768   0.960   6.887  0.0199  0.9991  0.1670
  785MOL0     C 5859   7.851   0.986   6.993 -0.7791 -1.0683  0.1523
  785MOL0     C 5860   8.007   0.997   6.976  0.0409 -0.9053 -0.3855
  785MOL0     C 5861   8.080   1.054   7.095 -0.6354 -0.1847 -0.0229
  785MOL0     C 5862   8.050   1.205   7.129  0.3121 -0.1543  0.4585
  785MOL0     C 5863   8.109   1.249   7.262 -0.1173  0.6239 -0.6935
  785MOL0     O 5864   8.087   1.385   7.287 -0.7350  0.5668  0.3666
  785MOL0     C 5865   8.121   1.417   7.417 -0.1105  0.0695 -0.3148
  785MOL0     C 5866   8.172   1.342   7.527  0.1987  0.5954  0.4252
  785MOL0     C 5867   8.205   1.407   7.641  0.1642 -1.0446 -0.8503
  785MOL0     C 5868   8.188   1.546   7.661  0.4367  0.1395  0.5259
  785MOL0     C 5869   8.236   1.609   7.783  0.6249 -0.1018 -0.3021
  785MOL0     O 5870   8.238   1.750   7.782 -0.0572  0.1749 -0.2149
  785MOL0     C 5871   8.272   1.808   7.902 -0.9912  0.5940 -0.4480
  785MOL0     C 5872   8.406   1.785   7.957  0.2712  0.3663 -0.6990
  785MOL0     C 5873   8.450   1.826   8.078 -1.2026 -0.2160 -0.6605
  785MOL0     C 5874   8.372   1.907   8.161 -0.3770  0.0207  0.8727
  785MOL0     O 5875   8.431   1.934   8.284 -0.0296  0.2567  0.4891
  785MOL0     C 5876   8.387   2.053   8.353  0.2193 -0.4829 -0.2393
  785MOL0     C 5877   8.515   2.104   8.427 -0.0428  0.2993 -0.6970
  785MOL0     C 5878   8.571   2.004   8.528  0.3202 -0.1029 -0.9994
  785MOL0     C 5879   8.620   2.081   8.653 -0.3136  0.2114 -0.6676
  785MOL0     C 5880   8.723   2.186   8.640  0.4633 -0.5525  0.2952
  785MOL0     C 5881   8.845   2.145   8.562  0.0182  0.3264  1.3482
  785MOL0     C 5882   8.950   2.269   8.546 -1.0322 -0.6082  1.2321
  785MOL0     C 5883   9.049   2.271   8.669 -0.7351 -0.2246  0.2621
  785MOL0    Cl 5884   9.174   2.146   8.626  0.2797 -0.0009 -0.7466
  785MOL0     C 5885   8.243   1.939   8.114 -1.1478  0.3674  0.3833
  785MOL0     C 5886   8.193   1.884   7.991  1.2189 -0.0512  0.7016
  785MOL0     O 5887   8.268   1.537   7.879  0.1754  0.5594 -0.7443
  785MOL0     C 5888   8.138   1.618   7.557 -0.8223  0.4753  0.5751
  785MOL0     C 5889   8.115   1.559   7.437  0.3347 -0.5365  0.8949
  785MOL0     N 5890   7.783   0.966   7.110 -0.2608  0.1895 -0.4111
  785MOL0     N 5891   7.659   0.925   7.078  0.0440  0.0665  1.0656
  785MOL0     C 5892   7.944   1.735   6.799 -0.4177 -0.3949  0.8927
  785MOL0     C 5893   7.936   1.872   6.765  0.4952  0.5480 -0.3826
  785MOL0     C 5894   7.863   2.318   6.759 -0.4922 -0.2247 -0.3803
  785MOL0     C 5895   7.815   2.370   6.878  0.9094  0.3244  0.7320
  785MOL0     C 5896   7.818   2.506   6.900  0.6131  0.5397 -0.5096
  785MOL0     C 5897   7.850   2.595   6.796 -1.5717 -0.4134  0.0111
  785MOL0     O 5898   7.860   2.733   6.796  0.6658 -0.2000  0.0686
  785MOL0     C 5899   7.779   2.793   6.901  0.1259 -0.5229  0.7376
  785MOL0     C 5900   7.634   2.776   6.872 -0.6729 -0.1634  0.1994
  785MOL0     C 5901   7.593   2.884   6.768  0.3033 -0.4054  0.3295
  785MOL0     C 5902   7.438   2.867   6.727 -0.5506 -0.6957  0.0895
  785MOL0     C 5903   7.400   2.935   6.603 -0.2846 -0.0407 -0.0789
  785MOL0     C 5904   7.382   2.975   6.490 -0.0874 -0.4727 -1.0211
  785MOL0     C 5905   7.904   2.545   6.679 -0.4036 -1.0097 -1.0171
  785MOL0     C 5906   7.910   2.404   6.654 -0.3314  0.2722 -0.4553
  785MOL0     C 5907   7.966   2.358   6.523 -0.5711 -0.3414 -0.8773
  785MOL0     H 5908   7.875   1.972   7.081 -1.2684 -2.6440  1.8549
  785MOL0     H 5909   7.893   1.739   7.126 -1.5180 -2.9589 -1.5246
  785MOL0     H 5910   8.038   1.490   6.783 -0.1328  1.4315  1.6190
  785MOL0     H 5911   7.989   1.354   6.878  0.3773  0.5454 -0.3550
  785MOL0     H 5912   7.822   1.353   6.691  0.2134 -0.7292  0.3260
  785MOL0     H 5913   7.799   1.528   6.708 -0.1013 -2.7395 -5.1690
  785MOL0     H 5914   7.699   1.448   6.950  0.3239  0.5448  0.7068
  785MOL0     H 5915   7.723   1.291   6.895 -0.5673  0.4965 -0.7311
  785MOL0     H 5916   7.566   1.477   6.731 -0.6015  0.2671  1.6616
  785MOL0     H 5917   7.595   1.305   6.696  0.3354 -0.7935  0.0640
  785MOL0     H 5918   7.438   1.420   6.924 -0.4471  0.6199 -1.5027
  785MOL0     H 5919   7.371   1.350   6.778  1.2590  2.4961 -0.4394
  785MOL0     H 5920   7.514   1.213   6.997  1.5146  3.6148 -0.9148
  785MOL0     H 5921   7.353   1.181   6.943 -0.8161  0.0692 -0.0959
  785MOL0     H 5922   7.576   1.100   6.750  1.2676 -0.7006  0.4826
  785MOL0     H 5923   7.406   1.070   6.739 -0.2317  1.6533  0.5481
  785MOL0     H 5924   7.443   0.936   6.969 -0.4183  0.0758 -0.7719
  785MOL0     H 5925   7.491   0.871   6.811 -3.1819  2.9491 -2.3067
  785MOL0     H 5926   7.799   0.977   6.784  1.4832  1.7842  0.7032
  785MOL0     H 5927   8.049   0.897   6.958  3.2238  0.1217  0.6136
  785MOL0     H 5928   8.015   1.066   6.891 -1.5849 -0.0047  0.1719
  785MOL0     H 5929   8.058   0.989   7.181  5.1614 -0.5942  1.5886
  785MOL0     H 5930   8.186   1.031   7.087 -0.4585  0.3896  0.5478
  785MOL0     H 5931   7.941   1.215   7.123  0.5459  1.7112 -2.3114
  785MOL0     H 5932   8.100   1.271   7.058 -0.7458  0.9023  0.6746
  785MOL0     H 5933   8.215   1.225   7.260 -0.2308 -0.0356 -3.3960
  785MOL0     H 5934   8.050   1.204   7.342  0.6295 -0.7383 -0.8708
  785MOL0     H 5935   8.193   1.235   7.525  3.3302  1.1197 -0.3309
  785MOL0     H 5936   8.245   1.356   7.728  0.0755 -1.6293 -1.1480
  785MOL0     H 5937   8.469   1.713   7.906  1.4645  0.2413  0.8820
  785MOL0     H 5938   8.552   1.804   8.110 -0.5291  3.1691 -0.1094
  785MOL0     H 5939   8.352   2.139   8.295 -0.8280 -0.0178  1.0324
  785MOL0     H 5940   8.305   2.024   8.419 -1.7413  3.1177 -0.8426
  785MOL0     H 5941   8.590   2.113   8.347 -0.0179  0.4007 -0.6630
  785MOL0     H 5942   8.491   2.205   8.462  1.6571  0.6240 -0.4007
  785MOL0     H 5943   8.495   1.936   8.566  0.2192  1.4853  1.9335
  785MOL0     H 5944   8.656   1.951   8.484 -0.1051 -1.2242 -0.4970
  785MOL0     H 5945   8.676   2.001   8.701  4.8375  2.9829 -1.3460
  785MOL0     H 5946   8.531   2.111   8.709 -2.5990 -2.0755 -2.7883
  785MOL0     H 5947   8.743   2.232   8.737 -4.0205  2.2452  0.1776
  785MOL0     H 5948   8.666   2.256   8.578  1.1056 -1.8365 -1.8423
  785MOL0     H 5949   8.890   2.057   8.609  0.3309  0.3700  1.1369
  785MOL0     H 5950   8.813   2.122   8.460  1.0254  0.3141  1.0257
  785MOL0     H 5951   8.881   2.351   8.566 -0.1526  0.3853  0.2658
  785MOL0     H 5952   8.998   2.263   8.448  4.5301  3.1066  3.2246
  785MOL0     H 5953   9.084   2.372   8.648 -1.9279  0.0101 -0.6888
  785MOL0     H 5954   8.996   2.280   8.764 -0.2495  1.2696  0.4110
  785MOL0     H 5955   8.171   1.981   8.184 -1.6327  0.9226 -0.4392
  785MOL0     H 5956   8.091   1.866   7.960  1.9927 -1.5253 -1.2090
  785MOL0     H 5957   8.124   1.725   7.554 -0.7004  0.4774 -1.0626
  785MOL0     H 5958   8.089   1.616   7.348 -1.1310  0.4317  1.8905
  785MOL0     H 5959   7.954   1.677   6.708  1.0318  3.9627 -2.0561
  785MOL0     H 5960   7.958   1.904   6.664 -1.0843  1.1469 -0.5786
  785MOL0     H 5961   7.767   2.311   6.956 -0.9194  0.1233 -0.4951
  785MOL0     H 5962   7.788   2.550   6.994  0.6044  0.2391 -0.3735
  785MOL0     H 5963   7.818   2.891   6.930 -1.4369 -0.4334  2.7411
  785MOL0     H 5964   7.796   2.753   7.001 -0.9678  1.7874  1.9253
  785MOL0     H 5965   7.586   2.788   6.970  0.1090  3.4026  0.2507
  785MOL0     H 5966   7.622   2.670   6.845  2.9048 -0.2783 -1.5176
  785MOL0     H 5967   7.662   2.873   6.684  0.7520 -0.9701  0.7578
  785MOL0     H 5968   7.602   2.988   6.800  1.5492  1.5721 -5.3114
  785MOL0     H 5969   7.405   2.763   6.730 -1.6223 -0.3772 -0.2716
  785MOL0     H 5970   7.389   2.905   6.817  1.5566 -1.2314  1.5312
  785MOL0     H 5971   7.370   3.009   6.390  0.0176  0.0824 -0.8510
  785MOL0     H 5972   7.937   2.616   6.604  1.7052  1.6621  2.1273
  785MOL0     H 5973   7.964   2.442   6.454  0.7385 -1.0073 -1.7643
  785MOL0     H 5974   8.070   2.326   6.536 -1.3168 -1.9657  2.0559
  785MOL0     H 5975   7.903   2.278   6.484 -1.6330 -0.4770  0.9804
  786MOL0     O 5976   5.328   6.061   6.706 -0.6149  0.1408 -0.0555
  786MOL0     C 5977   5.327   6.034   6.581  0.3195 -0.8571 -0.0482
  786MOL0     O 5978   5.446   6.017   6.511  0.8713 -0.3950  0.0632
  786MOL0     C 5979   5.562   6.055   6.570  0.1396 -0.2569  1.1736
  786MOL0     C 5980   5.624   6.160   6.500  0.7124 -0.7896  0.3492
  786MOL0     C 5981   5.759   6.191   6.529  0.6259  0.6116  0.5220
  786MOL0     C 5982   5.828   6.117   6.626  0.1191  0.0640  0.5885
  786MOL0     O 5983   5.962   6.130   6.632 -0.3395  0.4697  0.2027
  786MOL0     C 5984   6.042   6.019   6.678  0.6093  0.3826  0.0068
  786MOL0     C 5985   6.151   5.980   6.584 -0.1026  0.1000 -0.0745
  786MOL0     C 5986   6.220   5.848   6.621 -0.0695  0.1606  0.1366
  786MOL0     C 5987   6.143   5.723   6.581  0.9319  0.5150  0.4071
  786MOL0     C 5988   6.248   5.614   6.580 -0.0005 -0.2232 -0.0734
  786MOL0     C 5989   6.197   5.465   6.575  0.2676 -0.9415 -0.7205
  786MOL0     C 5990   6.093   5.439   6.469  0.5226 -0.6432 -0.3718
  786MOL0     C 5991   6.088   5.299   6.421 -0.2682  0.4585 -0.1362
  786MOL0     N 5992   5.982   5.285   6.324 -0.4969 -0.7728  0.1555
  786MOL0     C 5993   5.848   5.277   6.350 -0.2404  0.2553 -1.5395
  786MOL0     C 5994   5.785   5.259   6.235 -0.7137  0.8735 -0.3339
  786MOL0     C 5995   5.641   5.228   6.230 -0.1170 -1.0205  0.6520
  786MOL0     C 5996   5.598   5.108   6.307 -0.6646 -0.5402  0.6415
  786MOL0     C 5997   5.473   5.039   6.254  0.3678  0.0525 -0.5267
  786MOL0     C 5998   5.432   4.908   6.329  0.1394 -0.8027  0.1374
  786MOL0     O 5999   5.455   4.920   6.471 -0.6879 -0.7052 -0.1833
  786MOL0     C 6000   5.390   4.823   6.544  0.1284  0.8112  0.3212
  786MOL0     C 6001   5.372   4.693   6.491 -0.4190  0.1787 -0.5205
  786MOL0     C 6002   5.303   4.590   6.569 -0.2367 -0.5382  0.1830
  786MOL0     C 6003   5.256   4.617   6.698  1.3277 -0.8641  0.4739
  786MOL0     C 6004   5.186   4.513   6.775 -0.4298  0.2427 -0.4080
  786MOL0     O 6005   5.130   4.544   6.900  0.1017 -0.2591 -0.1907
  786MOL0     C 6006   5.033   4.463   6.954 -1.1340 -0.1730  0.4643
  786MOL0     C 6007   5.073   4.358   7.042  0.4446 -0.2568 -0.4641
  786MOL0     C 6008   4.964   4.276   7.091  0.4337 -0.2787 -0.2577
  786MOL0     C 6009   4.826   4.298   7.044  0.4176  0.8299 -0.3032
  786MOL0     O 6010   4.734   4.216   7.100  0.6695 -0.2163  0.3225
  786MOL0     C 6011   4.650   4.139   7.014 -0.3402 -1.0317 -0.6429
  786MOL0     C 6012   4.676   3.998   7.045 -0.2787  0.5270  0.6314
  786MOL0     C 6013   4.617   3.938   7.173 -0.2767  0.1116  0.5139
  786MOL0     C 6014   4.634   3.783   7.191  0.7191  0.5477 -0.6088
  786MOL0     C 6015   4.787   3.755   7.190  0.4289 -0.0202 -0.0207
  786MOL0     C 6016   4.827   3.627   7.258 -0.1488 -0.0259  0.4129
  786MOL0     C 6017   4.966   3.586   7.224 -0.5476  0.3732 -0.0888
  786MOL0     C 6018   5.001   3.446   7.285 -0.4051 -0.8570  0.6881
  786MOL0    Cl 6019   4.949   3.310   7.172  0.5587 -0.3556 -0.0528
  786MOL0     C 6020   4.802   4.398   6.955 -0.1969  0.6899 -0.3138
  786MOL0     C 6021   4.901   4.486   6.922 -0.4507 -0.4080  0.0217
  786MOL0     O 6022   5.182   4.399   6.719  0.9780  0.4870  0.2270
  786MOL0     C 6023   5.279   4.744   6.743  0.5910  0.2067  0.0279
  786MOL0     C 6024   5.350   4.843   6.669  0.3387  0.7016  0.3322
  786MOL0     N 6025   5.883   5.249   6.134 -1.1487 -0.1904  0.3031
  786MOL0     N 6026   6.002   5.267   6.185  0.5205  0.1960 -0.3431
  786MOL0     C 6027   5.757   6.026   6.706 -0.5206 -0.1673  0.3304
  786MOL0     C 6028   5.625   5.987   6.668 -0.0669  0.9699 -0.6176
  786MOL0     C 6029   5.199   5.999   6.511 -0.6750 -0.4878  0.0253
  786MOL0     C 6030   5.094   5.961   6.598  0.1261 -0.3169 -0.0348
  786MOL0     C 6031   4.968   5.939   6.545  1.4166  0.9955  1.1964
  786MOL0     C 6032   4.954   5.919   6.409 -0.4973 -0.4055  0.8024
  786MOL0     O 6033   4.837   5.883   6.346 -0.3052  0.1256 -0.1230
  786MOL0     C 6034   4.714   5.915   6.418  0.3788 -0.2619  0.2063
  786MOL0     C 6035   4.599   5.930   6.320  0.7981  0.0457 -0.6161
  786MOL0     C 6036   4.628   6.030   6.204 -0.1225  0.3318  0.1862
  786MOL0     C 6037   4.502   6.069   6.128 -0.3089 -0.2139  0.7578
  786MOL0     C 6038   4.471   5.965   6.032 -0.1935  0.9297  0.0112
  786MOL0     C 6039   4.424   5.864   5.975 -1.3374  0.7907 -0.0061
  786MOL0     C 6040   5.058   5.944   6.322 -0.1646 -0.2850  0.5824
  786MOL0     C 6041   5.184   5.983   6.366  0.2711 -0.2508 -0.1366
  786MOL0     C 6042   5.295   6.007   6.270  0.0479  0.4559 -0.1615
  786MOL0     H 6043   5.573   6.220   6.425 -0.2675  0.0491  1.6507
  786MOL0     H 6044   5.810   6.268   6.472  0.7527  2.8134  3.3944
  786MOL0     H 6045   6.088   6.047   6.773 -0.6255  3.4732 -0.2022
  786MOL0     H 6046   5.981   5.930   6.697 -1.2631  1.3995 -0.9974
  786MOL0     H 6047   6.226   6.059   6.583 -0.6530  0.6756  1.6285
  786MOL0     H 6048   6.117   5.988   6.480 -0.1145  1.7754  0.0453
  786MOL0     H 6049   6.251   5.837   6.725  0.1260 -3.6216 -0.2097
  786MOL0     H 6050   6.307   5.854   6.555 -0.8539 -3.2251 -1.4059
  786MOL0     H 6051   6.066   5.706   6.656 -0.8751  1.1365 -1.2137
  786MOL0     H 6052   6.115   5.744   6.477  2.2666 -2.4951 -0.6854
  786MOL0     H 6053   6.318   5.641   6.502 -0.3481  2.6972  0.5055
  786MOL0     H 6054   6.305   5.619   6.673 -1.6620  3.4962  0.9344
  786MOL0     H 6055   6.287   5.404   6.565 -0.3238 -2.6550  2.7475
  786MOL0     H 6056   6.162   5.436   6.675  0.7343 -0.1622 -0.3136
  786MOL0     H 6057   6.117   5.492   6.377  1.9801  2.2408  1.5053
  786MOL0     H 6058   5.998   5.482   6.503  0.0387 -1.3866 -0.7713
  786MOL0     H 6059   6.183   5.277   6.371 -0.5323 -0.2031 -0.3511
  786MOL0     H 6060   6.066   5.236   6.508 -1.9083  0.3232 -0.6190
  786MOL0     H 6061   5.783   5.283   6.437  0.2534  0.3183 -1.1677
  786MOL0     H 6062   5.589   5.316   6.268 -1.7394 -2.0852  0.9874
  786MOL0     H 6063   5.610   5.204   6.128 -1.0295  2.9240 -0.1741
  786MOL0     H 6064   5.687   5.046   6.318  1.4102  2.3692  1.4508
  786MOL0     H 6065   5.559   5.148   6.400 -0.3237  0.8808  0.2090
  786MOL0     H 6066   5.476   4.999   6.152  0.5092 -1.2054 -0.0468
  786MOL0     H 6067   5.386   5.105   6.267  0.6162  0.6977 -1.9691
  786MOL0     H 6068   5.502   4.842   6.277  0.5747 -0.6728  0.5563
  786MOL0     H 6069   5.333   4.865   6.310 -0.6103 -0.7217  3.2913
  786MOL0     H 6070   5.415   4.663   6.396 -1.1775  0.3427 -0.9258
  786MOL0     H 6071   5.285   4.492   6.525  0.3413 -0.1284 -1.0344
  786MOL0     H 6072   5.176   4.355   7.077 -0.4420  0.7751  2.4732
  786MOL0     H 6073   4.991   4.205   7.168 -0.9294 -1.3863 -0.7596
  786MOL0     H 6074   4.545   4.166   7.028 -0.3765 -1.2886 -0.4202
  786MOL0     H 6075   4.678   4.154   6.909  0.3028  0.7008 -0.2671
  786MOL0     H 6076   4.639   3.935   6.964 -0.1536  0.8018  0.3572
  786MOL0     H 6077   4.785   3.983   7.043 -0.3253 -0.2563  2.2012
  786MOL0     H 6078   4.641   3.979   7.271 -0.1172 -1.7758  1.2998
  786MOL0     H 6079   4.513   3.969   7.178  0.4947  2.7812  2.1194
  786MOL0     H 6080   4.577   3.730   7.114  3.1387 -1.2490 -1.3249
  786MOL0     H 6081   4.599   3.752   7.290  1.0078  0.6387 -0.4764
  786MOL0     H 6082   4.846   3.832   7.239  2.0728 -0.6752 -0.9055
  786MOL0     H 6083   4.825   3.747   7.087  0.8401 -1.2415  0.2111
  786MOL0     H 6084   4.821   3.643   7.366  3.0311 -2.1522  1.0405
  786MOL0     H 6085   4.771   3.537   7.231 -0.4511  0.5492 -0.9817
  786MOL0     H 6086   5.042   3.659   7.253  1.5437 -1.3144 -1.0640
  786MOL0     H 6087   4.980   3.582   7.115 -2.7401  1.4229 -0.4605
  786MOL0     H 6088   5.107   3.424   7.290 -0.2611 -0.2389  0.4765
  786MOL0     H 6089   4.956   3.439   7.384 -2.2591 -0.4120 -0.0724
  786MOL0     H 6090   4.703   4.414   6.913 -1.2274  0.6485  1.9357
  786MOL0     H 6091   4.881   4.567   6.852 -0.2948  1.2970  1.8575
  786MOL0     H 6092   5.252   4.772   6.845  3.2077 -1.5343  1.3231
  786MOL0     H 6093   5.370   4.943   6.705  4.4584 -0.4492  1.8580
  786MOL0     H 6094   5.802   5.967   6.784  0.9395 -0.7440 -0.8952
  786MOL0     H 6095   5.589   5.892   6.704 -1.6550  1.7437 -0.0863
  786MOL0     H 6096   5.120   5.950   6.703  0.4866  3.3001  0.3899
  786MOL0     H 6097   4.885   5.918   6.611 -1.3426  0.4033 -2.1683
  786MOL0     H 6098   4.734   6.012   6.465  2.1661  0.5693 -2.0241
  786MOL0     H 6099   4.687   5.842   6.495 -2.8172 -0.2701 -0.7753
  786MOL0     H 6100   4.514   5.955   6.385 -1.0149 -1.8397 -2.1170
  786MOL0     H 6101   4.580   5.830   6.279  1.6158 -0.4691  0.2204
  786MOL0     H 6102   4.698   5.977   6.138  0.5604  1.7805 -0.2886
  786MOL0     H 6103   4.667   6.124   6.243  0.0825 -0.5268  2.1881
  786MOL0     H 6104   4.416   6.095   6.190 -1.6840 -1.7760 -0.4162
  786MOL0     H 6105   4.530   6.156   6.067  0.3107  0.1004  1.4744
  786MOL0     H 6106   4.400   5.767   5.938 -1.1424  0.5134  0.5887
  786MOL0     H 6107   5.024   5.911   6.224 -3.6252 -0.5480  1.7737
  786MOL0     H 6108   5.346   6.101   6.295  0.4613  0.3439 -0.5778
  786MOL0     H 6109   5.353   5.915   6.284  2.3278  1.3461 -2.8168
  786MOL0     H 6110   5.259   6.012   6.167 -0.9975  2.8587  0.2565
  787MOL0     O 6111  10.407  11.455   0.123  0.2192 -0.2838 -0.9345
  787MOL0     C 6112  10.470  11.480   0.018  0.8940 -0.6318 -0.2213
  787MOL0     O 6113  10.593  11.558   0.011  0.0973 -0.2161 -0.4131
  787MOL0     C 6114  10.661  11.592   0.129 -0.6374  0.0032 -0.6878
  787MOL0     C 6115  10.682  11.505   0.240 -0.7790  0.7274  0.2509
  787MOL0     C 6116  10.758  11.543   0.353  1.2906  0.7827 -0.2497
  787MOL0     C 6117  10.818  11.666   0.346  0.0895 -0.5446 -0.3695
  787MOL0     O 6118  10.893  11.727   0.446 -0.6889  0.3628 -0.1273
  787MOL0     C 6119  10.835  11.739   0.574  0.5320 -0.4766  0.6925
  787MOL0     C 6120  10.746  11.869   0.582  0.0789  0.9038  0.9414
  787MOL0     C 6121  10.708  11.882   0.732  1.1540  0.0502 -1.0158
  787MOL0     C 6122  10.589  11.972   0.767 -0.0748  0.0145  0.8672
  787MOL0     C 6123  10.564  12.004   0.907  2.0428  0.4441  0.6969
  787MOL0     C 6124  10.667  12.069   0.994 -0.0764 -0.6069  0.7620
  787MOL0     C 6125  10.627  12.084   1.136 -0.3845 -0.0021 -0.4207
  787MOL0     C 6126  10.730  12.138   1.232  1.0687 -0.7687  1.1784
  787MOL0     N 6127  10.684  12.159   1.375  0.1983 -0.1823 -1.1635
  787MOL0     C 6128  10.552  12.132   1.424 -0.5877  0.2265 -0.0418
  787MOL0     C 6129  10.562  12.141   1.567  0.5931 -0.6204  0.5373
  787MOL0     C 6130  10.464  12.117   1.675  0.1494 -0.6143  0.2788
  787MOL0     C 6131  10.349  12.208   1.677  0.3091 -0.7636  0.5755
  787MOL0     C 6132  10.359  12.332   1.770  0.0549 -0.0162  0.3028
  787MOL0     C 6133  10.224  12.401   1.789  0.2830 -0.2550  0.3033
  787MOL0     O 6134  10.259  12.510   1.870  0.2445  0.1135  0.8431
  787MOL0     C 6135  10.163  12.608   1.873  0.5376 -0.4397  0.1819
  787MOL0     C 6136  10.205  12.742   1.856  0.0859  0.2053  0.3524
  787MOL0     C 6137  10.108  12.848   1.854 -1.1840 -0.1473  0.0444
  787MOL0     C 6138   9.974  12.821   1.861  0.7007 -0.2703  0.4911
  787MOL0     C 6139   9.878  12.928   1.866  0.0009  0.4400  0.4992
  787MOL0     O 6140   9.752  12.901   1.841  0.1391 -0.3109 -0.3043
  787MOL0     C 6141   9.643  12.989   1.856 -0.3852 -0.7066  0.0509
  787MOL0     C 6142   9.647  13.107   1.930  1.0609 -1.2081 -0.0738
  787MOL0     C 6143   9.526  13.188   1.932 -0.3933  1.0057 -0.0077
  787MOL0     C 6144   9.415  13.151   1.864  0.6461  0.1595 -0.4117
  787MOL0     O 6145   9.299  13.224   1.880 -0.1828  0.3077  0.1684
  787MOL0     C 6146   9.172  13.175   1.846  0.0791  0.1720 -1.1138
  787MOL0     C 6147   9.071  13.280   1.916 -0.0910  0.4427  0.0749
  787MOL0     C 6148   8.928  13.242   1.872  0.5177  0.2384 -0.7491
  787MOL0     C 6149   8.825  13.283   1.978  0.4304 -0.2740 -0.5274
  787MOL0     C 6150   8.806  13.184   2.092 -0.3299  0.6281  0.3642
  787MOL0     C 6151   8.715  13.070   2.044  0.5636 -0.5541 -0.2078
  787MOL0     C 6152   8.648  12.983   2.156 -0.4826 -0.2151  0.0884
  787MOL0     C 6153   8.537  12.886   2.114 -0.4970  0.1871  1.4505
  787MOL0    Cl 6154   8.454  12.827   2.255 -0.1593 -0.0654 -0.4745
  787MOL0     C 6155   9.424  13.034   1.787  0.1979 -0.4051 -0.1405
  787MOL0     C 6156   9.533  12.949   1.782  0.4519 -0.9452 -0.8442
  787MOL0     O 6157   9.927  13.040   1.882 -0.4177  0.1263  1.1319
  787MOL0     C 6158   9.927  12.690   1.879  0.6527  0.3560  0.2056
  787MOL0     C 6159  10.022  12.588   1.882  0.4175  0.2872 -0.6128
  787MOL0     N 6160  10.689  12.170   1.602 -0.3071 -0.2638 -0.6939
  787MOL0     N 6161  10.755  12.179   1.489  0.0150 -0.5222 -0.5811
  787MOL0     C 6162  10.796  11.750   0.239  0.6560 -0.6766  0.7165
  787MOL0     C 6163  10.723  11.712   0.122  0.0055 -0.4625  0.6249
  787MOL0     C 6164  10.406  11.450  -0.118  0.2924  0.6502  0.5129
  787MOL0     C 6165  10.483  11.447  -0.228 -0.3288  0.3160  0.5659
  787MOL0     C 6166  10.423  11.426  -0.350 -1.0796  0.2685 -1.1930
  787MOL0     C 6167  10.298  11.374  -0.363  0.0285 -0.4716  0.5003
  787MOL0     O 6168  10.253  11.345  -0.488 -0.1444 -0.1945  0.4076
  787MOL0     C 6169  10.135  11.409  -0.538 -0.1981 -0.1924  0.1137
  787MOL0     C 6170  10.137  11.561  -0.544  0.0867  0.0099 -0.0650
  787MOL0     C 6171  10.271  11.596  -0.607 -0.6247  0.4396 -0.0195
  787MOL0     C 6172  10.265  11.741  -0.661  1.0987 -0.3244 -0.2824
  787MOL0     C 6173  10.393  11.796  -0.696  0.3702 -0.1633 -0.7316
  787MOL0     C 6174  10.497  11.847  -0.729 -0.3023  0.2643  0.7195
  787MOL0     C 6175  10.217  11.364  -0.253  0.3216  0.1027  0.0982
  787MOL0     C 6176  10.271  11.404  -0.129  0.3972 -0.6313 -0.1286
  787MOL0     C 6177  10.172  11.380  -0.018  0.4688 -1.2842  0.3917
  787MOL0     H 6178  10.629  11.410   0.244 -1.0681  0.9314  1.8987
  787MOL0     H 6179  10.771  11.479   0.440 -0.4344  0.6302 -0.0558
  787MOL0     H 6180  10.767  11.657   0.601  0.3011  0.0354  1.7246
  787MOL0     H 6181  10.920  11.734   0.643  0.7630  3.2455  0.8401
  787MOL0     H 6182  10.658  11.850   0.520  1.1064 -0.5113 -0.1350
  787MOL0     H 6183  10.800  11.958   0.548 -0.6461  1.4193  1.1104
  787MOL0     H 6184  10.798  11.912   0.785  1.1317 -1.5867  0.0037
  787MOL0     H 6185  10.694  11.780   0.769 -1.9224  1.1075  1.1235
  787MOL0     H 6186  10.610  12.066   0.714  1.2673 -0.7969 -0.0979
  787MOL0     H 6187  10.508  11.921   0.714  1.9300 -1.9859 -0.4406
  787MOL0     H 6188  10.487  12.081   0.898  2.9359  1.1774 -1.2402
  787MOL0     H 6189  10.514  11.925   0.963 -3.4194  3.2380  0.3632
  787MOL0     H 6190  10.753  12.002   0.986 -0.6558 -1.0723 -3.2118
  787MOL0     H 6191  10.695  12.168   0.954  1.3370 -1.0879  0.4992
  787MOL0     H 6192  10.573  12.001   1.183 -2.4807  2.1061  1.1403
  787MOL0     H 6193  10.559  12.168   1.118  0.9610  0.7974 -2.0139
  787MOL0     H 6194  10.817  12.072   1.231  1.3390 -0.5932 -2.7235
  787MOL0     H 6195  10.762  12.240   1.208 -0.7794 -0.3057  0.5381
  787MOL0     H 6196  10.461  12.120   1.366 -2.0905 -0.5363  2.3473
  787MOL0     H 6197  10.408  12.026   1.653 -1.7598  0.6251 -0.1581
  787MOL0     H 6198  10.512  12.098   1.772  0.2906 -0.3088  0.2714
  787MOL0     H 6199  10.325  12.249   1.579  1.0943  1.0176  1.0908
  787MOL0     H 6200  10.259  12.161   1.718 -0.2797  0.4896  0.7760
  787MOL0     H 6201  10.430  12.403   1.726  1.5243 -0.5582  1.7164
  787MOL0     H 6202  10.415  12.297   1.857  3.3803 -3.1282 -2.7583
  787MOL0     H 6203  10.157  12.334   1.843 -0.1192 -2.2702 -2.4743
  787MOL0     H 6204  10.181  12.440   1.696 -3.1757 -2.2220  0.9190
  787MOL0     H 6205  10.312  12.762   1.864  0.3185 -0.6767 -0.4464
  787MOL0     H 6206  10.143  12.950   1.860  3.4414 -1.3966 -1.7340
  787MOL0     H 6207   9.730  13.137   1.994 -0.1063 -0.9258  1.3702
  787MOL0     H 6208   9.527  13.272   2.001 -3.1517  0.1130  1.3012
  787MOL0     H 6209   9.138  13.182   1.742  0.3537  1.0256 -1.1559
  787MOL0     H 6210   9.154  13.075   1.887 -0.1618  1.0664  1.1186
  787MOL0     H 6211   9.072  13.266   2.024  1.6935 -1.8120 -0.1598
  787MOL0     H 6212   9.093  13.386   1.897 -0.4605  0.0868 -2.7479
  787MOL0     H 6213   8.916  13.311   1.787  2.4950  1.0030 -0.4621
  787MOL0     H 6214   8.911  13.138   1.842 -0.5250  0.5355 -1.2377
  787MOL0     H 6215   8.730  13.301   1.925  0.0805  0.0732  0.2071
  787MOL0     H 6216   8.857  13.381   2.013 -1.4047  1.2779 -2.7821
  787MOL0     H 6217   8.749  13.234   2.171 -2.2272  2.0353 -1.7392
  787MOL0     H 6218   8.901  13.145   2.127 -1.4112 -3.6319 -0.7744
  787MOL0     H 6219   8.633  13.110   1.983  0.0170 -0.2930  0.6737
  787MOL0     H 6220   8.778  13.005   1.982 -0.6329  0.6714 -2.8926
  787MOL0     H 6221   8.606  13.044   2.236 -0.7670 -2.2427  1.5591
  787MOL0     H 6222   8.728  12.927   2.205 -0.0740 -2.5662 -2.9744
  787MOL0     H 6223   8.468  12.944   2.052 -1.3845 -0.3018  1.9590
  787MOL0     H 6224   8.583  12.805   2.056 -0.9016  1.7566 -1.2536
  787MOL0     H 6225   9.334  13.004   1.735 -1.0356  3.5642 -0.6684
  787MOL0     H 6226   9.530  12.862   1.716  2.0820 -2.0835  0.4866
  787MOL0     H 6227   9.819  12.675   1.880  0.8109 -1.4898 -2.1960
  787MOL0     H 6228   9.986  12.486   1.891  0.5504  0.0054 -2.6985
  787MOL0     H 6229  10.845  11.847   0.233  0.7601 -0.7593  0.1375
  787MOL0     H 6230  10.707  11.773   0.034 -2.4311 -1.1587  0.4949
  787MOL0     H 6231  10.582  11.491  -0.233 -0.0363 -0.1596  1.8260
  787MOL0     H 6232  10.473  11.429  -0.446 -0.5769  0.3275 -0.9368
  787MOL0     H 6233  10.062  11.400  -0.456  0.1878  0.8207  0.5852
  787MOL0     H 6234  10.111  11.367  -0.636  0.4938  0.8057 -0.4950
  787MOL0     H 6235  10.112  11.589  -0.441 -2.9267 -2.8011  0.1093
  787MOL0     H 6236  10.051  11.586  -0.608 -0.7927  0.2537  1.1824
  787MOL0     H 6237  10.293  11.526  -0.688 -0.4486  0.5848 -0.0962
  787MOL0     H 6238  10.350  11.590  -0.531  0.5158 -0.0433 -1.2033
  787MOL0     H 6239  10.195  11.762  -0.743 -0.3402  2.2195  1.4596
  787MOL0     H 6240  10.232  11.805  -0.578  0.0052 -2.9095  1.4222
  787MOL0     H 6241  10.576  11.913  -0.760 -0.6486  0.3966  0.1195
  787MOL0     H 6242  10.115  11.329  -0.260  0.5543 -0.4907 -0.3225
  787MOL0     H 6243  10.071  11.348  -0.046  1.3908 -1.1081 -3.8440
  787MOL0     H 6244  10.220  11.313   0.054  1.7398 -0.3398  0.4404
  787MOL0     H 6245  10.162  11.474   0.037  2.5146 -0.5293 -0.4556
  788MOL0     O 6246   2.621   5.593   2.072  0.3818  0.1407 -0.4591
  788MOL0     C 6247   2.733   5.630   2.122  0.2144 -0.0374  0.5296
  788MOL0     O 6248   2.797   5.573   2.229  1.7480  0.9975  0.2525
  788MOL0     C 6249   2.766   5.437   2.236 -0.9614  0.8398  0.6153
  788MOL0     C 6250   2.655   5.381   2.296  0.6398  0.2707  0.0033
  788MOL0     C 6251   2.627   5.243   2.280  0.0493  0.5648  0.0998
  788MOL0     C 6252   2.704   5.155   2.205  0.1753  0.2172  0.6710
  788MOL0     O 6253   2.670   5.027   2.204 -0.3254 -0.5523 -0.6373
  788MOL0     C 6254   2.781   4.938   2.210 -0.2674 -0.2328  0.1792
  788MOL0     C 6255   2.715   4.799   2.252  0.5001 -0.4407 -0.8720
  788MOL0     C 6256   2.745   4.771   2.402  0.1085 -0.2648  0.1623
  788MOL0     C 6257   2.884   4.706   2.420  0.0980  0.3652  1.0464
  788MOL0     C 6258   2.925   4.679   2.569 -0.3287  0.2946  0.0242
  788MOL0     C 6259   3.059   4.612   2.573  0.1002 -0.9729 -1.3755
  788MOL0     C 6260   3.096   4.614   2.715 -0.5001  0.8450  0.1941
  788MOL0     C 6261   3.236   4.542   2.730  0.5063  0.9156 -0.1189
  788MOL0     N 6262   3.344   4.602   2.651  0.2358  0.2168  0.0939
  788MOL0     C 6263   3.383   4.730   2.683  0.2301  0.3375  0.1434
  788MOL0     C 6264   3.469   4.773   2.590 -0.3807  0.0468  0.4030
  788MOL0     C 6265   3.564   4.892   2.597  0.5536  0.3646  0.3027
  788MOL0     C 6266   3.502   5.040   2.588  0.1747  0.4596  0.1351
  788MOL0     C 6267   3.610   5.141   2.525  0.1028 -0.7352 -0.0720
  788MOL0     C 6268   3.560   5.287   2.533  0.6531  0.2704  0.0704
  788MOL0     O 6269   3.651   5.364   2.607  0.5443 -0.0402 -0.4274
  788MOL0     C 6270   3.786   5.383   2.569  0.0016  0.7737 -0.4199
  788MOL0     C 6271   3.870   5.425   2.666  0.8524  0.0454  0.4064
  788MOL0     C 6272   4.000   5.452   2.644 -0.8196 -0.5411 -0.0407
  788MOL0     C 6273   4.061   5.440   2.514  0.5793 -0.7463 -0.0569
  788MOL0     C 6274   4.202   5.476   2.499 -0.7152  1.4158  0.1171
  788MOL0     O 6275   4.275   5.486   2.605  0.0607  0.3277 -0.0624
  788MOL0     C 6276   4.408   5.524   2.598  0.3096 -0.6814 -0.2684
  788MOL0     C 6277   4.502   5.450   2.527 -0.0662  0.7381 -0.4764
  788MOL0     C 6278   4.638   5.480   2.510 -0.6917 -0.8162  0.1768
  788MOL0     C 6279   4.684   5.585   2.588  0.5560 -0.8630  0.7713
  788MOL0     O 6280   4.813   5.622   2.594  0.3782  0.1606  0.2583
  788MOL0     C 6281   4.907   5.579   2.496 -0.0474 -0.1732 -0.4737
  788MOL0     C 6282   4.895   5.628   2.356  0.2810 -0.0158 -0.6484
  788MOL0     C 6283   4.994   5.577   2.254 -0.0336 -0.3446  0.3378
  788MOL0     C 6284   4.930   5.588   2.111 -0.1629  0.6027 -0.6168
  788MOL0     C 6285   5.014   5.516   2.003  0.1825  0.9595 -0.3791
  788MOL0     C 6286   5.008   5.364   2.003  0.0418  0.0983 -0.0724
  788MOL0     C 6287   5.100   5.301   1.899  0.0894 -0.5270  0.4620
  788MOL0     C 6288   5.106   5.150   1.921  0.2124  0.7538 -0.3974
  788MOL0    Cl 6289   5.165   5.048   1.797 -0.1886  0.2213 -0.0064
  788MOL0     C 6290   4.590   5.660   2.669 -0.2243  0.7868 -0.4576
  788MOL0     C 6291   4.456   5.636   2.670 -0.1199 -0.4780  0.6265
  788MOL0     O 6292   4.236   5.514   2.389 -0.4648  0.4800 -0.4843
  788MOL0     C 6293   3.979   5.383   2.415 -0.4841 -1.0066 -1.1791
  788MOL0     C 6294   3.843   5.342   2.450 -0.0833  0.0430 -0.2811
  788MOL0     N 6295   3.473   4.664   2.500 -0.8854 -0.1316  1.6347
  788MOL0     N 6296   3.384   4.575   2.526  0.0217  0.5314  1.1966
  788MOL0     C 6297   2.831   5.202   2.171 -0.1795  0.5780  0.4623
  788MOL0     C 6298   2.851   5.341   2.168 -0.6666  0.8041 -0.5547
  788MOL0     C 6299   2.797   5.761   2.076  0.1107 -0.1445  0.5770
  788MOL0     C 6300   2.708   5.864   2.028  0.2249  0.2446  0.5540
  788MOL0     C 6301   2.764   5.977   1.981  0.0100 -1.1839  0.6409
  788MOL0     C 6302   2.895   6.000   1.984  0.2655 -0.7593 -0.0797
  788MOL0     O 6303   2.939   6.126   1.933 -0.8376  0.4520  0.0250
  788MOL0     C 6304   3.072   6.148   1.883  0.5747 -0.2352 -0.6409
  788MOL0     C 6305   3.091   6.275   1.791  0.2711 -0.7770 -0.6159
  788MOL0     C 6306   2.983   6.288   1.683  0.0185  0.0419  0.1370
  788MOL0     C 6307   2.988   6.420   1.613 -0.0349 -0.5524  0.0372
  788MOL0     C 6308   2.931   6.392   1.477 -0.3191  0.1324 -0.5939
  788MOL0     C 6309   2.888   6.377   1.361  0.4945  0.0441 -1.3208
  788MOL0     C 6310   2.984   5.914   2.039 -0.2449 -0.6135 -0.1658
  788MOL0     C 6311   2.940   5.793   2.094  0.4245  0.4495 -0.1734
  788MOL0     C 6312   3.048   5.711   2.168 -0.0205 -0.5013 -0.1324
  788MOL0     H 6313   2.584   5.436   2.357 -1.3047 -1.5749 -0.4788
  788MOL0     H 6314   2.534   5.196   2.311 -0.6799 -1.0736 -3.8934
  788MOL0     H 6315   2.810   4.942   2.105 -0.6842  0.2933  0.0771
  788MOL0     H 6316   2.862   4.971   2.275  0.0188  0.9180 -0.7323
  788MOL0     H 6317   2.759   4.724   2.185  1.3500  1.6602 -2.7965
  788MOL0     H 6318   2.607   4.796   2.238  0.5329 -1.1965 -1.0371
  788MOL0     H 6319   2.671   4.707   2.451 -1.2200  3.2156  3.1811
  788MOL0     H 6320   2.732   4.855   2.471 -1.2052 -0.5021  0.2201
  788MOL0     H 6321   2.881   4.616   2.358  0.3254  0.6972  0.5563
  788MOL0     H 6322   2.963   4.769   2.379  0.8502 -0.4879  1.1463
  788MOL0     H 6323   2.930   4.776   2.620  1.0992  0.2022  0.0901
  788MOL0     H 6324   2.859   4.602   2.609  1.0931  0.4150  2.7780
  788MOL0     H 6325   3.047   4.512   2.530 -1.5493 -0.7041 -1.5966
  788MOL0     H 6326   3.125   4.668   2.506  0.9233  2.2821  1.8407
  788MOL0     H 6327   3.032   4.547   2.772 -0.8322  1.4478  0.5363
  788MOL0     H 6328   3.096   4.713   2.762 -1.0408  0.0182  1.9912
  788MOL0     H 6329   3.274   4.550   2.833  0.0537  0.4928  0.0876
  788MOL0     H 6330   3.222   4.437   2.700 -0.2205  1.3008 -1.1685
  788MOL0     H 6331   3.360   4.787   2.772 -4.4255  0.2030 -0.7191
  788MOL0     H 6332   3.614   4.887   2.694  0.5010  0.2878  0.3255
  788MOL0     H 6333   3.632   4.878   2.512 -2.2478 -1.9393 -1.7854
  788MOL0     H 6334   3.424   5.038   2.512  1.1139  0.9230 -0.8633
  788MOL0     H 6335   3.467   5.078   2.685 -7.4410 -0.4381 -1.6545
  788MOL0     H 6336   3.641   5.123   2.422  2.7978  2.7826 -0.0882
  788MOL0     H 6337   3.701   5.121   2.583 -0.0324 -0.3773  0.2655
  788MOL0     H 6338   3.460   5.281   2.578 -0.4918 -1.2354 -2.4562
  788MOL0     H 6339   3.544   5.334   2.436 -1.2612  0.3811  0.3927
  788MOL0     H 6340   3.844   5.446   2.769  0.7743 -3.0551  1.1136
  788MOL0     H 6341   4.049   5.489   2.733  0.1508 -1.0497 -0.3467
  788MOL0     H 6342   4.467   5.357   2.484  1.5356 -0.6655  1.0831
  788MOL0     H 6343   4.697   5.412   2.449  2.5595  0.0204  2.2047
  788MOL0     H 6344   5.000   5.612   2.544 -2.1307  3.0801  1.7816
  788MOL0     H 6345   4.913   5.471   2.508  4.4245 -0.2130 -1.2575
  788MOL0     H 6346   4.796   5.596   2.323  1.2854 -0.9908 -2.9782
  788MOL0     H 6347   4.886   5.737   2.359  0.6627 -0.0041  0.7003
  788MOL0     H 6348   5.091   5.628   2.261 -0.1692  0.2606 -1.5700
  788MOL0     H 6349   5.016   5.470   2.268  0.9672 -0.6963 -3.0132
  788MOL0     H 6350   4.907   5.690   2.077 -4.9782  0.2798  0.9475
  788MOL0     H 6351   4.830   5.546   2.096 -0.1810  0.2169  0.5175
  788MOL0     H 6352   5.113   5.553   2.031  0.6163 -2.4131  3.4340
  788MOL0     H 6353   4.983   5.541   1.901  0.3605 -3.3589 -1.6715
  788MOL0     H 6354   5.031   5.329   2.104 -1.6901  2.6839  1.3453
  788MOL0     H 6355   4.903   5.348   1.976 -0.0328 -0.6720  0.6437
  788MOL0     H 6356   5.204   5.336   1.902  0.7442 -2.3578 -0.0796
  788MOL0     H 6357   5.065   5.324   1.798  0.9310 -3.0952 -0.4870
  788MOL0     H 6358   5.157   5.127   2.014  2.2456  0.8659 -1.4385
  788MOL0     H 6359   5.003   5.115   1.933 -1.0919  3.6860 -1.9572
  788MOL0     H 6360   4.640   5.734   2.731 -2.4983  1.5072  0.6067
  788MOL0     H 6361   4.400   5.694   2.743 -0.2499  3.5831 -2.3376
  788MOL0     H 6362   4.031   5.352   2.325  0.5280 -0.8635 -0.6603
  788MOL0     H 6363   3.797   5.291   2.366  2.4551 -1.9188 -0.5889
  788MOL0     H 6364   2.895   5.137   2.112 -0.8754 -0.9462  1.3243
  788MOL0     H 6365   2.941   5.368   2.114  1.7628  0.2688  2.8992
  788MOL0     H 6366   2.602   5.844   2.023  0.4493 -0.8442 -0.1625
  788MOL0     H 6367   2.705   6.063   1.950 -0.4311 -1.8294 -0.3284
  788MOL0     H 6368   3.110   6.062   1.828 -1.5473 -1.2014 -0.6853
  788MOL0     H 6369   3.145   6.167   1.963 -0.7166  0.3236  0.4430
  788MOL0     H 6370   3.189   6.297   1.746 -0.2777  1.6898 -0.6985
  788MOL0     H 6371   3.076   6.356   1.862 -5.5564 -2.3097  0.3853
  788MOL0     H 6372   2.881   6.276   1.723  0.4864 -0.3685  1.2551
  788MOL0     H 6373   3.006   6.214   1.606  0.8468  0.0028  0.4169
  788MOL0     H 6374   2.938   6.495   1.674  0.2030  1.6682 -2.3366
  788MOL0     H 6375   3.094   6.446   1.605 -0.2829  0.8577  1.0824
  788MOL0     H 6376   2.843   6.381   1.264 -3.4744  0.4508  0.3270
  788MOL0     H 6377   3.089   5.938   2.047 -0.5432  0.0663  2.5479
  788MOL0     H 6378   3.021   5.679   2.269  1.5806 -1.7747 -0.0684
  788MOL0     H 6379   3.060   5.622   2.106  1.5106 -0.8777  0.6593
  788MOL0     H 6380   3.132   5.781   2.174 -2.3075  2.7153 -2.2540
  789MOL0     O 6381   3.798   0.679   9.718 -1.3858  0.2229 -0.4807
  789MOL0     C 6382   3.761   0.792   9.681 -0.7080 -0.3345 -0.3724
  789MOL0     O 6383   3.728   0.823   9.554  0.2443 -0.4943 -0.6006
  789MOL0     C 6384   3.699   0.734   9.460 -0.8908 -0.2461 -0.3918
  789MOL0     C 6385   3.569   0.698   9.425  0.1074 -0.6894  0.9430
  789MOL0     C 6386   3.543   0.634   9.309 -0.1117 -1.0459  0.7969
  789MOL0     C 6387   3.642   0.596   9.222 -0.0243  0.6829  0.4298
  789MOL0     O 6388   3.599   0.528   9.106  0.2011 -0.4229  0.7459
  789MOL0     C 6389   3.677   0.538   8.990 -0.4092  0.3662 -0.0229
  789MOL0     C 6390   3.652   0.660   8.896 -0.2329  0.1367  0.0863
  789MOL0     C 6391   3.643   0.624   8.749 -0.3871 -1.1399  0.0524
  789MOL0     C 6392   3.749   0.527   8.703 -0.0868 -0.3495  0.3809
  789MOL0     C 6393   3.743   0.525   8.542  0.7602  0.6493  0.1847
  789MOL0     C 6394   3.756   0.663   8.473 -0.1428  0.5046  0.2247
  789MOL0     C 6395   3.810   0.667   8.325  0.9655  0.8562 -0.0174
  789MOL0     C 6396   3.761   0.803   8.249 -0.8637 -1.3036 -0.6084
  789MOL0     N 6397   3.805   0.810   8.113  0.2124  0.3720 -0.0557
  789MOL0     C 6398   3.924   0.759   8.064 -0.2725 -0.2873 -0.4505
  789MOL0     C 6399   3.911   0.767   7.923 -0.3597  0.6414 -0.8538
  789MOL0     C 6400   4.025   0.750   7.823  0.8364 -0.0156 -0.2768
  789MOL0     C 6401   4.115   0.870   7.805 -0.1442 -0.5142 -0.1124
  789MOL0     C 6402   4.140   0.895   7.657  0.1621  0.0045  0.0026
  789MOL0     C 6403   4.262   0.975   7.638 -0.1481  0.9858 -0.1045
  789MOL0     O 6404   4.318   0.964   7.507 -0.2429  0.1815 -0.0728
  789MOL0     C 6405   4.415   0.870   7.475  1.1949 -0.7108  0.3151
  789MOL0     C 6406   4.487   0.914   7.361  0.1823 -0.3581 -0.4460
  789MOL0     C 6407   4.600   0.838   7.324 -0.7134  0.3254  0.1970
  789MOL0     C 6408   4.637   0.717   7.393 -0.3503  0.7129 -0.1840
  789MOL0     C 6409   4.762   0.639   7.347  0.5425 -0.6833 -0.9144
  789MOL0     O 6410   4.786   0.530   7.414 -0.7132  0.2973 -0.4993
  789MOL0     C 6411   4.909   0.467   7.415  0.8049 -0.3238 -1.0373
  789MOL0     C 6412   4.953   0.410   7.535  1.2022  0.2016  0.3248
  789MOL0     C 6413   5.053   0.312   7.544 -0.1814  0.6854  0.4239
  789MOL0     C 6414   5.118   0.275   7.424  0.2638 -0.0548  0.2026
  789MOL0     O 6415   5.226   0.189   7.421 -0.0227  0.9122  0.2962
  789MOL0     C 6416   5.254   0.099   7.528  0.6541 -0.5296  0.9155
  789MOL0     C 6417   5.377   0.033   7.474 -0.4066 -0.5379  0.3726
  789MOL0     C 6418   5.447  -0.051   7.582 -0.3986  0.1457 -0.0198
  789MOL0     C 6419   5.586  -0.103   7.546 -0.0596  0.6307 -0.7083
  789MOL0     C 6420   5.649  -0.192   7.656 -0.8241 -0.0101  0.2048
  789MOL0     C 6421   5.569  -0.285   7.744 -0.4903 -0.1990 -0.5253
  789MOL0     C 6422   5.628  -0.321   7.876  0.7971  0.5234 -1.0954
  789MOL0     C 6423   5.749  -0.417   7.858  0.3221 -0.7543  0.3920
  789MOL0    Cl 6424   5.835  -0.410   8.014  0.2132 -0.0786 -0.3351
  789MOL0     C 6425   5.083   0.338   7.305 -0.3671  0.5349 -0.4564
  789MOL0     C 6426   4.971   0.423   7.299  0.0929 -0.5705  0.1977
  789MOL0     O 6427   4.834   0.698   7.269  0.2208 -0.1851  0.3510
  789MOL0     C 6428   4.560   0.677   7.497  1.0044  0.5803  0.1107
  789MOL0     C 6429   4.445   0.749   7.539 -0.3397 -0.6090  0.2050
  789MOL0     N 6430   3.782   0.814   7.898 -0.2063  0.5466 -0.1271
  789MOL0     N 6431   3.718   0.845   8.005  0.2489 -0.7822 -0.2262
  789MOL0     C 6432   3.781   0.615   9.267  0.7096  0.2382 -0.4923
  789MOL0     C 6433   3.802   0.688   9.382 -0.0649  0.3884  0.7435
  789MOL0     C 6434   3.740   0.895   9.791 -0.1239 -0.3316 -0.0248
  789MOL0     C 6435   3.811   0.873   9.908 -0.0496 -0.5468  0.4073
  789MOL0     C 6436   3.805   0.971  10.009 -0.6560 -0.4837 -0.4533
  789MOL0     C 6437   3.713   1.079  10.014  0.3541  0.4859  0.1897
  789MOL0     O 6438   3.697   1.158  10.121 -0.3480  0.1761 -0.0917
  789MOL0     C 6439   3.699   1.297  10.098 -0.6505 -0.5686 -0.2264
  789MOL0     C 6440   3.794   1.376  10.190 -0.0716  0.4831  0.3725
  789MOL0     C 6441   3.854   1.497  10.118  0.3610 -0.0186 -0.8086
  789MOL0     C 6442   3.917   1.588  10.223 -0.8612  0.8261 -0.2484
  789MOL0     C 6443   4.008   1.689  10.169  0.1374 -0.3811 -0.9872
  789MOL0     C 6444   4.088   1.783  10.159 -0.0683 -0.0521  0.2809
  789MOL0     C 6445   3.638   1.091   9.894 -0.1346  1.0683 -0.3836
  789MOL0     C 6446   3.657   1.010   9.774  1.1951  0.3698 -0.3464
  789MOL0     C 6447   3.563   1.044   9.660  0.6509 -0.0370 -0.2021
  789MOL0     H 6448   3.488   0.724   9.493 -0.6909 -1.0613  0.1581
  789MOL0     H 6449   3.444   0.602   9.276 -1.9477  2.9324  1.8071
  789MOL0     H 6450   3.785   0.518   8.994 -0.5345 -0.9657 -1.7471
  789MOL0     H 6451   3.637   0.456   8.928 -1.1293 -1.8217  3.0940
  789MOL0     H 6452   3.739   0.725   8.913 -0.1844 -0.2197  1.3036
  789MOL0     H 6453   3.560   0.716   8.915  0.3560  1.9365 -1.9184
  789MOL0     H 6454   3.644   0.713   8.686  0.5533  0.4406  2.1909
  789MOL0     H 6455   3.550   0.568   8.732 -0.5883 -0.9552  0.5346
  789MOL0     H 6456   3.840   0.570   8.746  0.2620  0.1821 -0.8564
  789MOL0     H 6457   3.729   0.426   8.739 -1.8669  0.5615  2.1318
  789MOL0     H 6458   3.816   0.458   8.495 -1.2059 -0.1154 -1.9745
  789MOL0     H 6459   3.646   0.479   8.518 -0.0508  3.2170 -1.8450
  789MOL0     H 6460   3.662   0.717   8.487  0.4243  1.2610  1.2902
  789MOL0     H 6461   3.831   0.723   8.525  0.0860 -1.7596  2.7155
  789MOL0     H 6462   3.774   0.582   8.267 -1.2530  0.3723  1.9014
  789MOL0     H 6463   3.919   0.673   8.332  0.9041  2.6582 -0.0614
  789MOL0     H 6464   3.652   0.799   8.250 -0.9120 -0.9365 -1.9453
  789MOL0     H 6465   3.797   0.886   8.311  0.7424 -3.0227  0.8695
  789MOL0     H 6466   4.014   0.726   8.113  0.9268 -1.3328 -3.1378
  789MOL0     H 6467   4.084   0.670   7.871 -0.4697 -2.0465 -1.9169
  789MOL0     H 6468   3.996   0.706   7.728  0.4499 -0.0688 -0.1352
  789MOL0     H 6469   4.059   0.958   7.837 -1.2995 -1.1734 -0.2422
  789MOL0     H 6470   4.207   0.859   7.863 -0.0307 -1.1262 -0.4022
  789MOL0     H 6471   4.049   0.947   7.626 -2.3938 -1.9249  3.4866
  789MOL0     H 6472   4.148   0.799   7.604 -1.9739 -0.3821  0.2576
  789MOL0     H 6473   4.332   0.953   7.719 -2.3577  3.6220  2.7571
  789MOL0     H 6474   4.240   1.081   7.655  0.2977  1.6129 -2.9997
  789MOL0     H 6475   4.461   1.000   7.300  1.2699  0.1585 -0.2151
  789MOL0     H 6476   4.660   0.873   7.241  0.1789 -1.9607 -0.2012
  789MOL0     H 6477   4.895   0.426   7.625  0.5011 -0.9855  0.1048
  789MOL0     H 6478   5.082   0.274   7.641  0.1151  3.4168  1.5042
  789MOL0     H 6479   5.257   0.149   7.625  1.9620  1.8325 -0.2623
  789MOL0     H 6480   5.183   0.016   7.535 -0.1364  0.2520  5.1463
  789MOL0     H 6481   5.359  -0.024   7.382 -0.7466 -0.8898  0.6599
  789MOL0     H 6482   5.441   0.122   7.461  0.4742 -0.9965  1.4472
  789MOL0     H 6483   5.457   0.007   7.674 -1.7733 -1.4025  1.1627
  789MOL0     H 6484   5.386  -0.142   7.587 -1.2968  0.2290 -4.6265
  789MOL0     H 6485   5.642  -0.016   7.511 -3.8937  3.1664 -1.2469
  789MOL0     H 6486   5.567  -0.162   7.456  1.4278  0.9334 -1.2459
  789MOL0     H 6487   5.691  -0.118   7.724  0.3422 -0.6846  0.2378
  789MOL0     H 6488   5.739  -0.235   7.611 -0.2972  0.5474  0.6987
  789MOL0     H 6489   5.475  -0.235   7.770  0.6420  0.7114  2.1917
  789MOL0     H 6490   5.549  -0.372   7.682  0.7665  0.1532 -1.4747
  789MOL0     H 6491   5.551  -0.370   7.937  0.6190  1.7392 -0.3132
  789MOL0     H 6492   5.648  -0.232   7.936 -2.0999 -0.1934  1.1973
  789MOL0     H 6493   5.728  -0.520   7.826  2.1110 -0.6924 -1.1598
  789MOL0     H 6494   5.816  -0.362   7.791 -1.1408  0.3433 -0.2231
  789MOL0     H 6495   5.132   0.323   7.209  0.1084  3.4060 -0.7509
  789MOL0     H 6496   4.961   0.471   7.202  2.0449  2.1062  1.2058
  789MOL0     H 6497   4.595   0.595   7.559  0.9275  0.0083 -0.5851
  789MOL0     H 6498   4.390   0.717   7.627  0.3888 -0.5795  0.6795
  789MOL0     H 6499   3.867   0.577   9.212 -0.0583 -1.5929 -0.4949
  789MOL0     H 6500   3.904   0.721   9.395  0.3876 -0.4534 -0.4873
  789MOL0     H 6501   3.872   0.783   9.911 -0.4313 -1.0104 -2.5076
  789MOL0     H 6502   3.857   0.946  10.101 -1.4191 -3.2103 -0.6797
  789MOL0     H 6503   3.603   1.349  10.106 -0.6046  0.7735 -5.1657
  789MOL0     H 6504   3.739   1.315   9.998 -1.3729  2.1906 -0.1100
  789MOL0     H 6505   3.875   1.312  10.224 -1.4645 -2.5245 -1.5240
  789MOL0     H 6506   3.742   1.414  10.279  0.8961  0.4611  0.9589
  789MOL0     H 6507   3.775   1.558  10.074 -0.8849 -0.0734  1.2388
  789MOL0     H 6508   3.927   1.474  10.040  2.8864 -0.0448  1.4213
  789MOL0     H 6509   3.838   1.638  10.279 -1.4637  0.0190 -0.3642
  789MOL0     H 6510   3.969   1.535  10.304 -3.7161 -2.0251 -0.1033
  789MOL0     H 6511   4.166   1.855  10.174  0.5822 -0.2775 -1.8027
  789MOL0     H 6512   3.560   1.165   9.904 -2.4715 -1.3659  0.4766
  789MOL0     H 6513   3.519   0.947   9.636 -0.7050  0.8333 -1.3832
  789MOL0     H 6514   3.487   1.119   9.683  1.0057  0.9731 -2.1115
  789MOL0     H 6515   3.621   1.090   9.579 -0.8956  2.3211 -0.0468
  790MOL0     O 6516   0.646   9.183   2.302 -0.5271  0.0340 -0.2944
  790MOL0     C 6517   0.655   9.084   2.231  0.0420  0.1977  0.1133
  790MOL0     O 6518   0.740   9.069   2.129 -0.5104  0.5170  0.8782
  790MOL0     C 6519   0.792   9.179   2.089  0.3939 -1.0295 -0.2569
  790MOL0     C 6520   0.930   9.193   2.116  0.2399 -0.8722 -0.0174
  790MOL0     C 6521   0.986   9.314   2.079 -0.8776 -0.3000 -0.5409
  790MOL0     C 6522   0.914   9.424   2.028 -0.3994  0.1000  0.3039
  790MOL0     O 6523   0.982   9.541   1.988 -0.0332  0.2019  0.2070
  790MOL0     C 6524   1.039   9.599   2.104  0.5166 -0.7635 -0.5178
  790MOL0     C 6525   1.028   9.753   2.096  0.6627  0.0536  1.0913
  790MOL0     C 6526   0.880   9.798   2.094 -1.6279 -0.2420 -0.2272
  790MOL0     C 6527   0.842   9.859   2.236  0.1169  1.4880 -0.7152
  790MOL0     C 6528   0.689   9.834   2.250 -0.7456  0.1267  0.5530
  790MOL0     C 6529   0.668   9.688   2.268  0.1127  0.6794 -0.0310
  790MOL0     C 6530   0.527   9.650   2.204  1.1708  0.3382  0.3075
  790MOL0     C 6531   0.496   9.497   2.241  0.6254 -0.7742  0.8212
  790MOL0     N 6532   0.368   9.460   2.182  0.1334 -0.0309  0.0894
  790MOL0     C 6533   0.334   9.330   2.143  0.2221  0.2034 -0.2105
  790MOL0     C 6534   0.200   9.340   2.114 -0.1317 -0.2785  1.0356
  790MOL0     C 6535   0.103   9.234   2.051  0.3324 -0.3720 -0.3365
  790MOL0     C 6536   0.111   9.090   2.101  0.2502  0.4106  0.1853
  790MOL0     C 6537   0.017   8.992   2.022 -0.5093  0.8678 -0.0034
  790MOL0     C 6538   0.099   8.865   1.973  0.0938 -0.0931 -0.0649
  790MOL0     O 6539   0.114   8.758   2.063 -0.2990  0.1316  0.3356
  790MOL0     C 6540   0.024   8.658   2.066  1.0164 -0.0386 -0.7673
  790MOL0     C 6541   0.054   8.562   2.161 -0.5985  0.6774  0.3296
  790MOL0     C 6542  -0.049   8.468   2.193 -0.5665 -0.0279 -0.8302
  790MOL0     C 6543  -0.171   8.471   2.127  0.4075 -0.4394  0.2335
  790MOL0     C 6544  -0.289   8.395   2.173  0.1858 -0.6719 -0.2525
  790MOL0     O 6545  -0.279   8.335   2.296  0.5344 -0.4403 -0.6771
  790MOL0     C 6546  -0.389   8.263   2.353 -0.3162  0.0794  1.5459
  790MOL0     C 6547  -0.453   8.165   2.288 -0.6465  0.0474 -0.1002
  790MOL0     C 6548  -0.564   8.107   2.341  0.7058 -0.3924  0.8554
  790MOL0     C 6549  -0.617   8.161   2.465  0.3277 -0.1767  0.0922
  790MOL0     O 6550  -0.745   8.127   2.500 -0.2498 -0.1070  0.5601
  790MOL0     C 6551  -0.829   8.201   2.596 -0.0563 -0.1027  0.3295
  790MOL0     C 6552  -0.945   8.107   2.612  0.1354  0.4849  0.0535
  790MOL0     C 6553  -1.033   8.106   2.486  0.1032  0.2429 -0.0568
  790MOL0     C 6554  -1.123   8.226   2.482 -0.1806  0.3199  0.1566
  790MOL0     C 6555  -1.203   8.254   2.353 -0.1101 -0.0298  0.5562
  790MOL0     C 6556  -1.244   8.133   2.272 -0.1279  0.7642  0.2458
  790MOL0     C 6557  -1.341   8.042   2.347 -0.4627  0.4389  0.3669
  790MOL0     C 6558  -1.464   8.005   2.269  0.4515 -0.6469 -0.0776
  790MOL0    Cl 6559  -1.536   8.163   2.216  0.2913 -0.4253  0.5762
  790MOL0     C 6560  -0.551   8.277   2.526 -0.4586 -0.2668 -0.5132
  790MOL0     C 6561  -0.427   8.316   2.478  0.5634 -0.4679  0.4447
  790MOL0     O 6562  -0.395   8.393   2.109 -0.0443  0.2387  0.0608
  790MOL0     C 6563  -0.194   8.560   2.025 -0.1455  0.2464 -0.0659
  790MOL0     C 6564  -0.100   8.660   1.999 -0.3812  0.1855  0.6633
  790MOL0     N 6565   0.156   9.472   2.135  0.1562  0.2455 -0.0845
  790MOL0     N 6566   0.255   9.541   2.174  0.4087 -0.4725  0.2762
  790MOL0     C 6567   0.781   9.407   1.997  0.9524 -0.9831 -0.3534
  790MOL0     C 6568   0.722   9.285   2.023 -0.4376  0.8116  0.1883
  790MOL0     C 6569   0.595   8.955   2.274 -0.8158 -1.1026  0.4014
  790MOL0     C 6570   0.670   8.846   2.238  0.2617  0.4142  0.6332
  790MOL0     C 6571   0.640   8.715   2.284  0.6178 -0.6147 -0.1695
  790MOL0     C 6572   0.525   8.706   2.364  0.3893  0.8394 -0.3171
  790MOL0     O 6573   0.488   8.588   2.416 -0.0462  0.3005 -0.2880
  790MOL0     C 6574   0.534   8.469   2.353 -1.2307  0.5050 -0.7946
  790MOL0     C 6575   0.463   8.349   2.423  0.3730  0.8010 -0.6401
  790MOL0     C 6576   0.315   8.346   2.371  0.4174  0.7564 -0.0382
  790MOL0     C 6577   0.275   8.197   2.359 -0.5228 -0.0659 -0.2985
  790MOL0     C 6578   0.216   8.158   2.491 -0.0982 -0.4966 -0.3034
  790MOL0     C 6579   0.186   8.125   2.606  0.5761  0.1656 -0.1458
  790MOL0     C 6580   0.443   8.812   2.392  0.0926  0.1354 -0.3758
  790MOL0     C 6581   0.473   8.943   2.339  0.2033 -0.8336  0.1549
  790MOL0     C 6582   0.379   9.064   2.384 -0.4670  0.5204  0.6774
  790MOL0     H 6583   0.977   9.108   2.165 -2.5750 -2.0001  0.9351
  790MOL0     H 6584   1.092   9.333   2.093 -1.2011  2.2271 -1.0172
  790MOL0     H 6585   0.992   9.572   2.199  2.6496 -5.2094 -0.4573
  790MOL0     H 6586   1.144   9.569   2.108  0.3863 -1.4289 -1.6476
  790MOL0     H 6587   1.065   9.797   2.003  1.4294 -0.3507  1.1983
  790MOL0     H 6588   1.085   9.797   2.179 -0.9230  2.8852  0.8069
  790MOL0     H 6589   0.812   9.723   2.052 -0.8297 -2.2403  1.8149
  790MOL0     H 6590   0.866   9.871   2.014  2.5552 -1.2208 -2.1087
  790MOL0     H 6591   0.894   9.805   2.316  2.7305  2.6099 -1.5358
  790MOL0     H 6592   0.863   9.967   2.240 -1.9651  1.8822  1.0102
  790MOL0     H 6593   0.662   9.896   2.336 -1.1048 -1.4043  1.5974
  790MOL0     H 6594   0.635   9.865   2.160 -0.2526 -0.7490 -0.0672
  790MOL0     H 6595   0.749   9.627   2.226  0.0652  0.0423  0.7795
  790MOL0     H 6596   0.663   9.656   2.373  0.3159  0.3017 -0.1337
  790MOL0     H 6597   0.534   9.658   2.095  2.1917 -0.8057  0.2703
  790MOL0     H 6598   0.443   9.705   2.247  1.0453 -0.5537  1.2274
  790MOL0     H 6599   0.568   9.425   2.198  1.4445  1.1765 -1.2904
  790MOL0     H 6600   0.491   9.491   2.350  0.5415  0.6506  0.9092
  790MOL0     H 6601   0.386   9.235   2.136 -1.8765 -0.8701 -4.3348
  790MOL0     H 6602  -0.004   9.260   2.050 -0.5653 -2.6878 -6.3301
  790MOL0     H 6603   0.131   9.230   1.945  1.3530  1.4726 -0.1792
  790MOL0     H 6604   0.214   9.054   2.092 -0.7244 -3.9181  3.0512
  790MOL0     H 6605   0.089   9.090   2.208  2.9221  1.4184  0.8140
  790MOL0     H 6606  -0.007   9.047   1.931  0.5796 -0.7681 -1.3363
  790MOL0     H 6607  -0.077   8.959   2.069  0.6537 -1.5816  0.7669
  790MOL0     H 6608   0.195   8.898   1.933  1.2879 -3.3985 -0.2355
  790MOL0     H 6609   0.063   8.828   1.876  1.2807 -0.7149 -0.2865
  790MOL0     H 6610   0.140   8.585   2.224 -1.3174  0.9300  1.2513
  790MOL0     H 6611  -0.047   8.409   2.284  1.5643  2.5503  0.9386
  790MOL0     H 6612  -0.423   8.132   2.189 -1.6379 -0.3122 -0.2902
  790MOL0     H 6613  -0.627   8.043   2.280  2.3085  0.3689 -1.7717
  790MOL0     H 6614  -0.770   8.204   2.688  2.4736 -2.4873 -1.0810
  790MOL0     H 6615  -0.858   8.298   2.555 -2.8974 -0.9282  0.1581
  790MOL0     H 6616  -0.911   8.012   2.654 -1.8971  0.4747  1.8520
  790MOL0     H 6617  -1.007   8.148   2.692  0.2640 -0.0229  0.4198
  790MOL0     H 6618  -0.962   8.101   2.403 -0.2589 -1.7807 -0.3156
  790MOL0     H 6619  -1.095   8.015   2.487  0.1997  0.1326  2.6092
  790MOL0     H 6620  -1.061   8.311   2.514  1.5854 -0.6143 -0.6492
  790MOL0     H 6621  -1.196   8.216   2.563  0.4405  0.9082  0.8052
  790MOL0     H 6622  -1.150   8.325   2.288 -2.4076  0.1502 -1.2260
  790MOL0     H 6623  -1.298   8.303   2.373 -1.2088 -1.3787 -1.1425
  790MOL0     H 6624  -1.271   8.169   2.172  2.1113  0.2880 -0.5813
  790MOL0     H 6625  -1.156   8.078   2.239  1.3955  3.9216 -1.3863
  790MOL0     H 6626  -1.364   8.084   2.445  1.3493  0.2692  0.9079
  790MOL0     H 6627  -1.293   7.947   2.373  0.2314  0.6219 -0.2107
  790MOL0     H 6628  -1.445   7.933   2.189 -3.0490 -2.9773  0.9122
  790MOL0     H 6629  -1.541   7.963   2.335  0.9640 -3.7157 -1.2299
  790MOL0     H 6630  -0.569   8.321   2.624  0.8849 -2.2581  0.7015
  790MOL0     H 6631  -0.386   8.402   2.530 -1.2911  0.7509 -0.0012
  790MOL0     H 6632  -0.292   8.573   1.980  1.3088 -0.7081 -3.9165
  790MOL0     H 6633  -0.108   8.732   1.918  2.8032  2.4553  2.1738
  790MOL0     H 6634   0.718   9.485   1.953 -1.1071 -2.6835 -0.5500
  790MOL0     H 6635   0.620   9.288   1.985 -0.7290 -1.2856  0.7004
  790MOL0     H 6636   0.765   8.851   2.186 -0.5015 -0.3448 -0.9041
  790MOL0     H 6637   0.710   8.632   2.272  1.4372 -0.4128  2.5815
  790MOL0     H 6638   0.642   8.454   2.351 -1.3709 -0.6990  0.1128
  790MOL0     H 6639   0.499   8.471   2.249  0.3615  0.4071 -1.3587
  790MOL0     H 6640   0.453   8.371   2.530  0.6826  1.6430 -0.7783
  790MOL0     H 6641   0.522   8.257   2.422  2.3386  1.9902 -0.9541
  790MOL0     H 6642   0.304   8.393   2.272 -2.0456  0.7294  0.1479
  790MOL0     H 6643   0.245   8.403   2.432 -0.6946 -1.9792  1.4164
  790MOL0     H 6644   0.202   8.194   2.278 -1.6331  1.1280  0.6100
  790MOL0     H 6645   0.358   8.127   2.346  2.0276  1.7605  4.0185
  790MOL0     H 6646   0.168   8.096   2.707  0.7531 -3.2681 -0.9534
  790MOL0     H 6647   0.360   8.793   2.459  0.5225  3.4072  1.3090
  790MOL0     H 6648   0.288   9.027   2.432 -2.1457  1.0809 -1.8260
  790MOL0     H 6649   0.427   9.136   2.451 -0.8499 -0.3118  1.8601
  790MOL0     H 6650   0.338   9.123   2.301  1.4130  0.1056 -0.5959
  791MOL0     O 6651   6.387   2.768   0.924 -0.7118  0.9747 -0.0573
  791MOL0     C 6652   6.316   2.738   0.834  0.2051 -0.3412 -0.1819
  791MOL0     O 6653   6.288   2.612   0.791  0.4063  0.8512  0.2678
  791MOL0     C 6654   6.344   2.502   0.858  1.0048 -0.7542 -0.5963
  791MOL0     C 6655   6.479   2.492   0.882 -0.3110  0.4074 -0.2149
  791MOL0     C 6656   6.535   2.373   0.935 -0.0419 -0.1595  0.0079
  791MOL0     C 6657   6.450   2.271   0.980  0.0558 -0.9329  0.4440
  791MOL0     O 6658   6.508   2.159   1.022 -0.2931 -0.7727 -0.1409
  791MOL0     C 6659   6.598   2.164   1.122 -0.2360  0.0123 -0.3578
  791MOL0     C 6660   6.668   2.037   1.155 -0.8542  0.3001 -0.1585
  791MOL0     C 6661   6.772   2.022   1.045 -0.4339 -0.3571 -0.1110
  791MOL0     C 6662   6.841   1.889   1.053 -0.7984  0.3282 -1.0116
  791MOL0     C 6663   6.931   1.862   0.936 -0.1484  0.9785  0.2009
  791MOL0     C 6664   7.032   1.967   0.922  0.3822  0.0447  1.5699
  791MOL0     C 6665   7.121   1.950   0.790  0.4096 -1.0477 -0.2711
  791MOL0     C 6666   7.216   1.831   0.810  0.3991  0.0487 -0.0628
  791MOL0     N 6667   7.307   1.839   0.922  0.3194  0.0265  0.2506
  791MOL0     C 6668   7.282   1.790   1.047 -0.6401 -0.4033  0.8350
  791MOL0     C 6669   7.394   1.828   1.115  0.0037  0.4881  0.6186
  791MOL0     C 6670   7.416   1.792   1.267  0.0785 -0.8187  0.3352
  791MOL0     C 6671   7.441   1.904   1.373 -0.0860  0.5066 -0.7379
  791MOL0     C 6672   7.342   2.008   1.378  0.6424 -0.5636  0.9447
  791MOL0     C 6673   7.207   1.953   1.399  0.3487 -0.2575 -0.0158
  791MOL0     O 6674   7.131   2.032   1.494 -0.8092 -0.1409  0.0949
  791MOL0     C 6675   7.115   1.977   1.621  0.0687 -0.5715  0.5186
  791MOL0     C 6676   7.001   2.033   1.685 -0.3125  0.0678 -0.2947
  791MOL0     C 6677   6.968   1.998   1.812  0.4344  1.1500 -0.2366
  791MOL0     C 6678   7.026   1.890   1.871  0.1817  1.1610 -0.3449
  791MOL0     C 6679   6.961   1.819   1.987  0.3595  0.2030 -0.2994
  791MOL0     O 6680   7.002   1.696   2.037  0.1755 -0.8232 -0.5075
  791MOL0     C 6681   6.941   1.636   2.148 -0.3132 -0.1791  0.1096
  791MOL0     C 6682   7.016   1.603   2.256  0.2519 -0.3750  0.0445
  791MOL0     C 6683   6.967   1.538   2.366  0.0403 -0.3341  0.0542
  791MOL0     C 6684   6.827   1.499   2.371 -0.3425 -0.3322 -0.1800
  791MOL0     O 6685   6.781   1.411   2.468 -0.1652 -0.4300 -0.3768
  791MOL0     C 6686   6.812   1.445   2.604  0.3691  0.3236  0.8524
  791MOL0     C 6687   6.742   1.352   2.709 -1.6168 -0.2258  0.2387
  791MOL0     C 6688   6.592   1.319   2.701  0.6430  0.2367  0.1552
  791MOL0     C 6689   6.506   1.434   2.664  0.1851 -0.3746  0.5485
  791MOL0     C 6690   6.487   1.528   2.783 -0.0827  0.2025 -0.2086
  791MOL0     C 6691   6.411   1.654   2.747  0.8358 -0.7721  0.1622
  791MOL0     C 6692   6.421   1.759   2.858 -0.8050 -0.1049 -0.1135
  791MOL0     C 6693   6.570   1.817   2.868  1.1022 -0.6458  0.2577
  791MOL0    Cl 6694   6.611   1.907   2.722  0.2207 -0.0392  0.3746
  791MOL0     C 6695   6.745   1.534   2.263 -0.0540 -0.3542  0.5403
  791MOL0     C 6696   6.798   1.606   2.151  0.3792  0.1801 -0.3476
  791MOL0     O 6697   6.861   1.881   2.024 -0.4331  0.2476  0.5398
  791MOL0     C 6698   7.130   1.823   1.801 -0.5561  0.0892 -0.6897
  791MOL0     C 6699   7.175   1.872   1.685 -0.5395 -0.2522 -0.1262
  791MOL0     N 6700   7.484   1.894   1.027 -0.3915  0.8091  0.3230
  791MOL0     N 6701   7.423   1.908   0.916 -0.2285 -0.0731 -0.0782
  791MOL0     C 6702   6.319   2.274   0.943  0.2507  0.3551 -0.4172
  791MOL0     C 6703   6.266   2.391   0.900  0.1776 -0.0643  0.0652
  791MOL0     C 6704   6.240   2.854   0.767 -0.5628  0.3752  0.1331
  791MOL0     C 6705   6.176   2.834   0.644  0.7789  0.0505  1.0052
  791MOL0     C 6706   6.111   2.938   0.582  0.4304  0.3656  1.5387
  791MOL0     C 6707   6.102   3.063   0.632 -1.0410 -0.0246 -0.2166
  791MOL0     O 6708   6.043   3.170   0.571  0.0225 -0.0806  0.5953
  791MOL0     C 6709   5.976   3.143   0.445  0.3507  1.2580  0.4414
  791MOL0     C 6710   5.901   3.272   0.410  0.2214 -1.1459  0.1854
  791MOL0     C 6711   5.810   3.334   0.524 -0.7865  1.1142  0.5710
  791MOL0     C 6712   5.728   3.452   0.478 -0.2587 -0.1083 -0.5145
  791MOL0     C 6713   5.599   3.411   0.419  0.5279 -0.7228  0.7333
  791MOL0     C 6714   5.501   3.364   0.365 -0.4221  0.6104 -0.0865
  791MOL0     C 6715   6.172   3.085   0.756  0.1344 -0.0678  0.9612
  791MOL0     C 6716   6.230   2.982   0.826  0.6018 -0.4491  0.0370
  791MOL0     C 6717   6.275   3.003   0.970  0.1116 -0.2104  0.4969
  791MOL0     H 6718   6.541   2.571   0.843  1.3900  0.4986  2.4999
  791MOL0     H 6719   6.643   2.367   0.941  0.2747  2.6736 -1.3111
  791MOL0     H 6720   6.681   2.234   1.104  0.9567 -1.0577  0.7196
  791MOL0     H 6721   6.545   2.177   1.217  0.3374 -1.2009  0.1551
  791MOL0     H 6722   6.595   1.956   1.166 -0.6475  0.2944  1.4832
  791MOL0     H 6723   6.728   2.032   1.247  0.3023  0.8394 -0.8618
  791MOL0     H 6724   6.851   2.096   1.055 -1.0683  0.6673 -2.1082
  791MOL0     H 6725   6.728   2.043   0.947 -2.6768 -0.2682  0.8544
  791MOL0     H 6726   6.891   1.872   1.149 -2.9844 -3.0461 -0.2976
  791MOL0     H 6727   6.772   1.806   1.063 -0.8501  0.6157  2.1399
  791MOL0     H 6728   6.977   1.771   0.976 -2.3569  1.1665  3.5358
  791MOL0     H 6729   6.869   1.847   0.848 -0.6966  2.4266  0.3069
  791MOL0     H 6730   6.995   2.064   0.888 -2.7961 -1.3636  0.5819
  791MOL0     H 6731   7.082   1.977   1.018  0.0724  2.9925  1.5187
  791MOL0     H 6732   7.178   2.043   0.781 -1.6155  0.2880 -0.1409
  791MOL0     H 6733   7.081   1.944   0.688  1.6133  1.4335 -0.9504
  791MOL0     H 6734   7.168   1.733   0.802  2.5500 -1.1837  1.4273
  791MOL0     H 6735   7.288   1.818   0.728 -0.5592  0.4138 -0.9949
  791MOL0     H 6736   7.190   1.747   1.085 -0.8456  0.2490  1.0894
  791MOL0     H 6737   7.337   1.729   1.310 -0.2904 -0.9477 -0.5070
  791MOL0     H 6738   7.510   1.736   1.267  0.5679 -0.0259 -0.3382
  791MOL0     H 6739   7.440   1.858   1.472 -0.6280 -3.4342 -2.3683
  791MOL0     H 6740   7.537   1.950   1.349  0.2074  0.2410 -0.0788
  791MOL0     H 6741   7.343   2.037   1.273  1.1750 -1.9085  0.5650
  791MOL0     H 6742   7.364   2.090   1.447 -4.1544  1.1481  0.8200
  791MOL0     H 6743   7.222   1.851   1.434  0.6251 -0.2450 -0.0911
  791MOL0     H 6744   7.144   1.946   1.310 -1.0953 -0.6012  0.9912
  791MOL0     H 6745   6.934   2.098   1.631 -1.7774 -1.9724 -1.0590
  791MOL0     H 6746   6.872   2.034   1.849  0.1151  0.8601 -0.7717
  791MOL0     H 6747   7.123   1.612   2.245  0.1065 -0.8579 -2.1244
  791MOL0     H 6748   7.035   1.512   2.446  1.2670 -0.3318 -0.9536
  791MOL0     H 6749   6.917   1.415   2.611  0.1372 -0.6820  0.2035
  791MOL0     H 6750   6.798   1.551   2.629  1.2522  0.5341  0.5049
  791MOL0     H 6751   6.799   1.258   2.711 -0.4343  0.4968  2.2289
  791MOL0     H 6752   6.755   1.400   2.806 -4.5833  3.4267 -0.9730
  791MOL0     H 6753   6.585   1.247   2.619 -0.4720 -0.8205  1.1379
  791MOL0     H 6754   6.567   1.268   2.795  0.9545 -0.6149 -0.2200
  791MOL0     H 6755   6.405   1.397   2.643  0.6944  0.1615 -3.6652
  791MOL0     H 6756   6.535   1.488   2.574 -2.2610  1.3510  0.6901
  791MOL0     H 6757   6.586   1.567   2.812  0.4441 -1.2907  0.0908
  791MOL0     H 6758   6.440   1.476   2.867 -4.0537 -0.2588 -2.4699
  791MOL0     H 6759   6.437   1.693   2.648 -2.5123  2.4826  0.3475
  791MOL0     H 6760   6.303   1.637   2.743  0.4280  1.7100 -1.7400
  791MOL0     H 6761   6.389   1.720   2.955  1.7863 -1.0379  0.4468
  791MOL0     H 6762   6.363   1.848   2.833  0.0726  0.3286 -0.6661
  791MOL0     H 6763   6.577   1.883   2.955 -1.7121  0.4466 -0.2214
  791MOL0     H 6764   6.647   1.740   2.877 -3.3692 -5.6979  0.4269
  791MOL0     H 6765   6.638   1.514   2.257 -0.4470  1.7143 -0.2633
  791MOL0     H 6766   6.736   1.638   2.068  1.2931  0.1368 -1.0591
  791MOL0     H 6767   7.171   1.733   1.846 -0.3677  0.7584  0.5372
  791MOL0     H 6768   7.258   1.817   1.642 -0.3494 -1.2842  1.5058
  791MOL0     H 6769   6.246   2.196   0.958  0.9494 -0.2945 -0.3160
  791MOL0     H 6770   6.161   2.397   0.873  0.0435  3.3255  0.8118
  791MOL0     H 6771   6.168   2.739   0.592 -2.7727  1.1309 -0.7066
  791MOL0     H 6772   6.069   2.912   0.486  1.2085  2.4810  0.5707
  791MOL0     H 6773   5.893   3.073   0.458  0.7558  0.7126  0.1181
  791MOL0     H 6774   6.037   3.108   0.362 -0.7880  0.5789 -0.1406
  791MOL0     H 6775   5.844   3.253   0.319  2.8677 -6.5507 -0.7420
  791MOL0     H 6776   5.973   3.348   0.379 -1.8737  0.3467 -1.2718
  791MOL0     H 6777   5.884   3.368   0.597  1.9748  2.6225 -2.6402
  791MOL0     H 6778   5.755   3.244   0.551  0.0318  0.4612  0.0967
  791MOL0     H 6779   5.705   3.512   0.567  0.2611 -0.2577 -0.2796
  791MOL0     H 6780   5.787   3.506   0.403 -0.8929  0.3007 -0.7324
  791MOL0     H 6781   5.436   3.312   0.298  1.9051  0.7634 -2.6559
  791MOL0     H 6782   6.167   3.192   0.775 -0.8726  0.1664 -0.4145
  791MOL0     H 6783   6.384   3.015   0.976  0.1850 -1.3140  2.3052
  791MOL0     H 6784   6.241   3.098   1.012  5.3481  0.9986  2.8534
  791MOL0     H 6785   6.240   2.925   1.038  0.7765  0.0099  1.1134
  792MOL0     O 6786   8.090   5.104   4.506 -0.1323 -0.4898 -0.3694
  792MOL0     C 6787   8.023   5.162   4.588 -0.1475  0.1634 -0.5364
  792MOL0     O 6788   8.068   5.222   4.701  0.4471 -0.2516  0.2072
  792MOL0     C 6789   8.193   5.217   4.750 -0.0905  0.1747  0.2766
  792MOL0     C 6790   8.216   5.205   4.886 -0.5618 -0.9869 -0.3833
  792MOL0     C 6791   8.339   5.223   4.943  1.0713 -0.0357 -0.6008
  792MOL0     C 6792   8.450   5.261   4.861 -0.5412  0.5429  0.1557
  792MOL0     O 6793   8.579   5.293   4.912  0.2021 -0.1552  0.7584
  792MOL0     C 6794   8.586   5.287   5.053  0.1756 -0.4377 -0.3136
  792MOL0     C 6795   8.728   5.276   5.100  0.0676 -0.2137 -0.1173
  792MOL0     C 6796   8.739   5.350   5.237 -0.1704 -0.1807  0.6600
  792MOL0     C 6797   8.720   5.244   5.343  0.6449  0.0269 -0.0593
  792MOL0     C 6798   8.757   5.299   5.471 -0.1556  0.6397 -0.0731
  792MOL0     C 6799   8.710   5.238   5.604 -0.4675 -0.2146 -0.0691
  792MOL0     C 6800   8.753   5.095   5.628  0.4463  1.7213 -0.3984
  792MOL0     C 6801   8.662   5.023   5.725 -0.3763 -0.0424  0.1385
  792MOL0     N 6802   8.626   5.091   5.848  0.0094  0.3264 -0.2816
  792MOL0     C 6803   8.709   5.112   5.950  0.8027 -0.2138 -0.6337
  792MOL0     C 6804   8.618   5.165   6.038  0.8232 -0.8389 -0.6878
  792MOL0     C 6805   8.660   5.223   6.165 -0.2393  0.2076  0.2712
  792MOL0     C 6806   8.673   5.109   6.257  0.3566  0.1351  0.1520
  792MOL0     C 6807   8.659   5.142   6.403  0.2981  0.3042  0.0738
  792MOL0     C 6808   8.760   5.230   6.472 -0.8285  0.2571 -0.7283
  792MOL0     O 6809   8.718   5.367   6.468 -0.0368 -0.3921 -0.5295
  792MOL0     C 6810   8.619   5.412   6.554  0.4343 -0.6900 -0.3999
  792MOL0     C 6811   8.579   5.541   6.536  0.8283  0.1017 -0.7332
  792MOL0     C 6812   8.470   5.603   6.607 -0.6417  0.1567  0.2658
  792MOL0     C 6813   8.424   5.537   6.719 -0.5933  0.4925 -0.1246
  792MOL0     C 6814   8.330   5.607   6.811 -0.6549  0.4605 -0.8667
  792MOL0     O 6815   8.257   5.529   6.897 -0.0252  0.1028 -0.2775
  792MOL0     C 6816   8.138   5.581   6.960 -1.0915 -0.0737  0.7539
  792MOL0     C 6817   8.025   5.633   6.889 -0.1659  0.4429  0.0677
  792MOL0     C 6818   7.913   5.679   6.954 -0.1082 -0.6043 -0.1198
  792MOL0     C 6819   7.907   5.670   7.099 -1.0673 -0.1356  0.0656
  792MOL0     O 6820   7.797   5.719   7.164 -0.2152  0.4435  0.1873
  792MOL0     C 6821   7.816   5.757   7.295  0.0280  1.6069  0.1592
  792MOL0     C 6822   7.692   5.848   7.330 -0.6910  0.8850  0.7035
  792MOL0     C 6823   7.693   5.903   7.480 -0.6296  0.0023  0.9409
  792MOL0     C 6824   7.557   5.938   7.529  0.2938 -0.0499 -0.1039
  792MOL0     C 6825   7.524   5.905   7.674  0.5858  0.4230 -0.3410
  792MOL0     C 6826   7.394   5.973   7.716  0.3871  0.7320  0.1554
  792MOL0     C 6827   7.254   5.928   7.659  0.5115  0.2712  0.2464
  792MOL0     C 6828   7.134   6.020   7.663  0.8975 -0.1982 -0.2075
  792MOL0    Cl 6829   6.989   5.942   7.610 -0.0229  0.0319 -0.3152
  792MOL0     C 6830   8.026   5.619   7.169 -0.5306 -0.1312  0.3340
  792MOL0     C 6831   8.131   5.572   7.097  0.6060 -0.2099 -1.4149
  792MOL0     O 6832   8.326   5.733   6.810 -0.3229  0.1684  0.2231
  792MOL0     C 6833   8.473   5.405   6.754 -0.3379  1.0103 -0.6373
  792MOL0     C 6834   8.569   5.344   6.670 -0.0898 -0.1222 -0.9519
  792MOL0     N 6835   8.489   5.184   5.996  0.2067  0.7899 -0.2378
  792MOL0     N 6836   8.496   5.139   5.875 -0.4963  0.0156 -0.0525
  792MOL0     C 6837   8.432   5.269   4.723 -0.6835  0.1239 -0.1275
  792MOL0     C 6838   8.307   5.250   4.672  0.5398  1.1296  0.1381
  792MOL0     C 6839   7.879   5.196   4.563 -0.4258  0.0109  0.5420
  792MOL0     C 6840   7.835   5.326   4.611 -0.6648  0.1532 -0.0362
  792MOL0     C 6841   7.710   5.363   4.602  0.2848 -0.1850 -0.1366
  792MOL0     C 6842   7.607   5.272   4.560 -0.4113 -0.3827  0.2294
  792MOL0     O 6843   7.477   5.299   4.557  0.0536  0.4510 -0.0800
  792MOL0     C 6844   7.427   5.360   4.678  0.8450  0.0231 -0.4486
  792MOL0     C 6845   7.274   5.387   4.694 -0.4642  0.3469  0.2621
  792MOL0     C 6846   7.234   5.502   4.585  0.2411 -0.4312 -1.1501
  792MOL0     C 6847   7.081   5.540   4.584  0.4593 -0.0532 -0.5439
  792MOL0     C 6848   7.001   5.428   4.525 -0.2798 -0.1337 -0.1288
  792MOL0     C 6849   6.953   5.338   4.466  0.3207 -0.3049 -0.4328
  792MOL0     C 6850   7.642   5.151   4.503  0.1718 -0.0693  0.3309
  792MOL0     C 6851   7.774   5.107   4.511 -0.4147  0.0763 -0.5592
  792MOL0     C 6852   7.798   4.959   4.469  0.4954 -0.1550 -0.0586
  792MOL0     H 6853   8.126   5.186   4.943 -0.0137  1.2076  1.3820
  792MOL0     H 6854   8.345   5.236   5.050 -4.1772  1.7520 -0.2481
  792MOL0     H 6855   8.546   5.379   5.096  0.3017 -0.5619  0.0770
  792MOL0     H 6856   8.536   5.201   5.099  1.0136  0.0831  1.6884
  792MOL0     H 6857   8.785   5.337   5.029  1.5990 -2.1117 -0.5918
  792MOL0     H 6858   8.762   5.174   5.083 -2.5660 -1.4466  1.3616
  792MOL0     H 6859   8.678   5.438   5.258 -0.0564 -0.5704  2.8673
  792MOL0     H 6860   8.843   5.383   5.249  0.9567 -2.6687 -1.1520
  792MOL0     H 6861   8.619   5.201   5.336 -0.0690  1.6864 -0.4177
  792MOL0     H 6862   8.788   5.163   5.315 -1.4318 -2.5960  1.9567
  792MOL0     H 6863   8.866   5.307   5.465 -0.1577  1.7746  0.9110
  792MOL0     H 6864   8.711   5.398   5.463  0.0481  0.7354 -0.0675
  792MOL0     H 6865   8.743   5.308   5.681 -0.0682  0.9053 -1.2194
  792MOL0     H 6866   8.601   5.234   5.611 -0.4760 -2.3410 -0.6296
  792MOL0     H 6867   8.858   5.087   5.658  0.8352 -3.9528 -2.1563
  792MOL0     H 6868   8.752   5.034   5.537  0.0442  0.0410  0.6901
  792MOL0     H 6869   8.575   4.997   5.665 -2.1920  0.6356  2.3136
  792MOL0     H 6870   8.701   4.925   5.755 -3.8107 -1.0971  1.6351
  792MOL0     H 6871   8.814   5.095   5.971  0.1740 -2.8182  0.9611
  792MOL0     H 6872   8.757   5.272   6.152  1.5227 -2.9251  0.5597
  792MOL0     H 6873   8.590   5.298   6.204 -1.5737  1.0626 -3.3643
  792MOL0     H 6874   8.590   5.038   6.247 -0.1717  0.7515  0.1563
  792MOL0     H 6875   8.772   5.063   6.244 -0.0520 -2.2605  3.9941
  792MOL0     H 6876   8.654   5.044   6.451 -1.4217  0.7366  0.8402
  792MOL0     H 6877   8.558   5.183   6.412  1.0986  2.5339 -0.4142
  792MOL0     H 6878   8.856   5.236   6.421  0.1737  3.5111  1.2665
  792MOL0     H 6879   8.776   5.193   6.574  2.2519 -1.4416 -1.7074
  792MOL0     H 6880   8.621   5.601   6.456 -2.4648  1.6643 -1.4699
  792MOL0     H 6881   8.435   5.705   6.592 -3.6313 -0.5630  1.5610
  792MOL0     H 6882   8.025   5.636   6.781 -4.6985 -0.2519 -0.1381
  792MOL0     H 6883   7.834   5.721   6.893  1.2516 -3.0596 -3.9129
  792MOL0     H 6884   7.805   5.664   7.352 -0.2533 -0.0562 -2.4451
  792MOL0     H 6885   7.905   5.818   7.313  2.1985 -1.0474 -0.7829
  792MOL0     H 6886   7.689   5.935   7.263  0.6626  0.7878  0.4871
  792MOL0     H 6887   7.598   5.795   7.315 -3.1089  4.8101  0.3098
  792MOL0     H 6888   7.739   5.830   7.547  1.3845 -1.0017 -1.3553
  792MOL0     H 6889   7.761   5.987   7.495  0.6355 -0.9447  0.6389
  792MOL0     H 6890   7.478   5.898   7.465  1.5453  0.2274 -1.8916
  792MOL0     H 6891   7.547   6.046   7.516 -1.6059 -0.1832  0.0232
  792MOL0     H 6892   7.608   5.930   7.739  1.6939 -3.0316 -0.1993
  792MOL0     H 6893   7.509   5.797   7.690 -0.6537  0.3120 -1.9230
  792MOL0     H 6894   7.403   5.988   7.825 -0.6974  0.9644  0.2181
  792MOL0     H 6895   7.401   6.071   7.667 -1.0424  0.8432  0.1303
  792MOL0     H 6896   7.228   5.825   7.686  1.8133 -0.1870 -0.1813
  792MOL0     H 6897   7.270   5.916   7.551  4.2150  0.9977  0.5907
  792MOL0     H 6898   7.120   6.047   7.768  0.4063 -4.2286  0.9106
  792MOL0     H 6899   7.154   6.116   7.613 -3.7144  0.4323 -1.3155
  792MOL0     H 6900   8.022   5.604   7.276  0.0004  1.6924  0.6426
  792MOL0     H 6901   8.214   5.536   7.157  0.3046 -0.4563 -1.1413
  792MOL0     H 6902   8.421   5.352   6.833  0.1030 -1.6922 -2.0511
  792MOL0     H 6903   8.591   5.242   6.703 -0.5262  0.0137 -0.2093
  792MOL0     H 6904   8.516   5.300   4.662 -1.2898  1.0439 -0.5032
  792MOL0     H 6905   8.295   5.268   4.566  0.4069 -0.5633 -0.1606
  792MOL0     H 6906   7.900   5.400   4.656 -0.4675 -0.2624  0.3741
  792MOL0     H 6907   7.678   5.453   4.654  1.0791 -0.8026  1.4950
  792MOL0     H 6908   7.466   5.462   4.678  0.7917  0.0649 -1.5596
  792MOL0     H 6909   7.468   5.312   4.767  2.5290  1.8152 -0.1963
  792MOL0     H 6910   7.248   5.405   4.798 -1.9923 -3.0644  0.6003
  792MOL0     H 6911   7.223   5.298   4.656 -0.1787  0.3790 -0.2085
  792MOL0     H 6912   7.265   5.470   4.485 -0.3220 -0.5070 -1.3002
  792MOL0     H 6913   7.290   5.595   4.601  0.1088 -0.6984  1.3483
  792MOL0     H 6914   7.050   5.564   4.686  3.1525  1.4628  0.0085
  792MOL0     H 6915   7.065   5.628   4.521  0.2041 -1.6449 -2.8126
  792MOL0     H 6916   6.905   5.253   4.423 -0.2266 -0.6349  0.7894
  792MOL0     H 6917   7.559   5.084   4.482 -1.3672  2.0451 -0.8098
  792MOL0     H 6918   7.900   4.925   4.491  1.6882  2.4143 -1.1576
  792MOL0     H 6919   7.725   4.892   4.515  1.7095 -3.3324 -2.3727
  792MOL0     H 6920   7.780   4.952   4.362 -0.3080 -0.7953  0.1119
  793MOL0     O 6921   7.578   1.711   1.791  0.2214 -0.2847 -0.9335
  793MOL0     C 6922   7.588   1.834   1.798  0.5375 -0.5985  0.8401
  793MOL0     O 6923   7.662   1.909   1.712 -0.6007  0.0339  0.4995
  793MOL0     C 6924   7.715   1.868   1.590 -0.1291  0.0469 -0.5820
  793MOL0     C 6925   7.708   1.739   1.537 -0.3325 -0.2884  0.3718
  793MOL0     C 6926   7.760   1.700   1.410 -1.3203  0.1896  0.7799
  793MOL0     C 6927   7.822   1.801   1.343 -1.0379 -0.2832  0.8383
  793MOL0     O 6928   7.877   1.764   1.221  0.0941 -0.3521 -0.4176
  793MOL0     C 6929   7.830   1.836   1.106  0.0677  0.9552  0.1841
  793MOL0     C 6930   7.940   1.846   1.002 -0.2203 -0.8484 -0.7507
  793MOL0     C 6931   8.040   1.962   1.013  0.0657 -0.1975  0.3911
  793MOL0     C 6932   8.152   1.975   0.915 -0.6676 -0.8470  1.2680
  793MOL0     C 6933   8.214   2.113   0.903 -0.8212  0.4945  0.5202
  793MOL0     C 6934   8.342   2.119   0.813 -0.5101  0.7014  0.8865
  793MOL0     C 6935   8.376   2.263   0.786  0.2207 -0.3238  0.6895
  793MOL0     C 6936   8.522   2.287   0.745  0.1823 -0.4275  0.1639
  793MOL0     N 6937   8.547   2.428   0.722 -0.0818  0.1423  0.0671
  793MOL0     C 6938   8.543   2.544   0.796 -1.0028 -0.3947 -0.6866
  793MOL0     C 6939   8.602   2.645   0.727  0.7677 -0.5599  0.1227
  793MOL0     C 6940   8.602   2.788   0.772 -0.3313 -0.2216  1.3894
  793MOL0     C 6941   8.727   2.867   0.721  1.2041  0.3351  1.0486
  793MOL0     C 6942   8.703   2.995   0.808 -0.4570 -0.0736  0.3493
  793MOL0     C 6943   8.824   3.089   0.808 -0.5399  0.2016  0.3044
  793MOL0     O 6944   8.799   3.195   0.903 -0.0138  0.0280 -0.0227
  793MOL0     C 6945   8.886   3.300   0.914  0.6692  0.1772  0.2568
  793MOL0     C 6946   8.869   3.382   1.021 -0.7657 -0.6226  0.0631
  793MOL0     C 6947   8.946   3.495   1.028 -0.0071 -0.3649  0.8128
  793MOL0     C 6948   9.043   3.525   0.929 -0.9428 -0.1531 -0.8914
  793MOL0     C 6949   9.130   3.649   0.938 -0.6868  0.3826  1.3333
  793MOL0     O 6950   9.248   3.641   0.863  0.5976  0.1064  0.7862
  793MOL0     C 6951   9.338   3.730   0.851 -0.4600  0.4921  0.8051
  793MOL0     C 6952   9.460   3.678   0.810  0.4457 -0.8886  0.1614
  793MOL0     C 6953   9.573   3.755   0.796  0.7636 -0.7941 -0.2249
  793MOL0     C 6954   9.565   3.891   0.827  0.2600  0.0704  0.0238
  793MOL0     O 6955   9.683   3.969   0.827  0.1722 -0.1458 -0.4138
  793MOL0     C 6956   9.675   4.072   0.731 -0.5512 -0.0713 -0.1302
  793MOL0     C 6957   9.660   4.018   0.585  0.1765  0.4448 -0.7463
  793MOL0     C 6958   9.707   4.122   0.484  1.2367  0.1297 -0.2819
  793MOL0     C 6959   9.856   4.146   0.476  0.8048  0.1053  0.2051
  793MOL0     C 6960   9.900   4.211   0.349 -0.3072  0.4744  0.1964
  793MOL0     C 6961  10.051   4.232   0.366  0.1871  0.6112  0.2487
  793MOL0     C 6962  10.104   4.287   0.241 -0.2402 -0.0122  1.0042
  793MOL0     C 6963  10.247   4.338   0.247 -0.0790 -0.5052 -0.7444
  793MOL0    Cl 6964  10.357   4.199   0.255  0.2329  0.0332  0.1266
  793MOL0     C 6965   9.442   3.947   0.862 -0.7161 -0.8239  0.5358
  793MOL0     C 6966   9.327   3.869   0.881  0.2106 -0.3536 -0.3623
  793MOL0     O 6967   9.099   3.744   1.012 -0.4499  0.4969  0.2006
  793MOL0     C 6968   9.065   3.430   0.824  0.6489  0.1334 -0.6018
  793MOL0     C 6969   8.980   3.317   0.816 -0.3916 -0.8557  0.7804
  793MOL0     N 6970   8.633   2.598   0.605  0.4304 -0.0912  0.3516
  793MOL0     N 6971   8.611   2.476   0.603 -0.4234 -0.0574  0.2090
  793MOL0     C 6972   7.833   1.939   1.390  0.1453 -0.4918 -0.3558
  793MOL0     C 6973   7.782   1.968   1.515  0.1853 -0.1511 -0.2135
  793MOL0     C 6974   7.497   1.897   1.894  0.3725 -0.2331 -0.0545
  793MOL0     C 6975   7.435   1.815   1.989  0.6341  0.6176  0.4887
  793MOL0     C 6976   7.343   1.865   2.086 -0.4345  0.8665 -0.4733
  793MOL0     C 6977   7.304   1.995   2.079 -0.4407 -0.1965  0.5840
  793MOL0     O 6978   7.215   2.048   2.166  0.2366  0.6311  0.3212
  793MOL0     C 6979   7.212   1.990   2.299 -0.3005 -0.1342 -1.5237
  793MOL0     C 6980   7.130   2.070   2.393  0.7295 -0.1086 -0.5468
  793MOL0     C 6981   6.983   2.078   2.334 -1.1727  0.1131 -0.3166
  793MOL0     C 6982   6.878   2.127   2.433 -0.8924  0.3611  0.9410
  793MOL0     C 6983   6.894   2.256   2.499 -0.7588 -0.3234 -0.2632
  793MOL0     C 6984   6.892   2.372   2.550 -0.0353 -1.3512  0.0272
  793MOL0     C 6985   7.369   2.082   1.988  0.2358  0.4261  0.4025
  793MOL0     C 6986   7.451   2.028   1.885 -0.4180  0.3171  0.9193
  793MOL0     C 6987   7.512   2.143   1.810 -0.7198 -0.5218 -0.0066
  793MOL0     H 6988   7.650   1.661   1.585 -3.1271  0.2670 -1.8135
  793MOL0     H 6989   7.753   1.604   1.360 -0.6640 -0.1999  1.4026
  793MOL0     H 6990   7.748   1.773   1.070  0.7155  1.4759 -2.4246
  793MOL0     H 6991   7.802   1.937   1.137 -0.6199  0.6888  0.4610
  793MOL0     H 6992   7.891   1.857   0.905 -0.7646 -2.2896 -0.6805
  793MOL0     H 6993   8.004   1.757   1.006 -0.6606 -1.1520  2.1976
  793MOL0     H 6994   8.093   1.961   1.109  0.8410 -0.9361 -0.0317
  793MOL0     H 6995   7.975   2.050   1.023  1.6635  0.9604  1.0305
  793MOL0     H 6996   8.241   1.915   0.938 -0.6391 -1.8738 -1.2850
  793MOL0     H 6997   8.127   1.929   0.820  1.6020  0.0852  0.1376
  793MOL0     H 6998   8.141   2.182   0.860 -2.8446 -1.4167  0.7248
  793MOL0     H 6999   8.236   2.156   1.001 -0.2590 -2.9442  2.0686
  793MOL0     H 7000   8.433   2.086   0.864  2.6035  1.7328 -3.4427
  793MOL0     H 7001   8.333   2.070   0.716 -2.8744  1.6675  0.5594
  793MOL0     H 7002   8.347   2.326   0.871 -2.8851 -3.7699  2.4948
  793MOL0     H 7003   8.297   2.292   0.716  0.4609 -1.5469 -0.1182
  793MOL0     H 7004   8.576   2.246   0.831 -1.5041 -2.9384  0.1375
  793MOL0     H 7005   8.540   2.234   0.651  1.0846  1.4406 -0.7805
  793MOL0     H 7006   8.496   2.562   0.892  2.2230  0.3644  0.8876
  793MOL0     H 7007   8.510   2.832   0.733 -0.1061 -2.4538 -2.0755
  793MOL0     H 7008   8.606   2.778   0.881  0.9678  0.7147  1.4521
  793MOL0     H 7009   8.813   2.811   0.758  0.4887 -2.0277 -0.6371
  793MOL0     H 7010   8.730   2.886   0.613  2.2840  1.4859  1.2613
  793MOL0     H 7011   8.693   2.961   0.912 -1.1652  1.3922  0.7953
  793MOL0     H 7012   8.613   3.051   0.781  0.2382  0.6764 -0.4455
  793MOL0     H 7013   8.836   3.122   0.704  3.5196 -1.1166  0.1664
  793MOL0     H 7014   8.914   3.047   0.854  0.0101  4.4629  3.7254
  793MOL0     H 7015   8.791   3.361   1.094 -1.2709  1.9096  0.3434
  793MOL0     H 7016   8.924   3.551   1.118 -2.2574 -3.0467  2.1089
  793MOL0     H 7017   9.468   3.570   0.804 -1.2746 -0.9449 -2.2973
  793MOL0     H 7018   9.657   3.700   0.755  0.3376 -0.8969 -0.9898
  793MOL0     H 7019   9.604   4.146   0.768 -0.6833 -0.1605 -0.2065
  793MOL0     H 7020   9.772   4.122   0.734 -1.5355  2.3722 -3.2610
  793MOL0     H 7021   9.720   3.928   0.573  0.9013  0.9183 -0.7194
  793MOL0     H 7022   9.555   3.990   0.577  0.5600 -1.2119 -0.4275
  793MOL0     H 7023   9.676   4.089   0.385  1.5239 -2.1345  0.3362
  793MOL0     H 7024   9.659   4.219   0.499  1.4531  0.7241 -3.0575
  793MOL0     H 7025   9.896   4.044   0.476 -1.5119 -0.9220 -2.3423
  793MOL0     H 7026   9.897   4.201   0.561  0.9247  2.0040 -1.0122
  793MOL0     H 7027   9.849   4.308   0.344  1.3021  1.2979 -1.5616
  793MOL0     H 7028   9.863   4.153   0.264 -2.5421  0.3390  1.2080
  793MOL0     H 7029  10.070   4.309   0.441  1.3256  0.3857  0.2179
  793MOL0     H 7030  10.106   4.138   0.378 -2.8882 -1.6203 -1.6029
  793MOL0     H 7031  10.055   4.380   0.210  0.7865  0.5860  1.1196
  793MOL0     H 7032  10.093   4.211   0.164 -2.5899  1.5243 -0.3149
  793MOL0     H 7033  10.275   4.401   0.162  0.0027  1.4412  0.6590
  793MOL0     H 7034  10.269   4.394   0.338 -1.1898  0.3708 -0.9844
  793MOL0     H 7035   9.438   4.052   0.890  1.4441  0.2281 -2.5612
  793MOL0     H 7036   9.232   3.913   0.908  0.6992  0.4935  0.0242
  793MOL0     H 7037   9.151   3.435   0.757 -0.7331  2.0515 -2.3736
  793MOL0     H 7038   8.986   3.247   0.734  2.1662 -2.0500  1.8747
  793MOL0     H 7039   7.892   2.010   1.333  2.6897 -1.1393  1.3381
  793MOL0     H 7040   7.787   2.071   1.549 -0.6520 -0.0592 -0.3522
  793MOL0     H 7041   7.454   1.710   2.007 -2.0128 -0.0860 -0.4287
  793MOL0     H 7042   7.299   1.791   2.152  4.3050 -1.1542  0.8415
  793MOL0     H 7043   7.310   1.971   2.343 -1.1865 -0.1164  0.5705
  793MOL0     H 7044   7.162   1.893   2.292 -1.7467  0.2918  1.3173
  793MOL0     H 7045   7.159   2.174   2.410  1.0170  0.0407 -1.7998
  793MOL0     H 7046   7.124   2.015   2.487  0.4823  0.7634 -0.0453
  793MOL0     H 7047   6.951   1.978   2.302 -3.1345  1.3955 -2.7659
  793MOL0     H 7048   6.990   2.127   2.236  3.7203 -0.8622 -0.7296
  793MOL0     H 7049   6.783   2.130   2.380 -1.2462  2.4484  1.5917
  793MOL0     H 7050   6.862   2.045   2.504 -3.4241  0.7580  0.9418
  793MOL0     H 7051   6.891   2.473   2.585 -0.4675 -0.7826 -1.5154
  793MOL0     H 7052   7.342   2.186   2.000 -3.7986 -0.4597  0.3207
  793MOL0     H 7053   7.535   2.110   1.708  3.6785 -2.5586  1.3842
  793MOL0     H 7054   7.460   2.239   1.807 -0.4285 -0.3865 -2.2894
  793MOL0     H 7055   7.612   2.152   1.854 -1.3578  0.1792  1.3472
  794MOL0     O 7056   2.373   3.879   1.575 -0.1037 -1.0143  0.5613
  794MOL0     C 7057   2.427   3.990   1.587 -0.2045  0.0549 -1.8886
  794MOL0     O 7058   2.455   4.082   1.481  0.0635  0.4888 -0.8690
  794MOL0     C 7059   2.403   4.064   1.359 -0.4990  0.2512  0.5325
  794MOL0     C 7060   2.268   4.028   1.332 -0.1409  0.1233 -0.6084
  794MOL0     C 7061   2.227   4.018   1.200  0.1757  0.4828 -0.1718
  794MOL0     C 7062   2.321   4.025   1.091 -0.2328 -0.0264 -0.9278
  794MOL0     O 7063   2.293   3.994   0.968  0.5562  0.2147 -0.3409
  794MOL0     C 7064   2.194   4.088   0.916  1.5844  0.6678  0.6839
  794MOL0     C 7065   2.172   4.074   0.770  0.4689 -0.4723 -1.2870
  794MOL0     C 7066   2.298   4.086   0.684  0.5514  0.0040 -0.8033
  794MOL0     C 7067   2.360   4.228   0.677 -0.3175 -1.1388  0.1253
  794MOL0     C 7068   2.462   4.260   0.794 -0.6261 -0.1038  0.3805
  794MOL0     C 7069   2.611   4.214   0.767 -0.4645  0.3842 -1.3161
  794MOL0     C 7070   2.707   4.312   0.714  0.9339  0.9435  0.6077
  794MOL0     C 7071   2.857   4.272   0.685  1.1815 -0.2479 -0.0453
  794MOL0     N 7072   2.867   4.130   0.661 -0.1451  0.0566  0.4585
  794MOL0     C 7073   2.913   4.036   0.756 -0.2475 -0.1087 -0.4057
  794MOL0     C 7074   2.934   3.921   0.692  0.5474 -0.0833  1.0167
  794MOL0     C 7075   2.958   3.790   0.756 -0.2720 -0.1640  0.4082
  794MOL0     C 7076   3.088   3.721   0.701  0.4839 -1.1354 -0.8160
  794MOL0     C 7077   3.180   3.662   0.814 -0.0729 -0.5329  0.6159
  794MOL0     C 7078   3.245   3.777   0.892  0.4180  0.3855 -0.0959
  794MOL0     O 7079   3.350   3.736   0.980  0.4526 -0.5998  0.5241
  794MOL0     C 7080   3.332   3.696   1.113  0.7620 -0.9990 -0.9421
  794MOL0     C 7081   3.211   3.696   1.191 -0.3530 -0.3813 -0.1333
  794MOL0     C 7082   3.212   3.640   1.317  0.5520  1.0091  0.8167
  794MOL0     C 7083   3.328   3.592   1.380  1.4207 -0.4829  0.0607
  794MOL0     C 7084   3.337   3.533   1.509  0.8007  0.5438  0.0109
  794MOL0     O 7085   3.229   3.562   1.595 -0.2682  0.1345 -0.0900
  794MOL0     C 7086   3.240   3.523   1.723  0.0726 -0.4477  0.5129
  794MOL0     C 7087   3.362   3.512   1.789 -0.0908 -0.3658 -0.3404
  794MOL0     C 7088   3.374   3.462   1.919 -0.1871 -0.3652 -0.2690
  794MOL0     C 7089   3.265   3.424   1.991 -0.2581 -0.0313  0.5222
  794MOL0     O 7090   3.289   3.352   2.101  0.1539  0.1796 -0.3736
  794MOL0     C 7091   3.226   3.229   2.140  0.2072 -0.1143  1.6699
  794MOL0     C 7092   3.288   3.158   2.261 -0.7314 -0.2618 -0.1160
  794MOL0     C 7093   3.450   3.161   2.250  0.0777 -0.3758 -0.4841
  794MOL0     C 7094   3.502   3.058   2.154 -0.2733  0.1449  0.8785
  794MOL0     C 7095   3.655   3.079   2.135 -0.2569  0.8626 -0.0696
  794MOL0     C 7096   3.709   3.217   2.100 -0.0573 -0.3017 -0.1641
  794MOL0     C 7097   3.857   3.217   2.042  0.2981  0.2867  0.4590
  794MOL0     C 7098   3.897   3.361   2.002 -0.1158 -0.4537  0.4530
  794MOL0    Cl 7099   3.956   3.459   2.133  0.4338  0.1034 -0.3099
  794MOL0     C 7100   3.138   3.451   1.931 -0.3657 -0.4396  0.4123
  794MOL0     C 7101   3.129   3.501   1.799 -0.4113 -0.0737 -0.4503
  794MOL0     O 7102   3.423   3.447   1.527  0.3064  0.0664 -0.0956
  794MOL0     C 7103   3.448   3.600   1.298  0.7809  0.2008 -0.1916
  794MOL0     C 7104   3.448   3.661   1.177 -0.9187 -0.6419  0.9530
  794MOL0     N 7105   2.902   3.933   0.558 -1.0196 -0.2264 -0.2197
  794MOL0     N 7106   2.855   4.058   0.543 -0.2565  0.3902 -0.3753
  794MOL0     C 7107   2.454   4.065   1.116  0.2867  0.2006 -0.5184
  794MOL0     C 7108   2.492   4.077   1.250 -0.6438  0.7667 -0.8110
  794MOL0     C 7109   2.469   4.043   1.720  0.4313  0.4473 -1.3487
  794MOL0     C 7110   2.509   4.181   1.727 -0.4352 -0.2224 -0.2029
  794MOL0     C 7111   2.564   4.239   1.841 -0.3954 -0.2302  0.4422
  794MOL0     C 7112   2.592   4.153   1.952  0.4515  0.1765  0.6152
  794MOL0     O 7113   2.671   4.202   2.052  0.4568  0.6454  0.3881
  794MOL0     C 7114   2.681   4.340   2.078  0.5788 -0.1721 -0.6553
  794MOL0     C 7115   2.715   4.353   2.234  0.9623  0.1080  0.4314
  794MOL0     C 7116   2.854   4.286   2.272  0.8931  0.6046  0.1451
  794MOL0     C 7117   2.976   4.365   2.221 -0.8637  0.0205  0.3683
  794MOL0     C 7118   3.098   4.313   2.274 -0.2571  0.4702 -0.5736
  794MOL0     C 7119   3.188   4.271   2.333  0.0641  0.3488 -0.7386
  794MOL0     C 7120   2.541   4.025   1.948  0.4522 -0.9994 -0.4221
  794MOL0     C 7121   2.474   3.968   1.847 -0.8984  0.2853  0.5083
  794MOL0     C 7122   2.413   3.830   1.877 -0.3504  0.4478  1.4947
  794MOL0     H 7123   2.211   4.007   1.422 -2.8925  2.3320 -1.6922
  794MOL0     H 7124   2.133   3.968   1.178  1.6150 -2.5109 -0.0367
  794MOL0     H 7125   2.100   4.068   0.969  0.7301  2.2620 -0.1675
  794MOL0     H 7126   2.216   4.194   0.928 -0.7411  1.1488  1.2638
  794MOL0     H 7127   2.102   4.155   0.746  2.9666  0.9490 -4.4388
  794MOL0     H 7128   2.131   3.976   0.744  2.9025 -2.3184  1.1925
  794MOL0     H 7129   2.267   4.076   0.580 -2.2971 -1.1842  0.0647
  794MOL0     H 7130   2.373   4.011   0.712 -1.5800 -2.1729 -0.6094
  794MOL0     H 7131   2.400   4.231   0.575  1.7313 -3.1196  0.7617
  794MOL0     H 7132   2.286   4.308   0.678  1.3929  0.7098  4.3061
  794MOL0     H 7133   2.465   4.362   0.834 -2.2217 -1.2077  3.5855
  794MOL0     H 7134   2.429   4.214   0.887 -1.6833 -1.5311 -0.6666
  794MOL0     H 7135   2.654   4.179   0.861  0.9699 -2.1186 -2.8022
  794MOL0     H 7136   2.614   4.125   0.703  3.4012  0.4349 -1.4532
  794MOL0     H 7137   2.703   4.400   0.778  0.0303 -0.3413  2.4186
  794MOL0     H 7138   2.677   4.339   0.612  3.7206  2.6458  0.1499
  794MOL0     H 7139   2.897   4.326   0.599  2.4435 -2.4352 -0.8972
  794MOL0     H 7140   2.916   4.290   0.776 -0.8868  1.5186  1.0412
  794MOL0     H 7141   2.919   4.064   0.861 -4.5220  1.8203 -0.4627
  794MOL0     H 7142   2.961   3.804   0.864 -0.3361  1.6467  0.2014
  794MOL0     H 7143   2.865   3.735   0.734 -0.1627 -1.0863  2.1214
  794MOL0     H 7144   3.067   3.639   0.631  0.5824 -1.0603 -0.9342
  794MOL0     H 7145   3.145   3.794   0.644  2.6584 -1.7488  0.4434
  794MOL0     H 7146   3.249   3.606   0.751 -1.6109  0.8157 -2.4339
  794MOL0     H 7147   3.138   3.594   0.889 -2.3140 -1.9497 -1.7609
  794MOL0     H 7148   3.167   3.833   0.945  3.1536  1.9527  2.6136
  794MOL0     H 7149   3.278   3.852   0.819  1.8508  2.3209  2.3983
  794MOL0     H 7150   3.118   3.728   1.147  0.9476  1.2782 -1.8561
  794MOL0     H 7151   3.118   3.636   1.371  0.0084  1.9963 -0.0297
  794MOL0     H 7152   3.453   3.544   1.739 -0.0319  0.0598  0.0283
  794MOL0     H 7153   3.471   3.449   1.965 -0.2307 -1.3250 -0.4172
  794MOL0     H 7154   3.119   3.247   2.154 -0.0390 -0.6080  0.5238
  794MOL0     H 7155   3.246   3.159   2.058  1.9409  3.4276 -1.2452
  794MOL0     H 7156   3.255   3.214   2.350  0.9168 -0.8695  0.9357
  794MOL0     H 7157   3.257   3.054   2.260  1.4848 -1.0062 -2.6975
  794MOL0     H 7158   3.491   3.262   2.238 -0.8498  0.0610 -0.0749
  794MOL0     H 7159   3.474   3.130   2.352  0.6934  1.4751 -0.0180
  794MOL0     H 7160   3.459   3.067   2.054  1.1025  0.1100  0.2557
  794MOL0     H 7161   3.484   2.962   2.204 -1.0216  0.1876  0.7031
  794MOL0     H 7162   3.697   3.012   2.060  1.9622  0.9541  1.0293
  794MOL0     H 7163   3.709   3.049   2.225 -1.2047  0.8461  0.5090
  794MOL0     H 7164   3.631   3.273   2.047 -4.2856  0.8909  6.1600
  794MOL0     H 7165   3.712   3.262   2.199  0.0338 -0.6298 -0.0150
  794MOL0     H 7166   3.869   3.158   1.950 -0.2158 -0.9056  1.1318
  794MOL0     H 7167   3.916   3.172   2.123 -1.6968 -1.6086  0.9436
  794MOL0     H 7168   3.969   3.366   1.919 -2.0754  0.6124 -1.2968
  794MOL0     H 7169   3.809   3.409   1.957 -0.2595 -1.0945  0.0322
  794MOL0     H 7170   3.044   3.422   1.979 -0.7182 -3.0062 -1.6124
  794MOL0     H 7171   3.037   3.514   1.742  0.5069  0.6775 -1.8115
  794MOL0     H 7172   3.539   3.564   1.345  0.8563 -1.0303 -1.2299
  794MOL0     H 7173   3.543   3.677   1.127 -0.8781  1.2702  1.5988
  794MOL0     H 7174   2.526   4.072   1.035  1.0611 -0.0426  0.1370
  794MOL0     H 7175   2.595   4.067   1.283 -0.9501 -0.3323 -0.1203
  794MOL0     H 7176   2.522   4.230   1.631  0.1483  0.2789  0.1304
  794MOL0     H 7177   2.596   4.342   1.827 -0.4836 -0.0917  1.2517
  794MOL0     H 7178   2.578   4.376   2.067 -0.1332 -1.6498  0.6268
  794MOL0     H 7179   2.737   4.409   2.015  0.1755  2.6722  1.8471
  794MOL0     H 7180   2.628   4.314   2.288  2.3579 -3.8660  0.1062
  794MOL0     H 7181   2.720   4.462   2.237 -0.6658  0.2832 -1.2255
  794MOL0     H 7182   2.854   4.182   2.241 -1.2818  0.8964 -1.0256
  794MOL0     H 7183   2.862   4.277   2.380 -1.2764 -0.3028  0.2667
  794MOL0     H 7184   2.995   4.347   2.115  0.7159  0.8398  0.4916
  794MOL0     H 7185   2.972   4.471   2.250  4.2253  0.6853 -0.4474
  794MOL0     H 7186   3.275   4.223   2.371  0.1101  0.2416 -0.9771
  794MOL0     H 7187   2.544   3.968   2.041 -0.3204 -1.9855 -0.9865
  794MOL0     H 7188   2.329   3.833   1.947 -0.2456 -0.7385  1.6959
  794MOL0     H 7189   2.376   3.790   1.783 -1.0724  0.1340  1.9049
  794MOL0     H 7190   2.488   3.755   1.904 -1.7525 -2.1926 -1.3406
  795MOL0     O 7191   5.439  11.277   1.079 -0.1567 -0.1358  0.4261
  795MOL0     C 7192   5.403  11.164   1.110  1.1800  0.2304 -0.1277
  795MOL0     O 7193   5.273  11.111   1.121  0.5993 -0.7980  0.9019
  795MOL0     C 7194   5.172  11.200   1.103 -0.5203 -0.1612 -0.3423
  795MOL0     C 7195   5.168  11.310   1.191  0.7093  0.3473 -0.9189
  795MOL0     C 7196   5.077  11.410   1.180  1.7011  1.1821  0.9083
  795MOL0     C 7197   4.977  11.404   1.076  0.1065  0.5674 -1.3967
  795MOL0     O 7198   4.855  11.475   1.072 -0.2690  0.4786 -0.0243
  795MOL0     C 7199   4.864  11.610   1.121 -0.2646 -0.4909  0.8759
  795MOL0     C 7200   4.813  11.606   1.263  0.3141  0.0302 -0.1936
  795MOL0     C 7201   4.659  11.592   1.255 -0.4753 -0.2083 -0.3319
  795MOL0     C 7202   4.609  11.575   1.400  0.3890  0.2958  0.4094
  795MOL0     C 7203   4.456  11.537   1.414  0.3085  0.3813 -0.2562
  795MOL0     C 7204   4.424  11.429   1.523 -0.0432  0.4303  0.5871
  795MOL0     C 7205   4.454  11.284   1.465  0.3547 -0.9281  0.2563
  795MOL0     C 7206   4.433  11.171   1.558 -0.5934  0.3755 -0.3543
  795MOL0     N 7207   4.528  11.172   1.673 -0.2426  0.2775  0.5007
  795MOL0     C 7208   4.516  11.250   1.781  0.4858 -0.6525 -0.1860
  795MOL0     C 7209   4.596  11.197   1.878  0.1952 -0.8633 -0.9931
  795MOL0     C 7210   4.619  11.254   2.021  0.1508 -0.2583 -1.4189
  795MOL0     C 7211   4.663  11.400   2.016  1.1334  0.6860  0.2870
  795MOL0     C 7212   4.673  11.456   2.157 -0.5581  0.1844 -0.4958
  795MOL0     C 7213   4.693  11.606   2.166 -0.0920  0.0664  0.2183
  795MOL0     O 7214   4.690  11.654   2.303  0.0737 -0.3262  0.5135
  795MOL0     C 7215   4.674  11.790   2.305 -0.6825  0.2382 -0.1724
  795MOL0     C 7216   4.730  11.878   2.211 -0.0186 -0.1849  0.0039
  795MOL0     C 7217   4.704  12.018   2.219 -1.2851 -0.6257 -0.0919
  795MOL0     C 7218   4.621  12.068   2.317 -0.0490 -0.2563  0.1413
  795MOL0     C 7219   4.598  12.214   2.343 -0.4374 -0.6555  0.5697
  795MOL0     O 7220   4.653  12.289   2.238 -0.0616  0.3166 -0.0524
  795MOL0     C 7221   4.628  12.425   2.255 -0.3349  0.2018 -0.1586
  795MOL0     C 7222   4.504  12.489   2.202 -0.0296  0.5311  0.4655
  795MOL0     C 7223   4.485  12.625   2.223 -0.0533 -0.1758 -1.3657
  795MOL0     C 7224   4.583  12.696   2.298  0.2088  0.3212 -0.3517
  795MOL0     O 7225   4.572  12.828   2.313 -0.5971 -0.2198 -0.3191
  795MOL0     C 7226   4.598  12.904   2.430  0.2021  0.1912  1.1213
  795MOL0     C 7227   4.568  13.049   2.372 -0.9538  0.9169 -0.2406
  795MOL0     C 7228   4.660  13.099   2.257 -0.1934  0.7881  0.1193
  795MOL0     C 7229   4.749  13.207   2.312  0.3165 -0.8653  0.0389
  795MOL0     C 7230   4.887  13.209   2.233 -1.0245  0.7046 -0.7834
  795MOL0     C 7231   4.875  13.254   2.092 -0.8082  0.2606  0.4520
  795MOL0     C 7232   5.005  13.216   2.015  0.0915 -0.2742 -0.7159
  795MOL0     C 7233   4.970  13.217   1.863  0.3545 -0.1861  0.7260
  795MOL0    Cl 7234   4.900  13.061   1.818  0.3698 -0.9925  0.7679
  795MOL0     C 7235   4.687  12.631   2.365 -0.4416 -0.1846 -0.3748
  795MOL0     C 7236   4.709  12.495   2.344  0.0120 -0.4218 -0.9481
  795MOL0     O 7237   4.543  12.265   2.434 -0.0034  0.5229 -0.1557
  795MOL0     C 7238   4.564  11.981   2.410  0.4950  0.0130  1.0296
  795MOL0     C 7239   4.587  11.845   2.400 -0.3958 -0.1850 -0.2863
  795MOL0     N 7240   4.667  11.090   1.832 -0.6373  0.4567  0.3783
  795MOL0     N 7241   4.632  11.083   1.703 -0.1763  0.4226  0.4124
  795MOL0     C 7242   4.982  11.296   0.989 -0.2612 -0.8031  0.0581
  795MOL0     C 7243   5.077  11.192   1.004  0.5632 -0.0140 -0.1827
  795MOL0     C 7244   5.501  11.082   1.176  0.3487  0.3234 -0.3127
  795MOL0     C 7245   5.500  11.069   1.316 -0.3243  0.5076  0.2039
  795MOL0     C 7246   5.611  11.000   1.367 -0.2360 -0.0856 -0.0867
  795MOL0     C 7247   5.719  10.955   1.298 -0.1540 -0.0455  0.2108
  795MOL0     O 7248   5.827  10.880   1.352  0.0368  0.5535  0.0337
  795MOL0     C 7249   5.786  10.768   1.432  0.1641 -1.2762  0.4509
  795MOL0     C 7250   5.714  10.665   1.345 -0.2610 -0.2111  0.4374
  795MOL0     C 7251   5.780  10.614   1.214  1.0279  0.4558  0.2233
  795MOL0     C 7252   5.907  10.533   1.233  0.1578 -0.3695 -0.6806
  795MOL0     C 7253   5.982  10.541   1.109 -0.1805 -0.7007  0.9341
  795MOL0     C 7254   6.067  10.570   1.023 -0.0787 -0.2499 -0.1700
  795MOL0     C 7255   5.718  10.971   1.161  0.5052 -0.2189  0.4262
  795MOL0     C 7256   5.610  11.031   1.102  0.7933 -0.1789  0.5278
  795MOL0     C 7257   5.612  11.022   0.952 -0.2276 -0.0432  0.8008
  795MOL0     H 7258   5.251  11.316   1.260 -1.3887 -1.6845  2.0106
  795MOL0     H 7259   5.091  11.491   1.251  1.2239 -1.2477  3.9371
  795MOL0     H 7260   4.965  11.651   1.118 -1.0480  1.5184 -0.9932
  795MOL0     H 7261   4.805  11.682   1.063 -1.5096 -2.0758  0.0820
  795MOL0     H 7262   4.832  11.693   1.326  1.3647  0.5697 -1.2185
  795MOL0     H 7263   4.851  11.514   1.308 -2.3285 -1.4402 -0.7162
  795MOL0     H 7264   4.633  11.513   1.184 -0.1896 -2.7519  2.2306
  795MOL0     H 7265   4.625  11.689   1.216 -0.6908 -0.0122  0.3315
  795MOL0     H 7266   4.668  11.490   1.435 -0.2756 -0.2662  0.1772
  795MOL0     H 7267   4.645  11.648   1.472  1.2169 -1.6549  2.0563
  795MOL0     H 7268   4.402  11.632   1.424 -0.6247  0.1143 -2.1993
  795MOL0     H 7269   4.431  11.506   1.312 -0.5702 -2.4898  0.7453
  795MOL0     H 7270   4.477  11.454   1.615 -0.9285  1.2139  0.8929
  795MOL0     H 7271   4.319  11.445   1.547  0.2690  1.0305  1.6012
  795MOL0     H 7272   4.557  11.286   1.428 -0.1904  1.9077 -1.3971
  795MOL0     H 7273   4.381  11.275   1.384 -2.0369 -0.2251  2.2227
  795MOL0     H 7274   4.328  11.173   1.590 -0.4939  1.5557 -0.0725
  795MOL0     H 7275   4.434  11.076   1.505 -3.1971  1.2746 -2.2146
  795MOL0     H 7276   4.457  11.341   1.784 -1.0270 -1.6275  1.2976
  795MOL0     H 7277   4.528  11.241   2.080  0.5734 -2.2484 -1.1267
  795MOL0     H 7278   4.687  11.186   2.072 -0.6415 -0.3050 -0.3809
  795MOL0     H 7279   4.759  11.391   1.963  0.1148 -0.1944 -1.4957
  795MOL0     H 7280   4.593  11.462   1.960  0.9581 -0.6165 -1.0039
  795MOL0     H 7281   4.756  11.402   2.205  0.3895  2.2484  0.3116
  795MOL0     H 7282   4.584  11.437   2.218  0.7047  0.4826  1.5634
  795MOL0     H 7283   4.601  11.651   2.126 -1.2333 -2.5846 -0.3317
  795MOL0     H 7284   4.782  11.639   2.113  0.2883  0.0069  0.8127
  795MOL0     H 7285   4.806  11.842   2.143 -0.0375 -1.5280  0.6679
  795MOL0     H 7286   4.756  12.085   2.152  1.7741 -0.7358  1.9823
  795MOL0     H 7287   4.416  12.452   2.151 -0.1938  3.0167 -1.1860
  795MOL0     H 7288   4.399  12.689   2.202 -1.3984 -0.4560  2.3633
  795MOL0     H 7289   4.534  12.882   2.516 -0.1577  0.9806  1.0699
  795MOL0     H 7290   4.703  12.888   2.456  1.0736  2.0957 -0.8817
  795MOL0     H 7291   4.468  13.049   2.327 -2.3018  1.4241  2.4909
  795MOL0     H 7292   4.560  13.119   2.456  2.9211 -0.1556  1.2416
  795MOL0     H 7293   4.710  13.012   2.213 -3.6118 -0.0527 -2.4956
  795MOL0     H 7294   4.600  13.138   2.174  1.3662  1.7640 -0.5910
  795MOL0     H 7295   4.783  13.174   2.410  0.7728  0.1794  0.2499
  795MOL0     H 7296   4.703  13.307   2.313  0.8062 -0.6234  1.6161
  795MOL0     H 7297   4.927  13.107   2.237 -2.0164  0.2513 -1.9632
  795MOL0     H 7298   4.950  13.275   2.295 -0.9368 -2.0766  2.3908
  795MOL0     H 7299   4.791  13.207   2.040  0.1823 -0.3244 -0.6652
  795MOL0     H 7300   4.857  13.362   2.097 -0.1267  0.4199 -0.2987
  795MOL0     H 7301   5.033  13.112   2.035  0.1964 -0.1901 -0.4263
  795MOL0     H 7302   5.087  13.277   2.052 -2.6993  1.4308  3.5597
  795MOL0     H 7303   4.897  13.297   1.847 -0.2389 -1.0386 -1.1102
  795MOL0     H 7304   5.060  13.237   1.804  2.5303 -5.2512  1.7850
  795MOL0     H 7305   4.754  12.676   2.438 -0.3975  0.4614 -0.8074
  795MOL0     H 7306   4.793  12.439   2.385  1.9631 -0.0789 -4.1970
  795MOL0     H 7307   4.504  12.020   2.492  0.8252  1.3362  0.6736
  795MOL0     H 7308   4.549  11.778   2.477 -0.8628  1.4699  0.9920
  795MOL0     H 7309   4.906  11.308   0.912 -0.3981  4.4289  0.6507
  795MOL0     H 7310   5.071  11.106   0.939  0.6895  1.2384 -1.9151
  795MOL0     H 7311   5.421  11.101   1.383  0.2326 -1.3393  1.8273
  795MOL0     H 7312   5.608  10.992   1.476  0.1954  3.5191  0.2874
  795MOL0     H 7313   5.743  10.812   1.523  2.2768  2.4977 -0.1301
  795MOL0     H 7314   5.879  10.734   1.479 -1.6584 -2.7291  3.3176
  795MOL0     H 7315   5.613  10.703   1.329  1.1165  2.5797 -2.8445
  795MOL0     H 7316   5.706  10.583   1.417 -0.8359 -0.8858 -0.3725
  795MOL0     H 7317   5.798  10.696   1.143  0.7250 -0.4128 -0.8822
  795MOL0     H 7318   5.703  10.560   1.159 -0.6007  4.2448 -1.5920
  795MOL0     H 7319   5.961  10.571   1.319 -1.3101 -1.3307  0.7275
  795MOL0     H 7320   5.872  10.431   1.253 -0.1586 -0.2274 -0.5053
  795MOL0     H 7321   6.119  10.618   0.942 -2.5418  0.9908 -1.1270
  795MOL0     H 7322   5.808  10.937   1.110  0.7051 -0.3447  0.8600
  795MOL0     H 7323   5.521  10.966   0.929  1.8739 -2.8913 -1.3809
  795MOL0     H 7324   5.624  11.121   0.906 -0.9904  0.7524  2.2482
  795MOL0     H 7325   5.701  10.961   0.932  1.6608  1.8349  2.8118
  796MOL0     O 7326   7.136   0.699   4.909 -0.6880  0.2180 -0.5866
  796MOL0     C 7327   7.030   0.755   4.931  0.6033 -0.8209 -1.3321
  796MOL0     O 7328   7.018   0.898   4.960  0.7540  0.5106  0.3660
  796MOL0     C 7329   7.150   0.951   4.970  0.4545 -0.3893  1.8124
  796MOL0     C 7330   7.215   0.987   4.851  0.5330  0.7384  0.8226
  796MOL0     C 7331   7.343   1.039   4.847  0.5223  0.9300 -0.0938
  796MOL0     C 7332   7.421   1.042   4.960  1.2506 -0.4955 -0.1574
  796MOL0     O 7333   7.545   1.089   4.977  0.1530  0.4061 -0.0502
  796MOL0     C 7334   7.626   1.116   4.863 -0.4004 -0.1639 -0.6249
  796MOL0     C 7335   7.594   1.258   4.809  0.0151 -0.2271 -0.3926
  796MOL0     C 7336   7.694   1.360   4.874  1.4665 -0.7603 -0.5581
  796MOL0     C 7337   7.690   1.494   4.794 -0.2668 -0.0191 -0.9165
  796MOL0     C 7338   7.778   1.596   4.860  0.5936 -0.9111 -0.2112
  796MOL0     C 7339   7.894   1.639   4.783  1.2705  0.7042 -0.2133
  796MOL0     C 7340   7.973   1.737   4.866  0.7439 -0.5387 -0.4767
  796MOL0     C 7341   8.081   1.799   4.783 -0.1331 -0.1740  0.7680
  796MOL0     N 7342   8.126   1.939   4.825 -0.7185  0.7456 -0.1118
  796MOL0     C 7343   8.191   2.033   4.748  0.7885 -0.2068  0.1178
  796MOL0     C 7344   8.214   2.141   4.830  0.2776  0.2791 -0.7627
  796MOL0     C 7345   8.286   2.269   4.807  0.6020  0.3157  0.6537
  796MOL0     C 7346   8.205   2.358   4.723  0.1040 -1.0482  0.9718
  796MOL0     C 7347   8.085   2.433   4.781 -0.1631  0.4330  0.8952
  796MOL0     C 7348   8.003   2.510   4.681 -0.5799  0.0947 -0.2943
  796MOL0     O 7349   8.062   2.562   4.572 -0.2477  0.4174 -0.0112
  796MOL0     C 7350   8.052   2.504   4.445 -0.9359 -1.0160  0.2632
  796MOL0     C 7351   8.089   2.585   4.338  0.7560  0.3918  1.2191
  796MOL0     C 7352   8.085   2.528   4.210  0.5861 -0.2533 -0.4675
  796MOL0     C 7353   8.045   2.398   4.179  0.2812  0.7858 -0.5470
  796MOL0     C 7354   8.038   2.334   4.042 -1.1884  0.2570 -0.8412
  796MOL0     O 7355   8.055   2.417   3.940 -0.4800  0.6011 -0.4783
  796MOL0     C 7356   8.074   2.363   3.814 -0.2366  0.0592  1.1947
  796MOL0     C 7357   7.979   2.394   3.716  0.1844  0.5809 -0.1554
  796MOL0     C 7358   7.977   2.328   3.591 -0.7297  0.1065  0.4954
  796MOL0     C 7359   8.072   2.225   3.566 -0.3839  0.6475  1.6336
  796MOL0     O 7360   8.090   2.169   3.445 -0.8923 -0.1586  0.0709
  796MOL0     C 7361   8.224   2.149   3.383 -0.1190  0.7768 -0.1006
  796MOL0     C 7362   8.241   2.250   3.263  0.9590 -0.0730  0.0933
  796MOL0     C 7363   8.382   2.285   3.217 -0.4642 -1.2293 -0.2707
  796MOL0     C 7364   8.384   2.394   3.108  0.6370 -0.3882 -0.4630
  796MOL0     C 7365   8.527   2.448   3.082  1.1714  0.9070  0.0281
  796MOL0     C 7366   8.532   2.545   2.971  0.5104 -0.2358 -0.0591
  796MOL0     C 7367   8.678   2.544   2.922  0.0520 -0.4382 -0.2080
  796MOL0     C 7368   8.704   2.617   2.792  0.3921  0.3022  0.1580
  796MOL0    Cl 7369   8.886   2.608   2.767  0.0131 -0.2867  0.3454
  796MOL0     C 7370   8.170   2.200   3.659 -0.3600 -0.5241  1.1799
  796MOL0     C 7371   8.163   2.268   3.779  0.6159  0.8364 -0.8043
  796MOL0     O 7372   8.017   2.213   4.034  0.9595 -0.6296 -0.2503
  796MOL0     C 7373   8.010   2.316   4.290  0.7281 -0.0351  0.8426
  796MOL0     C 7374   8.013   2.368   4.424  0.9014 -1.3724  0.1930
  796MOL0     N 7375   8.153   2.106   4.949  0.1192  0.5196 -0.1526
  796MOL0     N 7376   8.111   1.985   4.954 -1.1884 -0.1770  0.0112
  796MOL0     C 7377   7.356   1.008   5.083  0.6446  0.0486 -0.0129
  796MOL0     C 7378   7.222   0.964   5.089  0.1195  0.7473  0.0756
  796MOL0     C 7379   6.912   0.684   4.896 -0.4225  1.2896 -0.0127
  796MOL0     C 7380   6.804   0.755   4.839  0.1116 -0.8061  0.7564
  796MOL0     C 7381   6.675   0.702   4.836 -0.3521 -0.0163  0.4030
  796MOL0     C 7382   6.654   0.570   4.861  0.5557  0.6280  0.3052
  796MOL0     O 7383   6.544   0.487   4.852  0.1161 -0.1037  0.4539
  796MOL0     C 7384   6.415   0.534   4.883 -1.3937  0.5303 -0.1660
  796MOL0     C 7385   6.318   0.425   4.904  0.1495 -0.1932  0.0252
  796MOL0     C 7386   6.304   0.336   4.782  0.7388 -0.0069 -0.3671
  796MOL0     C 7387   6.202   0.229   4.802  0.0201  0.6761 -0.3966
  796MOL0     C 7388   6.068   0.279   4.812  0.5849 -0.2260  1.0271
  796MOL0     C 7389   5.959   0.318   4.830  0.1088 -0.9491 -0.4694
  796MOL0     C 7390   6.762   0.502   4.918  0.4749 -0.1846 -0.3927
  796MOL0     C 7391   6.889   0.556   4.937 -0.4513  0.6136  0.4016
  796MOL0     C 7392   6.987   0.476   5.009 -1.7556  1.4826 -0.4368
  796MOL0     H 7393   7.158   0.976   4.759 -1.6081  0.5953  2.1124
  796MOL0     H 7394   7.375   1.058   4.745 -3.0564 -1.7852 -1.9354
  796MOL0     H 7395   7.731   1.112   4.893 -0.9365  1.3306  1.7322
  796MOL0     H 7396   7.606   1.042   4.785 -4.0402 -0.6184  0.5414
  796MOL0     H 7397   7.490   1.292   4.807  0.0968  0.1897  1.2793
  796MOL0     H 7398   7.624   1.262   4.704 -4.1782  3.3883 -1.7645
  796MOL0     H 7399   7.798   1.326   4.867  0.7619 -3.3149  0.4287
  796MOL0     H 7400   7.665   1.361   4.979 -1.3323 -3.4446 -1.1672
  796MOL0     H 7401   7.732   1.469   4.697  4.8715 -0.3258  1.1060
  796MOL0     H 7402   7.588   1.535   4.793 -0.0742  0.7809  1.7294
  796MOL0     H 7403   7.722   1.690   4.869  2.9394  0.5290  0.5539
  796MOL0     H 7404   7.793   1.566   4.964 -2.9584 -1.7572  0.1899
  796MOL0     H 7405   7.956   1.551   4.763 -3.5630 -2.3724 -3.7939
  796MOL0     H 7406   7.861   1.683   4.688 -1.7328 -1.9096 -0.5454
  796MOL0     H 7407   8.021   1.691   4.953 -0.2038 -0.7678 -0.0605
  796MOL0     H 7408   7.910   1.818   4.905  1.2078 -1.1146  1.5496
  796MOL0     H 7409   8.161   1.726   4.797 -1.7749 -2.2566 -0.1319
  796MOL0     H 7410   8.056   1.806   4.676 -1.6978 -1.7133  0.9945
  796MOL0     H 7411   8.234   2.024   4.649 -0.7956  0.9615 -0.7159
  796MOL0     H 7412   8.303   2.318   4.904  0.8009 -0.4343  1.0139
  796MOL0     H 7413   8.383   2.247   4.762  0.5006  1.8344 -0.3590
  796MOL0     H 7414   8.271   2.441   4.697  0.7322 -2.0078 -0.6308
  796MOL0     H 7415   8.182   2.302   4.631 -0.8028 -0.8426  1.0602
  796MOL0     H 7416   8.125   2.509   4.850  2.8621  2.0487 -2.3043
  796MOL0     H 7417   8.019   2.364   4.834  1.0411 -0.8561  0.7731
  796MOL0     H 7418   7.945   2.585   4.737 -3.4741 -1.3717 -1.1466
  796MOL0     H 7419   7.935   2.428   4.659 -1.7252  0.7545  0.6781
  796MOL0     H 7420   8.123   2.688   4.350  0.9734  0.4175  0.4419
  796MOL0     H 7421   8.123   2.584   4.126  0.1220 -1.3356 -1.4165
  796MOL0     H 7422   7.906   2.473   3.731 -2.4537 -1.6674 -0.4289
  796MOL0     H 7423   7.903   2.361   3.519 -1.5280 -2.9809 -0.2502
  796MOL0     H 7424   8.304   2.163   3.456  1.6348  2.7024 -2.2532
  796MOL0     H 7425   8.231   2.048   3.342  1.7620  0.5695  0.6427
  796MOL0     H 7426   8.188   2.202   3.180 -1.7140 -0.8675  2.0938
  796MOL0     H 7427   8.177   2.336   3.287 -0.9919 -1.4894  0.2804
  796MOL0     H 7428   8.443   2.312   3.303 -1.4326 -1.8341  0.6280
  796MOL0     H 7429   8.428   2.195   3.174  1.6756 -1.0722  1.5430
  796MOL0     H 7430   8.316   2.471   3.147 -1.0493 -2.5566  1.1580
  796MOL0     H 7431   8.347   2.358   3.011  0.3482  2.0293 -1.3276
  796MOL0     H 7432   8.594   2.367   3.051  0.8043  0.5175  0.2440
  796MOL0     H 7433   8.563   2.494   3.175  1.0289  1.7594 -0.3284
  796MOL0     H 7434   8.468   2.517   2.886 -0.2953  1.5952 -0.0881
  796MOL0     H 7435   8.488   2.636   3.010  1.3683  1.6601 -3.1387
  796MOL0     H 7436   8.720   2.444   2.906  1.8568  0.5736 -2.5315
  796MOL0     H 7437   8.736   2.597   2.998  1.0632 -0.6238 -0.8225
  796MOL0     H 7438   8.653   2.568   2.709 -0.8203  0.5449  0.7474
  796MOL0     H 7439   8.679   2.723   2.807  2.5484  0.4686  3.9302
  796MOL0     H 7440   8.244   2.125   3.634  1.5186  0.5929  3.0934
  796MOL0     H 7441   8.238   2.243   3.853 -0.1413  2.1728  0.4485
  796MOL0     H 7442   7.975   2.214   4.287 -1.9038  0.7910  0.6260
  796MOL0     H 7443   7.984   2.303   4.506  2.4635 -1.7712  0.4734
  796MOL0     H 7444   7.414   1.016   5.174 -0.0990  0.9491  0.3970
  796MOL0     H 7445   7.178   0.925   5.180 -0.4457 -1.5562 -1.0840
  796MOL0     H 7446   6.811   0.858   4.805 -0.0108 -0.5189  1.5687
  796MOL0     H 7447   6.593   0.766   4.804 -1.1866 -0.6725  1.1663
  796MOL0     H 7448   6.380   0.599   4.803  1.4942  2.5692  0.0772
  796MOL0     H 7449   6.424   0.590   4.977  2.5334 -0.5438  0.2591
  796MOL0     H 7450   6.219   0.461   4.935  0.0666 -2.8775  3.5078
  796MOL0     H 7451   6.348   0.368   4.993  1.1670  0.1208 -0.0998
  796MOL0     H 7452   6.403   0.293   4.769  0.3252 -0.3767 -2.8300
  796MOL0     H 7453   6.262   0.397   4.701 -0.7148 -1.1226 -0.4916
  796MOL0     H 7454   6.208   0.171   4.710  1.7159 -1.7432  1.1442
  796MOL0     H 7455   6.217   0.157   4.883  1.8542 -2.0942 -2.9985
  796MOL0     H 7456   5.859   0.353   4.842  0.3072  0.1851 -1.8069
  796MOL0     H 7457   6.753   0.399   4.951 -0.1233  0.1546  0.5252
  796MOL0     H 7458   7.058   0.433   4.938  1.0704  1.9274  1.9321
  796MOL0     H 7459   7.060   0.532   5.068  2.3836 -1.3615 -2.3947
  796MOL0     H 7460   6.938   0.408   5.080  1.3507  0.9665  1.3958
  797MOL0     O 7461  10.989   0.952   2.357  0.6795 -0.1837 -0.6608
  797MOL0     C 7462  10.894   0.990   2.427 -0.3917  0.1607 -0.9375
  797MOL0     O 7463  10.881   1.115   2.479  0.3758 -1.2549  0.2257
  797MOL0     C 7464  10.960   1.221   2.432  0.8603  0.8687  0.5088
  797MOL0     C 7465  10.962   1.256   2.298  0.1219 -0.5176  0.2705
  797MOL0     C 7466  11.048   1.349   2.245 -0.7168 -0.8257 -0.8715
  797MOL0     C 7467  11.127   1.426   2.334 -0.5091  0.6047 -0.1105
  797MOL0     O 7468  11.189   1.528   2.266  0.4605 -0.2465  0.4543
  797MOL0     C 7469  11.263   1.631   2.326 -0.0094 -0.4584 -0.3015
  797MOL0     C 7470  11.339   1.727   2.238  1.0914 -0.3897 -0.1409
  797MOL0     C 7471  11.282   1.780   2.102  0.3857  0.2734  0.3101
  797MOL0     C 7472  11.151   1.855   2.111 -0.2647  0.3663  0.1955
  797MOL0     C 7473  11.032   1.759   2.077  0.1322 -0.4724 -0.7452
  797MOL0     C 7474  10.903   1.820   2.138 -1.1982  0.0960  0.2554
  797MOL0     C 7475  10.802   1.712   2.167 -0.0519 -0.4837  0.5959
  797MOL0     C 7476  10.679   1.771   2.239  0.5029 -0.6655 -0.2388
  797MOL0     N 7477  10.590   1.873   2.171 -0.0300 -0.1832  0.6543
  797MOL0     C 7478  10.524   1.846   2.054  1.0048  0.0808 -0.1927
  797MOL0     C 7479  10.434   1.946   2.043 -0.2059  0.1482  0.1782
  797MOL0     C 7480  10.318   1.965   1.951  0.0169  0.5197  0.3078
  797MOL0     C 7481  10.388   2.000   1.812  0.0418  0.3822 -0.9578
  797MOL0     C 7482  10.379   1.895   1.697 -0.4361 -0.7045  0.5641
  797MOL0     C 7483  10.234   1.853   1.665 -0.6096 -0.1083  0.1633
  797MOL0     O 7484  10.231   1.771   1.554  0.4293  0.4246 -0.3687
  797MOL0     C 7485  10.104   1.739   1.518 -0.6018  0.1365  0.5645
  797MOL0     C 7486  10.055   1.815   1.408  0.9760  0.5522 -0.3830
  797MOL0     C 7487   9.931   1.786   1.371 -1.4752  0.5755  0.1588
  797MOL0     C 7488   9.847   1.691   1.433 -0.7841  0.4001 -0.8796
  797MOL0     C 7489   9.717   1.670   1.380  0.2041 -0.1789 -0.2997
  797MOL0     O 7490   9.625   1.659   1.480  0.3758 -0.5836 -0.7434
  797MOL0     C 7491   9.497   1.624   1.447  0.0026 -0.5298 -0.1932
  797MOL0     C 7492   9.466   1.512   1.360  0.3075 -0.5039  0.1216
  797MOL0     C 7493   9.328   1.483   1.344  0.3021 -0.2979 -0.5150
  797MOL0     C 7494   9.220   1.567   1.386 -0.1651 -0.5458  1.0459
  797MOL0     O 7495   9.100   1.534   1.342  0.1805  0.2544 -0.2477
  797MOL0     C 7496   8.998   1.623   1.379  0.3850  0.3732  0.7565
  797MOL0     C 7497   8.928   1.560   1.506  0.1039 -0.3285 -0.2233
  797MOL0     C 7498   8.779   1.581   1.515 -0.3996 -0.2559  1.0707
  797MOL0     C 7499   8.716   1.511   1.624  1.3698 -0.3012 -0.3349
  797MOL0     C 7500   8.569   1.491   1.576  0.4852 -0.4429  0.4829
  797MOL0     C 7501   8.500   1.374   1.656 -0.2431  0.0467 -0.9809
  797MOL0     C 7502   8.584   1.248   1.638  0.2624 -0.9133  0.3495
  797MOL0     C 7503   8.490   1.130   1.623  0.3615 -0.2059 -0.1675
  797MOL0    Cl 7504   8.422   1.108   1.780 -0.1833  0.0542  0.3921
  797MOL0     C 7505   9.251   1.677   1.466 -0.0921 -0.1252 -0.5576
  797MOL0     C 7506   9.385   1.696   1.508  0.8199  0.1311  0.1474
  797MOL0     O 7507   9.691   1.694   1.262 -0.4631  0.2850  0.8374
  797MOL0     C 7508   9.893   1.625   1.550 -0.5067  0.0191  0.2350
  797MOL0     C 7509  10.022   1.647   1.586 -0.3436  0.0260 -0.3063
  797MOL0     N 7510  10.452   2.032   2.138  0.0034  0.2988 -0.0971
  797MOL0     N 7511  10.550   1.990   2.211  0.3709 -1.1816 -0.0737
  797MOL0     C 7512  11.115   1.404   2.472 -0.9708  0.4277  0.1418
  797MOL0     C 7513  11.038   1.299   2.521  0.2157  0.4034  0.2530
  797MOL0     C 7514  10.787   0.903   2.473 -0.0661  0.2268  1.0744
  797MOL0     C 7515  10.684   0.955   2.556 -0.4952  0.4190 -0.1843
  797MOL0     C 7516  10.585   0.879   2.605  0.4042  0.3011 -0.2307
  797MOL0     C 7517  10.577   0.744   2.570 -0.4902 -0.2532  0.1001
  797MOL0     O 7518  10.478   0.666   2.611  0.4156  0.1106  0.5245
  797MOL0     C 7519  10.401   0.709   2.725  0.3476  0.0099  0.4128
  797MOL0     C 7520  10.291   0.612   2.745  1.0086  0.4529 -0.4563
  797MOL0     C 7521  10.171   0.610   2.648 -0.4467  0.4259  0.1087
  797MOL0     C 7522  10.075   0.721   2.669  0.0371 -0.2217 -0.4849
  797MOL0     C 7523   9.987   0.714   2.786 -0.9606  0.0414 -0.6217
  797MOL0     C 7524   9.911   0.709   2.877  0.6040 -0.0607 -0.5575
  797MOL0     C 7525  10.677   0.692   2.483  1.6245  0.3795 -0.1596
  797MOL0     C 7526  10.789   0.766   2.436 -0.3183  0.3076 -0.0229
  797MOL0     C 7527  10.885   0.693   2.346 -0.4645  0.4066 -0.6419
  797MOL0     H 7528  10.882   1.216   2.237 -1.5617 -1.5009  2.9511
  797MOL0     H 7529  11.061   1.379   2.142  0.9796  0.0670 -0.4199
  797MOL0     H 7530  11.189   1.688   2.384  2.3795  2.7155 -0.0885
  797MOL0     H 7531  11.343   1.602   2.395 -0.8419  0.1632  0.9674
  797MOL0     H 7532  11.434   1.679   2.211  1.9234  0.2622  1.4944
  797MOL0     H 7533  11.359   1.823   2.287 -0.8677  1.0037 -1.9022
  797MOL0     H 7534  11.276   1.695   2.033  0.4604 -1.7797  2.6930
  797MOL0     H 7535  11.350   1.856   2.063  0.7199 -0.7978 -1.3062
  797MOL0     H 7536  11.148   1.904   2.209  0.1740  2.0017 -0.5729
  797MOL0     H 7537  11.148   1.936   2.038  1.2588  0.5266  0.2656
  797MOL0     H 7538  11.017   1.744   1.969  2.6977 -1.5105 -1.0397
  797MOL0     H 7539  11.059   1.659   2.113  1.2670 -1.1230 -3.1381
  797MOL0     H 7540  10.924   1.883   2.225  2.9359  0.7647 -0.9735
  797MOL0     H 7541  10.857   1.882   2.061  0.2391  1.7949  0.6930
  797MOL0     H 7542  10.868   1.651   2.230  2.1180  1.8028  0.6950
  797MOL0     H 7543  10.760   1.653   2.086  1.5139 -1.2951  0.3266
  797MOL0     H 7544  10.617   1.691   2.281  0.3955 -0.6960 -0.4566
  797MOL0     H 7545  10.710   1.818   2.333 -2.1659 -1.1344  0.9552
  797MOL0     H 7546  10.524   1.760   1.988 -2.0265  0.9059 -1.4227
  797MOL0     H 7547  10.258   1.875   1.962 -0.7478  0.9060 -0.6458
  797MOL0     H 7548  10.262   2.052   1.987  3.0245  2.6954  0.2070
  797MOL0     H 7549  10.341   2.091   1.774  1.4577  1.7213  0.3663
  797MOL0     H 7550  10.493   2.016   1.837  0.6233 -0.4642 -2.6614
  797MOL0     H 7551  10.446   1.810   1.715 -0.1582 -1.0554 -1.7076
  797MOL0     H 7552  10.400   1.940   1.599  2.0689 -4.1100 -0.7206
  797MOL0     H 7553  10.169   1.938   1.642 -2.6086 -0.9461  2.3433
  797MOL0     H 7554  10.182   1.803   1.747 -0.2565 -1.0380 -0.1705
  797MOL0     H 7555  10.129   1.879   1.360  1.2483  0.0554 -0.6405
  797MOL0     H 7556   9.897   1.850   1.290 -1.8216  1.8953  1.3170
  797MOL0     H 7557   9.550   1.449   1.333  0.7796  0.2307 -0.1715
  797MOL0     H 7558   9.313   1.401   1.275  4.1638 -0.3561 -1.4741
  797MOL0     H 7559   9.019   1.730   1.373  1.6472  0.0913 -0.3695
  797MOL0     H 7560   8.919   1.606   1.305  1.0119 -1.1940  0.4013
  797MOL0     H 7561   8.927   1.451   1.515  0.6603 -0.3528 -0.3907
  797MOL0     H 7562   8.977   1.603   1.594  0.8654 -2.3326  0.3913
  797MOL0     H 7563   8.753   1.685   1.534  1.1994 -0.1023  2.7351
  797MOL0     H 7564   8.737   1.545   1.421 -3.4780  1.4269  1.7107
  797MOL0     H 7565   8.715   1.551   1.725 -2.4013 -1.8121  0.3989
  797MOL0     H 7566   8.760   1.411   1.620 -2.1679 -1.9781 -2.2043
  797MOL0     H 7567   8.575   1.461   1.471 -2.4890  0.4501 -0.0171
  797MOL0     H 7568   8.509   1.579   1.598  0.3077 -1.2326  3.6009
  797MOL0     H 7569   8.484   1.405   1.759 -2.9374 -2.3395 -0.5593
  797MOL0     H 7570   8.395   1.366   1.626 -0.3547  0.7791 -0.7975
  797MOL0     H 7571   8.655   1.246   1.720  0.4613  1.5050  0.3128
  797MOL0     H 7572   8.646   1.254   1.548  0.8705 -1.0019  0.7577
  797MOL0     H 7573   8.414   1.163   1.551  0.9204 -0.2501 -0.7917
  797MOL0     H 7574   8.556   1.049   1.590 -1.0241 -1.3794 -0.1334
  797MOL0     H 7575   9.180   1.750   1.505 -0.5932 -1.1969  0.6523
  797MOL0     H 7576   9.392   1.780   1.576  1.0308  1.8588 -1.9158
  797MOL0     H 7577   9.828   1.552   1.596 -3.3304  1.4852 -1.1721
  797MOL0     H 7578  10.086   1.593   1.655  1.3318  0.9379 -1.0827
  797MOL0     H 7579  11.181   1.457   2.538 -3.3422 -0.3888  3.4268
  797MOL0     H 7580  11.049   1.271   2.625  0.7760  1.4860  0.4966
  797MOL0     H 7581  10.682   1.063   2.571  1.6488  0.4485  0.1609
  797MOL0     H 7582  10.509   0.941   2.652  4.0964  4.2039  1.1789
  797MOL0     H 7583  10.353   0.806   2.708  2.4197  0.8303 -1.0935
  797MOL0     H 7584  10.468   0.708   2.811 -0.7848 -2.3277  1.3504
  797MOL0     H 7585  10.250   0.641   2.843 -1.4008  0.8022 -1.4972
  797MOL0     H 7586  10.317   0.505   2.744 -0.9694 -0.2812 -5.7771
  797MOL0     H 7587  10.111   0.522   2.670 -3.5223  2.4130  0.2450
  797MOL0     H 7588  10.211   0.604   2.546 -1.0066 -0.7487 -0.0566
  797MOL0     H 7589  10.127   0.814   2.695  0.3230 -0.2738 -0.8683
  797MOL0     H 7590  10.007   0.729   2.584 -0.2713  1.1633 -0.1461
  797MOL0     H 7591   9.833   0.733   2.946  0.5865  0.9700 -0.9211
  797MOL0     H 7592  10.669   0.587   2.456  0.4763  0.4048  0.0478
  797MOL0     H 7593  10.888   0.711   2.238  3.1747  1.8898 -0.4204
  797MOL0     H 7594  10.987   0.714   2.379  0.1949  1.6623 -3.2006
  797MOL0     H 7595  10.855   0.589   2.361  0.8842  0.2146  1.0561
  798MOL0     O 7596   8.155   0.185   3.376  0.8919 -0.1450 -0.5451
  798MOL0     C 7597   8.120   0.301   3.334 -0.4050  0.8073 -0.3738
  798MOL0     O 7598   8.167   0.354   3.215 -0.2085 -0.2289 -0.6587
  798MOL0     C 7599   8.263   0.297   3.143 -0.0912 -0.3035  0.0904
  798MOL0     C 7600   8.256   0.164   3.095  0.1001 -0.3768  0.5338
  798MOL0     C 7601   8.368   0.104   3.028  0.2732  0.5435  0.2505
  798MOL0     C 7602   8.478   0.183   2.997  0.1300  0.0630 -1.5485
  798MOL0     O 7603   8.576   0.122   2.926  0.0328  0.0827  0.5460
  798MOL0     C 7604   8.709   0.142   2.956  0.9742 -0.0277  0.0280
  798MOL0     C 7605   8.744   0.135   3.107 -0.5127 -0.3635 -0.0895
  798MOL0     C 7606   8.896   0.116   3.111 -0.3044  0.3090 -0.5092
  798MOL0     C 7607   8.967   0.083   3.247  0.9958 -0.1536 -1.1195
  798MOL0     C 7608   9.081  -0.022   3.247  0.0826 -0.3878  0.4014
  798MOL0     C 7609   9.172  -0.005   3.119 -0.6068 -0.1379 -0.0950
  798MOL0     C 7610   9.320  -0.063   3.144 -0.0745 -0.2761  0.0493
  798MOL0     C 7611   9.331  -0.210   3.146  0.0967  1.3193 -0.5812
  798MOL0     N 7612   9.454  -0.262   3.214 -0.2839  0.4032 -0.2703
  798MOL0     C 7613   9.451  -0.305   3.344 -0.2247  0.5992 -0.5015
  798MOL0     C 7614   9.578  -0.346   3.370  0.3946 -0.0272 -0.2041
  798MOL0     C 7615   9.626  -0.396   3.504 -0.2335 -0.0573  0.5720
  798MOL0     C 7616   9.767  -0.337   3.551  1.0858 -0.0781  2.1226
  798MOL0     C 7617   9.795  -0.364   3.694  0.0428  0.2048  0.0439
  798MOL0     C 7618   9.929  -0.311   3.739  0.0010 -0.0536 -0.7277
  798MOL0     O 7619   9.947  -0.178   3.702  0.6170  0.1292 -0.4648
  798MOL0     C 7620   9.868  -0.072   3.763 -0.4797  0.1611 -0.5122
  798MOL0     C 7621   9.809  -0.098   3.887  0.3114 -0.4311  0.6621
  798MOL0     C 7622   9.727   0.000   3.946 -0.1610  0.0468  0.3335
  798MOL0     C 7623   9.696   0.116   3.875 -0.5644  0.4195 -0.8655
  798MOL0     C 7624   9.611   0.221   3.938  0.4403  0.0058  0.6172
  798MOL0     O 7625   9.554   0.183   4.057 -0.4347  0.7144 -0.3405
  798MOL0     C 7626   9.446   0.255   4.111  1.2383  0.9366 -0.4682
  798MOL0     C 7627   9.472   0.384   4.157 -0.2314 -1.1106  0.0297
  798MOL0     C 7628   9.363   0.456   4.196  0.6045 -0.1606 -0.1968
  798MOL0     C 7629   9.237   0.395   4.213 -1.0624  0.4976  0.6020
  798MOL0     O 7630   9.148   0.477   4.261 -0.0145  0.4810 -0.7200
  798MOL0     C 7631   9.021   0.412   4.301  0.0734 -0.1429  0.1671
  798MOL0     C 7632   8.944   0.530   4.348 -0.3031  0.5593 -0.5482
  798MOL0     C 7633   8.803   0.486   4.399 -0.3559 -0.6239 -1.2164
  798MOL0     C 7634   8.784   0.531   4.547 -0.6443  0.4307  0.8606
  798MOL0     C 7635   8.636   0.539   4.584 -0.8482  0.8740 -0.0259
  798MOL0     C 7636   8.609   0.561   4.736 -0.7283  0.0607  0.9016
  798MOL0     C 7637   8.671   0.682   4.814 -0.0631  0.7090 -0.4146
  798MOL0     C 7638   8.630   0.818   4.766  0.0527  0.3826  0.2698
  798MOL0    Cl 7639   8.727   0.943   4.852 -0.2912 -0.0071  0.3019
  798MOL0     C 7640   9.217   0.265   4.173 -0.2361 -1.0435 -0.6948
  798MOL0     C 7641   9.321   0.193   4.126 -0.5686  0.3311  0.1312
  798MOL0     O 7642   9.594   0.331   3.884 -0.8232 -1.1255  0.3552
  798MOL0     C 7643   9.755   0.141   3.751 -0.3880  0.1909 -0.1129
  798MOL0     C 7644   9.847   0.045   3.705 -0.7106 -0.3735 -0.1797
  798MOL0     N 7645   9.651  -0.333   3.257 -0.0958  0.7258 -0.5370
  798MOL0     N 7646   9.576  -0.281   3.157  0.3562 -0.3620  0.2308
  798MOL0     C 7647   8.488   0.315   3.042  0.8360 -0.3515  0.5104
  798MOL0     C 7648   8.380   0.367   3.114  0.4290 -0.7501 -0.3617
  798MOL0     C 7649   8.008   0.372   3.403  0.4401  0.3618  0.2366
  798MOL0     C 7650   7.995   0.337   3.544  0.4625 -0.1199  0.0507
  798MOL0     C 7651   7.888   0.403   3.616 -0.1369 -0.2090  0.1835
  798MOL0     C 7652   7.781   0.483   3.566  0.0936 -0.0738  0.2864
  798MOL0     O 7653   7.670   0.536   3.630  0.0928  0.0898  0.5954
  798MOL0     C 7654   7.628   0.476   3.754 -0.5282  0.2245 -0.6241
  798MOL0     C 7655   7.505   0.552   3.809  1.0354  0.6527  0.6642
  798MOL0     C 7656   7.430   0.470   3.928 -0.6966  0.7886  0.2949
  798MOL0     C 7657   7.334   0.556   4.006  0.3656 -0.2623  0.5241
  798MOL0     C 7658   7.265   0.483   4.118  0.1088 -0.0773 -0.1935
  798MOL0     C 7659   7.211   0.414   4.209 -0.6353  0.1026  0.4067
  798MOL0     C 7660   7.801   0.515   3.435 -0.1815  0.2012 -0.0308
  798MOL0     C 7661   7.908   0.463   3.354 -0.1102  0.2953 -0.4406
  798MOL0     C 7662   7.899   0.499   3.209 -0.5657 -1.2970 -0.7518
  798MOL0     H 7663   8.158   0.120   3.114 -0.6109  0.0732 -1.7530
  798MOL0     H 7664   8.375   0.003   2.988  1.4508  1.4350 -1.9580
  798MOL0     H 7665   8.776   0.077   2.900  0.6453 -0.3782  0.0372
  798MOL0     H 7666   8.728   0.242   2.915 -0.2044 -0.1819 -0.9816
  798MOL0     H 7667   8.703   0.054   3.166  1.4565 -0.0678  1.8170
  798MOL0     H 7668   8.719   0.227   3.161  0.4278  0.1942 -0.5650
  798MOL0     H 7669   8.949   0.198   3.062  0.2316 -1.2754 -2.7290
  798MOL0     H 7670   8.912   0.022   3.058 -0.9359 -0.5439  0.7554
  798MOL0     H 7671   9.027   0.166   3.285 -1.1995  0.4307  1.3432
  798MOL0     H 7672   8.897   0.062   3.329  2.4092  2.7370  0.9735
  798MOL0     H 7673   9.137  -0.005   3.340  1.1883 -1.6147 -0.0115
  798MOL0     H 7674   9.038  -0.123   3.246 -2.1725  0.5256 -0.0190
  798MOL0     H 7675   9.119  -0.047   3.033  1.0656  0.1622 -1.3179
  798MOL0     H 7676   9.193   0.098   3.088 -0.2864 -0.8047 -2.2582
  798MOL0     H 7677   9.355  -0.024   3.240  0.6370  3.0634 -1.4264
  798MOL0     H 7678   9.389  -0.017   3.071 -0.3216 -0.5000 -0.3297
  798MOL0     H 7679   9.250  -0.242   3.211  0.6372 -1.8949 -1.3389
  798MOL0     H 7680   9.325  -0.254   3.047 -2.8821 -0.5862  0.3173
  798MOL0     H 7681   9.368  -0.309   3.413  0.0077  0.0244 -0.2539
  798MOL0     H 7682   9.550  -0.365   3.576 -0.5833  1.8452 -0.5395
  798MOL0     H 7683   9.644  -0.504   3.496  2.1956  0.2866  0.6014
  798MOL0     H 7684   9.832  -0.392   3.483 -3.3665  1.2075 -4.0443
  798MOL0     H 7685   9.765  -0.231   3.523 -1.4132 -0.7610 -0.7503
  798MOL0     H 7686   9.803  -0.471   3.710 -0.5300  0.1057 -0.2725
  798MOL0     H 7687   9.719  -0.319   3.759 -0.9619 -3.0528  1.2909
  798MOL0     H 7688  10.004  -0.373   3.690  1.9171  1.3416  0.3341
  798MOL0     H 7689   9.955  -0.333   3.843 -0.6213 -1.1497 -0.7902
  798MOL0     H 7690   9.819  -0.199   3.926 -1.7914 -0.9313  0.0595
  798MOL0     H 7691   9.701  -0.007   4.051  2.1933  0.5374  1.0028
  798MOL0     H 7692   9.565   0.438   4.163 -1.8760  1.8216  2.2846
  798MOL0     H 7693   9.375   0.560   4.222 -0.5057 -0.0301 -0.1706
  798MOL0     H 7694   8.973   0.362   4.217 -0.7382 -2.1159  1.7191
  798MOL0     H 7695   9.037   0.352   4.391 -3.6875  0.6627  1.5665
  798MOL0     H 7696   9.002   0.562   4.435 -1.3312  1.9306 -0.3451
  798MOL0     H 7697   8.937   0.613   4.277 -3.1104  1.1211  0.2632
  798MOL0     H 7698   8.728   0.531   4.334  0.0337  0.3892 -0.9868
  798MOL0     H 7699   8.795   0.377   4.398 -1.7050 -0.5456 -1.9524
  798MOL0     H 7700   8.829   0.631   4.556 -0.8717  0.5397  0.8024
  798MOL0     H 7701   8.832   0.462   4.617  0.6932  0.5531  0.1027
  798MOL0     H 7702   8.582   0.445   4.571 -2.2376  1.4352  1.3430
  798MOL0     H 7703   8.583   0.617   4.528  1.5660  0.3631 -3.3408
  798MOL0     H 7704   8.501   0.576   4.749 -1.0689 -1.7097  0.3457
  798MOL0     H 7705   8.633   0.467   4.787  0.8024 -0.1426 -0.1417
  798MOL0     H 7706   8.779   0.680   4.826 -0.2344 -0.3073  1.2694
  798MOL0     H 7707   8.628   0.673   4.914  1.7092  2.2832  0.5504
  798MOL0     H 7708   8.647   0.826   4.658  1.1024 -1.4583  0.2544
  798MOL0     H 7709   8.525   0.816   4.797  0.5279  0.9474  2.0583
  798MOL0     H 7710   9.122   0.212   4.178 -2.1763  1.8870 -3.0193
  798MOL0     H 7711   9.311   0.092   4.090  1.9807 -0.4444  1.3672
  798MOL0     H 7712   9.744   0.241   3.710  2.1639 -0.1642 -1.9335
  798MOL0     H 7713   9.886   0.064   3.605  0.1817  3.4497  0.7148
  798MOL0     H 7714   8.584   0.360   3.018  1.2029  0.0393  2.5460
  798MOL0     H 7715   8.393   0.473   3.137 -3.1817 -0.0571 -0.9602
  798MOL0     H 7716   8.052   0.270   3.608 -1.4451 -0.3297  1.6480
  798MOL0     H 7717   7.877   0.375   3.720  1.6463  0.2663  0.5263
  798MOL0     H 7718   7.709   0.487   3.827  0.0815  1.6461 -1.4692
  798MOL0     H 7719   7.609   0.369   3.744  0.9323  0.0246 -1.5979
  798MOL0     H 7720   7.443   0.554   3.718 -1.6221  1.5271  2.3858
  798MOL0     H 7721   7.521   0.648   3.858  1.8361  1.2105 -0.6315
  798MOL0     H 7722   7.506   0.434   3.998  2.0567  3.7072 -0.9005
  798MOL0     H 7723   7.380   0.384   3.881  1.1649  1.2433 -2.7915
  798MOL0     H 7724   7.380   0.650   4.037 -1.6110  0.6747  0.7781
  798MOL0     H 7725   7.254   0.583   3.937  0.4928 -0.4860  0.2909
  798MOL0     H 7726   7.152   0.361   4.281  0.1694  0.3726  1.2841
  798MOL0     H 7727   7.748   0.602   3.399  1.7585  0.2794 -3.0551
  798MOL0     H 7728   7.806   0.455   3.171 -1.8909 -2.6492  3.4384
  798MOL0     H 7729   7.887   0.607   3.201 -0.1686 -1.0920  0.9928
  798MOL0     H 7730   7.981   0.464   3.147 -0.4150 -4.5015  1.0406
  799MOL0     O 7731   3.039   2.831   9.422 -0.6317  0.8003 -0.1545
  799MOL0     C 7732   3.053   2.716   9.464 -0.7462 -1.5878  0.0144
  799MOL0     O 7733   3.089   2.693   9.587  0.5201  0.2856 -0.2111
  799MOL0     C 7734   3.050   2.768   9.692 -0.5348  0.4379 -0.8938
  799MOL0     C 7735   2.932   2.848   9.686  0.0842  0.9375 -0.8333
  799MOL0     C 7736   2.886   2.936   9.786 -1.1807  0.6395  0.0158
  799MOL0     C 7737   2.967   2.947   9.897  0.9539 -0.6151 -0.0833
  799MOL0     O 7738   2.929   3.054   9.990 -0.1980  0.1792  0.4678
  799MOL0     C 7739   3.007   3.064  10.113 -0.4251 -0.3677  0.4389
  799MOL0     C 7740   2.948   3.173  10.189  1.0270 -0.1178  0.1709
  799MOL0     C 7741   2.805   3.153  10.245 -0.0580 -0.7928  0.6953
  799MOL0     C 7742   2.789   3.236  10.370  0.7088 -0.5375 -0.0617
  799MOL0     C 7743   2.650   3.208  10.430  0.6885 -0.8545 -1.2346
  799MOL0     C 7744   2.611   3.291  10.554  0.0028 -0.8677  0.0276
  799MOL0     C 7745   2.459   3.259  10.592 -0.8789 -0.4021 -0.2032
  799MOL0     C 7746   2.454   3.113  10.646 -0.0487  0.2075 -0.1333
  799MOL0     N 7747   2.328   3.118  10.727  0.4211 -0.0310  0.5513
  799MOL0     C 7748   2.314   3.157  10.852  0.3030 -0.4050 -0.2415
  799MOL0     C 7749   2.183   3.154  10.867 -0.4966 -0.9360 -0.1407
  799MOL0     C 7750   2.109   3.172  10.995 -0.3397  0.2137  0.0300
  799MOL0     C 7751   1.962   3.225  10.984  0.0121 -0.2510 -0.5596
  799MOL0     C 7752   1.879   3.230  11.111 -0.5765  0.3026 -0.3587
  799MOL0     C 7753   1.903   3.346  11.207 -0.2732 -0.1952 -0.1617
  799MOL0     O 7754   1.825   3.304  11.321 -0.1876  0.9036  1.1067
  799MOL0     C 7755   1.759   3.399  11.392  0.4190  0.0242  0.2819
  799MOL0     C 7756   1.646   3.359  11.463  0.1785 -0.7221 -1.1057
  799MOL0     C 7757   1.566   3.456  11.528 -0.7162 -0.3671  0.0535
  799MOL0     C 7758   1.607   3.594  11.532  0.3657  0.2988 -0.2980
  799MOL0     C 7759   1.521   3.690  11.593 -1.2431 -0.4546 -0.2432
  799MOL0     O 7760   1.399   3.648  11.624 -0.4379 -0.3466 -0.0908
  799MOL0     C 7761   1.302   3.717  11.692 -0.9462  0.2935 -0.4770
  799MOL0     C 7762   1.201   3.637  11.754  0.2112  0.4170 -0.3638
  799MOL0     C 7763   1.096   3.699  11.824 -0.5553 -0.2000 -0.0808
  799MOL0     C 7764   1.086   3.841  11.822 -0.2790 -0.5671 -0.4941
  799MOL0     O 7765   0.973   3.899  11.874 -0.2558  0.4166 -0.1506
  799MOL0     C 7766   1.001   3.950  12.006 -0.5440 -0.5619 -0.3986
  799MOL0     C 7767   0.871   4.004  12.058 -0.4935 -0.0080 -0.1712
  799MOL0     C 7768   0.891   4.034  12.212  0.0229  0.1602  0.0434
  799MOL0     C 7769   0.755   4.081  12.264  0.1742  0.3932  0.1148
  799MOL0     C 7770   0.766   4.137  12.403 -0.2189 -0.0371  0.1768
  799MOL0     C 7771   0.640   4.111  12.489  0.3497  0.3951  0.5937
  799MOL0     C 7772   0.611   3.969  12.536 -0.2784 -0.1868 -0.1633
  799MOL0     C 7773   0.537   3.969  12.669  0.5368  0.0133  0.3231
  799MOL0    Cl 7774   0.370   4.039  12.672 -0.1988  0.1722  0.0004
  799MOL0     C 7775   1.190   3.920  11.773  0.8125 -0.8094 -0.1614
  799MOL0     C 7776   1.296   3.857  11.705 -0.0039  0.8287 -0.9766
  799MOL0     O 7777   1.573   3.800  11.625  0.6084  0.3831  0.0822
  799MOL0     C 7778   1.729   3.623  11.466  0.2060  0.5648 -0.6187
  799MOL0     C 7779   1.804   3.528  11.405  0.2441  0.2999  0.3766
  799MOL0     N 7780   2.125   3.120  10.749 -0.0261  0.4382 -0.2661
  799MOL0     N 7781   2.212   3.093  10.665 -0.7765  1.2762  0.0514
  799MOL0     C 7782   3.084   2.868   9.913  0.1859 -0.1621  0.0729
  799MOL0     C 7783   3.124   2.778   9.812  0.7458 -0.1126 -0.2129
  799MOL0     C 7784   3.022   2.593   9.382 -0.7614  0.4611  0.4373
  799MOL0     C 7785   3.070   2.466   9.426 -0.2278 -0.2716  0.5775
  799MOL0     C 7786   3.042   2.352   9.357 -0.3790 -0.3697 -0.1269
  799MOL0     C 7787   2.955   2.346   9.248 -0.0915  1.2370 -0.0295
  799MOL0     O 7788   2.918   2.233   9.184 -0.0204 -0.3196  0.2058
  799MOL0     C 7789   2.974   2.102   9.220  0.8282 -0.6145  0.2059
  799MOL0     C 7790   2.895   2.046   9.336  0.6047 -0.4045 -0.5876
  799MOL0     C 7791   2.766   1.991   9.282  0.4796 -0.9570 -0.9831
  799MOL0     C 7792   2.654   1.975   9.383 -0.3093 -0.2143  0.1969
  799MOL0     C 7793   2.586   2.102   9.408 -0.0348  0.6936  0.2480
  799MOL0     C 7794   2.504   2.194   9.424 -0.3427  0.1836 -0.2777
  799MOL0     C 7795   2.916   2.475   9.201 -0.4371  0.8864 -0.0712
  799MOL0     C 7796   2.953   2.597   9.261 -0.4671  0.5638 -0.2485
  799MOL0     C 7797   2.907   2.727   9.183 -0.2129 -1.0098  0.5217
  799MOL0     H 7798   2.865   2.836   9.601  0.1608  2.0316 -1.0565
  799MOL0     H 7799   2.799   2.999   9.766  0.6730  4.3190  2.5499
  799MOL0     H 7800   2.981   2.966  10.156 -1.0839 -0.9197 -1.1468
  799MOL0     H 7801   3.115   3.068  10.095 -0.5610 -1.6250 -0.8630
  799MOL0     H 7802   2.954   3.264  10.130 -0.1579  0.0392  0.2637
  799MOL0     H 7803   3.017   3.194  10.272  3.1051 -1.0427 -1.2348
  799MOL0     H 7804   2.801   3.044  10.257 -1.6109 -0.5738  2.6640
  799MOL0     H 7805   2.718   3.173  10.182  0.0748  0.4869  0.8965
  799MOL0     H 7806   2.870   3.213  10.440  0.8371 -2.3057 -0.7453
  799MOL0     H 7807   2.787   3.340  10.336 -4.6194 -1.5151 -4.1185
  799MOL0     H 7808   2.570   3.225  10.358  1.2979 -1.4460 -2.0849
  799MOL0     H 7809   2.650   3.103  10.462 -1.0614 -0.1550  1.3361
  799MOL0     H 7810   2.686   3.277  10.632  1.0977  0.6943 -0.6812
  799MOL0     H 7811   2.620   3.399  10.537  1.2408 -1.0033 -0.2977
  799MOL0     H 7812   2.395   3.272  10.504 -1.4694 -1.1192  0.1112
  799MOL0     H 7813   2.433   3.331  10.670  3.4078 -0.6498  1.7447
  799MOL0     H 7814   2.448   3.037  10.567 -4.0546  3.6209 -3.6241
  799MOL0     H 7815   2.536   3.100  10.717  0.0468 -0.0745 -0.2927
  799MOL0     H 7816   2.387   3.165  10.932 -0.6848  1.4728  0.5525
  799MOL0     H 7817   2.103   3.084  11.059 -0.6516  0.9732  1.0753
  799MOL0     H 7818   2.167   3.242  11.056  2.4227 -1.4460 -0.5159
  799MOL0     H 7819   1.963   3.325  10.940 -0.3515 -0.2026 -0.4553
  799MOL0     H 7820   1.912   3.154  10.917  0.8098 -2.0127  0.6203
  799MOL0     H 7821   1.888   3.141  11.175  2.1855  1.1082  0.5023
  799MOL0     H 7822   1.776   3.227  11.074 -1.8352  0.2901  2.8699
  799MOL0     H 7823   1.867   3.438  11.158  0.2917  0.4670  0.6411
  799MOL0     H 7824   2.002   3.369  11.248 -1.1251  3.9022  0.0479
  799MOL0     H 7825   1.643   3.251  11.465 -0.1393 -0.7177  0.2525
  799MOL0     H 7826   1.481   3.413  11.579 -0.8990 -0.1993 -0.1056
  799MOL0     H 7827   1.211   3.529  11.755  3.8554  0.5883  2.4764
  799MOL0     H 7828   1.017   3.642  11.873 -0.7886  0.5380  0.4088
  799MOL0     H 7829   1.032   3.871  12.076 -2.1465 -0.5874  0.3453
  799MOL0     H 7830   1.072   4.032  12.005 -1.5946  0.3724 -0.6790
  799MOL0     H 7831   0.863   4.100  12.005  3.0631 -0.4497 -1.7493
  799MOL0     H 7832   0.800   3.924  12.035 -0.6498  0.9632 -3.5543
  799MOL0     H 7833   0.916   3.944  12.268 -0.5018  0.1119  0.2075
  799MOL0     H 7834   0.970   4.107  12.230  1.7464 -2.2673  3.6024
  799MOL0     H 7835   0.696   3.990  12.278 -0.9983  1.1769  0.5155
  799MOL0     H 7836   0.714   4.157  12.197 -1.7642  0.4255  1.2584
  799MOL0     H 7837   0.790   4.243  12.394  0.3802 -0.2422 -0.8246
  799MOL0     H 7838   0.856   4.098  12.449 -1.5823 -0.9827  2.1757
  799MOL0     H 7839   0.642   4.184  12.571  1.1969 -0.0481  0.9769
  799MOL0     H 7840   0.550   4.132  12.431 -0.7821 -2.0801  1.3270
  799MOL0     H 7841   0.711   3.934  12.562 -1.0046 -1.1002  1.5690
  799MOL0     H 7842   0.576   3.904  12.454 -3.2426  0.6603  0.3110
  799MOL0     H 7843   0.532   3.866  12.705 -0.6123 -0.3056 -0.7106
  799MOL0     H 7844   0.604   4.016  12.742  0.2040 -1.0796  1.3649
  799MOL0     H 7845   1.191   4.028  11.762 -0.7864 -0.8135 -0.5950
  799MOL0     H 7846   1.373   3.922  11.663  0.6959  0.7912  0.2081
  799MOL0     H 7847   1.764   3.726  11.468  4.0306 -0.5686 -0.0112
  799MOL0     H 7848   1.898   3.552  11.356  2.9467 -0.8198  4.4877
  799MOL0     H 7849   3.127   2.876  10.013  3.3008 -0.7330 -1.1096
  799MOL0     H 7850   3.212   2.717   9.832 -0.5828 -2.0104  0.0757
  799MOL0     H 7851   3.133   2.457   9.513  0.3451 -1.1458  0.0879
  799MOL0     H 7852   3.090   2.267   9.404 -1.0549 -0.3891  0.5416
  799MOL0     H 7853   3.079   2.121   9.246  0.1801  1.9023  1.3287
  799MOL0     H 7854   2.974   2.038   9.132 -0.6476  0.7002 -0.7999
  799MOL0     H 7855   2.875   2.120   9.414  2.0123 -1.5856  0.9507
  799MOL0     H 7856   2.957   1.970   9.383  0.4675  1.0593  2.1358
  799MOL0     H 7857   2.800   1.897   9.237  3.5406 -0.6946  0.5541
  799MOL0     H 7858   2.719   2.051   9.203 -1.5734 -1.7322 -0.4358
  799MOL0     H 7859   2.579   1.906   9.343  0.7698 -0.1237 -2.1298
  799MOL0     H 7860   2.684   1.927   9.477  0.5959  0.7903  0.4409
  799MOL0     H 7861   2.429   2.268   9.444  1.0001  1.0392  1.8833
  799MOL0     H 7862   2.848   2.477   9.117 -1.5980  1.6456  0.8567
  799MOL0     H 7863   2.908   2.720   9.074 -2.7093  2.5675  0.0933
  799MOL0     H 7864   2.808   2.754   9.221  0.8663  0.5850  2.4282
  799MOL0     H 7865   2.975   2.812   9.200 -0.2273 -1.0345  0.7060
  800MOL0     O 7866   0.294   4.674   5.841 -0.1823 -0.6741  0.0711
  800MOL0     C 7867   0.224   4.576   5.838 -0.2581 -0.3596  0.3538
  800MOL0     O 7868   0.267   4.435   5.812  0.2047 -0.4600  0.3941
  800MOL0     C 7869   0.393   4.414   5.831 -0.6103  0.2912 -0.1839
  800MOL0     C 7870   0.440   4.366   5.954 -1.1041 -0.2658 -0.2637
  800MOL0     C 7871   0.571   4.344   5.984 -0.3462  0.0568  0.5039
  800MOL0     C 7872   0.666   4.373   5.881 -0.4252 -0.9954 -0.9262
  800MOL0     O 7873   0.793   4.334   5.899  0.3270  0.5205 -0.7538
  800MOL0     C 7874   0.908   4.409   5.833 -0.6079  0.0531  0.4239
  800MOL0     C 7875   1.028   4.338   5.891  0.6887 -0.0625 -0.5753
  800MOL0     C 7876   1.155   4.425   5.910  0.1637 -0.1457  0.0723
  800MOL0     C 7877   1.269   4.349   5.987  0.0955  0.1400  0.9368
  800MOL0     C 7878   1.398   4.427   5.984  0.8038  0.2284  0.2802
  800MOL0     C 7879   1.504   4.339   6.057  0.1541 -0.1782  0.3498
  800MOL0     C 7880   1.649   4.384   6.026 -0.4583  0.4267  0.0149
  800MOL0     C 7881   1.749   4.335   6.142  0.5493 -0.3389  0.0605
  800MOL0     N 7882   1.886   4.398   6.134 -0.2595 -0.7420 -0.2269
  800MOL0     C 7883   2.003   4.323   6.149  0.1701 -0.8338  0.1020
  800MOL0     C 7884   2.098   4.415   6.178  0.9836 -0.0831  0.3177
  800MOL0     C 7885   2.251   4.383   6.196 -0.0488 -0.6763 -0.3426
  800MOL0     C 7886   2.295   4.376   6.339  0.1000  0.7952  1.4594
  800MOL0     C 7887   2.278   4.510   6.420  0.1120 -0.4166 -0.1264
  800MOL0     C 7888   2.415   4.587   6.460  0.0526 -0.2977 -1.4355
  800MOL0     O 7889   2.433   4.694   6.360  0.4968  0.1092  0.2994
  800MOL0     C 7890   2.552   4.773   6.372 -0.1414  0.5193  0.0123
  800MOL0     C 7891   2.592   4.852   6.264  0.3181 -0.0339 -0.1858
  800MOL0     C 7892   2.713   4.930   6.265 -0.4468  0.0493  0.1060
  800MOL0     C 7893   2.798   4.923   6.377 -0.1667 -0.1364 -1.0397
  800MOL0     C 7894   2.931   4.993   6.372  0.4513  0.3396  0.2747
  800MOL0     O 7895   2.984   5.033   6.253 -0.3699 -0.1355 -0.1234
  800MOL0     C 7896   3.089   5.125   6.243 -0.3494  0.3940 -0.4019
  800MOL0     C 7897   3.191   5.133   6.339  0.2015 -0.3368 -0.6462
  800MOL0     C 7898   3.283   5.243   6.335 -0.5969 -0.7319 -0.0688
  800MOL0     C 7899   3.266   5.340   6.243  0.1150  0.1206  1.6093
  800MOL0     O 7900   3.344   5.444   6.231  0.6174 -0.4455  1.1665
  800MOL0     C 7901   3.343   5.533   6.348  0.1015 -0.2494  0.5034
  800MOL0     C 7902   3.431   5.653   6.311  0.4766 -0.6211  0.3266
  800MOL0     C 7903   3.562   5.620   6.238 -0.2508 -0.5751 -0.0115
  800MOL0     C 7904   3.664   5.745   6.270  0.3864  0.6350  0.7748
  800MOL0     C 7905   3.796   5.731   6.184  0.7233  0.1866 -0.0297
  800MOL0     C 7906   3.900   5.831   6.238 -0.6854  0.3190 -0.8002
  800MOL0     C 7907   4.030   5.838   6.153 -0.1493  0.3950  0.1121
  800MOL0     C 7908   4.128   5.916   6.226 -0.3681  0.5935 -0.0916
  800MOL0    Cl 7909   4.246   5.799   6.296  0.3093  0.5888 -0.2693
  800MOL0     C 7910   3.178   5.321   6.134 -0.4399 -0.6376  0.3612
  800MOL0     C 7911   3.086   5.212   6.136 -0.0051  0.4552 -0.2137
  800MOL0     O 7912   2.975   5.020   6.479  0.3543  0.4813  0.7961
  800MOL0     C 7913   2.749   4.849   6.495  0.6397  0.2688  0.4338
  800MOL0     C 7914   2.624   4.778   6.489 -0.2799 -0.2639  0.5218
  800MOL0     N 7915   2.042   4.542   6.165 -0.2848 -0.6289 -0.3326
  800MOL0     N 7916   1.916   4.528   6.149 -0.2377  0.5536 -0.2798
  800MOL0     C 7917   0.629   4.430   5.761  0.0620  0.3391  0.3784
  800MOL0     C 7918   0.490   4.447   5.732  0.1655 -0.3802 -0.2518
  800MOL0     C 7919   0.084   4.607   5.843 -0.4283 -0.8447 -0.2646
  800MOL0     C 7920   0.003   4.562   5.735  0.2502 -1.0730  0.0578
  800MOL0     C 7921  -0.125   4.617   5.726  0.2664  0.3810  0.0723
  800MOL0     C 7922  -0.172   4.701   5.826  0.2809 -0.2878 -0.0698
  800MOL0     O 7923  -0.301   4.748   5.805  0.5464 -0.1245 -0.4555
  800MOL0     C 7924  -0.353   4.867   5.877  0.0237 -0.0119  0.1740
  800MOL0     C 7925  -0.282   4.997   5.837  0.7627  0.3659  0.8053
  800MOL0     C 7926  -0.317   5.042   5.688 -0.6895  0.8269 -1.2483
  800MOL0     C 7927  -0.419   5.147   5.684  1.8935 -0.2955  0.0947
  800MOL0     C 7928  -0.523   5.146   5.787 -0.1092 -1.3741  0.8491
  800MOL0     C 7929  -0.603   5.140   5.877  0.9294 -0.6377  1.2001
  800MOL0     C 7930  -0.093   4.733   5.927 -0.1384  0.0090 -0.0780
  800MOL0     C 7931   0.038   4.697   5.938 -0.0798  0.9640  0.1108
  800MOL0     C 7932   0.121   4.752   6.050  0.3470  0.1450 -0.4595
  800MOL0     H 7933   0.368   4.330   6.026 -1.1924 -1.2521 -0.8288
  800MOL0     H 7934   0.614   4.307   6.076 -0.0927  1.7347  1.0887
  800MOL0     H 7935   0.912   4.388   5.726 -0.3341 -1.1330  0.6476
  800MOL0     H 7936   0.903   4.516   5.854  1.0428  0.6746 -1.9989
  800MOL0     H 7937   1.053   4.246   5.837 -0.6078  0.1922 -1.6611
  800MOL0     H 7938   0.995   4.292   5.984 -2.2451  1.4820 -0.7267
  800MOL0     H 7939   1.115   4.499   5.981 -1.9526 -0.8027 -0.3670
  800MOL0     H 7940   1.179   4.466   5.812 -0.9581  0.5460  0.0682
  800MOL0     H 7941   1.247   4.331   6.092  1.2698  0.0342  1.1786
  800MOL0     H 7942   1.276   4.257   5.929 -3.9519  1.2443 -1.7559
  800MOL0     H 7943   1.442   4.457   5.889 -2.0717  0.0492 -1.2253
  800MOL0     H 7944   1.393   4.518   6.045 -0.9726  0.4913 -0.1966
  800MOL0     H 7945   1.481   4.355   6.162 -5.4451  4.1564 -0.9937
  800MOL0     H 7946   1.494   4.232   6.038 -1.2175 -0.3021  1.5859
  800MOL0     H 7947   1.658   4.491   6.007 -2.0783  0.4374 -0.8975
  800MOL0     H 7948   1.679   4.339   5.931 -3.9468  2.1062 -2.1125
  800MOL0     H 7949   1.709   4.369   6.238  2.1248 -2.4527  1.5773
  800MOL0     H 7950   1.775   4.229   6.149  2.0851  0.1015  2.2565
  800MOL0     H 7951   2.020   4.216   6.145 -1.4004 -1.2136  2.1016
  800MOL0     H 7952   2.284   4.295   6.141  0.4265  1.8680 -4.5236
  800MOL0     H 7953   2.309   4.458   6.143  1.3319 -0.9833  0.6808
  800MOL0     H 7954   2.255   4.292   6.397 -0.0496  0.7629  1.3100
  800MOL0     H 7955   2.400   4.348   6.342 -0.4197 -1.2462  2.7832
  800MOL0     H 7956   2.221   4.495   6.512 -0.9113  0.3290 -0.6176
  800MOL0     H 7957   2.222   4.587   6.366 -0.1512  0.1551  0.9349
  800MOL0     H 7958   2.502   4.522   6.448 -0.1033 -0.7228 -0.3207
  800MOL0     H 7959   2.404   4.625   6.562  2.0449  1.7797 -1.9322
  800MOL0     H 7960   2.537   4.867   6.172  0.6532  2.2633 -0.0590
  800MOL0     H 7961   2.742   4.975   6.170  1.1981 -0.5110  0.3037
  800MOL0     H 7962   3.194   5.074   6.429  1.5929 -1.3520 -1.3165
  800MOL0     H 7963   3.357   5.259   6.412  0.4932  1.1980 -1.4415
  800MOL0     H 7964   3.247   5.572   6.382  0.0728 -2.1696  2.9092
  800MOL0     H 7965   3.385   5.481   6.435  0.6178  3.0455  2.4242
  800MOL0     H 7966   3.383   5.719   6.238 -1.7494  0.2168  2.4074
  800MOL0     H 7967   3.440   5.719   6.398  2.9464 -2.2063  1.3688
  800MOL0     H 7968   3.612   5.531   6.276 -2.4893 -0.9931  2.2097
  800MOL0     H 7969   3.546   5.607   6.130  0.9252  0.4863 -0.3392
  800MOL0     H 7970   3.690   5.752   6.376  3.3057  0.5394  0.1620
  800MOL0     H 7971   3.607   5.836   6.252 -2.6121 -1.5853 -2.3424
  800MOL0     H 7972   3.763   5.745   6.081 -1.5860  0.0582  0.6440
  800MOL0     H 7973   3.826   5.626   6.193  0.3833  0.0585 -0.3878
  800MOL0     H 7974   3.850   5.928   6.231 -1.4475  0.0648  0.6626
  800MOL0     H 7975   3.917   5.803   6.342 -3.6614  3.2704  0.6935
  800MOL0     H 7976   4.005   5.904   6.069 -0.4440  0.5447  0.3136
  800MOL0     H 7977   4.063   5.740   6.116  0.9361  0.8596 -0.2040
  800MOL0     H 7978   4.178   5.976   6.149 -0.5543  1.6314  0.5765
  800MOL0     H 7979   4.091   5.970   6.314  0.5159  0.8221  0.1554
  800MOL0     H 7980   3.169   5.390   6.051 -0.4059 -2.2140 -1.0274
  800MOL0     H 7981   3.007   5.191   6.064 -0.4776 -2.0189  0.9205
  800MOL0     H 7982   2.802   4.845   6.590  2.0095  1.7224 -0.2161
  800MOL0     H 7983   2.603   4.722   6.579 -1.9345 -4.4053 -2.1287
  800MOL0     H 7984   0.699   4.443   5.679 -0.6876  2.4987  0.0246
  800MOL0     H 7985   0.460   4.458   5.628  1.6201  0.8860 -0.5658
  800MOL0     H 7986   0.026   4.484   5.664 -0.5032 -1.7744  0.5679
  800MOL0     H 7987  -0.192   4.580   5.648 -1.2706  0.6547  1.2093
  800MOL0     H 7988  -0.336   4.852   5.984  0.3956 -0.0480  0.1142
  800MOL0     H 7989  -0.459   4.874   5.854  0.2629 -2.6808 -2.3786
  800MOL0     H 7990  -0.176   4.968   5.830  0.6101  0.2022 -2.2270
  800MOL0     H 7991  -0.300   5.067   5.919  1.3291 -0.5744  1.7604
  800MOL0     H 7992  -0.364   4.956   5.639  0.6847  0.1256 -1.4117
  800MOL0     H 7993  -0.230   5.075   5.630  1.5564 -2.5511 -0.1415
  800MOL0     H 7994  -0.375   5.246   5.695 -0.6631  1.1213 -1.4392
  800MOL0     H 7995  -0.478   5.141   5.592  0.5722  2.2099  0.6921
  800MOL0     H 7996  -0.674   5.156   5.955  1.7845  0.2297  1.8208
  800MOL0     H 7997  -0.128   4.781   6.018 -0.6259 -1.5982  0.6092
  800MOL0     H 7998   0.219   4.703   6.051  0.7676  0.9192 -1.3876
  800MOL0     H 7999   0.138   4.860   6.048  1.6498 -0.0435 -2.0579
  800MOL0     H 8000   0.066   4.740   6.143  0.0666 -1.5254 -0.8056
  801MOL0     O 8001   8.604  11.509   0.601 -0.1493 -0.7605  0.2102
  801MOL0     C 8002   8.613  11.551   0.485 -0.4394  0.8175 -0.9323
  801MOL0     O 8003   8.518  11.537   0.398  0.5060 -0.7864  0.7123
  801MOL0     C 8004   8.389  11.538   0.440  0.0997  0.4507  0.2515
  801MOL0     C 8005   8.338  11.618   0.545  0.4932 -0.1320  0.0399
  801MOL0     C 8006   8.209  11.601   0.578  0.5517  0.3315  0.0442
  801MOL0     C 8007   8.127  11.519   0.497 -0.3752 -0.8838 -0.6581
  801MOL0     O 8008   8.003  11.513   0.526  0.9699 -1.1227 -0.0353
  801MOL0     C 8009   7.911  11.593   0.446  0.3606 -0.4505 -0.4152
  801MOL0     C 8010   7.798  11.514   0.395 -0.6627 -0.4317  1.1669
  801MOL0     C 8011   7.716  11.424   0.499 -0.9175 -0.4821 -0.2244
  801MOL0     C 8012   7.603  11.348   0.412 -0.1729  0.8390  0.0218
  801MOL0     C 8013   7.545  11.222   0.476  0.3321  0.9162 -0.0268
  801MOL0     C 8014   7.455  11.247   0.601  0.4105  0.5249  0.8035
  801MOL0     C 8015   7.372  11.130   0.644 -0.3456 -0.0339 -1.0207
  801MOL0     C 8016   7.247  11.179   0.717  0.2485 -0.4334 -0.5672
  801MOL0     N 8017   7.144  11.078   0.736 -0.3562  0.0929 -0.5079
  801MOL0     C 8018   7.048  11.032   0.660  1.5471  0.2616  0.0912
  801MOL0     C 8019   6.983  10.934   0.725  0.2782 -0.2438 -0.6595
  801MOL0     C 8020   6.883  10.839   0.670 -0.0955  0.7862  0.5413
  801MOL0     C 8021   6.884  10.707   0.757  0.4532  0.2192 -1.1633
  801MOL0     C 8022   6.767  10.613   0.737  0.4138  0.4554 -0.0756
  801MOL0     C 8023   6.789  10.504   0.628 -0.5117 -0.0059 -0.5484
  801MOL0     O 8024   6.808  10.555   0.488  0.1447  0.6322  0.1588
  801MOL0     C 8025   6.834  10.465   0.387  0.1549  0.0206 -0.1407
  801MOL0     C 8026   6.903  10.521   0.279 -0.0542  0.2096 -0.5981
  801MOL0     C 8027   6.963  10.463   0.164  0.6842  0.7975 -0.7327
  801MOL0     C 8028   6.937  10.323   0.154 -0.9659 -0.0537 -0.6211
  801MOL0     C 8029   6.969  10.240   0.035  0.0298  0.5389  0.3460
  801MOL0     O 8030   6.983  10.098   0.043 -0.2194 -0.2552 -0.0659
  801MOL0     C 8031   7.018  10.025  -0.069 -0.2428  0.3538  0.1752
  801MOL0     C 8032   6.921   9.962  -0.149 -0.2500 -0.5033 -0.2224
  801MOL0     C 8033   6.962   9.891  -0.262  0.0925  0.5598 -0.0526
  801MOL0     C 8034   7.102   9.863  -0.283  0.2886 -0.2792  0.3216
  801MOL0     O 8035   7.138   9.800  -0.401  0.0484  0.8839 -0.1039
  801MOL0     C 8036   7.274   9.817  -0.456  0.0520 -0.4524  1.1314
  801MOL0     C 8037   7.268   9.722  -0.582 -1.3861  0.6531 -0.7485
  801MOL0     C 8038   7.406   9.744  -0.654 -0.1640  0.4808  0.4499
  801MOL0     C 8039   7.389   9.852  -0.767  0.5802  0.1911 -0.8401
  801MOL0     C 8040   7.528   9.876  -0.835  0.8970  0.8747 -0.0879
  801MOL0     C 8041   7.539  10.008  -0.905  0.7543  0.4096 -0.9601
  801MOL0     C 8042   7.676  10.028  -0.956 -0.0366 -0.0306  0.4131
  801MOL0     C 8043   7.690  10.147  -1.046 -0.4082 -0.4954  0.0509
  801MOL0    Cl 8044   7.625  10.086  -1.200  0.4179  0.6605  0.1538
  801MOL0     C 8045   7.196   9.922  -0.199  0.2824 -0.3229 -0.3382
  801MOL0     C 8046   7.150   9.997  -0.092 -1.2875 -0.6875  0.6308
  801MOL0     O 8047   6.992  10.306  -0.068 -0.0771  0.2003 -0.0936
  801MOL0     C 8048   6.869  10.258   0.268  0.8435 -0.6455  0.1004
  801MOL0     C 8049   6.827  10.325   0.384 -0.1710 -0.4939  0.1129
  801MOL0     N 8050   7.052  10.919   0.846 -0.2006 -0.6042  0.5449
  801MOL0     N 8051   7.151  11.003   0.850  0.6711  0.2886  0.7035
  801MOL0     C 8052   8.180  11.433   0.404  0.3337  0.1794 -0.9084
  801MOL0     C 8053   8.310  11.440   0.375 -0.0535 -0.3869  0.7275
  801MOL0     C 8054   8.756  11.576   0.449 -0.5397  0.6714 -0.1199
  801MOL0     C 8055   8.811  11.501   0.345 -0.6484  1.1216 -0.0378
  801MOL0     C 8056   8.941  11.523   0.314  0.6719  0.5316 -0.4785
  801MOL0     C 8057   9.021  11.610   0.379  0.4062 -0.0656 -0.0896
  801MOL0     O 8058   9.151  11.616   0.336 -0.2566  0.4867  0.0927
  801MOL0     C 8059   9.223  11.736   0.366  0.0340 -0.0378  0.2352
  801MOL0     C 8060   9.364  11.729   0.301 -0.3808 -0.1639 -0.4171
  801MOL0     C 8061   9.342  11.752   0.153  0.3332  0.1697  0.3518
  801MOL0     C 8062   9.468  11.730   0.077  0.0697  0.4011  0.4128
  801MOL0     C 8063   9.458  11.751  -0.070  0.7035 -0.0413  0.4168
  801MOL0     C 8064   9.454  11.783  -0.189 -0.0031  0.6308  0.0746
  801MOL0     C 8065   8.967  11.691   0.478  0.4046  0.3299  0.4656
  801MOL0     C 8066   8.834  11.668   0.524  0.0661 -0.2649 -0.8958
  801MOL0     C 8067   8.785  11.740   0.649 -0.2960 -0.2284 -0.8049
  801MOL0     H 8068   8.409  11.674   0.605  0.6810  0.4528 -0.7187
  801MOL0     H 8069   8.177  11.656   0.665 -0.0937 -1.4937  0.9994
  801MOL0     H 8070   7.858  11.669   0.504 -0.5418 -2.4177  1.4387
  801MOL0     H 8071   7.960  11.643   0.361 -1.1065  2.3295  0.2524
  801MOL0     H 8072   7.847  11.446   0.323 -0.7241 -1.1114  1.7538
  801MOL0     H 8073   7.726  11.577   0.344  0.3980  0.5952  0.9035
  801MOL0     H 8074   7.660  11.482   0.572 -2.8312 -0.4234 -1.6742
  801MOL0     H 8075   7.752  11.332   0.547 -0.6395 -0.9364 -1.2703
  801MOL0     H 8076   7.524  11.420   0.388 -0.8940 -0.1012 -0.4888
  801MOL0     H 8077   7.644  11.312   0.318 -2.2710  0.8182 -0.9406
  801MOL0     H 8078   7.486  11.177   0.395 -0.1504 -3.2743  2.3732
  801MOL0     H 8079   7.630  11.154   0.492 -0.0347  0.0987 -1.3888
  801MOL0     H 8080   7.513  11.279   0.687 -0.7904  2.3267  0.9896
  801MOL0     H 8081   7.393  11.333   0.575  0.6410  0.6184  0.5615
  801MOL0     H 8082   7.423  11.062   0.713 -0.8749 -1.0444 -1.5997
  801MOL0     H 8083   7.365  11.064   0.557 -0.9258  0.0839 -1.0679
  801MOL0     H 8084   7.275  11.238   0.804 -0.6198 -2.7400  1.3714
  801MOL0     H 8085   7.203  11.251   0.647  2.5960  0.6755 -1.0267
  801MOL0     H 8086   7.025  11.054   0.556  2.0618  0.9587  0.1170
  801MOL0     H 8087   6.784  10.885   0.671 -0.7775 -0.6390  0.9381
  801MOL0     H 8088   6.912  10.816   0.567  3.2144  1.3388  1.2485
  801MOL0     H 8089   6.982  10.659   0.747  0.1039 -1.2767  1.6361
  801MOL0     H 8090   6.889  10.742   0.861  1.8813 -0.4482 -0.9769
  801MOL0     H 8091   6.677  10.668   0.710 -1.7589 -1.4391  2.7901
  801MOL0     H 8092   6.743  10.556   0.827  0.7354  0.8685  0.2694
  801MOL0     H 8093   6.698  10.443   0.633 -0.8313  0.5878  1.4416
  801MOL0     H 8094   6.872  10.440   0.660 -2.1590 -0.8505  2.2905
  801MOL0     H 8095   6.925  10.624   0.306  2.3151 -0.4519  0.2399
  801MOL0     H 8096   7.010  10.528   0.091  1.6048  0.3239 -0.5806
  801MOL0     H 8097   6.815   9.976  -0.129 -0.0009  2.1954 -0.4114
  801MOL0     H 8098   6.903   9.854  -0.345  2.9952 -1.5620 -1.3499
  801MOL0     H 8099   7.286   9.917  -0.499 -2.7478 -0.5976 -0.2276
  801MOL0     H 8100   7.348   9.806  -0.376 -0.3401 -0.3440  1.5173
  801MOL0     H 8101   7.271   9.617  -0.553 -0.0652  0.3042 -2.0510
  801MOL0     H 8102   7.172   9.752  -0.626 -3.0214 -2.6904  0.2255
  801MOL0     H 8103   7.485   9.770  -0.583  2.1576 -4.5545  0.0901
  801MOL0     H 8104   7.442   9.648  -0.691 -0.1662 -0.2895  2.3413
  801MOL0     H 8105   7.347   9.945  -0.728 -1.1229  0.0521 -2.2592
  801MOL0     H 8106   7.313   9.812  -0.834  0.3256  0.7379 -0.8824
  801MOL0     H 8107   7.564   9.796  -0.900 -0.3180  1.3761 -1.4163
  801MOL0     H 8108   7.601   9.886  -0.754  0.4166  0.7453  0.3682
  801MOL0     H 8109   7.474  10.008  -0.994 -1.7344  0.3226  0.7610
  801MOL0     H 8110   7.505  10.084  -0.834 -1.2300  0.0991 -1.5095
  801MOL0     H 8111   7.711   9.936  -1.004 -1.2893 -0.2190 -0.1728
  801MOL0     H 8112   7.748  10.038  -0.874  1.3486  3.9503 -1.0738
  801MOL0     H 8113   7.630  10.229  -1.007 -1.0162 -0.4693 -0.9032
  801MOL0     H 8114   7.793  10.183  -1.062 -0.5887 -0.4617 -1.1063
  801MOL0     H 8115   7.301   9.898  -0.182 -0.1928 -1.1677  1.6324
  801MOL0     H 8116   7.222  10.048  -0.029 -0.2924 -0.8458 -0.3443
  801MOL0     H 8117   6.854  10.152   0.253 -1.5662 -0.2640 -0.6788
  801MOL0     H 8118   6.778  10.268   0.462  1.4395 -3.3918 -0.8383
  801MOL0     H 8119   8.104  11.365   0.368  0.2258 -0.3480  0.2648
  801MOL0     H 8120   8.355  11.379   0.297 -3.6842 -2.7741  0.2969
  801MOL0     H 8121   8.747  11.441   0.281 -1.1860  1.4316  0.1952
  801MOL0     H 8122   8.981  11.458   0.237  1.3930 -0.2607  0.5414
  801MOL0     H 8123   9.231  11.738   0.475 -0.8939 -1.0929  0.3417
  801MOL0     H 8124   9.175  11.832   0.343 -0.1001  0.9367  3.9085
  801MOL0     H 8125   9.417  11.634   0.315 -0.7835 -0.3501 -0.1567
  801MOL0     H 8126   9.441  11.798   0.337 -0.0441 -1.1867  0.9033
  801MOL0     H 8127   9.297  11.851   0.136 -1.8711 -0.9669 -0.8446
  801MOL0     H 8128   9.269  11.681   0.113 -0.0144  0.9642 -0.4862
  801MOL0     H 8129   9.543  11.796   0.121  1.4270  0.0866 -1.3327
  801MOL0     H 8130   9.506  11.632   0.109 -1.7382  0.2064  2.2225
  801MOL0     H 8131   9.439  11.808  -0.292  2.1024 -3.3727 -1.4633
  801MOL0     H 8132   9.021  11.766   0.535 -1.2630 -0.7900  3.7297
  801MOL0     H 8133   8.842  11.704   0.735  0.9505 -0.6677 -1.7735
  801MOL0     H 8134   8.805  11.848   0.641  0.7972 -0.3271  0.1944
  801MOL0     H 8135   8.679  11.724   0.670 -0.2755  0.6244  0.0421
  802MOL0     O 8136   0.703   7.033  11.102  0.7846 -0.2010  0.1274
  802MOL0     C 8137   0.714   6.912  11.080 -0.6948 -0.2679 -1.3603
  802MOL0     O 8138   0.682   6.813  11.170 -0.4483  0.9424  0.4778
  802MOL0     C 8139   0.571   6.845  11.255 -0.2889  0.1812  0.6229
  802MOL0     C 8140   0.587   6.891  11.382  0.4060  0.4589 -0.7384
  802MOL0     C 8141   0.479   6.931  11.462 -1.0040  0.2573 -0.0427
  802MOL0     C 8142   0.347   6.909  11.407  0.5867 -0.0742  0.4086
  802MOL0     O 8143   0.232   6.936  11.473  0.1361  0.2412  0.5491
  802MOL0     C 8144   0.223   6.844  11.580  0.1137  0.1263 -0.3168
  802MOL0     C 8145   0.096   6.884  11.671  0.2132  0.2383  0.0762
  802MOL0     C 8146   0.134   6.994  11.776  0.6470  0.2458 -0.2203
  802MOL0     C 8147   0.017   7.004  11.876 -0.1875 -0.3885 -0.7694
  802MOL0     C 8148   0.028   7.091  12.009  0.5196  0.4087  0.7974
  802MOL0     C 8149  -0.007   7.247  11.989 -0.5861  0.2202 -0.8598
  802MOL0     C 8150   0.020   7.329  12.118 -0.9573  0.0340 -0.1374
  802MOL0     C 8151   0.001   7.476  12.081  0.1231 -0.1503  0.2715
  802MOL0     N 8152   0.126   7.537  12.042  0.2606 -0.2776 -0.6001
  802MOL0     C 8153   0.224   7.574  12.132  0.3255 -0.2834 -0.3090
  802MOL0     C 8154   0.333   7.604  12.051 -0.1361  0.9182 -0.1955
  802MOL0     C 8155   0.455   7.678  12.097  0.0194 -0.6342  0.6867
  802MOL0     C 8156   0.498   7.609  12.230 -0.1711  0.3969 -0.2877
  802MOL0     C 8157   0.626   7.690  12.279 -0.0712 -0.2326 -0.1934
  802MOL0     C 8158   0.728   7.599  12.346  0.8654 -0.0346  1.0360
  802MOL0     O 8159   0.666   7.549  12.465  0.0256 -0.0158 -0.1636
  802MOL0     C 8160   0.697   7.592  12.591  0.1994 -0.5231  0.6273
  802MOL0     C 8161   0.782   7.706  12.609  0.6506 -0.7018  0.6352
  802MOL0     C 8162   0.839   7.724  12.737 -0.0156  0.0924 -1.7143
  802MOL0     C 8163   0.815   7.630  12.845  0.1871 -0.8546  0.5001
  802MOL0     C 8164   0.873   7.648  12.978 -0.5284  0.2359 -0.1103
  802MOL0     O 8165   0.875   7.533  13.058 -0.1021 -0.4823 -0.6502
  802MOL0     C 8166   0.883   7.548  13.196 -0.8494 -0.5740 -0.9987
  802MOL0     C 8167   0.960   7.470  13.275 -0.3108  0.5887 -1.1653
  802MOL0     C 8168   0.956   7.458  13.416  0.5409 -0.1195  0.1088
  802MOL0     C 8169   0.875   7.547  13.481  0.3062 -0.4570  0.3840
  802MOL0     O 8170   0.865   7.557  13.611 -0.0291 -0.1296 -0.3379
  802MOL0     C 8171   0.885   7.442  13.698  0.1897 -0.4285  0.8368
  802MOL0     C 8172   0.878   7.475  13.844 -0.1283 -0.0402  0.3631
  802MOL0     C 8173   1.012   7.512  13.903 -0.6028 -0.4223  1.1560
  802MOL0     C 8174   0.997   7.542  14.055 -0.2020 -0.8365 -1.5439
  802MOL0     C 8175   1.133   7.540  14.137  0.0798 -0.3142 -0.1498
  802MOL0     C 8176   1.106   7.558  14.286 -0.3230  0.1188  0.7208
  802MOL0     C 8177   1.104   7.699  14.349  0.9427  0.0063  0.5043
  802MOL0     C 8178   0.967   7.755  14.354 -0.1991  0.0952 -0.6783
  802MOL0    Cl 8179   0.844   7.645  14.433  0.0103  0.3743 -0.1271
  802MOL0     C 8180   0.808   7.643  13.401 -1.0556 -0.9171  0.0664
  802MOL0     C 8181   0.809   7.647  13.258 -0.6176 -0.1447  0.4004
  802MOL0     O 8182   0.902   7.761  13.010  0.3147 -0.0035 -0.3186
  802MOL0     C 8183   0.730   7.526  12.816  0.2762  0.3709  0.2870
  802MOL0     C 8184   0.668   7.509  12.692  0.2565  0.3340 -1.1322
  802MOL0     N 8185   0.293   7.593  11.916 -0.1079  0.2209  0.7825
  802MOL0     N 8186   0.167   7.563  11.916 -1.0737 -0.5462  0.3859
  802MOL0     C 8187   0.328   6.853  11.283  0.4445  0.2803  0.1525
  802MOL0     C 8188   0.437   6.825  11.215 -0.5271 -0.8004  0.6735
  802MOL0     C 8189   0.773   6.883  10.948  0.2944 -0.9568  0.4823
  802MOL0     C 8190   0.879   6.793  10.951 -0.6726  0.0838 -0.0667
  802MOL0     C 8191   0.938   6.758  10.827  0.0903 -0.7327 -0.4702
  802MOL0     C 8192   0.907   6.825  10.706 -1.2628 -0.2449  1.0442
  802MOL0     O 8193   0.988   6.802  10.604 -0.4305 -0.6486  0.1854
  802MOL0     C 8194   1.014   6.918  10.517  0.4887 -0.0977  0.3613
  802MOL0     C 8195   1.156   6.931  10.471 -0.2723 -0.0050  0.8566
  802MOL0     C 8196   1.171   7.028  10.354 -0.2978  0.4148  0.4189
  802MOL0     C 8197   1.155   7.174  10.401 -0.5322  0.2101  0.2913
  802MOL0     C 8198   1.015   7.213  10.422  0.0252 -0.0599 -0.3815
  802MOL0     C 8199   0.900   7.225  10.453  0.2862 -0.0418  0.8281
  802MOL0     C 8200   0.791   6.904  10.708 -0.1462  0.6192  0.2468
  802MOL0     C 8201   0.727   6.943  10.828 -0.3854 -1.1826 -0.2569
  802MOL0     C 8202   0.622   7.046  10.817 -0.5381 -0.7523  0.6374
  802MOL0     H 8203   0.687   6.913  11.419  0.0914  4.5583 -1.7484
  802MOL0     H 8204   0.500   6.970  11.561 -1.7213  0.4399  0.0376
  802MOL0     H 8205   0.190   6.744  11.548 -0.2968 -0.1295  0.8617
  802MOL0     H 8206   0.316   6.830  11.635  2.1845 -0.1990 -3.6568
  802MOL0     H 8207   0.066   6.791  11.721  1.3207  0.5422  1.3605
  802MOL0     H 8208   0.018   6.913  11.600  2.1045 -1.8586 -3.0766
  802MOL0     H 8209   0.165   7.072  11.706  1.4791  0.4908  0.3998
  802MOL0     H 8210   0.220   6.972  11.841  0.3255  2.0668  0.9104
  802MOL0     H 8211  -0.061   7.058  11.822  1.7238  2.6889 -0.7091
  802MOL0     H 8212  -0.015   6.901  11.894 -1.4168  0.2233  0.7805
  802MOL0     H 8213  -0.035   7.056  12.091 -0.7357 -1.4397 -0.8629
  802MOL0     H 8214   0.132   7.091  12.044  1.0031  0.3999 -0.5720
  802MOL0     H 8215   0.053   7.293  11.909  0.8764  3.2867  1.7687
  802MOL0     H 8216  -0.110   7.264  11.955 -0.5700  0.2065 -0.9158
  802MOL0     H 8217   0.121   7.318  12.157 -1.6114 -2.7998  1.0087
  802MOL0     H 8218  -0.051   7.287  12.191 -0.1672 -0.5476  0.3106
  802MOL0     H 8219  -0.080   7.483  12.007 -0.4817 -3.9268  0.3889
  802MOL0     H 8220  -0.031   7.529  12.171  2.5825 -0.6525  1.5076
  802MOL0     H 8221   0.210   7.583  12.240  1.8178  1.4394 -0.2149
  802MOL0     H 8222   0.530   7.660  12.020 -0.9610 -2.2397  0.0612
  802MOL0     H 8223   0.444   7.785  12.116 -0.7194 -1.0222  2.7520
  802MOL0     H 8224   0.412   7.596  12.297 -0.5146  3.0340 -0.0992
  802MOL0     H 8225   0.532   7.508  12.208 -0.4645  0.8185 -3.0694
  802MOL0     H 8226   0.587   7.776  12.334  2.8493  0.1638  1.4202
  802MOL0     H 8227   0.674   7.736  12.193  1.6704 -0.2229  0.7526
  802MOL0     H 8228   0.821   7.648  12.376  0.6900 -0.0117  1.5524
  802MOL0     H 8229   0.742   7.518  12.273 -0.0395  1.8809 -1.3727
  802MOL0     H 8230   0.805   7.784  12.538 -1.7645  0.6344  1.2291
  802MOL0     H 8231   0.917   7.799  12.749 -3.8266  4.1187  1.6238
  802MOL0     H 8232   1.009   7.392  13.217  7.7856  0.2041  4.5270
  802MOL0     H 8233   1.009   7.385  13.476  0.8587 -0.9255 -1.1315
  802MOL0     H 8234   0.802   7.373  13.681  0.0593  0.4768 -3.0958
  802MOL0     H 8235   0.983   7.399  13.680  0.6708  0.3242  1.5623
  802MOL0     H 8236   0.801   7.543  13.881  0.1634 -1.5059  4.0801
  802MOL0     H 8237   0.858   7.381  13.896 -0.6378  0.5372  1.2476
  802MOL0     H 8238   1.082   7.431  13.881 -1.6609 -0.9118 -0.5630
  802MOL0     H 8239   1.040   7.608  13.859 -4.0266  0.0220 -0.3207
  802MOL0     H 8240   0.936   7.464  14.101  1.0324 -0.1397  1.5206
  802MOL0     H 8241   0.961   7.645  14.066  0.5744 -0.5617 -1.5466
  802MOL0     H 8242   1.201   7.610  14.086  0.7861 -2.0470 -1.6908
  802MOL0     H 8243   1.185   7.444  14.127  0.4913 -0.0164 -0.9620
  802MOL0     H 8244   1.013   7.500  14.294  1.1437 -2.8806 -1.7565
  802MOL0     H 8245   1.176   7.496  14.344  1.4979  1.4305 -0.0152
  802MOL0     H 8246   1.159   7.772  14.289  0.4681 -0.7044 -0.8437
  802MOL0     H 8247   1.153   7.712  14.446 -0.6467 -2.0095  1.6610
  802MOL0     H 8248   0.955   7.850  14.406  2.5165 -0.3911  1.0128
  802MOL0     H 8249   0.946   7.787  14.251  0.4009  1.5760 -0.3651
  802MOL0     H 8250   0.762   7.729  13.448  1.4280 -0.0634  1.1109
  802MOL0     H 8251   0.761   7.722  13.195  0.7894  0.1386 -0.4030
  802MOL0     H 8252   0.726   7.457  12.899  2.2889  1.3768  1.3018
  802MOL0     H 8253   0.588   7.436  12.685 -0.7337  1.2979 -0.3313
  802MOL0     H 8254   0.227   6.846  11.244  0.0315  0.7752  1.1051
  802MOL0     H 8255   0.419   6.787  11.115  0.1199 -0.1473  0.2969
  802MOL0     H 8256   0.910   6.751  11.046 -2.1129  1.4246  1.0589
  802MOL0     H 8257   1.019   6.686  10.824 -0.5468 -1.4880 -4.0188
  802MOL0     H 8258   0.976   7.004  10.574  0.0585  0.3248 -0.5458
  802MOL0     H 8259   0.949   6.908  10.430  1.5528  0.4713 -0.5273
  802MOL0     H 8260   1.179   6.832  10.429  0.3139  0.4344  0.1409
  802MOL0     H 8261   1.223   6.951  10.555 -2.2257 -1.9897  3.0217
  802MOL0     H 8262   1.089   7.006  10.285 -0.2263  0.7274  0.2327
  802MOL0     H 8263   1.263   7.004  10.301 -0.6457  1.8812 -0.9089
  802MOL0     H 8264   1.211   7.193  10.493  1.8188  1.1992 -1.2294
  802MOL0     H 8265   1.191   7.250  10.330  1.3525  2.1051  3.0480
  802MOL0     H 8266   0.802   7.241  10.495 -0.0645 -1.4837  0.6127
  802MOL0     H 8267   0.751   6.943  10.615 -0.0614 -0.3809 -0.2229
  802MOL0     H 8268   0.534   6.989  10.848 -0.3511 -0.6942  1.2883
  802MOL0     H 8269   0.638   7.128  10.886  4.3931 -2.5246  2.0141
  802MOL0     H 8270   0.611   7.089  10.717  0.8318 -1.0084  0.3488
  803MOL0     O 8271   1.015   6.909   1.137 -0.1565  0.3207 -0.2307
  803MOL0     C 8272   1.006   6.869   1.022 -0.8705 -0.5133 -0.4970
  803MOL0     O 8273   1.003   6.950   0.906 -0.4290  0.3393 -0.5552
  803MOL0     C 8274   1.007   6.890   0.785  0.3531  0.3871  0.7306
  803MOL0     C 8275   0.905   6.918   0.701 -0.0114  0.3059 -0.9314
  803MOL0     C 8276   0.908   6.869   0.573  0.0662  0.4683 -0.5220
  803MOL0     C 8277   1.020   6.792   0.517 -0.4842  1.3060  0.8490
  803MOL0     O 8278   1.034   6.738   0.391 -0.2499 -0.6866  0.7863
  803MOL0     C 8279   0.930   6.740   0.284 -0.5498  0.2958  0.4383
  803MOL0     C 8280   0.987   6.655   0.169 -0.0080  1.3994 -0.6169
  803MOL0     C 8281   0.879   6.645   0.061  0.6907 -0.0677  0.4903
  803MOL0     C 8282   0.809   6.509   0.063 -0.2296 -0.4483 -0.2284
  803MOL0     C 8283   0.705   6.497  -0.050 -0.3450  0.4623 -0.2247
  803MOL0     C 8284   0.756   6.442  -0.181  0.1979 -0.6699  0.0146
  803MOL0     C 8285   0.658   6.464  -0.293 -0.1291  0.0123 -0.6304
  803MOL0     C 8286   0.544   6.361  -0.289 -0.1321  0.2572 -0.1613
  803MOL0     N 8287   0.414   6.409  -0.337 -0.7608  0.3506 -0.4067
  803MOL0     C 8288   0.332   6.344  -0.435 -0.7827 -0.4802 -0.6388
  803MOL0     C 8289   0.214   6.409  -0.442  0.3239  0.5102 -0.3926
  803MOL0     C 8290   0.111   6.397  -0.548  0.4701 -0.9383 -0.6328
  803MOL0     C 8291  -0.005   6.315  -0.474  0.4920 -0.0061 -0.1098
  803MOL0     C 8292   0.026   6.173  -0.422 -0.2094 -0.3286 -0.8286
  803MOL0     C 8293  -0.085   6.121  -0.326 -0.3337 -1.6393  0.2490
  803MOL0     O 8294  -0.211   6.097  -0.399 -0.4661 -0.2907  0.2372
  803MOL0     C 8295  -0.225   5.976  -0.473  0.8261 -0.3674  0.1633
  803MOL0     C 8296  -0.344   5.958  -0.539 -0.1079 -0.3403 -0.1234
  803MOL0     C 8297  -0.381   5.839  -0.597 -0.7458  0.1049  0.4494
  803MOL0     C 8298  -0.286   5.736  -0.600 -0.5301  0.3558 -0.4330
  803MOL0     C 8299  -0.313   5.606  -0.671  0.1740 -0.8324 -0.6604
  803MOL0     O 8300  -0.414   5.593  -0.762 -0.7122  0.2466 -0.1070
  803MOL0     C 8301  -0.442   5.466  -0.801  0.3831  0.1324 -0.0989
  803MOL0     C 8302  -0.355   5.389  -0.876 -0.3702  0.1180  1.4134
  803MOL0     C 8303  -0.407   5.284  -0.956  0.9577 -0.5425 -0.0665
  803MOL0     C 8304  -0.541   5.241  -0.941  0.0018 -0.4167  0.4773
  803MOL0     O 8305  -0.591   5.141  -1.025 -0.8171 -0.7683  0.1191
  803MOL0     C 8306  -0.683   5.191  -1.121  0.0864 -0.7146  1.3930
  803MOL0     C 8307  -0.675   5.099  -1.246 -0.5196 -0.4708  0.0235
  803MOL0     C 8308  -0.774   5.160  -1.350  0.1141 -0.4516  0.2363
  803MOL0     C 8309  -0.923   5.138  -1.302 -0.0971  0.5678  0.0813
  803MOL0     C 8310  -1.034   5.150  -1.409  0.1662 -0.2912  0.4573
  803MOL0     C 8311  -1.050   5.289  -1.453 -0.2753  0.6511  0.5937
  803MOL0     C 8312  -1.196   5.314  -1.514  0.1437 -0.8638 -0.4301
  803MOL0     C 8313  -1.196   5.433  -1.622  0.2026  0.4703 -0.5149
  803MOL0    Cl 8314  -1.346   5.430  -1.730 -0.2644  0.1479 -0.0598
  803MOL0     C 8315  -0.618   5.315  -0.857  0.3551 -0.1163  0.3796
  803MOL0     C 8316  -0.574   5.423  -0.785 -0.4415 -0.4328  0.5346
  803MOL0     O 8317  -0.227   5.519  -0.640  0.5476 -0.3417 -0.3559
  803MOL0     C 8318  -0.162   5.753  -0.530 -0.5323  0.1346  1.3689
  803MOL0     C 8319  -0.132   5.879  -0.475 -0.2601 -0.8398  0.5689
  803MOL0     N 8320   0.225   6.506  -0.345  0.5589 -0.1985  0.7142
  803MOL0     N 8321   0.337   6.506  -0.286 -0.1781  0.4998 -0.4042
  803MOL0     C 8322   1.120   6.762   0.607 -0.2427 -0.1849  0.1813
  803MOL0     C 8323   1.108   6.805   0.744 -0.5090  0.3641 -0.2498
  803MOL0     C 8324   0.990   6.723   1.021 -0.3093 -0.6155  0.8307
  803MOL0     C 8325   0.878   6.659   0.964 -0.1051  0.2438 -0.5120
  803MOL0     C 8326   0.872   6.523   0.961 -0.5332  0.9349  0.5068
  803MOL0     C 8327   0.967   6.442   1.034 -0.5918 -1.3170  0.6156
  803MOL0     O 8328   0.962   6.306   1.039 -0.5286 -0.2123  0.7144
  803MOL0     C 8329   0.912   6.231   0.929  0.4548 -0.9431 -0.1838
  803MOL0     C 8330   0.926   6.264   0.780  0.4691 -0.4014 -0.2287
  803MOL0     C 8331   1.076   6.281   0.766 -0.0665 -0.8451 -0.3350
  803MOL0     C 8332   1.119   6.399   0.674 -0.0222 -0.6755  0.1246
  803MOL0     C 8333   1.075   6.376   0.535  0.2652  0.4140  0.7544
  803MOL0     C 8334   1.048   6.352   0.420  0.3971  1.1948 -0.4969
  803MOL0     C 8335   1.070   6.507   1.104  0.6136 -0.0722  0.2556
  803MOL0     C 8336   1.094   6.643   1.088  0.5143  0.3198 -0.5168
  803MOL0     C 8337   1.210   6.698   1.165 -0.3233 -0.5492  0.1357
  803MOL0     H 8338   0.822   6.977   0.737 -1.2599 -2.1445  0.4156
  803MOL0     H 8339   0.820   6.888   0.513 -1.1827 -1.4024  0.6289
  803MOL0     H 8340   0.839   6.701   0.331 -1.5428  1.5965 -0.3267
  803MOL0     H 8341   0.911   6.843   0.254 -1.2714  0.4220  1.2753
  803MOL0     H 8342   1.000   6.557   0.216 -1.0829  3.0587  3.6553
  803MOL0     H 8343   1.082   6.695   0.133  0.7396  0.0982 -0.1454
  803MOL0     H 8344   0.936   6.656  -0.032  0.7128 -1.0391  0.3749
  803MOL0     H 8345   0.803   6.723   0.064 -0.7311 -0.8735 -4.3848
  803MOL0     H 8346   0.880   6.427   0.058 -0.2801 -0.4598 -0.7550
  803MOL0     H 8347   0.748   6.507   0.154 -0.1973  1.6695 -0.1067
  803MOL0     H 8348   0.641   6.412  -0.025  1.2733 -0.0560  2.5842
  803MOL0     H 8349   0.641   6.585  -0.064  0.8953  0.9684 -3.7485
  803MOL0     H 8350   0.851   6.493  -0.197  0.8715 -1.5738  0.9926
  803MOL0     H 8351   0.776   6.335  -0.187 -1.9569 -1.4595  3.6542
  803MOL0     H 8352   0.707   6.461  -0.390  0.2840 -0.8130 -0.4079
  803MOL0     H 8353   0.618   6.566  -0.300 -0.3062 -0.1196 -1.8204
  803MOL0     H 8354   0.584   6.276  -0.344 -0.0972  1.5685 -2.2655
  803MOL0     H 8355   0.541   6.330  -0.184  2.1238  0.8542  0.1341
  803MOL0     H 8356   0.367   6.266  -0.502  2.5993 -0.8308  1.2747
  803MOL0     H 8357   0.082   6.491  -0.596  2.2717  0.1595  0.3363
  803MOL0     H 8358   0.150   6.335  -0.630  1.0226 -1.1666 -0.2032
  803MOL0     H 8359  -0.035   6.376  -0.388 -0.1858  1.5991 -1.4318
  803MOL0     H 8360  -0.095   6.304  -0.535 -1.6719  0.3814  2.7976
  803MOL0     H 8361   0.113   6.184  -0.357 -1.4912  0.7840  0.7993
  803MOL0     H 8362   0.043   6.113  -0.512 -1.0729  0.7399 -1.7432
  803MOL0     H 8363  -0.116   6.201  -0.257  0.8946 -0.9006 -0.0136
  803MOL0     H 8364  -0.051   6.040  -0.262  1.3009 -0.2081  1.2818
  803MOL0     H 8365  -0.412   6.042  -0.526  1.4576  0.5902  3.5271
  803MOL0     H 8366  -0.479   5.839  -0.644 -1.3228  1.4396  1.5873
  803MOL0     H 8367  -0.255   5.422  -0.903  0.0205 -1.5612  0.6871
  803MOL0     H 8368  -0.348   5.246  -1.039  1.8804  0.0137  0.3209
  803MOL0     H 8369  -0.780   5.182  -1.072  0.2386  0.0843  1.8653
  803MOL0     H 8370  -0.663   5.294  -1.152  1.6314 -0.9088  1.6696
  803MOL0     H 8371  -0.570   5.102  -1.278 -1.2068  0.6804 -2.4474
  803MOL0     H 8372  -0.693   4.994  -1.224  0.3354 -1.4714 -3.3638
  803MOL0     H 8373  -0.751   5.259  -1.389 -0.8600 -1.0541 -2.0488
  803MOL0     H 8374  -0.767   5.089  -1.433  1.6405  0.0963 -0.1322
  803MOL0     H 8375  -0.939   5.201  -1.214  2.2155  0.3203  0.7437
  803MOL0     H 8376  -0.927   5.038  -1.258  0.4713  1.1800  1.5996
  803MOL0     H 8377  -1.123   5.131  -1.349 -0.0479  3.5225  1.6135
  803MOL0     H 8378  -1.020   5.079  -1.492  0.5992  1.3905 -0.9759
  803MOL0     H 8379  -1.020   5.362  -1.377  0.6797  0.6344  0.2444
  803MOL0     H 8380  -0.980   5.316  -1.533 -0.4210 -2.0855 -0.5596
  803MOL0     H 8381  -1.262   5.338  -1.430  0.7208 -0.4384 -0.0846
  803MOL0     H 8382  -1.236   5.221  -1.555 -2.2150 -0.4947  0.8445
  803MOL0     H 8383  -1.204   5.529  -1.569  1.4253  0.0309  0.5176
  803MOL0     H 8384  -1.107   5.430  -1.686  0.3913 -0.3928 -0.2233
  803MOL0     H 8385  -0.718   5.283  -0.831  1.1339 -1.4017  2.0154
  803MOL0     H 8386  -0.643   5.483  -0.726 -0.3876 -0.4350  0.5999
  803MOL0     H 8387  -0.090   5.671  -0.530  0.0939  0.5139 -2.2440
  803MOL0     H 8388  -0.032   5.892  -0.436  0.5530  2.0306 -2.0050
  803MOL0     H 8389   1.208   6.702   0.587  1.8775  1.7509  2.8760
  803MOL0     H 8390   1.197   6.785   0.803 -0.4104 -0.8207 -0.7597
  803MOL0     H 8391   0.804   6.735   0.943 -0.1722  0.4308  0.3834
  803MOL0     H 8392   0.788   6.483   0.905 -0.4738 -0.6161  1.4810
  803MOL0     H 8393   0.804   6.228   0.944  0.4214 -0.8708 -0.4092
  803MOL0     H 8394   0.939   6.125   0.940  1.1364 -1.2366 -3.5963
  803MOL0     H 8395   0.881   6.362   0.761 -0.7745 -0.6449  1.2624
  803MOL0     H 8396   0.897   6.191   0.704 -0.3873  1.2040 -1.5127
  803MOL0     H 8397   1.112   6.192   0.713  0.0446 -0.3932 -1.0267
  803MOL0     H 8398   1.136   6.272   0.857 -0.2384 -1.6214 -0.2843
  803MOL0     H 8399   1.078   6.493   0.712  0.8944 -0.8067  1.5192
  803MOL0     H 8400   1.228   6.411   0.675  0.3545 -3.3357 -0.4340
  803MOL0     H 8401   1.021   6.324   0.320  2.7307 -2.3658 -0.3034
  803MOL0     H 8402   1.140   6.437   1.148  1.0063 -0.0266 -0.2896
  803MOL0     H 8403   1.182   6.772   1.241 -0.5727 -0.6635  0.1554
  803MOL0     H 8404   1.263   6.622   1.223  0.1586  0.2753  0.8101
  803MOL0     H 8405   1.281   6.750   1.100 -0.3028  3.5333  3.0275
  804MOL0     O 8406   7.509   8.130   5.858 -0.8499  1.0755  0.1651
  804MOL0     C 8407   7.416   8.061   5.880  0.5520  0.4898  0.8611
  804MOL0     O 8408   7.396   7.933   5.833 -0.2953 -0.1368 -0.9097
  804MOL0     C 8409   7.476   7.869   5.745 -1.1199  0.3092 -0.2405
  804MOL0     C 8410   7.405   7.794   5.647 -0.5578 -0.3717 -0.3751
  804MOL0     C 8411   7.481   7.711   5.556  0.4298 -0.6045  0.2285
  804MOL0     C 8412   7.622   7.697   5.563 -0.4817  0.5609  0.0664
  804MOL0     O 8413   7.701   7.638   5.468  0.1030  0.2090 -0.4525
  804MOL0     C 8414   7.651   7.578   5.355  0.3418 -0.5167 -0.5013
  804MOL0     C 8415   7.752   7.496   5.281  0.5121  0.5116 -0.9385
  804MOL0     C 8416   7.683   7.449   5.151 -0.6019  0.0007  0.1406
  804MOL0     C 8417   7.772   7.386   5.046 -0.2702  0.0375 -0.2080
  804MOL0     C 8418   7.707   7.384   4.914  0.2327  0.0090  0.4388
  804MOL0     C 8419   7.587   7.290   4.918  0.3764  0.5167  0.0148
  804MOL0     C 8420   7.551   7.230   4.779  0.1987 -1.6675  0.4022
  804MOL0     C 8421   7.430   7.300   4.730  0.9277  0.0981 -0.3349
  804MOL0     N 8422   7.306   7.296   4.806  0.8504  0.7603 -0.1958
  804MOL0     C 8423   7.266   7.400   4.884 -0.9173  0.7226 -0.1898
  804MOL0     C 8424   7.149   7.352   4.926  0.1815  0.2921 -0.0477
  804MOL0     C 8425   7.043   7.428   5.004  0.0156 -0.9239  1.3300
  804MOL0     C 8426   6.963   7.539   4.930 -0.2222 -0.5595  0.1462
  804MOL0     C 8427   6.833   7.577   5.007 -0.2232  0.4218 -0.4661
  804MOL0     C 8428   6.852   7.608   5.155  0.5559 -0.9447 -0.4985
  804MOL0     O 8429   6.721   7.627   5.196  0.1184 -0.0711  0.4252
  804MOL0     C 8430   6.688   7.625   5.327 -0.1774 -1.1306 -0.4681
  804MOL0     C 8431   6.555   7.604   5.360  1.5000 -0.1509  0.4020
  804MOL0     C 8432   6.508   7.581   5.489  0.0481 -0.7237 -0.8470
  804MOL0     C 8433   6.609   7.587   5.597  0.0081  0.2739 -0.0627
  804MOL0     C 8434   6.568   7.548   5.740 -0.5139 -1.0595  0.1803
  804MOL0     O 8435   6.431   7.524   5.764 -0.6176  1.2516  0.2538
  804MOL0     C 8436   6.363   7.545   5.879 -0.7033  0.9323 -0.6171
  804MOL0     C 8437   6.347   7.437   5.970  0.4736  0.5178 -0.0768
  804MOL0     C 8438   6.289   7.461   6.094 -0.6472 -0.6518  0.0743
  804MOL0     C 8439   6.261   7.593   6.135  0.0929  0.2056  0.1616
  804MOL0     O 8440   6.234   7.619   6.269  0.3662  0.4220  0.3596
  804MOL0     C 8441   6.105   7.562   6.296 -1.0680  0.1356 -0.3681
  804MOL0     C 8442   6.052   7.623   6.425 -0.7126 -0.9147 -0.3437
  804MOL0     C 8443   5.906   7.574   6.443 -0.2272  0.4369 -0.7378
  804MOL0     C 8444   5.839   7.653   6.555 -0.1799 -0.1053  0.6508
  804MOL0     C 8445   5.686   7.634   6.551 -0.1834  0.6456 -0.2891
  804MOL0     C 8446   5.628   7.680   6.684  0.0968  0.3257  0.1263
  804MOL0     C 8447   5.497   7.610   6.703  0.3541  0.2812  0.5612
  804MOL0     C 8448   5.432   7.624   6.837 -0.1850  0.0502 -0.1345
  804MOL0    Cl 8449   5.316   7.501   6.873  0.1410  0.1221  0.3745
  804MOL0     C 8450   6.290   7.700   6.051 -0.1446 -0.3040  0.3221
  804MOL0     C 8451   6.332   7.674   5.922  0.2057 -0.5634  0.5722
  804MOL0     O 8452   6.659   7.555   5.826  0.7546  0.1502  0.2591
  804MOL0     C 8453   6.742   7.621   5.559  0.6357 -0.2076 -0.5419
  804MOL0     C 8454   6.775   7.644   5.425 -0.5982 -1.5671  0.1917
  804MOL0     N 8455   7.123   7.230   4.883  0.0470 -0.6404  0.8345
  804MOL0     N 8456   7.219   7.184   4.819 -0.1063 -0.6283 -0.6243
  804MOL0     C 8457   7.682   7.779   5.657 -0.8242  0.2255  0.0272
  804MOL0     C 8458   7.615   7.864   5.742 -0.6188 -0.1544  0.1532
  804MOL0     C 8459   7.307   8.113   5.966 -0.0391 -0.5027  0.1330
  804MOL0     C 8460   7.179   8.057   5.944  0.2286  0.5653 -0.3767
  804MOL0     C 8461   7.070   8.094   6.018  0.2721  0.2740  0.1271
  804MOL0     C 8462   7.092   8.189   6.114 -0.2792 -0.3835 -0.0420
  804MOL0     O 8463   6.992   8.253   6.183 -0.1008 -0.8046  0.0330
  804MOL0     C 8464   6.856   8.214   6.188  0.6230  0.2531 -0.3200
  804MOL0     C 8465   6.796   8.273   6.322  0.6064 -0.8048 -0.0226
  804MOL0     C 8466   6.856   8.195   6.451  0.2137 -0.0630  0.4498
  804MOL0     C 8467   6.831   8.266   6.587  0.0970  0.3276 -0.0305
  804MOL0     C 8468   6.693   8.295   6.600  0.2303  0.4572 -0.4045
  804MOL0     C 8469   6.573   8.310   6.629 -0.2583  0.8028  0.1842
  804MOL0     C 8470   7.215   8.240   6.146 -0.3273 -0.3213 -1.1357
  804MOL0     C 8471   7.324   8.211   6.061  0.3191 -0.1978 -0.3547
  804MOL0     C 8472   7.445   8.298   6.074 -0.2660  0.0135 -1.0539
  804MOL0     H 8473   7.297   7.792   5.641 -0.5045 -3.2323 -3.0876
  804MOL0     H 8474   7.418   7.668   5.479 -0.0154 -1.4998  1.0750
  804MOL0     H 8475   7.574   7.518   5.404 -0.6989  0.7052 -0.5945
  804MOL0     H 8476   7.600   7.650   5.291 -0.7427 -2.3878 -1.8659
  804MOL0     H 8477   7.796   7.415   5.339 -1.1092  0.3546  0.1604
  804MOL0     H 8478   7.843   7.550   5.252  2.5244 -2.6835 -1.0244
  804MOL0     H 8479   7.631   7.536   5.109 -2.2354 -1.5619 -1.2872
  804MOL0     H 8480   7.613   7.371   5.185 -2.2033  2.3277  2.5527
  804MOL0     H 8481   7.862   7.448   5.037 -1.0283  0.9454 -2.0911
  804MOL0     H 8482   7.802   7.287   5.082 -1.2561 -1.5279 -3.3335
  804MOL0     H 8483   7.670   7.480   4.878  1.5281  0.0703 -0.8068
  804MOL0     H 8484   7.774   7.343   4.837 -0.1631  2.8636 -1.5955
  804MOL0     H 8485   7.615   7.205   4.980  0.0720 -0.5461 -1.2665
  804MOL0     H 8486   7.499   7.334   4.965 -1.7131 -2.0994 -1.1662
  804MOL0     H 8487   7.539   7.121   4.779  3.2845 -2.2667 -4.1122
  804MOL0     H 8488   7.630   7.236   4.704 -0.0385 -3.6098 -0.0564
  804MOL0     H 8489   7.457   7.406   4.730 -3.5464  1.4465 -1.9799
  804MOL0     H 8490   7.418   7.275   4.624  3.3082  1.2025 -0.9280
  804MOL0     H 8491   7.322   7.492   4.899 -0.6683  0.7432 -1.2209
  804MOL0     H 8492   6.970   7.351   5.034  2.3234 -4.2052 -0.8498
  804MOL0     H 8493   7.087   7.476   5.093  0.5102 -1.1224  1.1936
  804MOL0     H 8494   7.012   7.630   4.896 -0.5676  0.0281  1.1720
  804MOL0     H 8495   6.915   7.496   4.842 -1.1804  1.3193 -0.2966
  804MOL0     H 8496   6.762   7.497   4.987  0.3343  0.3340 -2.1935
  804MOL0     H 8497   6.779   7.663   4.966 -2.9142  0.3254  2.4894
  804MOL0     H 8498   6.899   7.706   5.166  1.1242 -0.8846 -2.8909
  804MOL0     H 8499   6.902   7.537   5.220 -0.3340  1.0700  2.5839
  804MOL0     H 8500   6.486   7.604   5.276  0.2185  1.2400  1.4023
  804MOL0     H 8501   6.405   7.567   5.520  0.1515  2.1681  1.2041
  804MOL0     H 8502   6.384   7.340   5.939 -0.7434  0.3483 -1.0679
  804MOL0     H 8503   6.267   7.374   6.156 -0.8766 -0.3846  0.3684
  804MOL0     H 8504   6.026   7.580   6.222 -0.0732  2.4917 -0.9306
  804MOL0     H 8505   6.119   7.454   6.312  3.0928  0.5849  0.0873
  804MOL0     H 8506   6.117   7.587   6.506 -0.2236 -0.2429 -0.4236
  804MOL0     H 8507   6.062   7.730   6.405  0.2111 -1.0470 -0.6339
  804MOL0     H 8508   5.848   7.582   6.351  1.1882 -1.4135 -1.8805
  804MOL0     H 8509   5.892   7.467   6.463 -2.7856  0.7340 -0.6039
  804MOL0     H 8510   5.867   7.758   6.539  1.8083 -0.7799 -0.5384
  804MOL0     H 8511   5.874   7.627   6.656 -1.4409 -0.4008  1.0300
  804MOL0     H 8512   5.647   7.533   6.534 -1.4124  1.3947 -2.2444
  804MOL0     H 8513   5.648   7.695   6.469 -2.7907 -1.1798 -0.5728
  804MOL0     H 8514   5.693   7.648   6.766  2.8577  1.2152 -1.6033
  804MOL0     H 8515   5.610   7.788   6.686 -2.2722 -0.0095  0.8933
  804MOL0     H 8516   5.493   7.502   6.683 -2.2578  0.6344 -1.4030
  804MOL0     H 8517   5.425   7.648   6.629  0.0089 -3.1680 -1.1034
  804MOL0     H 8518   5.518   7.606   6.903 -0.2079  1.3680  0.2829
  804MOL0     H 8519   5.391   7.724   6.854 -2.0733 -0.7232  0.0399
  804MOL0     H 8520   6.263   7.798   6.089 -1.3515  1.3901 -4.2290
  804MOL0     H 8521   6.346   7.756   5.852 -2.2629  0.5264  1.2479
  804MOL0     H 8522   6.810   7.637   5.642 -3.3841  3.3275  2.4971
  804MOL0     H 8523   6.871   7.689   5.405 -1.8785  1.2699 -0.1174
  804MOL0     H 8524   7.789   7.769   5.674 -0.8040 -0.5870 -0.5339
  804MOL0     H 8525   7.677   7.923   5.808  1.6101  2.2021 -3.7106
  804MOL0     H 8526   7.156   7.994   5.858 -1.5920  2.0185 -1.0214
  804MOL0     H 8527   6.970   8.058   5.999  0.8152  0.2887 -3.4284
  804MOL0     H 8528   6.843   8.106   6.181 -3.2996  0.6823 -2.6161
  804MOL0     H 8529   6.814   8.264   6.100  3.1897  0.8365 -1.3215
  804MOL0     H 8530   6.689   8.256   6.311  0.4300  0.6535 -0.8799
  804MOL0     H 8531   6.808   8.381   6.337 -1.7787 -0.8953  4.1832
  804MOL0     H 8532   6.962   8.174   6.439 -0.3780 -2.6509 -0.9159
  804MOL0     H 8533   6.806   8.098   6.457 -0.8787  0.4766  0.3357
  804MOL0     H 8534   6.858   8.198   6.668  0.6288 -0.5418 -0.9057
  804MOL0     H 8535   6.892   8.355   6.603  0.1327  0.1057  1.1569
  804MOL0     H 8536   6.474   8.303   6.669  0.4979  2.4814  2.5677
  804MOL0     H 8537   7.215   8.315   6.224 -0.9748 -0.6059 -0.8567
  804MOL0     H 8538   7.460   8.372   5.995 -0.0232 -0.6765 -1.6565
  804MOL0     H 8539   7.427   8.369   6.156 -1.1568  0.6428 -1.7755
  804MOL0     H 8540   7.538   8.245   6.097 -0.1656  0.4846 -0.3064
  805MOL0     O 8541   9.122   4.106   7.613  0.7152 -0.4449 -0.5437
  805MOL0     C 8542   9.106   4.145   7.500  0.5607  1.4460 -1.0209
  805MOL0     O 8543   9.062   4.269   7.464  0.1543 -0.0803  0.6925
  805MOL0     C 8544   9.044   4.364   7.556 -0.3258 -0.6877 -0.7306
  805MOL0     C 8545   9.127   4.393   7.669 -0.1936  0.7152  0.9244
  805MOL0     C 8546   9.116   4.512   7.749 -0.2706 -0.3124  0.2145
  805MOL0     C 8547   9.017   4.606   7.717  0.3516  0.1236 -0.2450
  805MOL0     O 8548   8.995   4.716   7.796 -0.7680 -0.4094  0.3409
  805MOL0     C 8549   8.956   4.841   7.724  0.2470 -0.2206  0.1022
  805MOL0     C 8550   8.981   4.968   7.812  0.0352 -0.7246  0.5345
  805MOL0     C 8551   8.905   4.953   7.948 -0.2810  0.5780  0.3334
  805MOL0     C 8552   8.867   5.092   8.001 -0.4714 -0.4480  0.9234
  805MOL0     C 8553   8.773   5.072   8.123 -0.3996  1.1974  0.2144
  805MOL0     C 8554   8.694   5.193   8.168 -0.4466 -1.2142  0.1179
  805MOL0     C 8555   8.793   5.305   8.212  0.5550 -0.2570 -0.4625
  805MOL0     C 8556   8.738   5.436   8.277  0.0918 -0.4559  0.4223
  805MOL0     N 8557   8.674   5.409   8.400 -0.3083  1.0138 -0.3457
  805MOL0     C 8558   8.724   5.397   8.535  0.0301 -0.0997  0.0727
  805MOL0     C 8559   8.616   5.371   8.620  0.6232  0.2177  0.4755
  805MOL0     C 8560   8.608   5.372   8.769  0.6228 -0.2876  0.7897
  805MOL0     C 8561   8.673   5.500   8.832 -0.1821  0.3123 -0.8253
  805MOL0     C 8562   8.615   5.517   8.973  0.5023 -0.3316 -0.0671
  805MOL0     C 8563   8.654   5.408   9.081  0.1458  0.3025 -0.2641
  805MOL0     O 8564   8.623   5.429   9.223  0.1775  0.1224  0.6095
  805MOL0     C 8565   8.537   5.526   9.267 -0.7558 -0.5109  0.8077
  805MOL0     C 8566   8.599   5.625   9.342  0.1462  0.4415  0.5223
  805MOL0     C 8567   8.522   5.732   9.379 -0.4827  0.5272  1.0445
  805MOL0     C 8568   8.390   5.749   9.337 -0.1146 -0.1650  0.7619
  805MOL0     C 8569   8.315   5.870   9.372  0.8264  0.0162 -0.3711
  805MOL0     O 8570   8.193   5.876   9.311 -0.0909  0.1594  0.2174
  805MOL0     C 8571   8.110   5.985   9.346 -0.0914 -0.6122 -0.6027
  805MOL0     C 8572   7.999   5.967   9.433  0.3578  0.1440 -0.1065
  805MOL0     C 8573   7.936   6.074   9.494 -0.1611  0.7052 -0.2111
  805MOL0     C 8574   7.967   6.202   9.450 -0.2162 -0.4297 -0.4434
  805MOL0     O 8575   7.895   6.313   9.496  0.3028 -0.1230 -0.1468
  805MOL0     C 8576   7.774   6.302   9.576  0.2193  0.5765 -0.3414
  805MOL0     C 8577   7.703   6.435   9.562  0.3214  0.0558  0.5980
  805MOL0     C 8578   7.635   6.453   9.431 -0.7505  0.0336  0.1617
  805MOL0     C 8579   7.594   6.594   9.401 -0.3883 -0.1816 -0.6024
  805MOL0     C 8580   7.456   6.615   9.325 -1.1811  0.0120 -1.0569
  805MOL0     C 8581   7.334   6.647   9.425 -0.5960 -0.1395  0.1984
  805MOL0     C 8582   7.284   6.535   9.520  0.2158  0.3933  0.4978
  805MOL0     C 8583   7.193   6.600   9.628 -0.2719  0.0958 -0.1720
  805MOL0    Cl 8584   7.285   6.696   9.734 -0.1023 -0.2032 -0.2622
  805MOL0     C 8585   8.069   6.231   9.365 -0.5771 -0.0555 -0.1918
  805MOL0     C 8586   8.141   6.118   9.322 -1.1022 -0.3999  0.0688
  805MOL0     O 8587   8.361   5.961   9.439  0.3736 -0.6883  0.0799
  805MOL0     C 8588   8.327   5.646   9.260  0.3053  0.5632 -0.3469
  805MOL0     C 8589   8.407   5.540   9.226  0.1983 -0.1497  0.5546
  805MOL0     N 8590   8.505   5.375   8.537 -0.2063 -0.7489  0.7888
  805MOL0     N 8591   8.543   5.381   8.415 -0.2842  0.1516 -0.5858
  805MOL0     C 8592   8.941   4.574   7.613  1.4081 -0.5903 -0.5779
  805MOL0     C 8593   8.944   4.458   7.541 -0.1019 -0.2431 -0.2130
  805MOL0     C 8594   9.148   4.046   7.400 -0.0782 -0.1948 -0.3228
  805MOL0     C 8595   9.279   4.034   7.365  0.8197  0.2234  0.1389
  805MOL0     C 8596   9.314   3.938   7.273 -0.2423 -0.0798 -0.9571
  805MOL0     C 8597   9.218   3.862   7.210  1.1367 -0.2636  0.5331
  805MOL0     O 8598   9.238   3.765   7.124  0.7629  0.1559 -0.4629
  805MOL0     C 8599   9.375   3.743   7.085  0.0539 -0.9553  0.2383
  805MOL0     C 8600   9.445   3.629   7.156  0.3479 -0.3063 -0.9669
  805MOL0     C 8601   9.372   3.493   7.152 -0.5381 -0.3032  0.3069
  805MOL0     C 8602   9.393   3.425   7.012 -0.1285 -1.0857 -0.3752
  805MOL0     C 8603   9.289   3.331   6.980  0.3679 -0.4662 -0.3307
  805MOL0     C 8604   9.192   3.268   6.950 -0.2745  0.4790 -1.1506
  805MOL0     C 8605   9.088   3.876   7.250 -0.4548 -0.3020  0.0832
  805MOL0     C 8606   9.053   3.967   7.349 -0.4370 -0.8343  0.4251
  805MOL0     C 8607   8.906   3.975   7.368  0.1471  0.0354 -0.0278
  805MOL0     H 8608   9.197   4.312   7.686 -0.9371 -0.4505 -1.2126
  805MOL0     H 8609   9.184   4.526   7.832  0.7553 -4.1599  0.1797
  805MOL0     H 8610   9.004   4.847   7.625 -0.7219  0.6062 -0.3258
  805MOL0     H 8611   8.851   4.844   7.696  0.1738 -0.7454  0.2998
  805MOL0     H 8612   8.953   5.052   7.747  2.8550  0.0629  0.2155
  805MOL0     H 8613   9.088   4.973   7.836 -0.1762  1.5416  1.2437
  805MOL0     H 8614   8.967   4.898   8.020  0.9300 -0.1796 -1.2197
  805MOL0     H 8615   8.815   4.893   7.936 -0.0659  0.8248 -3.6947
  805MOL0     H 8616   8.958   5.143   8.033  1.7957 -2.5793 -1.5893
  805MOL0     H 8617   8.814   5.132   7.913  0.5799 -2.2158 -0.5966
  805MOL0     H 8618   8.696   4.999   8.096  0.7441  0.5894 -1.5902
  805MOL0     H 8619   8.838   5.035   8.202 -1.1648  0.9489  0.7367
  805MOL0     H 8620   8.645   5.241   8.083  1.0427 -1.1089 -0.7213
  805MOL0     H 8621   8.622   5.154   8.240 -1.9314 -0.1225 -0.7407
  805MOL0     H 8622   8.836   5.328   8.114 -3.0857  0.2586 -2.1100
  805MOL0     H 8623   8.873   5.268   8.276 -0.1835  0.3361  0.8452
  805MOL0     H 8624   8.820   5.509   8.279 -0.5159  0.3813 -1.7181
  805MOL0     H 8625   8.675   5.489   8.204 -0.1788 -1.3764 -0.0321
  805MOL0     H 8626   8.830   5.417   8.552  0.1526 -0.6388 -0.0266
  805MOL0     H 8627   8.505   5.367   8.805  0.1713 -0.1796 -0.4183
  805MOL0     H 8628   8.671   5.286   8.792  0.3479 -1.5463 -2.5576
  805MOL0     H 8629   8.782   5.495   8.833 -0.1414  0.4925  1.7427
  805MOL0     H 8630   8.639   5.592   8.784 -1.5949  0.0453 -0.3865
  805MOL0     H 8631   8.507   5.530   8.966  0.1866 -2.2254  0.8225
  805MOL0     H 8632   8.646   5.616   9.010 -0.7657 -0.3693  1.1832
  805MOL0     H 8633   8.762   5.390   9.076 -0.2228 -2.1908 -0.5010
  805MOL0     H 8634   8.607   5.312   9.059  2.0072 -0.9468  0.9681
  805MOL0     H 8635   8.704   5.627   9.371  0.4351  1.8641 -0.5189
  805MOL0     H 8636   8.575   5.815   9.426 -0.8260 -0.6654  3.7359
  805MOL0     H 8637   7.987   5.865   9.468  0.3649 -1.2153 -3.5770
  805MOL0     H 8638   7.855   6.060   9.564 -1.0903  1.7555 -1.0468
  805MOL0     H 8639   7.714   6.221   9.534  1.5571 -1.9535  2.2725
  805MOL0     H 8640   7.798   6.284   9.681 -2.3612  0.8639  0.3631
  805MOL0     H 8641   7.626   6.458   9.637 -0.2313 -1.4573  0.5291
  805MOL0     H 8642   7.780   6.513   9.559 -1.8255  2.2871 -2.1451
  805MOL0     H 8643   7.695   6.415   9.348 -0.5719 -1.4128  0.9200
  805MOL0     H 8644   7.550   6.383   9.432  1.2006 -2.4996 -0.7641
  805MOL0     H 8645   7.668   6.652   9.345  1.9259 -0.7467  1.6808
  805MOL0     H 8646   7.595   6.650   9.495  3.2174 -0.6398 -0.2206
  805MOL0     H 8647   7.430   6.529   9.262 -4.7379  2.2511 -3.0464
  805MOL0     H 8648   7.471   6.703   9.262  0.5750  2.4651  2.4358
  805MOL0     H 8649   7.358   6.734   9.488  0.0191 -0.9637  1.1202
  805MOL0     H 8650   7.252   6.678   9.359  0.3354 -1.1701 -1.5188
  805MOL0     H 8651   7.371   6.492   9.571  0.0281  0.0103  0.4968
  805MOL0     H 8652   7.241   6.447   9.472  1.7444 -1.4181  2.2917
  805MOL0     H 8653   7.120   6.655   9.568  1.4037  0.9820 -1.5285
  805MOL0     H 8654   7.139   6.530   9.691 -2.9930  0.4712 -1.9127
  805MOL0     H 8655   8.076   6.337   9.347 -4.2257  0.8284  2.5796
  805MOL0     H 8656   8.230   6.136   9.263  1.4396 -1.8364  3.1480
  805MOL0     H 8657   8.223   5.659   9.235 -0.3850  0.9204  2.3690
  805MOL0     H 8658   8.369   5.453   9.172  1.1467  0.5645 -1.3503
  805MOL0     H 8659   8.859   4.641   7.592  0.1506 -1.9714 -0.1921
  805MOL0     H 8660   8.866   4.430   7.471  0.3703 -2.2303 -0.0193
  805MOL0     H 8661   9.357   4.103   7.396  1.1136 -0.8660  1.9655
  805MOL0     H 8662   9.419   3.940   7.247  0.2801  2.0686  1.0362
  805MOL0     H 8663   9.442   3.830   7.080 -3.0628  1.5484 -0.7572
  805MOL0     H 8664   9.360   3.703   6.984  3.2694  1.7296 -1.5382
  805MOL0     H 8665   9.466   3.637   7.263  0.7206 -2.7023 -0.7930
  805MOL0     H 8666   9.546   3.625   7.114  0.0896 -0.9792 -1.5495
  805MOL0     H 8667   9.263   3.502   7.152 -0.4468  1.3827 -1.2551
  805MOL0     H 8668   9.404   3.426   7.232 -0.1525 -2.1871 -1.3405
  805MOL0     H 8669   9.407   3.501   6.935  2.9503  0.2673  1.3327
  805MOL0     H 8670   9.479   3.360   7.031 -0.3980 -1.5028 -0.5745
  805MOL0     H 8671   9.119   3.195   6.919  2.0281 -2.6196  0.1817
  805MOL0     H 8672   9.019   3.796   7.225 -2.3352  1.2378  0.0874
  805MOL0     H 8673   8.899   3.998   7.475  2.5168  0.3205  0.1157
  805MOL0     H 8674   8.865   4.061   7.315 -1.2515 -1.0715 -0.8113
  805MOL0     H 8675   8.853   3.885   7.336 -0.0331 -0.7171  2.1779
  806MOL0     O 8676   4.465  10.891   8.339  0.5904  0.3964  0.1068
  806MOL0     C 8677   4.487  11.005   8.294 -0.0779 -0.0654 -0.3804
  806MOL0     O 8678   4.601  11.044   8.224 -0.0313  0.1859 -0.2556
  806MOL0     C 8679   4.677  10.946   8.163 -0.3941 -0.7285 -0.0413
  806MOL0     C 8680   4.639  10.815   8.108  0.6376  0.2924 -1.4824
  806MOL0     C 8681   4.741  10.736   8.051 -0.1562  0.6600  0.3334
  806MOL0     C 8682   4.872  10.780   8.032  0.6476 -0.5697  0.2571
  806MOL0     O 8683   4.961  10.688   7.986 -0.3151  0.3512 -0.8038
  806MOL0     C 8684   4.974  10.653   7.847 -0.7554  0.7951 -0.6940
  806MOL0     C 8685   5.065  10.527   7.832 -0.5035  0.4873  0.6649
  806MOL0     C 8686   4.991  10.405   7.879 -0.0653  0.7050 -0.0062
  806MOL0     C 8687   5.053  10.264   7.843 -0.4951 -0.8212 -0.0454
  806MOL0     C 8688   4.950  10.154   7.855 -0.0492 -0.6757  0.6442
  806MOL0     C 8689   5.002  10.011   7.824 -0.0446  0.4421  0.1096
  806MOL0     C 8690   5.086   9.943   7.934 -1.2955 -0.3526 -0.5536
  806MOL0     C 8691   5.069   9.792   7.945 -0.6058  0.6179  0.2055
  806MOL0     N 8692   5.111   9.730   7.821  0.1973  0.5865 -0.0883
  806MOL0     C 8693   5.216   9.642   7.822 -0.6197 -0.8221  1.0778
  806MOL0     C 8694   5.203   9.572   7.707  0.6594 -0.6303  0.1707
  806MOL0     C 8695   5.317   9.483   7.669 -1.0549  0.6955 -0.5522
  806MOL0     C 8696   5.288   9.330   7.649 -0.6195 -0.3635  0.0321
  806MOL0     C 8697   5.279   9.244   7.779 -0.6039 -0.2437  0.6547
  806MOL0     C 8698   5.139   9.256   7.817 -0.1907 -0.0411  0.6229
  806MOL0     O 8699   5.114   9.161   7.920 -0.8862  0.4702 -0.6249
  806MOL0     C 8700   4.991   9.148   7.971  0.2081 -0.5045  0.0815
  806MOL0     C 8701   4.978   9.057   8.074 -0.2390 -0.0983  0.5820
  806MOL0     C 8702   4.862   9.043   8.148 -0.9872 -0.2356 -0.3884
  806MOL0     C 8703   4.753   9.126   8.116  0.0246  0.7181 -0.7133
  806MOL0     C 8704   4.641   9.123   8.206  0.3374 -0.5573 -0.1247
  806MOL0     O 8705   4.643   9.032   8.300 -0.1533  0.1357  0.5728
  806MOL0     C 8706   4.542   9.002   8.381  0.3730 -1.8794  0.1549
  806MOL0     C 8707   4.542   9.056   8.510  0.4737 -1.1059  0.2346
  806MOL0     C 8708   4.421   9.052   8.583 -0.0046 -0.5222  0.7982
  806MOL0     C 8709   4.305   8.995   8.533  0.6710 -0.3161 -0.4697
  806MOL0     O 8710   4.181   9.007   8.598 -0.1103  0.1720 -0.1135
  806MOL0     C 8711   4.160   9.079   8.722  0.1801  0.1536  0.2264
  806MOL0     C 8712   4.006   9.085   8.736  0.5432 -0.0644  0.7732
  806MOL0     C 8713   3.951   8.956   8.791 -0.2235  0.0599 -0.2981
  806MOL0     C 8714   3.796   8.954   8.836  0.2909 -0.9159 -0.7371
  806MOL0     C 8715   3.699   8.969   8.718  0.1320 -0.0167  0.4839
  806MOL0     C 8716   3.564   9.002   8.758 -0.6357 -0.4637 -0.4860
  806MOL0     C 8717   3.469   9.021   8.646  0.2857 -0.3153 -0.0879
  806MOL0     C 8718   3.315   9.044   8.686  0.8520  0.2544 -0.3608
  806MOL0    Cl 8719   3.192   9.030   8.556  0.4377  0.6106 -0.1690
  806MOL0     C 8720   4.302   8.927   8.416 -1.0231 -0.1088 -0.0414
  806MOL0     C 8721   4.417   8.945   8.335  0.2506  0.1171 -0.3001
  806MOL0     O 8722   4.547   9.200   8.185  0.0711  0.6277  0.5291
  806MOL0     C 8723   4.761   9.213   8.007 -0.0241 -0.8294 -0.1383
  806MOL0     C 8724   4.879   9.226   7.933 -0.9742 -0.3046  0.1907
  806MOL0     N 8725   5.080   9.605   7.647 -0.6682 -0.5487  0.6487
  806MOL0     N 8726   5.025   9.700   7.723 -0.5601  0.5714 -0.0702
  806MOL0     C 8727   4.901  10.906   8.090  0.5441 -0.2700  0.3169
  806MOL0     C 8728   4.811  10.992   8.149 -0.0787  0.1259  0.3551
  806MOL0     C 8729   4.363  11.098   8.277  0.2395  0.1878 -0.3576
  806MOL0     C 8730   4.232  11.067   8.327  0.7615  0.5385  1.2854
  806MOL0     C 8731   4.131  11.165   8.330 -0.1229  0.3622  0.1145
  806MOL0     C 8732   4.150  11.299   8.283  0.5397  0.1373  0.2171
  806MOL0     O 8733   4.033  11.370   8.285 -0.0547 -0.9616 -0.0325
  806MOL0     C 8734   4.031  11.487   8.198  0.0127 -0.6120  0.3941
  806MOL0     C 8735   3.896  11.543   8.169  0.0229  0.1679  0.0224
  806MOL0     C 8736   3.814  11.612   8.279 -0.0455 -0.4460 -0.3549
  806MOL0     C 8737   3.880  11.753   8.321  0.1863  0.7366 -0.2024
  806MOL0     C 8738   4.001  11.741   8.411 -0.3642 -0.0940 -0.3966
  806MOL0     C 8739   4.082  11.725   8.500 -0.4053  0.0247  0.3035
  806MOL0     C 8740   4.267  11.331   8.231 -1.0347 -0.4099 -0.1984
  806MOL0     C 8741   4.374  11.242   8.224  0.5467 -0.2381 -0.5142
  806MOL0     C 8742   4.489  11.301   8.145  0.3809  0.5341  0.3627
  806MOL0     H 8743   4.533  10.791   8.111  0.4710  1.0713 -0.3772
  806MOL0     H 8744   4.718  10.638   8.009  2.3662 -0.8089  2.0602
  806MOL0     H 8745   4.881  10.629   7.794 -2.7009 -0.3824  2.8952
  806MOL0     H 8746   5.032  10.734   7.800 -0.5805  1.9644  1.4143
  806MOL0     H 8747   5.159  10.546   7.884 -0.2381  1.4419 -0.1146
  806MOL0     H 8748   5.084  10.515   7.724  0.0726  1.8007  0.5889
  806MOL0     H 8749   4.889  10.408   7.840 -0.5309  1.1327  1.2136
  806MOL0     H 8750   4.964  10.413   7.984 -4.6591 -1.2898 -0.8187
  806MOL0     H 8751   5.100  10.261   7.745  0.9217 -4.4661  0.5878
  806MOL0     H 8752   5.130  10.240   7.917  0.5061  2.7767  0.2914
  806MOL0     H 8753   4.900  10.163   7.953  1.1712  0.8867  1.1664
  806MOL0     H 8754   4.871  10.167   7.781 -0.1016  0.1937  0.8388
  806MOL0     H 8755   4.912   9.949   7.817  0.5051 -0.1827 -2.4373
  806MOL0     H 8756   5.063  10.009   7.733  0.8406 -3.2429  0.6544
  806MOL0     H 8757   5.050   9.981   8.030  2.3188 -3.0799  2.1772
  806MOL0     H 8758   5.194   9.960   7.927 -1.5640  1.7391 -0.3084
  806MOL0     H 8759   5.113   9.752   8.037  2.4495  2.9193 -0.1098
  806MOL0     H 8760   4.962   9.777   7.962 -0.9223 -1.8012 -2.9104
  806MOL0     H 8761   5.298   9.631   7.893 -1.0547  0.7556  1.8709
  806MOL0     H 8762   5.357   9.527   7.577 -2.4020  0.6958 -1.1588
  806MOL0     H 8763   5.394   9.489   7.747 -1.0750  3.0951 -0.6368
  806MOL0     H 8764   5.206   9.307   7.581 -2.4008 -0.1944  2.0429
  806MOL0     H 8765   5.372   9.293   7.589  1.9379  1.4518  2.2661
  806MOL0     H 8766   5.354   9.276   7.852 -1.8878  1.0423  1.4802
  806MOL0     H 8767   5.294   9.136   7.766 -1.7191 -0.2872 -0.4022
  806MOL0     H 8768   5.072   9.232   7.734  0.4351 -0.7161  0.3018
  806MOL0     H 8769   5.118   9.359   7.847 -0.3835  0.7006 -1.8682
  806MOL0     H 8770   5.065   9.003   8.110 -0.0006  0.2935  0.5917
  806MOL0     H 8771   4.863   8.995   8.246 -2.1495  2.2845  0.9397
  806MOL0     H 8772   4.629   9.104   8.555  0.8828 -2.6065  1.0905
  806MOL0     H 8773   4.436   9.093   8.683  0.0011 -0.8390  0.9286
  806MOL0     H 8774   4.208   9.017   8.798  0.9141 -0.7976 -0.9708
  806MOL0     H 8775   4.191   9.184   8.723 -0.8114  0.4528  0.1988
  806MOL0     H 8776   3.984   9.166   8.806  0.2367  0.4517  0.1001
  806MOL0     H 8777   3.957   9.114   8.642  1.7503 -0.3638  0.0277
  806MOL0     H 8778   3.949   8.888   8.705  1.7486 -0.1351 -0.2555
  806MOL0     H 8779   4.008   8.924   8.879  0.1699  1.6708  0.0760
  806MOL0     H 8780   3.780   9.037   8.906  0.0719  1.4633 -3.4477
  806MOL0     H 8781   3.753   8.866   8.885 -1.7850  0.2615 -0.3217
  806MOL0     H 8782   3.698   8.877   8.658  1.8579 -0.1314  0.5644
  806MOL0     H 8783   3.731   9.051   8.653 -0.3128  0.4614  0.8616
  806MOL0     H 8784   3.522   8.929   8.827 -0.5174 -0.6423 -0.6020
  806MOL0     H 8785   3.574   9.090   8.822  3.0023 -1.4925  0.6005
  806MOL0     H 8786   3.466   8.923   8.598  0.4793 -0.6762  0.6303
  806MOL0     H 8787   3.506   9.095   8.574 -0.0801 -2.9046 -3.1617
  806MOL0     H 8788   3.293   8.975   8.768  0.0461 -0.1065 -0.8704
  806MOL0     H 8789   3.288   9.138   8.736 -2.6959 -0.0316 -1.4803
  806MOL0     H 8790   4.208   8.898   8.370 -1.8141 -1.2555  2.1630
  806MOL0     H 8791   4.410   8.909   8.233  1.2355  1.1832 -0.7729
  806MOL0     H 8792   4.689   9.289   7.979  1.2516 -0.3728 -2.5334
  806MOL0     H 8793   4.877   9.301   7.856 -0.4911  3.4016  3.4737
  806MOL0     H 8794   5.008  10.923   8.088  0.5200 -0.1116  0.3820
  806MOL0     H 8795   4.836  11.095   8.171 -1.2892  0.4291  0.4163
  806MOL0     H 8796   4.224  10.967   8.368  0.3735  0.1844  0.3751
  806MOL0     H 8797   4.030  11.127   8.342 -0.9215  1.7894 -1.5224
  806MOL0     H 8798   4.069  11.450   8.103 -0.0765  0.5630 -0.1205
  806MOL0     H 8799   4.089  11.574   8.232 -0.6586 -0.5763  1.5035
  806MOL0     H 8800   3.838  11.460   8.127 -1.9677  1.0927  0.7914
  806MOL0     H 8801   3.905  11.603   8.078 -1.2161  2.9560  1.5942
  806MOL0     H 8802   3.801  11.551   8.370 -1.7041  1.7807  1.0086
  806MOL0     H 8803   3.711  11.620   8.243  0.0633 -2.0215 -1.0802
  806MOL0     H 8804   3.895  11.814   8.231 -0.5084  0.8521 -0.2450
  806MOL0     H 8805   3.797  11.796   8.376 -2.3855  0.8340 -3.8251
  806MOL0     H 8806   4.141  11.714   8.589 -1.4919  0.1832  1.0709
  806MOL0     H 8807   4.286  11.430   8.191  2.1352 -2.0009 -3.1989
  806MOL0     H 8808   4.463  11.399   8.103  0.1945  0.9481  1.4220
  806MOL0     H 8809   4.582  11.301   8.201  0.2754 -0.1662  0.5452
  806MOL0     H 8810   4.501  11.233   8.061  0.2450 -0.7317  1.3410
  807MOL0     O 8811   7.728  10.313   4.088 -0.5961 -0.4475 -0.3417
  807MOL0     C 8812   7.740  10.236   3.990 -0.2899  0.1386  1.4634
  807MOL0     O 8813   7.812  10.114   3.992  0.8138 -0.8194 -0.7444
  807MOL0     C 8814   7.894  10.085   4.098 -0.6420  0.0930 -0.5905
  807MOL0     C 8815   7.871   9.967   4.174 -0.2259 -0.1054  0.1400
  807MOL0     C 8816   7.960   9.934   4.268 -0.4030  0.3963  0.2627
  807MOL0     C 8817   8.080  10.002   4.292  0.0606  0.3246 -0.3605
  807MOL0     O 8818   8.166   9.963   4.388  0.3376  0.1725  0.1517
  807MOL0     C 8819   8.175   9.826   4.443  0.3220  0.4188 -0.2298
  807MOL0     C 8820   8.093   9.831   4.574 -0.1101  0.0735 -0.1665
  807MOL0     C 8821   8.005   9.706   4.590  0.2599  0.1925  0.2750
  807MOL0     C 8822   7.937   9.691   4.723 -0.1262 -0.2959  0.2560
  807MOL0     C 8823   7.865   9.559   4.717  0.8345 -0.4759  1.1148
  807MOL0     C 8824   7.730   9.551   4.642 -0.4796  0.2964 -0.9909
  807MOL0     C 8825   7.694   9.416   4.592 -0.4206  0.1842  0.5777
  807MOL0     C 8826   7.722   9.418   4.435 -0.2420 -0.6882 -0.0354
  807MOL0     N 8827   7.858   9.440   4.371  0.2165 -0.3055  0.1642
  807MOL0     C 8828   7.972   9.370   4.390  0.5052 -0.3999 -0.5960
  807MOL0     C 8829   8.060   9.449   4.324 -0.1606  1.2850  0.6780
  807MOL0     C 8830   8.198   9.435   4.293 -0.8970 -0.5207 -0.7820
  807MOL0     C 8831   8.229   9.446   4.134  0.2308  0.4174  0.1868
  807MOL0     C 8832   8.381   9.456   4.117  0.0012 -0.0044 -0.2290
  807MOL0     C 8833   8.436   9.437   3.977 -0.5657  0.0049  0.2260
  807MOL0     O 8834   8.572   9.415   3.999 -0.6225  0.5898 -0.3143
  807MOL0     C 8835   8.645   9.529   3.998 -0.5081  0.2375 -0.7953
  807MOL0     C 8836   8.679   9.592   4.121  0.1461  0.1710  0.0326
  807MOL0     C 8837   8.768   9.697   4.129  0.3248 -0.4745  0.1852
  807MOL0     C 8838   8.806   9.758   4.015 -0.7020 -0.0336 -0.0344
  807MOL0     C 8839   8.919   9.867   4.021 -0.1736 -0.5534  0.6229
  807MOL0     O 8840   8.973   9.900   3.894 -0.1810 -0.1830 -0.0661
  807MOL0     C 8841   9.073   9.991   3.874  1.3068  1.0760  0.6537
  807MOL0     C 8842   9.050  10.122   3.931  0.0860  0.0308  0.3654
  807MOL0     C 8843   9.138  10.221   3.905  0.0396  0.6913 -0.2293
  807MOL0     C 8844   9.261  10.191   3.834  0.8122  0.3014  0.3554
  807MOL0     O 8845   9.353  10.292   3.831 -0.4402  0.1067 -0.3651
  807MOL0     C 8846   9.490  10.257   3.803  0.0684 -1.0688  0.0568
  807MOL0     C 8847   9.589  10.348   3.880 -0.0965 -0.8647  0.9833
  807MOL0     C 8848   9.563  10.497   3.879  0.7756  0.9108 -1.0547
  807MOL0     C 8849   9.663  10.579   3.962 -0.8132 -0.8048 -0.2847
  807MOL0     C 8850   9.625  10.584   4.109  0.1560 -0.9096 -0.5340
  807MOL0     C 8851   9.710  10.682   4.192 -0.1933 -1.0014  0.1682
  807MOL0     C 8852   9.672  10.830   4.162 -0.4850  1.6228 -0.1786
  807MOL0     C 8853   9.804  10.909   4.149 -0.1329 -0.7940 -0.1478
  807MOL0    Cl 8854   9.895  10.872   3.995 -0.1847 -0.0314  0.2151
  807MOL0     C 8855   9.286  10.056   3.788  0.7225  0.5245 -0.9596
  807MOL0     C 8856   9.190   9.952   3.810 -0.0716  0.5722 -0.1687
  807MOL0     O 8857   8.961   9.902   4.129 -0.6260 -0.1090 -0.5065
  807MOL0     C 8858   8.763   9.708   3.883  0.6464  1.0004 -0.2962
  807MOL0     C 8859   8.686   9.590   3.884 -0.0493  0.0131 -0.3962
  807MOL0     N 8860   8.009   9.564   4.273  0.4858 -0.3816  0.0762
  807MOL0     N 8861   7.883   9.546   4.296  0.1549 -0.3127 -0.4968
  807MOL0     C 8862   8.093  10.128   4.228 -0.1763 -0.2084  0.1986
  807MOL0     C 8863   8.006  10.163   4.127 -0.4344  0.1613  0.4825
  807MOL0     C 8864   7.689  10.286   3.869 -0.4375  0.2139  1.2780
  807MOL0     C 8865   7.550  10.307   3.854  0.3267  0.0828  0.4398
  807MOL0     C 8866   7.499  10.357   3.725 -0.4669  0.5646  0.1334
  807MOL0     C 8867   7.579  10.361   3.610 -0.5993  0.3919 -0.1812
  807MOL0     O 8868   7.521  10.381   3.486 -0.0954  0.2653 -0.0538
  807MOL0     C 8869   7.607  10.436   3.378  0.1707  0.0742 -0.0244
  807MOL0     C 8870   7.680  10.570   3.393  0.0314 -0.2222 -0.4898
  807MOL0     C 8871   7.590  10.685   3.437  1.2804  0.0642  0.0172
  807MOL0     C 8872   7.555  10.673   3.584 -0.5999 -0.3080 -0.0566
  807MOL0     C 8873   7.533  10.809   3.645 -0.4841 -0.6169 -0.0280
  807MOL0     C 8874   7.502  10.922   3.683  0.0805  0.5204 -0.0799
  807MOL0     C 8875   7.720  10.347   3.634  0.0796  0.0626  0.6445
  807MOL0     C 8876   7.781  10.310   3.761  0.3262  0.8514  0.4180
  807MOL0     C 8877   7.926  10.281   3.777 -0.2283  0.2542 -0.5320
  807MOL0     H 8878   7.787   9.901   4.155  1.3851 -1.7572 -1.7602
  807MOL0     H 8879   7.943   9.842   4.322  0.8818  1.6899  3.0616
  807MOL0     H 8880   8.143   9.749   4.372  6.5067 -0.7729 -2.4085
  807MOL0     H 8881   8.271   9.789   4.479 -0.7450 -1.0909  1.1995
  807MOL0     H 8882   8.030   9.921   4.571  1.8569  1.6267  1.9468
  807MOL0     H 8883   8.159   9.849   4.659 -0.9654  1.0369  0.3153
  807MOL0     H 8884   8.073   9.623   4.570 -0.9497 -0.4780 -1.2940
  807MOL0     H 8885   7.926   9.719   4.515 -0.3440 -0.4260  0.7953
  807MOL0     H 8886   7.993   9.693   4.817 -0.9027  0.7813  0.7175
  807MOL0     H 8887   7.884   9.786   4.734  3.3259  1.9462 -0.6695
  807MOL0     H 8888   7.938   9.493   4.671  0.7055  0.8421 -1.1927
  807MOL0     H 8889   7.843   9.533   4.820  1.3018 -3.4011  0.5482
  807MOL0     H 8890   7.667   9.591   4.722  4.8098  3.5558  2.1036
  807MOL0     H 8891   7.729   9.624   4.560 -2.1468  0.3620 -0.9451
  807MOL0     H 8892   7.588   9.402   4.612  0.3024 -0.8171  4.5738
  807MOL0     H 8893   7.746   9.336   4.646  1.5798  0.1993 -1.1732
  807MOL0     H 8894   7.685   9.321   4.400  0.2072 -0.4738 -1.1580
  807MOL0     H 8895   7.655   9.489   4.384  1.8465  1.2764 -0.1831
  807MOL0     H 8896   7.992   9.285   4.455 -0.2033  0.2430  0.4898
  807MOL0     H 8897   8.264   9.511   4.336 -0.5851  0.4399 -2.8297
  807MOL0     H 8898   8.247   9.347   4.337 -1.2571 -0.0846  0.5263
  807MOL0     H 8899   8.185   9.363   4.078  3.3853  1.1997 -3.9263
  807MOL0     H 8900   8.192   9.539   4.091  0.9086  1.4144  1.6978
  807MOL0     H 8901   8.434   9.379   4.174  0.5235 -0.0867 -0.8054
  807MOL0     H 8902   8.399   9.555   4.159 -2.7139  0.7150 -0.5945
  807MOL0     H 8903   8.424   9.525   3.914 -0.9871 -0.7776 -0.8197
  807MOL0     H 8904   8.394   9.354   3.918  0.1502 -0.4657  0.3663
  807MOL0     H 8905   8.648   9.562   4.221 -3.0411  4.1636  0.5182
  807MOL0     H 8906   8.810   9.736   4.221  0.4778  2.1175 -0.9195
  807MOL0     H 8907   8.953  10.132   3.979  0.6043  1.8807  1.1262
  807MOL0     H 8908   9.117  10.319   3.947  2.3480  0.9385  0.4694
  807MOL0     H 8909   9.526  10.156   3.825 -0.0388 -0.6692  2.2825
  807MOL0     H 8910   9.499  10.274   3.695  2.4252 -0.1589  0.3203
  807MOL0     H 8911   9.593  10.314   3.984  3.7572  0.2750  1.3580
  807MOL0     H 8912   9.691  10.327   3.846 -0.5308 -3.3456  0.9731
  807MOL0     H 8913   9.560  10.535   3.776 -0.1842 -0.0529 -1.3944
  807MOL0     H 8914   9.467  10.525   3.922  1.6406 -0.4788  2.0934
  807MOL0     H 8915   9.665  10.681   3.923  2.1182 -0.1468  1.2392
  807MOL0     H 8916   9.763  10.533   3.963 -0.4614 -0.0617  0.2838
  807MOL0     H 8917   9.644  10.486   4.155  1.0710  0.4600  2.2447
  807MOL0     H 8918   9.517  10.595   4.118  0.3836  0.4439  0.9382
  807MOL0     H 8919   9.693  10.661   4.298 -1.0110  2.0748  0.7577
  807MOL0     H 8920   9.817  10.676   4.170 -0.2993 -0.9794 -0.3597
  807MOL0     H 8921   9.624  10.867   4.253  2.1085  2.1302  1.0877
  807MOL0     H 8922   9.611  10.838   4.072  0.7119 -0.4521 -1.2616
  807MOL0     H 8923   9.775  11.015   4.149  0.8085 -0.5209 -0.1271
  807MOL0     H 8924   9.862  10.899   4.241 -1.4517 -0.6853  0.7094
  807MOL0     H 8925   9.379  10.033   3.736  2.0247  0.8595  1.1252
  807MOL0     H 8926   9.207   9.862   3.751  0.5752 -0.6615  1.8070
  807MOL0     H 8927   8.798   9.747   3.788 -0.9867  0.3823 -1.1911
  807MOL0     H 8928   8.663   9.537   3.792  0.1717  3.0206 -2.3162
  807MOL0     H 8929   8.170  10.201   4.250  0.6184 -0.7962 -0.5683
  807MOL0     H 8930   8.009  10.265   4.089  2.0328  0.9523  2.4800
  807MOL0     H 8931   7.485  10.297   3.940 -0.3867 -0.6608 -0.1698
  807MOL0     H 8932   7.392  10.377   3.717 -0.6041  0.8869  2.3132
  807MOL0     H 8933   7.535  10.455   3.297  0.1273 -1.8564 -0.4780
  807MOL0     H 8934   7.683  10.373   3.330  0.5582  2.5599 -3.0337
  807MOL0     H 8935   7.724  10.601   3.298 -1.0544 -0.0844 -0.9643
  807MOL0     H 8936   7.757  10.558   3.470 -1.4035 -0.1692  0.9895
  807MOL0     H 8937   7.512  10.688   3.361  2.0869  0.1961 -0.8227
  807MOL0     H 8938   7.634  10.784   3.422 -3.7541  3.3561  3.5966
  807MOL0     H 8939   7.468  10.609   3.600 -0.1703 -0.3314  2.8558
  807MOL0     H 8940   7.637  10.633   3.645 -0.7812  2.2201  2.0584
  807MOL0     H 8941   7.479  11.022   3.711 -0.9131 -0.1918  1.8188
  807MOL0     H 8942   7.791  10.359   3.552 -0.5306  1.7391  0.3269
  807MOL0     H 8943   7.979  10.321   3.690  2.1629  1.5440  1.3907
  807MOL0     H 8944   7.964  10.357   3.845 -1.8206  2.8751 -2.3976
  807MOL0     H 8945   7.952  10.176   3.792  0.4859  0.6054  0.8685
  808MOL0     O 8946   5.060   7.268   6.611 -0.0482  0.0767 -0.9197
  808MOL0     C 8947   5.040   7.183   6.528 -0.0192  0.4414  0.2069
  808MOL0     O 8948   5.106   7.189   6.411 -0.3732  0.1534  0.1368
  808MOL0     C 8949   5.197   7.288   6.383 -0.4213  0.1144  0.0113
  808MOL0     C 8950   5.314   7.253   6.310 -0.9253  0.7743 -0.3058
  808MOL0     C 8951   5.405   7.350   6.289 -0.5416 -0.0634  0.4963
  808MOL0     C 8952   5.391   7.487   6.297 -0.3614 -0.5068  0.5568
  808MOL0     O 8953   5.470   7.583   6.239  0.3848 -0.5137  0.1140
  808MOL0     C 8954   5.579   7.542   6.164 -0.7335  0.3446 -0.1447
  808MOL0     C 8955   5.559   7.516   6.022  0.1335 -0.4454 -0.2501
  808MOL0     C 8956   5.681   7.456   5.959 -0.9374  0.0829 -0.1468
  808MOL0     C 8957   5.689   7.387   5.824 -0.1162 -0.4964  0.0446
  808MOL0     C 8958   5.607   7.257   5.826  0.2810  0.0470  0.0272
  808MOL0     C 8959   5.610   7.186   5.699 -0.2457 -0.8853  0.3368
  808MOL0     C 8960   5.510   7.066   5.706  0.1615  0.4281 -0.1141
  808MOL0     C 8961   5.571   6.942   5.645 -0.0695  0.8961  0.3960
  808MOL0     N 8962   5.476   6.869   5.559 -0.1883 -0.0717 -1.0503
  808MOL0     C 8963   5.376   6.784   5.600 -0.7721  0.1552 -0.1409
  808MOL0     C 8964   5.300   6.758   5.490 -0.9524  0.2455 -0.6391
  808MOL0     C 8965   5.171   6.702   5.492  0.1483  0.0078 -0.3626
  808MOL0     C 8966   5.139   6.595   5.600  0.9651 -0.2953  0.0635
  808MOL0     C 8967   4.988   6.553   5.597 -0.0202 -0.6988  0.1139
  808MOL0     C 8968   4.956   6.428   5.695  1.0579 -0.2906  1.0186
  808MOL0     O 8969   5.023   6.311   5.629  0.5057 -0.9317 -0.4080
  808MOL0     C 8970   5.022   6.191   5.688  1.4212 -0.0893 -0.3636
  808MOL0     C 8971   5.139   6.121   5.685  0.6820 -0.5741 -0.4802
  808MOL0     C 8972   5.159   6.009   5.776  0.7046  0.1443 -0.4160
  808MOL0     C 8973   5.044   5.955   5.845 -0.2284  1.4251 -0.4420
  808MOL0     C 8974   5.052   5.823   5.912 -0.2103  0.0725  1.0025
  808MOL0     O 8975   5.179   5.771   5.919 -0.1538 -0.4028 -0.5358
  808MOL0     C 8976   5.176   5.641   5.963  0.6357 -0.3616  0.0711
  808MOL0     C 8977   5.214   5.538   5.871 -0.6641 -0.1873 -0.8847
  808MOL0     C 8978   5.223   5.400   5.915 -0.3406 -0.0691  0.5196
  808MOL0     C 8979   5.173   5.361   6.042  0.6247 -0.5139  0.4004
  808MOL0     O 8980   5.186   5.242   6.095  0.2025  0.6374 -0.1562
  808MOL0     C 8981   5.063   5.164   6.093  0.7767 -0.1773 -0.4569
  808MOL0     C 8982   5.107   5.020   6.101 -0.5674 -0.0586 -0.8756
  808MOL0     C 8983   5.156   4.957   5.975 -0.7980  0.1118 -0.5500
  808MOL0     C 8984   5.050   4.945   5.855  0.0272  0.3880  0.5789
  808MOL0     C 8985   4.934   4.849   5.892 -0.2846 -1.2992  0.0081
  808MOL0     C 8986   4.984   4.718   5.960 -0.4898 -0.4627  0.7365
  808MOL0     C 8987   4.866   4.629   5.985 -0.6608 -0.3810 -0.6992
  808MOL0     C 8988   4.771   4.658   6.107  0.1067 -0.1747 -0.0693
  808MOL0    Cl 8989   4.839   4.596   6.263  0.6830  0.1461 -0.4648
  808MOL0     C 8990   5.123   5.464   6.125 -0.1247  0.2465  0.0047
  808MOL0     C 8991   5.128   5.601   6.089  0.2245 -0.3247 -0.1244
  808MOL0     O 8992   4.948   5.773   5.947 -0.4661 -0.3618 -0.0749
  808MOL0     C 8993   4.925   6.013   5.825  0.5579  1.1590  0.7080
  808MOL0     C 8994   4.912   6.135   5.757  0.2427  0.6053  1.0347
  808MOL0     N 8995   5.369   6.820   5.382  0.2418 -0.0923  0.2653
  808MOL0     N 8996   5.470   6.885   5.428 -0.1406  0.4024  0.3284
  808MOL0     C 8997   5.267   7.518   6.361  0.1465  0.7786  0.3599
  808MOL0     C 8998   5.174   7.430   6.405 -0.0706  0.8993 -0.0092
  808MOL0     C 8999   4.951   7.073   6.563 -0.3009 -0.7867  0.5184
  808MOL0     C 9000   4.916   7.043   6.693 -0.4310 -1.0230  0.0806
  808MOL0     C 9001   4.830   6.934   6.727  0.2906 -0.7934 -0.0621
  808MOL0     C 9002   4.793   6.853   6.624  0.0297  0.6810 -0.3469
  808MOL0     O 9003   4.706   6.746   6.645 -1.2778 -1.0171  0.1754
  808MOL0     C 9004   4.716   6.676   6.768  0.6497  0.5993 -0.4788
  808MOL0     C 9005   4.693   6.531   6.738  0.5610 -0.7044 -1.2962
  808MOL0     C 9006   4.776   6.462   6.635 -0.8770 -0.0295  0.0357
  808MOL0     C 9007   4.925   6.490   6.684 -0.2998  0.0036  0.3750
  808MOL0     C 9008   5.024   6.408   6.611  0.1073  0.7838 -0.5101
  808MOL0     C 9009   5.109   6.340   6.559 -0.7281 -0.7042  0.1412
  808MOL0     C 9010   4.840   6.874   6.497 -0.9128  0.5647  0.0892
  808MOL0     C 9011   4.918   6.986   6.457  0.7326  0.0936  0.4285
  808MOL0     C 9012   4.946   7.002   6.307 -0.6445  0.1114  0.5925
  808MOL0     H 9013   5.338   7.152   6.278 -0.3902  0.4658  0.9986
  808MOL0     H 9014   5.500   7.310   6.254  0.8304  1.8066  1.8472
  808MOL0     H 9015   5.654   7.621   6.154  1.4209 -1.2271  2.2515
  808MOL0     H 9016   5.637   7.464   6.215  1.6483  2.7722  1.1190
  808MOL0     H 9017   5.536   7.612   5.973  1.1197 -0.0947 -0.0618
  808MOL0     H 9018   5.464   7.463   6.031  0.4554 -0.6062  3.2551
  808MOL0     H 9019   5.718   7.383   6.031  0.7743  0.5639 -0.4846
  808MOL0     H 9020   5.767   7.523   5.948 -0.8124  0.0166  0.4261
  808MOL0     H 9021   5.659   7.459   5.748 -1.9736 -1.5000 -0.2452
  808MOL0     H 9022   5.793   7.355   5.813 -0.2231 -1.1202  0.7100
  808MOL0     H 9023   5.650   7.195   5.905  4.8680  1.4814 -1.0326
  808MOL0     H 9024   5.504   7.284   5.851  0.8138  2.1343  0.1679
  808MOL0     H 9025   5.594   7.248   5.611 -0.4275 -1.0517  0.2523
  808MOL0     H 9026   5.711   7.145   5.689 -0.6676 -1.3590 -3.8880
  808MOL0     H 9027   5.420   7.105   5.658 -0.4212 -2.4394 -1.5309
  808MOL0     H 9028   5.471   7.037   5.804 -3.3464 -1.3668 -1.8409
  808MOL0     H 9029   5.662   6.960   5.586 -1.5212  0.6374 -2.0881
  808MOL0     H 9030   5.605   6.869   5.719 -0.6071  1.8412  1.6198
  808MOL0     H 9031   5.348   6.752   5.700 -1.2059  1.2671  0.0995
  808MOL0     H 9032   5.099   6.784   5.499  1.3613  0.9974  0.9285
  808MOL0     H 9033   5.145   6.652   5.398 -2.5964  0.0871  0.2504
  808MOL0     H 9034   5.203   6.508   5.580 -2.4910 -3.3651  1.1431
  808MOL0     H 9035   5.166   6.626   5.701 -1.0779 -1.8162  1.1546
  808MOL0     H 9036   4.959   6.520   5.497 -0.5228  0.5544 -0.1660
  808MOL0     H 9037   4.925   6.638   5.625 -0.7185 -1.0656 -0.3176
  808MOL0     H 9038   4.850   6.407   5.708  1.0068 -0.3362  0.5201
  808MOL0     H 9039   4.993   6.448   5.796  2.4388 -1.3536  0.7529
  808MOL0     H 9040   5.214   6.157   5.616 -1.4678  0.3402 -2.4947
  808MOL0     H 9041   5.260   5.970   5.779  1.3770  1.5904  5.1671
  808MOL0     H 9042   5.241   5.570   5.771 -0.7788  0.3348 -0.7488
  808MOL0     H 9043   5.277   5.328   5.855 -4.0477 -1.4170 -1.5937
  808MOL0     H 9044   4.994   5.195   6.173 -1.8053 -1.2966 -2.0976
  808MOL0     H 9045   4.997   5.169   6.006 -1.3337  0.8146  1.0974
  808MOL0     H 9046   5.185   5.030   6.177  0.3381 -2.2003 -1.4162
  808MOL0     H 9047   5.025   4.956   6.135 -0.8784  0.1747 -1.1816
  808MOL0     H 9048   5.237   5.021   5.939 -0.1093 -0.3946  0.0711
  808MOL0     H 9049   5.208   4.863   5.994  3.2387  1.8278 -2.0083
  808MOL0     H 9050   5.099   4.908   5.764  1.7261  1.3056  1.0932
  808MOL0     H 9051   5.016   5.046   5.834 -2.9716 -0.2067  2.0206
  808MOL0     H 9052   4.871   4.827   5.805  0.3438  1.1789 -1.1685
  808MOL0     H 9053   4.877   4.915   5.958 -0.9013 -2.3223  0.5260
  808MOL0     H 9054   5.057   4.683   5.887 -4.5758  0.5330 -4.4787
  808MOL0     H 9055   5.031   4.729   6.058 -0.9036 -0.4009  0.9341
  808MOL0     H 9056   4.898   4.528   6.011 -2.9837 -1.3617 -1.4531
  808MOL0     H 9057   4.807   4.625   5.893 -1.5743 -0.1834 -0.1338
  808MOL0     H 9058   4.743   4.764   6.112 -1.0707 -0.4973  0.5937
  808MOL0     H 9059   4.682   4.597   6.093 -0.1828  0.5179 -1.3906
  808MOL0     H 9060   5.079   5.427   6.217 -2.6050 -3.4868 -2.3992
  808MOL0     H 9061   5.106   5.670   6.170  0.0785  0.3099 -0.7043
  808MOL0     H 9062   4.837   5.963   5.865  0.0772  0.3954 -1.1892
  808MOL0     H 9063   4.814   6.178   5.741 -0.3333 -1.1835 -0.6741
  808MOL0     H 9064   5.236   7.622   6.355  1.6723  1.1723 -1.5952
  808MOL0     H 9065   5.079   7.464   6.444 -0.5350 -0.0810 -0.2455
  808MOL0     H 9066   4.937   7.107   6.778 -3.8443  0.1072  0.2364
  808MOL0     H 9067   4.795   6.933   6.829  0.3849 -0.4800 -0.0258
  808MOL0     H 9068   4.635   6.709   6.834  0.1423 -1.8546  0.2195
  808MOL0     H 9069   4.812   6.696   6.816  3.5342  1.4597 -5.8274
  808MOL0     H 9070   4.590   6.508   6.708  0.3056 -1.2060 -0.1003
  808MOL0     H 9071   4.704   6.492   6.839 -0.2569  3.5638  0.7033
  808MOL0     H 9072   4.778   6.516   6.539  1.6393  2.6049  1.3998
  808MOL0     H 9073   4.752   6.357   6.616 -2.3111  0.0668  1.1272
  808MOL0     H 9074   4.953   6.592   6.654 -0.2321 -0.7808 -2.4837
  808MOL0     H 9075   4.945   6.482   6.792  2.4164  1.2971  0.0614
  808MOL0     H 9076   5.192   6.296   6.506  1.5955  0.5388  2.5348
  808MOL0     H 9077   4.804   6.812   6.415 -1.2535 -0.7967  1.2254
  808MOL0     H 9078   5.053   7.003   6.287 -0.0940 -1.9491  2.8906
  808MOL0     H 9079   4.898   6.916   6.259 -4.2723  1.4788  1.4794
  808MOL0     H 9080   4.904   7.090   6.258 -0.6245 -0.7445 -1.0177
  809MOL0     O 9081   5.442   4.538  11.293  0.4004  0.3740  1.0036
  809MOL0     C 9082   5.473   4.560  11.409  1.0640 -0.8717  0.5066
  809MOL0     O 9083   5.541   4.477  11.496  0.3857  0.3787  0.0051
  809MOL0     C 9084   5.549   4.344  11.461  1.4949 -0.4102 -1.2145
  809MOL0     C 9085   5.674   4.292  11.439  0.5815  0.4856 -0.4263
  809MOL0     C 9086   5.700   4.149  11.424  0.6892  0.9002 -0.1569
  809MOL0     C 9087   5.594   4.068  11.408 -0.0451  0.9599 -0.3920
  809MOL0     O 9088   5.615   3.937  11.380 -0.6782 -0.1402 -0.0606
  809MOL0     C 9089   5.743   3.883  11.332  0.0037  0.9199 -0.2815
  809MOL0     C 9090   5.723   3.727  11.344 -0.7103 -0.8828  0.3555
  809MOL0     C 9091   5.807   3.627  11.258  0.3876 -0.1014 -0.0683
  809MOL0     C 9092   5.772   3.657  11.108 -0.4556  0.0450  0.1553
  809MOL0     C 9093   5.830   3.549  11.001 -0.1951 -0.4846 -0.3980
  809MOL0     C 9094   5.766   3.410  11.025 -0.8466  0.4616 -0.6066
  809MOL0     C 9095   5.794   3.313  10.908 -0.1938  0.6539  0.0344
  809MOL0     C 9096   5.713   3.343  10.781 -0.2543 -0.4739 -0.0121
  809MOL0     N 9097   5.731   3.232  10.688  0.2470 -0.1646 -0.1862
  809MOL0     C 9098   5.852   3.200  10.636 -0.7181 -0.0936 -0.2250
  809MOL0     C 9099   5.816   3.100  10.549  0.3749  0.7183 -1.0359
  809MOL0     C 9100   5.904   3.028  10.449 -1.1033 -1.0819 -0.3256
  809MOL0     C 9101   5.997   3.123  10.369 -0.9296  1.1979 -0.2922
  809MOL0     C 9102   5.929   3.245  10.312 -0.9037 -0.0863 -0.2011
  809MOL0     C 9103   5.857   3.226  10.182  0.0621  0.0681 -0.3423
  809MOL0     O 9104   5.736   3.154  10.204  0.3620  0.0059  0.4290
  809MOL0     C 9105   5.644   3.149  10.105 -0.3529  0.2450  0.0250
  809MOL0     C 9106   5.559   3.052  10.108  0.7109  0.5198  0.5980
  809MOL0     C 9107   5.453   3.042  10.016  0.6233 -0.4251 -0.3776
  809MOL0     C 9108   5.448   3.122   9.901 -0.3528  0.2362  0.2021
  809MOL0     C 9109   5.331   3.109   9.807  0.2894 -0.5977 -0.4614
  809MOL0     O 9110   5.357   3.177   9.690  0.5692 -0.5093  0.6778
  809MOL0     C 9111   5.257   3.235   9.615  0.0895 -0.5261 -0.9152
  809MOL0     C 9112   5.157   3.311   9.686  0.1465  0.0287  0.4198
  809MOL0     C 9113   5.051   3.366   9.614 -0.5814 -1.2163  0.6368
  809MOL0     C 9114   5.037   3.340   9.473 -0.1678 -0.1034  0.3068
  809MOL0     O 9115   4.925   3.379   9.401  0.4243 -0.9498  0.5414
  809MOL0     C 9116   4.899   3.516   9.402 -0.0041  0.3745 -0.5204
  809MOL0     C 9117   4.804   3.542   9.283 -0.6418 -0.1094  0.0197
  809MOL0     C 9118   4.880   3.563   9.154 -0.8609  0.0760 -0.4049
  809MOL0     C 9119   4.782   3.527   9.038  0.0632 -0.4243 -0.3437
  809MOL0     C 9120   4.686   3.642   8.995  0.1416  0.7772 -0.4444
  809MOL0     C 9121   4.715   3.684   8.850  0.2100  0.3858 -0.0253
  809MOL0     C 9122   4.589   3.749   8.780 -0.2410  0.6818 -0.3304
  809MOL0     C 9123   4.628   3.825   8.654 -0.5446  0.3793 -0.4436
  809MOL0    Cl 9124   4.487   3.923   8.590 -0.1541 -0.7678 -0.1891
  809MOL0     C 9125   5.134   3.264   9.412 -0.5169  0.7502 -0.4793
  809MOL0     C 9126   5.249   3.221   9.474  0.8949 -0.0765  1.0479
  809MOL0     O 9127   5.219   3.058   9.838 -0.5038 -1.0825 -0.8279
  809MOL0     C 9128   5.559   3.216   9.881 -0.1068 -0.6809  0.2963
  809MOL0     C 9129   5.649   3.231   9.988 -0.8450 -0.1663 -0.4487
  809MOL0     N 9130   5.676   3.084  10.551  0.2983 -0.7083  0.2087
  809MOL0     N 9131   5.628   3.161  10.636  0.5443 -0.3085  0.2472
  809MOL0     C 9132   5.463   4.120  11.435  0.1437  0.7219 -0.0336
  809MOL0     C 9133   5.444   4.254  11.461  0.2930 -0.3057  0.4304
  809MOL0     C 9134   5.443   4.692  11.464 -0.4099 -0.1257  0.2832
  809MOL0     C 9135   5.321   4.753  11.426  0.5584  0.1025 -0.9246
  809MOL0     C 9136   5.299   4.880  11.473 -0.1351  0.5422 -0.1127
  809MOL0     C 9137   5.381   4.939  11.568  0.1450  0.4851  0.3038
  809MOL0     O 9138   5.337   5.056  11.635  0.4527 -0.2008 -0.6140
  809MOL0     C 9139   5.423   5.175  11.627 -0.0773 -0.3986  0.6640
  809MOL0     C 9140   5.452   5.234  11.481 -0.2604 -0.5659  0.4537
  809MOL0     C 9141   5.360   5.343  11.429 -0.0332  0.0361  0.1537
  809MOL0     C 9142   5.394   5.370  11.282 -0.4826  0.3817 -0.7826
  809MOL0     C 9143   5.328   5.255  11.210  0.5840  0.3681  0.3927
  809MOL0     C 9144   5.291   5.162  11.140 -0.0535  0.0129  0.2970
  809MOL0     C 9145   5.507   4.892  11.592  0.2219 -0.0449 -0.2018
  809MOL0     C 9146   5.538   4.766  11.531  0.1633 -0.1284  0.0366
  809MOL0     C 9147   5.667   4.716  11.578  0.5965  0.0761  0.5238
  809MOL0     H 9148   5.771   4.341  11.440  1.0265 -0.3132 -1.8862
  809MOL0     H 9149   5.800   4.107  11.413  0.4764  0.6771 -1.4018
  809MOL0     H 9150   5.775   3.931  11.239 -1.8795  4.0244  0.5176
  809MOL0     H 9151   5.824   3.901  11.403 -0.9565  0.2920  1.0060
  809MOL0     H 9152   5.616   3.716  11.323 -1.4646 -0.2352  3.3922
  809MOL0     H 9153   5.742   3.709  11.450  0.6706  0.2401  0.3220
  809MOL0     H 9154   5.777   3.527  11.292 -0.3786  0.5939  1.3909
  809MOL0     H 9155   5.913   3.646  11.272  0.4660 -1.4377  1.4090
  809MOL0     H 9156   5.666   3.673  11.086 -0.4561  0.5416  0.5036
  809MOL0     H 9157   5.821   3.749  11.074  0.4528 -0.9228 -1.2687
  809MOL0     H 9158   5.811   3.581  10.898  4.4761  0.4584 -1.1800
  809MOL0     H 9159   5.936   3.557  11.028  0.2449 -3.0432 -1.0459
  809MOL0     H 9160   5.801   3.363  11.117 -1.8121 -2.2193 -1.5271
  809MOL0     H 9161   5.658   3.424  11.043 -0.7915 -1.3987  1.6177
  809MOL0     H 9162   5.774   3.214  10.950  0.6692  1.6160  2.9872
  809MOL0     H 9163   5.900   3.311  10.883  0.0801  0.5404  1.1294
  809MOL0     H 9164   5.605   3.349  10.796 -0.2934 -0.7786 -0.1685
  809MOL0     H 9165   5.731   3.446  10.750 -1.9843  0.0608  0.6147
  809MOL0     H 9166   5.954   3.236  10.652 -1.5450  2.1367  0.3870
  809MOL0     H 9167   5.970   2.960  10.504 -1.3133 -0.7241  0.3814
  809MOL0     H 9168   5.840   2.976  10.378 -1.8372  0.4089 -0.7934
  809MOL0     H 9169   6.079   3.152  10.435 -0.0922  0.0452 -0.8089
  809MOL0     H 9170   6.053   3.084  10.284  0.0985  0.9656  0.4707
  809MOL0     H 9171   6.007   3.317  10.282 -2.4888  1.1535 -1.5339
  809MOL0     H 9172   5.876   3.293  10.395  0.3836  3.1049 -1.0513
  809MOL0     H 9173   5.925   3.174  10.114 -1.8432 -2.0296 -0.7734
  809MOL0     H 9174   5.842   3.329  10.148  1.7490  0.1573 -0.9074
  809MOL0     H 9175   5.565   2.990  10.197  2.3429  1.6013  1.2841
  809MOL0     H 9176   5.370   2.975  10.036 -1.7069  2.3547  0.0719
  809MOL0     H 9177   5.163   3.322   9.794 -4.4971  1.6949  0.6990
  809MOL0     H 9178   4.985   3.441   9.657  3.0751  3.2522 -0.7829
  809MOL0     H 9179   4.868   3.551   9.501  1.7892 -0.8963  0.5575
  809MOL0     H 9180   4.990   3.572   9.380  0.3945  0.4156  1.0900
  809MOL0     H 9181   4.732   3.460   9.285  0.6885 -1.3632  3.1806
  809MOL0     H 9182   4.739   3.629   9.298 -1.3126 -0.3466 -1.3609
  809MOL0     H 9183   4.907   3.669   9.144  1.1160 -0.4652 -1.2016
  809MOL0     H 9184   4.969   3.500   9.155 -1.0707 -0.3663  3.0267
  809MOL0     H 9185   4.717   3.443   9.063  0.8157 -0.5831  1.2054
  809MOL0     H 9186   4.848   3.490   8.959  2.2035  1.3885  0.4742
  809MOL0     H 9187   4.682   3.732   9.057 -1.3168  1.3076 -1.2661
  809MOL0     H 9188   4.584   3.602   9.003  0.6587 -0.5348 -0.2092
  809MOL0     H 9189   4.798   3.754   8.838 -0.3610  0.6149 -3.5414
  809MOL0     H 9190   4.746   3.593   8.798 -3.3578 -0.8726 -0.1742
  809MOL0     H 9191   4.537   3.820   8.845 -0.8628  1.1842 -1.3514
  809MOL0     H 9192   4.517   3.676   8.744 -0.0510  0.8367 -1.0326
  809MOL0     H 9193   4.705   3.897   8.682 -0.0909 -0.2401 -0.0614
  809MOL0     H 9194   4.664   3.758   8.576  2.1536  0.9527  0.1995
  809MOL0     H 9195   5.122   3.237   9.308 -0.8877 -0.7628 -0.0756
  809MOL0     H 9196   5.312   3.154   9.416 -0.4057 -0.9584  0.6221
  809MOL0     H 9197   5.570   3.273   9.789 -1.8498  0.7960  0.9517
  809MOL0     H 9198   5.724   3.302   9.955 -0.4567  0.0535  0.8435
  809MOL0     H 9199   5.385   4.053  11.402  0.1881  0.2942  0.7224
  809MOL0     H 9200   5.341   4.283  11.479  0.0093 -0.4075 -0.9188
  809MOL0     H 9201   5.255   4.700  11.359  0.5779 -2.0984  0.6568
  809MOL0     H 9202   5.210   4.936  11.446 -0.4541  1.5785  2.7498
  809MOL0     H 9203   5.520   5.157  11.674  0.5307  0.8017 -0.0623
  809MOL0     H 9204   5.380   5.254  11.688 -1.5050 -0.4209 -0.2703
  809MOL0     H 9205   5.462   5.152  11.409  1.5581  1.9399 -2.3755
  809MOL0     H 9206   5.552   5.274  11.502 -0.0302 -1.6664  1.5682
  809MOL0     H 9207   5.374   5.429  11.496 -0.3503 -0.9036  1.4555
  809MOL0     H 9208   5.262   5.300  11.448 -0.8095  1.5361 -0.2403
  809MOL0     H 9209   5.369   5.467  11.238 -0.7468  0.9970  0.6655
  809MOL0     H 9210   5.501   5.352  11.267  0.3757  2.3195  2.2798
  809MOL0     H 9211   5.253   5.089  11.072 -2.2074  2.2973 -1.0894
  809MOL0     H 9212   5.582   4.939  11.654  0.5957 -1.5103  0.5048
  809MOL0     H 9213   5.730   4.718  11.489  2.6259 -0.6767  1.8921
  809MOL0     H 9214   5.711   4.778  11.656 -0.5281  1.7919 -0.1429
  809MOL0     H 9215   5.659   4.619  11.628 -0.8423 -0.9662 -1.5362
  810MOL0     O 9216   1.645   3.508   7.709 -0.1423 -0.5729  0.0192
  810MOL0     C 9217   1.526   3.538   7.719  0.7348  0.1962  0.1388
  810MOL0     O 9218   1.414   3.450   7.698 -0.7829 -0.0873  0.4611
  810MOL0     C 9219   1.413   3.322   7.734 -0.3760  0.6484 -1.1923
  810MOL0     C 9220   1.396   3.218   7.645 -0.4871  0.2449 -0.2895
  810MOL0     C 9221   1.397   3.086   7.694  0.4559 -0.8242 -0.4938
  810MOL0     C 9222   1.415   3.055   7.826  0.5716 -1.4401 -0.2880
  810MOL0     O 9223   1.385   2.944   7.893  0.4643  0.5753  0.2177
  810MOL0     C 9224   1.396   2.818   7.835  0.4207 -0.7293 -0.1303
  810MOL0     C 9225   1.334   2.717   7.938 -0.8919 -0.6098  0.0679
  810MOL0     C 9226   1.183   2.723   7.923  0.1138  0.8829  0.2232
  810MOL0     C 9227   1.122   2.630   7.815 -0.3050 -0.3718 -0.0052
  810MOL0     C 9228   1.131   2.482   7.847  0.4525  1.2921  0.2074
  810MOL0     C 9229   1.054   2.405   7.731  1.1190  0.1702  0.3589
  810MOL0     C 9230   0.896   2.410   7.750 -0.1091 -0.8412  0.0167
  810MOL0     C 9231   0.833   2.351   7.617 -0.1864 -0.0158 -0.4340
  810MOL0     N 9232   0.852   2.205   7.634  0.4886 -0.2324  0.4293
  810MOL0     C 9233   0.804   2.120   7.726 -0.3704  0.0049 -0.4183
  810MOL0     C 9234   0.877   2.004   7.721  0.5813  1.5338  0.9790
  810MOL0     C 9235   0.849   1.867   7.805 -0.6145  0.0530 -0.2998
  810MOL0     C 9236   0.739   1.780   7.744 -0.7346 -0.2781 -0.9488
  810MOL0     C 9237   0.749   1.637   7.804  0.2787 -0.2127  0.3638
  810MOL0     C 9238   0.632   1.550   7.748  0.2344 -0.5327 -0.0162
  810MOL0     O 9239   0.634   1.412   7.795 -0.2907  0.9247  0.9070
  810MOL0     C 9240   0.513   1.350   7.817 -0.2104  0.5459 -0.6063
  810MOL0     C 9241   0.387   1.382   7.753 -0.5856  0.4250 -0.3115
  810MOL0     C 9242   0.271   1.317   7.792 -0.0118 -0.6820  0.4555
  810MOL0     C 9243   0.274   1.211   7.883 -0.4379 -0.2421 -0.1013
  810MOL0     C 9244   0.155   1.124   7.928  0.3641  0.6156 -0.0831
  810MOL0     O 9245   0.183   1.010   7.994  1.1477  0.2263 -0.3923
  810MOL0     C 9246   0.100   0.901   7.991  0.1246  0.6346 -0.6840
  810MOL0     C 9247   0.140   0.791   8.070  0.2422  0.0543 -0.2808
  810MOL0     C 9248   0.067   0.672   8.074 -0.1992 -0.5553 -0.2695
  810MOL0     C 9249  -0.059   0.669   8.016  0.5267  0.0417 -0.7630
  810MOL0     O 9250  -0.137   0.554   8.009  0.5773 -0.0454  0.0016
  810MOL0     C 9251  -0.087   0.438   8.064 -0.9743 -0.1037  0.2955
  810MOL0     C 9252  -0.158   0.318   8.024  0.7040 -0.3362 -0.1118
  810MOL0     C 9253  -0.159   0.309   7.876 -0.2977 -0.8703  0.5754
  810MOL0     C 9254  -0.198   0.164   7.837  0.4080  1.0850  0.1502
  810MOL0     C 9255  -0.319   0.123   7.901  1.0636  0.8441  0.2431
  810MOL0     C 9256  -0.384  -0.010   7.867 -0.1433 -0.8585  0.5690
  810MOL0     C 9257  -0.414  -0.028   7.720  0.1574  0.2479  0.5626
  810MOL0     C 9258  -0.502  -0.153   7.691  0.2377  0.2995  0.8753
  810MOL0    Cl 9259  -0.394  -0.292   7.694 -0.0570 -0.1098  0.1257
  810MOL0     C 9260  -0.106   0.786   7.952  0.0711  0.4185  0.2967
  810MOL0     C 9261  -0.031   0.904   7.950  0.0793  0.7180 -0.2352
  810MOL0     O 9262   0.043   1.170   7.909 -0.5253 -0.9543 -0.5831
  810MOL0     C 9263   0.392   1.181   7.942 -0.0734 -0.0167  0.0611
  810MOL0     C 9264   0.511   1.250   7.915  0.7832  0.7506 -0.1752
  810MOL0     N 9265   0.961   2.021   7.614 -0.6592 -0.5241  0.6422
  810MOL0     N 9266   0.938   2.132   7.552  0.5165 -0.3061 -0.7552
  810MOL0     C 9267   1.446   3.165   7.911 -0.4959  0.4136  0.9430
  810MOL0     C 9268   1.447   3.298   7.872  0.2911  0.8121 -0.9008
  810MOL0     C 9269   1.482   3.682   7.733  0.1437  0.8355 -0.3332
  810MOL0     C 9270   1.404   3.731   7.629  0.0724 -1.0882 -0.2327
  810MOL0     C 9271   1.370   3.872   7.618 -0.3247  0.4453 -0.4093
  810MOL0     C 9272   1.420   3.954   7.727  0.7505  0.1035 -0.5513
  810MOL0     O 9273   1.381   4.088   7.732  0.6822 -0.0704  0.0352
  810MOL0     C 9274   1.483   4.177   7.690 -0.2919  0.3803  0.2747
  810MOL0     C 9275   1.506   4.148   7.541  0.3105 -0.4278 -0.0838
  810MOL0     C 9276   1.547   4.271   7.464  0.4838 -0.1949  0.9532
  810MOL0     C 9277   1.555   4.239   7.305 -0.1430 -0.9240 -0.8334
  810MOL0     C 9278   1.424   4.187   7.255 -0.7011  0.1312  0.4953
  810MOL0     C 9279   1.331   4.128   7.210 -0.4064  0.3813 -0.4065
  810MOL0     C 9280   1.495   3.907   7.830  0.5334  0.1740  0.1653
  810MOL0     C 9281   1.526   3.769   7.836  0.4305 -0.6105 -0.8319
  810MOL0     C 9282   1.602   3.728   7.962  0.1261  0.2433  1.2901
  810MOL0     H 9283   1.366   3.232   7.542 -2.7726 -2.1110 -0.0346
  810MOL0     H 9284   1.381   3.006   7.622  0.6370  1.2388 -2.9697
  810MOL0     H 9285   1.343   2.811   7.740  1.9299  1.2666 -1.2051
  810MOL0     H 9286   1.502   2.802   7.814  0.3169 -0.6639 -0.7033
  810MOL0     H 9287   1.361   2.738   8.042  3.9445 -1.4444 -0.7698
  810MOL0     H 9288   1.383   2.621   7.917  2.8580  0.8073  1.4795
  810MOL0     H 9289   1.150   2.827   7.921  2.3285  1.7367  2.5860
  810MOL0     H 9290   1.138   2.693   8.018  0.3106 -2.1171 -0.5481
  810MOL0     H 9291   1.017   2.657   7.800  0.1058  1.4816  0.2347
  810MOL0     H 9292   1.179   2.653   7.725  2.5562 -1.2332  1.4612
  810MOL0     H 9293   1.229   2.434   7.864  0.3256  1.2862  0.9354
  810MOL0     H 9294   1.067   2.454   7.931 -0.0558 -1.2097 -0.9236
  810MOL0     H 9295   1.065   2.451   7.632  1.3028 -0.7302 -0.0540
  810MOL0     H 9296   1.080   2.299   7.723  0.1162  0.0411 -2.3316
  810MOL0     H 9297   0.866   2.513   7.727 -0.0288 -0.9019 -0.3738
  810MOL0     H 9298   0.869   2.366   7.846  0.1523 -2.1289 -0.4864
  810MOL0     H 9299   0.728   2.379   7.622 -0.1475  0.1885 -0.7605
  810MOL0     H 9300   0.861   2.380   7.515  1.7091 -1.2165 -0.3101
  810MOL0     H 9301   0.745   2.131   7.816  1.5658  0.7998  0.8034
  810MOL0     H 9302   0.945   1.816   7.791  0.5617  2.8469 -4.2321
  810MOL0     H 9303   0.824   1.899   7.906  2.4813  3.0208 -0.3040
  810MOL0     H 9304   0.643   1.827   7.763 -0.3689 -0.4804  1.9679
  810MOL0     H 9305   0.756   1.763   7.638 -0.6686  0.8220 -1.1272
  810MOL0     H 9306   0.759   1.626   7.912  0.5343  0.3248  0.3948
  810MOL0     H 9307   0.844   1.591   7.774 -0.4150 -1.4301 -0.0301
  810MOL0     H 9308   0.630   1.553   7.639  0.4988  1.3209  0.0099
  810MOL0     H 9309   0.542   1.601   7.784  0.2802 -0.4986  0.0495
  810MOL0     H 9310   0.400   1.456   7.675  0.7527  1.5089  0.8920
  810MOL0     H 9311   0.174   1.338   7.747  1.0124 -0.8350 -1.9607
  810MOL0     H 9312   0.235   0.791   8.124 -0.6177 -1.1966  1.3153
  810MOL0     H 9313   0.120   0.586   8.114 -0.5351 -1.5837 -1.9287
  810MOL0     H 9314   0.016   0.428   8.030 -0.3059 -2.4638  2.7295
  810MOL0     H 9315  -0.078   0.460   8.171 -2.9923  0.9647  0.2959
  810MOL0     H 9316  -0.117   0.229   8.072  0.6546  1.4845  3.7133
  810MOL0     H 9317  -0.262   0.327   8.057  0.3027 -2.3914 -0.6895
  810MOL0     H 9318  -0.238   0.376   7.841  2.1931  0.6768 -2.6908
  810MOL0     H 9319  -0.067   0.345   7.829 -3.0076  3.1528 -2.3624
  810MOL0     H 9320  -0.110   0.100   7.849 -0.7761 -1.5144 -3.3829
  810MOL0     H 9321  -0.217   0.170   7.730 -1.5633 -4.7399 -0.1660
  810MOL0     H 9322  -0.392   0.202   7.882  0.7159  0.6073  0.5668
  810MOL0     H 9323  -0.297   0.121   8.008  1.6698  1.1457  0.1310
  810MOL0     H 9324  -0.309  -0.082   7.898 -0.4377 -0.4555  2.3191
  810MOL0     H 9325  -0.478  -0.020   7.923  0.1225 -1.7160  0.8702
  810MOL0     H 9326  -0.322  -0.002   7.666 -0.0184  2.5045  1.2451
  810MOL0     H 9327  -0.483   0.047   7.679  2.7255  1.6733 -1.4694
  810MOL0     H 9328  -0.589  -0.160   7.758 -0.1286 -1.1517  0.2779
  810MOL0     H 9329  -0.542  -0.148   7.590  0.6242  0.1475  0.7148
  810MOL0     H 9330  -0.204   0.788   7.905  1.0595 -1.0723 -2.0006
  810MOL0     H 9331  -0.074   0.996   7.911 -1.1696  0.4212  0.3985
  810MOL0     H 9332   0.401   1.104   8.017  3.7303  0.5497  0.3621
  810MOL0     H 9333   0.598   1.227   7.975  0.8055  3.0498  0.7650
  810MOL0     H 9334   1.464   3.155   8.017  0.3104 -1.2475  0.6829
  810MOL0     H 9335   1.474   3.388   7.926  2.7916 -1.2837  1.6053
  810MOL0     H 9336   1.357   3.664   7.557 -2.2455 -0.7124  0.8509
  810MOL0     H 9337   1.307   3.907   7.537  0.8715 -2.7091 -2.9326
  810MOL0     H 9338   1.579   4.152   7.735  1.0003  0.2122 -2.3659
  810MOL0     H 9339   1.442   4.279   7.689  1.3553  1.0742 -1.0051
  810MOL0     H 9340   1.413   4.115   7.493  1.7236  0.1502 -3.5291
  810MOL0     H 9341   1.589   4.078   7.545  0.7342  0.1265  2.5011
  810MOL0     H 9342   1.647   4.297   7.499  0.2670  1.2436  0.5757
  810MOL0     H 9343   1.470   4.349   7.470  0.5808  0.2224 -1.6547
  810MOL0     H 9344   1.580   4.324   7.242 -1.0154 -1.3576 -1.7817
  810MOL0     H 9345   1.633   4.163   7.300  1.0330  0.1300  0.4025
  810MOL0     H 9346   1.258   4.080   7.148  0.1055 -0.9545  0.0093
  810MOL0     H 9347   1.534   3.970   7.909 -1.3937 -0.1536  1.4457
  810MOL0     H 9348   1.592   3.795   8.048 -0.5753 -0.5617  1.8447
  810MOL0     H 9349   1.557   3.635   7.997 -0.3287  0.3373  0.9663
  810MOL0     H 9350   1.705   3.719   7.926 -0.3051  0.4076 -0.0589
  811MOL0     O 9351  10.566   4.892   4.301  0.3747 -0.5459  0.0787
  811MOL0     C 9352  10.671   4.926   4.258 -0.1469 -0.3007  0.9228
  811MOL0     O 9353  10.739   5.044   4.292  0.7182 -0.5222 -0.0365
  811MOL0     C 9354  10.681   5.149   4.364 -0.0407 -0.3463 -0.3668
  811MOL0     C 9355  10.776   5.256   4.390  0.3244  0.0048  0.0285
  811MOL0     C 9356  10.734   5.371   4.462  0.1645 -0.5204 -0.0651
  811MOL0     C 9357  10.604   5.377   4.523  0.5972 -0.3305 -0.3883
  811MOL0     O 9358  10.568   5.484   4.602 -0.2057  0.1024  0.4706
  811MOL0     C 9359  10.432   5.509   4.637  0.0740 -0.5580 -0.6835
  811MOL0     C 9360  10.402   5.655   4.649 -0.1891  0.4997 -0.0014
  811MOL0     C 9361  10.438   5.749   4.528 -0.1217  0.0575  0.0281
  811MOL0     C 9362  10.380   5.715   4.387 -0.9617 -0.9044  0.2919
  811MOL0     C 9363  10.238   5.656   4.367  0.3425  0.2838 -0.2025
  811MOL0     C 9364  10.207   5.591   4.236 -0.2379 -0.6463  0.1650
  811MOL0     C 9365  10.067   5.539   4.211 -0.3140  0.4222 -0.7829
  811MOL0     C 9366  10.058   5.386   4.188 -0.0004 -0.6442  0.1920
  811MOL0     N 9367  10.088   5.317   4.313  0.1680 -0.8799 -0.0482
  811MOL0     C 9368  10.001   5.320   4.423 -0.5964  0.8761  0.0215
  811MOL0     C 9369  10.081   5.269   4.521  1.4106 -0.1522  0.1386
  811MOL0     C 9370  10.059   5.290   4.671  0.7221  0.4811  0.0018
  811MOL0     C 9371  10.015   5.432   4.699  0.6083 -0.1443 -0.2532
  811MOL0     C 9372  10.044   5.464   4.846  0.1867  0.1540  0.2186
  811MOL0     C 9373   9.978   5.368   4.947  0.3175  1.0675 -0.6269
  811MOL0     O 9374   9.838   5.371   4.928  0.1010 -0.1075 -0.0165
  811MOL0     C 9375   9.756   5.265   4.972 -0.5733 -0.1830  0.6222
  811MOL0     C 9376   9.797   5.148   5.041 -0.5414 -0.3503  0.4049
  811MOL0     C 9377   9.716   5.052   5.074 -0.2455  0.0639  0.5260
  811MOL0     C 9378   9.589   5.051   5.034  0.9263  0.0148 -0.3358
  811MOL0     C 9379   9.496   4.932   5.049 -1.4178 -0.5325 -0.1485
  811MOL0     O 9380   9.558   4.810   5.069 -0.1923 -0.4825  1.3475
  811MOL0     C 9381   9.470   4.703   5.048 -0.1227 -0.4809  0.8069
  811MOL0     C 9382   9.428   4.660   4.919 -0.8701 -0.5209 -0.1478
  811MOL0     C 9383   9.374   4.530   4.906 -0.1420  0.1516  0.4022
  811MOL0     C 9384   9.337   4.449   5.017 -0.3587  0.6305 -0.2487
  811MOL0     O 9385   9.267   4.328   5.006 -0.2764 -0.6023 -0.4052
  811MOL0     C 9386   9.347   4.216   5.047  0.0541 -0.5279  0.3485
  811MOL0     C 9387   9.471   4.197   4.957 -0.4326 -0.1385  0.1743
  811MOL0     C 9388   9.574   4.077   4.968 -0.1535 -1.1597 -0.1197
  811MOL0     C 9389   9.693   4.095   4.866  0.8253  0.0218  0.2939
  811MOL0     C 9390   9.784   3.968   4.882  0.6122  0.2533  0.4773
  811MOL0     C 9391   9.894   3.956   4.771  0.4832 -0.2603  0.2584
  811MOL0     C 9392  10.017   4.039   4.803 -0.3999 -0.8122  0.1557
  811MOL0     C 9393  10.130   4.026   4.711 -0.1221  0.1435 -1.0776
  811MOL0    Cl 9394  10.207   3.872   4.738  0.4829  0.0976 -0.2512
  811MOL0     C 9395   9.365   4.508   5.140 -0.4222 -0.4633  0.0452
  811MOL0     C 9396   9.437   4.625   5.151  0.6598 -0.3633 -0.8077
  811MOL0     O 9397   9.381   4.953   5.029 -0.0178  0.3757 -0.3223
  811MOL0     C 9398   9.538   5.167   4.963 -1.2679 -0.8649 -0.2077
  811MOL0     C 9399   9.619   5.281   4.938 -0.7902  0.5278 -0.1490
  811MOL0     N 9400  10.202   5.237   4.471 -0.6775 -0.1086 -0.1837
  811MOL0     N 9401  10.214   5.275   4.351  0.0503  0.0218 -0.7849
  811MOL0     C 9402  10.525   5.257   4.521  0.5268 -0.3371  0.5996
  811MOL0     C 9403  10.563   5.141   4.445  0.2172  1.1592 -0.5050
  811MOL0     C 9404  10.762   4.821   4.188 -0.8295  0.0879 -0.1619
  811MOL0     C 9405  10.901   4.824   4.221 -0.5653 -0.3628  1.1484
  811MOL0     C 9406  10.987   4.718   4.182 -0.2632  0.0186  0.1967
  811MOL0     C 9407  10.939   4.619   4.103 -1.1598  0.3013  0.0136
  811MOL0     O 9408  11.032   4.519   4.063 -0.0492 -0.0228 -0.5523
  811MOL0     C 9409  11.011   4.427   3.954 -0.0872 -0.9950  0.5389
  811MOL0     C 9410  11.137   4.346   3.922 -0.4350  1.0779 -0.0974
  811MOL0     C 9411  11.204   4.273   4.037 -0.1881 -0.1212 -0.0952
  811MOL0     C 9412  11.337   4.233   3.983  0.2744  0.6820  0.3782
  811MOL0     C 9413  11.394   4.132   4.070 -0.5952 -0.8445 -0.4074
  811MOL0     C 9414  11.466   4.058   4.137 -0.7452 -0.3230 -0.8320
  811MOL0     C 9415  10.800   4.613   4.075 -0.0713 -0.3954  0.9004
  811MOL0     C 9416  10.715   4.710   4.117 -0.4003  0.1118  0.1377
  811MOL0     C 9417  10.569   4.694   4.086  0.6081 -0.1658  0.1450
  811MOL0     H 9418  10.867   5.248   4.331 -0.2324  1.1082 -1.0108
  811MOL0     H 9419  10.793   5.462   4.460  0.2327 -0.5701 -0.2545
  811MOL0     H 9420  10.363   5.458   4.568  0.9804 -3.0024  0.1155
  811MOL0     H 9421  10.432   5.473   4.740  3.0844  4.3303  1.3747
  811MOL0     H 9422  10.454   5.690   4.739 -0.0370 -0.3846  0.2682
  811MOL0     H 9423  10.295   5.654   4.670 -0.4306 -0.5116 -1.1588
  811MOL0     H 9424  10.547   5.743   4.522 -0.1270 -0.1007  0.0837
  811MOL0     H 9425  10.411   5.854   4.545 -1.1345 -0.1202 -0.4077
  811MOL0     H 9426  10.390   5.809   4.331 -2.2955 -2.1111 -2.1558
  811MOL0     H 9427  10.458   5.653   4.342 -0.7457  1.6304 -3.2312
  811MOL0     H 9428  10.218   5.583   4.446 -3.7955  1.3496 -0.0375
  811MOL0     H 9429  10.172   5.741   4.385  2.9304  1.7120  4.3683
  811MOL0     H 9430  10.226   5.674   4.167  0.9003 -1.0987 -0.0981
  811MOL0     H 9431  10.288   5.519   4.222  0.6328 -0.1389  2.2877
  811MOL0     H 9432  10.031   5.589   4.121 -0.5582 -0.5429 -1.2397
  811MOL0     H 9433  10.001   5.550   4.297 -2.6116 -0.3752 -2.3344
  811MOL0     H 9434   9.953   5.377   4.161 -0.6308  4.2966  0.0761
  811MOL0     H 9435  10.116   5.340   4.107  0.3365  1.1255 -0.6130
  811MOL0     H 9436   9.902   5.364   4.429  0.6628  3.6807  3.0333
  811MOL0     H 9437   9.980   5.221   4.703  0.2652  0.5749 -0.8961
  811MOL0     H 9438  10.148   5.263   4.728 -1.1502 -4.1919  1.1711
  811MOL0     H 9439  10.067   5.505   4.636 -0.3387  0.8181  0.0336
  811MOL0     H 9440   9.914   5.458   4.665  0.8890 -0.6075 -1.4692
  811MOL0     H 9441  10.020   5.568   4.869  0.6976  0.3385 -0.0564
  811MOL0     H 9442  10.152   5.451   4.863  0.4206 -2.4967 -2.4383
  811MOL0     H 9443  10.010   5.382   5.051 -1.2227 -1.6970  0.3035
  811MOL0     H 9444  10.014   5.267   4.924 -2.3896  0.4098 -2.3106
  811MOL0     H 9445   9.893   5.135   5.090  0.5482  1.8611 -0.9880
  811MOL0     H 9446   9.760   4.974   5.136 -0.0318  0.4127  0.8154
  811MOL0     H 9447   9.449   4.735   4.843 -3.2035  1.6305  1.1765
  811MOL0     H 9448   9.342   4.478   4.817 -1.2131  0.4583  0.5915
  811MOL0     H 9449   9.366   4.226   5.154 -2.6760 -1.7239  1.0507
  811MOL0     H 9450   9.276   4.134   5.035 -1.5114  0.9188 -0.7369
  811MOL0     H 9451   9.445   4.193   4.851  2.1530  0.7489 -0.5797
  811MOL0     H 9452   9.529   4.289   4.973  1.4661 -1.3503  0.5618
  811MOL0     H 9453   9.609   4.070   5.072 -3.0938  0.3821  1.0800
  811MOL0     H 9454   9.515   3.987   4.947 -0.9282 -0.8293  0.5804
  811MOL0     H 9455   9.745   4.190   4.884 -1.6393  0.6794  6.5349
  811MOL0     H 9456   9.653   4.095   4.765 -0.2978  1.9319  0.6975
  811MOL0     H 9457   9.722   3.878   4.879  1.0043 -0.0102  0.0419
  811MOL0     H 9458   9.834   3.968   4.979  3.0985  2.9011 -0.6499
  811MOL0     H 9459   9.923   3.852   4.756 -1.5792 -1.2661  2.4958
  811MOL0     H 9460   9.854   3.996   4.678  0.3218 -1.0700 -0.0287
  811MOL0     H 9461  10.056   4.009   4.901  1.5239 -1.4679 -0.7508
  811MOL0     H 9462   9.983   4.143   4.810 -0.3592 -0.9021  2.2879
  811MOL0     H 9463  10.088   4.036   4.611 -2.1117 -0.1234 -0.3118
  811MOL0     H 9464  10.184   4.114   4.748 -4.1641  0.7847  4.5055
  811MOL0     H 9465   9.346   4.473   5.241  1.3450  1.8841  1.2911
  811MOL0     H 9466   9.466   4.651   5.252 -0.8875 -2.0620  0.1247
  811MOL0     H 9467   9.434   5.177   4.934 -0.4689  0.4574 -2.9462
  811MOL0     H 9468   9.579   5.359   4.873  0.7591  1.0094 -0.5722
  811MOL0     H 9469  10.431   5.238   4.572  1.5198 -2.4298  1.7919
  811MOL0     H 9470  10.507   5.048   4.450  0.4829  0.7113 -3.7557
  811MOL0     H 9471  10.929   4.902   4.291 -2.2416 -0.8276  2.4212
  811MOL0     H 9472  11.087   4.719   4.226  0.0562  0.1759 -0.5257
  811MOL0     H 9473  10.999   4.484   3.862 -0.4379 -4.1182 -1.5051
  811MOL0     H 9474  10.926   4.363   3.981 -0.1162 -1.1474  0.0975
  811MOL0     H 9475  11.204   4.409   3.861 -1.5426  1.7698 -0.6289
  811MOL0     H 9476  11.105   4.272   3.848 -1.5391  2.1170 -0.6864
  811MOL0     H 9477  11.145   4.191   4.080  1.9077 -1.7673 -0.1779
  811MOL0     H 9478  11.213   4.341   4.122  0.9660  0.3775 -0.6018
  811MOL0     H 9479  11.325   4.190   3.883 -0.3627 -1.2911  1.2550
  811MOL0     H 9480  11.398   4.323   3.975 -1.4986  1.7859 -4.6372
  811MOL0     H 9481  11.514   3.983   4.197 -1.4579 -0.2470 -0.1543
  811MOL0     H 9482  10.774   4.523   4.020 -1.0871  0.0946  0.5585
  811MOL0     H 9483  10.517   4.625   4.154  0.7800 -0.9717 -0.5148
  811MOL0     H 9484  10.516   4.789   4.089  1.1075  0.0932  2.5931
  811MOL0     H 9485  10.566   4.645   3.988 -0.1471 -0.4198  0.2895
  812MOL0     O 9486   6.123   7.906   4.275  0.7559 -0.2095  0.3996
  812MOL0     C 9487   6.228   7.972   4.271  0.1348 -0.0713  0.6547
  812MOL0     O 9488   6.357   7.915   4.278 -0.0079 -0.1171  0.5901
  812MOL0     C 9489   6.370   7.774   4.277  0.2758 -0.6711  0.0464
  812MOL0     C 9490   6.351   7.702   4.402 -0.6165  0.5126  0.3134
  812MOL0     C 9491   6.375   7.567   4.403  0.0354  0.0394  0.9236
  812MOL0     C 9492   6.403   7.487   4.282  0.3800 -0.7090 -0.1698
  812MOL0     O 9493   6.421   7.351   4.265 -0.4777 -0.1932  0.7196
  812MOL0     C 9494   6.412   7.292   4.392  1.3016  1.0851  0.0039
  812MOL0     C 9495   6.449   7.144   4.363 -0.7468 -0.1029  0.1206
  812MOL0     C 9496   6.582   7.138   4.294 -0.5115  0.3827  1.3474
  812MOL0     C 9497   6.604   6.995   4.252 -0.0514  0.1172  0.3967
  812MOL0     C 9498   6.758   6.996   4.221  0.0699  0.2070  0.4132
  812MOL0     C 9499   6.814   6.859   4.180  0.1462  0.1087  0.3360
  812MOL0     C 9500   6.945   6.877   4.107 -0.0576 -0.3755 -0.4729
  812MOL0     C 9501   7.057   6.919   4.205  0.2420  0.1189 -0.2493
  812MOL0     N 9502   7.178   6.937   4.130 -0.0700 -0.3489 -0.8038
  812MOL0     C 9503   7.294   6.866   4.145 -0.2086 -0.4882  0.1926
  812MOL0     C 9504   7.391   6.932   4.084 -0.2743 -0.3534 -0.1176
  812MOL0     C 9505   7.532   6.865   4.064  0.5687  0.4440  0.4107
  812MOL0     C 9506   7.636   6.901   4.166 -0.6291 -0.5203  0.3315
  812MOL0     C 9507   7.712   7.024   4.109  0.5335 -0.1950  0.6913
  812MOL0     C 9508   7.767   7.086   4.238 -0.0381  0.0677  1.3031
  812MOL0     O 9509   7.857   6.980   4.292  0.4622 -0.8320  0.0408
  812MOL0     C 9510   7.868   6.977   4.432  1.1659 -0.1480  0.0846
  812MOL0     C 9511   7.850   7.083   4.529 -0.4956  0.0847 -0.1645
  812MOL0     C 9512   7.874   7.066   4.663 -0.0444 -0.6225 -0.5825
  812MOL0     C 9513   7.906   6.940   4.714  0.8755  0.8692  0.1643
  812MOL0     C 9514   7.912   6.922   4.863 -0.8650  1.5758  0.3196
  812MOL0     O 9515   7.872   7.030   4.937 -0.1710  0.8813 -0.5318
  812MOL0     C 9516   7.838   7.008   5.070  0.8265  0.1826 -0.1044
  812MOL0     C 9517   7.930   7.051   5.173 -0.2890  0.8338 -0.4619
  812MOL0     C 9518   7.900   7.052   5.310 -0.0983 -0.1483 -0.2404
  812MOL0     C 9519   7.775   7.014   5.343  1.0802  0.2984 -0.6769
  812MOL0     O 9520   7.734   7.015   5.481  0.4254 -1.3469  0.2090
  812MOL0     C 9521   7.761   7.145   5.541  0.4043 -0.3202  0.4772
  812MOL0     C 9522   7.629   7.218   5.550  0.2838  0.3423  1.4636
  812MOL0     C 9523   7.534   7.141   5.639  0.3337  0.7976  0.0326
  812MOL0     C 9524   7.565   7.166   5.788 -0.1024  0.2076  0.6564
  812MOL0     C 9525   7.447   7.141   5.885  0.4827  0.5989  0.4452
  812MOL0     C 9526   7.502   7.133   6.030 -0.2572  0.9403  0.2761
  812MOL0     C 9527   7.395   7.152   6.131 -0.1570  1.5621 -0.0890
  812MOL0     C 9528   7.273   7.054   6.122 -0.8571 -0.4152  0.3274
  812MOL0    Cl 9529   7.145   7.125   6.026 -0.0819  0.2042  0.0531
  812MOL0     C 9530   7.682   6.967   5.252  0.0760  0.7044  0.5742
  812MOL0     C 9531   7.710   6.960   5.117 -0.1481 -0.0321  0.3478
  812MOL0     O 9532   7.947   6.808   4.901  1.0751  0.3400 -0.6674
  812MOL0     C 9533   7.920   6.840   4.625 -0.4331  0.6581 -0.4647
  812MOL0     C 9534   7.901   6.853   4.485  0.0923  0.4932 -0.3218
  812MOL0     N 9535   7.342   7.045   4.026 -0.1429 -0.5183 -0.6682
  812MOL0     N 9536   7.217   7.051   4.062 -0.0151 -0.0342  0.2043
  812MOL0     C 9537   6.432   7.571   4.166  0.3024 -0.7750  0.1833
  812MOL0     C 9538   6.417   7.707   4.163 -1.8328 -0.2981 -0.4160
  812MOL0     C 9539   6.218   8.121   4.261 -0.8830  0.0219  0.8648
  812MOL0     C 9540   6.348   8.196   4.243  0.8336 -0.4216 -0.4073
  812MOL0     C 9541   6.348   8.335   4.249 -0.2850  0.4207 -0.2669
  812MOL0     C 9542   6.227   8.404   4.261  0.3235  0.5770  0.0699
  812MOL0     O 9543   6.206   8.536   4.236  0.1787 -0.3700 -0.3862
  812MOL0     C 9544   6.322   8.620   4.242  0.3236 -0.3206  0.9261
  812MOL0     C 9545   6.290   8.766   4.206  0.3796 -0.0106 -0.4836
  812MOL0     C 9546   6.231   8.777   4.063  0.4477 -1.3953  0.0874
  812MOL0     C 9547   6.072   8.761   4.045  0.3284 -0.0076  1.5150
  812MOL0     C 9548   6.003   8.851   3.950  0.1505 -0.0678 -0.7509
  812MOL0     C 9549   5.929   8.907   3.868 -0.8210  0.8935 -1.1067
  812MOL0     C 9550   6.111   8.336   4.307 -0.4391 -0.6229  0.4823
  812MOL0     C 9551   6.107   8.195   4.302 -0.7405 -1.1278 -0.2743
  812MOL0     C 9552   5.972   8.139   4.311  0.3975  0.4781 -0.0833
  812MOL0     H 9553   6.317   7.754   4.491 -1.0878  2.8264 -1.1567
  812MOL0     H 9554   6.367   7.520   4.500 -4.0080  1.0994  1.2880
  812MOL0     H 9555   6.476   7.336   4.469  1.8677 -2.1864  1.5800
  812MOL0     H 9556   6.306   7.296   4.418  0.9213 -1.6660 -0.7947
  812MOL0     H 9557   6.373   7.097   4.300 -1.0729 -0.9838  1.1487
  812MOL0     H 9558   6.449   7.097   4.462 -0.3187  1.6980  1.0254
  812MOL0     H 9559   6.652   7.165   4.373 -0.9479 -0.8391  2.1710
  812MOL0     H 9560   6.582   7.203   4.205 -2.7454 -1.6985 -0.3174
  812MOL0     H 9561   6.570   6.917   4.320 -1.5085  0.0210 -0.3995
  812MOL0     H 9562   6.550   6.966   4.161 -0.6138  0.8894  0.4765
  812MOL0     H 9563   6.767   7.076   4.147 -2.3986  1.0342  0.9129
  812MOL0     H 9564   6.819   7.013   4.310 -0.1477 -0.7794  0.7742
  812MOL0     H 9565   6.809   6.796   4.269 -0.1159 -0.1435  0.1445
  812MOL0     H 9566   6.741   6.811   4.114 -0.9682  0.1120  1.5302
  812MOL0     H 9567   6.938   6.946   4.023  1.0457  0.0271 -0.2570
  812MOL0     H 9568   6.970   6.779   4.066  1.2836 -0.7355  1.0802
  812MOL0     H 9569   7.042   7.019   4.247 -0.4032  0.1131 -0.4530
  812MOL0     H 9570   7.070   6.843   4.283 -0.1191  0.4651  0.1549
  812MOL0     H 9571   7.292   6.766   4.188 -3.9054  0.8768  3.7863
  812MOL0     H 9572   7.529   6.756   4.066  2.1215  0.3819  0.1075
  812MOL0     H 9573   7.568   6.890   3.964  1.2464 -0.3616  0.4483
  812MOL0     H 9574   7.584   6.927   4.258 -0.3285 -1.0958  0.6731
  812MOL0     H 9575   7.710   6.822   4.181  0.6677  0.7328  0.7084
  812MOL0     H 9576   7.645   7.100   4.069  0.6020 -0.1879  0.5923
  812MOL0     H 9577   7.804   7.001   4.053  0.7765 -0.4301  1.1763
  812MOL0     H 9578   7.680   7.114   4.299 -0.2940  2.4778 -0.0687
  812MOL0     H 9579   7.814   7.181   4.214  0.0698 -0.4038 -0.4863
  812MOL0     H 9580   7.840   7.181   4.482  4.2051 -0.3506 -2.6989
  812MOL0     H 9581   7.882   7.156   4.724 -0.0774 -0.0661 -1.3840
  812MOL0     H 9582   8.025   7.099   5.153  0.1888 -0.3600 -1.1018
  812MOL0     H 9583   7.981   7.083   5.375 -0.6038  0.1267  0.2629
  812MOL0     H 9584   7.812   7.126   5.636  3.5836 -0.5492 -1.1649
  812MOL0     H 9585   7.834   7.207   5.489 -0.4142  0.6494  0.4470
  812MOL0     H 9586   7.662   7.318   5.581 -2.0106  1.4792  0.4591
  812MOL0     H 9587   7.578   7.226   5.453  0.7209  2.4382  1.3503
  812MOL0     H 9588   7.436   7.182   5.612  1.0022  1.2741 -1.8181
  812MOL0     H 9589   7.529   7.037   5.605 -2.6234  1.2606 -1.3024
  812MOL0     H 9590   7.584   7.273   5.790  1.8271 -0.0091 -1.5413
  812MOL0     H 9591   7.655   7.114   5.820 -0.2176 -0.5372 -0.1604
  812MOL0     H 9592   7.399   7.047   5.856 -2.8468  1.1031  3.6389
  812MOL0     H 9593   7.374   7.221   5.873  0.9066  1.1421  1.4058
  812MOL0     H 9594   7.548   7.034   6.034  0.5359  1.0309 -3.2599
  812MOL0     H 9595   7.573   7.212   6.053 -0.5959  0.8844  1.5776
  812MOL0     H 9596   7.354   7.253   6.135 -0.4086  1.5079 -1.1364
  812MOL0     H 9597   7.439   7.142   6.231  0.7132 -1.9459 -0.6756
  812MOL0     H 9598   7.313   6.956   6.094  4.4149  1.9812 -1.9125
  812MOL0     H 9599   7.225   7.046   6.220 -1.6702  1.4884  0.1393
  812MOL0     H 9600   7.583   6.934   5.280  0.8325 -1.3324  1.0099
  812MOL0     H 9601   7.627   6.926   5.055 -1.1334  3.7865 -0.7300
  812MOL0     H 9602   7.945   6.739   4.658 -0.0273  1.0064  0.3074
  812MOL0     H 9603   7.911   6.768   4.418  4.9382  0.9190 -0.4922
  812MOL0     H 9604   6.455   7.529   4.069  3.1924  1.1951 -0.1052
  812MOL0     H 9605   6.446   7.760   4.073  0.4220 -0.0464  0.4123
  812MOL0     H 9606   6.441   8.141   4.230  0.9087 -1.0057  2.1726
  812MOL0     H 9607   6.437   8.388   4.218 -0.9192  1.6484 -0.0311
  812MOL0     H 9608   6.396   8.580   4.172  1.3981  1.6090  0.9023
  812MOL0     H 9609   6.366   8.619   4.342  3.2003 -1.5336 -0.2387
  812MOL0     H 9610   6.381   8.826   4.213  0.4980 -0.1241 -0.9912
  812MOL0     H 9611   6.221   8.805   4.281 -0.0636  2.6383 -2.1219
  812MOL0     H 9612   6.275   8.710   3.989 -1.2406  0.7386 -3.0808
  812MOL0     H 9613   6.262   8.877   4.030 -0.0608 -1.9197 -2.0673
  812MOL0     H 9614   6.063   8.660   4.005  2.0913  0.0431  0.8883
  812MOL0     H 9615   6.027   8.770   4.144  1.9999 -1.3437  2.4679
  812MOL0     H 9616   5.878   8.971   3.798  0.0912  1.2483 -1.4721
  812MOL0     H 9617   6.023   8.397   4.319  0.9737  1.6869 -0.2262
  812MOL0     H 9618   5.936   8.088   4.220 -2.7109 -2.3238  2.4507
  812MOL0     H 9619   5.981   8.059   4.385  2.5828  0.6732 -0.0688
  812MOL0     H 9620   5.887   8.203   4.335  0.1627  0.0434  0.2587
  813MOL0     O 9621   6.572   6.332   9.047  0.4288 -0.1710 -0.0722
  813MOL0     C 9622   6.573   6.301   9.167  0.3508 -0.4895  0.8737
  813MOL0     O 9623   6.616   6.179   9.215  0.3126 -0.7126  0.0213
  813MOL0     C 9624   6.657   6.077   9.122  0.0617 -0.3047  0.1739
  813MOL0     C 9625   6.553   6.015   9.054  0.1532 -0.6336  0.4163
  813MOL0     C 9626   6.587   5.905   8.975  0.2160 -0.4286  0.3043
  813MOL0     C 9627   6.722   5.848   8.971 -1.2556 -0.6520  1.2226
  813MOL0     O 9628   6.763   5.740   8.891  0.1652 -0.4065  0.5150
  813MOL0     C 9629   6.706   5.712   8.755  0.5291 -0.3051 -0.2354
  813MOL0     C 9630   6.792   5.624   8.674  0.3592  0.0397  0.5312
  813MOL0     C 9631   6.920   5.698   8.624  0.6373 -0.3241  0.4847
  813MOL0     C 9632   7.011   5.614   8.540 -0.6174  0.3709  0.4004
  813MOL0     C 9633   7.163   5.657   8.534 -0.3202  0.2291  0.5727
  813MOL0     C 9634   7.224   5.650   8.676  1.0663  0.4892 -0.0295
  813MOL0     C 9635   7.371   5.706   8.675  0.8305  1.3879  1.0841
  813MOL0     C 9636   7.406   5.762   8.810 -1.2802  0.0367 -0.2043
  813MOL0     N 9637   7.419   5.662   8.925 -0.0183  0.0135 -0.2995
  813MOL0     C 9638   7.528   5.595   8.967 -0.8507 -0.6571 -0.2934
  813MOL0     C 9639   7.506   5.532   9.081 -0.5450 -0.1314  1.1938
  813MOL0     C 9640   7.611   5.471   9.171  0.8785  0.1928 -0.1635
  813MOL0     C 9641   7.749   5.544   9.159  0.2209 -0.2758 -0.3350
  813MOL0     C 9642   7.849   5.466   9.249 -0.0113 -0.5673 -0.0082
  813MOL0     C 9643   7.995   5.517   9.228  1.1689 -0.2591 -0.3834
  813MOL0     O 9644   8.044   5.504   9.092  0.6212  0.6485 -0.1623
  813MOL0     C 9645   8.108   5.387   9.062  0.8826  0.1575 -0.3009
  813MOL0     C 9646   8.171   5.374   8.940 -0.3004  0.1743 -0.1895
  813MOL0     C 9647   8.256   5.270   8.901  0.7037 -0.5940  0.6040
  813MOL0     C 9648   8.287   5.175   8.996  0.1383  0.9446 -0.4788
  813MOL0     C 9649   8.374   5.061   8.948 -0.0953  0.0077  0.7353
  813MOL0     O 9650   8.433   5.069   8.824  0.4565 -0.0323  0.5540
  813MOL0     C 9651   8.502   4.963   8.769 -0.6139 -0.3958 -0.1960
  813MOL0     C 9652   8.501   4.971   8.627 -0.6916  0.2312 -0.0068
  813MOL0     C 9653   8.574   4.877   8.552  0.0313  0.5814  0.0134
  813MOL0     C 9654   8.638   4.766   8.619  0.0056  0.3454  0.2070
  813MOL0     O 9655   8.701   4.668   8.549 -0.2792  0.4429  0.1832
  813MOL0     C 9656   8.630   4.595   8.448 -0.2253  0.5443 -0.3999
  813MOL0     C 9657   8.623   4.450   8.479  0.1160 -0.0939 -0.9362
  813MOL0     C 9658   8.584   4.417   8.619  0.5004 -0.1007 -0.6472
  813MOL0     C 9659   8.563   4.267   8.647  0.3184  0.0432  0.9547
  813MOL0     C 9660   8.703   4.206   8.657 -0.1846  1.0717 -0.3883
  813MOL0     C 9661   8.703   4.057   8.711 -0.0937 -0.8354 -0.8326
  813MOL0     C 9662   8.793   3.977   8.629 -0.5158  0.1423  0.5384
  813MOL0     C 9663   8.949   3.994   8.664 -0.0529  0.2262 -0.7341
  813MOL0    Cl 9664   9.029   3.867   8.561  0.1439 -0.0310  0.2666
  813MOL0     C 9665   8.641   4.766   8.763  0.7710  0.3690  0.5894
  813MOL0     C 9666   8.577   4.860   8.841 -0.2640  0.7156  0.8452
  813MOL0     O 9667   8.394   4.978   9.036  0.7657 -0.4514 -0.6953
  813MOL0     C 9668   8.223   5.175   9.128 -0.5045  0.2365  0.0207
  813MOL0     C 9669   8.121   5.276   9.151  0.3845  1.0313 -0.4453
  813MOL0     N 9670   7.374   5.562   9.104 -0.4473  0.5452  0.6914
  813MOL0     N 9671   7.327   5.653   9.013  0.4729  0.0423 -0.4702
  813MOL0     C 9672   6.827   5.924   9.031  0.8224 -0.2142  0.3543
  813MOL0     C 9673   6.789   6.031   9.105 -0.4724 -0.2904  0.4736
  813MOL0     C 9674   6.538   6.412   9.271  0.3115  0.0516 -0.0040
  813MOL0     C 9675   6.579   6.404   9.399 -0.5202 -0.1838 -0.6160
  813MOL0     C 9676   6.542   6.494   9.498 -0.5338  0.5316  0.3028
  813MOL0     C 9677   6.460   6.596   9.468 -0.3123  0.0574 -0.7877
  813MOL0     O 9678   6.417   6.690   9.556  0.4450 -1.0461  0.1271
  813MOL0     C 9679   6.435   6.663   9.690  0.3223  0.3129 -0.1992
  813MOL0     C 9680   6.365   6.759   9.780  0.3244 -0.4703 -0.5509
  813MOL0     C 9681   6.220   6.737   9.805  0.2846 -0.8705 -0.0673
  813MOL0     C 9682   6.153   6.828   9.909 -0.0305 -0.2531 -0.6927
  813MOL0     C 9683   6.017   6.788   9.929  0.1913  0.3997 -0.0070
  813MOL0     C 9684   5.899   6.752   9.943 -0.1646  1.0614 -0.5462
  813MOL0     C 9685   6.412   6.609   9.335 -0.2727 -0.3077  0.5641
  813MOL0     C 9686   6.459   6.520   9.237  0.4938  0.0583 -0.5622
  813MOL0     C 9687   6.417   6.553   9.096 -0.6939 -0.3046  0.8028
  813MOL0     H 9688   6.452   6.057   9.054  0.7426  1.3199  4.5809
  813MOL0     H 9689   6.507   5.866   8.912  0.8277 -1.9624  0.4310
  813MOL0     H 9690   6.609   5.662   8.760 -0.3417  1.0862 -2.0167
  813MOL0     H 9691   6.704   5.808   8.702  0.2454  2.7748  4.7252
  813MOL0     H 9692   6.752   5.583   8.581  1.0148 -1.8359  1.0363
  813MOL0     H 9693   6.832   5.543   8.734  2.6220  0.6310 -0.0751
  813MOL0     H 9694   6.963   5.736   8.717  3.0714  1.8313 -1.3578
  813MOL0     H 9695   6.878   5.782   8.567 -3.7227  0.0903  3.7776
  813MOL0     H 9696   7.007   5.515   8.585 -0.4130  0.6755  1.0953
  813MOL0     H 9697   6.970   5.595   8.440 -0.3792 -1.0303  0.5549
  813MOL0     H 9698   7.217   5.592   8.464  1.6173  1.8595  0.4447
  813MOL0     H 9699   7.165   5.759   8.494  0.1736  0.0265  0.0619
  813MOL0     H 9700   7.167   5.716   8.742  0.3616  1.4465 -1.5166
  813MOL0     H 9701   7.218   5.552   8.722 -2.7936  0.4332 -0.3508
  813MOL0     H 9702   7.368   5.780   8.594 -2.9102  0.6558  0.3656
  813MOL0     H 9703   7.441   5.629   8.641 -0.7628  1.1716 -2.1472
  813MOL0     H 9704   7.499   5.819   8.809 -1.4137  0.2595 -1.3443
  813MOL0     H 9705   7.323   5.829   8.834 -1.8745  0.2489 -2.5675
  813MOL0     H 9706   7.631   5.605   8.935  0.1187 -1.5663  2.2614
  813MOL0     H 9707   7.575   5.473   9.274 -0.1710 -4.5180 -0.2113
  813MOL0     H 9708   7.622   5.365   9.148  0.1764  0.4090 -1.5280
  813MOL0     H 9709   7.785   5.541   9.056 -1.4182 -1.3200 -0.9110
  813MOL0     H 9710   7.742   5.652   9.177 -0.7540 -0.7426  2.7296
  813MOL0     H 9711   7.843   5.359   9.228 -0.0455 -0.4591 -0.5489
  813MOL0     H 9712   7.810   5.474   9.351 -1.9228 -1.4931 -0.6219
  813MOL0     H 9713   8.065   5.471   9.298  2.7923  1.5094 -0.7530
  813MOL0     H 9714   7.996   5.621   9.262  1.3553 -1.2439  2.9681
  813MOL0     H 9715   8.146   5.456   8.872  0.2677  0.1286 -0.4545
  813MOL0     H 9716   8.276   5.262   8.794 -5.6982  0.9246 -1.1657
  813MOL0     H 9717   8.450   5.053   8.577  3.5164  3.5254  0.5204
  813MOL0     H 9718   8.585   4.879   8.444 -2.6826 -2.5706 -0.4707
  813MOL0     H 9719   8.524   4.621   8.449 -0.1287  0.9516 -0.0099
  813MOL0     H 9720   8.684   4.594   8.353  1.9164 -0.6051  0.7345
  813MOL0     H 9721   8.553   4.402   8.410 -2.8086  0.4587  1.4524
  813MOL0     H 9722   8.723   4.411   8.459  1.0227  1.1637  0.9077
  813MOL0     H 9723   8.647   4.464   8.695  0.5155 -1.2737  0.0856
  813MOL0     H 9724   8.485   4.463   8.632  0.8571  0.2833  0.9214
  813MOL0     H 9725   8.510   4.229   8.559  0.1465  1.8709  0.2231
  813MOL0     H 9726   8.500   4.249   8.735  0.0233 -0.5036  0.6361
  813MOL0     H 9727   8.777   4.264   8.713  1.6575  0.1053 -1.7339
  813MOL0     H 9728   8.741   4.197   8.555 -1.5950 -2.5775 -0.7402
  813MOL0     H 9729   8.732   4.035   8.814  1.9318 -2.3085 -1.6439
  813MOL0     H 9730   8.598   4.029   8.695 -1.2457  2.2386  0.6166
  813MOL0     H 9731   8.780   3.995   8.522 -2.5995  1.7036  0.9828
  813MOL0     H 9732   8.764   3.874   8.650 -1.8381  0.6508  1.3609
  813MOL0     H 9733   8.998   4.088   8.635  2.9183 -0.8619  0.3616
  813MOL0     H 9734   8.963   3.983   8.772  2.5289  0.6457 -0.9597
  813MOL0     H 9735   8.694   4.685   8.813 -0.3402 -0.6068  0.2191
  813MOL0     H 9736   8.578   4.845   8.949  0.2195  0.9447  0.8743
  813MOL0     H 9737   8.247   5.096   9.197  0.8744  1.7006  1.3072
  813MOL0     H 9738   8.068   5.275   9.246  2.5703 -0.4361  0.8470
  813MOL0     H 9739   6.927   5.883   9.023 -0.0178 -2.6261  1.1535
  813MOL0     H 9740   6.866   6.070   9.171  0.1996  1.4361 -1.2195
  813MOL0     H 9741   6.638   6.317   9.427 -1.6433 -0.0514  2.6155
  813MOL0     H 9742   6.592   6.470   9.591  1.0056  0.3682 -0.5335
  813MOL0     H 9743   6.538   6.671   9.725 -0.5824 -0.7031  3.0218
  813MOL0     H 9744   6.412   6.557   9.707  1.3151 -0.1337 -1.4333
  813MOL0     H 9745   6.388   6.855   9.735 -1.0551 -0.9721 -2.4239
  813MOL0     H 9746   6.405   6.745   9.881  1.5994 -0.7486 -1.0751
  813MOL0     H 9747   6.207   6.633   9.836  2.4782 -2.2246 -3.1088
  813MOL0     H 9748   6.164   6.748   9.711 -0.9518 -2.2296  0.4657
  813MOL0     H 9749   6.197   6.823  10.009 -1.4416  0.0872 -0.0324
  813MOL0     H 9750   6.149   6.929   9.867 -0.1528 -0.5626 -1.4546
  813MOL0     H 9751   5.805   6.702   9.960  1.3330 -3.2401 -3.2712
  813MOL0     H 9752   6.345   6.694   9.325  3.3879  2.7198 -0.3349
  813MOL0     H 9753   6.496   6.570   9.022 -0.9439 -0.8203  0.4091
  813MOL0     H 9754   6.338   6.495   9.048  0.8922 -0.9885 -1.1067
  813MOL0     H 9755   6.376   6.654   9.089 -2.3293 -1.0603 -3.0786
  814MOL0     O 9756   4.769   7.295   7.343 -0.1137 -0.8752  0.6890
  814MOL0     C 9757   4.776   7.303   7.215 -0.3279  0.4981 -0.4070
  814MOL0     O 9758   4.812   7.409   7.145  0.0705 -0.0791 -0.0972
  814MOL0     C 9759   4.923   7.469   7.184 -0.7151 -0.2283  0.7431
  814MOL0     C 9760   4.924   7.606   7.159 -0.0967  0.4773  0.5567
  814MOL0     C 9761   5.028   7.688   7.196  0.3937  0.0096  0.2232
  814MOL0     C 9762   5.141   7.626   7.262 -0.2035 -0.0868  1.4555
  814MOL0     O 9763   5.243   7.710   7.304 -0.4030  0.3844 -0.1934
  814MOL0     C 9764   5.377   7.645   7.337  0.0609  1.1553 -0.8168
  814MOL0     C 9765   5.463   7.705   7.220  0.2951  0.2869 -0.9131
  814MOL0     C 9766   5.606   7.651   7.217  0.3621 -0.9001 -0.5164
  814MOL0     C 9767   5.705   7.733   7.313  0.5016  0.2057 -0.4372
  814MOL0     C 9768   5.722   7.875   7.270  0.6394 -0.0810 -0.0317
  814MOL0     C 9769   5.848   7.940   7.339  0.1970 -0.0588  0.0521
  814MOL0     C 9770   5.981   7.893   7.281 -0.1060  0.3006  1.2225
  814MOL0     C 9771   5.989   7.902   7.125  0.2194  0.3183  0.3886
  814MOL0     N 9772   5.963   7.772   7.056 -0.1280 -0.6300  0.5904
  814MOL0     C 9773   6.025   7.654   7.093 -0.1847  0.3157 -1.1410
  814MOL0     C 9774   5.957   7.558   7.020 -1.0023  0.3799  0.7997
  814MOL0     C 9775   5.991   7.414   6.998  0.8889  0.3423 -0.3686
  814MOL0     C 9776   5.884   7.326   6.933 -0.0720  0.8906 -0.4303
  814MOL0     C 9777   5.860   7.368   6.782 -0.2393 -0.5811 -0.3057
  814MOL0     C 9778   5.877   7.247   6.683 -0.3677  0.2364  0.1400
  814MOL0     O 9779   6.012   7.195   6.685  0.0096  0.2388 -0.3839
  814MOL0     C 9780   6.049   7.124   6.580 -0.2032  0.3524  0.2278
  814MOL0     C 9781   6.174   7.162   6.537 -0.7699 -0.0526  1.0343
  814MOL0     C 9782   6.239   7.084   6.440 -0.1848 -0.1126 -0.3876
  814MOL0     C 9783   6.175   6.977   6.372 -0.2070 -0.7372  0.3303
  814MOL0     C 9784   6.228   6.905   6.255 -0.1659 -0.7453  0.5865
  814MOL0     O 9785   6.132   6.877   6.161 -0.2244 -0.5062 -0.8638
  814MOL0     C 9786   6.163   6.814   6.040 -0.0238  0.3366 -0.2115
  814MOL0     C 9787   6.084   6.702   5.999 -0.9516  0.4490 -0.9014
  814MOL0     C 9788   6.143   6.615   5.893  0.1868 -1.0370 -0.0081
  814MOL0     C 9789   6.251   6.650   5.817 -0.0010 -1.2915  0.6518
  814MOL0     O 9790   6.298   6.576   5.711  1.0816 -0.0948  0.3378
  814MOL0     C 9791   6.328   6.642   5.593 -0.2319 -0.0063  0.1369
  814MOL0     C 9792   6.362   6.566   5.470 -0.2657  0.2655  0.2708
  814MOL0     C 9793   6.514   6.519   5.464 -0.2174  0.1362 -0.1834
  814MOL0     C 9794   6.550   6.447   5.336 -0.5394  0.0148 -0.2079
  814MOL0     C 9795   6.708   6.404   5.318 -0.7909 -0.2022 -0.1018
  814MOL0     C 9796   6.751   6.403   5.167  0.7965 -0.2760  0.6056
  814MOL0     C 9797   6.680   6.293   5.088 -0.6216  0.4170  0.6727
  814MOL0     C 9798   6.716   6.287   4.936  0.3119  0.1024 -0.4131
  814MOL0    Cl 9799   6.851   6.183   4.899  0.4587  0.0625 -0.1669
  814MOL0     C 9800   6.319   6.776   5.855  0.4206 -0.3052  0.8722
  814MOL0     C 9801   6.271   6.853   5.966 -0.4877 -0.3211  0.6268
  814MOL0     O 9802   6.349   6.870   6.252 -0.8814 -0.2949 -0.5731
  814MOL0     C 9803   6.039   6.952   6.409 -0.1822  0.2648  0.3601
  814MOL0     C 9804   5.972   7.029   6.513 -0.5460 -0.2895  0.0342
  814MOL0     N 9805   5.877   7.626   6.941 -0.7140 -0.8318  0.0274
  814MOL0     N 9806   5.865   7.750   6.971  0.4679 -0.3130  1.7092
  814MOL0     C 9807   5.135   7.486   7.283  0.1473 -0.4236 -0.3158
  814MOL0     C 9808   5.036   7.405   7.233  0.9254 -0.1218 -1.5278
  814MOL0     C 9809   4.685   7.209   7.145 -0.7153 -0.2989  0.0363
  814MOL0     C 9810   4.638   7.248   7.024  0.2294 -0.5103  0.5332
  814MOL0     C 9811   4.569   7.167   6.938 -0.1049 -0.6428 -0.7251
  814MOL0     C 9812   4.545   7.031   6.964 -0.0088 -0.4636  0.1960
  814MOL0     O 9813   4.459   6.951   6.899 -0.3121  0.7891  0.5907
  814MOL0     C 9814   4.430   6.988   6.759 -0.0115  0.4612 -0.5307
  814MOL0     C 9815   4.383   6.864   6.675 -0.2386  0.5975  0.2374
  814MOL0     C 9816   4.304   6.767   6.755  0.0873  0.1685 -0.1007
  814MOL0     C 9817   4.181   6.820   6.828 -0.3029  0.1153 -0.7327
  814MOL0     C 9818   4.088   6.879   6.737  0.1125 -0.4842 -1.5629
  814MOL0     C 9819   3.998   6.926   6.677 -0.0436  0.6904  0.2063
  814MOL0     C 9820   4.605   6.980   7.081 -0.9862 -0.7286 -0.0778
  814MOL0     C 9821   4.677   7.066   7.173  0.2570  0.3568  0.3228
  814MOL0     C 9822   4.727   7.007   7.302 -0.0619 -0.4253 -0.1648
  814MOL0     H 9823   4.845   7.650   7.098  2.0106  0.1765 -2.6426
  814MOL0     H 9824   5.022   7.792   7.168  2.5446  0.9626  2.8861
  814MOL0     H 9825   5.409   7.676   7.437 -1.3708 -1.2322  0.4724
  814MOL0     H 9826   5.387   7.536   7.334  1.3249  1.1003  2.0672
  814MOL0     H 9827   5.465   7.814   7.215 -2.5321  0.4484 -0.0461
  814MOL0     H 9828   5.413   7.668   7.130  0.8897 -1.5725 -0.5238
  814MOL0     H 9829   5.655   7.669   7.120 -0.2374  1.4789 -0.4358
  814MOL0     H 9830   5.610   7.544   7.242  0.1811 -0.5190  1.2754
  814MOL0     H 9831   5.671   7.721   7.416 -2.7335 -0.9531 -1.4919
  814MOL0     H 9832   5.803   7.685   7.319  0.3516 -0.5520 -2.8689
  814MOL0     H 9833   5.727   7.900   7.164 -2.8836  2.8262  0.2590
  814MOL0     H 9834   5.633   7.933   7.297 -0.5287  0.0611 -3.7011
  814MOL0     H 9835   5.832   8.048   7.334 -0.2236 -0.1581 -1.2231
  814MOL0     H 9836   5.848   7.910   7.444 -2.6948  2.2293  0.8488
  814MOL0     H 9837   6.008   7.796   7.324  3.8874  0.4087 -0.6117
  814MOL0     H 9838   6.063   7.960   7.308  0.6909 -0.6090  1.1008
  814MOL0     H 9839   5.924   7.973   7.073 -0.5496  0.4778  1.5283
  814MOL0     H 9840   6.094   7.917   7.097 -0.8194  3.4099 -2.4011
  814MOL0     H 9841   6.104   7.643   7.166  1.4492  2.2834 -2.4823
  814MOL0     H 9842   6.086   7.407   6.944  1.1352  1.2304 -0.0634
  814MOL0     H 9843   6.013   7.365   7.094  4.3882  0.7937 -0.8295
  814MOL0     H 9844   5.913   7.220   6.941  1.1538  1.2705  0.5881
  814MOL0     H 9845   5.787   7.332   6.983 -1.3723 -1.5734 -2.3988
  814MOL0     H 9846   5.935   7.437   6.744 -0.5595  0.0393  0.1798
  814MOL0     H 9847   5.762   7.416   6.776 -0.8051 -1.0009  3.1571
  814MOL0     H 9848   5.860   7.270   6.577 -1.6057 -2.7374 -0.3973
  814MOL0     H 9849   5.805   7.171   6.713 -0.8954  1.4549  2.0994
  814MOL0     H 9850   6.220   7.247   6.587  1.3244 -0.1146 -0.6600
  814MOL0     H 9851   6.339   7.103   6.404 -0.4325 -0.5978 -1.3756
  814MOL0     H 9852   5.990   6.687   6.052 -0.5738 -1.3601 -0.7046
  814MOL0     H 9853   6.088   6.523   5.880 -0.4327 -0.6851  0.0577
  814MOL0     H 9854   6.234   6.691   5.568  1.4927  3.4027 -0.3373
  814MOL0     H 9855   6.407   6.715   5.613  1.2864 -2.2551  3.2919
  814MOL0     H 9856   6.291   6.486   5.447  0.6747  0.2537 -3.1321
  814MOL0     H 9857   6.353   6.633   5.384  4.2386  1.2947  0.3490
  814MOL0     H 9858   6.584   6.603   5.474  3.2403 -2.6899  1.8407
  814MOL0     H 9859   6.537   6.459   5.553 -1.5953  2.4874  1.8629
  814MOL0     H 9860   6.518   6.503   5.248 -1.3113 -0.5435 -0.2926
  814MOL0     H 9861   6.500   6.350   5.339 -0.5338 -0.1098 -2.5428
  814MOL0     H 9862   6.718   6.301   5.354  3.1011 -0.0279 -0.3408
  814MOL0     H 9863   6.769   6.472   5.377  0.6239 -2.6776  1.4438
  814MOL0     H 9864   6.723   6.499   5.122 -2.6828 -2.1779 -1.7290
  814MOL0     H 9865   6.853   6.365   5.168  0.2669 -1.9988  3.9040
  814MOL0     H 9866   6.573   6.317   5.082 -1.1035 -1.4369  0.9200
  814MOL0     H 9867   6.695   6.197   5.139 -0.5912 -1.0632 -1.9275
  814MOL0     H 9868   6.619   6.250   4.899 -0.2657  1.5859 -0.4288
  814MOL0     H 9869   6.730   6.390   4.902  0.6781  0.4399  0.7393
  814MOL0     H 9870   6.406   6.809   5.798 -0.0533 -2.0132 -0.9581
  814MOL0     H 9871   6.320   6.948   5.987  1.1018 -0.6442 -1.2906
  814MOL0     H 9872   5.988   6.866   6.368  0.6225 -1.6980  3.1738
  814MOL0     H 9873   5.872   6.998   6.540 -0.0160 -1.0386  1.2564
  814MOL0     H 9874   5.200   7.428   7.348 -0.0667 -1.1115 -0.7029
  814MOL0     H 9875   5.048   7.299   7.252 -2.5349 -0.3231  0.1799
  814MOL0     H 9876   4.634   7.354   7.002 -2.3989 -1.0811 -2.4135
  814MOL0     H 9877   4.517   7.208   6.852  0.3437 -0.7812 -1.0656
  814MOL0     H 9878   4.523   7.029   6.718  0.3543 -3.2395 -4.0525
  814MOL0     H 9879   4.355   7.067   6.760 -1.9652 -1.3149  0.6979
  814MOL0     H 9880   4.468   6.816   6.626 -0.3241 -1.5529  2.0525
  814MOL0     H 9881   4.319   6.903   6.595 -0.7935 -0.7470 -0.0137
  814MOL0     H 9882   4.374   6.717   6.823  0.8573  1.0976 -0.1867
  814MOL0     H 9883   4.284   6.694   6.676  1.4607 -4.8829  3.7210
  814MOL0     H 9884   4.129   6.744   6.887  1.7081  2.2972  4.4889
  814MOL0     H 9885   4.208   6.899   6.899  1.4976 -0.1697 -1.0492
  814MOL0     H 9886   3.910   6.965   6.631  1.9603  1.1869 -3.5895
  814MOL0     H 9887   4.607   6.873   7.099  0.1137 -0.7456 -0.2386
  814MOL0     H 9888   4.736   6.899   7.305 -0.3213 -0.5209 -1.9692
  814MOL0     H 9889   4.822   7.055   7.326  0.8137 -2.5442  0.8148
  814MOL0     H 9890   4.651   7.029   7.378  1.6410 -0.8750  1.7231
  815MOL0     O 9891   0.091   8.738   7.931  0.0512  0.1348  0.6033
  815MOL0     C 9892  -0.010   8.796   7.976  0.5283 -0.4477  0.3022
  815MOL0     O 9893  -0.056   8.778   8.101 -0.5624 -0.2157  0.0036
  815MOL0     C 9894  -0.009   8.694   8.194  1.6088 -0.1139  1.1156
  815MOL0     C 9895  -0.106   8.658   8.287 -0.0162  0.0929 -0.1947
  815MOL0     C 9896  -0.081   8.565   8.386  0.0597 -0.3169  0.9844
  815MOL0     C 9897   0.042   8.501   8.383  0.5102 -0.1580 -1.2509
  815MOL0     O 9898   0.056   8.399   8.467 -0.7205 -0.4780  0.2008
  815MOL0     C 9899   0.183   8.348   8.513  0.8596  0.6048  0.2514
  815MOL0     C 9900   0.155   8.237   8.602 -0.1543  0.0530  0.4951
  815MOL0     C 9901   0.275   8.139   8.618 -0.0222 -0.1763 -0.1034
  815MOL0     C 9902   0.400   8.219   8.664  0.7968 -0.2967  0.7662
  815MOL0     C 9903   0.521   8.121   8.671  0.7266  0.2213  0.2941
  815MOL0     C 9904   0.652   8.189   8.713  0.8819  0.0644 -0.1363
  815MOL0     C 9905   0.757   8.085   8.705  0.5914 -0.9342  0.4788
  815MOL0     C 9906   0.894   8.122   8.759  0.3824 -0.0014 -0.8182
  815MOL0     N 9907   0.886   8.157   8.905  0.2205 -0.2714  0.1923
  815MOL0     C 9908   0.922   8.077   9.013 -0.4688  0.2965  0.4444
  815MOL0     C 9909   0.931   8.154   9.122 -0.7409 -0.8076  0.4206
  815MOL0     C 9910   0.979   8.110   9.258  0.3146  0.3759  0.8410
  815MOL0     C 9911   1.110   8.179   9.309 -0.2040  0.2033 -0.2113
  815MOL0     C 9912   1.174   8.112   9.436  0.9414 -0.2510 -1.4236
  815MOL0     C 9913   1.100   8.155   9.560 -0.8685  0.1483  0.3108
  815MOL0     O 9914   1.140   8.092   9.679  0.9852 -0.0008  0.9829
  815MOL0     C 9915   1.274   8.103   9.709 -0.4063 -0.1170  0.4457
  815MOL0     C 9916   1.362   8.213   9.673  0.3426  0.2964 -0.2155
  815MOL0     C 9917   1.498   8.221   9.713 -0.1733  0.5551 -0.6384
  815MOL0     C 9918   1.538   8.143   9.816  0.7918  0.3305  0.2892
  815MOL0     C 9919   1.664   8.178   9.892  0.2156  0.6997 -0.7978
  815MOL0     O 9920   1.684   8.112  10.010  0.2514  0.0596  0.5814
  815MOL0     C 9921   1.813   8.119  10.047  0.2893 -0.5468 -0.3348
  815MOL0     C 9922   1.900   8.016  10.013  0.4339  1.7876 -0.4623
  815MOL0     C 9923   2.024   8.017  10.065 -0.3464  0.3891  0.4437
  815MOL0     C 9924   2.084   8.126  10.132 -0.5201 -1.1173 -0.4661
  815MOL0     O 9925   2.216   8.122  10.155  0.3732 -0.1065  0.0009
  815MOL0     C 9926   2.285   8.251  10.167 -0.5380  0.1724 -0.9030
  815MOL0     C 9927   2.316   8.301  10.307  0.6941 -0.5054  0.5529
  815MOL0     C 9928   2.396   8.202  10.388  0.1288 -0.0122 -0.2396
  815MOL0     C 9929   2.441   8.242  10.526  0.3832  0.3345  0.1953
  815MOL0     C 9930   2.598   8.222  10.558 -0.7311  0.0134  0.1939
  815MOL0     C 9931   2.685   8.335  10.500  0.6231  0.3712 -0.1498
  815MOL0     C 9932   2.827   8.293  10.538 -0.6146 -0.2274 -0.5090
  815MOL0     C 9933   2.924   8.410  10.549 -0.4185 -0.5204  0.0393
  815MOL0    Cl 9934   2.899   8.527  10.420 -0.0353  0.3370  0.2977
  815MOL0     C 9935   1.996   8.229  10.165  0.3296 -1.0716 -0.3115
  815MOL0     C 9936   1.861   8.221  10.123 -0.4638 -1.3295  0.3127
  815MOL0     O 9937   1.744   8.265   9.849 -0.2988 -0.1232 -0.4042
  815MOL0     C 9938   1.451   8.035   9.853 -0.0333 -0.4265 -0.6841
  815MOL0     C 9939   1.323   8.017   9.797  0.9502 -0.1206  0.5386
  815MOL0     N 9940   0.904   8.288   9.089  0.0905  0.1288 -0.3328
  815MOL0     N 9941   0.888   8.290   8.960 -0.4703  0.8776  0.5540
  815MOL0     C 9942   0.142   8.548   8.300  0.1882  0.7202 -0.1364
  815MOL0     C 9943   0.111   8.638   8.202 -0.0628  0.2858  1.1339
  815MOL0     C 9944  -0.092   8.876   7.889 -0.5703 -1.1849 -0.4440
  815MOL0     C 9945  -0.208   8.937   7.947  0.2043 -0.3508 -0.4566
  815MOL0     C 9946  -0.297   9.025   7.873  0.2687  0.9470 -0.2265
  815MOL0     C 9947  -0.263   9.056   7.744  0.4301  1.1146  0.8109
  815MOL0     O 9948  -0.347   9.140   7.673  0.2666 -0.3048  0.2150
  815MOL0     C 9949  -0.320   9.182   7.543 -0.0507 -0.5203 -0.3039
  815MOL0     C 9950  -0.434   9.275   7.484  0.4865  0.3814 -0.4427
  815MOL0     C 9951  -0.575   9.230   7.512 -0.4368  0.2327 -0.6626
  815MOL0     C 9952  -0.677   9.341   7.463 -0.6336  0.2488  0.4978
  815MOL0     C 9953  -0.819   9.313   7.502 -0.6885 -0.2075 -0.4559
  815MOL0     C 9954  -0.927   9.316   7.567 -0.5096  0.2562  0.1433
  815MOL0     C 9955  -0.147   8.994   7.689 -0.4707  0.4141  1.2356
  815MOL0     C 9956  -0.055   8.918   7.757  0.1579 -0.6959 -1.2618
  815MOL0     C 9957   0.060   8.858   7.686 -0.3704  0.3261 -0.0627
  815MOL0     H 9958  -0.201   8.709   8.297 -0.6713 -1.1196 -0.0385
  815MOL0     H 9959  -0.157   8.543   8.459 -2.0356  4.5667  0.6891
  815MOL0     H 9960   0.223   8.294   8.427 -1.0844  0.8890 -0.9015
  815MOL0     H 9961   0.248   8.425   8.554  1.2749 -0.1245  1.0028
  815MOL0     H 9962   0.063   8.189   8.567  0.0737  0.8678 -1.3179
  815MOL0     H 9963   0.142   8.276   8.703 -0.8935 -1.4471  1.0120
  815MOL0     H 9964   0.299   8.086   8.525  0.2393  0.2293 -0.2717
  815MOL0     H 9965   0.247   8.059   8.687 -0.2824  1.5230  1.8375
  815MOL0     H 9966   0.428   8.301   8.596 -0.8348  1.0265  1.6142
  815MOL0     H 9967   0.367   8.252   8.762 -5.2053 -4.1523  0.5640
  815MOL0     H 9968   0.492   8.055   8.753 -4.2761  0.9195 -0.5419
  815MOL0     H 9969   0.531   8.068   8.576  0.6203  0.7807 -0.0357
  815MOL0     H 9970   0.675   8.274   8.648 -0.2657 -1.0442 -2.1073
  815MOL0     H 9971   0.631   8.226   8.814 -2.3718  0.1690 -0.7386
  815MOL0     H 9972   0.762   8.038   8.607 -2.2907  0.8074 -0.6184
  815MOL0     H 9973   0.726   8.020   8.787 -0.0276  1.3767  2.1990
  815MOL0     H 9974   0.967   8.041   8.760 -0.7430 -1.0636 -0.1539
  815MOL0     H 9975   0.929   8.204   8.696 -1.1203  0.2433 -1.3914
  815MOL0     H 9976   0.962   7.978   8.996  1.5827  0.9064  1.3689
  815MOL0     H 9977   0.895   8.128   9.327 -0.5167  1.9107 -0.4834
  815MOL0     H 9978   0.999   8.005   9.239  0.3702  0.8949 -2.6437
  815MOL0     H 9979   1.192   8.164   9.238  0.3456 -1.5406  0.7046
  815MOL0     H 9980   1.094   8.284   9.332 -0.1699 -0.3583  2.8798
  815MOL0     H 9981   1.275   8.153   9.446 -0.8363  4.2221  1.1007
  815MOL0     H 9982   1.178   8.004   9.422  1.0837 -0.7753  1.8963
  815MOL0     H 9983   0.999   8.130   9.527 -0.0788  2.1133 -4.4890
  815MOL0     H 9984   1.112   8.263   9.575  1.7370  0.4078 -2.5106
  815MOL0     H 9985   1.331   8.283   9.597  1.4623  2.1011  0.9236
  815MOL0     H 9986   1.563   8.302   9.682  0.5413  0.5187  0.7051
  815MOL0     H 9987   1.874   7.936   9.945 -1.7498  2.4865 -0.5224
  815MOL0     H 9988   2.090   7.940  10.027 -1.9351 -1.5053  1.2851
  815MOL0     H 9989   2.384   8.247  10.121 -0.1524  1.5070 -0.2524
  815MOL0     H 9990   2.236   8.328  10.107 -1.5958 -1.1489 -1.7981
  815MOL0     H 9991   2.365   8.398  10.304 -1.7014  0.8106  1.0255
  815MOL0     H 9992   2.218   8.321  10.351  0.1230  1.4579 -1.4141
  815MOL0     H 9993   2.328   8.117  10.400 -0.0873  0.3258  1.1119
  815MOL0     H 9994   2.478   8.165  10.326  0.1157  1.8837 -1.4667
  815MOL0     H 9995   2.389   8.180  10.600  1.6134 -0.8742  0.0901
  815MOL0     H 9996   2.410   8.344  10.547  1.3107  0.8361 -0.7765
  815MOL0     H 9997   2.626   8.125  10.515 -2.6029 -0.1217 -0.8415
  815MOL0     H 9998   2.605   8.213  10.666 -0.4586 -0.7733  0.1174
  815MOL0     H 9999   2.676   8.338  10.391 -0.8811 -2.5976 -0.1981
  815MOL0     H10000   2.651   8.430  10.543  2.0125  1.3101 -1.0151
  815MOL0     H10001   2.869   8.225  10.464  1.0280  1.6591 -1.4002
  815MOL0     H10002   2.827   8.256  10.641  0.0755  0.1493 -0.3720
  815MOL0     H10003   2.920   8.465  10.643  0.0966 -0.7174  0.1830
  815MOL0     H10004   3.026   8.369  10.555 -0.2297 -0.4745 -2.0617
  815MOL0     H10005   2.019   8.311  10.232  1.3361  1.3172 -3.3388
  815MOL0     H10006   1.799   8.302  10.159  1.2425  0.9002 -1.5024
  815MOL0     H10007   1.478   7.972   9.937  0.7530 -0.4165 -0.9249
  815MOL0     H10008   1.258   7.946   9.846  2.2826 -0.4302  1.9556
  815MOL0     H10009   0.243   8.516   8.323 -0.7608 -1.4540  1.2223
  815MOL0     H10010   0.194   8.663   8.136  0.2702 -0.4412  1.2661
  815MOL0     H10011  -0.243   8.910   8.046  0.2975  0.6243 -0.1487
  815MOL0     H10012  -0.384   9.068   7.921  0.6452  0.9689  0.4430
  815MOL0     H10013  -0.299   9.087   7.492  4.8334  0.1687 -0.0522
  815MOL0     H10014  -0.224   9.232   7.526  0.0268 -1.3084 -2.5647
  815MOL0     H10015  -0.415   9.292   7.378 -2.4446  1.5366 -0.8825
  815MOL0     H10016  -0.420   9.377   7.523 -1.1615  1.2573 -1.9964
  815MOL0     H10017  -0.594   9.209   7.617  0.3191 -0.3402 -0.6265
  815MOL0     H10018  -0.595   9.138   7.457  0.6169 -0.9545  0.8402
  815MOL0     H10019  -0.645   9.437   7.505  0.0690 -0.6093  2.0295
  815MOL0     H10020  -0.675   9.333   7.354  2.6843 -0.1151  0.4674
  815MOL0     H10021  -1.013   9.310   7.631  0.5600  2.5155  1.9041
  815MOL0     H10022  -0.121   9.023   7.588 -3.0781 -1.3413 -0.0563
  815MOL0     H10023   0.072   8.890   7.582  0.0476  2.7770  0.6769
  815MOL0     H10024   0.153   8.870   7.742 -1.3306 -0.7707  1.8680
  815MOL0     H10025   0.052   8.749   7.686  2.8118 -0.0797  2.8467
  816MOL0     O10026   4.998  11.324   8.855  0.2031 -0.6052  0.7662
  816MOL0     C10027   4.931  11.329   8.750 -0.2106 -0.2472 -0.4441
  816MOL0     O10028   4.924  11.446   8.669 -0.4033  0.7021  0.4216
  816MOL0     C10029   4.986  11.560   8.709  0.9260 -0.0022 -0.3563
  816MOL0     C10030   5.107  11.583   8.782 -0.9720  0.1968  0.0880
  816MOL0     C10031   5.146  11.718   8.809  0.7489  0.6824 -0.0419
  816MOL0     C10032   5.079  11.829   8.746 -0.8416 -0.3336  0.0713
  816MOL0     O10033   5.118  11.963   8.755  0.0754 -0.1240 -0.2207
  816MOL0     C10034   5.140  12.007   8.887  0.3539  0.0580  0.7707
  816MOL0     C10035   5.058  12.135   8.914 -1.0312  0.0804 -0.0851
  816MOL0     C10036   5.094  12.254   8.828  0.4684  0.0759 -1.1394
  816MOL0     C10037   5.030  12.388   8.894 -0.3964  0.2494  0.2698
  816MOL0     C10038   5.039  12.523   8.815 -0.9342 -0.2086 -0.4927
  816MOL0     C10039   5.177  12.585   8.814 -0.8416 -1.3276  0.2974
  816MOL0     C10040   5.219  12.643   8.950 -0.2092  0.8410  1.0460
  816MOL0     C10041   5.327  12.742   8.929  0.6661  0.2432 -0.7039
  816MOL0     N10042   5.380  12.788   9.062 -0.5848 -0.0673  0.6324
  816MOL0     C10043   5.333  12.895   9.139  0.3561 -0.4949 -0.0559
  816MOL0     C10044   5.396  12.881   9.259  0.7242  0.0825  0.8345
  816MOL0     C10045   5.396  12.960   9.377 -0.7421 -0.1164 -0.3794
  816MOL0     C10046   5.462  13.101   9.376  0.3227 -1.2354  0.0463
  816MOL0     C10047   5.614  13.102   9.351  0.6572 -0.3588  0.0227
  816MOL0     C10048   5.672  13.249   9.326  0.4618  0.7129 -0.1740
  816MOL0     O10049   5.661  13.330   9.444 -0.2137 -0.5081 -0.1678
  816MOL0     C10050   5.779  13.396   9.470  0.1485  0.3632  0.4712
  816MOL0     C10051   5.906  13.331   9.488 -0.6841  0.3537  0.3645
  816MOL0     C10052   6.020  13.404   9.517  0.4908  1.0164  0.4566
  816MOL0     C10053   6.014  13.542   9.535  0.4272  0.2416  0.2536
  816MOL0     C10054   6.121  13.623   9.578 -0.6841  0.7064 -0.8741
  816MOL0     O10055   6.094  13.744   9.647  0.2686  0.2230 -0.0872
  816MOL0     C10056   6.194  13.823   9.709  0.1676  0.1199  0.9601
  816MOL0     C10057   6.221  13.821   9.839 -0.3274  0.6358 -0.0504
  816MOL0     C10058   6.321  13.907   9.896  0.2490  0.2957  1.0175
  816MOL0     C10059   6.398  14.005   9.819 -0.0237 -0.1261  0.8838
  816MOL0     O10060   6.495  14.093   9.856 -0.5484  0.0608  0.4894
  816MOL0     C10061   6.532  14.094   9.999  0.0982  0.4541  0.2469
  816MOL0     C10062   6.623  14.218  10.022 -0.0415  0.5248  1.0709
  816MOL0     C10063   6.640  14.251  10.173  0.2877 -1.6329 -0.3190
  816MOL0     C10064   6.701  14.396  10.184 -0.4772  0.1499 -0.6541
  816MOL0     C10065   6.716  14.459  10.327  0.1063  1.2084 -0.5204
  816MOL0     C10066   6.812  14.569  10.325 -0.8496 -0.5111 -0.5509
  816MOL0     C10067   6.873  14.607  10.464 -0.3050 -0.4522 -0.0615
  816MOL0     C10068   6.882  14.758  10.483 -0.6208  0.1132  0.2797
  816MOL0    Cl10069   7.024  14.828  10.399 -0.2854  0.8793 -0.4038
  816MOL0     C10070   6.357  14.003   9.682 -0.7651  0.4277  0.1710
  816MOL0     C10071   6.267  13.912   9.629 -0.3370  0.2186 -0.5438
  816MOL0     O10072   6.236  13.584   9.549  0.0982 -0.1127  0.5906
  816MOL0     C10073   5.894  13.612   9.511  0.6276  0.6407 -0.9033
  816MOL0     C10074   5.776  13.533   9.483 -0.8290 -0.0327  0.6649
  816MOL0     N10075   5.459  12.761   9.258  0.4986  0.2935  0.7961
  816MOL0     N10076   5.449  12.711   9.145 -0.4399  1.0349 -0.8859
  816MOL0     C10077   4.973  11.801   8.661 -0.3333  0.5313  0.2472
  816MOL0     C10078   4.920  11.679   8.653  1.1992 -0.9715  0.0360
  816MOL0     C10079   4.853  11.206   8.719  0.2512 -0.5836 -0.2680
  816MOL0     C10080   4.855  11.098   8.807 -0.9958 -0.9935 -1.1881
  816MOL0     C10081   4.797  10.978   8.776 -0.0236 -0.5102  0.7342
  816MOL0     C10082   4.716  10.950   8.662 -0.2001 -0.1229 -0.0627
  816MOL0     O10083   4.648  10.826   8.638 -0.2420 -0.5906  0.5208
  816MOL0     C10084   4.664  10.722   8.740  0.3927 -0.2459  1.2535
  816MOL0     C10085   4.582  10.592   8.693 -0.2721 -0.2904 -0.4809
  816MOL0     C10086   4.429  10.602   8.728  0.1148 -0.9509  0.6240
  816MOL0     C10087   4.360  10.743   8.691  0.6179 -0.0779 -0.1932
  816MOL0     C10088   4.214  10.729   8.707 -0.5609  0.4928 -0.3610
  816MOL0     C10089   4.096  10.742   8.749  0.5433  0.8605  0.4743
  816MOL0     C10090   4.718  11.060   8.569  0.5221 -0.0562 -0.7803
  816MOL0     C10091   4.785  11.185   8.591  0.3596  0.4845 -0.2746
  816MOL0     C10092   4.799  11.274   8.481 -0.5294 -1.0644  1.1590
  816MOL0     H10093   5.164  11.507   8.835  1.3957  1.3257 -0.7321
  816MOL0     H10094   5.236  11.731   8.868  2.1564 -2.1067 -1.3563
  816MOL0     H10095   5.117  11.928   8.959  3.2780 -2.7749 -1.1426
  816MOL0     H10096   5.249  12.013   8.900  0.4058 -0.3033  0.5066
  816MOL0     H10097   5.066  12.144   9.023 -1.4305 -2.5198  0.2278
  816MOL0     H10098   4.952  12.117   8.891 -0.8981  0.1332 -0.7530
  816MOL0     H10099   5.057  12.231   8.728 -1.1377  2.1730 -1.1147
  816MOL0     H10100   5.201  12.264   8.809  0.9017 -0.5298  0.7573
  816MOL0     H10101   4.929  12.350   8.908  0.2494 -1.8302 -0.2925
  816MOL0     H10102   5.072  12.408   8.993 -3.1274 -1.9527  2.0171
  816MOL0     H10103   5.004  12.520   8.712 -0.9507 -0.6838 -0.4722
  816MOL0     H10104   4.981  12.602   8.863  1.4981  1.2598  0.2264
  816MOL0     H10105   5.254  12.513   8.784 -0.9682 -1.7221  0.8896
  816MOL0     H10106   5.185  12.668   8.743  3.9229  0.9843  2.9777
  816MOL0     H10107   5.253  12.567   9.020  1.4367  0.4894 -0.0713
  816MOL0     H10108   5.132  12.692   8.996 -2.0309  0.9076 -2.1907
  816MOL0     H10109   5.414  12.699   8.879  2.4464  1.4233  1.2314
  816MOL0     H10110   5.290  12.820   8.862 -2.7097  0.3079  1.0365
  816MOL0     H10111   5.260  12.974   9.130 -0.0402 -0.5439  2.2525
  816MOL0     H10112   5.294  12.958   9.414 -1.5030  1.5198 -2.2006
  816MOL0     H10113   5.450  12.904   9.453 -0.5551  1.3738  0.6195
  816MOL0     H10114   5.401  13.152   9.301 -1.3852 -0.9529  1.5490
  816MOL0     H10115   5.454  13.144   9.476 -3.1422 -1.4808 -0.0102
  816MOL0     H10116   5.638  13.042   9.263 -1.2072 -1.0448 -0.0674
  816MOL0     H10117   5.655  13.054   9.441  0.1040 -0.5816  0.1634
  816MOL0     H10118   5.607  13.287   9.247 -0.5416  0.7104  0.6261
  816MOL0     H10119   5.775  13.248   9.290  1.5687 -0.2280  2.7280
  816MOL0     H10120   5.914  13.224   9.473  3.6618  0.6752 -0.9413
  816MOL0     H10121   6.112  13.352   9.537 -0.4421 -0.9818 -0.2316
  816MOL0     H10122   6.158  13.762   9.904  1.3829 -2.6258 -1.1305
  816MOL0     H10123   6.330  13.895  10.003  1.6755  0.9781  0.9942
  816MOL0     H10124   6.441  14.104  10.059  0.6725 -2.2107  1.6982
  816MOL0     H10125   6.589  14.005  10.026  0.0965  0.3098 -0.2193
  816MOL0     H10126   6.725  14.192   9.994  0.0238  0.2261  1.5672
  816MOL0     H10127   6.591  14.302   9.960 -1.2150 -2.3787 -2.6132
  816MOL0     H10128   6.551  14.233  10.234  2.0655 -0.5587  2.7827
  816MOL0     H10129   6.717  14.182  10.211 -0.8604 -3.3192 -0.9227
  816MOL0     H10130   6.635  14.467  10.133 -2.7202 -0.7636  0.8036
  816MOL0     H10131   6.797  14.398  10.132 -0.5006  0.8103 -0.6792
  816MOL0     H10132   6.744  14.382  10.400 -4.1843 -0.5783 -0.4540
  816MOL0     H10133   6.616  14.493  10.355 -0.6354 -0.6725 -0.7075
  816MOL0     H10134   6.894  14.555  10.254 -0.5589 -2.0804  0.0618
  816MOL0     H10135   6.757  14.657  10.290  0.4351  0.7248  0.4161
  816MOL0     H10136   6.972  14.563  10.479  0.7360  2.6631  4.3366
  816MOL0     H10137   6.810  14.577  10.549 -0.7597  3.5073  1.2406
  816MOL0     H10138   6.789  14.809  10.454 -0.8633  0.4513  1.6027
  816MOL0     H10139   6.887  14.771  10.591 -2.0149  1.9585  0.1829
  816MOL0     H10140   6.423  14.061   9.618  0.2247  0.7451  1.4406
  816MOL0     H10141   6.236  13.913   9.525 -1.2353  0.6242 -0.2831
  816MOL0     H10142   5.882  13.720   9.512 -0.6344  0.6166  3.3896
  816MOL0     H10143   5.675  13.575   9.485 -0.8828 -0.1643  2.5505
  816MOL0     H10144   4.933  11.885   8.605  2.9859  1.8322 -0.4369
  816MOL0     H10145   4.823  11.665   8.605 -0.1403 -3.9416  3.1745
  816MOL0     H10146   4.911  11.106   8.900 -1.0732 -1.0639 -1.1359
  816MOL0     H10147   4.797  10.911   8.862 -1.7471 -1.3461  0.1408
  816MOL0     H10148   4.632  10.764   8.836 -0.4707  2.4230 -0.0996
  816MOL0     H10149   4.771  10.702   8.753  0.2450  0.0915  3.2938
  816MOL0     H10150   4.635  10.511   8.744 -1.2853 -1.8303 -1.7721
  816MOL0     H10151   4.586  10.580   8.585 -0.5299 -1.6859 -0.3483
  816MOL0     H10152   4.415  10.582   8.835  0.6091 -0.1294  0.8500
  816MOL0     H10153   4.380  10.528   8.665  2.4158 -1.0723 -1.1297
  816MOL0     H10154   4.392  10.818   8.765 -0.3709  1.3034 -1.1079
  816MOL0     H10155   4.388  10.774   8.590  2.5399 -1.4144 -0.1361
  816MOL0     H10156   3.999  10.753   8.793  0.4684  0.0019  0.5392
  816MOL0     H10157   4.662  11.047   8.477 -2.2637 -0.0226  0.8172
  816MOL0     H10158   4.905  11.296   8.466 -1.5314  4.5703  0.0656
  816MOL0     H10159   4.760  11.233   8.388 -0.2984  1.3579 -0.0820
  816MOL0     H10160   4.752  11.370   8.505  0.0252 -0.4838  0.0364
  817MOL0     O10161   5.711   3.304   3.050 -0.4927 -0.1322 -0.6038
  817MOL0     C10162   5.644   3.286   3.151  0.8209  0.9273  0.2809
  817MOL0     O10163   5.551   3.180   3.160 -0.7641  0.6781 -0.2127
  817MOL0     C10164   5.536   3.080   3.065 -0.0628 -0.2364  0.1097
  817MOL0     C10165   5.641   3.005   3.013 -0.4508  0.4808  0.2498
  817MOL0     C10166   5.612   2.900   2.921  0.0391  0.6972 -0.5068
  817MOL0     C10167   5.479   2.868   2.879  0.0609 -0.0419  0.0007
  817MOL0     O10168   5.463   2.771   2.786  0.1255  0.3592  0.6491
  817MOL0     C10169   5.341   2.700   2.785  0.6695 -0.2935  1.0148
  817MOL0     C10170   5.358   2.579   2.679 -0.1805  0.0533 -0.9321
  817MOL0     C10171   5.218   2.508   2.663 -0.0453 -0.0540  0.3426
  817MOL0     C10172   5.230   2.365   2.611  0.6236 -0.5056  0.0826
  817MOL0     C10173   5.082   2.302   2.593 -0.1270 -0.2239  0.1810
  817MOL0     C10174   4.991   2.296   2.719  0.0281 -0.5406  0.3493
  817MOL0     C10175   4.855   2.250   2.691 -0.2225 -0.7986  0.6294
  817MOL0     C10176   4.770   2.339   2.599  1.3495  0.7294  0.0750
  817MOL0     N10177   4.730   2.455   2.672 -1.1237 -0.1477  0.7109
  817MOL0     C10178   4.623   2.470   2.752  1.0077 -0.0247 -0.2806
  817MOL0     C10179   4.624   2.605   2.786 -0.2387 -0.4143  0.4754
  817MOL0     C10180   4.540   2.691   2.880 -0.9503  0.2170  0.4919
  817MOL0     C10181   4.477   2.616   2.997 -0.5715  0.7393 -0.6867
  817MOL0     C10182   4.565   2.607   3.115  0.2233 -0.2682 -0.9351
  817MOL0     C10183   4.701   2.559   3.085 -0.6276  0.1800 -0.2555
  817MOL0     O10184   4.785   2.565   3.208 -0.4091  0.3594  0.3794
  817MOL0     C10185   4.902   2.492   3.225 -0.2807 -0.3968  0.1721
  817MOL0     C10186   4.946   2.469   3.356  0.1304 -0.5134  0.5637
  817MOL0     C10187   5.061   2.404   3.379  0.1297 -0.6261 -0.1662
  817MOL0     C10188   5.139   2.351   3.279 -0.0414 -0.6981  0.1239
  817MOL0     C10189   5.266   2.288   3.315  0.1924  0.5546 -0.1707
  817MOL0     O10190   5.335   2.350   3.410 -0.6490  0.6002 -0.3108
  817MOL0     C10191   5.466   2.306   3.431 -0.1948 -0.1526  0.3539
  817MOL0     C10192   5.575   2.372   3.367  0.2246 -0.6901  1.0132
  817MOL0     C10193   5.709   2.329   3.388  0.4303 -0.5790 -0.4190
  817MOL0     C10194   5.724   2.224   3.481 -0.2675 -0.2244  0.1646
  817MOL0     O10195   5.853   2.172   3.491 -0.3692 -0.5215  0.2918
  817MOL0     C10196   5.886   2.091   3.379 -0.2912  0.5926  0.6708
  817MOL0     C10197   6.030   2.032   3.366  0.2895 -0.7219  0.5982
  817MOL0     C10198   6.050   1.972   3.225 -0.5005 -0.5724 -0.0646
  817MOL0     C10199   5.982   1.832   3.206  0.3020 -0.4397  0.3157
  817MOL0     C10200   6.083   1.722   3.175 -0.5575 -0.3226  0.3031
  817MOL0     C10201   6.158   1.666   3.293 -0.2035 -0.4685 -0.6111
  817MOL0     C10202   6.071   1.582   3.384  0.1208 -0.0782 -0.3374
  817MOL0     C10203   6.153   1.506   3.484 -0.2501  0.2901 -1.2702
  817MOL0    Cl10204   6.237   1.640   3.580  0.6329  0.0950 -0.0474
  817MOL0     C10205   5.615   2.171   3.555 -0.6671  0.6966 -0.0764
  817MOL0     C10206   5.485   2.217   3.535 -0.3826  0.3124  0.5145
  817MOL0     O10207   5.310   2.186   3.260  0.4806 -0.2026 -0.3996
  817MOL0     C10208   5.090   2.361   3.138  0.1059  0.1567 -0.1948
  817MOL0     C10209   4.968   2.423   3.118 -0.0976 -0.0356 -0.1841
  817MOL0     N10210   4.731   2.663   2.725 -0.5297 -0.5125  1.6118
  817MOL0     N10211   4.803   2.576   2.655 -0.3233  0.1804 -0.9335
  817MOL0     C10212   5.379   2.941   2.930  0.0324 -0.6934 -0.3813
  817MOL0     C10213   5.406   3.048   3.023  0.1883 -0.4602 -0.4700
  817MOL0     C10214   5.643   3.393   3.258  0.3772 -0.1134  0.3242
  817MOL0     C10215   5.649   3.363   3.389  0.7783  0.1448 -0.8187
  817MOL0     C10216   5.656   3.460   3.496  0.3417  0.2892  0.1814
  817MOL0     C10217   5.631   3.586   3.462 -0.4679 -0.4781 -1.0260
  817MOL0     O10218   5.657   3.674   3.561 -0.0124  0.2428  0.1264
  817MOL0     C10219   5.567   3.785   3.587 -0.6870 -0.1480  0.7375
  817MOL0     C10220   5.427   3.760   3.652  0.6722  0.2590  0.0891
  817MOL0     C10221   5.324   3.712   3.551  0.2074  0.4286 -1.5269
  817MOL0     C10222   5.288   3.825   3.456  0.6153 -0.6936  0.0969
  817MOL0     C10223   5.282   3.778   3.318 -0.0614 -0.1320 -0.2789
  817MOL0     C10224   5.281   3.733   3.207  0.5108  0.6921  0.4406
  817MOL0     C10225   5.616   3.621   3.330  0.5599 -0.3594 -0.0490
  817MOL0     C10226   5.630   3.534   3.223 -0.4625  0.8032 -0.4896
  817MOL0     C10227   5.618   3.585   3.083 -0.5083 -0.0819  0.8956
  817MOL0     H10228   5.743   3.020   3.046 -0.0669  0.1751 -0.7516
  817MOL0     H10229   5.692   2.838   2.882 -1.3936 -0.8632 -1.0778
  817MOL0     H10230   5.312   2.661   2.883 -1.7243 -0.7833  0.1755
  817MOL0     H10231   5.252   2.758   2.760  1.3839  0.3438 -0.1057
  817MOL0     H10232   5.438   2.513   2.711 -0.8725 -0.1504  0.4301
  817MOL0     H10233   5.384   2.612   2.577  0.8346  1.2138 -0.3258
  817MOL0     H10234   5.164   2.574   2.594  0.5558  1.2556  1.0737
  817MOL0     H10235   5.159   2.518   2.755  0.4580  0.1076  0.6529
  817MOL0     H10236   5.287   2.361   2.518 -1.4188  1.5223 -1.3505
  817MOL0     H10237   5.278   2.306   2.690  1.5879 -4.1337 -2.9250
  817MOL0     H10238   5.037   2.362   2.512 -0.6074  1.3899  1.5767
  817MOL0     H10239   5.095   2.197   2.567  3.0555 -0.0269  0.6028
  817MOL0     H10240   5.039   2.232   2.793  2.3710 -0.2708 -0.8255
  817MOL0     H10241   4.981   2.397   2.761  0.5375  0.8687 -2.6009
  817MOL0     H10242   4.815   2.220   2.788  1.4412 -2.4735  0.8566
  817MOL0     H10243   4.859   2.148   2.650  0.8256 -1.1967  1.6886
  817MOL0     H10244   4.826   2.358   2.507 -0.3229  0.8022 -0.9640
  817MOL0     H10245   4.689   2.271   2.573  1.9679 -0.4721  1.1546
  817MOL0     H10246   4.565   2.391   2.798 -1.5928  2.3117  0.7559
  817MOL0     H10247   4.594   2.782   2.909 -0.2662 -0.1057  0.2432
  817MOL0     H10248   4.450   2.726   2.828 -1.2090 -1.9832 -0.6693
  817MOL0     H10249   4.383   2.665   3.023 -1.1129  1.2621 -3.2920
  817MOL0     H10250   4.449   2.518   2.959 -1.3483  1.0832 -1.0244
  817MOL0     H10251   4.540   2.528   3.187 -0.9623  0.6440 -0.3140
  817MOL0     H10252   4.558   2.699   3.174 -1.4541 -1.0844  0.2363
  817MOL0     H10253   4.751   2.625   3.014  0.2504 -0.5886 -0.3815
  817MOL0     H10254   4.705   2.461   3.035  0.2553  0.3100 -0.4574
  817MOL0     H10255   4.882   2.496   3.439  2.4026  0.5321  2.0513
  817MOL0     H10256   5.084   2.392   3.485 -1.7804 -0.0786  0.3573
  817MOL0     H10257   5.561   2.456   3.299 -0.2590 -0.2909  1.6009
  817MOL0     H10258   5.786   2.392   3.345  0.0894  2.9533  3.5056
  817MOL0     H10259   5.821   2.003   3.385  2.6473 -1.8568 -0.6769
  817MOL0     H10260   5.865   2.135   3.281 -3.3500 -3.2155 -0.6546
  817MOL0     H10261   6.104   2.112   3.377 -0.4696 -0.1344  1.5972
  817MOL0     H10262   6.045   1.959   3.446  0.2916  1.1815  2.4425
  817MOL0     H10263   6.007   2.043   3.154  1.1353  1.7131  1.0854
  817MOL0     H10264   6.158   1.962   3.211 -0.0147  4.3010 -2.0677
  817MOL0     H10265   5.909   1.838   3.125 -0.2645 -0.3458  0.8289
  817MOL0     H10266   5.922   1.818   3.296  1.1157 -0.1174  0.9230
  817MOL0     H10267   6.158   1.755   3.102  1.1245  1.3014  2.5642
  817MOL0     H10268   6.016   1.645   3.138  0.4499  0.9090 -4.8275
  817MOL0     H10269   6.242   1.606   3.260  1.3874  1.3793 -0.1317
  817MOL0     H10270   6.186   1.754   3.353  0.9775 -1.7138  0.7535
  817MOL0     H10271   6.009   1.506   3.336  2.2160 -1.5108 -0.9194
  817MOL0     H10272   5.997   1.645   3.435 -0.7468  0.3957 -2.1276
  817MOL0     H10273   6.093   1.447   3.554  2.9497 -1.1756  0.4916
  817MOL0     H10274   6.237   1.447   3.445 -0.6260  0.0070 -1.6486
  817MOL0     H10275   5.638   2.090   3.624 -1.8716 -0.6934 -1.2343
  817MOL0     H10276   5.403   2.182   3.597  1.1274  1.9963  3.7026
  817MOL0     H10277   5.151   2.332   3.054  0.8913 -0.1357  0.4579
  817MOL0     H10278   4.936   2.448   3.017  4.8207  1.8984 -1.5397
  817MOL0     H10279   5.275   2.927   2.899 -0.3623 -1.3250  1.1660
  817MOL0     H10280   5.325   3.106   3.066  0.1597 -2.3735  2.3214
  817MOL0     H10281   5.648   3.259   3.419 -1.1545  0.3595 -0.0012
  817MOL0     H10282   5.681   3.428   3.597 -0.8878 -0.7517  0.1690
  817MOL0     H10283   5.553   3.846   3.498 -0.2497 -1.3387 -0.1745
  817MOL0     H10284   5.626   3.849   3.653  1.3768 -0.4434 -0.7317
  817MOL0     H10285   5.389   3.844   3.711 -0.3730  0.6580 -1.0899
  817MOL0     H10286   5.440   3.682   3.727  1.5532  0.9917  0.7277
  817MOL0     H10287   5.237   3.690   3.614 -1.2531  3.6954 -2.2158
  817MOL0     H10288   5.364   3.622   3.504  1.9245  0.1241  0.3498
  817MOL0     H10289   5.184   3.854   3.472  0.1262 -0.9818 -2.2339
  817MOL0     H10290   5.354   3.909   3.477  1.5481 -0.8431 -2.0762
  817MOL0     H10291   5.283   3.678   3.115  2.5673  0.1496  0.7546
  817MOL0     H10292   5.599   3.727   3.312 -0.3323 -0.9402 -3.4110
  817MOL0     H10293   5.643   3.691   3.067 -0.4316 -0.3846 -1.2599
  817MOL0     H10294   5.689   3.532   3.019  1.1086  0.2924  2.3186
  817MOL0     H10295   5.519   3.564   3.041  0.3461  2.5267 -2.9735
  818MOL0     O10296   6.496   7.774   9.907 -0.7935  0.3235 -0.0260
  818MOL0     C10297   6.431   7.685   9.856  0.3165 -0.3681  0.4311
  818MOL0     O10298   6.322   7.700   9.761 -1.4780 -0.5717  0.2968
  818MOL0     C10299   6.269   7.824   9.738  0.7822  0.3851  0.1037
  818MOL0     C10300   6.169   7.817   9.637 -0.2312  0.4576  1.5221
  818MOL0     C10301   6.113   7.942   9.596  0.4929  0.6532 -0.0556
  818MOL0     C10302   6.134   8.065   9.666 -0.1118 -0.4344  0.3831
  818MOL0     O10303   6.088   8.187   9.641  0.3044 -1.4356 -0.2038
  818MOL0     C10304   5.956   8.203   9.591  0.6017 -0.3645 -0.8095
  818MOL0     C10305   5.914   8.343   9.620 -0.2660 -0.2775 -0.1855
  818MOL0     C10306   5.767   8.360   9.600  0.1382 -0.1656  0.1825
  818MOL0     C10307   5.730   8.508   9.586 -0.6326 -0.2157  0.7053
  818MOL0     C10308   5.587   8.521   9.617  0.2203  0.4836 -0.6491
  818MOL0     C10309   5.547   8.668   9.616 -1.0344  0.1150  0.5853
  818MOL0     C10310   5.408   8.698   9.671 -0.0241 -0.4875 -0.6431
  818MOL0     C10311   5.362   8.839   9.657 -0.6251 -0.0139  0.1699
  818MOL0     N10312   5.230   8.868   9.724 -0.0230 -0.5219  0.5759
  818MOL0     C10313   5.113   8.846   9.659  0.5269  0.7898 -1.2127
  818MOL0     C10314   5.017   8.868   9.757 -0.6422  0.4005  0.5455
  818MOL0     C10315   4.867   8.850   9.727  0.0409 -0.8697 -0.9686
  818MOL0     C10316   4.816   8.733   9.805  0.0689  0.1899 -0.5348
  818MOL0     C10317   4.663   8.722   9.780 -1.1908  0.6394  1.0021
  818MOL0     C10318   4.624   8.619   9.671  0.3898 -0.4667  0.5146
  818MOL0     O10319   4.664   8.673   9.541  0.5182 -0.1306  0.3637
  818MOL0     C10320   4.645   8.596   9.432 -0.3481  0.0845 -0.7169
  818MOL0     C10321   4.526   8.533   9.406  0.2465  0.6707  0.1253
  818MOL0     C10322   4.512   8.460   9.290 -0.0959  1.2873  0.5706
  818MOL0     C10323   4.616   8.440   9.196  0.0864 -0.1149 -1.2232
  818MOL0     C10324   4.609   8.356   9.076  0.2082  0.4626  0.6450
  818MOL0     O10325   4.480   8.305   9.054 -0.2795 -0.7872  1.5007
  818MOL0     C10326   4.442   8.226   8.949 -0.9529  0.3324  1.1298
  818MOL0     C10327   4.310   8.236   8.904  0.4475  0.5120 -0.6690
  818MOL0     C10328   4.260   8.159   8.808 -0.9113 -1.3706  0.8353
  818MOL0     C10329   4.342   8.071   8.749  0.5019  0.0523 -0.1891
  818MOL0     O10330   4.307   7.972   8.662 -0.5050  0.8611 -0.0533
  818MOL0     C10331   4.173   7.926   8.638 -0.6056 -1.0876  0.3897
  818MOL0     C10332   4.154   7.868   8.504 -0.3713  0.6770  0.0559
  818MOL0     C10333   4.233   7.733   8.482  0.0446 -0.2231 -1.2018
  818MOL0     C10334   4.266   7.711   8.331  0.2364 -0.3571  0.4069
  818MOL0     C10335   4.332   7.583   8.288 -0.6333  0.9053 -0.1996
  818MOL0     C10336   4.393   7.606   8.139 -0.4174  0.5904 -0.3835
  818MOL0     C10337   4.490   7.491   8.094  0.7139  0.4228 -0.0895
  818MOL0     C10338   4.516   7.492   7.943  0.3050 -0.1484 -0.4879
  818MOL0    Cl10339   4.613   7.631   7.888  0.0263 -0.2761  0.3598
  818MOL0     C10340   4.476   8.070   8.769 -0.8153  0.1686 -0.1775
  818MOL0     C10341   4.528   8.145   8.867 -1.3770  0.0508 -0.4742
  818MOL0     O10342   4.707   8.326   9.010 -0.6647  0.6544  0.2366
  818MOL0     C10343   4.733   8.512   9.231 -0.0124  0.3157  1.2290
  818MOL0     C10344   4.755   8.574   9.347  0.5106 -0.9684 -0.2323
  818MOL0     N10345   5.078   8.898   9.869 -0.2621 -0.1773  0.9490
  818MOL0     N10346   5.205   8.918   9.853  0.7058  0.0797  0.0149
  818MOL0     C10347   6.222   8.058   9.770 -2.4008  0.0901 -0.1490
  818MOL0     C10348   6.294   7.942   9.804  0.2725 -0.2433  0.4679
  818MOL0     C10349   6.456   7.553   9.906  0.4664  1.1184  0.3373
  818MOL0     C10350   6.440   7.533  10.043 -0.4113  0.2911 -0.8174
  818MOL0     C10351   6.442   7.399  10.091 -0.0068  0.0177 -0.1848
  818MOL0     C10352   6.468   7.289  10.008 -0.1439 -0.2689 -0.3399
  818MOL0     O10353   6.448   7.167  10.055  0.1869  0.2706  0.1520
  818MOL0     C10354   6.530   7.131  10.168  0.3235 -0.1521  0.0425
  818MOL0     C10355   6.609   7.000  10.127 -0.2656 -0.7362  0.7726
  818MOL0     C10356   6.699   7.039  10.011 -0.5839  0.1076 -0.2433
  818MOL0     C10357   6.802   6.932   9.986  0.2095  0.7287  0.7134
  818MOL0     C10358   6.758   6.794   9.957  0.8287 -0.4519  0.8182
  818MOL0     C10359   6.732   6.676   9.956 -0.6564 -0.0172 -0.7044
  818MOL0     C10360   6.496   7.315   9.874 -0.1933  0.2055  0.0142
  818MOL0     C10361   6.488   7.446   9.817  0.7556 -0.6911  0.2734
  818MOL0     C10362   6.500   7.466   9.663 -0.7916  0.3329  0.2593
  818MOL0     H10363   6.138   7.725   9.589 -1.6794 -0.6464  4.3160
  818MOL0     H10364   6.045   7.962   9.514  0.8503 -1.0154 -0.7943
  818MOL0     H10365   5.972   8.176   9.486 -0.7904 -0.6754 -0.9526
  818MOL0     H10366   5.886   8.135   9.641 -0.5607  2.4520  1.6384
  818MOL0     H10367   5.966   8.406   9.546  0.5508 -2.4835 -1.5979
  818MOL0     H10368   5.947   8.381   9.717 -3.3226 -1.8817  1.6180
  818MOL0     H10369   5.728   8.305   9.687  0.3426 -2.3869 -1.0520
  818MOL0     H10370   5.750   8.308   9.506  3.0486  3.6755 -2.7787
  818MOL0     H10371   5.781   8.561   9.667  1.5292  0.7950 -1.1867
  818MOL0     H10372   5.745   8.544   9.483  0.6210 -0.2354  0.8658
  818MOL0     H10373   5.525   8.473   9.541 -1.5789 -0.4292  1.3243
  818MOL0     H10374   5.556   8.474   9.710 -0.4174  1.3859 -0.3936
  818MOL0     H10375   5.614   8.734   9.672  0.2763 -2.6547  2.5391
  818MOL0     H10376   5.563   8.705   9.514  2.0535 -0.7238  0.6627
  818MOL0     H10377   5.388   8.672   9.775 -2.1358  0.4674 -0.7431
  818MOL0     H10378   5.335   8.635   9.618  2.0386 -3.9229  0.3217
  818MOL0     H10379   5.452   8.895   9.687  1.4525 -1.2324 -3.1904
  818MOL0     H10380   5.361   8.862   9.550 -0.7010  0.3464  0.2480
  818MOL0     H10381   5.099   8.813   9.557  0.2214 -1.4035 -0.5278
  818MOL0     H10382   4.807   8.935   9.759 -0.5700 -1.7340  0.2815
  818MOL0     H10383   4.861   8.830   9.619 -5.1691 -1.0437 -0.8571
  818MOL0     H10384   4.859   8.640   9.766 -1.1633 -0.5875 -0.0909
  818MOL0     H10385   4.836   8.754   9.910  0.8199  1.4022 -0.8915
  818MOL0     H10386   4.615   8.815   9.749  0.3084  0.8894 -0.7148
  818MOL0     H10387   4.627   8.680   9.875 -2.1124  2.1051  1.3361
  818MOL0     H10388   4.515   8.620   9.662  0.4740 -0.5070 -0.6070
  818MOL0     H10389   4.678   8.524   9.676  1.6888  0.2339  0.3033
  818MOL0     H10390   4.443   8.551   9.474  0.6329 -0.1596  0.8380
  818MOL0     H10391   4.416   8.418   9.261  0.2936 -1.9829  3.3959
  818MOL0     H10392   4.241   8.278   8.976 -0.4000 -2.0428  0.1293
  818MOL0     H10393   4.152   8.160   8.792 -0.9091  0.0871  0.7876
  818MOL0     H10394   4.135   7.866   8.721  0.9865 -1.8802  0.5990
  818MOL0     H10395   4.114   8.018   8.634  2.5702  1.1097 -2.9742
  818MOL0     H10396   4.048   7.844   8.495 -0.4241 -0.6715  2.9166
  818MOL0     H10397   4.189   7.946   8.437 -1.7869 -0.7952 -2.5324
  818MOL0     H10398   4.317   7.735   8.551  1.1798 -0.5116 -2.5251
  818MOL0     H10399   4.165   7.655   8.520  0.9849  0.4141  2.0791
  818MOL0     H10400   4.331   7.792   8.296 -0.6094  0.0601 -0.2587
  818MOL0     H10401   4.174   7.732   8.274  0.4801 -0.5874 -0.0741
  818MOL0     H10402   4.255   7.506   8.275 -1.9459  2.1805 -0.1849
  818MOL0     H10403   4.406   7.550   8.362  0.2309 -0.7344 -1.7145
  818MOL0     H10404   4.320   7.603   8.057 -2.9171 -4.5743  1.5841
  818MOL0     H10405   4.439   7.705   8.134  1.8258 -0.4183 -2.1269
  818MOL0     H10406   4.450   7.391   8.114  3.2834 -1.0384 -1.7427
  818MOL0     H10407   4.587   7.495   8.144  0.5678 -0.8083  0.3314
  818MOL0     H10408   4.572   7.402   7.917 -2.7874 -2.0454 -1.1515
  818MOL0     H10409   4.420   7.484   7.891 -1.8753  0.3722  3.1025
  818MOL0     H10410   4.533   7.993   8.719  0.0171  0.8051 -0.2353
  818MOL0     H10411   4.631   8.127   8.899 -2.0619 -2.8574  0.3739
  818MOL0     H10412   4.812   8.493   9.159 -1.1779  2.7681 -0.8551
  818MOL0     H10413   4.854   8.612   9.369 -0.1111  1.4500 -1.2044
  818MOL0     H10414   6.243   8.144   9.833  1.5378 -1.4116  0.8925
  818MOL0     H10415   6.363   7.949   9.887 -0.5322  0.4817  1.0884
  818MOL0     H10416   6.415   7.613  10.112  0.6675 -1.5102  1.8637
  818MOL0     H10417   6.415   7.374  10.193 -2.7563  0.4448 -0.7149
  818MOL0     H10418   6.454   7.119  10.245  0.0533  0.2363 -0.1578
  818MOL0     H10419   6.597   7.210  10.204 -2.4624  1.4376  2.1293
  818MOL0     H10420   6.535   6.930  10.088  2.0048 -0.7662 -4.1542
  818MOL0     H10421   6.669   6.961  10.210  0.4387  4.7669  3.3560
  818MOL0     H10422   6.752   7.132  10.031  0.1179  0.4396 -3.2158
  818MOL0     H10423   6.646   7.048   9.915 -1.5959  1.0379  0.3778
  818MOL0     H10424   6.849   6.955   9.890 -1.8658 -1.4097 -0.9038
  818MOL0     H10425   6.866   6.919  10.074  2.0551 -2.8246 -0.9287
  818MOL0     H10426   6.701   6.573   9.949 -1.7443  0.3621 -1.6914
  818MOL0     H10427   6.528   7.229   9.817  0.7755  0.0531  0.7553
  818MOL0     H10428   6.400   7.481   9.621 -0.7685 -0.0957  0.0544
  818MOL0     H10429   6.564   7.555   9.655  2.2709 -1.6980  0.6879
  818MOL0     H10430   6.554   7.380   9.624  5.4320  4.3508 -1.4398
  819MOL0     O10431   7.868   1.041   2.421 -0.8666  1.0818 -0.0424
  819MOL0     C10432   7.964   0.977   2.469 -1.3488  0.4136 -0.1217
  819MOL0     O10433   8.018   0.860   2.423 -0.5607 -0.3555 -0.2849
  819MOL0     C10434   7.968   0.814   2.310  0.0669  0.2479  0.1256
  819MOL0     C10435   7.940   0.683   2.311  0.2640  0.4515 -0.0787
  819MOL0     C10436   7.868   0.612   2.202 -0.6073 -0.7070 -0.8095
  819MOL0     C10437   7.841   0.689   2.096  0.0029  0.1845  0.1720
  819MOL0     O10438   7.776   0.642   1.985  0.2093  0.4219  0.4224
  819MOL0     C10439   7.776   0.504   1.954 -0.4899 -0.1997  0.9244
  819MOL0     C10440   7.778   0.464   1.804  0.0297  0.0143  1.4278
  819MOL0     C10441   7.905   0.522   1.723 -0.3715 -1.4764  0.6616
  819MOL0     C10442   7.870   0.527   1.577 -0.6178 -0.1063  0.5420
  819MOL0     C10443   7.934   0.651   1.509  0.6921  0.1698  0.0819
  819MOL0     C10444   7.905   0.655   1.358  0.7653  0.5925  0.2817
  819MOL0     C10445   7.950   0.779   1.287  1.0302  0.0413  0.4067
  819MOL0     C10446   7.917   0.780   1.136  0.4044 -0.2818  0.3259
  819MOL0     N10447   7.771   0.824   1.106 -0.8578  0.4920  0.4181
  819MOL0     C10448   7.717   0.942   1.159  0.4609 -0.2230 -0.2706
  819MOL0     C10449   7.599   0.970   1.096 -0.0648  0.1354 -0.2911
  819MOL0     C10450   7.511   1.080   1.130 -0.0221  0.7593 -0.3682
  819MOL0     C10451   7.366   1.039   1.147 -0.4490 -0.4769  0.8410
  819MOL0     C10452   7.299   0.990   1.023 -0.1284 -1.1597 -0.2736
  819MOL0     C10453   7.160   0.934   1.048 -0.3406 -0.2066 -0.2717
  819MOL0     O10454   7.096   0.930   0.924 -0.5162  0.3139 -0.3826
  819MOL0     C10455   6.970   0.877   0.930  0.9926  0.5460  0.3565
  819MOL0     C10456   6.862   0.954   0.984  0.6267  0.6420  1.2010
  819MOL0     C10457   6.728   0.894   0.991 -0.3205 -0.0757  0.1698
  819MOL0     C10458   6.698   0.755   0.969  0.6778  0.8590  0.3064
  819MOL0     C10459   6.557   0.699   0.972 -0.3645  0.2859 -0.9008
  819MOL0     O10460   6.549   0.568   0.962  1.0955  0.2248  0.2019
  819MOL0     C10461   6.421   0.511   0.919 -0.4122  0.7311 -0.3246
  819MOL0     C10462   6.311   0.518   1.007 -0.3072  0.1374 -0.3080
  819MOL0     C10463   6.189   0.466   0.970 -0.1588 -0.3352  0.2863
  819MOL0     C10464   6.154   0.412   0.838  0.5479 -0.4123  0.0984
  819MOL0     O10465   6.029   0.380   0.802 -0.7550 -0.7787 -0.4867
  819MOL0     C10466   5.997   0.360   0.661 -0.4277  0.2352  1.0348
  819MOL0     C10467   5.851   0.315   0.623  0.4885  0.1349 -0.4973
  819MOL0     C10468   5.763   0.443   0.614  0.9004  0.6538 -0.0834
  819MOL0     C10469   5.654   0.426   0.490 -0.2759 -0.5687 -0.6822
  819MOL0     C10470   5.565   0.552   0.469  0.3233  0.2341 -0.7572
  819MOL0     C10471   5.463   0.540   0.349 -0.0508 -0.1883  0.1397
  819MOL0     C10472   5.371   0.413   0.373 -0.2384  0.3117 -0.1513
  819MOL0     C10473   5.284   0.421   0.492  0.9621  0.9732 -0.1819
  819MOL0    Cl10474   5.190   0.574   0.484 -0.2697 -0.5044 -0.4585
  819MOL0     C10475   6.270   0.419   0.755 -0.0327  0.8870  0.4908
  819MOL0     C10476   6.399   0.462   0.787 -0.3387  0.1092  0.2917
  819MOL0     O10477   6.464   0.778   0.983  0.3472 -0.5949 -0.5619
  819MOL0     C10478   6.810   0.677   0.929 -0.1474  0.3730  0.2201
  819MOL0     C10479   6.935   0.743   0.904  0.2387  0.1864 -0.1935
  819MOL0     N10480   7.587   0.869   0.995 -0.5579 -0.0989  0.0209
  819MOL0     N10481   7.689   0.781   1.004  0.4243  0.2678  0.2009
  819MOL0     C10482   7.886   0.822   2.089  0.3558  0.3644  0.4605
  819MOL0     C10483   7.952   0.886   2.197 -0.3453 -0.1453  0.2109
  819MOL0     C10484   8.020   1.031   2.598  0.4831 -0.6078 -0.5766
  819MOL0     C10485   7.976   0.980   2.721  0.2564  0.2005  0.9559
  819MOL0     C10486   8.010   1.038   2.844  0.3806  0.6359  0.4267
  819MOL0     C10487   8.094   1.147   2.850  0.8660  1.0817 -0.3385
  819MOL0     O10488   8.136   1.203   2.972 -0.0189  0.2504 -0.0014
  819MOL0     C10489   8.043   1.289   3.035  0.7294 -0.4711 -0.3504
  819MOL0     C10490   8.055   1.436   2.997 -0.3205  0.2382  0.2135
  819MOL0     C10491   8.127   1.529   3.097  0.0694  0.0026  0.1229
  819MOL0     C10492   8.275   1.502   3.119 -0.0008 -0.5028  0.7509
  819MOL0     C10493   8.343   1.534   2.991  0.5078 -0.0435 -0.5422
  819MOL0     C10494   8.404   1.557   2.890 -0.8030 -0.7303  0.6106
  819MOL0     C10495   8.138   1.201   2.726 -0.7031  0.4078  0.7940
  819MOL0     C10496   8.097   1.144   2.603  0.0271  0.6922 -0.6238
  819MOL0     C10497   8.158   1.206   2.476  0.6871  0.9236 -0.7547
  819MOL0     H10498   7.960   0.618   2.396  1.5954 -0.3755 -1.0042
  819MOL0     H10499   7.844   0.506   2.202  0.7886 -1.0342 -1.1040
  819MOL0     H10500   7.873   0.463   1.984  0.0425 -0.9024 -1.5306
  819MOL0     H10501   7.683   0.466   1.996 -1.9934  1.9282 -0.2613
  819MOL0     H10502   7.686   0.488   1.750  0.5434  1.1564  1.0293
  819MOL0     H10503   7.796   0.357   1.789  0.6477  0.5186 -2.1832
  819MOL0     H10504   8.003   0.475   1.733  1.1806  1.1620 -0.9777
  819MOL0     H10505   7.923   0.623   1.761 -3.2889 -1.0200  1.0780
  819MOL0     H10506   7.894   0.431   1.531 -2.7786 -0.2244 -0.4777
  819MOL0     H10507   7.762   0.531   1.560 -0.6515  1.3949  0.9248
  819MOL0     H10508   7.883   0.741   1.543  1.3640  0.4807  0.2808
  819MOL0     H10509   8.042   0.655   1.528  0.3335  1.1108  2.1269
  819MOL0     H10510   7.961   0.575   1.309  2.8849  1.7297  0.7512
  819MOL0     H10511   7.799   0.639   1.337  1.3355 -0.8987 -1.7712
  819MOL0     H10512   8.060   0.779   1.282  0.9844 -0.1335 -0.7573
  819MOL0     H10513   7.924   0.870   1.342 -0.8149  0.1344 -0.5619
  819MOL0     H10514   7.986   0.838   1.073 -0.9701  1.7488  0.5923
  819MOL0     H10515   7.917   0.678   1.094 -0.7528 -1.4152  2.9051
  819MOL0     H10516   7.752   0.982   1.254 -0.2385 -2.5194  1.0316
  819MOL0     H10517   7.539   1.127   1.225  1.3033 -0.9914  0.1486
  819MOL0     H10518   7.515   1.158   1.053  0.9249 -2.4483 -3.8502
  819MOL0     H10519   7.371   0.957   1.218  0.4558 -0.4550  0.8122
  819MOL0     H10520   7.316   1.126   1.190 -0.8817  0.3822 -1.2373
  819MOL0     H10521   7.363   0.912   0.980  3.0153  1.5221 -0.9233
  819MOL0     H10522   7.295   1.070   0.949  1.8214 -1.4384 -0.7570
  819MOL0     H10523   7.113   1.008   1.114 -2.3036 -1.1490 -0.5399
  819MOL0     H10524   7.167   0.838   1.100  1.1092 -0.5506 -1.0538
  819MOL0     H10525   6.880   1.055   1.017  1.5747  0.5837  0.9101
  819MOL0     H10526   6.647   0.961   1.018 -1.0813  0.4351 -2.9301
  819MOL0     H10527   6.305   0.564   1.105 -3.4048  0.7046 -0.6458
  819MOL0     H10528   6.116   0.467   1.049 -2.2490  0.1645 -1.5380
  819MOL0     H10529   6.003   0.454   0.607  0.1131  0.5188  1.5760
  819MOL0     H10530   6.064   0.288   0.613 -2.2900 -0.9452  0.0756
  819MOL0     H10531   5.857   0.265   0.526  2.1439  0.4019 -0.5617
  819MOL0     H10532   5.799   0.251   0.695  0.3302  0.4815 -0.3060
  819MOL0     H10533   5.705   0.455   0.705 -2.6698 -3.6166 -1.4673
  819MOL0     H10534   5.822   0.534   0.598  0.0343  0.9671 -1.8098
  819MOL0     H10535   5.595   0.343   0.529 -2.8655  2.2112  1.7751
  819MOL0     H10536   5.710   0.399   0.400  1.4595  2.8338 -0.7764
  819MOL0     H10537   5.633   0.631   0.435  0.4486 -0.2369 -1.6283
  819MOL0     H10538   5.518   0.578   0.564  5.2413 -1.2617  2.4777
  819MOL0     H10539   5.404   0.631   0.336  1.0844  0.6248  0.6119
  819MOL0     H10540   5.518   0.529   0.255 -1.1352  1.1102 -0.6846
  819MOL0     H10541   5.428   0.320   0.381 -0.5654  0.0064 -1.1405
  819MOL0     H10542   5.310   0.387   0.286  1.1107 -3.2330 -0.2174
  819MOL0     H10543   5.213   0.342   0.515  0.5468  1.8330  1.7741
  819MOL0     H10544   5.338   0.432   0.587 -2.2955 -1.8836  2.2550
  819MOL0     H10545   6.267   0.377   0.655 -1.0347 -1.7024  1.5163
  819MOL0     H10546   6.483   0.454   0.719  0.7065  1.6257  1.3125
  819MOL0     H10547   6.783   0.577   0.898 -1.2657  1.4434 -2.6618
  819MOL0     H10548   7.015   0.675   0.878  0.4032 -0.7697  2.5682
  819MOL0     H10549   7.867   0.874   1.996  1.1807  0.6907  0.4672
  819MOL0     H10550   7.965   0.991   2.177 -0.7336 -0.5210 -2.3680
  819MOL0     H10551   7.914   0.891   2.710 -1.2226  1.4177 -1.3222
  819MOL0     H10552   7.968   1.002   2.937  0.2126 -1.4294 -0.3944
  819MOL0     H10553   8.060   1.284   3.143 -0.2379  0.2248 -0.1494
  819MOL0     H10554   7.941   1.258   3.009  0.5578  1.5557 -2.3242
  819MOL0     H10555   7.957   1.478   2.976 -0.5395  0.2589  1.2664
  819MOL0     H10556   8.100   1.443   2.897 -0.1552 -0.2384  0.2510
  819MOL0     H10557   8.078   1.533   3.194  3.5056  1.1577  1.9665
  819MOL0     H10558   8.107   1.628   3.055  0.3730  0.0185  0.0150
  819MOL0     H10559   8.307   1.582   3.186 -0.1505 -0.4609  0.7718
  819MOL0     H10560   8.305   1.409   3.167  2.2895  1.3464  3.2135
  819MOL0     H10561   8.471   1.594   2.815 -0.4525 -1.0509  0.7648
  819MOL0     H10562   8.204   1.287   2.733  0.9278 -0.7615  0.6338
  819MOL0     H10563   8.186   1.126   2.407 -1.1429  0.5248 -1.0846
  819MOL0     H10564   8.091   1.274   2.421  3.3323  5.0505  0.7090
  819MOL0     H10565   8.246   1.262   2.508 -0.2699  1.3592  1.2740
  820MOL0     O10566   9.492   8.778   1.948 -0.2244  0.6468  0.2624
  820MOL0     C10567   9.474   8.770   2.067  0.0011  0.3765 -0.4085
  820MOL0     O10568   9.357   8.804   2.124  0.3675  0.1624  1.0678
  820MOL0     C10569   9.263   8.865   2.045  0.1235  1.6317 -0.6033
  820MOL0     C10570   9.168   8.772   1.992 -0.9441 -0.0059  0.7721
  820MOL0     C10571   9.060   8.830   1.919 -0.4961 -0.2225  0.9917
  820MOL0     C10572   9.050   8.970   1.915  0.7433 -0.9315 -0.3951
  820MOL0     O10573   8.941   9.040   1.863 -0.1861  0.4384  0.1665
  820MOL0     C10574   8.827   8.969   1.802  0.0738  0.2400  0.2546
  820MOL0     C10575   8.719   9.074   1.773 -0.7896  0.3628 -0.1118
  820MOL0     C10576   8.605   9.014   1.696  0.2111 -0.7367 -0.0011
  820MOL0     C10577   8.508   9.108   1.640 -0.0224  0.6571  0.0657
  820MOL0     C10578   8.420   9.041   1.539 -1.3269  0.2317 -0.2827
  820MOL0     C10579   8.333   8.930   1.600 -0.7584  0.0781 -0.0632
  820MOL0     C10580   8.221   8.867   1.525 -0.3237 -0.2966 -0.1148
  820MOL0     C10581   8.112   8.965   1.473  0.7951  0.8310  0.0562
  820MOL0     N10582   7.995   8.875   1.426  1.0968  0.1943  0.1539
  820MOL0     C10583   7.990   8.783   1.319 -0.2006 -0.7012 -0.6419
  820MOL0     C10584   7.880   8.705   1.341  0.5264 -0.8429  0.8520
  820MOL0     C10585   7.835   8.588   1.251 -0.1233 -0.4870 -0.2670
  820MOL0     C10586   7.775   8.455   1.309 -0.1431 -0.3742  0.4519
  820MOL0     C10587   7.871   8.367   1.380 -0.0780 -0.1288  0.5877
  820MOL0     C10588   7.813   8.250   1.449 -0.8916  0.2208  0.0848
  820MOL0     O10589   7.727   8.162   1.377 -0.4700 -0.5200 -0.5563
  820MOL0     C10590   7.624   8.107   1.457  0.2460  0.8627 -0.7293
  820MOL0     C10591   7.644   8.005   1.552  0.0977 -0.5075 -0.7226
  820MOL0     C10592   7.533   7.975   1.634  1.0800 -0.3487 -0.6406
  820MOL0     C10593   7.400   8.029   1.622 -0.8077  0.2798  0.0779
  820MOL0     C10594   7.300   7.990   1.716 -0.8613  0.0344  0.0432
  820MOL0     O10595   7.339   7.931   1.832  0.2331 -0.2035 -0.6150
  820MOL0     C10596   7.239   7.911   1.928  0.1091  0.3702 -0.4564
  820MOL0     C10597   7.284   7.917   2.058 -0.0630  0.0713 -0.0328
  820MOL0     C10598   7.213   7.892   2.173 -1.2270 -0.1089  0.5999
  820MOL0     C10599   7.076   7.862   2.157 -0.5356 -0.6149 -0.0305
  820MOL0     O10600   6.993   7.847   2.266 -0.4633 -0.2105  0.4382
  820MOL0     C10601   7.031   7.847   2.405  0.6949  0.0351 -0.0261
  820MOL0     C10602   6.916   7.780   2.471 -0.9278  0.3173  0.2947
  820MOL0     C10603   6.948   7.779   2.622  0.9952  0.2612 -0.2620
  820MOL0     C10604   6.857   7.684   2.696  0.3147 -0.6679 -0.5064
  820MOL0     C10605   6.886   7.672   2.846 -0.5548  0.4246 -0.7093
  820MOL0     C10606   6.934   7.800   2.911  0.9765  0.3951  0.9801
  820MOL0     C10607   7.088   7.807   2.904 -0.2450 -0.2879 -0.3301
  820MOL0     C10608   7.152   7.793   3.045 -0.2498  0.5944  0.8671
  820MOL0    Cl10609   7.127   7.618   3.101 -0.1746 -0.1666  0.4253
  820MOL0     C10610   7.023   7.844   2.031 -0.6162 -0.8750 -1.0709
  820MOL0     C10611   7.100   7.866   1.916 -0.2120 -0.2354  0.2523
  820MOL0     O10612   7.187   8.041   1.692 -0.2876 -0.0218  0.4745
  820MOL0     C10613   7.386   8.117   1.518  0.9362 -1.0682  0.9890
  820MOL0     C10614   7.493   8.154   1.433  0.2442  0.6112  0.3881
  820MOL0     N10615   7.807   8.772   1.436 -0.2511  0.3084  0.2979
  820MOL0     N10616   7.875   8.861   1.496  0.3767 -0.3977 -0.1826
  820MOL0     C10617   9.145   9.052   1.967 -0.5218  0.2475  0.1416
  820MOL0     C10618   9.262   8.995   2.023  0.5939  0.0242  0.3989
  820MOL0     C10619   9.569   8.689   2.158  0.3613  0.2667  0.9581
  820MOL0     C10620   9.528   8.653   2.287  0.6027  0.8568  0.6992
  820MOL0     C10621   9.605   8.571   2.372 -0.1208  0.0872 -0.4097
  820MOL0     C10622   9.727   8.516   2.333 -0.3212  0.3981  0.5371
  820MOL0     O10623   9.799   8.424   2.409  0.3166  0.8637 -0.3803
  820MOL0     C10624   9.772   8.399   2.548 -0.0660 -0.6385 -0.2060
  820MOL0     C10625   9.896   8.360   2.617 -0.1756 -0.0904  0.7372
  820MOL0     C10626   9.980   8.477   2.666 -0.2937 -0.2608 -0.4080
  820MOL0     C10627  10.113   8.446   2.713  0.0453 -0.4249  0.4201
  820MOL0     C10628  10.185   8.567   2.749 -0.6091  0.3640  0.9381
  820MOL0     C10629  10.248   8.671   2.763 -0.8584 -0.0357 -0.0252
  820MOL0     C10630   9.772   8.558   2.211 -1.0097  1.2587  0.1103
  820MOL0     C10631   9.698   8.637   2.126  0.0302 -0.1972 -0.6320
  820MOL0     C10632   9.757   8.652   1.992 -0.4873  0.3733 -0.0100
  820MOL0     H10633   9.169   8.664   2.003 -1.2693 -0.0560  0.3540
  820MOL0     H10634   8.982   8.777   1.866 -2.4845  3.1034  0.3225
  820MOL0     H10635   8.858   8.922   1.709 -0.6465 -0.6751  0.4626
  820MOL0     H10636   8.781   8.891   1.865 -1.6206 -0.1086 -1.3386
  820MOL0     H10637   8.766   9.154   1.714  2.5443 -1.3560 -0.0267
  820MOL0     H10638   8.690   9.120   1.868 -3.2147 -0.8635 -0.1947
  820MOL0     H10639   8.552   8.931   1.744 -1.6254  0.8091  0.8010
  820MOL0     H10640   8.659   8.977   1.609 -0.1948  4.3931 -2.8597
  820MOL0     H10641   8.449   9.143   1.725 -0.3228 -0.2479  0.2418
  820MOL0     H10642   8.560   9.195   1.599 -0.0468  0.9284  0.5940
  820MOL0     H10643   8.353   9.116   1.495  0.8296  2.4206 -0.0500
  820MOL0     H10644   8.483   9.004   1.457 -3.2318  0.0677 -1.7498
  820MOL0     H10645   8.395   8.845   1.629  1.0724  0.5782 -2.2246
  820MOL0     H10646   8.277   8.964   1.687 -2.0511  0.4904 -1.0178
  820MOL0     H10647   8.167   8.794   1.585 -1.4347  3.0970  3.4127
  820MOL0     H10648   8.272   8.817   1.442 -1.3080  0.2159 -1.0508
  820MOL0     H10649   8.086   9.029   1.557 -1.8380  0.1910 -0.1658
  820MOL0     H10650   8.147   9.025   1.388 -1.0348  0.1020 -1.2832
  820MOL0     H10651   8.066   8.761   1.244  0.3347  1.1863 -0.6939
  820MOL0     H10652   7.765   8.629   1.178 -3.6262 -2.2378  1.8494
  820MOL0     H10653   7.927   8.558   1.199 -0.5074  0.5475 -1.6089
  820MOL0     H10654   7.690   8.484   1.373 -3.2411 -1.6800 -2.7370
  820MOL0     H10655   7.731   8.400   1.226 -1.9580  4.5586 -2.2899
  820MOL0     H10656   7.900   8.432   1.463  1.1715  1.2977 -0.9057
  820MOL0     H10657   7.962   8.340   1.326  0.7754  4.6049 -0.7940
  820MOL0     H10658   7.753   8.297   1.528  0.4679  1.1623  0.6033
  820MOL0     H10659   7.885   8.186   1.500 -1.3468 -2.4296 -2.3750
  820MOL0     H10660   7.741   7.960   1.569  0.8916  1.1257 -0.6726
  820MOL0     H10661   7.553   7.900   1.710  2.6991 -1.6791 -2.2839
  820MOL0     H10662   7.390   7.941   2.064  0.0369 -0.0315 -1.1073
  820MOL0     H10663   7.257   7.899   2.272  1.0103 -0.8055 -0.2797
  820MOL0     H10664   7.126   7.795   2.420 -1.8365 -4.2191  4.0674
  820MOL0     H10665   7.015   7.947   2.446 -3.1137  0.3815 -1.9164
  820MOL0     H10666   6.818   7.824   2.451  0.1133  3.1890  0.9779
  820MOL0     H10667   6.907   7.678   2.432 -0.3045  1.2749 -2.5493
  820MOL0     H10668   7.052   7.746   2.633  0.7258 -0.9977 -1.2426
  820MOL0     H10669   6.951   7.884   2.655 -0.2009 -0.6052  2.8996
  820MOL0     H10670   6.858   7.591   2.639  1.6285 -0.0069 -1.6355
  820MOL0     H10671   6.751   7.703   2.680  0.3435 -0.1249 -0.0962
  820MOL0     H10672   6.965   7.599   2.867 -2.0604 -1.0632 -0.0673
  820MOL0     H10673   6.798   7.639   2.901 -0.8914  1.4671 -0.5972
  820MOL0     H10674   6.866   7.882   2.885 -0.1431 -1.0562 -0.9391
  820MOL0     H10675   6.913   7.777   3.016 -1.4579 -1.4573  0.1746
  820MOL0     H10676   7.111   7.908   2.870 -4.5968  0.9576 -0.2218
  820MOL0     H10677   7.148   7.739   2.842  1.6628  1.5727 -0.6226
  820MOL0     H10678   7.259   7.806   3.026 -0.7214 -0.4563 -3.8837
  820MOL0     H10679   7.099   7.853   3.119 -2.5092 -2.3074  1.7728
  820MOL0     H10680   6.917   7.828   2.013 -1.3928  0.8080  1.5866
  820MOL0     H10681   7.043   7.860   1.824 -0.7376 -0.0984  0.5618
  820MOL0     H10682   7.292   8.170   1.512  1.2228 -0.6774 -1.0508
  820MOL0     H10683   7.492   8.240   1.367  3.4658 -0.2846 -0.9998
  820MOL0     H10684   9.138   9.160   1.960 -1.0849  0.1915 -0.2514
  820MOL0     H10685   9.337   9.055   2.072  1.7632 -0.7905 -0.3454
  820MOL0     H10686   9.432   8.689   2.323  0.7368 -1.0596  3.2895
  820MOL0     H10687   9.561   8.557   2.470 -1.6223  0.5387 -0.9934
  820MOL0     H10688   9.708   8.311   2.563 -2.1648  1.1528  2.2132
  820MOL0     H10689   9.721   8.468   2.615  2.2693 -1.2209  2.4002
  820MOL0     H10690   9.948   8.288   2.553  0.4128  0.8636  0.1005
  820MOL0     H10691   9.870   8.304   2.707 -1.7450  2.1927  1.8051
  820MOL0     H10692   9.922   8.543   2.730  0.6393 -0.8796  1.1573
  820MOL0     H10693   9.998   8.529   2.572 -0.0153 -2.3438 -1.5758
  820MOL0     H10694  10.117   8.377   2.799  3.8270 -2.4743 -1.1632
  820MOL0     H10695  10.169   8.399   2.632 -1.8081  1.4836 -2.0900
  820MOL0     H10696  10.309   8.758   2.765 -2.1123  0.9417 -1.5969
  820MOL0     H10697   9.866   8.511   2.182 -1.4741 -0.7541  1.7006
  820MOL0     H10698   9.809   8.749   1.992 -1.4341  0.9042 -1.1719
  820MOL0     H10699   9.822   8.567   1.968 -0.9789  0.2075 -0.7826
  820MOL0     H10700   9.683   8.653   1.912 -0.4343 -0.2907 -0.0656
  821MOL0     O10701   5.519   8.542   7.518 -0.3215  0.2250 -0.0025
  821MOL0     C10702   5.530   8.425   7.494  0.3879  0.1860  0.5694
  821MOL0     O10703   5.640   8.369   7.434 -0.2781  0.2835  0.0719
  821MOL0     C10704   5.770   8.397   7.461  0.6966  0.6376  1.1454
  821MOL0     C10705   5.816   8.473   7.568  0.5560 -0.6808 -0.6701
  821MOL0     C10706   5.952   8.485   7.598 -0.1812  0.3741  0.0057
  821MOL0     C10707   6.046   8.429   7.515  1.2806  1.4451  0.7995
  821MOL0     O10708   6.184   8.431   7.537 -0.0898  0.0071  0.3605
  821MOL0     C10709   6.217   8.495   7.662  0.6290  0.3071 -0.1176
  821MOL0     C10710   6.366   8.488   7.693  0.4590 -0.7484  0.0344
  821MOL0     C10711   6.393   8.545   7.835  0.5501 -0.6137 -0.1545
  821MOL0     C10712   6.344   8.470   7.957  1.1221 -0.0919  0.3187
  821MOL0     C10713   6.338   8.563   8.071 -0.7193 -0.3464 -0.0189
  821MOL0     C10714   6.321   8.498   8.206 -0.2960  0.2561 -1.2291
  821MOL0     C10715   6.177   8.450   8.238 -0.4305  0.1974  1.2347
  821MOL0     C10716   6.143   8.432   8.385  0.7725  0.3856  0.1091
  821MOL0     N10717   6.234   8.332   8.431 -0.8834 -0.2293 -0.1468
  821MOL0     C10718   6.323   8.363   8.535 -1.1032  0.8404 -0.9109
  821MOL0     C10719   6.389   8.237   8.569  0.1981 -0.7612 -0.3745
  821MOL0     C10720   6.493   8.220   8.685 -0.1204  1.1933  0.5952
  821MOL0     C10721   6.615   8.306   8.635  1.3189 -0.0159 -0.4095
  821MOL0     C10722   6.729   8.305   8.739  0.1414 -0.5837  0.4768
  821MOL0     C10723   6.686   8.375   8.871  0.6781  0.1907 -0.4560
  821MOL0     O10724   6.796   8.396   8.968 -0.5174 -1.0842 -0.2657
  821MOL0     C10725   6.834   8.293   9.044 -0.3237 -0.8184 -0.3156
  821MOL0     C10726   6.972   8.283   9.061  0.2544 -1.2432  0.2573
  821MOL0     C10727   7.026   8.167   9.120  0.4187 -0.2475 -0.2286
  821MOL0     C10728   6.936   8.072   9.172  0.2353 -1.7098 -0.4365
  821MOL0     C10729   6.997   7.947   9.236  1.3917  1.2664 -0.1737
  821MOL0     O10730   7.132   7.938   9.255 -0.3671  0.3160  0.3284
  821MOL0     C10731   7.186   7.817   9.291  0.6445  0.5109 -0.5854
  821MOL0     C10732   7.131   7.736   9.395 -0.1689 -0.0091 -0.3675
  821MOL0     C10733   7.199   7.625   9.451 -0.2265  0.3721  1.0076
  821MOL0     C10734   7.323   7.588   9.407  0.3506 -0.0602  0.3110
  821MOL0     O10735   7.383   7.500   9.491 -0.5267  0.1598 -0.1073
  821MOL0     C10736   7.530   7.494   9.486 -0.7606 -0.4235  0.2956
  821MOL0     C10737   7.589   7.443   9.617 -0.5654 -0.2732  0.5486
  821MOL0     C10738   7.650   7.544   9.712  1.2797  0.0144 -0.0410
  821MOL0     C10739   7.549   7.652   9.766 -0.1721  0.5195  0.1942
  821MOL0     C10740   7.596   7.721   9.888 -0.4911 -0.4918  0.7734
  821MOL0     C10741   7.715   7.821   9.872 -0.0286  1.5098 -0.1715
  821MOL0     C10742   7.706   7.929   9.758  0.1351  0.5146  0.3461
  821MOL0     C10743   7.832   8.021   9.764 -0.8838  0.1218  0.0301
  821MOL0    Cl10744   8.001   7.946   9.734  0.0155  0.0118  0.0577
  821MOL0     C10745   7.373   7.653   9.289  0.2688 -0.5144 -0.4418
  821MOL0     C10746   7.305   7.766   9.233  0.2721 -1.0668 -0.1159
  821MOL0     O10747   6.911   7.860   9.258 -0.4967  0.9035 -0.3316
  821MOL0     C10748   6.799   8.082   9.152  1.2376 -0.0060  0.0943
  821MOL0     C10749   6.743   8.193   9.085  0.2550 -1.5350  0.0856
  821MOL0     N10750   6.330   8.153   8.488  0.7641  0.0180 -0.1046
  821MOL0     N10751   6.238   8.201   8.406 -0.3808  0.9597  0.0079
  821MOL0     C10752   5.997   8.365   7.397  0.5432 -0.8558  0.2307
  821MOL0     C10753   5.865   8.336   7.376  1.3047  0.1948  1.1480
  821MOL0     C10754   5.399   8.352   7.485 -0.6655  0.6669 -0.8974
  821MOL0     C10755   5.362   8.287   7.371  0.0222 -0.7100 -0.4378
  821MOL0     C10756   5.256   8.202   7.367  0.3632  0.1894 -0.0124
  821MOL0     C10757   5.164   8.194   7.478  0.7448  0.1573  0.3403
  821MOL0     O10758   5.046   8.118   7.474 -0.2574  0.0253  0.0502
  821MOL0     C10759   5.034   8.002   7.395  0.2977 -0.9991  0.2780
  821MOL0     C10760   4.891   7.955   7.398  0.0732 -1.0616  0.1497
  821MOL0     C10761   4.795   8.036   7.307 -0.0005 -0.1625 -0.8948
  821MOL0     C10762   4.652   7.998   7.291 -0.0876 -0.5781 -0.4474
  821MOL0     C10763   4.589   7.961   7.419  0.3065 -0.0025 -0.2590
  821MOL0     C10764   4.535   7.963   7.526  0.4205 -0.1081 -0.7889
  821MOL0     C10765   5.187   8.270   7.589 -0.7389 -0.1018  0.2145
  821MOL0     C10766   5.305   8.348   7.599  0.1793  0.5363  0.5491
  821MOL0     C10767   5.324   8.413   7.727  0.4683 -0.3543 -1.1744
  821MOL0     H10768   5.753   8.531   7.636  0.6830 -0.0007 -1.1254
  821MOL0     H10769   5.981   8.543   7.684 -0.4835 -0.9484  1.0318
  821MOL0     H10770   6.184   8.599   7.663 -1.9263 -0.4179  2.2619
  821MOL0     H10771   6.173   8.432   7.740  0.5308  0.5983  0.0608
  821MOL0     H10772   6.401   8.555   7.614 -0.2083 -0.8399 -0.3454
  821MOL0     H10773   6.418   8.393   7.676  1.5054 -0.1238 -0.3845
  821MOL0     H10774   6.351   8.645   7.824  0.5570 -0.7749 -1.9368
  821MOL0     H10775   6.501   8.558   7.843  0.1281  3.2593  1.2796
  821MOL0     H10776   6.244   8.426   7.951  0.6366  0.6068  2.3130
  821MOL0     H10777   6.418   8.392   7.979  0.6956  0.2085  3.2162
  821MOL0     H10778   6.440   8.599   8.060 -1.5049  1.2402 -3.3057
  821MOL0     H10779   6.269   8.647   8.061 -1.8323 -1.0187  1.4959
  821MOL0     H10780   6.400   8.423   8.214  1.2080  1.3913 -3.9742
  821MOL0     H10781   6.350   8.563   8.288 -1.5870 -1.5823  0.7925
  821MOL0     H10782   6.162   8.356   8.183 -2.4286  0.6936  0.8759
  821MOL0     H10783   6.106   8.514   8.185  2.7240  3.5517  0.6282
  821MOL0     H10784   6.150   8.529   8.435 -0.6593  1.4344 -1.6461
  821MOL0     H10785   6.038   8.403   8.397 -0.1668  1.9819 -3.3091
  821MOL0     H10786   6.346   8.462   8.574  1.8943  0.2562 -0.9770
  821MOL0     H10787   6.443   8.248   8.779  0.7315  0.3338  1.3280
  821MOL0     H10788   6.526   8.116   8.689 -2.0726  0.3337 -2.4791
  821MOL0     H10789   6.645   8.247   8.548 -5.2466  0.0867 -3.3026
  821MOL0     H10790   6.579   8.403   8.603 -0.0651 -0.7946 -1.3044
  821MOL0     H10791   6.817   8.346   8.688  0.2539 -0.3730  0.8369
  821MOL0     H10792   6.741   8.205   8.781 -4.7438 -0.2738  3.3704
  821MOL0     H10793   6.603   8.323   8.917  0.1238  1.9692  0.6516
  821MOL0     H10794   6.658   8.481   8.859 -0.3001 -0.0247 -0.1230
  821MOL0     H10795   7.030   8.362   9.015 -1.2857 -0.4354 -0.3681
  821MOL0     H10796   7.133   8.150   9.136  0.1961 -1.8960 -0.3602
  821MOL0     H10797   7.037   7.774   9.435 -0.5648 -1.2680 -0.0497
  821MOL0     H10798   7.156   7.574   9.537 -0.1838  0.6466  1.1907
  821MOL0     H10799   7.560   7.425   9.406 -2.7734 -3.3469  1.8513
  821MOL0     H10800   7.566   7.595   9.466  1.1984 -0.0725  4.4839
  821MOL0     H10801   7.515   7.382   9.670  1.0453 -5.1508 -2.1504
  821MOL0     H10802   7.665   7.372   9.583  0.6251  1.8403 -1.5422
  821MOL0     H10803   7.681   7.490   9.802  2.8627  0.2873 -0.3958
  821MOL0     H10804   7.741   7.594   9.679 -0.0496  2.4262 -0.2984
  821MOL0     H10805   7.445   7.622   9.784 -1.2626  3.4571 -0.6957
  821MOL0     H10806   7.557   7.721   9.682  0.9075  2.2640  1.6624
  821MOL0     H10807   7.625   7.648   9.964  2.6104 -2.9150 -2.3865
  821MOL0     H10808   7.512   7.782   9.922 -1.1804 -0.2940 -1.1581
  821MOL0     H10809   7.722   7.869   9.970  1.8966  0.6619  0.1432
  821MOL0     H10810   7.809   7.766   9.867 -1.1610 -0.6684  0.9915
  821MOL0     H10811   7.619   7.993   9.775  1.1590  1.9455  0.3414
  821MOL0     H10812   7.701   7.874   9.664 -0.8017 -0.8204  1.1380
  821MOL0     H10813   7.825   8.105   9.695  1.2078  1.4552  1.3318
  821MOL0     H10814   7.830   8.066   9.864 -1.1280  0.0867  0.0397
  821MOL0     H10815   7.460   7.614   9.237  0.4550  2.1810 -2.4075
  821MOL0     H10816   7.343   7.817   9.145  0.5012  0.0945  0.6318
  821MOL0     H10817   6.736   8.002   9.189  0.7771  0.2721 -0.0751
  821MOL0     H10818   6.636   8.193   9.067  0.5813 -0.8714 -2.1002
  821MOL0     H10819   6.072   8.325   7.330 -2.0280  1.4679 -4.5630
  821MOL0     H10820   5.833   8.288   7.284  1.6338 -1.6968  1.9949
  821MOL0     H10821   5.429   8.289   7.286 -0.2306 -1.6221 -0.6638
  821MOL0     H10822   5.245   8.137   7.281 -1.9382  1.5991 -0.8660
  821MOL0     H10823   5.092   7.915   7.427 -0.7869 -2.7368 -2.1400
  821MOL0     H10824   5.056   8.014   7.288  2.5785 -1.0699  0.6984
  821MOL0     H10825   4.852   7.939   7.499  1.2230 -3.1563  0.3351
  821MOL0     H10826   4.893   7.848   7.372  0.0580 -1.9317  3.3270
  821MOL0     H10827   4.842   8.035   7.208 -1.1258 -0.9929 -1.4387
  821MOL0     H10828   4.784   8.138   7.344 -2.6228 -1.1503  1.4203
  821MOL0     H10829   4.601   8.085   7.251  2.7712  1.2217 -0.4546
  821MOL0     H10830   4.649   7.916   7.218  4.2306  1.0904 -2.8557
  821MOL0     H10831   4.479   7.968   7.617 -0.7488  1.4789 -1.5580
  821MOL0     H10832   5.116   8.277   7.671 -1.3550  0.7804 -0.3690
  821MOL0     H10833   5.267   8.373   7.811  0.3667  2.4350  0.1721
  821MOL0     H10834   5.431   8.404   7.748  0.1297 -3.7156 -0.3064
  821MOL0     H10835   5.290   8.514   7.707  0.5672 -0.3885 -1.5190
  822MOL0     O10836   2.103  10.155   8.383  0.9133  0.7503 -0.1237
  822MOL0     C10837   2.162  10.099   8.475  0.8030 -0.1266 -0.1762
  822MOL0     O10838   2.224   9.973   8.462  0.2407  0.5847  0.9123
  822MOL0     C10839   2.221   9.917   8.335  0.2239 -0.0993 -0.4546
  822MOL0     C10840   2.338   9.873   8.271  0.2744  0.5468  0.0615
  822MOL0     C10841   2.332   9.799   8.153  0.2310  0.5087  0.4438
  822MOL0     C10842   2.210   9.755   8.098  0.4229 -0.0610  0.1934
  822MOL0     O10843   2.215   9.674   7.987  0.2641 -0.3537 -0.2852
  822MOL0     C10844   2.098   9.623   7.933  0.2730 -0.1806 -0.6148
  822MOL0     C10845   2.134   9.562   7.794 -0.0972  0.5220 -0.0551
  822MOL0     C10846   2.248   9.446   7.787  0.6801 -0.9108  0.2559
  822MOL0     C10847   2.222   9.316   7.868 -0.8826 -0.4744 -0.6082
  822MOL0     C10848   2.334   9.211   7.850  0.3387  0.4062 -0.2384
  822MOL0     C10849   2.320   9.139   7.723 -0.2232  0.3406  0.4907
  822MOL0     C10850   2.418   9.030   7.686  0.0058  0.7856 -0.2256
  822MOL0     C10851   2.391   8.914   7.781  0.7490  0.4819  0.6121
  822MOL0     N10852   2.483   8.798   7.758 -0.3401  1.1383  0.2798
  822MOL0     C10853   2.611   8.776   7.818  0.3206 -0.4734  1.1360
  822MOL0     C10854   2.643   8.647   7.794 -0.6185  0.4409 -0.3538
  822MOL0     C10855   2.768   8.578   7.831 -0.2862  0.0364  0.2690
  822MOL0     C10856   2.820   8.469   7.740  0.0336  0.5567  1.2516
  822MOL0     C10857   2.974   8.453   7.782  0.3022  0.6492  0.1637
  822MOL0     C10858   3.052   8.385   7.659  0.5202  0.1525 -0.9989
  822MOL0     O10859   3.191   8.364   7.696 -0.4256 -0.5000  0.0993
  822MOL0     C10860   3.273   8.301   7.609 -0.3056 -1.3258 -0.3271
  822MOL0     C10861   3.396   8.250   7.651 -0.1253 -0.2796 -0.0094
  822MOL0     C10862   3.486   8.195   7.568 -0.3513  0.6706  0.5323
  822MOL0     C10863   3.448   8.171   7.431  1.0917  0.3687  0.4283
  822MOL0     C10864   3.531   8.119   7.325 -0.3834  0.6666  0.1719
  822MOL0     O10865   3.647   8.054   7.365  0.6414  0.3732  0.1928
  822MOL0     C10866   3.728   7.992   7.269  0.0391 -0.1596  1.0513
  822MOL0     C10867   3.745   7.852   7.275  0.1428  0.4678 -0.2629
  822MOL0     C10868   3.836   7.786   7.196  0.2391  0.1109  0.0821
  822MOL0     C10869   3.905   7.851   7.096 -0.4562 -0.0647 -0.4465
  822MOL0     O10870   3.974   7.776   7.003  0.0103  0.1712  0.4985
  822MOL0     C10871   4.054   7.841   6.893  0.6162  1.3082  0.6233
  822MOL0     C10872   4.195   7.884   6.951  1.0295  0.6821  0.0815
  822MOL0     C10873   4.264   7.772   7.028  0.1779  0.7416 -0.7302
  822MOL0     C10874   4.413   7.800   7.066  1.0017  0.2714  0.2997
  822MOL0     C10875   4.512   7.686   7.102  0.5235  0.2232  0.2531
  822MOL0     C10876   4.450   7.561   7.165 -0.2731 -0.4353  0.1276
  822MOL0     C10877   4.400   7.581   7.309  0.4255 -0.4831  0.2824
  822MOL0     C10878   4.380   7.451   7.380  0.5622  0.8764 -0.7086
  822MOL0    Cl10879   4.224   7.434   7.459  0.2737  0.2523 -0.3117
  822MOL0     C10880   3.894   7.990   7.092  0.7049 -0.0950 -0.1100
  822MOL0     C10881   3.815   8.059   7.183  1.1419 -0.6923 -1.0834
  822MOL0     O10882   3.495   8.138   7.206 -0.0704  0.3052 -0.5496
  822MOL0     C10883   3.326   8.217   7.388  0.4950  0.2439  0.1050
  822MOL0     C10884   3.241   8.279   7.475  0.5680  0.3716 -0.2567
  822MOL0     N10885   2.544   8.589   7.715  0.0624 -0.7081 -0.4390
  822MOL0     N10886   2.453   8.681   7.695  0.4722  0.1513 -0.4539
  822MOL0     C10887   2.089   9.793   8.178 -0.2887  0.5258  1.6269
  822MOL0     C10888   2.099   9.874   8.284 -0.5535 -0.1756 -0.9389
  822MOL0     C10889   2.152  10.145   8.618 -0.8892 -0.4205 -0.4368
  822MOL0     C10890   2.266  10.125   8.707  0.5260  0.2900  0.4782
  822MOL0     C10891   2.259  10.149   8.843 -0.1126  0.3496 -0.0680
  822MOL0     C10892   2.139  10.197   8.903 -0.9984 -0.6262 -0.2749
  822MOL0     O10893   2.123  10.208   9.034 -0.1909  0.4999 -0.9766
  822MOL0     C10894   2.223  10.269   9.110 -0.0326 -0.3128  0.2369
  822MOL0     C10895   2.184  10.420   9.132  0.0662 -0.6127 -0.0196
  822MOL0     C10896   2.038  10.450   9.193  0.8615  0.3910  0.8654
  822MOL0     C10897   1.979  10.595   9.194  0.3876 -0.3541  1.0860
  822MOL0     C10898   1.937  10.633   9.057 -0.1013  0.4400  0.0487
  822MOL0     C10899   1.899  10.664   8.944  0.2438  0.2205  0.0258
  822MOL0     C10900   2.037  10.226   8.818 -0.1142 -0.2527  0.4806
  822MOL0     C10901   2.043  10.204   8.677  0.1769  0.3198 -0.0180
  822MOL0     C10902   1.925  10.249   8.591  0.3156 -0.0351 -0.2623
  822MOL0     H10903   2.429   9.899   8.324  0.2418 -2.7292  2.0180
  822MOL0     H10904   2.426   9.769   8.109  0.4887 -1.4456  2.1753
  822MOL0     H10905   2.059   9.552   8.007 -2.3485  1.0497 -0.7202
  822MOL0     H10906   2.018   9.697   7.924 -0.5866 -1.1854 -1.4116
  822MOL0     H10907   2.170   9.638   7.725 -0.3533 -1.3639 -2.3971
  822MOL0     H10908   2.045   9.512   7.755 -1.1949  1.5235  1.0939
  822MOL0     H10909   2.343   9.492   7.817 -1.0677  1.6021  2.4295
  822MOL0     H10910   2.276   9.426   7.683  0.7150 -2.2982  0.5093
  822MOL0     H10911   2.211   9.344   7.973 -0.3274  2.0752 -1.1713
  822MOL0     H10912   2.129   9.269   7.835 -1.2927 -0.8032  0.9175
  822MOL0     H10913   2.432   9.259   7.850  1.7271 -2.2357 -0.2771
  822MOL0     H10914   2.313   9.143   7.934 -1.0808  0.7570 -0.2690
  822MOL0     H10915   2.218   9.120   7.690 -0.0100  2.0786 -1.3933
  822MOL0     H10916   2.346   9.217   7.650 -1.6724  0.2385 -0.1714
  822MOL0     H10917   2.517   9.072   7.709 -0.3761  0.8818  1.3578
  822MOL0     H10918   2.428   8.999   7.582  1.6704  0.1710  0.0742
  822MOL0     H10919   2.392   8.937   7.888  0.7303  1.1692  0.4665
  822MOL0     H10920   2.290   8.887   7.748  0.7640  2.6889 -1.5470
  822MOL0     H10921   2.659   8.850   7.882  1.0345  0.3211 -0.2780
  822MOL0     H10922   2.847   8.655   7.829 -0.9522  0.9505 -4.7090
  822MOL0     H10923   2.772   8.544   7.935 -1.4807  1.6134  0.8697
  822MOL0     H10924   2.757   8.382   7.758  1.4940 -0.1002  3.6218
  822MOL0     H10925   2.810   8.500   7.635  0.2787 -0.8200  0.8109
  822MOL0     H10926   2.997   8.396   7.873  0.3209 -0.1868 -0.3447
  822MOL0     H10927   3.013   8.554   7.792  0.1019  1.2790 -3.7609
  822MOL0     H10928   3.034   8.441   7.567  1.8277  2.5758  0.1422
  822MOL0     H10929   3.014   8.285   7.635  3.6840 -1.2241 -0.8110
  822MOL0     H10930   3.423   8.293   7.747 -3.8693  3.5075 -0.3725
  822MOL0     H10931   3.583   8.173   7.610  0.8430  3.5390 -0.4705
  822MOL0     H10932   3.694   7.786   7.344 -0.7001  0.0006 -1.2854
  822MOL0     H10933   3.841   7.678   7.184 -0.3285  0.4054 -3.9165
  822MOL0     H10934   4.064   7.755   6.825  1.4487  2.0298 -0.1898
  822MOL0     H10935   4.006   7.926   6.844 -0.3193  1.1851  1.2942
  822MOL0     H10936   4.261   7.912   6.868 -0.6978  3.1623 -0.5681
  822MOL0     H10937   4.177   7.963   7.023  1.0467 -0.9184  1.9193
  822MOL0     H10938   4.215   7.726   7.114 -1.3595 -3.7353 -3.6091
  822MOL0     H10939   4.247   7.685   6.963 -3.4532  0.1321  0.7802
  822MOL0     H10940   4.405   7.859   7.157 -2.3720 -1.0265  0.9984
  822MOL0     H10941   4.467   7.859   6.991  0.7652  0.3022  0.1517
  822MOL0     H10942   4.606   7.723   7.145  0.0582  0.3789  1.1752
  822MOL0     H10943   4.543   7.633   7.012  1.3365 -0.6974  1.0452
  822MOL0     H10944   4.365   7.522   7.109  0.2430 -0.3388 -0.7457
  822MOL0     H10945   4.537   7.494   7.159  0.1249  0.0495  0.3908
  822MOL0     H10946   4.299   7.623   7.307 -0.1908 -1.5628  3.0362
  822MOL0     H10947   4.459   7.648   7.372  0.9502  0.7891 -1.4842
  822MOL0     H10948   4.378   7.363   7.316  1.6673 -0.0896  0.5308
  822MOL0     H10949   4.470   7.447   7.443  3.2065  1.0660 -4.1789
  822MOL0     H10950   3.947   8.039   7.010 -2.2951  3.6240 -0.1016
  822MOL0     H10951   3.818   8.168   7.193  0.0304 -0.8194  1.6104
  822MOL0     H10952   3.292   8.199   7.287 -1.4940 -0.5665  0.8601
  822MOL0     H10953   3.142   8.307   7.439  0.5535  1.6669  0.7138
  822MOL0     H10954   1.986   9.771   8.153 -0.3227  2.0450  0.3061
  822MOL0     H10955   2.014   9.885   8.350 -0.3901 -0.1515 -0.7289
  822MOL0     H10956   2.354  10.077   8.666  1.2901  0.2512  2.0753
  822MOL0     H10957   2.351  10.140   8.901  0.0328 -0.6336 -0.4362
  822MOL0     H10958   2.329  10.261   9.084  0.7560  4.2973  1.2959
  822MOL0     H10959   2.207  10.219   9.206 -2.8095  1.6053  0.9161
  822MOL0     H10960   2.210  10.475   9.041 -2.3947  1.4957  0.4366
  822MOL0     H10961   2.251  10.462   9.208  1.2259 -2.2483 -0.0862
  822MOL0     H10962   2.043  10.412   9.296  2.2282  0.1159  0.7174
  822MOL0     H10963   1.968  10.392   9.132 -0.7813  3.5327 -0.4274
  822MOL0     H10964   1.901  10.611   9.270 -1.4218 -2.0028 -0.3404
  822MOL0     H10965   2.057  10.667   9.220 -1.1709  1.7240  0.3170
  822MOL0     H10966   1.863  10.704   8.851 -3.4244 -3.4796 -0.4335
  822MOL0     H10967   1.960  10.287   8.864  2.1064  2.0661  1.3498
  822MOL0     H10968   1.951  10.331   8.523 -1.1907  1.6770  1.1072
  822MOL0     H10969   1.893  10.165   8.529 -1.9568  0.1093  0.6123
  822MOL0     H10970   1.835  10.273   8.649  0.3869 -0.3556 -0.0155
  823MOL0     O10971   9.185   0.208   8.160  0.0418 -0.3505  0.1153
  823MOL0     C10972   9.078   0.176   8.108 -0.2305  0.1224  0.2973
  823MOL0     O10973   9.078   0.107   7.984 -0.1019 -0.0999  0.0980
  823MOL0     C10974   9.187   0.097   7.899 -0.4432 -0.3066 -0.9003
  823MOL0     C10975   9.281   0.195   7.880 -0.4235 -0.6257  0.4250
  823MOL0     C10976   9.394   0.184   7.800 -0.6967 -0.6990  0.9211
  823MOL0     C10977   9.412   0.069   7.730  0.7914  0.5262  0.6106
  823MOL0     O10978   9.529   0.068   7.660  0.2293  0.1347 -0.0526
  823MOL0     C10979   9.541  -0.029   7.551  0.2772 -0.5026  0.1138
  823MOL0     C10980   9.693  -0.028   7.535 -0.6123  0.5243  0.1089
  823MOL0     C10981   9.754  -0.141   7.630  0.0964 -0.8164  0.5281
  823MOL0     C10982   9.774  -0.275   7.544 -0.6360 -0.3213 -0.6721
  823MOL0     C10983   9.814  -0.403   7.621 -0.0225  0.0900  1.1466
  823MOL0     C10984   9.860  -0.514   7.526 -0.3502  0.5837 -0.3046
  823MOL0     C10985   9.903  -0.637   7.604 -0.1739 -0.6492 -0.4834
  823MOL0     C10986   9.889  -0.767   7.521 -0.1261 -0.1126  0.0818
  823MOL0     N10987   9.972  -0.877   7.558 -1.0350  0.5933  0.0218
  823MOL0     C10988   9.968  -0.999   7.502 -0.3803  0.0867  0.0897
  823MOL0     C10989  10.016  -1.081   7.598  0.2082 -0.3068 -0.1824
  823MOL0     C10990  10.034  -1.231   7.580  0.3400 -0.6767  0.7289
  823MOL0     C10991   9.914  -1.296   7.636  0.6366 -0.4250  0.1719
  823MOL0     C10992   9.908  -1.281   7.788 -0.9474  0.2563 -1.1290
  823MOL0     C10993   9.817  -1.374   7.843  0.0121  0.3825  0.6321
  823MOL0     O10994   9.687  -1.327   7.809 -0.6627 -0.5817 -0.0546
  823MOL0     C10995   9.607  -1.271   7.905  0.7820 -1.2964 -0.1337
  823MOL0     C10996   9.586  -1.315   8.040 -0.2260 -0.6033  0.6544
  823MOL0     C10997   9.508  -1.234   8.124  0.0010  0.3018 -0.2590
  823MOL0     C10998   9.449  -1.113   8.079  0.1117 -0.5217  0.3667
  823MOL0     C10999   9.361  -1.033   8.165 -1.1163 -0.8724  0.6127
  823MOL0     O11000   9.290  -0.932   8.104  0.6680 -0.1676 -0.4402
  823MOL0     C11001   9.206  -0.844   8.178 -0.2760 -0.7394 -0.8654
  823MOL0     C11002   9.076  -0.792   8.135 -1.1054  0.5288  0.4663
  823MOL0     C11003   8.996  -0.725   8.229 -0.2115 -0.1067 -0.2122
  823MOL0     C11004   9.037  -0.678   8.351 -0.4021 -0.6745  0.3218
  823MOL0     O11005   8.952  -0.594   8.425  0.1776 -0.4078 -0.4640
  823MOL0     C11006   8.904  -0.652   8.550  0.8896  0.3590  0.4494
  823MOL0     C11007   8.792  -0.751   8.535  0.5942 -0.2065 -1.1753
  823MOL0     C11008   8.736  -0.782   8.681 -0.6482 -0.0615 -0.8798
  823MOL0     C11009   8.621  -0.883   8.673  0.6618 -0.2567  0.0161
  823MOL0     C11010   8.570  -0.910   8.815 -0.1895  0.1847  0.1378
  823MOL0     C11011   8.429  -0.966   8.823  0.2290  0.5837  0.2092
  823MOL0     C11012   8.412  -1.101   8.751  0.7525 -0.6547  0.3742
  823MOL0     C11013   8.284  -1.162   8.796 -0.2708  0.5917  0.2758
  823MOL0    Cl11014   8.232  -1.299   8.690  0.1113  0.4183  0.2642
  823MOL0     C11015   9.170  -0.707   8.381  0.7358  0.7104 -0.7689
  823MOL0     C11016   9.246  -0.789   8.302  0.4766  0.6888  0.4284
  823MOL0     O11017   9.358  -1.069   8.276  0.2758 -0.7238 -0.2063
  823MOL0     C11018   9.459  -1.076   7.947 -0.0047  0.4766  0.0044
  823MOL0     C11019   9.542  -1.155   7.861 -1.0370  0.0018  0.3442
  823MOL0     N11020  10.076  -1.000   7.692 -0.6136  0.1842  0.6841
  823MOL0     N11021  10.039  -0.879   7.678  0.4342  0.6820 -0.4938
  823MOL0     C11022   9.321  -0.042   7.742 -0.0967 -0.4131  0.6049
  823MOL0     C11023   9.200  -0.025   7.825 -0.2083 -0.4955 -1.3159
  823MOL0     C11024   8.954   0.197   8.182 -0.2412 -0.1299  0.5305
  823MOL0     C11025   8.837   0.153   8.122 -0.4944 -0.6304  0.7111
  823MOL0     C11026   8.724   0.151   8.183 -0.1859 -1.6454  0.2727
  823MOL0     C11027   8.704   0.196   8.311 -0.8387  0.2505  0.6162
  823MOL0     O11028   8.592   0.191   8.391 -0.2146 -0.1804  0.1574
  823MOL0     C11029   8.492   0.088   8.371  0.9171 -0.2113  0.7046
  823MOL0     C11030   8.408   0.058   8.497  0.2308 -0.3329  0.1441
  823MOL0     C11031   8.295   0.163   8.495 -0.0320  0.9964 -0.4656
  823MOL0     C11032   8.272   0.241   8.630  0.9047  0.1667  0.1865
  823MOL0     C11033   8.394   0.296   8.696  0.8837 -0.8068  0.9601
  823MOL0     C11034   8.498   0.352   8.739 -0.7743 -0.1757  0.9076
  823MOL0     C11035   8.815   0.231   8.380  0.0071  0.3636 -0.2283
  823MOL0     C11036   8.942   0.248   8.311  0.3491  0.0727  0.7836
  823MOL0     C11037   9.044   0.308   8.388 -0.1962  0.1989 -0.7161
  823MOL0     H11038   9.253   0.283   7.937  1.7406  0.7443 -0.4719
  823MOL0     H11039   9.475   0.256   7.799  2.8151 -4.2547  2.2108
  823MOL0     H11040   9.513  -0.133   7.568  2.8489 -1.5075 -1.3032
  823MOL0     H11041   9.493   0.012   7.461  2.1011 -0.4303 -0.8622
  823MOL0     H11042   9.733   0.073   7.550  0.4768 -0.2074  2.8313
  823MOL0     H11043   9.704  -0.049   7.428 -2.3328  2.6645 -0.5710
  823MOL0     H11044   9.683  -0.142   7.713  0.8461  4.6405  1.5847
  823MOL0     H11045   9.846  -0.100   7.671  0.3801 -1.0678  0.1619
  823MOL0     H11046   9.681  -0.305   7.494 -0.4474 -0.9823 -0.6303
  823MOL0     H11047   9.861  -0.255   7.482 -1.1246  1.7687 -0.7650
  823MOL0     H11048   9.901  -0.372   7.680  1.1335 -0.2366 -0.3223
  823MOL0     H11049   9.732  -0.431   7.687 -0.3388 -1.5440  0.1225
  823MOL0     H11050   9.780  -0.545   7.458  0.5073  1.4867 -1.7866
  823MOL0     H11051   9.945  -0.481   7.465  3.0663 -4.5599  1.0658
  823MOL0     H11052   9.841  -0.643   7.695 -1.8308  2.6354 -1.2466
  823MOL0     H11053  10.006  -0.617   7.635 -0.0049 -1.8828 -0.1801
  823MOL0     H11054   9.783  -0.793   7.531 -0.6109  0.4149 -2.7730
  823MOL0     H11055   9.917  -0.755   7.416  0.9248 -1.4675  0.1870
  823MOL0     H11056   9.916  -1.028   7.411  2.0377 -0.2651 -1.2532
  823MOL0     H11057  10.046  -1.246   7.473 -3.4446  3.1137 -0.4977
  823MOL0     H11058  10.131  -1.246   7.630  1.5303  0.0418 -1.2687
  823MOL0     H11059   9.824  -1.241   7.608  1.4267  1.4487  1.1442
  823MOL0     H11060   9.917  -1.400   7.602 -1.1757  0.1420 -1.9169
  823MOL0     H11061   9.892  -1.183   7.832  0.3374 -0.8359  2.0276
  823MOL0     H11062  10.003  -1.307   7.835 -1.8238 -0.0364  0.5565
  823MOL0     H11063   9.824  -1.387   7.951 -2.1881  4.3747  1.4843
  823MOL0     H11064   9.818  -1.467   7.786 -1.6840 -0.2338  1.5350
  823MOL0     H11065   9.635  -1.406   8.073 -1.1753 -1.7462 -0.9467
  823MOL0     H11066   9.498  -1.267   8.227 -0.3097  0.8474 -0.1077
  823MOL0     H11067   9.045  -0.831   8.038  0.2282 -1.4797  0.7669
  823MOL0     H11068   8.904  -0.676   8.197  0.4263  2.8690  2.0733
  823MOL0     H11069   8.984  -0.701   8.606 -1.5289 -2.9853  1.2880
  823MOL0     H11070   8.868  -0.566   8.607 -1.9802 -1.8581  2.2520
  823MOL0     H11071   8.709  -0.708   8.479  0.9836  1.3034 -0.6572
  823MOL0     H11072   8.832  -0.841   8.488 -0.6524 -1.4693  0.1045
  823MOL0     H11073   8.826  -0.814   8.734  0.7982  1.1108 -2.5284
  823MOL0     H11074   8.688  -0.693   8.723  0.4601  1.4280 -2.6203
  823MOL0     H11075   8.655  -0.976   8.626  1.8541 -0.6501  1.5787
  823MOL0     H11076   8.533  -0.849   8.618 -0.0141 -2.6987 -0.5127
  823MOL0     H11077   8.579  -0.823   8.881  2.4004 -1.2052  1.7862
  823MOL0     H11078   8.629  -0.983   8.872 -0.4113  1.0804  1.5731
  823MOL0     H11079   8.413  -0.983   8.930  1.3964  2.1508  0.6609
  823MOL0     H11080   8.363  -0.887   8.786  0.1459  2.4287  3.9099
  823MOL0     H11081   8.495  -1.171   8.761 -1.6710 -3.7947  0.3267
  823MOL0     H11082   8.399  -1.076   8.645 -1.6888 -0.3260  0.6897
  823MOL0     H11083   8.293  -1.192   8.901  0.0492 -1.7382 -0.3533
  823MOL0     H11084   8.196  -1.097   8.794 -0.7311  0.1345  2.6814
  823MOL0     H11085   9.211  -0.655   8.466  2.8363 -1.4983 -0.3378
  823MOL0     H11086   9.351  -0.805   8.326  0.9669  4.3343  1.2165
  823MOL0     H11087   9.412  -0.986   7.905  0.9595  1.0592  0.1512
  823MOL0     H11088   9.564  -1.122   7.760  1.4412 -0.4797  0.6841
  823MOL0     H11089   9.329  -0.132   7.683  0.3472 -0.9550  1.4561
  823MOL0     H11090   9.119  -0.095   7.834  0.9059 -2.2582 -3.9290
  823MOL0     H11091   8.850   0.106   8.025 -1.7495  0.0991  0.1768
  823MOL0     H11092   8.641   0.094   8.141  1.6325 -3.7795 -0.5985
  823MOL0     H11093   8.538  -0.005   8.337  1.9408  0.4463  0.2351
  823MOL0     H11094   8.437   0.121   8.282  1.7779  2.9411  1.2213
  823MOL0     H11095   8.453   0.056   8.597  0.0095 -0.6339  0.2414
  823MOL0     H11096   8.367  -0.043   8.491  2.3318 -1.2899  0.8965
  823MOL0     H11097   8.200   0.117   8.467 -0.3089  1.1638  0.1751
  823MOL0     H11098   8.320   0.241   8.422 -0.3128  1.9693  0.4530
  823MOL0     H11099   8.207   0.323   8.597 -0.0856 -0.2069  1.1178
  823MOL0     H11100   8.205   0.189   8.699  0.1944 -0.5363 -0.9900
  823MOL0     H11101   8.590   0.404   8.756  0.1172 -1.4029  0.0420
  823MOL0     H11102   8.803   0.260   8.484 -0.7540  1.4966 -0.6111
  823MOL0     H11103   9.088   0.395   8.338  2.3165  0.7653  2.1604
  823MOL0     H11104   9.013   0.356   8.481  2.6881 -1.7750  1.4368
  823MOL0     H11105   9.125   0.237   8.411  0.7192  1.6747  0.8475
  824MOL0     O11106   7.404   9.730   8.952 -0.1193 -0.3815 -0.5159
  824MOL0     C11107   7.369   9.775   8.840  0.8764 -0.0681 -0.0541
  824MOL0     O11108   7.242   9.756   8.789  0.4099  0.1382  0.3315
  824MOL0     C11109   7.157   9.677   8.860 -0.5599  1.2700  0.0285
  824MOL0     C11110   7.037   9.722   8.892 -0.0942  0.0097 -0.1345
  824MOL0     C11111   6.946   9.644   8.958  0.0528 -0.6490  0.9952
  824MOL0     C11112   6.974   9.511   8.983  0.6111 -0.1608 -0.6490
  824MOL0     O11113   6.870   9.446   9.042 -0.0378  0.4629 -0.8897
  824MOL0     C11114   6.886   9.307   9.077 -0.8171  0.6226  0.0665
  824MOL0     C11115   6.750   9.229   9.107  0.4597 -0.5510 -0.2409
  824MOL0     C11116   6.639   9.267   9.014 -0.7376 -0.2432  0.3526
  824MOL0     C11117   6.501   9.190   9.051 -0.5699  0.5701 -0.7936
  824MOL0     C11118   6.372   9.265   8.997  0.2988  0.1890 -1.0017
  824MOL0     C11119   6.326   9.210   8.864  0.1120 -0.1646  0.4735
  824MOL0     C11120   6.178   9.219   8.844  0.6278  0.6088 -1.0140
  824MOL0     C11121   6.107   9.112   8.938  1.0846  0.7892  0.2165
  824MOL0     N11122   5.966   9.111   8.894 -0.1481  0.1449 -0.0036
  824MOL0     C11123   5.874   9.189   8.956 -0.4956  0.2171 -0.3328
  824MOL0     C11124   5.760   9.178   8.881  0.0525 -1.4257 -0.3332
  824MOL0     C11125   5.635   9.261   8.899  1.1512 -0.5714  1.0488
  824MOL0     C11126   5.564   9.238   9.040 -0.2051  0.1457  0.1362
  824MOL0     C11127   5.496   9.368   9.094  0.4839  0.5502 -0.8101
  824MOL0     C11128   5.450   9.359   9.244 -0.3874  0.1563 -0.5826
  824MOL0     O11129   5.344   9.257   9.253  0.5128  0.4294 -0.6736
  824MOL0     C11130   5.212   9.299   9.226  0.5101 -0.7115 -0.1572
  824MOL0     C11131   5.111   9.202   9.208  0.3809  0.1960 -0.5535
  824MOL0     C11132   4.968   9.227   9.210 -0.2649 -0.4327  0.3037
  824MOL0     C11133   4.928   9.363   9.216 -0.2846  0.8237 -0.0815
  824MOL0     C11134   4.787   9.395   9.208  0.6555 -1.5805 -0.4547
  824MOL0     O11135   4.707   9.304   9.160  0.9228 -0.2625 -0.9637
  824MOL0     C11136   4.584   9.360   9.097 -0.8638 -0.3920  0.1724
  824MOL0     C11137   4.496   9.429   9.173  0.0368 -0.2592  0.4270
  824MOL0     C11138   4.381   9.483   9.110 -0.0060  0.2565  0.1290
  824MOL0     C11139   4.353   9.461   8.975  0.3156 -0.2716  0.1217
  824MOL0     O11140   4.248   9.517   8.907 -0.5820 -1.0227  0.0102
  824MOL0     C11141   4.166   9.616   8.959  0.0769 -0.0293 -0.6302
  824MOL0     C11142   4.206   9.765   8.933  0.8301  0.5100 -0.2896
  824MOL0     C11143   4.092   9.849   8.982 -0.3727  0.0529 -0.5661
  824MOL0     C11144   3.977   9.871   8.874  0.8912 -0.0628 -0.0000
  824MOL0     C11145   4.024   9.933   8.739 -0.4843 -0.3721 -0.7191
  824MOL0     C11146   4.087  10.077   8.752  0.2027  1.1205  0.1896
  824MOL0     C11147   4.007  10.185   8.838 -0.2487  0.9038 -0.4321
  824MOL0     C11148   4.063  10.331   8.829  0.9675  0.5067 -0.3564
  824MOL0    Cl11149   4.227  10.339   8.877 -0.1272  0.2971  0.0384
  824MOL0     C11150   4.440   9.378   8.906 -0.8100 -0.4371  0.2680
  824MOL0     C11151   4.555   9.324   8.969  0.2917 -0.4825 -0.0062
  824MOL0     O11152   4.756   9.512   9.226  0.2195 -0.3393  0.0557
  824MOL0     C11153   5.024   9.463   9.226 -0.6574 -0.1165  0.1841
  824MOL0     C11154   5.158   9.429   9.228 -0.2758 -0.2493 -0.3344
  824MOL0     N11155   5.784   9.099   8.774 -0.7471 -0.3454 -0.3925
  824MOL0     N11156   5.909   9.072   8.785 -0.3288 -0.1378  0.3902
  824MOL0     C11157   7.107   9.472   8.970 -0.2175 -0.0291  0.0309
  824MOL0     C11158   7.199   9.548   8.895 -0.4632 -0.5000  0.9850
  824MOL0     C11159   7.461   9.855   8.772  0.9503 -0.5998 -0.2486
  824MOL0     C11160   7.460   9.842   8.633  0.8662 -1.5214 -0.5295
  824MOL0     C11161   7.560   9.896   8.559 -1.0411  0.1869 -1.0776
  824MOL0     C11162   7.670   9.961   8.613 -0.1112  0.0219 -0.4192
  824MOL0     O11163   7.775   9.982   8.526  0.4133  0.2401  0.9840
  824MOL0     C11164   7.882  10.060   8.566  0.1812 -0.1150 -0.3207
  824MOL0     C11165   7.971  10.080   8.430  0.4885 -0.0978  0.3443
  824MOL0     C11166   8.020  10.224   8.401 -0.0829  0.4357 -0.2765
  824MOL0     C11167   8.042  10.235   8.248 -0.9329 -0.2753 -0.6232
  824MOL0     C11168   8.092  10.368   8.225 -0.6153 -0.9751  0.5752
  824MOL0     C11169   8.138  10.478   8.226  0.3542 -0.9462  0.5007
  824MOL0     C11170   7.660   9.987   8.755  0.0783  0.5504  1.6142
  824MOL0     C11171   7.560   9.939   8.836  0.6534 -0.7519 -0.1973
  824MOL0     C11172   7.560   9.994   8.975 -0.6780  0.5656 -0.4593
  824MOL0     H11173   7.016   9.824   8.863  1.5348  0.3803 -0.1255
  824MOL0     H11174   6.848   9.675   8.994  1.0172  1.9835  1.6407
  824MOL0     H11175   6.923   9.261   8.985 -1.5212  1.0764 -0.4478
  824MOL0     H11176   6.958   9.278   9.154 -0.2271 -2.8463 -1.5926
  824MOL0     H11177   6.728   9.236   9.214 -1.0434 -0.9729 -0.4990
  824MOL0     H11178   6.759   9.121   9.094  1.3506 -0.3636 -1.2591
  824MOL0     H11179   6.671   9.249   8.911 -1.4770 -1.1096  0.2522
  824MOL0     H11180   6.618   9.374   9.019  0.8877  0.3058 -2.5491
  824MOL0     H11181   6.499   9.085   9.020 -2.2283 -0.4945  2.4193
  824MOL0     H11182   6.506   9.193   9.160 -0.1799 -3.2994 -0.5716
  824MOL0     H11183   6.298   9.238   9.073 -0.2847 -1.0940 -1.9837
  824MOL0     H11184   6.374   9.374   8.997  3.9552  0.2329 -0.1827
  824MOL0     H11185   6.380   9.255   8.780 -0.0230  0.2741  0.6177
  824MOL0     H11186   6.350   9.104   8.861 -0.4347 -0.3116  1.0031
  824MOL0     H11187   6.155   9.205   8.739 -1.3580 -1.8574 -0.3203
  824MOL0     H11188   6.131   9.314   8.872  1.1243  1.3687 -2.6542
  824MOL0     H11189   6.144   9.009   8.929 -0.2633  0.2814  0.1916
  824MOL0     H11190   6.111   9.128   9.046 -0.4464  0.0243  0.4150
  824MOL0     H11191   5.894   9.252   9.042  0.8299  0.1131 -0.5459
  824MOL0     H11192   5.656   9.365   8.872  3.5929 -1.3441 -0.3279
  824MOL0     H11193   5.559   9.230   8.826 -0.6401 -0.0481  2.5995
  824MOL0     H11194   5.490   9.158   9.026 -1.0274  0.7998  0.6661
  824MOL0     H11195   5.644   9.212   9.110  1.5002 -0.0619 -1.8037
  824MOL0     H11196   5.413   9.392   9.027 -0.2223 -2.9377 -1.4302
  824MOL0     H11197   5.572   9.446   9.094  1.0853  0.1055  2.1743
  824MOL0     H11198   5.411   9.450   9.291 -4.2730 -2.2785  1.3434
  824MOL0     H11199   5.536   9.340   9.309  1.2232  1.0441 -2.3089
  824MOL0     H11200   5.153   9.106   9.178  1.4039 -0.3908  2.4081
  824MOL0     H11201   4.893   9.150   9.199 -0.6546 -0.1782  1.0653
  824MOL0     H11202   4.519   9.447   9.278 -1.8350 -0.6207  0.9485
  824MOL0     H11203   4.310   9.535   9.173 -1.7181 -3.2578  1.3391
  824MOL0     H11204   4.076   9.619   8.897 -0.0390 -0.6317 -0.4898
  824MOL0     H11205   4.145   9.598   9.065 -0.6683  0.2110 -0.7294
  824MOL0     H11206   4.296   9.797   8.988  1.7197  1.8970 -2.4389
  824MOL0     H11207   4.226   9.775   8.826  1.1188  0.8732 -0.2043
  824MOL0     H11208   4.045   9.811   9.073  0.7986 -0.2341 -0.0643
  824MOL0     H11209   4.126   9.949   9.009  0.9161 -0.6873  0.6675
  824MOL0     H11210   3.900   9.939   8.913  1.8196  0.6853  0.5743
  824MOL0     H11211   3.925   9.779   8.846 -0.5842  1.4337 -2.6030
  824MOL0     H11212   3.945   9.939   8.664 -0.2963  0.0774 -0.8842
  824MOL0     H11213   4.105   9.877   8.690 -0.3547 -0.0493 -0.8760
  824MOL0     H11214   4.188  10.062   8.792  0.4314 -1.0136 -1.0329
  824MOL0     H11215   4.101  10.125   8.655 -0.2454 -1.6930 -1.3833
  824MOL0     H11216   3.998  10.161   8.944  1.6767  1.9055  0.0017
  824MOL0     H11217   3.907  10.192   8.793 -0.6152 -0.2968  0.1467
  824MOL0     H11218   4.059  10.381   8.731  1.4732  2.3202  0.5104
  824MOL0     H11219   3.998  10.386   8.898 -1.9664  0.0234 -2.5195
  824MOL0     H11220   4.418   9.353   8.802 -2.4964 -2.0929  0.9667
  824MOL0     H11221   4.625   9.262   8.915  0.3622  0.9655 -1.6696
  824MOL0     H11222   5.000   9.568   9.212 -2.1488 -0.0036  2.9555
  824MOL0     H11223   5.233   9.508   9.230 -1.1365  0.5785  0.7553
  824MOL0     H11224   7.146   9.378   9.008  0.9016 -0.0530 -1.0952
  824MOL0     H11225   7.293   9.503   8.865 -0.5238 -2.4425  3.3263
  824MOL0     H11226   7.388   9.796   8.566 -0.3137  0.1731 -0.4956
  824MOL0     H11227   7.563   9.872   8.453  0.1208  0.5299 -1.1273
  824MOL0     H11228   7.942  10.008   8.642  1.4070  1.0497 -0.4462
  824MOL0     H11229   7.840  10.152   8.606  0.7739  0.1105 -0.2045
  824MOL0     H11230   7.913  10.053   8.341  0.3571  2.4938 -0.4414
  824MOL0     H11231   8.058  10.016   8.451  0.9711  0.2048 -0.6264
  824MOL0     H11232   8.113  10.244   8.455 -0.0309 -1.6104  0.4932
  824MOL0     H11233   7.942  10.294   8.430 -1.2142 -1.9774  3.1527
  824MOL0     H11234   8.119  10.165   8.217  1.3003  2.4752 -1.6806
  824MOL0     H11235   7.953  10.210   8.189 -0.9222 -3.8523  0.6589
  824MOL0     H11236   8.195  10.568   8.218 -1.8590  0.4566 -0.6486
  824MOL0     H11237   7.754  10.022   8.798 -0.1993  3.2856  0.1943
  824MOL0     H11238   7.657  10.044   8.990 -1.7576  2.0427  2.1763
  824MOL0     H11239   7.484  10.071   8.967 -0.5042  0.8671  0.6723
  824MOL0     H11240   7.534   9.926   9.057  0.5088  0.9705  0.2783
  825MOL0     O11241  10.539   5.633   1.673  0.4290  0.2981 -0.1328
  825MOL0     C11242  10.455   5.622   1.755  0.7013  0.2560  0.5924
  825MOL0     O11243  10.470   5.565   1.879  0.0533  0.3753  0.2517
  825MOL0     C11244  10.575   5.470   1.885  0.8598  0.0759  0.9063
  825MOL0     C11245  10.692   5.504   1.955  0.1255 -0.2719  0.0466
  825MOL0     C11246  10.798   5.417   1.949 -0.6259 -0.1426 -1.1100
  825MOL0     C11247  10.807   5.300   1.877  0.9170 -0.3908  1.0289
  825MOL0     O11248  10.916   5.219   1.903  0.2096 -0.4932  0.2667
  825MOL0     C11249  10.927   5.113   1.809 -0.6530  0.0689  0.1539
  825MOL0     C11250  11.034   5.012   1.860  0.4134  0.2092  0.4407
  825MOL0     C11251  11.028   4.877   1.773 -0.3710 -0.2586  0.8490
  825MOL0     C11252  11.108   4.900   1.636 -0.2979 -0.9873  0.7817
  825MOL0     C11253  11.098   4.788   1.527  0.2529 -0.3668  0.0302
  825MOL0     C11254  11.181   4.830   1.401 -0.0542 -0.7053 -0.2153
  825MOL0     C11255  11.156   4.732   1.284 -1.4338 -0.6266  0.0084
  825MOL0     C11256  11.212   4.803   1.159  0.3522 -0.7928  0.0118
  825MOL0     N11257  11.157   4.732   1.039  0.1215  0.0960 -0.1092
  825MOL0     C11258  11.219   4.634   0.963 -0.0004  0.0952 -0.2054
  825MOL0     C11259  11.138   4.615   0.855 -0.0837  0.5363 -1.0176
  825MOL0     C11260  11.186   4.533   0.747 -1.3889  0.0402 -0.4491
  825MOL0     C11261  11.072   4.454   0.694 -0.0142 -0.1510 -0.1865
  825MOL0     C11262  11.122   4.351   0.593  0.7688  0.3477  1.0201
  825MOL0     C11263  11.066   4.202   0.602 -0.2204  0.5722  0.1952
  825MOL0     O11264  11.070   4.152   0.739 -0.4513  0.4450 -0.6372
  825MOL0     C11265  11.180   4.073   0.779 -0.3330  0.8380  1.0713
  825MOL0     C11266  11.169   4.002   0.901  0.7288  1.0809  0.7711
  825MOL0     C11267  11.265   3.912   0.956  0.0422 -0.5508 -0.2435
  825MOL0     C11268  11.379   3.885   0.882 -0.1304 -0.2256  0.1659
  825MOL0     C11269  11.492   3.799   0.924 -0.3630  0.6483 -0.4368
  825MOL0     O11270  11.592   3.795   0.835  0.2711  0.5632  0.7618
  825MOL0     C11271  11.707   3.736   0.863 -0.3682  0.8013 -0.3226
  825MOL0     C11272  11.773   3.664   0.758  0.4292  0.4692 -0.1019
  825MOL0     C11273  11.905   3.611   0.782 -0.3246  0.7359  0.8704
  825MOL0     C11274  11.949   3.594   0.912  0.2370 -0.0469 -0.2365
  825MOL0     O11275  12.046   3.502   0.937 -0.5506 -0.3790  0.2132
  825MOL0     C11276  12.090   3.482   1.071  1.2033 -0.3128 -0.6946
  825MOL0     C11277  12.219   3.388   1.089  1.2918  0.5365  1.0989
  825MOL0     C11278  12.243   3.341   1.234 -0.1575 -0.3846 -0.1133
  825MOL0     C11279  12.141   3.231   1.277 -0.1177 -0.5582  0.3869
  825MOL0     C11280  12.158   3.187   1.422  0.9224 -0.0001  0.4930
  825MOL0     C11281  12.087   3.052   1.423  0.1240  0.0668 -0.2900
  825MOL0     C11282  12.124   2.979   1.546  0.7464 -0.6271 -0.5209
  825MOL0     C11283  12.107   2.826   1.547  0.6985 -0.1075 -0.3076
  825MOL0    Cl11284  12.208   2.744   1.442  0.2974  0.8585 -0.2259
  825MOL0     C11285  11.887   3.668   1.014 -0.2189  0.3880  0.0558
  825MOL0     C11286  11.775   3.743   0.977  1.3537 -0.5795 -0.1360
  825MOL0     O11287  11.483   3.729   1.026  0.3810 -0.4976 -0.7508
  825MOL0     C11288  11.395   3.961   0.759  0.8232 -0.1304 -0.3617
  825MOL0     C11289  11.298   4.048   0.712 -0.8456  0.3273  0.0344
  825MOL0     N11290  11.032   4.699   0.863 -0.2408 -0.6542  0.1225
  825MOL0     N11291  11.040   4.763   0.977 -0.3562  0.1002  0.8756
  825MOL0     C11292  10.693   5.281   1.785  0.0832 -0.0943 -0.4193
  825MOL0     C11293  10.585   5.363   1.794  0.2011 -0.5706 -0.3006
  825MOL0     C11294  10.317   5.678   1.719 -0.1075 -0.9615  0.2487
  825MOL0     C11295  10.215   5.682   1.819  0.0721 -1.2355  0.0215
  825MOL0     C11296  10.098   5.761   1.798 -1.1618 -0.5982  0.3977
  825MOL0     C11297  10.071   5.816   1.677 -0.0571  0.4952  0.2134
  825MOL0     O11298   9.947   5.872   1.677  0.0566  0.3873  0.2147
  825MOL0     C11299   9.912   5.973   1.576 -0.9852 -0.3335 -1.0054
  825MOL0     C11300   9.865   6.098   1.651 -0.0211 -0.2610 -0.2287
  825MOL0     C11301   9.749   6.082   1.750 -0.1153 -0.2848 -0.4277
  825MOL0     C11302   9.617   6.028   1.696  0.6642 -0.0512 -0.2566
  825MOL0     C11303   9.561   6.114   1.594 -0.0431 -0.0766  0.1421
  825MOL0     C11304   9.511   6.183   1.514  0.2898  0.0267  0.7333
  825MOL0     C11305  10.172   5.810   1.579  0.2854 -0.4640 -0.1354
  825MOL0     C11306  10.293   5.741   1.604 -0.1388  0.5256  0.2041
  825MOL0     C11307  10.382   5.742   1.473 -1.0545  0.2042  0.3365
  825MOL0     H11308  10.702   5.586   2.025  1.5953 -1.7589  1.6733
  825MOL0     H11309  10.883   5.447   2.010 -1.5614 -0.8984  0.6301
  825MOL0     H11310  10.830   5.065   1.800  0.3052 -1.8470 -0.5251
  825MOL0     H11311  10.962   5.155   1.714  3.9366  3.4165  2.8844
  825MOL0     H11312  11.013   4.982   1.963  2.7616 -1.7206  0.4590
  825MOL0     H11313  11.136   5.051   1.864  0.4031  0.1574  1.6577
  825MOL0     H11314  10.925   4.843   1.762 -0.9790  1.5546  0.6073
  825MOL0     H11315  11.082   4.811   1.842  1.3177  3.3548  3.3351
  825MOL0     H11316  11.066   4.993   1.596 -0.0660 -0.8309  0.8968
  825MOL0     H11317  11.211   4.919   1.668 -1.2886  0.2226  3.5322
  825MOL0     H11318  11.157   4.706   1.568 -0.9518 -1.2901 -0.0389
  825MOL0     H11319  10.993   4.764   1.511  0.0083 -0.0276  1.0541
  825MOL0     H11320  11.145   4.928   1.366  2.8430 -0.1745 -2.0495
  825MOL0     H11321  11.286   4.856   1.418 -0.3509  2.4237 -2.2363
  825MOL0     H11322  11.050   4.709   1.279 -1.3494 -0.9740 -0.2325
  825MOL0     H11323  11.212   4.640   1.303 -0.1186  0.2501  0.5302
  825MOL0     H11324  11.175   4.903   1.135  3.0196 -0.3336 -2.8482
  825MOL0     H11325  11.319   4.793   1.179  0.3901 -1.8922 -0.6452
  825MOL0     H11326  11.314   4.592   0.991 -0.0801 -1.1886 -1.7334
  825MOL0     H11327  11.243   4.602   0.684  1.1613 -2.0981 -0.6780
  825MOL0     H11328  11.260   4.463   0.787 -1.5736  0.0668 -0.0561
  825MOL0     H11329  11.026   4.406   0.781 -0.5440 -0.0998 -0.4290
  825MOL0     H11330  10.997   4.521   0.651  0.1157  2.1494  2.8540
  825MOL0     H11331  11.230   4.344   0.610  0.5272  0.1528  2.5977
  825MOL0     H11332  11.110   4.395   0.493 -2.0152 -1.9109  0.2454
  825MOL0     H11333  11.119   4.146   0.524  0.5322  3.6085 -1.6339
  825MOL0     H11334  10.957   4.198   0.598 -0.2177 -0.2095  0.7663
  825MOL0     H11335  11.072   4.001   0.951  0.0578 -4.5969  0.0863
  825MOL0     H11336  11.252   3.859   1.050 -1.1559  2.5525  1.4944
  825MOL0     H11337  11.719   3.655   0.665 -0.9769 -1.9241  0.8453
  825MOL0     H11338  11.949   3.550   0.704 -1.9809  1.3492 -0.6083
  825MOL0     H11339  12.108   3.577   1.121  0.6387 -1.0862  1.0751
  825MOL0     H11340  12.013   3.421   1.119 -1.6174  3.5211  0.0506
  825MOL0     H11341  12.205   3.297   1.030 -0.3565 -0.2057  2.5537
  825MOL0     H11342  12.305   3.436   1.041  2.2555 -2.7068 -0.6709
  825MOL0     H11343  12.339   3.296   1.259 -0.1409 -1.0161 -1.2467
  825MOL0     H11344  12.238   3.427   1.301  1.4625 -0.8727  0.6775
  825MOL0     H11345  12.169   3.145   1.216 -0.1580 -1.7382  1.9423
  825MOL0     H11346  12.038   3.258   1.250 -0.7258 -2.3277  0.7879
  825MOL0     H11347  12.106   3.261   1.484 -1.0108  1.1582 -2.2805
  825MOL0     H11348  12.264   3.183   1.448  0.7574  1.3654  1.4720
  825MOL0     H11349  11.979   3.061   1.413  0.0943 -0.4258 -0.4465
  825MOL0     H11350  12.113   2.988   1.339  1.1712  0.9673 -0.6703
  825MOL0     H11351  12.061   3.021   1.626  0.1865 -1.8602 -0.2971
  825MOL0     H11352  12.224   3.000   1.586  1.2636 -0.3650 -1.9097
  825MOL0     H11353  12.119   2.793   1.650 -1.7974  1.1900  0.4774
  825MOL0     H11354  12.002   2.807   1.521  0.3588 -1.5146  1.9058
  825MOL0     H11355  11.918   3.666   1.118 -0.9278  1.7629  0.3098
  825MOL0     H11356  11.733   3.819   1.042  1.5156  1.6906 -2.5052
  825MOL0     H11357  11.481   3.952   0.694  1.3406  1.7120  0.0160
  825MOL0     H11358  11.324   4.101   0.620  0.2631  1.2801  0.8644
  825MOL0     H11359  10.686   5.205   1.708 -0.1438 -1.3725  0.8135
  825MOL0     H11360  10.500   5.347   1.729 -0.0474  0.1062 -0.1475
  825MOL0     H11361  10.234   5.634   1.914 -2.2571 -1.9476  0.1835
  825MOL0     H11362  10.031   5.775   1.883 -2.1477  1.2942 -0.6238
  825MOL0     H11363   9.832   5.933   1.513 -1.3929  2.9107 -2.7933
  825MOL0     H11364   9.988   6.003   1.503 -0.6632 -2.2217 -1.4861
  825MOL0     H11365   9.860   6.183   1.582  0.8661  0.1083  0.1527
  825MOL0     H11366   9.952   6.110   1.716  0.7079 -2.5352 -0.6675
  825MOL0     H11367   9.726   6.181   1.790  0.1725  0.8873 -2.9546
  825MOL0     H11368   9.776   6.026   1.840  2.1584 -0.8059 -1.3452
  825MOL0     H11369   9.617   5.924   1.661 -0.6605 -0.1783  0.0809
  825MOL0     H11370   9.546   6.030   1.779  2.5955 -0.8262  1.5317
  825MOL0     H11371   9.478   6.242   1.430 -0.4370  2.3245  2.5227
  825MOL0     H11372  10.169   5.861   1.483  0.2340  0.4046  0.3124
  825MOL0     H11373  10.340   5.785   1.381  0.8669  0.4813 -0.4742
  825MOL0     H11374  10.471   5.803   1.496 -1.7034  1.5415 -0.5603
  825MOL0     H11375  10.423   5.645   1.444 -4.6559 -1.4641  0.2980
  826MOL0     O11376   3.774   9.955   0.826  0.1955 -0.4570  0.3094
  826MOL0     C11377   3.687   9.899   0.893 -1.2160 -0.4428  0.4439
  826MOL0     O11378   3.698   9.878   1.024 -0.1349  0.0806 -0.2117
  826MOL0     C11379   3.830   9.883   1.068 -0.8195  0.5371 -0.1990
  826MOL0     C11380   3.867   9.985   1.151  0.4301 -0.6092  0.6696
  826MOL0     C11381   3.999  10.014   1.186 -0.1348  0.3805  0.1967
  826MOL0     C11382   4.089   9.913   1.156 -0.1144 -0.9942  0.3891
  826MOL0     O11383   4.216   9.909   1.200 -0.5369 -0.0977 -0.1033
  826MOL0     C11384   4.289  10.039   1.186  0.4453 -0.0003  0.0242
  826MOL0     C11385   4.443  10.020   1.179 -0.1758 -0.6358 -0.0678
  826MOL0     C11386   4.493   9.931   1.072 -0.5010 -0.7604  0.4466
  826MOL0     C11387   4.574   9.817   1.133 -1.2017  0.1513  0.0775
  826MOL0     C11388   4.487   9.705   1.199  0.1104 -0.7281 -0.3039
  826MOL0     C11389   4.402   9.633   1.101 -0.2452 -0.5744  0.1795
  826MOL0     C11390   4.301   9.554   1.187 -0.5096  1.0587  0.4739
  826MOL0     C11391   4.241   9.447   1.104  0.1279 -0.0615  0.1643
  826MOL0     N11392   4.165   9.362   1.194 -0.7927  0.0897  0.8962
  826MOL0     C11393   4.194   9.231   1.233 -0.3850  0.0103  1.3184
  826MOL0     C11394   4.097   9.196   1.317  0.5478  0.4227  0.1398
  826MOL0     C11395   4.061   9.074   1.376  0.2876 -0.2127 -0.7193
  826MOL0     C11396   3.955   8.984   1.312 -0.6219 -0.0188  0.4644
  826MOL0     C11397   3.800   9.022   1.308  0.4578 -0.2727 -0.0552
  826MOL0     C11398   3.723   8.948   1.206  0.4097 -0.0468 -0.0184
  826MOL0     O11399   3.739   8.807   1.204 -0.1925  0.2974 -0.0996
  826MOL0     C11400   3.746   8.746   1.079 -0.3139  0.9292 -0.9674
  826MOL0     C11401   3.682   8.634   1.066  0.5408  0.1250  1.1494
  826MOL0     C11402   3.689   8.554   0.943  0.8497  0.2795 -0.0215
  826MOL0     C11403   3.767   8.597   0.843  0.7709 -0.8567 -0.0243
  826MOL0     C11404   3.780   8.528   0.710  0.8154 -0.4361 -0.5747
  826MOL0     O11405   3.748   8.394   0.713 -0.1616  0.1066  0.1182
  826MOL0     C11406   3.753   8.321   0.594  0.6601  0.4357  0.5147
  826MOL0     C11407   3.661   8.327   0.487 -0.0139  0.0307  0.8217
  826MOL0     C11408   3.679   8.248   0.370 -0.2010 -0.7823 -0.5774
  826MOL0     C11409   3.775   8.147   0.349  0.1612 -0.1792 -0.5064
  826MOL0     O11410   3.791   8.078   0.226 -0.3639  0.3832  0.1729
  826MOL0     C11411   3.889   7.972   0.222  1.0396 -0.0821 -0.6740
  826MOL0     C11412   3.901   7.911   0.083 -0.9430 -0.5631  0.0834
  826MOL0     C11413   3.775   7.842   0.027  0.4867 -0.0460 -0.5355
  826MOL0     C11414   3.763   7.841  -0.127  0.3825 -0.1802 -0.0107
  826MOL0     C11415   3.666   7.732  -0.172  0.0825  0.2136  0.3600
  826MOL0     C11416   3.695   7.678  -0.311  0.6682  0.3474  0.8589
  826MOL0     C11417   3.648   7.529  -0.304  0.6136 -0.4693 -0.0485
  826MOL0     C11418   3.674   7.443  -0.429 -0.1055  0.6128  0.9416
  826MOL0    Cl11419   3.617   7.504  -0.593 -0.0080  0.0472 -0.4368
  826MOL0     C11420   3.865   8.145   0.456 -0.3121 -1.0468 -0.6218
  826MOL0     C11421   3.857   8.225   0.581  0.2499  0.2942  0.6247
  826MOL0     O11422   3.816   8.594   0.616 -0.4689 -0.6513  0.0571
  826MOL0     C11423   3.843   8.712   0.861 -0.5753 -0.0343  0.9774
  826MOL0     C11424   3.836   8.790   0.979  0.8001  0.0160 -1.2380
  826MOL0     N11425   4.014   9.301   1.334 -0.4832  0.0620 -0.3989
  826MOL0     N11426   4.059   9.403   1.269  0.6330  0.0815  0.5047
  826MOL0     C11427   4.061   9.804   1.078 -0.1238 -1.0554 -0.1083
  826MOL0     C11428   3.934   9.784   1.028  0.3600 -0.2568 -0.2484
  826MOL0     C11429   3.560   9.850   0.823 -0.1462  0.3190 -1.1935
  826MOL0     C11430   3.482   9.780   0.914  0.1140 -0.5544  0.3616
  826MOL0     C11431   3.369   9.715   0.874  0.2153  1.0119 -0.2342
  826MOL0     C11432   3.317   9.729   0.743  0.2650  1.1902 -0.6113
  826MOL0     O11433   3.202   9.663   0.709 -0.7111 -0.0770 -0.2606
  826MOL0     C11434   3.167   9.531   0.764 -0.4442 -0.0731  0.5689
  826MOL0     C11435   3.036   9.494   0.698 -0.7983 -1.0178 -0.2010
  826MOL0     C11436   3.056   9.488   0.550  0.6882 -0.3146  0.9857
  826MOL0     C11437   2.952   9.402   0.484  0.2012  0.5797  0.1388
  826MOL0     C11438   2.989   9.334   0.362 -0.1399  0.4519 -1.0921
  826MOL0     C11439   3.033   9.271   0.266  1.1225  0.8444 -0.1620
  826MOL0     C11440   3.396   9.798   0.651  0.5597 -1.1999 -0.5630
  826MOL0     C11441   3.516   9.863   0.690  0.6032 -0.5127 -0.3734
  826MOL0     C11442   3.579   9.955   0.595  0.1274  1.6192  0.3058
  826MOL0     H11443   3.782  10.052   1.163  1.2328  0.1621  2.4891
  826MOL0     H11444   4.017  10.105   1.242 -2.2887  1.8658 -1.3759
  826MOL0     H11445   4.251  10.099   1.102  0.2695 -1.1700 -0.7508
  826MOL0     H11446   4.258  10.099   1.273 -1.3437 -1.7334  0.6589
  826MOL0     H11447   4.469   9.979   1.277 -1.6612 -1.3213  0.0783
  826MOL0     H11448   4.490  10.118   1.178 -0.8815 -0.1773  2.7239
  826MOL0     H11449   4.566   9.997   1.024 -0.0447 -1.1330  0.6170
  826MOL0     H11450   4.418   9.904   0.997  0.0467 -1.4215  0.1322
  826MOL0     H11451   4.633   9.767   1.056 -0.9217 -0.7907  0.8663
  826MOL0     H11452   4.651   9.855   1.200 -0.5435 -0.3150 -0.4064
  826MOL0     H11453   4.552   9.631   1.246  1.3902  0.2887 -0.4180
  826MOL0     H11454   4.431   9.754   1.279  1.6423  0.4983  0.0649
  826MOL0     H11455   4.347   9.694   1.028 -0.7239 -0.0845  0.9383
  826MOL0     H11456   4.466   9.566   1.044 -0.0925  0.7410 -1.2659
  826MOL0     H11457   4.224   9.614   1.235 -0.0618 -0.3737  3.2194
  826MOL0     H11458   4.349   9.508   1.274 -2.0382  0.7311  1.1738
  826MOL0     H11459   4.180   9.500   1.031  2.6937 -0.5924 -2.5493
  826MOL0     H11460   4.317   9.387   1.052 -0.3018 -0.7484  0.3094
  826MOL0     H11461   4.277   9.171   1.197 -1.0609  0.1314 -0.5415
  826MOL0     H11462   4.146   9.006   1.389 -1.3743 -2.0709  1.2971
  826MOL0     H11463   4.038   9.097   1.481 -1.3582 -1.4886 -0.7569
  826MOL0     H11464   3.990   8.968   1.209 -0.9965 -3.6095  0.7510
  826MOL0     H11465   3.963   8.884   1.356  0.9818 -0.1389 -0.0185
  826MOL0     H11466   3.801   9.131   1.298  1.1790 -0.0237  2.0902
  826MOL0     H11467   3.754   9.012   1.407 -1.4000 -1.9181 -1.0372
  826MOL0     H11468   3.751   8.995   1.111 -0.4323 -1.3037 -0.9295
  826MOL0     H11469   3.617   8.964   1.228  0.6403 -0.2859  1.3442
  826MOL0     H11470   3.613   8.595   1.141  0.4348 -3.2272 -0.5283
  826MOL0     H11471   3.634   8.460   0.942 -1.6992  1.6921 -1.7252
  826MOL0     H11472   3.581   8.401   0.489  1.4928  1.7375 -0.0201
  826MOL0     H11473   3.620   8.269   0.281 -2.0564  2.5838  1.2528
  826MOL0     H11474   3.990   8.005   0.251  0.6478  0.4870  0.0712
  826MOL0     H11475   3.857   7.894   0.292 -0.9362  1.9005  0.7585
  826MOL0     H11476   3.929   7.996   0.020 -0.6570 -0.7406 -0.0308
  826MOL0     H11477   3.979   7.838   0.105  0.8069  1.3586  0.5786
  826MOL0     H11478   3.780   7.742   0.071 -1.1952 -1.0568 -2.4984
  826MOL0     H11479   3.685   7.900   0.051  0.6863  0.2736 -0.5575
  826MOL0     H11480   3.866   7.830  -0.161  1.2036 -0.0412  2.2530
  826MOL0     H11481   3.731   7.941  -0.157  1.2139  0.2359  0.4379
  826MOL0     H11482   3.568   7.781  -0.169 -0.6176 -1.1111  4.3586
  826MOL0     H11483   3.662   7.643  -0.109  1.3623 -0.9630 -1.1291
  826MOL0     H11484   3.632   7.739  -0.376  0.2908  1.7527  2.4691
  826MOL0     H11485   3.798   7.682  -0.346  0.3704  1.4552  0.0816
  826MOL0     H11486   3.542   7.524  -0.279  1.1354 -3.6305  2.0510
  826MOL0     H11487   3.696   7.484  -0.217  1.7529 -0.8204 -0.8313
  826MOL0     H11488   3.780   7.424  -0.445 -0.7865 -1.3829 -2.3296
  826MOL0     H11489   3.626   7.345  -0.412 -1.8094  0.9151 -1.4862
  826MOL0     H11490   3.961   8.096   0.451  1.5104  2.1252  0.6278
  826MOL0     H11491   3.942   8.209   0.646 -0.3495  0.0773  1.3670
  826MOL0     H11492   3.914   8.746   0.787 -0.5154  2.2440  1.9862
  826MOL0     H11493   3.884   8.886   0.993 -1.9015  1.0688  2.7217
  826MOL0     H11494   4.124   9.717   1.062 -4.4429 -5.3206  3.1570
  826MOL0     H11495   3.917   9.704   0.955  1.9067  0.1715 -1.1284
  826MOL0     H11496   3.517   9.757   1.014  0.9100  1.0171  0.4756
  826MOL0     H11497   3.317   9.653   0.946  1.6496 -2.3087 -1.8657
  826MOL0     H11498   3.155   9.533   0.873 -2.2113 -2.7620  0.5296
  826MOL0     H11499   3.252   9.467   0.738 -0.0423  0.7731 -0.2529
  826MOL0     H11500   2.963   9.570   0.728  0.4610  1.1162 -2.1309
  826MOL0     H11501   3.022   9.394   0.739  0.4340  0.0628  3.1509
  826MOL0     H11502   3.148   9.435   0.525  0.3855 -0.1216 -0.6959
  826MOL0     H11503   3.067   9.589   0.509  4.0479 -1.0165 -0.1952
  826MOL0     H11504   2.920   9.331   0.561 -1.4287  0.2873 -0.7654
  826MOL0     H11505   2.865   9.461   0.455  0.0125  0.0300 -0.4566
  826MOL0     H11506   3.062   9.222   0.175  2.5270  1.8889 -0.3176
  826MOL0     H11507   3.362   9.800   0.548  0.5406  1.4450 -0.5735
  826MOL0     H11508   3.687   9.941   0.596  0.3614  2.9905 -1.2304
  826MOL0     H11509   3.538   9.938   0.495 -2.5243 -1.7873  1.7527
  826MOL0     H11510   3.558  10.059   0.620 -0.4483  1.3125  1.1425
  827MOL0     O11511   1.791   7.934   2.672 -0.5323  0.1716  0.3631
  827MOL0     C11512   1.727   7.980   2.765 -0.0714 -0.3416  0.4559
  827MOL0     O11513   1.593   8.009   2.764 -0.3501  0.1841  0.3072
  827MOL0     C11514   1.493   7.963   2.689 -0.0251 -0.8546  0.3041
  827MOL0     C11515   1.365   8.033   2.693 -0.3080  0.8538  0.2402
  827MOL0     C11516   1.262   8.002   2.617  0.1080  0.5251 -0.2586
  827MOL0     C11517   1.273   7.887   2.534  0.2185 -0.1191 -0.1475
  827MOL0     O11518   1.172   7.864   2.449 -0.1094  0.5844  0.7429
  827MOL0     C11519   1.208   7.848   2.306 -0.1218  0.9967  0.5028
  827MOL0     C11520   1.087   7.875   2.217  1.0722  0.5232  0.7818
  827MOL0     C11521   1.113   7.864   2.066 -0.6240  0.2163 -0.1491
  827MOL0     C11522   1.016   7.947   1.994  0.2542 -0.3217  0.2716
  827MOL0     C11523   1.037   7.932   1.845  0.3225  0.5873 -0.0464
  827MOL0     C11524   1.152   8.019   1.793  0.3035  0.3610  0.4803
  827MOL0     C11525   1.207   7.975   1.654  0.2659  0.7583  0.3761
  827MOL0     C11526   1.100   8.004   1.542 -1.2543  0.1391 -0.4707
  827MOL0     N11527   1.177   7.980   1.419  1.0062  0.5190 -0.3855
  827MOL0     C11528   1.242   8.070   1.347 -0.5869 -0.0058  0.0303
  827MOL0     C11529   1.287   8.000   1.237 -0.1214  0.1085  0.0699
  827MOL0     C11530   1.347   8.061   1.109 -0.3594  0.5874 -0.4190
  827MOL0     C11531   1.247   8.065   0.992 -0.1048  0.1958 -0.0186
  827MOL0     C11532   1.296   8.138   0.875 -0.5410  0.0709 -0.0930
  827MOL0     C11533   1.197   8.140   0.753 -0.5911  0.1459 -0.3760
  827MOL0     O11534   1.218   8.251   0.669  0.2751  0.0113 -0.4975
  827MOL0     C11535   1.114   8.287   0.577 -0.4974  0.6231 -0.5897
  827MOL0     C11536   1.017   8.202   0.518  0.4856  0.6856 -0.0207
  827MOL0     C11537   0.922   8.249   0.434  0.9012  0.9054 -0.1937
  827MOL0     C11538   0.938   8.380   0.395  0.0604  0.2748  0.6584
  827MOL0     C11539   0.845   8.435   0.295  0.3326  0.6209 -0.4102
  827MOL0     O11540   0.848   8.570   0.272  0.2077  0.2093  0.1169
  827MOL0     C11541   0.754   8.631   0.191  0.0186 -0.4405 -0.8366
  827MOL0     C11542   0.666   8.571   0.102 -0.7884  0.8526 -1.0935
  827MOL0     C11543   0.578   8.641   0.025  0.5130  0.2681 -0.3883
  827MOL0     C11544   0.575   8.780   0.026  0.4304  0.3956  0.5578
  827MOL0     O11545   0.491   8.830  -0.073 -0.8901 -0.3210  0.4279
  827MOL0     C11546   0.418   8.945  -0.033  0.3991 -1.1546  0.4964
  827MOL0     C11547   0.417   9.053  -0.143  0.5395 -0.1168 -0.2855
  827MOL0     C11548   0.315   9.166  -0.120 -0.1837  0.2439  0.5907
  827MOL0     C11549   0.340   9.280  -0.220  0.1651 -0.2534 -0.2157
  827MOL0     C11550   0.330   9.259  -0.370  0.1207  0.8449 -1.1445
  827MOL0     C11551   0.343   9.394  -0.452 -0.2348  0.2717  0.0517
  827MOL0     C11552   0.328   9.378  -0.606 -0.1347 -0.4654  0.8636
  827MOL0     C11553   0.433   9.298  -0.694 -0.8258 -0.1485  0.0812
  827MOL0    Cl11554   0.401   9.320  -0.878 -0.3199 -0.2592  0.1357
  827MOL0     C11555   0.653   8.839   0.124 -0.8223  0.1472 -0.2116
  827MOL0     C11556   0.744   8.773   0.203  0.2827  0.1632 -0.2844
  827MOL0     O11557   0.771   8.353   0.254  0.2698  0.2495 -0.6902
  827MOL0     C11558   1.039   8.464   0.449  0.0650 -0.5148  0.6841
  827MOL0     C11559   1.127   8.423   0.545  0.5188 -0.5244 -0.1234
  827MOL0     N11560   1.243   7.870   1.254 -0.0153  0.4132 -0.1200
  827MOL0     N11561   1.164   7.867   1.350 -0.4901  0.8234  0.0855
  827MOL0     C11562   1.393   7.815   2.532 -0.6028  0.5739 -0.1514
  827MOL0     C11563   1.503   7.857   2.600 -0.4723 -0.0061 -0.1295
  827MOL0     C11564   1.804   8.025   2.885 -0.2388 -0.1719 -0.1669
  827MOL0     C11565   1.943   8.011   2.885 -0.2619  0.2195 -0.1364
  827MOL0     C11566   2.020   8.066   2.989  0.1538 -0.5745  0.5361
  827MOL0     C11567   1.970   8.135   3.092 -0.8732 -0.0665  1.2152
  827MOL0     O11568   2.041   8.190   3.193  0.0892 -0.7006 -0.4125
  827MOL0     C11569   2.156   8.281   3.163 -0.4397  0.7982 -1.1486
  827MOL0     C11570   2.292   8.208   3.148 -0.3154 -0.0666 -0.0126
  827MOL0     C11571   2.402   8.290   3.189 -0.4662 -0.0058 -0.8477
  827MOL0     C11572   2.538   8.241   3.138 -0.6537 -0.5976 -0.5060
  827MOL0     C11573   2.647   8.310   3.204 -0.2455 -0.7194  0.1499
  827MOL0     C11574   2.751   8.371   3.234  0.8350  0.4882  0.6841
  827MOL0     C11575   1.831   8.128   3.101  0.3390  0.1714 -0.5117
  827MOL0     C11576   1.741   8.085   3.001 -0.1749  0.9604 -1.1359
  827MOL0     C11577   1.596   8.100   3.033 -0.0820 -0.5991 -0.1897
  827MOL0     H11578   1.363   8.115   2.765  2.3342  0.9898  0.2628
  827MOL0     H11579   1.176   8.068   2.625  0.9828  1.6056  0.5059
  827MOL0     H11580   1.280   7.924   2.279  0.0451  0.2878 -1.1468
  827MOL0     H11581   1.264   7.755   2.293 -2.6352 -0.6121  0.4312
  827MOL0     H11582   1.049   7.974   2.245  1.6174  0.3017  2.4265
  827MOL0     H11583   1.009   7.800   2.225  0.0616  1.1137 -2.2011
  827MOL0     H11584   1.121   7.760   2.033  0.1753  0.1602  0.1976
  827MOL0     H11585   1.209   7.912   2.046  0.1645 -0.4037  1.8855
  827MOL0     H11586   0.917   7.916   2.027 -1.5048  2.0652 -2.2681
  827MOL0     H11587   1.033   8.054   2.007  2.7524 -0.2493 -2.4064
  827MOL0     H11588   1.072   7.829   1.834 -2.6954 -0.8786  2.7636
  827MOL0     H11589   0.945   7.938   1.786 -0.3662 -1.0103  0.8078
  827MOL0     H11590   1.109   8.119   1.784 -0.2682 -0.0763 -2.4284
  827MOL0     H11591   1.238   8.006   1.861  3.6443  0.5104 -3.3257
  827MOL0     H11592   1.238   7.870   1.659  1.5488  0.6796 -4.0803
  827MOL0     H11593   1.288   8.043   1.628 -0.3502  0.6429 -2.1245
  827MOL0     H11594   1.010   7.945   1.563 -0.4577 -1.9698 -2.5371
  827MOL0     H11595   1.063   8.107   1.545 -0.9756  0.2179  1.7574
  827MOL0     H11596   1.271   8.173   1.368 -1.7313  0.2244  0.5542
  827MOL0     H11597   1.377   8.161   1.140  2.1903  0.1023 -1.1256
  827MOL0     H11598   1.436   8.005   1.080 -1.6858 -1.3196 -1.0243
  827MOL0     H11599   1.233   7.960   0.963 -0.4095 -0.0351  0.9399
  827MOL0     H11600   1.157   8.115   1.029 -1.4581 -0.1201 -2.6322
  827MOL0     H11601   1.391   8.100   0.838 -0.1266 -0.3551  1.3250
  827MOL0     H11602   1.298   8.239   0.917 -4.7440  0.2656  0.0215
  827MOL0     H11603   1.094   8.132   0.788 -0.9523  1.0094 -1.1854
  827MOL0     H11604   1.213   8.047   0.699 -3.7830 -1.3813  1.0263
  827MOL0     H11605   1.007   8.106   0.568  2.5124 -0.3008 -1.3936
  827MOL0     H11606   0.843   8.183   0.401  1.5033  0.6285 -1.1073
  827MOL0     H11607   0.661   8.463   0.094  0.0917  0.7015  0.1245
  827MOL0     H11608   0.524   8.596  -0.058 -1.8060  2.0119  0.0661
  827MOL0     H11609   0.321   8.905  -0.002  0.2563 -1.7010 -0.5766
  827MOL0     H11610   0.466   8.994   0.051  0.4596 -2.0676  1.0056
  827MOL0     H11611   0.518   9.090  -0.161  0.6431  0.1564  0.8095
  827MOL0     H11612   0.373   9.000  -0.229 -0.1309  2.3341 -1.5544
  827MOL0     H11613   0.209   9.138  -0.123  0.0794 -0.7964  0.6713
  827MOL0     H11614   0.324   9.217  -0.024  0.4856  1.8356 -0.2689
  827MOL0     H11615   0.443   9.312  -0.201  0.6832 -1.6989 -0.4423
  827MOL0     H11616   0.273   9.362  -0.193 -1.7126 -2.1689  1.2010
  827MOL0     H11617   0.230   9.215  -0.382 -1.3612  2.0221  4.1439
  827MOL0     H11618   0.390   9.181  -0.418 -1.3208  0.1438 -1.8596
  827MOL0     H11619   0.280   9.465  -0.397  1.3875  0.8182  1.2496
  827MOL0     H11620   0.445   9.428  -0.435  0.4412 -0.9098 -1.4591
  827MOL0     H11621   0.327   9.479  -0.648  1.0390 -0.7448  0.1017
  827MOL0     H11622   0.230   9.334  -0.625 -0.1408 -0.7637  1.5447
  827MOL0     H11623   0.531   9.334  -0.662 -0.1852 -2.3987  0.8246
  827MOL0     H11624   0.432   9.192  -0.667 -1.6658 -0.5534 -1.3816
  827MOL0     H11625   0.653   8.947   0.135 -1.6465 -0.1315  3.9830
  827MOL0     H11626   0.811   8.819   0.276 -0.4921  0.2774  0.3702
  827MOL0     H11627   1.036   8.565   0.410  1.1898 -0.0726  1.6725
  827MOL0     H11628   1.192   8.492   0.597  0.4640 -1.9479  1.9685
  827MOL0     H11629   1.399   7.736   2.458  2.0231  1.8325 -1.4395
  827MOL0     H11630   1.595   7.803   2.583  0.5043  1.8358 -1.0033
  827MOL0     H11631   1.999   7.962   2.806 -1.6235  1.1042 -1.7318
  827MOL0     H11632   2.126   8.046   2.981  0.6745  2.1493 -0.8747
  827MOL0     H11633   2.154   8.352   3.246  0.9357 -1.6164  1.0844
  827MOL0     H11634   2.149   8.336   3.069  1.2270 -2.1250 -3.1526
  827MOL0     H11635   2.313   8.173   3.047  0.7141 -2.6656  1.0145
  827MOL0     H11636   2.274   8.114   3.201 -0.5418 -0.8175 -1.3991
  827MOL0     H11637   2.407   8.284   3.298 -0.7585 -0.8263 -0.8757
  827MOL0     H11638   2.385   8.396   3.171 -0.9423  0.0692 -0.0179
  827MOL0     H11639   2.553   8.134   3.152 -1.7998 -0.5836  1.3595
  827MOL0     H11640   2.546   8.259   3.031  2.5528 -1.3971 -0.4948
  827MOL0     H11641   2.835   8.431   3.263  0.1919  3.0855 -2.2308
  827MOL0     H11642   1.783   8.165   3.191 -1.4611 -0.0858 -1.3320
  827MOL0     H11643   1.547   8.172   2.966 -2.0469 -1.3542  0.3444
  827MOL0     H11644   1.540   8.007   3.016 -0.7444 -1.0284  3.4765
  827MOL0     H11645   1.580   8.134   3.136  1.3992 -0.0277 -0.1343
  828MOL0     O11646   1.205  10.111  11.137  0.4639 -0.0639 -0.7403
  828MOL0     C11647   1.303  10.170  11.177 -0.7873 -0.1866  0.2628
  828MOL0     O11648   1.341  10.192  11.300  0.5796 -0.2738  0.0482
  828MOL0     C11649   1.278  10.134  11.407 -0.4172  0.0653  0.4966
  828MOL0     C11650   1.153  10.175  11.449 -0.3756 -0.3618  0.2328
  828MOL0     C11651   1.100  10.120  11.564  0.2672  0.6882 -0.0661
  828MOL0     C11652   1.160  10.014  11.630  0.7296 -0.5663 -0.3436
  828MOL0     O11653   1.086   9.965  11.733  0.2128 -0.6595 -0.5393
  828MOL0     C11654   1.132   9.841  11.781 -0.4921 -0.8166  0.2578
  828MOL0     C11655   1.029   9.797  11.883 -0.7169 -0.3992  0.0281
  828MOL0     C11656   0.903   9.733  11.819  1.2345  0.0301 -0.2202
  828MOL0     C11657   0.781   9.749  11.911  0.4210  0.3934  0.5141
  828MOL0     C11658   0.659   9.647  11.882 -0.0524 -0.2794 -0.0238
  828MOL0     C11659   0.617   9.650  11.733  0.3876 -0.3840  0.0872
  828MOL0     C11660   0.476   9.585  11.717 -0.2653  1.3180 -0.1090
  828MOL0     C11661   0.466   9.495  11.598  0.6846  0.7900 -0.1551
  828MOL0     N11662   0.574   9.404  11.579 -0.3871  1.1054 -0.1114
  828MOL0     C11663   0.676   9.418  11.485  0.7191 -0.6753  0.2287
  828MOL0     C11664   0.753   9.311  11.498  0.2285  0.5655  0.1748
  828MOL0     C11665   0.886   9.272  11.419 -0.2709  0.5725  0.7214
  828MOL0     C11666   0.872   9.164  11.312 -0.5769 -0.6647 -0.0837
  828MOL0     C11667   0.816   9.026  11.363  0.6762  0.5851 -0.1208
  828MOL0     C11668   0.753   8.958  11.239 -0.3969  0.7343  0.3068
  828MOL0     O11669   0.848   8.909  11.146 -0.1476 -0.3198  0.1487
  828MOL0     C11670   0.943   8.828  11.201  0.5012  0.5705  0.4525
  828MOL0     C11671   0.922   8.743  11.309 -0.6551  0.5861  0.9936
  828MOL0     C11672   1.022   8.662  11.361 -0.2150 -0.1511  0.4120
  828MOL0     C11673   1.155   8.663  11.298 -0.3214 -0.0295  0.6874
  828MOL0     C11674   1.265   8.574  11.341  0.0620 -0.9434  0.3597
  828MOL0     O11675   1.238   8.498  11.449  1.0746  0.6569 -0.1064
  828MOL0     C11676   1.336   8.452  11.536 -0.0325 -0.3285  0.7611
  828MOL0     C11677   1.472   8.492  11.558 -0.2886  0.5492 -0.2582
  828MOL0     C11678   1.544   8.438  11.666  0.6561  0.4078  0.5020
  828MOL0     C11679   1.480   8.344  11.758 -0.0955  0.2073  0.9364
  828MOL0     O11680   1.543   8.283  11.868 -0.5730  0.2121 -0.9400
  828MOL0     C11681   1.658   8.198  11.841  0.3010  0.4607  0.2135
  828MOL0     C11682   1.741   8.218  11.970  0.2140  0.3729  1.8617
  828MOL0     C11683   1.851   8.109  11.965 -0.0467 -0.1347 -1.0233
  828MOL0     C11684   1.945   8.134  11.842  0.6253 -0.1972  0.3461
  828MOL0     C11685   2.088   8.082  11.852 -0.2248  0.0057 -0.1076
  828MOL0     C11686   2.076   7.934  11.881  0.7071  0.3385 -0.3607
  828MOL0     C11687   2.197   7.851  11.849  0.9329  0.0642  0.1614
  828MOL0     C11688   2.178   7.700  11.877 -0.1686  0.4150 -0.2294
  828MOL0    Cl11689   2.160   7.652  12.044 -0.3608  0.4774 -0.1625
  828MOL0     C11690   1.349   8.324  11.747  0.8964  0.0967  0.3515
  828MOL0     C11691   1.280   8.373  11.635  1.0566 -0.1298 -0.7061
  828MOL0     O11692   1.378   8.585  11.283  0.4317 -0.6598  0.9116
  828MOL0     C11693   1.178   8.748  11.192 -0.2995  0.7644  0.8497
  828MOL0     C11694   1.072   8.824  11.143 -0.4234  0.0309 -0.7175
  828MOL0     N11695   0.700   9.231  11.597 -0.4046 -0.5828 -0.2842
  828MOL0     N11696   0.599   9.291  11.649 -0.4119 -0.1426 -0.0086
  828MOL0     C11697   1.284   9.966  11.574 -1.1725 -0.5283 -0.8897
  828MOL0     C11698   1.347  10.030  11.468  1.3291 -0.8525 -0.1507
  828MOL0     C11699   1.407  10.218  11.077 -0.0931  0.3983  0.8023
  828MOL0     C11700   1.525  10.290  11.113  0.0745 -0.7438  0.5521
  828MOL0     C11701   1.618  10.354  11.028  1.1918  0.2185 -0.1945
  828MOL0     C11702   1.606  10.329  10.891 -0.4055 -0.9095  0.2908
  828MOL0     O11703   1.682  10.401  10.803 -0.7529 -0.5073  0.4435
  828MOL0     C11704   1.769  10.324  10.723 -0.4113  0.2226 -0.5033
  828MOL0     C11705   1.901  10.311  10.809 -0.3466 -0.0784 -0.3008
  828MOL0     C11706   2.015  10.216  10.741  0.1616 -0.5474 -0.2928
  828MOL0     C11707   2.125  10.175  10.844  0.0319  0.2240 -0.3433
  828MOL0     C11708   2.198  10.284  10.915 -0.6496  0.7465 -0.0001
  828MOL0     C11709   2.262  10.363  10.989  0.6390  0.8229  0.1922
  828MOL0     C11710   1.482  10.272  10.849 -0.1005 -0.1529  0.2435
  828MOL0     C11711   1.382  10.212  10.939  0.1269  0.6595 -0.3766
  828MOL0     C11712   1.266  10.143  10.869  0.8978 -0.0602  0.4494
  828MOL0     H11713   1.104  10.251  11.390  1.8331  1.4206  0.5730
  828MOL0     H11714   1.010  10.164  11.603  0.3983  0.6611  0.2709
  828MOL0     H11715   1.142   9.760  11.708  1.0193  0.0504 -0.5330
  828MOL0     H11716   1.230   9.853  11.827  0.1516 -0.1539 -1.2395
  828MOL0     H11717   1.006   9.883  11.946  1.1938 -0.7465  1.2749
  828MOL0     H11718   1.072   9.727  11.955  1.9768  0.3584 -0.7216
  828MOL0     H11719   0.917   9.624  11.810  0.4489 -0.2970  2.0366
  828MOL0     H11720   0.886   9.765  11.715  1.5715 -1.2681 -0.7024
  828MOL0     H11721   0.815   9.720  12.011  1.3543  2.1249  0.7480
  828MOL0     H11722   0.758   9.855  11.902 -1.7133 -0.1091 -0.6613
  828MOL0     H11723   0.706   9.553  11.911  0.2358  0.0636  0.6465
  828MOL0     H11724   0.573   9.664  11.947 -0.9621 -1.1249 -0.9594
  828MOL0     H11725   0.608   9.754  11.701 -0.4449 -0.0835  1.2289
  828MOL0     H11726   0.694   9.609  11.667  3.5860  1.1029  2.5727
  828MOL0     H11727   0.402   9.666  11.718  0.7831  2.4253 -2.7570
  828MOL0     H11728   0.463   9.513  11.798  0.5503 -0.9165 -1.8529
  828MOL0     H11729   0.381   9.427  11.609  2.3577 -1.1306  2.0192
  828MOL0     H11730   0.451   9.561  11.512 -1.0194 -0.7143 -1.0810
  828MOL0     H11731   0.687   9.503  11.418 -1.9195 -0.7541 -0.4162
  828MOL0     H11732   0.927   9.361  11.371 -0.7684  0.2021 -0.4069
  828MOL0     H11733   0.949   9.224  11.495  0.4154 -0.1195 -0.2668
  828MOL0     H11734   0.815   9.201  11.226 -1.6162  1.1445  1.3010
  828MOL0     H11735   0.976   9.149  11.282 -0.5062 -2.0791  0.7896
  828MOL0     H11736   0.749   9.056  11.444 -0.4839 -0.7490 -0.5474
  828MOL0     H11737   0.878   8.959  11.422 -1.9092 -0.0559  2.0686
  828MOL0     H11738   0.683   9.033  11.201  1.0289  2.0621  0.1968
  828MOL0     H11739   0.700   8.870  11.277  0.4810  0.7753  1.7119
  828MOL0     H11740   0.835   8.739  11.373 -0.2562 -3.0081  1.5190
  828MOL0     H11741   0.991   8.605  11.448  3.3144 -1.7843  0.8063
  828MOL0     H11742   1.509   8.575  11.498  2.3022  0.2422  0.7928
  828MOL0     H11743   1.649   8.461  11.676  0.7555  1.2357 -1.7654
  828MOL0     H11744   1.614   8.099  11.838  0.4513  0.3433  1.2882
  828MOL0     H11745   1.708   8.214  11.745 -0.7530  1.5602 -0.1812
  828MOL0     H11746   1.772   8.323  11.978 -0.0102  0.8257 -1.7014
  828MOL0     H11747   1.684   8.192  12.060 -2.8489  1.4579  0.3548
  828MOL0     H11748   1.906   8.120  12.059 -1.6751  2.1853 -0.2385
  828MOL0     H11749   1.791   8.018  11.958 -4.0917  2.3917 -3.0219
  828MOL0     H11750   1.962   8.240  11.822  0.0246 -0.1861 -0.1651
  828MOL0     H11751   1.902   8.094  11.749  2.5583  1.6521 -1.4596
  828MOL0     H11752   2.148   8.130  11.930 -1.5307  0.9056  0.3886
  828MOL0     H11753   2.144   8.101  11.760  1.3138 -0.1129  0.7806
  828MOL0     H11754   2.044   7.925  11.985  0.6819  0.4968 -0.3538
  828MOL0     H11755   1.987   7.897  11.832 -0.7961  1.9279  1.0288
  828MOL0     H11756   2.285   7.880  11.907  3.9614 -1.3160 -3.3573
  828MOL0     H11757   2.221   7.873  11.744 -0.2119  0.6680  0.0122
  828MOL0     H11758   2.103   7.648  11.816 -1.2354 -0.3148  1.6331
  828MOL0     H11759   2.276   7.660  11.850 -1.2934 -1.3677 -1.9799
  828MOL0     H11760   1.297   8.260  11.818 -1.1114 -1.0589 -1.9856
  828MOL0     H11761   1.173   8.355  11.627  1.5755 -5.5597  0.7110
  828MOL0     H11762   1.273   8.754  11.139 -2.2262  2.2722 -2.7255
  828MOL0     H11763   1.087   8.900  11.067 -1.3811  2.6755  1.5681
  828MOL0     H11764   1.330   9.879  11.619 -0.0494  0.5776  0.1608
  828MOL0     H11765   1.451  10.011  11.440  1.1025 -0.8526 -1.0107
  828MOL0     H11766   1.527  10.322  11.217 -1.0033 -0.6881  0.5754
  828MOL0     H11767   1.699  10.408  11.076  2.9206 -3.1405  1.0168
  828MOL0     H11768   1.792  10.374  10.629  1.1904 -2.9118 -1.9508
  828MOL0     H11769   1.718  10.231  10.698  1.0556 -0.5790 -0.6588
  828MOL0     H11770   1.885  10.279  10.912  0.2508  0.2770 -0.0874
  828MOL0     H11771   1.935  10.415  10.810 -0.6863  0.0306  0.0122
  828MOL0     H11772   2.060  10.268  10.656 -0.9842 -2.6600 -2.2821
  828MOL0     H11773   1.966  10.130  10.695 -1.4950  0.9435 -1.4107
  828MOL0     H11774   2.073  10.110  10.915  1.8429  0.5494  1.3764
  828MOL0     H11775   2.204  10.120  10.794 -0.1104  0.5162 -0.8927
  828MOL0     H11776   2.303  10.434  11.057 -1.5806  1.3742  1.0353
  828MOL0     H11777   1.459  10.270  10.743 -2.4100  2.3026  0.5921
  828MOL0     H11778   1.289  10.144  10.762  0.8084  1.4499  0.4191
  828MOL0     H11779   1.264  10.036  10.890  4.1075 -0.2650  0.0961
  828MOL0     H11780   1.169  10.187  10.896  0.2284 -0.4948 -1.1448
  829MOL0     O11781   2.720  10.200   2.965 -0.4057 -0.5919 -0.8017
  829MOL0     C11782   2.792  10.180   3.065  0.5412  0.6668 -1.0230
  829MOL0     O11783   2.834  10.061   3.109 -0.5661 -0.4162  0.1239
  829MOL0     C11784   2.763   9.952   3.063  0.4823 -0.1420 -0.0156
  829MOL0     C11785   2.833   9.856   2.994 -0.4117 -0.1560 -0.1707
  829MOL0     C11786   2.765   9.757   2.930 -0.0783 -0.3322 -1.1257
  829MOL0     C11787   2.625   9.744   2.950  0.3673 -0.3321  0.1108
  829MOL0     O11788   2.547   9.644   2.901  0.2058  1.0029  0.1322
  829MOL0     C11789   2.604   9.566   2.800  0.9487 -0.0877  0.5697
  829MOL0     C11790   2.496   9.483   2.736  0.0995  1.0173 -0.1492
  829MOL0     C11791   2.531   9.407   2.606  0.9949  0.3671  0.1071
  829MOL0     C11792   2.564   9.500   2.491  0.2780  0.2211 -0.3935
  829MOL0     C11793   2.629   9.429   2.369  0.0700  0.1612 -0.6096
  829MOL0     C11794   2.536   9.311   2.315  0.9247 -0.6864  0.3005
  829MOL0     C11795   2.536   9.322   2.162  0.5645 -0.1047  0.3533
  829MOL0     C11796   2.673   9.272   2.112 -0.2473  1.1979  0.5185
  829MOL0     N11797   2.690   9.268   1.962  0.3577  0.0963  0.2104
  829MOL0     C11798   2.606   9.202   1.878 -1.0808  0.6833  0.8232
  829MOL0     C11799   2.669   9.210   1.757  0.3414  0.6949  0.4376
  829MOL0     C11800   2.625   9.157   1.626 -0.0794  0.3167 -0.7378
  829MOL0     C11801   2.626   9.000   1.611  0.9172 -1.0152 -0.1691
  829MOL0     C11802   2.758   8.925   1.644 -0.0558  0.2187  0.6042
  829MOL0     C11803   2.857   8.950   1.538 -0.4425  0.7953  0.5132
  829MOL0     O11804   2.980   8.878   1.569  0.0408 -0.8950 -0.2688
  829MOL0     C11805   3.068   8.938   1.656  0.5752  0.1486 -0.3276
  829MOL0     C11806   3.183   8.865   1.689  0.1621  0.1362 -0.7522
  829MOL0     C11807   3.289   8.926   1.754  0.0547  0.7080 -0.2008
  829MOL0     C11808   3.289   9.056   1.804  0.1057 -0.1813 -0.1355
  829MOL0     C11809   3.392   9.119   1.879 -0.7338 -0.7261  0.4226
  829MOL0     O11810   3.379   9.250   1.914 -0.7017 -0.3348  0.1195
  829MOL0     C11811   3.463   9.320   2.000  0.5034 -0.2576  0.2445
  829MOL0     C11812   3.508   9.266   2.122  0.5879 -1.2185  0.3190
  829MOL0     C11813   3.585   9.342   2.207  0.3116 -0.6275 -0.4537
  829MOL0     C11814   3.627   9.476   2.180  0.1216  1.3919 -0.2864
  829MOL0     O11815   3.692   9.556   2.276  0.6373  1.0504  0.7805
  829MOL0     C11816   3.617   9.611   2.391  0.4612  0.6378  0.1229
  829MOL0     C11817   3.543   9.741   2.339 -1.2129 -0.7011 -0.4269
  829MOL0     C11818   3.616   9.869   2.378 -0.8343  0.6123 -0.2533
  829MOL0     C11819   3.545  10.010   2.380  0.0625 -0.3930 -0.0530
  829MOL0     C11820   3.627  10.119   2.444 -0.8303 -0.3646 -0.3048
  829MOL0     C11821   3.553  10.259   2.440  0.0200 -0.4406 -0.7743
  829MOL0     C11822   3.578  10.328   2.315 -0.6306 -0.1681  0.0583
  829MOL0     C11823   3.468  10.430   2.294 -0.2822 -0.3798  0.7785
  829MOL0    Cl11824   3.519  10.565   2.196 -0.2353  0.1467 -0.1768
  829MOL0     C11825   3.598   9.506   2.050 -0.1028 -0.6550  0.5177
  829MOL0     C11826   3.521   9.435   1.958 -0.3050  0.5305 -0.5378
  829MOL0     O11827   3.475   9.043   1.925 -0.4071  0.3066 -1.2413
  829MOL0     C11828   3.175   9.126   1.780  0.1960  0.4094 -0.3109
  829MOL0     C11829   3.063   9.071   1.706 -0.3214  0.2058  0.8570
  829MOL0     N11830   2.783   9.289   1.779 -0.6510 -0.5985 -0.0983
  829MOL0     N11831   2.798   9.305   1.905 -0.0289  0.0869  0.6004
  829MOL0     C11832   2.559   9.830   3.033  0.6782  0.2471  0.2622
  829MOL0     C11833   2.627   9.932   3.093 -0.7741 -0.2541 -0.3819
  829MOL0     C11834   2.843  10.298   3.133 -0.1421  0.5017  0.8452
  829MOL0     C11835   2.946  10.363   3.063  0.1688  0.6890  0.0660
  829MOL0     C11836   2.999  10.485   3.104 -0.2850  0.5670 -0.3583
  829MOL0     C11837   2.964  10.545   3.222  1.3435  0.5198 -0.1966
  829MOL0     O11838   3.015  10.665   3.260  0.3040 -0.2091 -0.0535
  829MOL0     C11839   2.919  10.757   3.320 -0.4012  0.3303  0.4561
  829MOL0     C11840   2.949  10.889   3.262 -1.2697 -0.4066  0.2577
  829MOL0     C11841   2.894  10.920   3.125 -0.7179 -1.0621 -0.4570
  829MOL0     C11842   2.939  11.053   3.053 -0.0255  0.6264 -0.2202
  829MOL0     C11843   3.076  11.087   3.098  0.3124  0.0977  0.5640
  829MOL0     C11844   3.191  11.099   3.132 -0.6201 -0.7522 -0.5824
  829MOL0     C11845   2.856  10.480   3.300 -0.0065  0.0877  0.0030
  829MOL0     C11846   2.800  10.358   3.255 -1.0008  0.2520 -0.7078
  829MOL0     C11847   2.710  10.282   3.345  0.9852  0.1593  0.4149
  829MOL0     H11848   2.939   9.863   2.971  0.2496 -0.2762  2.4886
  829MOL0     H11849   2.820   9.676   2.882  1.5945 -1.2750  2.0752
  829MOL0     H11850   2.666   9.623   2.731  0.3412  1.0187  0.9035
  829MOL0     H11851   2.668   9.489   2.843  0.7469 -0.9084 -0.5522
  829MOL0     H11852   2.404   9.536   2.710 -0.6592 -1.6685 -3.8722
  829MOL0     H11853   2.478   9.400   2.805  1.9182  0.9042  0.2410
  829MOL0     H11854   2.453   9.336   2.577 -0.6061  1.8780  0.4803
  829MOL0     H11855   2.623   9.351   2.623  0.8890 -1.0316 -3.3378
  829MOL0     H11856   2.476   9.555   2.457 -0.1683 -1.0586 -1.3917
  829MOL0     H11857   2.634   9.573   2.531 -2.7551  1.6549  2.7735
  829MOL0     H11858   2.637   9.514   2.300 -1.2073  0.9996  0.2342
  829MOL0     H11859   2.729   9.389   2.389  1.0848  3.3409  1.3739
  829MOL0     H11860   2.574   9.219   2.359  1.2025 -0.4660  0.5297
  829MOL0     H11861   2.438   9.343   2.351  2.3097  1.8079  2.2458
  829MOL0     H11862   2.517   9.426   2.135 -1.9764 -0.8338 -0.9822
  829MOL0     H11863   2.450   9.261   2.133  0.2179  0.3940  0.3348
  829MOL0     H11864   2.757   9.328   2.154 -1.0102  1.4693  1.7484
  829MOL0     H11865   2.675   9.168   2.144 -1.4367  1.2060  0.6803
  829MOL0     H11866   2.508   9.163   1.901 -1.6539  1.9908  0.7070
  829MOL0     H11867   2.526   9.201   1.611  1.2503  3.4692 -1.0354
  829MOL0     H11868   2.689   9.199   1.547  2.2854  0.5305  1.2034
  829MOL0     H11869   2.540   8.964   1.668 -2.5337  0.1656 -4.1148
  829MOL0     H11870   2.599   8.978   1.507  0.7913 -1.9743  0.0560
  829MOL0     H11871   2.727   8.821   1.630  2.8083 -0.4756 -1.3281
  829MOL0     H11872   2.794   8.945   1.746  4.5732 -3.9240  0.1350
  829MOL0     H11873   2.868   9.058   1.531 -3.7385  1.3115  1.3814
  829MOL0     H11874   2.819   8.904   1.446 -1.4933  0.0013  1.3031
  829MOL0     H11875   3.190   8.760   1.663 -3.1728 -0.4600  0.2877
  829MOL0     H11876   3.387   8.882   1.765 -0.2696  0.4962  2.7966
  829MOL0     H11877   3.459   9.181   2.168 -1.9547  0.3753  0.7983
  829MOL0     H11878   3.612   9.311   2.307  0.6660 -0.0238 -0.3622
  829MOL0     H11879   3.542   9.539   2.423  2.5097 -2.6817 -1.8681
  829MOL0     H11880   3.685   9.632   2.475 -0.8691  0.3930  1.2879
  829MOL0     H11881   3.540   9.733   2.230 -0.1160  1.6865 -0.7109
  829MOL0     H11882   3.439   9.755   2.369 -0.7153 -1.0982  1.5835
  829MOL0     H11883   3.663   9.856   2.476  0.1986 -1.6481 -0.9942
  829MOL0     H11884   3.692   9.892   2.302  1.8992  0.4205  2.2282
  829MOL0     H11885   3.454   9.994   2.440 -1.1291 -0.0525 -1.6989
  829MOL0     H11886   3.508  10.034   2.280 -0.8804 -2.6881 -0.3120
  829MOL0     H11887   3.728  10.123   2.402 -0.7308 -0.1623 -0.0492
  829MOL0     H11888   3.646  10.085   2.546  1.7514  0.9730 -0.2485
  829MOL0     H11889   3.447  10.243   2.458  0.2052 -0.4848  0.3163
  829MOL0     H11890   3.601  10.315   2.521 -1.5714 -0.5179  0.2604
  829MOL0     H11891   3.580  10.256   2.233  2.2557  0.4129 -0.4727
  829MOL0     H11892   3.673  10.381   2.322 -2.0185  2.4310  0.7913
  829MOL0     H11893   3.378  10.392   2.245  0.1729 -1.3660  0.6749
  829MOL0     H11894   3.435  10.470   2.390  2.8688 -0.0770  1.8697
  829MOL0     H11895   3.630   9.601   2.007  0.5093 -1.0982 -0.0356
  829MOL0     H11896   3.506   9.476   1.859 -2.7854  1.6203  0.2143
  829MOL0     H11897   3.153   9.229   1.808 -1.8196 -0.1320  0.2478
  829MOL0     H11898   2.978   9.135   1.684  0.6822  0.7823 -1.6995
  829MOL0     H11899   2.452   9.818   3.048  0.5740  2.0584  1.3214
  829MOL0     H11900   2.572  10.010   3.146 -0.2745 -0.5289  0.5710
  829MOL0     H11901   2.980  10.321   2.969  0.4286 -0.6756  0.7331
  829MOL0     H11902   3.071  10.538   3.042 -1.5163  1.0316 -1.4530
  829MOL0     H11903   2.922  10.751   3.429  0.3541  2.1360  0.5612
  829MOL0     H11904   2.816  10.730   3.292  1.4730 -3.2964 -4.4157
  829MOL0     H11905   3.058  10.894   3.264 -1.3043  0.4610  2.1813
  829MOL0     H11906   2.916  10.967   3.331  0.7681  0.4048  0.3840
  829MOL0     H11907   2.787  10.929   3.145  0.0600  1.8753  3.4742
  829MOL0     H11908   2.910  10.841   3.051 -0.3500  1.8045 -3.7048
  829MOL0     H11909   2.946  11.026   2.948  2.6212  1.0945 -0.2396
  829MOL0     H11910   2.867  11.132   3.078 -2.0984 -1.3089  0.2219
  829MOL0     H11911   3.297  11.083   3.141 -0.8725 -2.5684 -0.4351
  829MOL0     H11912   2.815  10.516   3.394  1.5118  2.4804 -0.1621
  829MOL0     H11913   2.620  10.334   3.379  0.1228 -1.3666  0.5712
  829MOL0     H11914   2.668  10.193   3.297 -4.0659  3.4212 -2.0998
  829MOL0     H11915   2.764  10.251   3.435  1.9907 -2.9743 -1.1049
  830MOL0     O11916   5.175   3.783   7.478  0.9403  0.6087  0.6552
  830MOL0     C11917   5.204   3.895   7.431  0.4718  0.4252 -0.2640
  830MOL0     O11918   5.326   3.933   7.382  0.9423  0.2642 -0.1205
  830MOL0     C11919   5.420   3.849   7.351 -0.5366  0.5183  0.5348
  830MOL0     C11920   5.398   3.729   7.279  0.3070 -0.0488  0.0534
  830MOL0     C11921   5.507   3.652   7.243  0.1363  0.4064 -0.7787
  830MOL0     C11922   5.634   3.678   7.281 -0.3100  0.1123 -0.1039
  830MOL0     O11923   5.743   3.592   7.261 -0.1792  0.0127  0.3639
  830MOL0     C11924   5.737   3.508   7.145  0.2771 -0.1594  0.5928
  830MOL0     C11925   5.864   3.427   7.124 -0.5639  1.4468 -0.2195
  830MOL0     C11926   5.990   3.499   7.087 -0.8399  0.2122 -0.3908
  830MOL0     C11927   6.123   3.435   7.124 -0.6323  0.5424  0.5908
  830MOL0     C11928   6.238   3.534   7.094 -0.2178  0.1763  0.4235
  830MOL0     C11929   6.256   3.600   6.951  0.7261 -0.9605  0.0697
  830MOL0     C11930   6.398   3.675   6.941  0.6737  0.1374  0.0827
  830MOL0     C11931   6.489   3.602   6.845  0.6926  0.1050  0.1537
  830MOL0     N11932   6.609   3.678   6.818  0.4361 -0.7162 -0.7122
  830MOL0     C11933   6.730   3.679   6.894  0.6679 -0.5411 -0.8710
  830MOL0     C11934   6.798   3.780   6.844 -0.3955 -1.0122 -0.0641
  830MOL0     C11935   6.923   3.835   6.882  0.2475  0.0080  0.9177
  830MOL0     C11936   7.018   3.743   6.951  0.6096  0.1216  0.0171
  830MOL0     C11937   7.158   3.808   6.960  0.0919 -0.6862 -0.5360
  830MOL0     C11938   7.254   3.719   7.026 -0.4259  0.4818 -0.8626
  830MOL0     O11939   7.385   3.788   7.023 -0.1090  0.3774 -0.4443
  830MOL0     C11940   7.500   3.742   7.088 -0.1619 -0.2126 -0.8506
  830MOL0     C11941   7.597   3.838   7.128 -0.5743 -0.0892  0.3781
  830MOL0     C11942   7.720   3.794   7.180 -0.2422  0.5986 -0.3268
  830MOL0     C11943   7.744   3.649   7.204  0.6439  0.4087  0.6585
  830MOL0     C11944   7.880   3.614   7.246  0.1023 -0.0834 -0.3620
  830MOL0     O11945   7.987   3.690   7.214 -0.5142 -0.7443  0.2628
  830MOL0     C11946   8.114   3.628   7.210 -0.3714 -0.1647 -0.0039
  830MOL0     C11947   8.212   3.658   7.302  0.0241 -0.3391 -0.0266
  830MOL0     C11948   8.338   3.614   7.280 -0.1592  0.5871 -0.1039
  830MOL0     C11949   8.373   3.549   7.158  0.4884 -0.2394  0.0883
  830MOL0     O11950   8.501   3.500   7.124 -0.2567  0.0217 -0.7607
  830MOL0     C11951   8.603   3.591   7.137  0.6632 -0.3918  0.6092
  830MOL0     C11952   8.688   3.546   7.262 -0.2836  0.0483 -0.2691
  830MOL0     C11953   8.745   3.404   7.241  0.3237  0.3681 -0.2433
  830MOL0     C11954   8.839   3.371   7.357 -0.0536  0.4277  0.8469
  830MOL0     C11955   8.871   3.218   7.362  0.3319  0.1685 -0.0049
  830MOL0     C11956   8.980   3.195   7.261  0.0374  0.4450  0.1242
  830MOL0     C11957   9.009   3.056   7.216  0.7255  0.9087  0.2130
  830MOL0     C11958   9.137   3.001   7.272 -0.3374  0.0019 -0.0810
  830MOL0    Cl11959   9.158   2.833   7.211  0.2270  0.1224  0.3008
  830MOL0     C11960   8.277   3.519   7.068  1.2680  0.4076 -0.4257
  830MOL0     C11961   8.148   3.553   7.088  0.8507 -0.7917 -1.0483
  830MOL0     O11962   7.893   3.504   7.296  1.1302  0.3326  0.1272
  830MOL0     C11963   7.632   3.563   7.191 -0.6154  0.1621  0.0200
  830MOL0     C11964   7.511   3.609   7.139  0.4858 -0.2795  0.5131
  830MOL0     N11965   6.724   3.840   6.751 -0.4236  0.3961  0.2065
  830MOL0     N11966   6.611   3.791   6.737  0.1250  0.8819 -0.4721
  830MOL0     C11967   5.652   3.789   7.360  1.0245  0.9053 -0.4977
  830MOL0     C11968   5.552   3.874   7.403  0.3990  0.0541  0.7797
  830MOL0     C11969   5.096   3.991   7.443 -0.7263 -0.0208 -0.0250
  830MOL0     C11970   4.966   3.950   7.490 -0.2419  0.6050  0.4385
  830MOL0     C11971   4.862   4.037   7.509 -0.9851  0.7557 -0.5656
  830MOL0     C11972   4.886   4.176   7.497  0.9523  0.3234 -0.4797
  830MOL0     O11973   4.793   4.268   7.524 -0.5771 -0.7854 -0.3844
  830MOL0     C11974   4.658   4.241   7.481 -0.0298  0.0842  0.2990
  830MOL0     C11975   4.621   4.348   7.382  0.0129 -0.7443 -0.3154
  830MOL0     C11976   4.469   4.354   7.363  0.7086 -0.0563  1.3089
  830MOL0     C11977   4.437   4.447   7.241 -0.4295  0.3330  0.1701
  830MOL0     C11978   4.294   4.451   7.202 -0.7351 -0.0057  0.2738
  830MOL0     C11979   4.178   4.452   7.157  0.4477  0.6173  0.1114
  830MOL0     C11980   5.010   4.217   7.447  0.1808 -0.4975  0.6488
  830MOL0     C11981   5.112   4.132   7.410 -0.5925  0.4264 -0.3941
  830MOL0     C11982   5.232   4.197   7.344  0.4512  0.3209 -0.6042
  830MOL0     H11983   5.301   3.689   7.248  0.2446 -0.8205  1.1877
  830MOL0     H11984   5.489   3.566   7.180  2.8123  0.5108 -1.7793
  830MOL0     H11985   5.666   3.424   7.150 -0.8132  0.6914  0.0296
  830MOL0     H11986   5.709   3.557   7.051 -1.1064  0.3782  1.2486
  830MOL0     H11987   5.837   3.348   7.055 -1.8250  0.0074  1.8100
  830MOL0     H11988   5.892   3.364   7.209 -0.6814 -1.7724 -2.4219
  830MOL0     H11989   5.980   3.596   7.138 -2.6537  0.2448 -0.7351
  830MOL0     H11990   5.983   3.521   6.981 -0.3181  2.9558  0.0680
  830MOL0     H11991   6.118   3.421   7.232  0.3772  1.3202  0.7544
  830MOL0     H11992   6.145   3.336   7.083 -0.0726  1.4761 -1.5047
  830MOL0     H11993   6.220   3.623   7.155 -0.5823  0.2096  0.2756
  830MOL0     H11994   6.330   3.485   7.128 -0.7354 -1.1580 -0.0087
  830MOL0     H11995   6.257   3.526   6.871 -0.8931  1.9195 -2.8625
  830MOL0     H11996   6.169   3.663   6.932 -0.0139 -2.0700 -0.3286
  830MOL0     H11997   6.454   3.681   7.035 -0.2753 -0.5246  0.7027
  830MOL0     H11998   6.393   3.775   6.897  1.0278 -0.7835 -2.2080
  830MOL0     H11999   6.518   3.500   6.869  1.6209 -0.1014 -1.6711
  830MOL0     H12000   6.446   3.588   6.746 -0.8242 -0.9746  0.9337
  830MOL0     H12001   6.754   3.619   6.981 -0.1388 -0.4100 -0.5489
  830MOL0     H12002   6.962   3.859   6.783  1.5857  0.0857  1.4355
  830MOL0     H12003   6.915   3.935   6.927  1.4390  1.5891 -2.0643
  830MOL0     H12004   6.970   3.718   7.046 -1.7609 -2.4367 -1.6985
  830MOL0     H12005   7.019   3.648   6.898 -2.7011 -1.0988  1.8789
  830MOL0     H12006   7.160   3.896   7.025 -0.5467 -2.0622  1.4222
  830MOL0     H12007   7.183   3.830   6.855  1.7901  1.5254  0.2437
  830MOL0     H12008   7.257   3.619   6.981  1.4741 -2.0325  4.1066
  830MOL0     H12009   7.231   3.704   7.131  0.0135 -0.2709 -0.8665
  830MOL0     H12010   7.604   3.930   7.070  3.1670  0.9929  2.1792
  830MOL0     H12011   7.809   3.855   7.193 -0.3294  1.6874 -3.8622
  830MOL0     H12012   8.182   3.689   7.401 -0.9611 -2.1628  0.2837
  830MOL0     H12013   8.420   3.633   7.348  4.4504 -2.3920 -4.1154
  830MOL0     H12014   8.658   3.595   7.043  3.7279 -2.6466  2.0851
  830MOL0     H12015   8.563   3.691   7.154  0.1567 -0.8379  2.2494
  830MOL0     H12016   8.771   3.617   7.274  0.1615 -0.8452  3.0293
  830MOL0     H12017   8.623   3.543   7.350 -1.4139 -0.6573 -1.1121
  830MOL0     H12018   8.671   3.323   7.243  2.7089 -1.9378  0.5250
  830MOL0     H12019   8.804   3.384   7.151 -0.0255 -0.8094 -0.2259
  830MOL0     H12020   8.804   3.406   7.454 -0.7941 -2.1654  1.5863
  830MOL0     H12021   8.938   3.415   7.340  0.4880 -1.0234  0.0835
  830MOL0     H12022   8.787   3.152   7.340  0.1841 -0.4625  2.2248
  830MOL0     H12023   8.917   3.178   7.453 -1.5211 -0.9407  0.4815
  830MOL0     H12024   8.948   3.239   7.166  4.3597 -0.3836 -2.0000
  830MOL0     H12025   9.061   3.264   7.288 -0.9351  2.1013 -1.0169
  830MOL0     H12026   9.027   3.044   7.109 -1.2775  0.9564 -0.1807
  830MOL0     H12027   8.927   2.989   7.243 -0.0459  2.3643  1.6749
  830MOL0     H12028   9.226   3.061   7.247  0.0994 -1.5757 -2.5470
  830MOL0     H12029   9.122   2.998   7.381 -0.9211  0.0438 -0.1594
  830MOL0     H12030   8.288   3.455   6.981  0.9798 -0.3514  0.0928
  830MOL0     H12031   8.071   3.535   7.014  0.5431 -1.2722 -0.6185
  830MOL0     H12032   7.641   3.460   7.225  0.9957  0.3187  0.1328
  830MOL0     H12033   7.424   3.546   7.121 -2.4113  3.7887 -1.1648
  830MOL0     H12034   5.755   3.800   7.392  0.4601  1.6942  1.1965
  830MOL0     H12035   5.574   3.964   7.459  3.5382  2.0788 -3.1309
  830MOL0     H12036   4.950   3.844   7.507 -0.2254  1.0431  3.6432
  830MOL0     H12037   4.773   3.995   7.557 -1.7087  1.3807 -1.3298
  830MOL0     H12038   4.595   4.249   7.570  3.1433  1.0617  2.6811
  830MOL0     H12039   4.639   4.147   7.428 -0.1560  0.9585 -1.2588
  830MOL0     H12040   4.678   4.337   7.289  0.3153  1.2337 -0.4063
  830MOL0     H12041   4.658   4.445   7.416  2.6830 -0.8806 -2.4937
  830MOL0     H12042   4.427   4.392   7.456  2.9746  3.8743  0.9642
  830MOL0     H12043   4.436   4.253   7.335  0.1105  0.0221  1.7207
  830MOL0     H12044   4.465   4.550   7.265  0.5046  0.1749 -0.2139
  830MOL0     H12045   4.493   4.411   7.155 -1.2912  0.2282 -0.3602
  830MOL0     H12046   4.073   4.465   7.139  0.3608 -0.4557 -0.2159
  830MOL0     H12047   5.009   4.321   7.415 -0.4230 -1.6883 -3.9360
  830MOL0     H12048   5.315   4.184   7.414  0.5226  1.1254 -0.5318
  830MOL0     H12049   5.245   4.132   7.256 -1.1251 -0.9929  0.0698
  830MOL0     H12050   5.214   4.301   7.316 -1.4210  0.1783 -0.1200
  831MOL0     O12051   2.517  10.139   1.877 -0.1765 -0.3177 -0.5944
  831MOL0     C12052   2.502  10.249   1.914 -0.2313 -0.0951 -0.3048
  831MOL0     O12053   2.448  10.350   1.831  0.2840  0.8978  0.5375
  831MOL0     C12054   2.389  10.309   1.713  0.1746  0.5377 -0.5376
  831MOL0     C12055   2.467  10.260   1.605  0.1848 -0.4832 -0.2207
  831MOL0     C12056   2.409  10.229   1.480 -0.2522 -0.3065  0.4780
  831MOL0     C12057   2.274  10.262   1.459  0.0988 -0.2163 -1.1867
  831MOL0     O12058   2.202  10.237   1.343  0.5752  0.0775  0.1019
  831MOL0     C12059   2.272  10.171   1.236 -0.8489  0.7722  0.5493
  831MOL0     C12060   2.180  10.141   1.124 -0.2731  0.8125  0.8579
  831MOL0     C12061   2.082  10.034   1.181 -0.5728  0.5259 -2.1727
  831MOL0     C12062   1.979   9.964   1.077  0.7466 -0.0807 -0.1428
  831MOL0     C12063   1.906   9.857   1.150 -0.4325  0.1210  0.4444
  831MOL0     C12064   1.757   9.860   1.112 -0.1406  0.5283 -0.4862
  831MOL0     C12065   1.685   9.742   1.182  0.6267  0.3195  0.2931
  831MOL0     C12066   1.526   9.744   1.158  0.3565  0.8312 -1.3549
  831MOL0     N12067   1.479   9.701   1.022  0.1420 -0.5956  0.2326
  831MOL0     C12068   1.443   9.788   0.917  0.0869 -0.3047  0.3542
  831MOL0     C12069   1.432   9.711   0.808 -1.1065 -0.5514  1.6617
  831MOL0     C12070   1.421   9.760   0.664 -1.1127  0.0934 -1.2664
  831MOL0     C12071   1.361   9.681   0.565 -0.0501 -0.1925  0.0138
  831MOL0     C12072   1.444   9.566   0.501 -0.2636  0.6386  0.3111
  831MOL0     C12073   1.373   9.497   0.383 -0.7824 -0.6627 -0.9424
  831MOL0     O12074   1.418   9.577   0.267  0.3625  0.0815  0.0037
  831MOL0     C12075   1.405   9.523   0.144 -0.2329  0.2015 -0.1140
  831MOL0     C12076   1.492   9.565   0.045  0.6391 -0.0237  0.6915
  831MOL0     C12077   1.480   9.520  -0.084  0.2948  0.3739  0.4066
  831MOL0     C12078   1.382   9.421  -0.117  0.0644  0.6586 -0.7213
  831MOL0     C12079   1.382   9.350  -0.246  0.5686 -0.0455  0.3210
  831MOL0     O12080   1.272   9.269  -0.283 -0.1674  0.0770 -0.2966
  831MOL0     C12081   1.290   9.207  -0.417 -0.0977  0.1636  0.5643
  831MOL0     C12082   1.384   9.112  -0.445 -0.0986 -0.6898 -0.0334
  831MOL0     C12083   1.381   9.046  -0.570 -0.1567 -0.5904  0.1413
  831MOL0     C12084   1.278   9.057  -0.662  0.9896 -0.3657 -0.3941
  831MOL0     O12085   1.291   9.000  -0.786 -0.7609  1.1194  0.6634
  831MOL0     C12086   1.307   8.857  -0.796  0.4070  0.7767 -0.8354
  831MOL0     C12087   1.404   8.823  -0.906  0.0032  0.1028 -0.3020
  831MOL0     C12088   1.340   8.869  -1.047 -0.0492  0.3857 -0.4674
  831MOL0     C12089   1.422   8.860  -1.173 -0.4706  0.2485 -0.7952
  831MOL0     C12090   1.361   8.946  -1.282  0.2488 -0.2335 -0.7218
  831MOL0     C12091   1.219   8.903  -1.319  0.3762  0.5835  0.1568
  831MOL0     C12092   1.141   8.991  -1.416  0.2355 -0.5558 -0.4504
  831MOL0     C12093   1.179   8.965  -1.547  0.3199  0.1662  0.4936
  831MOL0    Cl12094   1.115   8.810  -1.592 -0.0657  0.5340  0.0582
  831MOL0     C12095   1.175   9.153  -0.640  0.3422 -0.4183  0.7846
  831MOL0     C12096   1.185   9.223  -0.514 -0.1452  0.4474 -0.0399
  831MOL0     O12097   1.475   9.381  -0.322 -0.4107 -0.5063 -0.0353
  831MOL0     C12098   1.290   9.381  -0.020 -0.3760 -0.4347  0.0130
  831MOL0     C12099   1.301   9.429   0.105  0.9303  0.3880 -0.0466
  831MOL0     N12100   1.452   9.579   0.849  0.0439  0.2033  0.5117
  831MOL0     N12101   1.473   9.578   0.979  0.1844  1.0569 -1.0537
  831MOL0     C12102   2.192  10.320   1.564  0.6213  0.2602  0.1359
  831MOL0     C12103   2.252  10.332   1.689 -0.5610 -1.4838  0.1152
  831MOL0     C12104   2.564  10.295   2.039  0.1492 -0.0195 -0.9427
  831MOL0     C12105   2.637  10.417   2.037 -1.1944  0.0153  0.6404
  831MOL0     C12106   2.707  10.466   2.152  0.0858  0.7714  1.3530
  831MOL0     C12107   2.698  10.384   2.268 -0.8250  0.6808  0.2087
  831MOL0     O12108   2.759  10.426   2.386  0.5427  0.5908  0.5888
  831MOL0     C12109   2.744  10.358   2.510  0.4432 -0.8817  0.0916
  831MOL0     C12110   2.857  10.390   2.602 -0.0802  0.4893 -0.5261
  831MOL0     C12111   2.891  10.538   2.601 -0.1595  0.8361 -0.3349
  831MOL0     C12112   2.905  10.596   2.746 -0.0118 -0.1419  0.1202
  831MOL0     C12113   2.785  10.574   2.820 -0.0677  1.0673 -0.0128
  831MOL0     C12114   2.684  10.576   2.888  0.4786  0.2871  1.0457
  831MOL0     C12115   2.627  10.267   2.263  0.1726  0.8229 -0.4492
  831MOL0     C12116   2.563  10.213   2.158 -0.4361  0.4351  0.1181
  831MOL0     C12117   2.476  10.092   2.175  0.0448 -0.3194  0.6553
  831MOL0     H12118   2.573  10.236   1.610 -0.0271 -1.1050  1.8868
  831MOL0     H12119   2.477  10.189   1.406  1.5845  3.4420 -0.1020
  831MOL0     H12120   2.356  10.228   1.198 -2.1190  0.6354 -2.7530
  831MOL0     H12121   2.314  10.074   1.265  1.0507  1.9594  1.9578
  831MOL0     H12122   2.251  10.107   1.048  0.1713 -1.2927  2.1332
  831MOL0     H12123   2.118  10.224   1.090  1.9630  1.5310 -1.8021
  831MOL0     H12124   2.029  10.092   1.257 -2.2623  1.1140 -3.7242
  831MOL0     H12125   2.138   9.955   1.233  0.1663  1.7573 -1.0317
  831MOL0     H12126   1.911  10.043   1.044  0.8165 -0.2333 -0.6763
  831MOL0     H12127   2.034   9.931   0.987  1.9744 -0.3287  0.6667
  831MOL0     H12128   1.947   9.758   1.126 -2.2070 -1.1789  2.4050
  831MOL0     H12129   1.924   9.865   1.257 -0.5255  2.1829  0.3342
  831MOL0     H12130   1.725   9.960   1.143 -1.5525 -0.3961  1.1659
  831MOL0     H12131   1.726   9.839   1.009  2.1471 -1.8508 -0.8179
  831MOL0     H12132   1.688   9.749   1.291 -2.0470  3.3444  0.3440
  831MOL0     H12133   1.732   9.651   1.144  1.9978  1.9876 -2.3977
  831MOL0     H12134   1.492   9.669   1.230 -1.9122  4.0108  1.1725
  831MOL0     H12135   1.473   9.835   1.188 -1.8898 -1.0243  0.6948
  831MOL0     H12136   1.455   9.896   0.918  0.5377 -0.2007 -3.1565
  831MOL0     H12137   1.361   9.849   0.683  0.7791  0.9161  1.3588
  831MOL0     H12138   1.522   9.786   0.630 -0.7614 -2.1388 -2.1066
  831MOL0     H12139   1.276   9.638   0.620  0.8500  0.1332  1.7148
  831MOL0     H12140   1.319   9.752   0.493 -1.7792 -0.0843  1.0752
  831MOL0     H12141   1.448   9.493   0.583 -2.8632 -0.3121 -0.2995
  831MOL0     H12142   1.544   9.601   0.472  0.2764  1.2682  2.7058
  831MOL0     H12143   1.265   9.485   0.396 -0.4696 -2.4284  0.3843
  831MOL0     H12144   1.413   9.397   0.365 -2.1817 -1.4561  0.1942
  831MOL0     H12145   1.560   9.650   0.052  1.3597 -0.2616 -2.0877
  831MOL0     H12146   1.551   9.556  -0.158 -1.1654  0.9855 -0.7407
  831MOL0     H12147   1.464   9.111  -0.372 -0.3752 -0.0379  0.2911
  831MOL0     H12148   1.466   8.983  -0.596 -0.3092  0.1658 -2.3604
  831MOL0     H12149   1.336   8.813  -0.700 -2.0100 -0.1608 -0.4611
  831MOL0     H12150   1.211   8.810  -0.817 -0.0348  2.5800 -3.2494
  831MOL0     H12151   1.501   8.870  -0.890 -0.0585  0.1251  0.0114
  831MOL0     H12152   1.409   8.714  -0.902 -2.4046 -0.0189  2.5146
  831MOL0     H12153   1.252   8.810  -1.074  0.5673 -1.1845  0.7411
  831MOL0     H12154   1.302   8.971  -1.038 -1.6617 -0.2955  1.0314
  831MOL0     H12155   1.438   8.755  -1.201  1.5570  0.7486 -1.6944
  831MOL0     H12156   1.519   8.903  -1.148 -0.8370  1.6630 -1.6968
  831MOL0     H12157   1.415   8.937  -1.377  0.3282  2.0935 -0.9420
  831MOL0     H12158   1.372   9.051  -1.252 -1.0111 -0.0960 -0.6759
  831MOL0     H12159   1.228   8.806  -1.369  0.3005  1.4575 -1.6375
  831MOL0     H12160   1.149   8.896  -1.235  1.0802 -0.1989  0.6985
  831MOL0     H12161   1.158   9.098  -1.402  0.2267  0.1474 -4.4792
  831MOL0     H12162   1.036   8.961  -1.404  0.5576 -1.5807 -0.0948
  831MOL0     H12163   1.138   9.041  -1.613  2.3435  1.3548  0.5288
  831MOL0     H12164   1.288   8.965  -1.555  0.4681 -0.9050  1.9761
  831MOL0     H12165   1.089   9.168  -0.704  0.5014 -0.0692  0.6520
  831MOL0     H12166   1.104   9.285  -0.480  1.9253  2.4688  1.5002
  831MOL0     H12167   1.205   9.316  -0.042  2.0249 -4.5476  1.8420
  831MOL0     H12168   1.248   9.381   0.186  3.1441 -2.5815 -0.1629
  831MOL0     H12169   2.086  10.343   1.555  0.2271  0.2828  3.5208
  831MOL0     H12170   2.194  10.360   1.777 -1.6121  0.7778 -1.2036
  831MOL0     H12171   2.642  10.481   1.950 -0.4331  2.1117  2.1262
  831MOL0     H12172   2.761  10.560   2.152 -1.6210  1.8118 -0.4732
  831MOL0     H12173   2.744  10.249   2.496  1.2065 -0.9520  0.5959
  831MOL0     H12174   2.648  10.376   2.559 -1.4286  0.1417 -3.6138
  831MOL0     H12175   2.944  10.334   2.567  0.8620  1.2219  0.5877
  831MOL0     H12176   2.831  10.344   2.697  0.6580 -0.5772 -0.8200
  831MOL0     H12177   2.819  10.602   2.550  0.6051  1.7161 -0.3247
  831MOL0     H12178   2.984  10.560   2.548 -0.2053  0.9775 -0.3574
  831MOL0     H12179   2.989  10.551   2.800  0.6806 -0.4393 -1.1843
  831MOL0     H12180   2.920  10.704   2.734 -0.3229  0.0066  0.9317
  831MOL0     H12181   2.601  10.556   2.953 -2.1454  0.7872 -1.9134
  831MOL0     H12182   2.603  10.208   2.351 -0.2200  2.0200  0.2860
  831MOL0     H12183   2.500  10.016   2.099  0.8642 -0.6499  1.2243
  831MOL0     H12184   2.485  10.046   2.274  0.0733  0.7161  1.1437
  831MOL0     H12185   2.377  10.131   2.152  0.5522  1.2827  1.1017
  832MOL0     O12186   6.387   4.220   1.837  0.4286  0.2620 -0.2234
  832MOL0     C12187   6.392   4.215   1.960 -0.3698 -0.5251 -0.8118
  832MOL0     O12188   6.480   4.289   2.038 -0.1850 -0.4551  0.3572
  832MOL0     C12189   6.549   4.385   1.971 -0.8998  0.8108 -0.1567
  832MOL0     C12190   6.662   4.352   1.895 -0.3237 -0.1328  0.5715
  832MOL0     C12191   6.744   4.452   1.846  0.0127 -0.0150  0.4215
  832MOL0     C12192   6.729   4.584   1.874 -0.8756 -0.3244 -0.6872
  832MOL0     O12193   6.821   4.681   1.845  0.2788 -0.0443  0.0408
  832MOL0     C12194   6.866   4.780   1.939  0.2170  0.6010  0.8229
  832MOL0     C12195   7.024   4.817   1.934  0.7137  0.0761 -0.4476
  832MOL0     C12196   7.101   4.697   1.976  0.8434 -0.2118  1.3360
  832MOL0     C12197   7.249   4.727   1.944 -0.0020  0.2914  0.7164
  832MOL0     C12198   7.341   4.605   1.929  0.3779 -0.2197 -0.1383
  832MOL0     C12199   7.464   4.633   1.845 -1.0894 -0.5721 -0.1795
  832MOL0     C12200   7.547   4.505   1.826  0.1090 -0.8805 -0.1711
  832MOL0     C12201   7.672   4.533   1.737  0.4625 -0.2238  0.4072
  832MOL0     N12202   7.718   4.397   1.706 -0.7488 -0.1422  0.2106
  832MOL0     C12203   7.747   4.295   1.794 -0.6675  0.3493  0.3951
  832MOL0     C12204   7.763   4.181   1.727  0.9368  0.1139  0.6620
  832MOL0     C12205   7.796   4.034   1.767  0.5850 -1.0950  0.7547
  832MOL0     C12206   7.778   3.998   1.912 -0.4430  0.4844 -0.0998
  832MOL0     C12207   7.858   3.877   1.971 -0.5952  0.5367 -0.7923
  832MOL0     C12208   8.011   3.876   1.945 -0.6374  0.8556  0.2455
  832MOL0     O12209   8.080   3.967   2.027 -0.9076 -0.4527  0.4738
  832MOL0     C12210   8.080   3.954   2.165  0.8067 -0.3851 -0.6477
  832MOL0     C12211   8.058   3.829   2.231 -0.2240 -0.1730 -0.2023
  832MOL0     C12212   8.083   3.813   2.366 -0.5415 -0.0669 -0.1422
  832MOL0     C12213   8.139   3.917   2.444 -0.5332 -0.2484  0.2916
  832MOL0     C12214   8.197   3.904   2.578  0.1814 -0.2626  1.1205
  832MOL0     O12215   8.238   3.787   2.618 -0.3585  0.6740 -0.3850
  832MOL0     C12216   8.288   3.766   2.755  0.9623 -0.7043  0.6941
  832MOL0     C12217   8.379   3.663   2.779  0.3605 -0.5463 -0.6201
  832MOL0     C12218   8.432   3.635   2.905  0.4654 -0.0782 -0.0795
  832MOL0     C12219   8.401   3.709   3.019  0.1438  0.3259  0.3473
  832MOL0     O12220   8.463   3.673   3.140  0.2769 -0.0664 -0.4050
  832MOL0     C12221   8.384   3.698   3.262 -0.8131 -0.1665 -0.2961
  832MOL0     C12222   8.476   3.713   3.385  0.7048  0.0353 -0.6327
  832MOL0     C12223   8.425   3.805   3.490 -0.4984  0.3084 -0.1928
  832MOL0     C12224   8.513   3.816   3.616 -0.5151  0.1259 -0.0655
  832MOL0     C12225   8.667   3.825   3.599  0.5689 -0.1282 -0.0553
  832MOL0     C12226   8.713   3.829   3.750 -0.8678 -0.6881  0.4913
  832MOL0     C12227   8.870   3.813   3.767 -0.1027 -0.0400 -0.2895
  832MOL0     C12228   8.892   3.843   3.920  0.1379  1.0768  0.3993
  832MOL0    Cl12229   8.899   3.677   3.997 -0.1018 -0.5119  0.1347
  832MOL0     C12230   8.309   3.815   3.000  0.7771  1.2541 -0.4671
  832MOL0     C12231   8.251   3.838   2.875  0.2678 -0.1422  0.5463
  832MOL0     O12232   8.223   4.013   2.627  0.2635 -0.6804 -0.6261
  832MOL0     C12233   8.149   4.045   2.379  0.3584  0.4728  0.2625
  832MOL0     C12234   8.112   4.068   2.241  0.2442 -0.0087 -0.5291
  832MOL0     N12235   7.737   4.212   1.590 -1.0843  0.6846 -0.4802
  832MOL0     N12236   7.715   4.339   1.580 -0.8884  0.3218  0.0518
  832MOL0     C12237   6.621   4.621   1.943 -0.6593  0.2242 -0.4320
  832MOL0     C12238   6.532   4.523   1.999 -0.4967  0.6030 -0.2797
  832MOL0     C12239   6.319   4.109   2.040 -0.9766  0.4113 -0.5873
  832MOL0     C12240   6.382   4.058   2.158 -0.4784  0.1503 -0.0305
  832MOL0     C12241   6.310   3.962   2.228  0.4290  0.1883 -0.2368
  832MOL0     C12242   6.182   3.917   2.195 -0.5155  1.1635 -0.0970
  832MOL0     O12243   6.117   3.819   2.263  0.2620 -0.0650 -0.1107
  832MOL0     C12244   5.995   3.755   2.227  0.4248  0.3183 -0.6101
  832MOL0     C12245   6.016   3.660   2.112  0.5290 -0.3411 -0.5469
  832MOL0     C12246   5.883   3.599   2.075 -0.8215 -0.7168 -0.0921
  832MOL0     C12247   5.811   3.684   1.963  0.2967  0.1694 -0.1317
  832MOL0     C12248   5.855   3.636   1.829 -0.2879  0.0514 -0.5238
  832MOL0     C12249   5.897   3.589   1.722 -0.1558  0.1668  0.6591
  832MOL0     C12250   6.130   3.960   2.072  0.0923 -0.5916  0.0840
  832MOL0     C12251   6.196   4.058   1.999 -0.2887 -0.4611  0.1966
  832MOL0     C12252   6.119   4.101   1.873 -0.8383 -1.2857 -0.7142
  832MOL0     H12253   6.669   4.248   1.864  1.8254 -0.4020  1.7526
  832MOL0     H12254   6.837   4.425   1.798  0.8687  0.4849  1.7371
  832MOL0     H12255   6.816   4.875   1.918 -1.8890 -0.7283 -0.6139
  832MOL0     H12256   6.839   4.755   2.042 -0.0763 -0.9757  0.3952
  832MOL0     H12257   7.038   4.904   1.998 -3.7323  0.5318  0.2088
  832MOL0     H12258   7.057   4.846   1.833  0.8372 -3.6555 -1.6409
  832MOL0     H12259   7.060   4.609   1.925 -0.4368  0.2828  1.4966
  832MOL0     H12260   7.095   4.670   2.082  0.4630  0.0824  1.3903
  832MOL0     H12261   7.256   4.773   1.845 -0.8570 -2.6438 -0.8376
  832MOL0     H12262   7.288   4.800   2.016 -0.8614  2.3278 -0.7779
  832MOL0     H12263   7.373   4.574   2.029  2.3017  1.6147 -0.1187
  832MOL0     H12264   7.276   4.536   1.874 -1.4520  1.3821 -0.0751
  832MOL0     H12265   7.434   4.678   1.750 -0.2031 -0.2403 -0.3104
  832MOL0     H12266   7.533   4.705   1.891 -0.4175 -1.8957  0.9769
  832MOL0     H12267   7.476   4.432   1.786 -1.2022  1.7963 -3.1090
  832MOL0     H12268   7.581   4.459   1.920 -0.8490 -2.4439 -0.5402
  832MOL0     H12269   7.642   4.585   1.646  1.2979  1.4401  1.0338
  832MOL0     H12270   7.741   4.598   1.791  1.9989 -0.3089 -1.3486
  832MOL0     H12271   7.740   4.313   1.900 -0.0868 -0.6796  0.6187
  832MOL0     H12272   7.733   3.972   1.702 -1.9716 -0.0947  2.1482
  832MOL0     H12273   7.899   4.021   1.733  1.6128  3.2126  1.6151
  832MOL0     H12274   7.791   4.092   1.967 -1.7426 -0.0546  1.2332
  832MOL0     H12275   7.670   3.985   1.930 -0.8203  1.7423 -1.3158
  832MOL0     H12276   7.825   3.799   1.901 -0.7565  1.1132 -1.3663
  832MOL0     H12277   7.833   3.857   2.076  0.5735 -3.6461 -1.1215
  832MOL0     H12278   8.037   3.907   1.843 -0.6509 -0.6680 -0.2494
  832MOL0     H12279   8.054   3.777   1.956 -0.8066  0.4606 -2.1968
  832MOL0     H12280   8.022   3.741   2.179 -1.0749 -1.5807  2.5710
  832MOL0     H12281   8.068   3.715   2.409 -2.1485 -0.5320 -1.6142
  832MOL0     H12282   8.420   3.603   2.699  1.2438 -0.6747 -0.0918
  832MOL0     H12283   8.504   3.555   2.895  2.8086  1.8797  0.0799
  832MOL0     H12284   8.328   3.791   3.247 -2.3947 -1.2292 -1.3016
  832MOL0     H12285   8.315   3.617   3.286 -0.6362  0.0260  0.9025
  832MOL0     H12286   8.481   3.613   3.429  1.1418  0.2561 -0.1611
  832MOL0     H12287   8.572   3.743   3.341  1.1916 -1.1319 -0.3941
  832MOL0     H12288   8.421   3.907   3.451  1.9902  0.0585 -1.3362
  832MOL0     H12289   8.323   3.770   3.509 -0.8065 -0.0873 -2.3229
  832MOL0     H12290   8.489   3.728   3.676  0.4258 -2.5179 -3.2758
  832MOL0     H12291   8.480   3.902   3.675 -2.8971 -0.3503 -0.6262
  832MOL0     H12292   8.693   3.914   3.541  1.2290 -0.0413  0.3590
  832MOL0     H12293   8.701   3.726   3.568  0.7560  0.3821 -1.5602
  832MOL0     H12294   8.685   3.926   3.790 -0.4452 -0.8200  1.1193
  832MOL0     H12295   8.663   3.749   3.805  1.2376 -1.8670  0.8132
  832MOL0     H12296   8.931   3.889   3.718  2.5454 -2.8312 -1.6196
  832MOL0     H12297   8.913   3.716   3.740  1.3138 -0.3553  2.6559
  832MOL0     H12298   8.988   3.894   3.934  0.3153  0.5185  1.3066
  832MOL0     H12299   8.809   3.899   3.962  2.2471  4.6298  0.2499
  832MOL0     H12300   8.260   3.864   3.084  2.7558  1.2730  0.7292
  832MOL0     H12301   8.166   3.906   2.875 -0.0795 -0.4940  3.0735
  832MOL0     H12302   8.194   4.132   2.426  0.3692  0.4895  0.2205
  832MOL0     H12303   8.133   4.165   2.198 -1.7879  0.8539  0.3223
  832MOL0     H12304   6.608   4.723   1.978 -0.4390 -0.1805  0.8762
  832MOL0     H12305   6.458   4.544   2.076  0.1317  0.7281  0.3002
  832MOL0     H12306   6.479   4.083   2.199  1.3686 -4.2565 -1.1047
  832MOL0     H12307   6.339   3.948   2.332  0.2535  0.9698 -0.0770
  832MOL0     H12308   5.917   3.822   2.189  0.8918  0.7403 -0.8360
  832MOL0     H12309   5.953   3.703   2.313 -1.8788  4.8585  1.3367
  832MOL0     H12310   6.080   3.578   2.148  0.8245 -0.2078 -0.7668
  832MOL0     H12311   6.063   3.716   2.031  0.6715  2.1333  1.1281
  832MOL0     H12312   5.820   3.572   2.161 -1.0653 -0.8525 -0.3140
  832MOL0     H12313   5.906   3.501   2.033  2.7486 -0.6009  1.2693
  832MOL0     H12314   5.705   3.686   1.987  0.5914  0.1370  1.2681
  832MOL0     H12315   5.843   3.788   1.962  0.3520  0.3275 -5.4191
  832MOL0     H12316   5.952   3.527   1.653  2.1056  0.9123  1.6820
  832MOL0     H12317   6.028   3.931   2.049  0.0360  0.8193 -1.7423
  832MOL0     H12318   6.045   4.025   1.847 -1.0518 -0.8814 -1.2870
  832MOL0     H12319   6.062   4.193   1.885  0.0401 -0.6555 -1.2526
  832MOL0     H12320   6.188   4.117   1.790 -1.0529  1.8297 -0.4126
  833MOL0     O12321   0.444   2.097   9.508  0.1031 -0.3890  0.5758
  833MOL0     C12322   0.447   2.076   9.382 -0.1109 -1.4288 -0.3989
  833MOL0     O12323   0.393   2.168   9.284 -0.4839 -0.6081  0.0967
  833MOL0     C12324   0.334   2.288   9.308 -0.0344 -0.2596  0.1816
  833MOL0     C12325   0.347   2.385   9.204  0.6390  0.4299  0.5868
  833MOL0     C12326   0.287   2.513   9.208 -0.5266 -1.1563  0.1367
  833MOL0     C12327   0.227   2.554   9.330 -0.7544  0.9211  0.0400
  833MOL0     O12328   0.176   2.686   9.325  0.4668  1.1873 -0.9076
  833MOL0     C12329   0.118   2.740   9.445  0.0366 -1.0876 -1.3197
  833MOL0     C12330   0.225   2.790   9.537  0.0863 -0.5530  0.0349
  833MOL0     C12331   0.311   2.912   9.477  0.3543  0.8851 -0.5439
  833MOL0     C12332   0.249   3.049   9.501  0.2021  0.6920 -0.5152
  833MOL0     C12333   0.350   3.156   9.451  0.3754 -0.1111  0.2176
  833MOL0     C12334   0.342   3.182   9.305  0.2416  0.2280 -0.5597
  833MOL0     C12335   0.418   3.312   9.277  0.0942 -0.4310  0.9221
  833MOL0     C12336   0.442   3.344   9.127  0.0578 -1.3847  0.3013
  833MOL0     N12337   0.508   3.473   9.087 -0.1986  0.2511  0.7382
  833MOL0     C12338   0.436   3.587   9.053  0.7286 -1.2458  0.1326
  833MOL0     C12339   0.538   3.686   9.043  1.1981  1.1693  0.7783
  833MOL0     C12340   0.521   3.832   9.023  0.3582 -0.0326 -0.3934
  833MOL0     C12341   0.581   3.902   9.146  0.4484 -0.7915  0.4880
  833MOL0     C12342   0.562   4.050   9.136  0.5269 -0.6308  0.2919
  833MOL0     C12343   0.630   4.129   9.258  0.4260  0.4796  0.8648
  833MOL0     O12344   0.617   4.264   9.247  0.1111 -0.2825 -0.1618
  833MOL0     C12345   0.687   4.336   9.158 -1.0421 -0.1648  0.1642
  833MOL0     C12346   0.794   4.292   9.083 -0.0924  0.7181 -0.0975
  833MOL0     C12347   0.877   4.371   9.000 -0.1122 -0.3135  0.5407
  833MOL0     C12348   0.841   4.506   8.973 -0.4258  0.4046  0.4927
  833MOL0     C12349   0.917   4.598   8.886 -0.1195 -0.7601 -0.3010
  833MOL0     O12350   1.014   4.541   8.811 -0.1989  0.4479  0.1777
  833MOL0     C12351   1.116   4.628   8.769  0.3627 -0.0151 -0.0537
  833MOL0     C12352   1.200   4.692   8.858 -0.6595 -0.5650 -0.5475
  833MOL0     C12353   1.312   4.763   8.806  1.4030  0.2365  0.3800
  833MOL0     C12354   1.333   4.784   8.666 -1.0855 -0.2800 -0.1905
  833MOL0     O12355   1.438   4.869   8.622  0.8863 -0.1518 -0.4408
  833MOL0     C12356   1.472   4.883   8.482 -0.3373  0.0579  1.2199
  833MOL0     C12357   1.540   4.752   8.415 -0.0726 -0.1754 -0.2801
  833MOL0     C12358   1.557   4.757   8.267  0.5900  0.2010 -0.2092
  833MOL0     C12359   1.435   4.764   8.176  0.5828  0.8896 -0.5087
  833MOL0     C12360   1.343   4.644   8.183 -0.6113  0.1129  1.1492
  833MOL0     C12361   1.343   4.541   8.068 -0.5369 -0.8785  0.1185
  833MOL0     C12362   1.252   4.425   8.119 -0.1635  0.2014 -0.4617
  833MOL0     C12363   1.269   4.309   8.027  0.1573 -0.0011  1.2806
  833MOL0    Cl12364   1.194   4.345   7.863  0.0719  0.0825  0.5299
  833MOL0     C12365   1.243   4.729   8.577  0.0451  0.1074 -0.5312
  833MOL0     C12366   1.140   4.650   8.637 -0.4232  0.7365 -0.7261
  833MOL0     O12367   0.895   4.721   8.898  0.5676  0.1802 -0.4021
  833MOL0     C12368   0.724   4.549   9.042 -0.1898 -0.3501 -0.0806
  833MOL0     C12369   0.654   4.469   9.132 -0.0214 -0.8194 -0.8038
  833MOL0     N12370   0.657   3.613   9.045  0.2395  0.3208 -0.2817
  833MOL0     N12371   0.637   3.498   9.089 -0.1002  0.5745 -0.4327
  833MOL0     C12372   0.246   2.471   9.447 -0.2654  0.2918 -0.2605
  833MOL0     C12373   0.299   2.341   9.438 -0.1627  0.1306  0.0167
  833MOL0     C12374   0.504   1.950   9.330  0.5928 -0.7020  0.1269
  833MOL0     C12375   0.540   1.954   9.194 -0.5667 -0.2985  0.0206
  833MOL0     C12376   0.608   1.842   9.136 -0.2491  0.0475 -0.9308
  833MOL0     C12377   0.648   1.726   9.218  0.4564 -0.0938  0.4455
  833MOL0     O12378   0.728   1.620   9.168 -0.4678  0.1469 -0.1332
  833MOL0     C12379   0.830   1.652   9.071 -0.3060  0.0292 -0.3646
  833MOL0     C12380   0.959   1.571   9.097  0.9729 -0.3724 -0.0393
  833MOL0     C12381   1.080   1.644   9.030 -0.2659 -0.1466  0.1425
  833MOL0     C12382   1.215   1.604   9.075 -0.4079 -0.7258  0.4330
  833MOL0     C12383   1.235   1.460   9.043 -0.5323  0.8597  0.9964
  833MOL0     C12384   1.272   1.351   9.003 -0.7738  0.3714 -0.2154
  833MOL0     C12385   0.600   1.731   9.350 -0.7597  1.0579 -0.7321
  833MOL0     C12386   0.534   1.837   9.405  0.0866 -0.7002 -0.3146
  833MOL0     C12387   0.504   1.831   9.548 -0.7488  0.1248 -0.2805
  833MOL0     H12388   0.384   2.356   9.107 -0.3069 -0.2280  0.4050
  833MOL0     H12389   0.281   2.583   9.126 -2.9947 -3.6868 -2.1030
  833MOL0     H12390   0.060   2.822   9.402  0.5051 -0.8158 -1.4343
  833MOL0     H12391   0.056   2.676   9.509  0.6057 -2.5340 -2.1701
  833MOL0     H12392   0.296   2.714   9.570  3.3824  1.9071 -0.8684
  833MOL0     H12393   0.173   2.827   9.626  0.9648 -0.3782  0.4871
  833MOL0     H12394   0.329   2.897   9.370 -2.4364 -0.8030 -0.8836
  833MOL0     H12395   0.401   2.910   9.539 -0.3409  1.3092  0.4967
  833MOL0     H12396   0.153   3.053   9.449 -1.2350  2.2786  2.0691
  833MOL0     H12397   0.236   3.070   9.608  2.2827  0.6137 -0.1979
  833MOL0     H12398   0.320   3.246   9.505  0.0451 -0.8094  1.2096
  833MOL0     H12399   0.453   3.131   9.479  1.9634  5.4271  0.5040
  833MOL0     H12400   0.398   3.102   9.256  1.3783  1.3512 -1.1751
  833MOL0     H12401   0.244   3.189   9.256  0.5224  2.4709 -0.9445
  833MOL0     H12402   0.515   3.325   9.325 -1.1090  1.9484  2.9396
  833MOL0     H12403   0.350   3.393   9.303  0.6907  0.7228 -0.9452
  833MOL0     H12404   0.504   3.266   9.083  0.1861 -1.8651  1.3226
  833MOL0     H12405   0.347   3.347   9.073 -0.2686  4.0431  0.6524
  833MOL0     H12406   0.332   3.608   9.035  0.7375 -1.1798  0.1539
  833MOL0     H12407   0.574   3.859   8.931 -0.6106 -2.1505 -1.6491
  833MOL0     H12408   0.417   3.862   9.005  0.9404  1.2263 -1.9184
  833MOL0     H12409   0.539   3.861   9.239  0.1997 -1.4211  0.1079
  833MOL0     H12410   0.687   3.874   9.146  0.9248  0.4692  4.4992
  833MOL0     H12411   0.457   4.083   9.134  0.2225 -1.4179  1.7929
  833MOL0     H12412   0.615   4.074   9.043  0.8879 -1.0246  0.3990
  833MOL0     H12413   0.735   4.103   9.274  0.9504 -0.6767 -3.2213
  833MOL0     H12414   0.569   4.106   9.345  1.1703 -0.5602  1.1297
  833MOL0     H12415   0.833   4.195   9.111  1.2263  0.3423 -2.8704
  833MOL0     H12416   0.960   4.321   8.950 -0.8337 -2.2438  1.1471
  833MOL0     H12417   1.172   4.669   8.961  2.8710  1.8250  1.1066
  833MOL0     H12418   1.381   4.813   8.874 -2.1575  3.3216  2.0876
  833MOL0     H12419   1.385   4.908   8.420 -0.4767 -2.1611  0.4355
  833MOL0     H12420   1.550   4.959   8.470  1.1735 -1.4787  0.9632
  833MOL0     H12421   1.640   4.741   8.457 -1.1444  0.3799  2.6736
  833MOL0     H12422   1.488   4.658   8.437  0.9767 -0.9182 -0.8894
  833MOL0     H12423   1.617   4.846   8.246  1.9672 -0.0340  2.2823
  833MOL0     H12424   1.629   4.682   8.232  0.6708  1.1433 -2.1791
  833MOL0     H12425   1.458   4.777   8.070 -0.2728 -1.0602 -0.9722
  833MOL0     H12426   1.381   4.853   8.209 -0.2942 -1.0918  4.1969
  833MOL0     H12427   1.243   4.689   8.188 -2.1014 -2.5685 -1.3168
  833MOL0     H12428   1.345   4.594   8.280 -1.8617 -1.4346  0.4253
  833MOL0     H12429   1.293   4.591   7.984  1.5023  1.1345  0.0211
  833MOL0     H12430   1.444   4.512   8.036  0.0671  0.3251  0.8838
  833MOL0     H12431   1.149   4.463   8.113 -0.2673  0.1650  0.8353
  833MOL0     H12432   1.255   4.396   8.225 -1.6399 -0.8556 -0.6764
  833MOL0     H12433   1.377   4.294   8.021  0.1619  0.5530 -1.4200
  833MOL0     H12434   1.226   4.215   8.062  0.8596 -1.1537 -0.7665
  833MOL0     H12435   1.243   4.745   8.470  0.5935  0.9898 -0.4118
  833MOL0     H12436   1.074   4.598   8.568  2.6218 -2.0895 -1.7585
  833MOL0     H12437   0.692   4.653   9.035  1.2782  0.0967 -0.4579
  833MOL0     H12438   0.573   4.502   9.196  0.6813 -1.1674  0.2970
  833MOL0     H12439   0.225   2.517   9.543  1.0637  2.4290 -0.9258
  833MOL0     H12440   0.316   2.302   9.538  0.6431  3.5357  1.3423
  833MOL0     H12441   0.537   2.044   9.134  4.1282 -0.8040 -1.3332
  833MOL0     H12442   0.617   1.841   9.028  1.7407  4.3912 -1.0243
  833MOL0     H12443   0.857   1.758   9.067  2.9947 -0.7160 -0.7579
  833MOL0     H12444   0.790   1.627   8.973 -0.8444  2.3257 -0.7663
  833MOL0     H12445   0.952   1.468   9.061  3.0482 -0.2478 -0.9205
  833MOL0     H12446   0.978   1.573   9.205  1.0636  2.6408 -0.0199
  833MOL0     H12447   1.051   1.748   9.049 -1.0236 -0.6294  1.9373
  833MOL0     H12448   1.082   1.616   8.925  3.5546 -2.4599  0.6319
  833MOL0     H12449   1.290   1.670   9.031  1.9027 -0.7373  3.9486
  833MOL0     H12450   1.236   1.610   9.182  0.7745  3.0120  0.1156
  833MOL0     H12451   1.300   1.256   8.962 -0.8705  0.4417 -0.4469
  833MOL0     H12452   0.625   1.639   9.403  2.7853  1.8832 -0.7373
  833MOL0     H12453   0.574   1.890   9.607 -0.4765 -1.2382  0.8196
  833MOL0     H12454   0.402   1.866   9.566 -1.4699  0.0076 -3.6218
  833MOL0     H12455   0.500   1.728   9.587 -0.7217 -0.7732 -2.4969
  834MOL0     O12456   9.949   4.894  10.669  0.2212  0.5773  0.0139
  834MOL0     C12457  10.032   4.841  10.740 -1.1595 -0.9479  1.0667
  834MOL0     O12458  10.054   4.861  10.876 -0.4926  0.5105  0.4609
  834MOL0     C12459   9.966   4.956  10.930  0.5953 -0.0290  0.0348
  834MOL0     C12460   9.831   4.938  10.959  0.5691 -0.5422  0.3166
  834MOL0     C12461   9.764   5.044  11.011  0.3270 -0.1954 -0.1170
  834MOL0     C12462   9.826   5.163  11.044  0.0627  0.2328 -0.4173
  834MOL0     O12463   9.774   5.274  11.096  0.0515  0.1318  0.1888
  834MOL0     C12464   9.624   5.279  11.103 -0.7364  1.2852  0.6489
  834MOL0     C12465   9.590   5.410  11.170  0.1021  0.4337  0.7652
  834MOL0     C12466   9.660   5.543  11.113  0.3189 -0.2573 -1.0417
  834MOL0     C12467   9.619   5.584  10.973 -0.4380  0.6419  0.7717
  834MOL0     C12468   9.490   5.671  10.971 -0.4917  0.3760 -0.3965
  834MOL0     C12469   9.406   5.660  10.839 -0.8904  0.0806  0.4917
  834MOL0     C12470   9.296   5.766  10.840 -0.0928 -0.2953 -0.9393
  834MOL0     C12471   9.252   5.786  10.699 -0.2236  0.3681 -0.2478
  834MOL0     N12472   9.163   5.683  10.658  0.4901 -0.3336 -0.5179
  834MOL0     C12473   9.028   5.667  10.683  0.6555 -0.3314 -0.4782
  834MOL0     C12474   8.986   5.566  10.601 -0.5532 -0.0269  0.2747
  834MOL0     C12475   8.850   5.504  10.576  0.6637  0.3015 -0.1533
  834MOL0     C12476   8.832   5.364  10.644 -0.3400 -0.2021 -0.3817
  834MOL0     C12477   8.715   5.287  10.597  1.0994  0.7888 -0.3827
  834MOL0     C12478   8.584   5.346  10.634  0.3463 -0.1856  0.3715
  834MOL0     O12479   8.478   5.284  10.554  0.0468  0.4366  0.0578
  834MOL0     C12480   8.342   5.321  10.559  0.0319  0.2343  0.2832
  834MOL0     C12481   8.265   5.254  10.461  0.4281 -0.3660  0.3681
  834MOL0     C12482   8.135   5.298  10.452 -0.1070 -0.3991 -0.7309
  834MOL0     C12483   8.077   5.388  10.542  0.6128  0.4608  1.1011
  834MOL0     C12484   7.941   5.438  10.514  0.2677  0.0442 -0.3057
  834MOL0     O12485   7.854   5.348  10.458 -0.0627  0.1983 -0.0507
  834MOL0     C12486   7.716   5.366  10.449 -0.1231  0.6001 -0.1777
  834MOL0     C12487   7.628   5.252  10.416 -0.6399 -1.1244 -0.2824
  834MOL0     C12488   7.496   5.261  10.382  0.2811 -0.2926  0.4979
  834MOL0     C12489   7.442   5.381  10.377 -0.0369  0.2128 -0.7699
  834MOL0     O12490   7.316   5.396  10.326 -0.4748 -1.3844  0.0066
  834MOL0     C12491   7.232   5.427  10.439 -0.5839  0.3911 -0.0357
  834MOL0     C12492   7.098   5.360  10.424 -0.0685  1.0151  0.4619
  834MOL0     C12493   6.986   5.451  10.377 -0.8879 -0.0228  0.6010
  834MOL0     C12494   6.848   5.376  10.346 -0.0071 -0.2034  0.1679
  834MOL0     C12495   6.739   5.490  10.331 -0.1428 -0.6971 -0.9441
  834MOL0     C12496   6.602   5.433  10.297  0.4486 -0.2530 -0.4606
  834MOL0     C12497   6.500   5.530  10.253 -0.7300  0.6220  0.3608
  834MOL0     C12498   6.362   5.464  10.258  0.2952  0.3267 -1.0990
  834MOL0    Cl12499   6.235   5.563  10.181  0.0700 -0.2263  0.3186
  834MOL0     C12500   7.520   5.496  10.406 -0.0860  0.1994 -0.6873
  834MOL0     C12501   7.649   5.489  10.450 -0.2390  0.1221  0.6249
  834MOL0     O12502   7.907   5.551  10.560  0.0368  0.6594  0.5499
  834MOL0     C12503   8.154   5.448  10.637  0.2709 -0.6734 -0.9725
  834MOL0     C12504   8.288   5.415  10.650  0.7856 -0.6676  0.5196
  834MOL0     N12505   9.097   5.521  10.529  0.2006 -0.8139 -0.3231
  834MOL0     N12506   9.199   5.598  10.566 -0.4169  0.8033 -0.6065
  834MOL0     C12507   9.961   5.172  11.018  0.9475 -0.4523 -0.1480
  834MOL0     C12508  10.032   5.065  10.962  0.8832  0.3777 -0.3845
  834MOL0     C12509  10.129   4.756  10.669 -0.6352  0.5438 -0.5690
  834MOL0     C12510  10.084   4.667  10.575 -0.3034 -0.9408  1.2588
  834MOL0     C12511  10.172   4.602  10.500  0.4970  0.1888 -0.2101
  834MOL0     C12512  10.310   4.589  10.533  0.3192 -0.3166  0.0815
  834MOL0     O12513  10.402   4.522  10.462  0.2270 -0.0361 -0.8174
  834MOL0     C12514  10.355   4.424  10.373  0.6387  0.0857  0.1597
  834MOL0     C12515  10.336   4.288  10.443 -0.7105 -0.0211  0.6137
  834MOL0     C12516  10.477   4.237  10.493  0.7475  0.1831  0.0970
  834MOL0     C12517  10.570   4.201  10.369 -0.1525 -0.3629  0.5504
  834MOL0     C12518  10.538   4.095  10.274  0.1193  0.3664  0.1121
  834MOL0     C12519  10.505   4.017  10.190  0.6825 -0.3642 -0.3254
  834MOL0     C12520  10.357   4.662  10.641 -0.4582  0.3114  0.9991
  834MOL0     C12521  10.268   4.746  10.712 -0.5837 -0.6771  0.3591
  834MOL0     C12522  10.323   4.840  10.808  0.7615 -0.4260 -0.1273
  834MOL0     H12523   9.797   4.840  10.925  2.6524 -1.0582 -0.4672
  834MOL0     H12524   9.656   5.030  11.011  0.2412  0.3947 -0.7827
  834MOL0     H12525   9.593   5.281  10.998  0.4500 -1.3910  0.1586
  834MOL0     H12526   9.588   5.192  11.157  1.2456 -0.1857 -0.2698
  834MOL0     H12527   9.597   5.397  11.279  2.3467  1.3911  0.7865
  834MOL0     H12528   9.485   5.442  11.165  0.6139  2.2550  0.8989
  834MOL0     H12529   9.769   5.539  11.130 -0.2080  0.4910  4.9755
  834MOL0     H12530   9.625   5.622  11.180 -0.3231 -0.6128 -0.9495
  834MOL0     H12531   9.694   5.643  10.919 -0.5065 -0.3145 -0.4054
  834MOL0     H12532   9.620   5.497  10.907  0.4458 -0.3297  2.0061
  834MOL0     H12533   9.440   5.630  11.059  0.5009  1.3229  0.6450
  834MOL0     H12534   9.519   5.775  10.991 -1.1504  0.2027  1.6598
  834MOL0     H12535   9.480   5.668  10.759 -0.0766  0.3402  1.2448
  834MOL0     H12536   9.357   5.564  10.825  0.2123 -0.3258 -0.8708
  834MOL0     H12537   9.318   5.863  10.886  0.7977 -0.7300 -0.4336
  834MOL0     H12538   9.217   5.721  10.899 -1.3804 -0.1911 -2.5186
  834MOL0     H12539   9.203   5.883  10.693  0.5481  0.9316  1.8666
  834MOL0     H12540   9.347   5.784  10.646  0.1837 -0.5307  0.4884
  834MOL0     H12541   8.968   5.704  10.765  2.7596  5.2148 -1.0314
  834MOL0     H12542   8.768   5.566  10.614  2.2369  0.2766  3.7965
  834MOL0     H12543   8.830   5.501  10.469  2.1374 -2.4358 -0.4349
  834MOL0     H12544   8.924   5.309  10.623  0.2575  1.3992 -2.3259
  834MOL0     H12545   8.825   5.379  10.752  0.9918  3.4085 -0.6353
  834MOL0     H12546   8.720   5.184  10.632  3.1826  1.3070  1.0330
  834MOL0     H12547   8.717   5.282  10.488  1.5955  1.2718 -0.4021
  834MOL0     H12548   8.590   5.454  10.618  1.0025 -0.1990  0.4964
  834MOL0     H12549   8.569   5.339  10.742 -0.6232  2.6120  0.5140
  834MOL0     H12550   8.308   5.191  10.384  2.0204 -0.5180  1.3291
  834MOL0     H12551   8.082   5.256  10.367 -1.6824  0.6222 -0.3204
  834MOL0     H12552   7.666   5.151  10.432 -1.4739 -2.2064 -4.2373
  834MOL0     H12553   7.439   5.170  10.370  0.7025 -0.3204 -1.6002
  834MOL0     H12554   7.289   5.383  10.520  0.9081  0.2863 -1.0998
  834MOL0     H12555   7.221   5.534  10.460 -1.1844  0.8189 -2.2087
  834MOL0     H12556   7.112   5.267  10.369  4.4639 -1.1616  4.4954
  834MOL0     H12557   7.074   5.334  10.528  0.5588  0.1184  0.3908
  834MOL0     H12558   6.965   5.525  10.455 -0.9619  0.8032 -0.1940
  834MOL0     H12559   7.017   5.513  10.292 -0.1309  1.3082  1.8096
  834MOL0     H12560   6.820   5.316  10.434  0.5420  0.2538  0.6578
  834MOL0     H12561   6.851   5.308  10.260 -0.2120  1.2305 -1.0000
  834MOL0     H12562   6.790   5.540  10.248 -0.2335  1.0892  0.0235
  834MOL0     H12563   6.745   5.558  10.416 -2.2881 -1.5325 -0.0324
  834MOL0     H12564   6.625   5.375  10.208  2.2671 -0.8299  0.3380
  834MOL0     H12565   6.555   5.367  10.370 -0.4859 -0.9892 -1.6931
  834MOL0     H12566   6.517   5.562  10.150 -1.1133 -4.9556 -1.8212
  834MOL0     H12567   6.504   5.608  10.329 -1.9997 -0.9016  2.1121
  834MOL0     H12568   6.357   5.362  10.218  0.0454  0.5759 -1.7067
  834MOL0     H12569   6.335   5.462  10.364 -0.8332  0.3068 -1.3741
  834MOL0     H12570   7.470   5.592  10.390 -0.7726  1.0652  4.7014
  834MOL0     H12571   7.692   5.586  10.468 -0.3939  0.4200 -0.5433
  834MOL0     H12572   8.115   5.519  10.709  1.8302 -3.4357  3.0055
  834MOL0     H12573   8.349   5.463  10.727  0.0398 -3.1679  2.8609
  834MOL0     H12574  10.023   5.256  11.047 -0.8084 -0.1783  3.3127
  834MOL0     H12575  10.139   5.073  10.941  0.5975 -0.1272 -2.1451
  834MOL0     H12576   9.977   4.666  10.556  0.1824  1.3249 -3.0507
  834MOL0     H12577  10.119   4.540  10.428 -0.7060  1.4187 -0.4391
  834MOL0     H12578  10.428   4.415  10.292  0.1954  4.5285 -0.9763
  834MOL0     H12579  10.264   4.446  10.317  0.9359  2.1787  0.4111
  834MOL0     H12580  10.296   4.214  10.373  2.3659  1.2351 -2.8056
  834MOL0     H12581  10.275   4.295  10.534 -1.6008 -0.9598  0.1057
  834MOL0     H12582  10.473   4.145  10.551  1.3568 -1.8278 -2.8640
  834MOL0     H12583  10.520   4.322  10.548 -0.4765  1.4896 -0.8674
  834MOL0     H12584  10.582   4.283  10.297 -0.1382  0.5330  1.5460
  834MOL0     H12585  10.665   4.176  10.418 -0.1752  1.4783  1.6183
  834MOL0     H12586  10.497   3.928  10.131 -3.1217 -0.5436  0.1905
  834MOL0     H12587  10.459   4.654  10.676 -0.0683 -0.3581 -0.2483
  834MOL0     H12588  10.302   4.947  10.800  0.1697 -0.3845  1.6024
  834MOL0     H12589  10.304   4.807  10.911 -1.9543 -4.4478 -1.6482
  834MOL0     H12590  10.432   4.847  10.800  0.6519  1.9300 -0.2337
  835MOL0     O12591   7.633  10.455   9.833  0.0661 -0.2462  0.3227
  835MOL0     C12592   7.748  10.417   9.851  1.3051  0.2071 -0.4965
  835MOL0     O12593   7.835  10.388   9.751 -0.0939  0.4435 -0.4791
  835MOL0     C12594   7.800  10.395   9.623  0.4495 -1.1717 -0.0483
  835MOL0     C12595   7.698  10.313   9.581 -0.7524  0.9705 -0.2971
  835MOL0     C12596   7.648  10.312   9.453  1.0227  1.8542  1.6305
  835MOL0     C12597   7.708  10.388   9.355  0.6509  0.0393  0.4454
  835MOL0     O12598   7.649  10.393   9.228 -0.9293 -0.2670  0.0224
  835MOL0     C12599   7.731  10.389   9.115  1.1697 -0.1772  0.3893
  835MOL0     C12600   7.646  10.366   8.990  0.1796 -1.0588 -0.7844
  835MOL0     C12601   7.720  10.328   8.867  0.3046 -0.4671 -0.1627
  835MOL0     C12602   7.801  10.449   8.806  0.2715 -1.1476 -0.1918
  835MOL0     C12603   7.875  10.422   8.686  0.2327  1.3723 -0.6183
  835MOL0     C12604   7.948  10.531   8.626 -0.7524  0.3975 -0.1320
  835MOL0     C12605   7.860  10.637   8.563 -0.7007 -0.0780  0.9797
  835MOL0     C12606   7.917  10.700   8.437  0.8896 -0.1937  0.0170
  835MOL0     N12607   8.025  10.783   8.487  0.5706 -0.0338  0.2470
  835MOL0     C12608   8.012  10.925   8.485  1.3667  0.5566 -0.1536
  835MOL0     C12609   8.133  10.973   8.510  0.6875  0.1792 -0.4167
  835MOL0     C12610   8.143  11.118   8.530 -0.1692  0.6211  0.0427
  835MOL0     C12611   8.179  11.204   8.408  0.5226  0.1124 -0.4340
  835MOL0     C12612   8.323  11.196   8.356  0.0601 -0.0509 -0.0678
  835MOL0     C12613   8.354  11.280   8.231 -0.3696 -0.2919 -0.4388
  835MOL0     O12614   8.319  11.208   8.117  0.4412  1.1310  0.8496
  835MOL0     C12615   8.379  11.223   7.990  1.0828 -0.1716 -1.2092
  835MOL0     C12616   8.357  11.138   7.888  1.0033  0.6951 -0.4600
  835MOL0     C12617   8.403  11.166   7.757 -0.6291 -0.5491  0.0755
  835MOL0     C12618   8.477  11.283   7.719  0.2846  0.7768 -0.0722
  835MOL0     C12619   8.527  11.305   7.576  1.0209 -0.4193 -0.0057
  835MOL0     O12620   8.631  11.396   7.561  0.0893  0.7951  0.3775
  835MOL0     C12621   8.654  11.424   7.433 -0.0375  0.2367 -0.2437
  835MOL0     C12622   8.610  11.544   7.382 -1.4533  0.0258  0.9021
  835MOL0     C12623   8.622  11.571   7.245  0.5858  0.6285  0.1777
  835MOL0     C12624   8.676  11.474   7.155  0.1335 -0.2439 -0.7890
  835MOL0     O12625   8.698  11.500   7.024 -0.1745 -0.0332 -0.1494
  835MOL0     C12626   8.601  11.446   6.936 -0.4198  0.3342  0.3451
  835MOL0     C12627   8.608  11.470   6.786  0.6757  0.1926 -0.6382
  835MOL0     C12628   8.747  11.437   6.733 -0.8568  0.2328  0.3726
  835MOL0     C12629   8.758  11.286   6.687  0.8480 -0.5300 -0.1145
  835MOL0     C12630   8.894  11.260   6.635 -0.7062 -0.3601  0.5687
  835MOL0     C12631   8.883  11.126   6.559 -0.4389 -0.0515 -0.3667
  835MOL0     C12632   9.011  11.067   6.511 -0.2298 -0.2364  0.6422
  835MOL0     C12633   8.993  10.927   6.450 -0.2174  0.8280 -0.7068
  835MOL0    Cl12634   9.158  10.856   6.430  0.1632  0.2539  0.3579
  835MOL0     C12635   8.725  11.353   7.210 -0.3036 -0.2720  0.2233
  835MOL0     C12636   8.721  11.338   7.348 -0.0663 -0.0159  0.7458
  835MOL0     O12637   8.471  11.241   7.484  0.3195  0.0956  0.1245
  835MOL0     C12638   8.495  11.375   7.831 -0.0776  0.0855  0.7502
  835MOL0     C12639   8.447  11.344   7.961  0.0702 -0.5811 -0.8013
  835MOL0     N12640   8.220  10.862   8.514  0.0575 -0.2610  0.5822
  835MOL0     N12641   8.154  10.751   8.501  0.3136  0.3283  0.7582
  835MOL0     C12642   7.814  10.469   9.388 -0.5627 -0.6814 -0.0346
  835MOL0     C12643   7.855  10.479   9.524 -0.5705  0.4769 -0.7219
  835MOL0     C12644   7.815  10.437   9.986 -0.6599  0.7847 -0.5540
  835MOL0     C12645   7.958  10.465   9.986 -0.2943  0.5152  0.3432
  835MOL0     C12646   8.034  10.446  10.093  0.6784  1.3876 -0.7385
  835MOL0     C12647   7.975  10.409  10.215 -0.3586 -0.1516  0.6408
  835MOL0     O12648   8.047  10.371  10.321 -0.1043 -0.1107 -0.0528
  835MOL0     C12649   8.072  10.488  10.399 -0.7664 -0.6138  0.4304
  835MOL0     C12650   8.001  10.482  10.527  0.6172  0.0761 -0.4035
  835MOL0     C12651   8.056  10.367  10.605  0.2923  0.2749 -0.3053
  835MOL0     C12652   7.985  10.347  10.742  1.0263  0.0171  0.2313
  835MOL0     C12653   8.064  10.252  10.819  0.0921  0.3197  0.3821
  835MOL0     C12654   8.151  10.188  10.880 -0.3541  1.1258 -0.6835
  835MOL0     C12655   7.839  10.394  10.220  0.1217 -1.0201 -0.1791
  835MOL0     C12656   7.754  10.403  10.116  0.4436  0.0821 -0.2229
  835MOL0     C12657   7.605  10.381  10.128 -0.1168 -0.2668 -0.8363
  835MOL0     H12658   7.646  10.268   9.665 -0.3626  1.4609  0.2132
  835MOL0     H12659   7.580  10.237   9.414  1.3625  1.5597  1.6032
  835MOL0     H12660   7.788  10.482   9.108  3.0968 -0.9546  3.6767
  835MOL0     H12661   7.795  10.301   9.125  0.0028 -0.8163  3.2307
  835MOL0     H12662   7.594  10.458   8.963  0.6384 -1.2568 -2.4508
  835MOL0     H12663   7.565  10.297   9.016  2.2888 -3.6580 -0.6741
  835MOL0     H12664   7.643  10.292   8.799 -0.8123  1.9097 -0.2821
  835MOL0     H12665   7.780  10.240   8.890 -0.0659 -0.9373 -0.9628
  835MOL0     H12666   7.733  10.532   8.787  0.7739 -1.0288 -1.5663
  835MOL0     H12667   7.874  10.479   8.883  0.8256  1.1511 -1.5163
  835MOL0     H12668   7.946  10.346   8.720 -1.1641 -0.2099 -1.1494
  835MOL0     H12669   7.802  10.374   8.621 -0.5281 -1.3988  2.0524
  835MOL0     H12670   8.001  10.575   8.711 -2.2945  0.0633  1.0470
  835MOL0     H12671   8.011  10.485   8.549 -3.1296 -0.4648 -1.6901
  835MOL0     H12672   7.858  10.722   8.632 -1.6601  0.2542  0.5513
  835MOL0     H12673   7.754  10.613   8.566 -1.2977  2.3428  0.9455
  835MOL0     H12674   7.943  10.624   8.362 -2.2366 -1.3070 -0.0729
  835MOL0     H12675   7.836  10.761   8.396 -0.3816 -1.3936  0.6469
  835MOL0     H12676   7.917  10.978   8.476  0.9014  0.2971  2.4526
  835MOL0     H12677   8.049  11.147   8.578 -2.5645 -1.5640 -2.9538
  835MOL0     H12678   8.224  11.120   8.604  0.2836  1.1975 -0.4597
  835MOL0     H12679   8.104  11.175   8.334 -2.8686  2.4182  1.7937
  835MOL0     H12680   8.164  11.307   8.441 -2.4429 -0.1212 -0.7036
  835MOL0     H12681   8.345  11.095   8.322 -0.2255  0.0763 -0.6380
  835MOL0     H12682   8.386  11.230   8.439  0.0673 -3.2472  1.3561
  835MOL0     H12683   8.463  11.273   8.235 -0.4238 -0.7676  1.7126
  835MOL0     H12684   8.315  11.382   8.236  1.2958  0.3844  3.7255
  835MOL0     H12685   8.309  11.044   7.912  3.9766 -0.9659 -0.5057
  835MOL0     H12686   8.400  11.089   7.680  1.7310 -1.0611  0.4268
  835MOL0     H12687   8.573  11.619   7.452  0.7238  1.6492  0.3925
  835MOL0     H12688   8.594  11.674   7.226 -1.5790  0.7735  3.3080
  835MOL0     H12689   8.610  11.338   6.947 -2.8968  0.2588  2.5577
  835MOL0     H12690   8.505  11.479   6.976 -0.2494 -0.9702  1.9770
  835MOL0     H12691   8.540  11.402   6.734  0.4028 -0.2663  0.2961
  835MOL0     H12692   8.585  11.577   6.776  0.2854  0.0965 -0.7780
  835MOL0     H12693   8.766  11.501   6.646 -1.6555 -1.2234 -0.9319
  835MOL0     H12694   8.819  11.454   6.813  0.2529  1.9658 -0.9114
  835MOL0     H12695   8.684  11.264   6.609  1.9364 -2.3109 -0.6923
  835MOL0     H12696   8.737  11.217   6.770  3.5623  1.7967  2.7438
  835MOL0     H12697   8.974  11.253   6.709  1.1801  0.5044 -1.2881
  835MOL0     H12698   8.931  11.339   6.569  1.9907 -0.2456  2.0837
  835MOL0     H12699   8.843  11.050   6.627  0.1206  0.2803  0.3411
  835MOL0     H12700   8.814  11.131   6.474  1.1428 -0.2774 -1.7255
  835MOL0     H12701   9.067  11.055   6.605 -2.7847  1.2330  2.4729
  835MOL0     H12702   9.061  11.138   6.444  0.8916  2.1119  3.7273
  835MOL0     H12703   8.929  10.860   6.507  1.0061  0.7210  0.6077
  835MOL0     H12704   8.954  10.930   6.348  0.2605 -0.8547 -0.9576
  835MOL0     H12705   8.762  11.271   7.149 -1.6357  0.5203 -1.7668
  835MOL0     H12706   8.757  11.243   7.386  0.8164  0.2522  0.5872
  835MOL0     H12707   8.547  11.470   7.823  0.9852 -0.4634  0.9971
  835MOL0     H12708   8.470  11.415   8.039  3.2060 -3.2102  0.9064
  835MOL0     H12709   7.857  10.524   9.305 -1.1979  0.8063  0.5870
  835MOL0     H12710   7.945  10.535   9.549 -0.2758  0.4597 -1.7155
  835MOL0     H12711   8.007  10.502   9.897 -3.3233  0.0913 -1.6448
  835MOL0     H12712   8.142  10.445  10.090  0.9608 -0.2668  3.2476
  835MOL0     H12713   8.021  10.571  10.350 -0.8149  0.0020  1.4904
  835MOL0     H12714   8.178  10.504  10.419 -0.9236  0.7531  0.2730
  835MOL0     H12715   7.900  10.454  10.494  0.1297  2.0065 -0.6281
  835MOL0     H12716   7.996  10.571  10.590 -0.3865  0.0891 -0.4941
  835MOL0     H12717   8.165  10.366  10.607  0.4915  1.8411 -3.8468
  835MOL0     H12718   8.039  10.277  10.546  1.6795  0.2976 -0.7626
  835MOL0     H12719   8.004  10.447  10.784  3.5736 -1.1022  2.0338
  835MOL0     H12720   7.878  10.330  10.737  0.6240  1.7810  1.5826
  835MOL0     H12721   8.227  10.136  10.935  1.7303  0.3219 -4.0349
  835MOL0     H12722   7.795  10.397  10.319  2.5239  2.0497  0.9662
  835MOL0     H12723   7.563  10.398  10.228  2.7530  2.6218  0.0566
  835MOL0     H12724   7.545  10.447  10.065  0.2452  0.2900 -0.6064
  835MOL0     H12725   7.574  10.283  10.090 -1.7641  0.8584 -2.5067
  836MOL0     O12726   3.441   1.429   8.530 -0.7963 -0.3550  0.9636
  836MOL0     C12727   3.428   1.328   8.594  0.4929  0.5623  0.3766
  836MOL0     O12728   3.395   1.211   8.539 -0.2738  0.1127  0.5336
  836MOL0     C12729   3.357   1.210   8.413  0.5545 -0.2434 -0.5420
  836MOL0     C12730   3.438   1.152   8.311  0.5345  0.2519 -0.7357
  836MOL0     C12731   3.383   1.120   8.185 -0.7877  1.1153  0.0018
  836MOL0     C12732   3.251   1.160   8.150 -0.8768  0.6203 -0.1707
  836MOL0     O12733   3.200   1.113   8.030  0.0142 -0.2720 -0.1442
  836MOL0     C12734   3.172   0.974   8.014 -0.9016 -0.2757  0.2874
  836MOL0     C12735   3.287   0.892   7.953 -0.3674  0.8006 -0.3400
  836MOL0     C12736   3.348   0.972   7.836 -0.1500  0.1399 -0.5822
  836MOL0     C12737   3.263   0.975   7.713  1.0929  0.8661 -0.4544
  836MOL0     C12738   3.248   1.116   7.655  0.1113  0.2401  0.1086
  836MOL0     C12739   3.381   1.169   7.599 -0.0427  0.0277  0.6791
  836MOL0     C12740   3.373   1.306   7.524 -0.8750  0.7672 -0.2289
  836MOL0     C12741   3.505   1.342   7.451 -0.2365 -0.5989 -0.6007
  836MOL0     N12742   3.492   1.464   7.372 -0.1990  0.3076 -0.3556
  836MOL0     C12743   3.591   1.542   7.342 -0.2098 -0.9725  0.7338
  836MOL0     C12744   3.541   1.649   7.273 -1.2891  0.6013  0.2162
  836MOL0     C12745   3.633   1.752   7.214  0.2906  0.3157  0.3924
  836MOL0     C12746   3.550   1.881   7.166 -0.3587  0.3328 -0.5268
  836MOL0     C12747   3.655   1.976   7.115 -0.1301  0.2591  0.2444
  836MOL0     C12748   3.571   2.086   7.035  0.5702 -0.1129 -0.1390
  836MOL0     O12749   3.486   2.170   7.120  0.0387  0.6591  0.5160
  836MOL0     C12750   3.360   2.184   7.077  0.1887  0.6359  0.4433
  836MOL0     C12751   3.254   2.133   7.157  1.4435  0.5073 -0.5935
  836MOL0     C12752   3.125   2.143   7.102 -0.3187 -0.4439  0.6287
  836MOL0     C12753   3.091   2.211   6.978  0.0588  0.7490  0.4129
  836MOL0     C12754   2.952   2.205   6.929  0.5374 -0.3990  0.0123
  836MOL0     O12755   2.870   2.121   6.982  0.1375 -0.3620 -0.5972
  836MOL0     C12756   2.735   2.124   6.957  0.5486 -0.0351 -0.0660
  836MOL0     C12757   2.672   2.144   6.829  0.7478 -0.3486  0.0178
  836MOL0     C12758   2.538   2.166   6.821  0.2167 -0.4343  0.2293
  836MOL0     C12759   2.453   2.149   6.931 -0.1184 -1.2969  0.1256
  836MOL0     O12760   2.321   2.180   6.915 -0.6467 -0.6371 -0.9530
  836MOL0     C12761   2.242   2.074   6.874  0.0845 -0.7975 -0.3050
  836MOL0     C12762   2.218   1.978   6.983  0.0367 -0.0824  0.1221
  836MOL0     C12763   2.144   2.026   7.106  0.5823  0.0883 -0.6276
  836MOL0     C12764   2.096   1.899   7.180  0.6851  1.2329  0.6392
  836MOL0     C12765   1.997   1.943   7.284 -0.7070  0.0235 -1.2025
  836MOL0     C12766   2.073   1.960   7.416  0.2647 -0.0857  0.0002
  836MOL0     C12767   2.003   2.061   7.503 -0.4243  0.6096 -0.1715
  836MOL0     C12768   2.098   2.101   7.618  1.5272 -0.0989 -0.7932
  836MOL0    Cl12769   2.175   1.966   7.705  0.1780  0.2479  0.3850
  836MOL0     C12770   2.507   2.127   7.053  0.1222  0.8898 -0.0459
  836MOL0     C12771   2.646   2.119   7.064  0.0967  0.3380 -1.7115
  836MOL0     O12772   2.920   2.291   6.844 -0.0972 -0.9364  0.0675
  836MOL0     C12773   3.197   2.256   6.913 -0.0590  0.5631  0.7416
  836MOL0     C12774   3.328   2.245   6.957 -0.0955  0.3424  0.7076
  836MOL0     N12775   3.411   1.625   7.262  0.5903 -0.0118  0.5740
  836MOL0     N12776   3.383   1.504   7.307 -0.0892 -0.2930 -0.1648
  836MOL0     C12777   3.175   1.224   8.246  0.8313 -0.0868  0.1581
  836MOL0     C12778   3.220   1.244   8.380 -0.3302 -0.6323 -0.6601
  836MOL0     C12779   3.427   1.327   8.740 -0.4624 -0.0818  0.3500
  836MOL0     C12780   3.343   1.243   8.811  0.2829 -0.4478  0.1673
  836MOL0     C12781   3.323   1.256   8.947 -0.1854 -1.0494 -0.0827
  836MOL0     C12782   3.397   1.353   9.013 -0.0421  1.2456 -0.5885
  836MOL0     O12783   3.395   1.370   9.148  0.1096 -0.8758 -0.5839
  836MOL0     C12784   3.285   1.376   9.231  0.6072 -0.5585  0.8056
  836MOL0     C12785   3.251   1.526   9.249  0.2442 -0.5689 -0.1812
  836MOL0     C12786   3.137   1.542   9.350 -0.1176 -0.3446  0.7948
  836MOL0     C12787   3.061   1.674   9.349  0.2631 -0.8643  0.1478
  836MOL0     C12788   2.920   1.664   9.348  0.3923  0.1498 -0.3588
  836MOL0     C12789   2.800   1.623   9.349  0.6073 -0.1732  0.6131
  836MOL0     C12790   3.499   1.420   8.949  1.1318 -0.1439  0.0267
  836MOL0     C12791   3.512   1.411   8.807  0.1018  1.1122 -0.7165
  836MOL0     C12792   3.618   1.487   8.744 -0.0391 -0.0266  0.1428
  836MOL0     H12793   3.539   1.119   8.331  1.3087  2.2444 -1.1240
  836MOL0     H12794   3.426   1.049   8.115 -2.9558 -0.4193  0.1351
  836MOL0     H12795   3.153   0.934   8.114 -0.9755  1.7852  1.1421
  836MOL0     H12796   3.085   0.965   7.948  0.7392  1.9888 -2.4020
  836MOL0     H12797   3.278   0.784   7.935 -0.6294  0.9677 -1.2374
  836MOL0     H12798   3.370   0.885   8.024  0.7377  0.2497 -1.6396
  836MOL0     H12799   3.446   0.928   7.813 -0.5429 -1.7215  1.0617
  836MOL0     H12800   3.363   1.076   7.867  0.2095  0.3227 -1.3433
  836MOL0     H12801   3.306   0.908   7.638  0.6595 -0.4078  0.4059
  836MOL0     H12802   3.161   0.947   7.740  0.9884  0.3242 -1.3504
  836MOL0     H12803   3.170   1.116   7.577 -0.1773 -0.7009  0.3869
  836MOL0     H12804   3.206   1.192   7.722  0.9005  1.0489 -0.2823
  836MOL0     H12805   3.459   1.186   7.673 -1.6039 -1.6662  2.8423
  836MOL0     H12806   3.415   1.104   7.517 -1.1355  2.4558 -1.8807
  836MOL0     H12807   3.354   1.382   7.599 -0.7234 -1.3799  2.1385
  836MOL0     H12808   3.290   1.289   7.455  0.1212  0.0207 -1.2880
  836MOL0     H12809   3.580   1.357   7.528  0.5431 -0.0007 -1.4509
  836MOL0     H12810   3.537   1.257   7.390  1.0012  0.2396 -1.1599
  836MOL0     H12811   3.690   1.534   7.385 -0.9518  0.5243  2.9408
  836MOL0     H12812   3.712   1.779   7.284  0.1462  2.6236 -0.2490
  836MOL0     H12813   3.681   1.712   7.124 -0.5011  4.4215 -2.0987
  836MOL0     H12814   3.482   1.857   7.084 -0.2191 -0.8844 -0.3025
  836MOL0     H12815   3.496   1.912   7.255 -0.7638 -0.4737 -0.4812
  836MOL0     H12816   3.735   1.922   7.062  1.3398 -0.0618  2.6346
  836MOL0     H12817   3.695   2.041   7.194 -0.0522 -1.0544  1.3245
  836MOL0     H12818   3.506   2.051   6.954 -1.3511  3.8895 -0.5494
  836MOL0     H12819   3.634   2.166   6.995 -1.3716  1.2412 -0.6549
  836MOL0     H12820   3.277   2.090   7.255  1.9327  0.5696 -0.6748
  836MOL0     H12821   3.048   2.101   7.167 -0.4953  1.4847  1.7432
  836MOL0     H12822   2.730   2.150   6.737  1.0525  2.0745  0.3121
  836MOL0     H12823   2.488   2.188   6.728 -1.2007 -0.5643  0.9306
  836MOL0     H12824   2.150   2.112   6.829  0.0083 -0.5214  0.0781
  836MOL0     H12825   2.299   2.020   6.798 -1.4397 -1.1481 -1.2667
  836MOL0     H12826   2.165   1.895   6.935  1.4871  1.0157 -3.7582
  836MOL0     H12827   2.311   1.941   7.026 -1.0183 -0.5915  2.1195
  836MOL0     H12828   2.194   2.091   7.178 -1.5397 -0.2864  1.3098
  836MOL0     H12829   2.061   2.079   7.059 -0.6942 -1.0560  0.2501
  836MOL0     H12830   2.182   1.850   7.227  1.3038  0.3392 -1.3330
  836MOL0     H12831   2.044   1.834   7.109 -0.8073  2.1151  0.8586
  836MOL0     H12832   1.914   1.875   7.303  1.5308 -2.2412  1.5850
  836MOL0     H12833   1.958   2.041   7.256  0.7837  1.4578  1.2754
  836MOL0     H12834   2.086   1.864   7.467  1.0542  1.8021  3.6029
  836MOL0     H12835   2.179   1.982   7.400 -0.0057 -0.0948 -2.1014
  836MOL0     H12836   1.925   2.001   7.552  1.8498 -2.5014 -0.0149
  836MOL0     H12837   1.957   2.151   7.463  1.5516  2.5808  1.7327
  836MOL0     H12838   2.177   2.166   7.581  1.3873 -0.5879 -1.9960
  836MOL0     H12839   2.038   2.165   7.683 -0.2715 -0.3212 -2.1558
  836MOL0     H12840   2.448   2.117   7.143 -1.0001  2.0407 -0.6187
  836MOL0     H12841   2.680   2.106   7.167 -0.6081  1.5504 -1.3083
  836MOL0     H12842   3.175   2.306   6.819  2.4399  0.5899  0.0978
  836MOL0     H12843   3.402   2.282   6.886 -1.4098 -0.4598 -1.1802
  836MOL0     H12844   3.069   1.243   8.237 -0.1031 -2.1649  4.2073
  836MOL0     H12845   3.154   1.296   8.449  2.5252 -0.4225  2.1540
  836MOL0     H12846   3.286   1.157   8.777 -3.4890 -0.6878  5.7982
  836MOL0     H12847   3.240   1.202   8.992 -0.2642 -2.3126 -1.6537
  836MOL0     H12848   3.293   1.341   9.334 -0.4731  3.8938  2.6389
  836MOL0     H12849   3.205   1.314   9.188 -1.1242  1.9066  0.2159
  836MOL0     H12850   3.224   1.572   9.153  0.5839  2.1468  0.9539
  836MOL0     H12851   3.347   1.566   9.281 -0.3433  0.9506 -0.2028
  836MOL0     H12852   3.187   1.532   9.446  1.1109  2.5331  0.5376
  836MOL0     H12853   3.066   1.459   9.352  0.7930 -1.1990 -0.3885
  836MOL0     H12854   3.092   1.723   9.442 -0.1290  0.3588 -0.3365
  836MOL0     H12855   3.098   1.727   9.261 -1.4214 -0.2917 -0.2413
  836MOL0     H12856   2.695   1.611   9.336  0.6741  0.7650 -1.0437
  836MOL0     H12857   3.555   1.493   9.006 -0.3339  0.9804  0.0915
  836MOL0     H12858   3.569   1.576   8.706  2.0874  1.2924  0.3327
  836MOL0     H12859   3.688   1.529   8.817 -2.7320  2.0816  1.6877
  836MOL0     H12860   3.664   1.430   8.663  1.6418 -0.3510  1.2642
  837MOL0     O12861   8.309   5.526   3.946 -0.4759  0.5767 -0.6976
  837MOL0     C12862   8.338   5.529   3.828 -0.7061 -0.9434  0.4007
  837MOL0     O12863   8.292   5.626   3.743 -0.0644  0.7816  0.7425
  837MOL0     C12864   8.163   5.654   3.774 -0.4995 -0.7505 -0.2355
  837MOL0     C12865   8.070   5.553   3.767  0.4337 -0.8971  0.1880
  837MOL0     C12866   7.928   5.579   3.782 -1.3619  0.4443 -0.2131
  837MOL0     C12867   7.875   5.709   3.807  0.3096 -0.1760 -0.1272
  837MOL0     O12868   7.736   5.746   3.836  0.7452  0.5454 -0.1047
  837MOL0     C12869   7.640   5.647   3.807  0.2646 -0.0298 -0.7372
  837MOL0     C12870   7.507   5.679   3.880 -0.6376 -0.6619  0.1334
  837MOL0     C12871   7.449   5.810   3.843  0.0117 -0.3255 -0.5439
  837MOL0     C12872   7.328   5.797   3.753 -0.0236  0.2820  0.3626
  837MOL0     C12873   7.286   5.932   3.684  0.2042 -0.1887  0.1157
  837MOL0     C12874   7.236   6.039   3.784  0.3762  0.3906 -0.2748
  837MOL0     C12875   7.129   5.980   3.878 -0.1920  0.0704  0.1840
  837MOL0     C12876   7.079   6.073   3.990 -0.5740  0.0871 -0.6801
  837MOL0     N12877   6.958   6.145   3.945 -0.1320  0.1927 -0.3085
  837MOL0     C12878   6.961   6.255   3.857 -0.1662  0.3210 -0.4858
  837MOL0     C12879   6.837   6.309   3.870  0.1164  0.8260 -0.1767
  837MOL0     C12880   6.782   6.423   3.782 -0.5880 -0.5974 -0.1200
  837MOL0     C12881   6.822   6.563   3.845  0.2899 -0.0802  0.4736
  837MOL0     C12882   6.793   6.669   3.742  0.7992  0.0122  1.3497
  837MOL0     C12883   6.909   6.698   3.657  0.3369 -0.2999 -0.2069
  837MOL0     O12884   7.015   6.766   3.729 -0.7275 -0.4156 -0.8057
  837MOL0     C12885   7.127   6.798   3.661 -0.1186 -0.0535 -0.5072
  837MOL0     C12886   7.204   6.896   3.717 -0.2082  0.3701  0.5412
  837MOL0     C12887   7.327   6.934   3.653 -1.0093 -0.2699  0.0419
  837MOL0     C12888   7.381   6.857   3.540 -0.0902  0.4664 -0.9891
  837MOL0     C12889   7.515   6.873   3.477  0.2545  0.0623  0.0883
  837MOL0     O12890   7.581   6.778   3.415  0.7421 -0.1265  0.3089
  837MOL0     C12891   7.690   6.815   3.342  0.2097  0.0889  0.0458
  837MOL0     C12892   7.702   6.809   3.202 -0.0627  0.0072 -0.2972
  837MOL0     C12893   7.828   6.818   3.142  0.1503  0.0511  0.4691
  837MOL0     C12894   7.938   6.853   3.218  0.1831  0.0019 -0.2299
  837MOL0     O12895   8.052   6.897   3.152  0.5109  0.2776 -0.3796
  837MOL0     C12896   8.186   6.838   3.180  0.0602  0.6041  0.0980
  837MOL0     C12897   8.260   6.812   3.044  0.0214 -0.0531  0.2479
  837MOL0     C12898   8.333   6.926   2.979  0.1083 -0.2932 -0.2992
  837MOL0     C12899   8.260   6.976   2.852  0.7337 -0.8898 -0.0920
  837MOL0     C12900   8.340   7.096   2.793 -0.2992 -0.0102 -0.7635
  837MOL0     C12901   8.487   7.079   2.759 -0.2102  0.4861 -0.6349
  837MOL0     C12902   8.552   7.202   2.684 -0.2056  1.1007  0.0645
  837MOL0     C12903   8.508   7.206   2.540  0.1414 -1.1445  0.4784
  837MOL0    Cl12904   8.603   7.339   2.456 -0.1276 -0.2604 -0.1692
  837MOL0     C12905   7.924   6.861   3.351  1.0453 -0.2056  0.1900
  837MOL0     C12906   7.799   6.848   3.416 -1.0756  0.2306  0.5245
  837MOL0     O12907   7.548   6.986   3.480  0.4052 -0.9958  0.3754
  837MOL0     C12908   7.303   6.749   3.498 -0.2060 -0.0681  0.1239
  837MOL0     C12909   7.178   6.740   3.547  0.0903  1.0343  0.3712
  837MOL0     N12910   6.767   6.246   3.961  0.1872  0.1818 -0.4756
  837MOL0     N12911   6.834   6.149   4.012 -0.4975 -0.8358 -0.1704
  837MOL0     C12912   7.976   5.809   3.817  0.1174  0.0926  0.0956
  837MOL0     C12913   8.113   5.787   3.801 -0.1808  0.4240 -0.8289
  837MOL0     C12914   8.428   5.425   3.773 -0.4025  0.0866  0.3442
  837MOL0     C12915   8.385   5.301   3.800  0.3527 -0.7714 -0.0259
  837MOL0     C12916   8.452   5.186   3.744  0.0507 -0.0707 -0.3603
  837MOL0     C12917   8.554   5.201   3.661 -0.6294 -0.0728 -0.0870
  837MOL0     O12918   8.613   5.085   3.613  0.4365  0.7214 -1.1686
  837MOL0     C12919   8.742   5.080   3.555 -0.5772 -0.0615 -0.7187
  837MOL0     C12920   8.740   5.105   3.404  0.9624 -0.5194 -0.7151
  837MOL0     C12921   8.886   5.105   3.349 -0.5671  0.0824 -0.0864
  837MOL0     C12922   8.944   4.960   3.327 -0.0163  0.2629  1.1480
  837MOL0     C12923   9.067   4.999   3.246 -0.6092  0.5446 -0.5058
  837MOL0     C12924   9.165   5.041   3.192 -0.6487 -0.2295 -1.0445
  837MOL0     C12925   8.613   5.330   3.639  0.2975 -0.3735  0.3640
  837MOL0     C12926   8.541   5.444   3.691 -0.7257 -0.4092 -0.3107
  837MOL0     C12927   8.580   5.583   3.648 -0.4075 -0.8043  0.8888
  837MOL0     H12928   8.097   5.452   3.737  1.2620 -1.0816  1.4623
  837MOL0     H12929   7.858   5.496   3.786 -3.1004  1.8445 -0.1742
  837MOL0     H12930   7.627   5.651   3.698  1.0122  0.9426 -0.8026
  837MOL0     H12931   7.669   5.546   3.836  1.9028 -1.4351 -6.0145
  837MOL0     H12932   7.523   5.675   3.988  0.5602  1.0565  0.0532
  837MOL0     H12933   7.436   5.596   3.867 -0.4422 -1.6880  4.2194
  837MOL0     H12934   7.528   5.870   3.797  0.4239  0.4160  1.0465
  837MOL0     H12935   7.408   5.860   3.932  0.4522 -0.8725 -0.0243
  837MOL0     H12936   7.346   5.723   3.675 -1.3105 -0.7431  0.9902
  837MOL0     H12937   7.239   5.759   3.805 -1.0060  2.4606  0.3938
  837MOL0     H12938   7.372   5.975   3.631  1.1915 -3.3976 -1.1249
  837MOL0     H12939   7.209   5.904   3.611 -1.2278 -3.6913  2.6736
  837MOL0     H12940   7.327   6.063   3.841  1.2716  0.6182 -1.7483
  837MOL0     H12941   7.199   6.135   3.746  2.0250  1.6290  1.0348
  837MOL0     H12942   7.186   5.915   3.945 -0.3764 -0.3613 -0.0750
  837MOL0     H12943   7.045   5.922   3.839 -2.0414  1.5105  1.8304
  837MOL0     H12944   7.052   6.018   4.081  0.0521  0.0158 -0.5322
  837MOL0     H12945   7.169   6.130   4.015  1.9708 -3.5261 -0.8148
  837MOL0     H12946   7.039   6.294   3.792 -3.3583  1.7812 -3.7285
  837MOL0     H12947   6.834   6.420   3.686 -1.7144 -1.2761 -0.7356
  837MOL0     H12948   6.673   6.416   3.771 -0.9915  2.7408  0.6704
  837MOL0     H12949   6.752   6.565   3.930 -0.5346 -1.6138 -0.1308
  837MOL0     H12950   6.927   6.569   3.877  1.3043 -0.9022 -2.4114
  837MOL0     H12951   6.765   6.763   3.792 -0.3080 -0.4199  1.5638
  837MOL0     H12952   6.710   6.632   3.681 -1.0567 -0.0725  3.7701
  837MOL0     H12953   6.874   6.770   3.583  0.8547  0.7326  0.5184
  837MOL0     H12954   6.941   6.605   3.609 -1.9107 -1.4385  0.3663
  837MOL0     H12955   7.180   6.957   3.804  3.8608  2.4832  0.4007
  837MOL0     H12956   7.393   7.014   3.687 -0.4067 -0.5861 -0.3636
  837MOL0     H12957   7.613   6.786   3.143 -0.1234 -0.1941 -0.1261
  837MOL0     H12958   7.834   6.802   3.035 -0.8737 -0.5199  0.4862
  837MOL0     H12959   8.251   6.912   3.228  0.8888  0.6629 -1.0857
  837MOL0     H12960   8.168   6.750   3.244  1.7567  0.9746  1.1525
  837MOL0     H12961   8.328   6.728   3.061  2.2851  1.8336  1.0797
  837MOL0     H12962   8.187   6.773   2.973  0.8499  1.7005 -1.6375
  837MOL0     H12963   8.343   7.000   3.059  1.0343 -2.4755  1.7344
  837MOL0     H12964   8.433   6.895   2.948  2.7325  3.9301  2.8453
  837MOL0     H12965   8.156   6.996   2.882  0.5551  0.9756 -1.7971
  837MOL0     H12966   8.259   6.903   2.770  0.0140  1.0622 -1.8954
  837MOL0     H12967   8.331   7.171   2.872 -2.9780 -0.6164 -0.4000
  837MOL0     H12968   8.277   7.137   2.714  0.8423  2.2051 -0.5893
  837MOL0     H12969   8.534   7.058   2.856  1.7443  0.9994 -1.4255
  837MOL0     H12970   8.498   6.990   2.695  2.0279 -0.1071  0.4695
  837MOL0     H12971   8.660   7.185   2.683 -0.0441  1.8869 -2.1745
  837MOL0     H12972   8.528   7.297   2.734 -2.0889 -0.3984  2.2221
  837MOL0     H12973   8.510   7.116   2.477 -0.2085 -0.1904 -0.9466
  837MOL0     H12974   8.405   7.242   2.544  0.2138 -0.6978 -0.8496
  837MOL0     H12975   8.008   6.905   3.404  2.1027 -2.6566  0.7088
  837MOL0     H12976   7.796   6.859   3.524  0.9940  2.1785  0.4670
  837MOL0     H12977   7.339   6.688   3.416  1.0208  2.3016 -1.1980
  837MOL0     H12978   7.107   6.683   3.488  0.5556  0.2751  0.5182
  837MOL0     H12979   7.942   5.911   3.830 -1.9987 -0.3982 -1.0477
  837MOL0     H12980   8.194   5.859   3.812  1.8044 -1.7572 -0.3138
  837MOL0     H12981   8.306   5.279   3.871 -1.2676  2.4446 -0.6666
  837MOL0     H12982   8.426   5.083   3.766 -2.6637  0.2169 -1.8535
  837MOL0     H12983   8.776   4.979   3.580 -1.3541  0.8621  5.7561
  837MOL0     H12984   8.802   5.159   3.602  0.4991 -1.7452  0.8990
  837MOL0     H12985   8.694   5.203   3.390 -2.6755 -2.1406 -1.5034
  837MOL0     H12986   8.674   5.029   3.360 -0.6014  0.3473  0.0393
  837MOL0     H12987   8.953   5.162   3.415  0.0296 -1.4353  0.6988
  837MOL0     H12988   8.887   5.153   3.251  0.5585 -0.6376 -0.4537
  837MOL0     H12989   8.973   4.912   3.421 -3.0884 -0.5039  1.8016
  837MOL0     H12990   8.870   4.897   3.277 -0.4244 -0.0194  2.0998
  837MOL0     H12991   9.255   5.091   3.161 -0.1582 -0.4200  0.0077
  837MOL0     H12992   8.698   5.355   3.578 -1.3957 -0.9506 -2.4092
  837MOL0     H12993   8.636   5.633   3.727 -1.2746 -1.3272  1.8455
  837MOL0     H12994   8.647   5.568   3.562  2.3287  1.4707  2.4548
  837MOL0     H12995   8.490   5.630   3.608  1.5338 -0.4279 -3.7522
  838MOL0     O12996   8.304   2.141   4.490 -0.3297 -0.1880  0.5696
  838MOL0     C12997   8.406   2.187   4.438 -0.0057 -0.4227  0.0497
  838MOL0     O12998   8.532   2.135   4.463  0.0498 -0.3178 -0.1153
  838MOL0     C12999   8.534   2.007   4.494  0.0116  0.2187 -0.6720
  838MOL0     C13000   8.605   1.920   4.414  0.9683 -0.0979 -0.9237
  838MOL0     C13001   8.610   1.780   4.439  0.2374 -0.3026 -1.2029
  838MOL0     C13002   8.561   1.728   4.568  0.6942  0.1323 -0.0153
  838MOL0     O13003   8.552   1.600   4.595  0.1967  1.1349  0.3704
  838MOL0     C13004   8.647   1.514   4.533  0.1097  0.2049 -0.6253
  838MOL0     C13005   8.688   1.400   4.622 -0.5422 -0.5972  0.6246
  838MOL0     C13006   8.755   1.462   4.750 -0.3730  0.2539  0.3781
  838MOL0     C13007   8.823   1.353   4.829 -0.2254  0.3367 -0.0026
  838MOL0     C13008   8.911   1.415   4.935  0.4407 -0.9569 -1.2661
  838MOL0     C13009   8.958   1.297   5.026  0.1960  0.3690  0.3519
  838MOL0     C13010   8.851   1.218   5.113 -0.1342 -0.1883 -0.2828
  838MOL0     C13011   8.890   1.070   5.138 -0.6326  0.2670  0.4204
  838MOL0     N13012   8.999   1.054   5.234 -0.7925 -0.1071 -0.1319
  838MOL0     C13013   8.978   1.051   5.370  0.3269 -0.9658  0.1598
  838MOL0     C13014   9.096   1.040   5.428 -0.2759  0.4967  1.1144
  838MOL0     C13015   9.123   1.038   5.563 -0.5463 -0.3195 -0.6876
  838MOL0     C13016   9.253   1.121   5.587  0.3797 -0.7500 -1.0650
  838MOL0     C13017   9.273   1.170   5.732  0.1447 -0.1571 -0.0808
  838MOL0     C13018   9.157   1.256   5.780 -1.3098  0.2956  0.3681
  838MOL0     O13019   9.173   1.326   5.900 -0.2589  0.4233  0.3334
  838MOL0     C13020   9.078   1.416   5.939  0.1132  0.1223 -0.7580
  838MOL0     C13021   8.968   1.458   5.862  1.4209  0.4399 -0.4328
  838MOL0     C13022   8.864   1.546   5.927 -0.4322 -0.2189 -0.1414
  838MOL0     C13023   8.892   1.605   6.057  0.9704  0.2740 -0.3283
  838MOL0     C13024   8.787   1.698   6.107 -0.1079 -0.5771 -0.6834
  838MOL0     O13025   8.687   1.714   6.014  0.1546 -0.7084  0.5126
  838MOL0     C13026   8.572   1.780   6.051 -0.4056 -1.0717  0.3514
  838MOL0     C13027   8.538   1.900   5.980 -0.2168  1.0581  0.1690
  838MOL0     C13028   8.415   1.956   6.005 -0.2986 -0.0402 -1.5982
  838MOL0     C13029   8.317   1.897   6.090  0.0270 -0.1439 -0.3790
  838MOL0     O13030   8.196   1.950   6.127 -0.2440  0.4534  0.2361
  838MOL0     C13031   8.179   2.088   6.096  0.2837 -0.2560 -0.3239
  838MOL0     C13032   8.056   2.131   6.179 -0.2621  0.0438 -1.0145
  838MOL0     C13033   7.925   2.046   6.180 -0.3341  0.0905  0.8653
  838MOL0     C13034   7.823   2.094   6.289 -0.5263 -0.1014 -0.0211
  838MOL0     C13035   7.687   2.021   6.269 -0.3409  0.5985  0.7251
  838MOL0     C13036   7.684   1.870   6.299  1.1002 -0.7619 -0.3637
  838MOL0     C13037   7.703   1.837   6.446 -0.0490 -0.6548 -0.3071
  838MOL0     C13038   7.707   1.692   6.481  0.0008 -0.1991  0.5136
  838MOL0    Cl13039   7.588   1.576   6.404 -0.0123 -0.2124  0.0894
  838MOL0     C13040   8.360   1.787   6.162  1.0532 -0.1316  0.1590
  838MOL0     C13041   8.485   1.725   6.147  0.2589 -0.7256  0.1103
  838MOL0     O13042   8.792   1.754   6.219 -1.0653  0.6235 -0.0334
  838MOL0     C13043   8.994   1.556   6.126  0.1036  0.1098 -0.2078
  838MOL0     C13044   9.081   1.469   6.070  1.1680  0.7368  0.5730
  838MOL0     N13045   9.195   1.060   5.333  1.1908 -0.1008  0.0885
  838MOL0     N13046   9.133   1.060   5.214  0.3057 -0.6444  0.0154
  838MOL0     C13047   8.501   1.820   4.657 -0.8956 -0.1114  1.3632
  838MOL0     C13048   8.493   1.957   4.624 -0.0878  0.5180 -0.4650
  838MOL0     C13049   8.404   2.312   4.364  1.2786  0.1141  0.2829
  838MOL0     C13050   8.428   2.434   4.422  0.2326 -0.1845 -0.3119
  838MOL0     C13051   8.430   2.547   4.344 -1.0209 -0.6593  0.2992
  838MOL0     C13052   8.437   2.542   4.205 -0.0384  0.1961 -0.0834
  838MOL0     O13053   8.472   2.659   4.135 -0.2314 -0.1055 -0.6607
  838MOL0     C13054   8.476   2.658   3.988 -0.3558  0.1494 -0.4547
  838MOL0     C13055   8.490   2.795   3.921  0.0517 -0.3211  0.4134
  838MOL0     C13056   8.485   2.785   3.774  0.8396 -0.0450  0.3145
  838MOL0     C13057   8.520   2.917   3.703 -0.4089  0.0741  0.8447
  838MOL0     C13058   8.566   2.914   3.556  0.2757  0.2254  0.9997
  838MOL0     C13059   8.569   2.924   3.440  1.2648  0.8142  0.9025
  838MOL0     C13060   8.422   2.415   4.142 -0.5780 -0.7772 -0.2650
  838MOL0     C13061   8.407   2.305   4.223 -0.1374 -0.5171  0.2352
  838MOL0     C13062   8.397   2.173   4.156 -0.6637  0.2865 -0.5062
  838MOL0     H13063   8.641   1.961   4.320 -0.4795  4.3566  0.2079
  838MOL0     H13064   8.671   1.724   4.369 -0.1155 -1.6071 -0.4909
  838MOL0     H13065   8.598   1.471   4.445  1.2791 -2.2824 -0.1359
  838MOL0     H13066   8.735   1.574   4.509  1.3052 -2.4016 -3.2857
  838MOL0     H13067   8.749   1.331   4.564 -1.9345 -1.1940 -0.1716
  838MOL0     H13068   8.603   1.342   4.657 -0.8173 -0.2253  0.5785
  838MOL0     H13069   8.682   1.518   4.807 -1.4292 -0.6147 -0.0776
  838MOL0     H13070   8.832   1.524   4.704  0.3886 -1.9186 -1.4971
  838MOL0     H13071   8.744   1.295   4.878 -1.8404  2.4801  0.0728
  838MOL0     H13072   8.882   1.288   4.765 -0.2596  0.1016  0.2048
  838MOL0     H13073   8.997   1.467   4.891  0.7757 -0.7167 -0.3484
  838MOL0     H13074   8.853   1.467   5.012  1.1453 -1.1916 -0.5703
  838MOL0     H13075   8.998   1.220   4.960  0.4810  0.0175  0.9304
  838MOL0     H13076   9.038   1.325   5.094 -2.6943 -2.0515  5.2918
  838MOL0     H13077   8.748   1.229   5.080 -0.1826  0.2260  0.0004
  838MOL0     H13078   8.848   1.268   5.210 -1.3406  0.9658 -0.8912
  838MOL0     H13079   8.803   1.009   5.165 -0.7981  1.2380  2.2310
  838MOL0     H13080   8.908   1.033   5.037 -2.6478  3.8878 -1.4747
  838MOL0     H13081   8.878   1.032   5.405 -0.6010  0.8074 -1.3406
  838MOL0     H13082   9.032   1.070   5.614  0.0672 -0.9287  0.8625
  838MOL0     H13083   9.152   0.942   5.607  1.2929  0.5483  0.1121
  838MOL0     H13084   9.342   1.059   5.569  2.2656  0.7714  2.1276
  838MOL0     H13085   9.255   1.211   5.526  0.8861  1.8068  2.4392
  838MOL0     H13086   9.365   1.229   5.741 -2.2406  3.5850  4.1193
  838MOL0     H13087   9.285   1.083   5.797  2.6990  0.3782  0.2781
  838MOL0     H13088   9.070   1.190   5.783  0.3708 -1.9675  1.8308
  838MOL0     H13089   9.153   1.337   5.706  0.1665 -0.5331 -0.6611
  838MOL0     H13090   8.936   1.425   5.764 -0.7549 -0.9943  0.6497
  838MOL0     H13091   8.777   1.556   5.862 -3.0360  1.4625  3.2603
  838MOL0     H13092   8.602   1.943   5.904  0.7443 -2.1678 -0.9860
  838MOL0     H13093   8.398   2.052   5.957  1.9373  2.2960  1.7870
  838MOL0     H13094   8.258   2.158   6.126 -0.5046  1.1005 -1.3161
  838MOL0     H13095   8.157   2.100   5.990  2.0917  0.9203 -0.6094
  838MOL0     H13096   8.082   2.145   6.284 -0.7570  0.1233 -0.9034
  838MOL0     H13097   8.035   2.235   6.155  2.4089  1.0282  0.4777
  838MOL0     H13098   7.891   2.046   6.076 -1.2585 -3.0653  1.0530
  838MOL0     H13099   7.954   1.942   6.196  1.1853  0.3292 -0.1823
  838MOL0     H13100   7.807   2.198   6.259  2.8750  0.2546 -1.0953
  838MOL0     H13101   7.869   2.092   6.388 -1.5774 -0.4943  0.4763
  838MOL0     H13102   7.670   2.036   6.162  0.7042  3.6095  0.8811
  838MOL0     H13103   7.613   2.070   6.332 -2.0743 -1.5455  0.4911
  838MOL0     H13104   7.584   1.844   6.262  1.3776 -0.6210 -1.2489
  838MOL0     H13105   7.754   1.815   6.235  0.1589 -2.0425 -0.3205
  838MOL0     H13106   7.619   1.874   6.505 -0.7617 -1.5490 -0.7252
  838MOL0     H13107   7.802   1.871   6.479 -1.0716  0.0152  2.3152
  838MOL0     H13108   7.811   1.661   6.473  0.4957  1.1615  1.3311
  838MOL0     H13109   7.688   1.680   6.588 -2.6817  0.9702  0.2640
  838MOL0     H13110   8.283   1.734   6.217  0.4687  1.0550  0.5328
  838MOL0     H13111   8.507   1.638   6.207 -2.9724 -3.8014 -2.7380
  838MOL0     H13112   9.020   1.580   6.228 -1.2219 -1.1733  0.4821
  838MOL0     H13113   9.154   1.415   6.130  0.9498 -2.2825 -1.6160
  838MOL0     H13114   8.466   1.784   4.753 -1.2620 -0.1458  1.2159
  838MOL0     H13115   8.461   2.034   4.694 -0.8104 -2.0867  2.2777
  838MOL0     H13116   8.450   2.447   4.528  0.9775 -2.9957 -0.0271
  838MOL0     H13117   8.466   2.635   4.397 -1.7146  1.4143 -2.4513
  838MOL0     H13118   8.385   2.619   3.942 -1.3088 -0.8430  2.0971
  838MOL0     H13119   8.567   2.599   3.971 -0.0946  0.6928 -0.9762
  838MOL0     H13120   8.582   2.831   3.968 -0.2063 -0.5192  1.0904
  838MOL0     H13121   8.404   2.856   3.954  2.2064  1.7006  2.7822
  838MOL0     H13122   8.387   2.750   3.740  2.2282 -2.0164 -1.9914
  838MOL0     H13123   8.566   2.716   3.748  0.3875 -0.7662  0.7926
  838MOL0     H13124   8.431   2.981   3.707  0.8283  2.0564 -1.0220
  838MOL0     H13125   8.596   2.972   3.758  1.1398 -1.7233  0.6193
  838MOL0     H13126   8.573   2.933   3.333  2.6940  2.9074  1.0667
  838MOL0     H13127   8.446   2.402   4.037  0.2966 -2.4007  0.1033
  838MOL0     H13128   8.486   2.110   4.162 -1.0600 -0.3846 -1.3906
  838MOL0     H13129   8.311   2.124   4.203  1.1148 -2.7352 -0.1136
  838MOL0     H13130   8.372   2.185   4.050  0.4823  1.8911 -0.6222
  839MOL0     O13131   0.463   8.835   1.897  0.2791 -0.8252  0.0604
  839MOL0     C13132   0.462   8.790   1.785 -0.3504  0.0870 -0.4212
  839MOL0     O13133   0.513   8.853   1.675  0.0688  0.4039  0.8430
  839MOL0     C13134   0.610   8.949   1.685  1.2755  0.0551  0.3451
  839MOL0     C13135   0.621   9.029   1.569  0.5558  1.1305  0.4150
  839MOL0     C13136   0.735   9.102   1.546  0.0244  0.1339  0.1393
  839MOL0     C13137   0.831   9.102   1.646  0.2278 -0.0906  1.0907
  839MOL0     O13138   0.945   9.163   1.636 -0.1085 -0.9895 -0.1418
  839MOL0     C13139   0.998   9.184   1.500  0.1773 -1.1976 -0.4172
  839MOL0     C13140   1.128   9.260   1.520  0.1191 -0.5877  0.4272
  839MOL0     C13141   1.182   9.337   1.392  0.3643  0.0122 -0.3411
  839MOL0     C13142   1.216   9.242   1.282 -0.4254  0.3626  0.1304
  839MOL0     C13143   1.348   9.265   1.211  0.0193  0.6815  0.1126
  839MOL0     C13144   1.345   9.212   1.066  0.4832  1.3287 -0.6167
  839MOL0     C13145   1.483   9.227   0.998  0.4180  0.2654  0.2481
  839MOL0     C13146   1.582   9.114   1.026 -0.4014  0.1769 -0.1585
  839MOL0     N13147   1.711   9.164   0.980  1.0971 -0.5669 -0.0927
  839MOL0     C13148   1.765   9.165   0.855  0.4791 -0.8514 -0.2534
  839MOL0     C13149   1.868   9.256   0.870  0.2927  0.1358 -0.6598
  839MOL0     C13150   1.950   9.313   0.764 -0.1558  0.3964 -0.6595
  839MOL0     C13151   1.872   9.397   0.668  0.8500  0.1878 -0.0795
  839MOL0     C13152   1.769   9.500   0.724 -0.3421  0.1668  0.5759
  839MOL0     C13153   1.815   9.588   0.835 -0.5969  0.3168 -0.1612
  839MOL0     O13154   1.942   9.645   0.799  0.0762  0.1804 -0.6549
  839MOL0     C13155   1.948   9.764   0.735 -0.2669  0.1489 -0.5369
  839MOL0     C13156   2.069   9.830   0.725 -0.2078  0.3511 -0.4224
  839MOL0     C13157   2.080   9.962   0.675 -0.3191 -0.0516 -0.2600
  839MOL0     C13158   1.971  10.035   0.639  0.0298  0.0327  0.0530
  839MOL0     C13159   1.969  10.177   0.587 -1.0517 -0.7924  0.3650
  839MOL0     O13160   2.093  10.252   0.591  0.8087 -0.0123 -0.0152
  839MOL0     C13161   2.094  10.380   0.534 -0.9871  0.8928  0.3222
  839MOL0     C13162   1.997  10.480   0.556 -0.5306  1.0983  0.2675
  839MOL0     C13163   2.007  10.603   0.492 -0.0387  1.5196 -0.0524
  839MOL0     C13164   2.121  10.639   0.417 -0.0042 -0.1890 -0.1218
  839MOL0     O13165   2.134  10.770   0.373  0.3596  0.0656  0.5384
  839MOL0     C13166   2.258  10.846   0.382 -0.3317  0.3062 -0.2405
  839MOL0     C13167   2.327  10.866   0.247  0.4881 -0.1435 -0.5044
  839MOL0     C13168   2.455  10.961   0.256  0.3301  0.2033  0.4385
  839MOL0     C13169   2.541  10.931   0.386  0.1706 -0.4353  0.3491
  839MOL0     C13170   2.675  11.011   0.390  0.3598  1.3756 -0.2621
  839MOL0     C13171   2.743  10.992   0.527  0.0241 -0.0796 -0.4687
  839MOL0     C13172   2.860  11.090   0.538  0.0405  0.2828 -0.3007
  839MOL0     C13173   2.992  11.028   0.566  0.0609  0.9343  0.5169
  839MOL0    Cl13174   3.114  11.151   0.529  0.3666  0.3558 -0.2534
  839MOL0     C13175   2.217  10.542   0.413  0.4887 -0.5668 -0.1129
  839MOL0     C13176   2.206  10.412   0.460  0.2114 -0.4802  0.1914
  839MOL0     O13177   1.863  10.217   0.536  0.0937  0.0429 -0.6131
  839MOL0     C13178   1.844   9.962   0.634  0.1679  0.2234  0.1483
  839MOL0     C13179   1.836   9.831   0.686 -0.2211  0.5622 -0.3133
  839MOL0     N13180   1.881   9.301   0.997  0.2545 -0.5432  0.4671
  839MOL0     N13181   1.787   9.244   1.065  0.1358 -0.7449  0.8119
  839MOL0     C13182   0.817   9.036   1.766  0.6672 -0.5569  0.9179
  839MOL0     C13183   0.695   8.965   1.792 -0.9544  0.3440  0.0460
  839MOL0     C13184   0.360   8.684   1.769  0.5871 -0.1020 -0.5933
  839MOL0     C13185   0.289   8.679   1.647 -0.2883  0.9364 -0.6752
  839MOL0     C13186   0.185   8.588   1.627  0.4341  1.0730 -0.4215
  839MOL0     C13187   0.145   8.492   1.729 -0.2494  0.0330  0.5178
  839MOL0     O13188   0.059   8.387   1.713  0.2956  0.4191  0.1958
  839MOL0     C13189  -0.021   8.326   1.814  1.0521  0.8633 -0.5437
  839MOL0     C13190  -0.135   8.230   1.765  0.7703  0.0362 -0.6678
  839MOL0     C13191  -0.245   8.343   1.743 -0.1346 -0.5921  0.0490
  839MOL0     C13192  -0.390   8.289   1.720 -0.2571  0.1980  0.4428
  839MOL0     C13193  -0.395   8.204   1.601 -0.5904  0.7303  0.0599
  839MOL0     C13194  -0.380   8.132   1.502  0.0476 -0.7287 -0.0827
  839MOL0     C13195   0.226   8.504   1.846 -0.1754  1.1762  0.3970
  839MOL0     C13196   0.326   8.595   1.871 -0.6188 -0.0697  0.1196
  839MOL0     C13197   0.384   8.583   2.003 -1.1696 -0.3347  0.5199
  839MOL0     H13198   0.543   9.035   1.494 -1.2753  1.3545  2.2592
  839MOL0     H13199   0.744   9.150   1.449  1.2332 -5.0018 -2.6338
  839MOL0     H13200   1.015   9.091   1.445 -2.7449 -1.3111 -1.2782
  839MOL0     H13201   0.933   9.246   1.439 -0.4209 -3.0367 -1.7272
  839MOL0     H13202   1.203   9.188   1.555 -0.0122 -0.7984  0.2765
  839MOL0     H13203   1.115   9.337   1.596  1.9823 -1.9840  2.2881
  839MOL0     H13204   1.272   9.390   1.425 -0.6263  2.3086 -1.1275
  839MOL0     H13205   1.108   9.406   1.350  1.4308  1.2059 -0.3163
  839MOL0     H13206   1.227   9.143   1.328 -2.6582  0.2806  0.6170
  839MOL0     H13207   1.132   9.240   1.212 -0.4526  0.8374  0.1483
  839MOL0     H13208   1.363   9.373   1.206  2.6626  0.3436 -1.3317
  839MOL0     H13209   1.436   9.232   1.267  0.9945 -1.7311 -2.6020
  839MOL0     H13210   1.315   9.107   1.058  2.8713  0.6535 -1.5954
  839MOL0     H13211   1.279   9.276   1.007  2.6677  2.3742 -2.0615
  839MOL0     H13212   1.526   9.324   1.027  0.4138  0.4392 -0.3026
  839MOL0     H13213   1.463   9.225   0.890 -0.8859 -1.4630  0.4785
  839MOL0     H13214   1.600   9.097   1.133 -1.6857  1.2807  0.2540
  839MOL0     H13215   1.554   9.019   0.979 -1.6031  0.3032  0.2741
  839MOL0     H13216   1.706   9.118   0.778 -0.6388 -1.4588  0.9326
  839MOL0     H13217   2.027   9.372   0.814  1.6562 -2.8280  0.6153
  839MOL0     H13218   1.990   9.232   0.703  0.1586  1.1301 -1.4501
  839MOL0     H13219   1.932   9.445   0.591 -1.2485 -0.3559 -2.1512
  839MOL0     H13220   1.804   9.330   0.615 -1.9297  0.9537  2.1983
  839MOL0     H13221   1.674   9.447   0.737  1.8685 -3.6217  3.5472
  839MOL0     H13222   1.745   9.576   0.650 -2.1321  0.4817  1.4146
  839MOL0     H13223   1.829   9.530   0.927  0.0682  2.2038  0.9889
  839MOL0     H13224   1.732   9.657   0.856 -2.2693 -1.5178 -0.3741
  839MOL0     H13225   2.152   9.783   0.777  0.0155  1.1606 -0.0381
  839MOL0     H13226   2.183   9.994   0.663 -0.5239  1.3996  1.4237
  839MOL0     H13227   1.917  10.469   0.629 -0.8789  0.7916 -0.1535
  839MOL0     H13228   1.921  10.669   0.491 -1.7205 -0.4937  1.6831
  839MOL0     H13229   2.237  10.949   0.411 -1.3578  0.6787 -2.1432
  839MOL0     H13230   2.318  10.794   0.457 -0.7205 -1.0706 -0.8361
  839MOL0     H13231   2.364  10.768   0.216  1.0509 -0.6107  1.5506
  839MOL0     H13232   2.262  10.913   0.172  2.5400 -0.6411 -2.7208
  839MOL0     H13233   2.518  10.922   0.176  1.4993 -4.1827  3.1801
  839MOL0     H13234   2.421  11.064   0.245  0.9457  0.1339 -4.3422
  839MOL0     H13235   2.564  10.824   0.385 -0.5130 -0.6049 -1.6546
  839MOL0     H13236   2.487  10.961   0.477  0.5992  4.0233 -0.6224
  839MOL0     H13237   2.660  11.115   0.362 -1.6883  0.9194 -1.0065
  839MOL0     H13238   2.733  10.964   0.309  1.0981 -0.5916  1.3034
  839MOL0     H13239   2.667  11.008   0.605 -1.1417 -0.3295 -1.5167
  839MOL0     H13240   2.788  10.893   0.536  4.3131  1.7038  0.0971
  839MOL0     H13241   2.849  11.151   0.628 -1.8402 -0.2609 -0.1274
  839MOL0     H13242   2.873  11.159   0.454  1.7318  0.5607  0.1447
  839MOL0     H13243   3.005  11.004   0.672  1.1503  1.1388  0.4381
  839MOL0     H13244   3.021  10.943   0.503 -1.2082  0.1043  1.0130
  839MOL0     H13245   2.319  10.564   0.383  0.6422  0.7928  1.2354
  839MOL0     H13246   2.286  10.340   0.445 -0.3948 -0.9436 -0.9501
  839MOL0     H13247   1.759  10.018   0.596 -0.3708 -0.1481  0.7797
  839MOL0     H13248   1.737   9.791   0.671 -0.4971  1.2953 -0.4700
  839MOL0     H13249   0.893   9.044   1.843  3.1369  0.8100 -1.4958
  839MOL0     H13250   0.688   8.912   1.887  0.3159  1.6554  0.9155
  839MOL0     H13251   0.319   8.755   1.576 -1.2864  0.9054 -1.1514
  839MOL0     H13252   0.141   8.589   1.528 -1.8041 -1.3024  0.4166
  839MOL0     H13253  -0.059   8.401   1.885  1.3851  3.3751 -2.8212
  839MOL0     H13254   0.040   8.261   1.878 -3.5852 -2.6807  0.8160
  839MOL0     H13255  -0.168   8.152   1.833 -1.1384  1.0299 -0.4013
  839MOL0     H13256  -0.107   8.186   1.668  2.8114  2.7901 -1.4722
  839MOL0     H13257  -0.228   8.395   1.649 -2.1308  0.1755  0.0647
  839MOL0     H13258  -0.256   8.426   1.813  1.3626  0.6664 -1.1473
  839MOL0     H13259  -0.425   8.232   1.807 -0.2367  2.1287  1.7946
  839MOL0     H13260  -0.451   8.379   1.705  2.1975  2.3406  2.4689
  839MOL0     H13261  -0.359   8.053   1.433 -0.3702 -3.0751  2.3118
  839MOL0     H13262   0.195   8.439   1.927  1.2968  0.8157  0.7091
  839MOL0     H13263   0.376   8.485   2.049  0.2334 -0.6272  0.1928
  839MOL0     H13264   0.493   8.586   1.998 -1.2404  1.2503 -2.0297
  839MOL0     H13265   0.351   8.655   2.079  0.0767  1.5026 -0.5878
  840MOL0     O13266   4.975   3.911   3.086 -0.5881 -0.4065 -0.2139
  840MOL0     C13267   4.871   3.923   3.149  1.0024 -0.3254  0.0502
  840MOL0     O13268   4.779   4.022   3.131 -0.0697 -0.0042  0.6684
  840MOL0     C13269   4.811   4.133   3.064  0.3854  0.3878  0.3384
  840MOL0     C13270   4.728   4.180   2.968 -0.2341  0.7169  0.3325
  840MOL0     C13271   4.768   4.287   2.877  0.1713  0.4580  1.1437
  840MOL0     C13272   4.886   4.354   2.903  0.7082  0.1657  0.1812
  840MOL0     O13273   4.935   4.462   2.830  0.4583 -0.3073 -0.4002
  840MOL0     C13274   4.872   4.510   2.718  0.1590 -0.4803 -0.0740
  840MOL0     C13275   4.932   4.448   2.588  0.0164  0.6285  0.8992
  840MOL0     C13276   4.842   4.489   2.460 -0.4493 -0.5466  0.0079
  840MOL0     C13277   4.716   4.404   2.441  0.5860  0.0686 -0.0139
  840MOL0     C13278   4.630   4.473   2.338 -0.5062  0.8520 -1.0628
  840MOL0     C13279   4.500   4.409   2.308 -0.0992  0.1771 -0.5143
  840MOL0     C13280   4.409   4.444   2.419 -0.2152 -0.6109  0.4640
  840MOL0     C13281   4.277   4.364   2.401  0.8099 -0.5068  0.0333
  840MOL0     N13282   4.161   4.405   2.491  0.2965  0.1840  0.0950
  840MOL0     C13283   4.074   4.313   2.565 -0.2043 -1.2419 -0.0753
  840MOL0     C13284   3.975   4.395   2.619 -0.0974 -0.1876 -0.0371
  840MOL0     C13285   3.866   4.363   2.717  0.8029 -0.7365 -0.8462
  840MOL0     C13286   3.725   4.380   2.652  1.2821  0.9773 -0.3021
  840MOL0     C13287   3.688   4.251   2.573  0.7911  0.3061  0.3273
  840MOL0     C13288   3.569   4.265   2.478  0.2206  0.1778  0.9676
  840MOL0     O13289   3.566   4.382   2.399  0.1698 -0.6185  0.1231
  840MOL0     C13290   3.541   4.391   2.258  0.0220  0.3664 -0.2538
  840MOL0     C13291   3.533   4.279   2.176  0.1500  0.1426 -0.4542
  840MOL0     C13292   3.498   4.286   2.044 -0.9427 -0.6144 -0.0216
  840MOL0     C13293   3.475   4.409   1.982 -0.1322  0.1344  0.1390
  840MOL0     C13294   3.439   4.429   1.840  0.1038  0.7516 -1.3191
  840MOL0     O13295   3.446   4.550   1.778 -0.5717 -0.6811 -0.1782
  840MOL0     C13296   3.441   4.560   1.640  0.6065 -0.7671 -0.4554
  840MOL0     C13297   3.322   4.610   1.585  0.6060 -0.3689 -0.0730
  840MOL0     C13298   3.305   4.630   1.453  0.4034  0.1498  0.2966
  840MOL0     C13299   3.396   4.568   1.363 -0.2802 -0.2015 -0.2161
  840MOL0     O13300   3.378   4.570   1.227  0.0360  0.7463 -0.5945
  840MOL0     C13301   3.253   4.626   1.174 -0.0253 -0.3574 -0.1408
  840MOL0     C13302   3.288   4.780   1.140  0.4016 -0.4218  0.4016
  840MOL0     C13303   3.378   4.777   1.006  0.7112 -1.2521 -0.4263
  840MOL0     C13304   3.341   4.881   0.900  0.4551 -0.1543 -0.2531
  840MOL0     C13305   3.439   4.897   0.782  0.3884 -0.6617 -0.1605
  840MOL0     C13306   3.408   4.796   0.673 -0.0323 -0.2391  1.9483
  840MOL0     C13307   3.491   4.824   0.544 -0.4526  0.1718 -0.4816
  840MOL0     C13308   3.462   4.733   0.423 -0.4405 -0.5454  0.1016
  840MOL0    Cl13309   3.299   4.759   0.367 -0.1691  0.1184 -0.0464
  840MOL0     C13310   3.516   4.516   1.415  1.0382  0.8120  0.2047
  840MOL0     C13311   3.537   4.513   1.548  0.9266 -0.3406 -0.1511
  840MOL0     O13312   3.419   4.325   1.768 -0.1099  1.2243 -0.2871
  840MOL0     C13313   3.501   4.523   2.057 -1.0555 -0.0862 -0.7192
  840MOL0     C13314   3.526   4.518   2.198  0.5749  0.2738  0.0218
  840MOL0     N13315   4.000   4.527   2.577  0.3246 -0.2337 -0.8061
  840MOL0     N13316   4.106   4.528   2.506 -0.1689 -0.0901 -0.5824
  840MOL0     C13317   4.963   4.316   3.009  0.1637 -0.8466  0.1871
  840MOL0     C13318   4.929   4.206   3.086 -0.0149  0.5055  0.3010
  840MOL0     C13319   4.833   3.819   3.246  0.9223 -0.5868  0.2865
  840MOL0     C13320   4.758   3.856   3.353 -0.3815 -0.2324 -0.2653
  840MOL0     C13321   4.697   3.756   3.430 -0.5419 -0.3616 -0.4766
  840MOL0     C13322   4.712   3.620   3.412  0.8355  0.5131 -0.5595
  840MOL0     O13323   4.634   3.527   3.481 -0.7065  0.0856  0.6331
  840MOL0     C13324   4.616   3.542   3.620  0.8104  0.0623  0.3982
  840MOL0     C13325   4.599   3.396   3.668  1.3782  0.2802  0.1298
  840MOL0     C13326   4.740   3.331   3.675  0.1674  0.1838 -0.0831
  840MOL0     C13327   4.758   3.183   3.703  1.3965 -0.3261  0.3265
  840MOL0     C13328   4.698   3.137   3.835  0.6873 -1.4321 -0.2363
  840MOL0     C13329   4.664   3.098   3.949 -0.4064  0.9976 -0.5061
  840MOL0     C13330   4.782   3.587   3.298  0.7792  0.3066  0.5985
  840MOL0     C13331   4.846   3.680   3.218  0.6913 -1.4713  0.7818
  840MOL0     C13332   4.914   3.619   3.095 -0.6035  0.1655 -0.5981
  840MOL0     H13333   4.630   4.135   2.955  0.0060  0.0629  0.7467
  840MOL0     H13334   4.689   4.304   2.804  0.6597 -0.3739  0.4023
  840MOL0     H13335   4.763   4.504   2.720  0.0297  1.3155  0.2915
  840MOL0     H13336   4.885   4.619   2.716 -0.4709 -0.3967 -2.4283
  840MOL0     H13337   4.929   4.339   2.596  1.6891  0.4471 -0.3157
  840MOL0     H13338   5.036   4.478   2.573 -0.6684  2.9718  0.4128
  840MOL0     H13339   4.906   4.491   2.372  0.2851  0.6279  0.5382
  840MOL0     H13340   4.804   4.592   2.469  0.9256 -0.1021  1.0717
  840MOL0     H13341   4.736   4.302   2.405  0.3477  0.3677 -1.0387
  840MOL0     H13342   4.669   4.391   2.539  0.3570  3.2477  0.3883
  840MOL0     H13343   4.614   4.579   2.360  1.3037  0.8376  0.6723
  840MOL0     H13344   4.683   4.465   2.242 -0.4300 -1.5157 -0.8724
  840MOL0     H13345   4.455   4.442   2.213 -4.2639 -0.2465  1.1334
  840MOL0     H13346   4.522   4.302   2.309  0.4451  0.2545  1.9269
  840MOL0     H13347   4.385   4.550   2.431  1.1491  0.0690 -2.0882
  840MOL0     H13348   4.459   4.407   2.509  1.8279 -0.3081 -0.4894
  840MOL0     H13349   4.233   4.372   2.301 -1.0440  1.6888  0.9274
  840MOL0     H13350   4.291   4.257   2.419  0.5556 -1.0088 -2.3408
  840MOL0     H13351   4.077   4.206   2.586  2.4966 -0.7481  2.9103
  840MOL0     H13352   3.879   4.264   2.761 -3.3073 -0.9386  0.2780
  840MOL0     H13353   3.870   4.423   2.808 -2.6888 -4.2826  1.9599
  840MOL0     H13354   3.642   4.393   2.723 -2.2909 -1.8231 -3.5144
  840MOL0     H13355   3.723   4.465   2.583 -1.1681  2.9103  1.9315
  840MOL0     H13356   3.652   4.170   2.636 -0.1426 -0.2499 -0.8736
  840MOL0     H13357   3.776   4.216   2.518  0.6968  3.3976 -2.0732
  840MOL0     H13358   3.475   4.265   2.533  0.7798  1.6714  1.9888
  840MOL0     H13359   3.556   4.170   2.426 -0.0440  0.2390  0.9186
  840MOL0     H13360   3.551   4.183   2.224 -1.7257  0.5086  1.1620
  840MOL0     H13361   3.490   4.191   1.992 -1.8141 -1.5445  1.7302
  840MOL0     H13362   3.236   4.625   1.651  1.1218 -0.1600  0.5666
  840MOL0     H13363   3.213   4.667   1.410  0.8215  0.8013 -0.0562
  840MOL0     H13364   3.230   4.577   1.079 -2.5280  1.2689 -0.4511
  840MOL0     H13365   3.160   4.611   1.229 -0.5562 -0.6687 -1.0995
  840MOL0     H13366   3.195   4.836   1.125  0.0228 -0.7665  1.4125
  840MOL0     H13367   3.334   4.831   1.224 -3.8051 -1.5249  3.7141
  840MOL0     H13368   3.483   4.786   1.034  1.7209 -0.8226 -3.8831
  840MOL0     H13369   3.365   4.680   0.957  0.1966 -1.3058 -0.1866
  840MOL0     H13370   3.329   4.976   0.954  2.6882  0.1493 -0.2197
  840MOL0     H13371   3.247   4.844   0.858  2.0379 -1.8739 -2.5321
  840MOL0     H13372   3.537   4.875   0.826  0.4372 -1.1184 -0.4879
  840MOL0     H13373   3.458   5.000   0.749 -0.9432 -0.8854 -1.7727
  840MOL0     H13374   3.440   4.697   0.706  1.7902 -0.2128  0.4794
  840MOL0     H13375   3.303   4.803   0.642  1.2207  6.6791 -3.2752
  840MOL0     H13376   3.599   4.815   0.560 -0.0896 -2.3276 -3.4497
  840MOL0     H13377   3.469   4.922   0.502  4.3357  2.1111  0.8389
  840MOL0     H13378   3.524   4.763   0.338  1.4487  0.3479  1.7237
  840MOL0     H13379   3.475   4.627   0.446  1.3187 -0.2654  0.5119
  840MOL0     H13380   3.596   4.480   1.351  0.6532 -1.0479  0.6980
  840MOL0     H13381   3.633   4.476   1.584  0.4514 -2.3743 -0.8075
  840MOL0     H13382   3.509   4.621   2.011  3.9903 -2.0542 -4.9493
  840MOL0     H13383   3.531   4.601   2.268  1.7966  0.1771  0.0669
  840MOL0     H13384   5.046   4.376   3.046 -1.8650  1.2544  1.6193
  840MOL0     H13385   4.984   4.160   3.169  1.3136 -2.2717 -1.9287
  840MOL0     H13386   4.737   3.961   3.368  1.8756 -0.1431  3.1272
  840MOL0     H13387   4.641   3.787   3.517  0.5670  1.2031 -0.2726
  840MOL0     H13388   4.521   3.588   3.648  0.5389  0.6595 -1.4103
  840MOL0     H13389   4.704   3.583   3.671  2.0459 -0.9156 -0.8838
  840MOL0     H13390   4.544   3.352   3.585 -1.6444  0.9259  1.6684
  840MOL0     H13391   4.548   3.386   3.764  1.6339 -1.1703  0.1393
  840MOL0     H13392   4.796   3.384   3.753  1.4757  1.0988 -1.5835
  840MOL0     H13393   4.787   3.364   3.582 -0.0506  1.1080  0.1231
  840MOL0     H13394   4.714   3.126   3.621  1.2309  1.9490 -1.2616
  840MOL0     H13395   4.866   3.166   3.699  1.2172 -1.9764  1.5114
  840MOL0     H13396   4.652   3.067   4.051  1.7732 -2.0695 -1.0261
  840MOL0     H13397   4.796   3.482   3.276 -1.6797  0.0273  0.1037
  840MOL0     H13398   5.021   3.641   3.097 -0.4429 -0.6545  0.4870
  840MOL0     H13399   4.884   3.515   3.076 -0.8347  0.0682  0.3061
  840MOL0     H13400   4.875   3.683   3.015 -2.7938  0.8351  0.9182
  841MOL0     O13401   9.143   0.334  10.456  0.0695  0.4955  0.3265
  841MOL0     C13402   9.089   0.377  10.352 -0.8918 -0.6427  0.6221
  841MOL0     O13403   8.987   0.461  10.346  0.5652 -0.3479  0.3196
  841MOL0     C13404   8.922   0.521  10.453  0.2655 -1.0197 -0.2100
  841MOL0     C13405   8.942   0.515  10.597  0.3063  0.2717  0.1751
  841MOL0     C13406   8.875   0.593  10.687  0.9567 -1.1258  0.6543
  841MOL0     C13407   8.770   0.683  10.647 -0.3072  0.0376 -0.5862
  841MOL0     O13408   8.693   0.739  10.752  0.0563  0.3143  0.2312
  841MOL0     C13409   8.560   0.794  10.747 -1.2365 -0.3831  0.4497
  841MOL0     C13410   8.471   0.737  10.850 -0.6863 -0.5090 -0.2917
  841MOL0     C13411   8.361   0.836  10.893 -0.3266  0.3072  0.7157
  841MOL0     C13412   8.271   0.766  10.995 -0.1832 -0.2706 -0.8377
  841MOL0     C13413   8.168   0.862  11.070 -0.7701  0.7264 -0.1677
  841MOL0     C13414   8.226   0.977  11.145  0.4284 -0.7032 -0.3134
  841MOL0     C13415   8.337   0.953  11.250 -0.7299 -0.2895 -0.1865
  841MOL0     C13416   8.416   1.081  11.267 -0.0023 -0.0899 -0.8394
  841MOL0     N13417   8.513   1.105  11.153 -0.1946  0.7772 -1.1723
  841MOL0     C13418   8.636   1.050  11.132 -0.4013  0.1421 -0.6885
  841MOL0     C13419   8.685   1.113  11.021  0.6985  0.2849  0.7570
  841MOL0     C13420   8.826   1.093  10.963  1.1636  0.3772 -0.2555
  841MOL0     C13421   8.900   1.229  10.962  0.0734  0.7616  0.3795
  841MOL0     C13422   9.045   1.207  10.910 -0.2816 -0.0631 -0.5879
  841MOL0     C13423   9.146   1.325  10.918 -0.4248 -0.5045  1.8742
  841MOL0     O13424   9.286   1.287  10.892  0.1102  0.1036  0.1365
  841MOL0     C13425   9.328   1.238  10.775 -0.5347 -0.3172  0.4621
  841MOL0     C13426   9.260   1.272  10.661 -0.4311  0.3537  0.3629
  841MOL0     C13427   9.314   1.236  10.536  0.6143  0.6315  0.0797
  841MOL0     C13428   9.436   1.163  10.534 -0.2944  0.1061  0.2020
  841MOL0     C13429   9.485   1.116  10.399 -1.4773  0.4436  0.0118
  841MOL0     O13430   9.570   1.000  10.401 -0.8493 -0.7387 -0.6189
  841MOL0     C13431   9.590   0.927  10.284  0.0162  0.8263 -0.3464
  841MOL0     C13432   9.476   0.895  10.207 -0.1672 -0.3463  0.0550
  841MOL0     C13433   9.506   0.814  10.098  0.2944 -0.1739  0.6266
  841MOL0     C13434   9.634   0.775  10.055 -0.5892  0.3964  0.3233
  841MOL0     O13435   9.639   0.697   9.939  0.4551  0.6426 -0.7354
  841MOL0     C13436   9.751   0.610   9.921 -1.2583 -0.7558  0.0775
  841MOL0     C13437   9.736   0.551   9.783 -0.3212 -0.0440 -0.0689
  841MOL0     C13438   9.862   0.473   9.741 -0.7653  0.0334  0.6564
  841MOL0     C13439  10.005   0.519   9.761  0.1851 -0.1556  0.1128
  841MOL0     C13440  10.113   0.436   9.711  0.1670  0.0299  0.8570
  841MOL0     C13441  10.112   0.303   9.788  0.2809  0.0851 -0.8968
  841MOL0     C13442  10.230   0.212   9.735 -0.6799 -0.1116  0.4050
  841MOL0     C13443  10.211   0.073   9.795 -0.2865  0.3325 -0.8792
  841MOL0    Cl13444  10.069  -0.009   9.723 -0.2716  0.1023 -0.0328
  841MOL0     C13445   9.739   0.802  10.141  0.9247  0.2047 -0.9005
  841MOL0     C13446   9.720   0.891  10.242 -0.6654 -0.3112 -0.4600
  841MOL0     O13447   9.456   1.178  10.299 -0.5101  0.7673  0.4890
  841MOL0     C13448   9.503   1.124  10.650  0.5966 -0.7752 -0.3049
  841MOL0     C13449   9.444   1.160  10.766  0.3101 -0.4484 -0.3046
  841MOL0     N13450   8.593   1.205  10.975  0.5944  0.9260 -0.7457
  841MOL0     N13451   8.491   1.197  11.054  0.5858  0.0717  0.0877
  841MOL0     C13452   8.751   0.694  10.507  0.4045  1.0321 -0.3755
  841MOL0     C13453   8.823   0.616  10.413  0.1481 -0.8291  0.2615
  841MOL0     C13454   9.148   0.334  10.226  1.0417 -0.6955  0.6605
  841MOL0     C13455   9.071   0.252  10.144  0.1384  0.3526 -0.7090
  841MOL0     C13456   9.119   0.230  10.017  0.0067  0.9743  0.2545
  841MOL0     C13457   9.238   0.288   9.966  0.4490  0.4629  0.3939
  841MOL0     O13458   9.262   0.254   9.838  0.3031  0.6288  0.0712
  841MOL0     C13459   9.389   0.301   9.767  0.6691 -0.1892 -0.7078
  841MOL0     C13460   9.407   0.230   9.638  1.3018 -0.3620  0.1708
  841MOL0     C13461   9.525   0.290   9.558 -0.1840 -0.0874  0.4127
  841MOL0     C13462   9.633   0.177   9.511  0.5163 -0.4316 -0.1446
  841MOL0     C13463   9.705   0.122   9.627 -0.2893  0.6003  0.9421
  841MOL0     C13464   9.769   0.074   9.716  0.9842  0.0688  0.2976
  841MOL0     C13465   9.307   0.383  10.046 -0.0576  1.7619 -0.4401
  841MOL0     C13466   9.272   0.397  10.179 -0.3571 -0.3974 -0.1189
  841MOL0     C13467   9.348   0.491  10.257  0.1581 -0.6915  0.5613
  841MOL0     H13468   9.002   0.436  10.641 -2.6109 -1.0748  2.1109
  841MOL0     H13469   8.880   0.580  10.795 -0.6425  2.0525  1.2325
  841MOL0     H13470   8.585   0.901  10.749 -3.7609  0.2460  1.5426
  841MOL0     H13471   8.518   0.778  10.647  1.3342 -0.3163 -0.7149
  841MOL0     H13472   8.531   0.709  10.937  0.3831  2.3321 -0.0053
  841MOL0     H13473   8.423   0.651  10.803 -2.7838  1.7060 -2.4973
  841MOL0     H13474   8.291   0.862  10.813 -0.0153 -0.3264  0.2290
  841MOL0     H13475   8.417   0.919  10.938 -2.7087  0.6611  3.2697
  841MOL0     H13476   8.220   0.683  10.946  0.0941 -1.3403  0.6402
  841MOL0     H13477   8.333   0.715  11.069 -1.7209 -1.5820 -0.4097
  841MOL0     H13478   8.100   0.894  10.990 -1.5042  0.5479  0.3776
  841MOL0     H13479   8.104   0.801  11.133 -0.2028 -1.5049 -1.6288
  841MOL0     H13480   8.252   1.057  11.075 -1.2911  4.2918  4.0920
  841MOL0     H13481   8.143   1.010  11.208  0.3482 -1.2000 -0.1565
  841MOL0     H13482   8.413   0.879  11.221 -2.1489 -1.8589 -0.0984
  841MOL0     H13483   8.299   0.917  11.347  3.7635 -2.7052  0.9818
  841MOL0     H13484   8.349   1.165  11.290 -0.8300 -1.0277  0.3274
  841MOL0     H13485   8.470   1.067  11.361  0.0719 -0.2773 -0.9100
  841MOL0     H13486   8.692   0.969  11.178  0.0257 -0.4792 -2.2282
  841MOL0     H13487   8.881   1.023  11.026 -1.0337  1.0899  2.6842
  841MOL0     H13488   8.803   1.048  10.866 -2.5921  0.4723  0.4590
  841MOL0     H13489   8.857   1.293  10.884  1.4112  0.7541 -0.3932
  841MOL0     H13490   8.899   1.273  11.062 -1.2991  1.4545  0.0826
  841MOL0     H13491   9.033   1.168  10.808 -3.4563  1.6796 -1.0197
  841MOL0     H13492   9.088   1.132  10.977 -0.0482  1.8373  1.4928
  841MOL0     H13493   9.147   1.377  11.014  3.2265  3.9870 -0.2111
  841MOL0     H13494   9.120   1.399  10.841  2.3440 -2.1783 -0.9215
  841MOL0     H13495   9.159   1.311  10.669  0.3481  2.6200  0.0336
  841MOL0     H13496   9.274   1.252  10.436  3.1422 -1.3819 -1.3839
  841MOL0     H13497   9.374   0.915  10.238  0.2702  0.4607  1.0451
  841MOL0     H13498   9.418   0.781  10.045 -0.4682  1.4478  0.8055
  841MOL0     H13499   9.837   0.677   9.931 -0.5472 -1.8033  1.1612
  841MOL0     H13500   9.763   0.543  10.007 -0.7896  2.7094  2.9723
  841MOL0     H13501   9.650   0.483   9.771  0.3078 -0.3250 -4.4893
  841MOL0     H13502   9.707   0.628   9.711 -0.9004 -0.5406 -0.3774
  841MOL0     H13503   9.848   0.371   9.779 -3.0651 -0.9897 -2.5572
  841MOL0     H13504   9.859   0.465   9.632 -1.0531  0.9089  0.5916
  841MOL0     H13505  10.010   0.518   9.870 -1.3208  0.1345  0.2055
  841MOL0     H13506  10.002   0.620   9.720 -2.9933 -0.6454 -1.1392
  841MOL0     H13507  10.207   0.489   9.732 -0.8184  2.4426 -0.3809
  841MOL0     H13508  10.102   0.419   9.603  0.8364 -1.6742  1.0279
  841MOL0     H13509  10.110   0.307   9.897 -0.0974 -2.9522 -0.6879
  841MOL0     H13510  10.026   0.242   9.759 -1.2351  0.5784  2.1949
  841MOL0     H13511  10.327   0.246   9.773 -1.0987 -0.3923  1.7950
  841MOL0     H13512  10.227   0.204   9.626 -1.8627  3.2696  0.0618
  841MOL0     H13513  10.301   0.013   9.783 -0.3237  0.0853 -0.0407
  841MOL0     H13514  10.193   0.075   9.903  0.9352 -3.1977 -0.4735
  841MOL0     H13515   9.828   0.740  10.140 -0.3628 -1.8830  1.6222
  841MOL0     H13516   9.812   0.901  10.299 -1.2151 -0.0536  0.4027
  841MOL0     H13517   9.589   1.059  10.652 -0.4066 -2.1259  1.6137
  841MOL0     H13518   9.507   1.130  10.849  5.3335  3.0572 -2.3091
  841MOL0     H13519   8.667   0.749  10.467  1.3132  2.7510 -0.0127
  841MOL0     H13520   8.800   0.623  10.307 -0.6583 -2.3756  0.3028
  841MOL0     H13521   8.978   0.208  10.180  0.9918 -0.8716  0.0598
  841MOL0     H13522   9.061   0.180   9.941  1.3615 -0.1607 -0.0792
  841MOL0     H13523   9.486   0.296   9.817  1.9558  2.3941 -2.7176
  841MOL0     H13524   9.382   0.410   9.759  2.4490  0.2753  2.3418
  841MOL0     H13525   9.321   0.239   9.571  1.1073 -2.6461  0.0603
  841MOL0     H13526   9.424   0.125   9.660  3.8991 -0.5602 -2.1849
  841MOL0     H13527   9.579   0.368   9.612  0.0352  0.7580 -0.9827
  841MOL0     H13528   9.493   0.341   9.467  2.3853 -1.3511 -1.3075
  841MOL0     H13529   9.585   0.102   9.447 -2.2043  0.8831  0.2094
  841MOL0     H13530   9.702   0.236   9.449 -0.9051 -0.3755 -1.7476
  841MOL0     H13531   9.822   0.033   9.799 -2.6040 -4.8884  0.5669
  841MOL0     H13532   9.400   0.414  10.001 -1.0290  0.2385 -3.7788
  841MOL0     H13533   9.342   0.460  10.362  1.5798 -2.3277  0.2032
  841MOL0     H13534   9.450   0.495  10.217 -0.6702  1.2041 -1.5908
  841MOL0     H13535   9.320   0.594  10.231  1.3166 -0.0151  1.7962
  842MOL0     O13536   2.877   4.223   1.030 -0.9667  0.3852 -1.0824
  842MOL0     C13537   2.991   4.239   1.083  0.0862 -1.1540  1.1456
  842MOL0     O13538   3.072   4.345   1.049 -0.3207 -0.0070  0.3607
  842MOL0     C13539   3.027   4.443   0.968 -0.8175 -0.3848 -0.0082
  842MOL0     C13540   3.114   4.471   0.863 -0.2139  0.1236 -0.7885
  842MOL0     C13541   3.084   4.576   0.770 -0.1403 -0.6899 -0.1784
  842MOL0     C13542   2.957   4.635   0.766  0.2659 -0.2829 -0.7530
  842MOL0     O13543   2.923   4.713   0.658  0.5526 -0.4151 -0.0835
  842MOL0     C13544   2.987   4.848   0.649  0.1412  1.0290 -0.2301
  842MOL0     C13545   2.898   4.941   0.580  0.0356 -0.3575 -0.0362
  842MOL0     C13546   2.753   4.949   0.639 -0.1506 -0.0455  0.1207
  842MOL0     C13547   2.776   5.007   0.786 -0.2775  0.5791 -1.2366
  842MOL0     C13548   2.640   5.031   0.856 -0.2575 -0.1972 -0.5896
  842MOL0     C13549   2.658   5.102   0.996 -0.6203  1.3087 -0.1438
  842MOL0     C13550   2.523   5.111   1.073  0.7216  0.5075 -0.1155
  842MOL0     C13551   2.414   5.188   0.995 -0.3902  0.9618 -0.6414
  842MOL0     N13552   2.438   5.333   0.995  0.2036 -0.7802 -0.0728
  842MOL0     C13553   2.436   5.417   1.106  0.3023  0.9993  0.5261
  842MOL0     C13554   2.486   5.531   1.077  0.9286 -0.2224  0.7571
  842MOL0     C13555   2.463   5.656   1.147  0.1225 -0.8700  0.1151
  842MOL0     C13556   2.593   5.740   1.163  0.2635  0.3511 -0.2431
  842MOL0     C13557   2.607   5.847   1.050  0.5300 -0.3147  0.6251
  842MOL0     C13558   2.739   5.928   1.042 -0.2825 -1.0985 -0.0126
  842MOL0     O13559   2.742   6.006   0.916  0.2390 -0.1741 -0.1305
  842MOL0     C13560   2.817   6.117   0.898  0.2485 -0.1170 -0.5973
  842MOL0     C13561   2.773   6.213   0.805 -0.5553 -0.4158 -0.1091
  842MOL0     C13562   2.851   6.318   0.766  0.3378  1.3551 -0.4322
  842MOL0     C13563   2.977   6.338   0.821  0.1463 -0.7841 -0.1871
  842MOL0     C13564   3.053   6.464   0.802  0.1959 -0.3345  0.3094
  842MOL0     O13565   2.997   6.556   0.718 -0.4143 -0.0787 -0.3372
  842MOL0     C13566   3.058   6.682   0.727  0.3500  0.9563  0.7110
  842MOL0     C13567   3.189   6.681   0.669  0.1959 -0.2711  0.1332
  842MOL0     C13568   3.255   6.805   0.656  0.2563  0.6402  0.2586
  842MOL0     C13569   3.196   6.915   0.724 -0.4414 -0.8299  0.7269
  842MOL0     O13570   3.256   7.040   0.733  0.4055 -0.1866 -0.4490
  842MOL0     C13571   3.352   7.068   0.628 -0.1274 -0.3659  0.5574
  842MOL0     C13572   3.417   7.203   0.653 -0.4782 -0.5582 -0.6255
  842MOL0     C13573   3.513   7.257   0.542 -0.6104  0.5676  0.3888
  842MOL0     C13574   3.604   7.373   0.580 -0.5304  0.0358  0.1587
  842MOL0     C13575   3.723   7.387   0.484 -0.8574 -0.6776  0.1725
  842MOL0     C13576   3.677   7.436   0.349 -0.8386  0.8449 -0.4049
  842MOL0     C13577   3.778   7.496   0.249 -0.2764 -0.0366 -0.6107
  842MOL0     C13578   3.892   7.395   0.218 -0.1779 -0.4787 -1.2114
  842MOL0    Cl13579   3.821   7.241   0.168 -0.2814  0.2418  0.8490
  842MOL0     C13580   3.077   6.903   0.785  0.7606  0.2173  0.0642
  842MOL0     C13581   3.005   6.785   0.805 -0.5844 -0.6614  0.4876
  842MOL0     O13582   3.159   6.477   0.867 -0.6925  0.0073  0.2911
  842MOL0     C13583   3.020   6.237   0.919 -0.6825 -0.2188  0.5246
  842MOL0     C13584   2.943   6.128   0.958 -0.7745  0.2361 -0.0089
  842MOL0     N13585   2.503   5.531   0.940  0.1350 -0.0037  1.2427
  842MOL0     N13586   2.470   5.408   0.892  0.5540 -0.8120 -0.1355
  842MOL0     C13587   2.864   4.602   0.868  0.7051  0.0367 -0.0668
  842MOL0     C13588   2.897   4.498   0.956 -0.2526  0.0263 -1.3013
  842MOL0     C13589   3.057   4.142   1.169  0.7400  0.0679  0.9986
  842MOL0     C13590   3.190   4.173   1.219  0.7330  0.4609 -0.0657
  842MOL0     C13591   3.245   4.090   1.320  0.4416 -0.7638 -0.1625
  842MOL0     C13592   3.176   3.980   1.371  0.2113  0.9689 -0.1340
  842MOL0     O13593   3.210   3.907   1.487  0.2847  0.2857  0.4222
  842MOL0     C13594   3.301   3.961   1.580  0.3768 -0.3536 -1.0743
  842MOL0     C13595   3.235   3.941   1.714 -0.3103  0.3264 -0.1081
  842MOL0     C13596   3.337   3.982   1.820 -1.0373 -0.5685 -0.1228
  842MOL0     C13597   3.284   3.940   1.957 -0.6002 -0.2201  0.3039
  842MOL0     C13598   3.155   4.007   1.989 -0.0048  0.3215 -0.9907
  842MOL0     C13599   3.055   4.067   2.010  0.4468  0.3912  0.8214
  842MOL0     C13600   3.061   3.940   1.308 -0.1213 -0.4518 -0.4141
  842MOL0     C13601   3.001   4.015   1.202 -0.3198 -0.8538 -0.9143
  842MOL0     C13602   2.888   3.955   1.140 -0.3460 -0.1304 -0.1697
  842MOL0     H13603   3.211   4.423   0.861 -0.7372 -0.9907 -0.4535
  842MOL0     H13604   3.157   4.605   0.695  0.7840 -0.2512  0.8758
  842MOL0     H13605   3.026   4.870   0.749  3.0778 -2.4814 -0.3755
  842MOL0     H13606   3.085   4.835   0.601 -1.0985 -0.8466 -2.4768
  842MOL0     H13607   2.875   4.907   0.479  2.5066 -1.6449 -0.2228
  842MOL0     H13608   2.949   5.038   0.578  2.6323 -1.4584  3.3245
  842MOL0     H13609   2.705   4.851   0.653  1.9086 -0.8846  1.9515
  842MOL0     H13610   2.683   5.011   0.583 -1.3456 -2.1277 -0.8366
  842MOL0     H13611   2.847   4.954   0.851 -1.2830  1.1065  0.3404
  842MOL0     H13612   2.813   5.110   0.774 -0.1485  0.8021  0.7512
  842MOL0     H13613   2.579   5.097   0.795  0.3746  0.3742 -0.6207
  842MOL0     H13614   2.589   4.936   0.872  2.2483 -1.3375  1.4082
  842MOL0     H13615   2.714   5.035   1.062 -0.9242 -0.6002 -1.7319
  842MOL0     H13616   2.708   5.198   0.982 -1.1005  1.4726 -0.7932
  842MOL0     H13617   2.540   5.159   1.169  3.1918  0.5615 -0.5176
  842MOL0     H13618   2.491   5.008   1.094 -0.3175  0.1899 -2.8194
  842MOL0     H13619   2.400   5.136   0.900  0.5972 -0.4578 -0.0633
  842MOL0     H13620   2.313   5.167   1.031 -0.8957  0.1426 -2.4365
  842MOL0     H13621   2.400   5.385   1.203 -2.2452 -1.5394 -1.1231
  842MOL0     H13622   2.394   5.715   1.086 -1.4048  0.0549  2.5635
  842MOL0     H13623   2.414   5.641   1.244 -0.8049 -0.0968 -0.2181
  842MOL0     H13624   2.590   5.783   1.263 -2.2939  1.5601 -0.7603
  842MOL0     H13625   2.680   5.674   1.163  0.6806  0.8491  1.8462
  842MOL0     H13626   2.517   5.909   1.054  0.1465 -0.4318 -3.1127
  842MOL0     H13627   2.605   5.805   0.949  2.9927 -1.0160  0.7977
  842MOL0     H13628   2.827   5.864   1.029  0.3452  0.0575 -1.7472
  842MOL0     H13629   2.757   5.995   1.126  2.6672  0.6823 -1.8967
  842MOL0     H13630   2.673   6.193   0.766 -0.4494  0.4103 -0.8270
  842MOL0     H13631   2.807   6.390   0.698 -0.4548 -0.7682 -2.2716
  842MOL0     H13632   3.233   6.592   0.626  0.3104 -0.2808  0.2723
  842MOL0     H13633   3.350   6.802   0.602  0.4714  0.5349  0.6395
  842MOL0     H13634   3.428   6.990   0.634 -2.5952 -2.9759 -0.3437
  842MOL0     H13635   3.304   7.075   0.530  1.2577 -0.9927 -0.1915
  842MOL0     H13636   3.341   7.282   0.664 -0.6439 -0.7338 -0.5007
  842MOL0     H13637   3.469   7.192   0.749  2.6866  3.1523 -1.6414
  842MOL0     H13638   3.584   7.179   0.512  0.7817  2.3156 -1.1411
  842MOL0     H13639   3.449   7.268   0.453 -2.7253 -4.5075  0.9236
  842MOL0     H13640   3.640   7.352   0.682 -1.7390  2.4604  1.1653
  842MOL0     H13641   3.544   7.463   0.590  1.0195  1.5050 -2.6812
  842MOL0     H13642   3.785   7.297   0.478 -3.2917 -2.4795  0.6496
  842MOL0     H13643   3.791   7.455   0.537 -0.0721 -1.9215  0.8040
  842MOL0     H13644   3.629   7.344   0.314  0.5831 -0.7067  1.4340
  842MOL0     H13645   3.602   7.515   0.353 -1.2186  0.4582  2.8293
  842MOL0     H13646   3.824   7.586   0.289  1.3231 -0.7908 -0.6937
  842MOL0     H13647   3.724   7.531   0.160 -1.8784  1.6799  0.9536
  842MOL0     H13648   3.960   7.434   0.141  2.2879 -0.7551  0.7338
  842MOL0     H13649   3.951   7.381   0.309 -1.0343 -1.0601 -0.7333
  842MOL0     H13650   3.044   6.994   0.834 -0.5891  0.8024 -1.7929
  842MOL0     H13651   2.925   6.770   0.876 -0.4403  3.1586  1.6903
  842MOL0     H13652   3.119   6.250   0.961  0.2030  0.8851 -1.7366
  842MOL0     H13653   2.972   6.055   1.033  0.5053  1.9137  1.2032
  842MOL0     H13654   2.766   4.648   0.866  0.6208 -0.1432 -2.6354
  842MOL0     H13655   2.824   4.484   1.036  2.1586 -0.2166  0.9927
  842MOL0     H13656   3.252   4.256   1.187  1.5027  0.0128  0.2285
  842MOL0     H13657   3.334   4.124   1.374  0.3140  0.3726 -0.6371
  842MOL0     H13658   3.309   4.070   1.582 -0.6804 -0.2729  0.0132
  842MOL0     H13659   3.400   3.915   1.571  0.1988 -0.9073 -0.3361
  842MOL0     H13660   3.216   3.834   1.727  0.9502 -0.1999 -2.1058
  842MOL0     H13661   3.155   4.014   1.723  0.0874  0.6253  1.1612
  842MOL0     H13662   3.340   4.091   1.816  0.6600 -0.5697  0.3349
  842MOL0     H13663   3.430   3.931   1.794 -0.6468  0.2195 -0.3124
  842MOL0     H13664   3.274   3.831   1.957 -0.0288 -0.2814  1.2268
  842MOL0     H13665   3.353   3.958   2.040  0.7001 -0.1016 -0.7712
  842MOL0     H13666   2.961   4.116   2.028 -1.0312 -0.7664 -2.7507
  842MOL0     H13667   3.016   3.848   1.344  1.1031 -1.1046 -0.4933
  842MOL0     H13668   2.798   4.003   1.179  0.9839  2.1056  0.3160
  842MOL0     H13669   2.887   3.962   1.031  0.0845  1.7098 -0.0885
  842MOL0     H13670   2.869   3.852   1.174 -1.2821  0.1689  0.2506
  843MOL0     O13671   4.205   2.824   5.133  0.0508  0.2918 -0.3528
  843MOL0     C13672   4.146   2.933   5.129  0.2433  0.5012  1.0142
  843MOL0     O13673   4.047   2.966   5.219 -0.1120  1.0022  0.4662
  843MOL0     C13674   4.012   2.868   5.317 -0.2649 -0.6994  0.1570
  843MOL0     C13675   3.933   2.756   5.286 -0.1443 -0.2831  0.1057
  843MOL0     C13676   3.893   2.665   5.388 -0.7096  0.8025 -0.6807
  843MOL0     C13677   3.912   2.705   5.517  0.2910  0.5676 -0.9174
  843MOL0     O13678   3.863   2.611   5.608 -0.1607  0.1363 -0.0536
  843MOL0     C13679   3.890   2.642   5.745 -0.8317  0.6933 -0.0846
  843MOL0     C13680   3.797   2.550   5.822 -1.1128 -0.8495  0.3326
  843MOL0     C13681   3.767   2.414   5.751  0.5402  0.8757 -0.6997
  843MOL0     C13682   3.649   2.337   5.839 -0.3877 -0.8415 -0.2713
  843MOL0     C13683   3.563   2.238   5.755  0.2440  0.4587 -0.3035
  843MOL0     C13684   3.638   2.112   5.692 -1.0769 -0.1463  0.2943
  843MOL0     C13685   3.643   1.984   5.788  0.6397  0.6785 -0.5118
  843MOL0     C13686   3.754   1.891   5.730 -0.4489 -0.0864  0.3085
  843MOL0     N13687   3.720   1.834   5.606 -0.2127  0.3616  0.4423
  843MOL0     C13688   3.779   1.853   5.484 -0.5912 -0.1686 -0.1296
  843MOL0     C13689   3.722   1.763   5.402  0.2116  0.1089 -0.2606
  843MOL0     C13690   3.774   1.750   5.262 -0.5292  0.4285 -0.7445
  843MOL0     C13691   3.710   1.835   5.162 -1.1357  0.4769 -0.3406
  843MOL0     C13692   3.569   1.800   5.113  0.1561 -0.2871  0.1037
  843MOL0     C13693   3.460   1.911   5.142  1.0994 -0.3809 -0.4300
  843MOL0     O13694   3.436   1.912   5.284  0.5347 -0.0144  0.0361
  843MOL0     C13695   3.363   2.005   5.349  0.2518  0.0852 -0.4775
  843MOL0     C13696   3.295   2.109   5.266 -0.6639  0.2559  0.1194
  843MOL0     C13697   3.222   2.205   5.324 -0.8407  0.2487  0.5172
  843MOL0     C13698   3.210   2.205   5.469  0.0812  0.0512 -0.0816
  843MOL0     C13699   3.132   2.316   5.535 -0.0471 -0.0352 -0.7148
  843MOL0     O13700   3.097   2.414   5.449 -0.5523  0.2070 -0.0054
  843MOL0     C13701   3.049   2.531   5.505  1.1441  0.3315  0.3733
  843MOL0     C13702   3.141   2.617   5.567  0.0178 -0.1492 -0.7652
  843MOL0     C13703   3.091   2.738   5.626  0.1868  0.1517  0.1439
  843MOL0     C13704   2.957   2.769   5.627  0.8515 -0.8201 -0.6266
  843MOL0     O13705   2.904   2.882   5.690  1.1746 -0.0101  0.0997
  843MOL0     C13706   2.971   2.958   5.796  0.4777  1.1341  0.5162
  843MOL0     C13707   2.884   3.036   5.899 -0.0276  0.8091 -0.0315
  843MOL0     C13708   2.805   3.159   5.839 -0.2167 -0.3866  0.0027
  843MOL0     C13709   2.707   3.198   5.944 -0.6147  1.0091  0.4341
  843MOL0     C13710   2.628   3.324   5.920 -0.4996 -0.2388 -0.3613
  843MOL0     C13711   2.569   3.380   6.046 -0.1673 -0.3220  0.6990
  843MOL0     C13712   2.470   3.290   6.126  0.1227  0.2043  0.6030
  843MOL0     C13713   2.333   3.310   6.067  1.4659 -0.0908  0.9348
  843MOL0    Cl13714   2.302   3.215   5.916 -0.1340 -0.1112 -0.0366
  843MOL0     C13715   2.868   2.684   5.568 -0.0387  0.4021 -0.8866
  843MOL0     C13716   2.915   2.567   5.510  0.6879 -0.5992  0.1502
  843MOL0     O13717   3.103   2.307   5.656 -0.6368 -0.2406  0.1434
  843MOL0     C13718   3.263   2.108   5.548 -0.1653  0.0326  0.3793
  843MOL0     C13719   3.342   2.004   5.487  0.2119 -0.2981  0.1881
  843MOL0     N13720   3.640   1.683   5.484 -0.0405  0.2843 -0.6568
  843MOL0     N13721   3.645   1.724   5.606  0.5036 -0.0276  0.3951
  843MOL0     C13722   3.981   2.824   5.550 -0.8119 -0.3301  0.4329
  843MOL0     C13723   4.034   2.905   5.445 -0.1648  0.0236 -0.3239
  843MOL0     C13724   4.172   3.032   5.026  0.4599  0.6954  0.7288
  843MOL0     C13725   4.225   2.989   4.898 -0.2696 -0.0738 -0.3339
  843MOL0     C13726   4.253   3.074   4.801 -0.5207  0.0935  0.8900
  843MOL0     C13727   4.237   3.212   4.820 -0.3473  0.0097 -0.5486
  843MOL0     O13728   4.249   3.296   4.718  0.1585  0.4335  0.4962
  843MOL0     C13729   4.305   3.428   4.743 -0.0639 -0.6233 -0.2574
  843MOL0     C13730   4.362   3.512   4.623 -0.1090 -0.1367  0.0228
  843MOL0     C13731   4.262   3.517   4.495  0.4073 -0.2572 -0.7523
  843MOL0     C13732   4.326   3.619   4.396 -0.1270  0.3082  0.0360
  843MOL0     C13733   4.227   3.663   4.290  0.5206 -0.3192 -0.2910
  843MOL0     C13734   4.156   3.682   4.189 -0.0498 -0.0997  0.4601
  843MOL0     C13735   4.185   3.253   4.947  0.0680  0.2292 -0.1833
  843MOL0     C13736   4.155   3.167   5.050 -0.2195 -0.1598  0.0729
  843MOL0     C13737   4.084   3.232   5.164 -0.2246 -1.2185  0.6329
  843MOL0     H13738   3.912   2.728   5.183 -1.3513 -1.8715  0.7415
  843MOL0     H13739   3.856   2.565   5.370 -0.4949  0.8002 -1.1139
  843MOL0     H13740   3.995   2.638   5.773 -0.5299  2.0587 -0.9106
  843MOL0     H13741   3.861   2.743   5.773  1.0242  1.2420 -0.0588
  843MOL0     H13742   3.704   2.601   5.848 -2.2735 -1.4642 -2.2996
  843MOL0     H13743   3.861   2.530   5.909  0.3015  1.4978 -0.0766
  843MOL0     H13744   3.858   2.354   5.761 -0.5519 -0.5094  1.8355
  843MOL0     H13745   3.737   2.416   5.646  0.3064 -3.9468 -0.9350
  843MOL0     H13746   3.693   2.274   5.917 -0.8689 -1.6051 -0.5973
  843MOL0     H13747   3.578   2.405   5.886 -1.9146 -3.6251  1.7472
  843MOL0     H13748   3.476   2.203   5.812 -2.5906  4.6656 -1.5544
  843MOL0     H13749   3.516   2.294   5.674 -1.0331  2.1537  1.5037
  843MOL0     H13750   3.585   2.092   5.598 -0.9690  0.7380  0.0286
  843MOL0     H13751   3.741   2.134   5.662 -0.0760  1.5981  4.2844
  843MOL0     H13752   3.549   1.932   5.808  1.8607 -1.9708 -1.1789
  843MOL0     H13753   3.680   2.020   5.885  1.4198 -1.3503 -0.0053
  843MOL0     H13754   3.850   1.943   5.727  0.1079 -1.0553 -3.1209
  843MOL0     H13755   3.760   1.814   5.807 -0.9389 -0.9639 -0.5113
  843MOL0     H13756   3.858   1.923   5.459  0.2767  0.2938  3.3894
  843MOL0     H13757   3.882   1.763   5.262 -0.2178 -1.6613  0.7835
  843MOL0     H13758   3.748   1.647   5.238 -1.1775  0.9724 -2.5274
  843MOL0     H13759   3.698   1.933   5.209 -0.2336 -1.2573  3.9742
  843MOL0     H13760   3.777   1.847   5.076 -0.4054 -2.7134 -0.3333
  843MOL0     H13761   3.532   1.712   5.166 -2.3577  2.5368  3.5460
  843MOL0     H13762   3.566   1.789   5.005 -1.0830 -0.4495  0.1405
  843MOL0     H13763   3.370   1.871   5.094 -2.5073  1.3750  4.1040
  843MOL0     H13764   3.499   2.000   5.092 -2.1460  0.6780 -1.2956
  843MOL0     H13765   3.293   2.104   5.158  2.1786 -3.0006  0.0457
  843MOL0     H13766   3.174   2.279   5.262 -0.6059 -2.5107 -3.3005
  843MOL0     H13767   3.246   2.591   5.576 -0.2513 -0.4911  3.4288
  843MOL0     H13768   3.164   2.801   5.676 -1.1238  1.8191  0.0649
  843MOL0     H13769   3.033   2.880   5.841 -0.0963  0.0038 -0.6230
  843MOL0     H13770   3.036   3.032   5.747  0.2348 -0.5171 -2.4932
  843MOL0     H13771   2.803   2.972   5.936 -0.2642  1.8425  1.3266
  843MOL0     H13772   2.944   3.080   5.979 -0.4300 -0.6690  1.1162
  843MOL0     H13773   2.870   3.241   5.807 -2.8138  0.8027 -2.7846
  843MOL0     H13774   2.742   3.134   5.753 -0.0707 -0.3851 -0.1068
  843MOL0     H13775   2.762   3.196   6.039  1.8549 -1.2911 -0.9249
  843MOL0     H13776   2.629   3.121   5.948 -0.7871  1.1668  0.1170
  843MOL0     H13777   2.558   3.295   5.841  0.1866 -4.3515  0.3380
  843MOL0     H13778   2.691   3.409   5.889 -1.6298  2.3873  3.7661
  843MOL0     H13779   2.654   3.404   6.111  0.5138 -1.5124  0.2877
  843MOL0     H13780   2.529   3.477   6.016  1.8572  0.1842 -0.6328
  843MOL0     H13781   2.471   3.311   6.233  0.4589 -1.3580  0.9309
  843MOL0     H13782   2.498   3.184   6.121 -3.0347 -0.7185 -0.0237
  843MOL0     H13783   2.263   3.288   6.148  1.0457  1.5820  1.0594
  843MOL0     H13784   2.314   3.415   6.046 -0.7828 -0.6337  0.0103
  843MOL0     H13785   2.765   2.716   5.554  0.3186  1.3795 -1.3532
  843MOL0     H13786   2.850   2.493   5.467 -0.7136  0.4031  0.4740
  843MOL0     H13787   3.239   2.122   5.653 -3.2574  1.0846 -0.3630
  843MOL0     H13788   3.385   1.921   5.543  1.4063 -0.6720 -1.2177
  843MOL0     H13789   3.987   2.857   5.654 -3.2858 -0.0496  0.5533
  843MOL0     H13790   4.087   2.996   5.472  3.2246 -1.5931 -0.9656
  843MOL0     H13791   4.243   2.883   4.886 -1.0843 -0.1836 -0.7069
  843MOL0     H13792   4.291   3.045   4.704 -1.1116  2.4459 -0.1187
  843MOL0     H13793   4.387   3.416   4.814  0.2180  1.9799 -0.0556
  843MOL0     H13794   4.226   3.488   4.790  1.1180  2.0635 -1.5090
  843MOL0     H13795   4.450   3.467   4.577  0.9932  0.9882  0.9498
  843MOL0     H13796   4.382   3.614   4.659 -1.6250  0.0464  0.4045
  843MOL0     H13797   4.166   3.556   4.531  0.9216  0.3300  0.0243
  843MOL0     H13798   4.248   3.421   4.445  2.1893 -1.7650  1.4379
  843MOL0     H13799   4.382   3.695   4.451  2.5228 -0.3923 -1.5304
  843MOL0     H13800   4.408   3.570   4.342  0.5630  1.1239  0.3237
  843MOL0     H13801   4.080   3.664   4.116  1.1419 -1.6042 -0.4560
  843MOL0     H13802   4.169   3.359   4.966 -0.4930 -0.0030  0.6773
  843MOL0     H13803   4.100   3.340   5.158  1.8743 -1.5528 -1.0381
  843MOL0     H13804   3.979   3.205   5.173 -1.1196  1.7897  0.5410
  843MOL0     H13805   4.121   3.195   5.260  0.1217  0.0895  1.0270
  844MOL0     O13806   7.508   5.813   5.679  0.2714  0.9702  0.1123
  844MOL0     C13807   7.569   5.919   5.695 -0.2033 -1.0019 -0.0717
  844MOL0     O13808   7.701   5.935   5.728 -0.5072 -0.8979  0.2517
  844MOL0     C13809   7.782   5.823   5.723  0.0445  0.0901 -0.4092
  844MOL0     C13810   7.810   5.736   5.827  0.3541  0.4445 -0.4012
  844MOL0     C13811   7.876   5.610   5.799  0.5959  1.0060 -0.2607
  844MOL0     C13812   7.936   5.584   5.670  0.0019 -0.2983  0.4476
  844MOL0     O13813   7.985   5.465   5.617  0.1399 -0.3124  1.1250
  844MOL0     C13814   8.050   5.383   5.719  0.3198 -0.1709  0.0991
  844MOL0     C13815   8.169   5.432   5.801 -0.4760  0.1128 -0.8490
  844MOL0     C13816   8.164   5.394   5.952  0.2017 -0.0318  0.1863
  844MOL0     C13817   8.261   5.464   6.044  0.5725  0.4732  0.1762
  844MOL0     C13818   8.272   5.399   6.182  0.4657  0.3159  0.0212
  844MOL0     C13819   8.143   5.383   6.261  0.0033 -0.9306  0.3788
  844MOL0     C13820   8.168   5.332   6.395  0.2782  0.9916 -0.4199
  844MOL0     C13821   8.043   5.268   6.469 -0.6306 -0.3554 -0.1724
  844MOL0     N13822   8.075   5.213   6.603 -0.1198  0.1073  0.0742
  844MOL0     C13823   8.016   5.272   6.711 -0.3303  1.2868  0.0144
  844MOL0     C13824   8.025   5.183   6.814  0.4168  0.0563 -0.1479
  844MOL0     C13825   7.964   5.189   6.954 -0.1917  0.1757  0.2031
  844MOL0     C13826   7.838   5.103   6.975 -0.0967  0.5387 -0.2762
  844MOL0     C13827   7.865   4.954   6.961  0.5453 -0.5374  0.4596
  844MOL0     C13828   7.784   4.846   7.033  0.1799  0.1055  0.6826
  844MOL0     O13829   7.645   4.850   6.988 -0.7879  0.5146 -0.7710
  844MOL0     C13830   7.553   4.877   7.079 -0.4686  0.4674 -1.0431
  844MOL0     C13831   7.432   4.901   7.026 -0.2640 -0.1557  0.0262
  844MOL0     C13832   7.322   4.943   7.105  0.2707  0.0790  0.8031
  844MOL0     C13833   7.342   4.941   7.248 -0.0099  0.4312 -0.3151
  844MOL0     C13834   7.228   4.954   7.346 -0.8204  0.4394  1.7851
  844MOL0     O13835   7.254   4.904   7.468 -0.1001 -0.0154 -0.3826
  844MOL0     C13836   7.164   4.888   7.561 -0.2683 -0.2912  0.0422
  844MOL0     C13837   7.236   4.858   7.678  0.0795  0.6286  0.2432
  844MOL0     C13838   7.169   4.861   7.800  0.7668 -0.5155 -0.6689
  844MOL0     C13839   7.034   4.905   7.811  1.3632 -0.0922  0.5162
  844MOL0     O13840   6.974   4.916   7.934  0.1834  0.2337 -0.4515
  844MOL0     C13841   6.842   4.877   7.958  0.0833 -0.1140  0.0990
  844MOL0     C13842   6.805   4.942   8.093 -0.3638 -1.1465  0.0464
  844MOL0     C13843   6.684   4.872   8.151  0.0091  0.4095 -0.7783
  844MOL0     C13844   6.551   4.928   8.098 -1.0197 -0.0992  0.3153
  844MOL0     C13845   6.431   4.834   8.123 -0.2768  0.0593 -0.4243
  844MOL0     C13846   6.404   4.738   8.004 -0.2835 -1.1623 -0.0177
  844MOL0     C13847   6.528   4.672   7.951 -0.6096  0.5854  0.6790
  844MOL0     C13848   6.518   4.587   7.826  0.3896  0.0262  0.3844
  844MOL0    Cl13849   6.433   4.429   7.860 -0.5061  0.2055 -0.0913
  844MOL0     C13850   6.955   4.937   7.697 -0.0571  0.2540  0.3532
  844MOL0     C13851   7.035   4.944   7.573  0.2885 -0.6046  0.4802
  844MOL0     O13852   7.130   5.023   7.302 -0.1842 -0.2326 -0.5636
  844MOL0     C13853   7.464   4.916   7.296  1.2190 -0.1214 -0.8724
  844MOL0     C13854   7.572   4.880   7.220  1.6678 -0.7890  0.0027
  844MOL0     N13855   8.100   5.075   6.768  0.5481  0.7220  0.7414
  844MOL0     N13856   8.136   5.097   6.644 -0.0041  0.1474 -0.2660
  844MOL0     C13857   7.918   5.680   5.574  0.3961 -0.2047  0.7827
  844MOL0     C13858   7.834   5.792   5.593 -0.0025 -0.1506  0.0394
  844MOL0     C13859   7.490   6.045   5.689 -0.9594  0.0583  0.4013
  844MOL0     C13860   7.565   6.162   5.671 -0.4076 -0.8150  1.3605
  844MOL0     C13861   7.510   6.286   5.635 -0.5133  0.1300  0.5335
  844MOL0     C13862   7.368   6.302   5.634  0.2632  0.5048 -0.0356
  844MOL0     O13863   7.320   6.423   5.624 -0.8772  0.1284 -0.1708
  844MOL0     C13864   7.357   6.521   5.725 -0.5849  0.2397 -0.5038
  844MOL0     C13865   7.239   6.564   5.812  0.6008  0.4511 -0.2000
  844MOL0     C13866   7.255   6.697   5.894  0.2081 -0.2958  0.0957
  844MOL0     C13867   7.390   6.703   5.976 -0.4495  0.3387 -0.1120
  844MOL0     C13868   7.506   6.752   5.902  0.2947 -0.2422  0.3062
  844MOL0     C13869   7.611   6.802   5.859 -0.1275  0.0122  0.3775
  844MOL0     C13870   7.291   6.186   5.665  0.0255 -0.9000  0.2128
  844MOL0     C13871   7.345   6.059   5.688  0.0518  0.3919 -0.5215
  844MOL0     C13872   7.257   5.948   5.741  0.4405  0.2516  0.2038
  844MOL0     H13873   7.763   5.755   5.923  1.7924 -1.8225  0.8462
  844MOL0     H13874   7.893   5.538   5.879 -1.6189 -1.0638 -1.5020
  844MOL0     H13875   7.976   5.333   5.782 -1.4991  0.7842 -1.2155
  844MOL0     H13876   8.083   5.303   5.652  0.3050 -0.1616  0.0807
  844MOL0     H13877   8.170   5.541   5.808  0.5748  0.0969 -0.6067
  844MOL0     H13878   8.264   5.405   5.754 -0.7538 -2.4723 -0.0776
  844MOL0     H13879   8.184   5.287   5.969 -0.6643  0.2488  3.6964
  844MOL0     H13880   8.064   5.409   5.993  0.0165 -0.6247 -0.0379
  844MOL0     H13881   8.363   5.482   6.008  1.7349 -0.3194  2.7851
  844MOL0     H13882   8.225   5.565   6.063  1.9895  0.9436  0.5124
  844MOL0     H13883   8.305   5.294   6.185 -2.3612 -0.6328  2.1855
  844MOL0     H13884   8.342   5.457   6.242  0.0909  0.5005  0.2790
  844MOL0     H13885   8.085   5.475   6.276  6.0025  3.2316  1.5975
  844MOL0     H13886   8.079   5.304   6.219 -0.2516 -1.5492  1.8716
  844MOL0     H13887   8.213   5.409   6.459 -3.4387  2.9339  0.1502
  844MOL0     H13888   8.245   5.256   6.382  0.9682  1.9205 -1.9421
  844MOL0     H13889   7.974   5.351   6.483  1.1119  1.4471 -1.6633
  844MOL0     H13890   8.002   5.184   6.412 -3.1528 -0.3054  1.4330
  844MOL0     H13891   7.974   5.372   6.717  1.5548  2.0851  1.1484
  844MOL0     H13892   8.046   5.155   7.017  0.0618  0.2451 -0.0868
  844MOL0     H13893   7.936   5.287   6.993 -0.5383  1.5808 -3.2400
  844MOL0     H13894   7.802   5.117   7.077 -0.5465 -0.1080 -0.3384
  844MOL0     H13895   7.756   5.140   6.912  0.5737  2.1863 -0.2282
  844MOL0     H13896   7.970   4.936   6.987 -0.2746 -1.5429  3.5061
  844MOL0     H13897   7.848   4.935   6.855 -1.1529 -2.8073  1.0532
  844MOL0     H13898   7.805   4.866   7.139  2.5714 -0.9381  0.4674
  844MOL0     H13899   7.828   4.746   7.023 -0.4656 -0.3110  1.7981
  844MOL0     H13900   7.409   4.897   6.920  0.9355 -3.3955 -0.2095
  844MOL0     H13901   7.233   4.981   7.055  1.8551  2.6236 -0.3052
  844MOL0     H13902   7.336   4.817   7.673 -0.1608  0.1650 -1.1881
  844MOL0     H13903   7.221   4.832   7.890 -1.4911 -0.7102  0.6438
  844MOL0     H13904   6.774   4.906   7.878  2.7126  1.7706 -1.6250
  844MOL0     H13905   6.849   4.768   7.971  0.1449 -0.1437 -0.1799
  844MOL0     H13906   6.889   4.932   8.162  0.4367 -0.7915 -0.8493
  844MOL0     H13907   6.767   5.045   8.092 -0.7209 -1.2465  1.3325
  844MOL0     H13908   6.695   4.763   8.151  0.9669  0.4416  1.7133
  844MOL0     H13909   6.683   4.913   8.252  1.4276  2.2868 -1.4769
  844MOL0     H13910   6.549   4.951   7.991  3.7676  0.1263  0.0824
  844MOL0     H13911   6.543   5.027   8.144  0.6599  1.0428 -1.6800
  844MOL0     H13912   6.344   4.898   8.144  0.8171  0.8411  2.1824
  844MOL0     H13913   6.454   4.782   8.217  1.9819  0.2669 -0.7973
  844MOL0     H13914   6.337   4.661   8.044 -1.7227  0.4883  0.8427
  844MOL0     H13915   6.352   4.797   7.929 -0.2352  1.6055  1.9647
  844MOL0     H13916   6.583   4.611   8.024 -1.8694  0.1471  1.2766
  844MOL0     H13917   6.586   4.758   7.916  2.1377 -0.7766  1.5117
  844MOL0     H13918   6.454   4.629   7.748 -2.0681 -2.2377  1.0821
  844MOL0     H13919   6.618   4.575   7.783 -0.7036  1.1516 -2.7567
  844MOL0     H13920   6.850   4.963   7.686 -0.5013 -2.3437 -4.5375
  844MOL0     H13921   6.981   4.982   7.487  0.4549 -1.1606  0.1231
  844MOL0     H13922   7.480   4.926   7.403 -3.8900  2.5170 -0.0274
  844MOL0     H13923   7.665   4.859   7.272  2.1615 -0.9136 -0.9050
  844MOL0     H13924   7.966   5.651   5.481  2.1341  0.4882  1.4265
  844MOL0     H13925   7.808   5.855   5.509 -3.0807 -0.9219  0.2729
  844MOL0     H13926   7.673   6.162   5.682 -0.2683 -2.0297  0.2717
  844MOL0     H13927   7.573   6.371   5.610  3.4947 -2.8886 -0.5069
  844MOL0     H13928   7.399   6.617   5.692  1.5228  1.0492  3.7645
  844MOL0     H13929   7.437   6.484   5.790 -1.1532  1.1795  0.7824
  844MOL0     H13930   7.211   6.482   5.879  1.9607  1.2405  1.3734
  844MOL0     H13931   7.155   6.572   5.742  1.1157  4.1401 -0.5526
  844MOL0     H13932   7.167   6.701   5.959 -0.3113 -1.4186 -0.4871
  844MOL0     H13933   7.251   6.785   5.830  0.1447 -1.5717 -1.7402
  844MOL0     H13934   7.381   6.764   6.067 -1.3368 -0.5526  0.4207
  844MOL0     H13935   7.421   6.604   6.010  0.3926  0.2606 -1.0629
  844MOL0     H13936   7.697   6.847   5.814 -1.4702 -0.7489 -3.2932
  844MOL0     H13937   7.183   6.195   5.672 -0.0378 -1.7795  0.5261
  844MOL0     H13938   7.306   5.893   5.821 -1.1811 -1.1596  0.2949
  844MOL0     H13939   7.171   5.993   5.791  0.1428 -0.7332  0.5958
  844MOL0     H13940   7.224   5.892   5.652 -0.5222  2.0649 -0.6414
  845MOL0     O13941   5.699   3.152  11.392  0.2466 -0.0650 -0.4731
  845MOL0     C13942   5.666   3.224  11.483 -0.0733 -0.0094  0.3398
  845MOL0     O13943   5.690   3.200  11.620  0.3799 -0.6278  0.2655
  845MOL0     C13944   5.747   3.077  11.651  0.5734  0.3327 -0.6923
  845MOL0     C13945   5.682   3.011  11.755  0.6313  0.4246 -1.5556
  845MOL0     C13946   5.727   2.883  11.795 -0.9767  0.4641  0.2344
  845MOL0     C13947   5.841   2.819  11.727 -0.9571  0.4805  0.0173
  845MOL0     O13948   5.902   2.703  11.768  0.3731  0.2462  0.4392
  845MOL0     C13949   5.815   2.606  11.823 -0.2835  0.4034  0.4445
  845MOL0     C13950   5.856   2.460  11.860 -0.2091  0.1708  1.0471
  845MOL0     C13951   6.003   2.458  11.927  0.2281 -0.1684  0.2681
  845MOL0     C13952   6.003   2.350  12.032 -0.1671  0.3015  0.5305
  845MOL0     C13953   6.145   2.334  12.091  0.0284  0.0548 -0.2729
  845MOL0     C13954   6.250   2.295  11.991  0.0733  0.1687 -0.3357
  845MOL0     C13955   6.397   2.268  12.036 -0.5202 -0.1059 -0.1650
  845MOL0     C13956   6.496   2.272  11.919  0.1332 -0.0263 -0.4929
  845MOL0     N13957   6.633   2.307  11.960  0.5753 -0.4093 -0.5477
  845MOL0     C13958   6.697   2.234  12.062  0.4814  0.0066 -0.1764
  845MOL0     C13959   6.793   2.322  12.103  0.2255  0.0592  0.4137
  845MOL0     C13960   6.900   2.278  12.205 -0.3002 -0.3422 -0.3102
  845MOL0     C13961   6.917   2.379  12.319  0.2346 -1.1134 -0.0664
  845MOL0     C13962   7.058   2.363  12.384  0.4718  0.2305 -0.2688
  845MOL0     C13963   7.080   2.481  12.476  0.0177  0.1257 -0.3068
  845MOL0     O13964   6.955   2.529  12.526  0.3415 -0.0068  0.8651
  845MOL0     C13965   6.897   2.462  12.631 -0.4873  0.4352 -0.7195
  845MOL0     C13966   6.774   2.512  12.671 -0.8669 -1.2174 -0.4356
  845MOL0     C13967   6.711   2.479  12.795 -0.0043 -0.0513  0.2382
  845MOL0     C13968   6.764   2.374  12.872 -0.1133  0.1231  0.6035
  845MOL0     C13969   6.697   2.320  12.990 -0.0956 -0.1186  0.1206
  845MOL0     O13970   6.591   2.379  13.046 -1.1325  0.5035  0.4863
  845MOL0     C13971   6.559   2.338  13.173 -0.2232 -0.3873  0.4571
  845MOL0     C13972   6.436   2.276  13.198 -0.8635  0.1836  0.6716
  845MOL0     C13973   6.403   2.238  13.328  0.3290  0.4397 -0.2349
  845MOL0     C13974   6.494   2.266  13.434 -0.1459 -0.7220  0.0616
  845MOL0     O13975   6.458   2.236  13.564  0.1390 -0.6304  0.4224
  845MOL0     C13976   6.561   2.174  13.641 -0.7907  0.5389  0.6814
  845MOL0     C13977   6.496   2.058  13.722 -0.0275 -0.3962 -0.4265
  845MOL0     C13978   6.438   1.959  13.618  0.0720 -0.9846 -0.7726
  845MOL0     C13979   6.358   1.848  13.693 -0.0089 -1.5946 -0.0115
  845MOL0     C13980   6.349   1.706  13.633 -0.0764  0.1736  1.0582
  845MOL0     C13981   6.281   1.615  13.729 -1.2606  0.3972  0.6870
  845MOL0     C13982   6.163   1.667  13.805 -0.1237 -0.7229  0.1492
  845MOL0     C13983   6.091   1.570  13.897 -0.1840  0.8125  0.0344
  845MOL0    Cl13984   5.937   1.614  13.964  0.2269  0.1972 -0.1210
  845MOL0     C13985   6.613   2.330  13.407  0.4237  0.4301 -0.0179
  845MOL0     C13986   6.644   2.368  13.279  0.0839  0.5658 -0.7592
  845MOL0     O13987   6.746   2.212  13.034  1.0685 -0.2953  0.9776
  845MOL0     C13988   6.893   2.324  12.840  0.1050 -0.9397 -1.1576
  845MOL0     C13989   6.957   2.377  12.732  0.1768  0.2833  0.2401
  845MOL0     N13990   6.792   2.431  12.022  0.6165 -0.6209  0.2390
  845MOL0     N13991   6.698   2.426  11.930 -0.0430  0.5640 -0.3409
  845MOL0     C13992   5.906   2.898  11.637  0.1195  1.2235 -0.1735
  845MOL0     C13993   5.853   3.019  11.598 -0.4994  1.1612  0.5851
  845MOL0     C13994   5.587   3.335  11.458 -0.0684 -0.0011  0.4000
  845MOL0     C13995   5.582   3.450  11.543  0.5244  0.9883 -0.6629
  845MOL0     C13996   5.481   3.546  11.536 -0.8580  0.4976  0.9995
  845MOL0     C13997   5.390   3.545  11.429  0.3065  0.9805  0.9840
  845MOL0     O13998   5.298   3.648  11.425  0.3617  0.2658  0.1630
  845MOL0     C13999   5.268   3.720  11.299  0.9585  0.7884  0.3635
  845MOL0     C14000   5.161   3.821  11.324  0.4612  0.6366 -0.4569
  845MOL0     C14001   5.031   3.758  11.390 -0.8881  0.5065  0.3478
  845MOL0     C14002   4.905   3.856  11.412  0.0135  0.4979 -0.0970
  845MOL0     C14003   4.797   3.770  11.476  0.3269  0.8814  0.1089
  845MOL0     C14004   4.715   3.687  11.522 -0.3188 -0.2579  0.4727
  845MOL0     C14005   5.397   3.444  11.332 -1.0401  0.5651 -0.9099
  845MOL0     C14006   5.492   3.340  11.347  0.2842 -0.1969  0.5553
  845MOL0     C14007   5.506   3.242  11.220  0.1793  0.1291  0.6066
  845MOL0     H14008   5.586   3.034  11.800  1.9188  0.9509  1.1430
  845MOL0     H14009   5.667   2.838  11.873  0.0129 -0.4377  0.5083
  845MOL0     H14010   5.785   2.643  11.922  2.1662 -0.0801  1.4555
  845MOL0     H14011   5.725   2.597  11.762 -0.8082  1.7819  0.9818
  845MOL0     H14012   5.864   2.403  11.767  2.6444  1.4610  0.3933
  845MOL0     H14013   5.772   2.427  11.922  0.3219  0.0518  1.7148
  845MOL0     H14014   6.031   2.551  11.977 -0.9879 -0.8907  2.4491
  845MOL0     H14015   6.060   2.431  11.838 -2.3086 -0.6141 -1.3353
  845MOL0     H14016   5.929   2.370  12.109 -2.7890 -2.3244 -1.0959
  845MOL0     H14017   5.974   2.252  11.994  4.2693 -2.2799  2.9841
  845MOL0     H14018   6.172   2.428  12.141 -1.8172  1.1524 -1.2366
  845MOL0     H14019   6.139   2.260  12.172  0.7108 -0.9563 -1.1171
  845MOL0     H14020   6.220   2.206  11.935 -1.3912 -0.3266  1.1493
  845MOL0     H14021   6.249   2.388  11.934 -1.3175  1.7315  2.0762
  845MOL0     H14022   6.409   2.179  12.099  1.0203  0.2797  0.1176
  845MOL0     H14023   6.430   2.348  12.103 -0.0941  3.6988 -4.4578
  845MOL0     H14024   6.495   2.174  11.868 -2.9530 -0.9022  1.0417
  845MOL0     H14025   6.467   2.348  11.846  2.1865  0.0874 -1.2752
  845MOL0     H14026   6.679   2.135  12.104 -0.3698  0.1026 -0.2928
  845MOL0     H14027   6.877   2.185  12.257  1.3697 -0.6921 -0.1542
  845MOL0     H14028   6.999   2.264  12.162 -0.2888 -1.4404  0.0595
  845MOL0     H14029   6.905   2.479  12.276  0.8182 -0.8813  0.2890
  845MOL0     H14030   6.832   2.364  12.386  1.9192 -2.3716  1.9233
  845MOL0     H14031   7.137   2.351  12.309  0.7334 -1.7250  0.2611
  845MOL0     H14032   7.079   2.279  12.451  0.5235  3.2045  3.8531
  845MOL0     H14033   7.139   2.562  12.433 -0.2503  0.1523 -0.6294
  845MOL0     H14034   7.147   2.460  12.560 -0.3038 -1.1962 -0.3500
  845MOL0     H14035   6.724   2.588  12.611  0.8143  1.5327  1.4209
  845MOL0     H14036   6.619   2.522  12.833  0.0663 -0.7658  1.2719
  845MOL0     H14037   6.356   2.259  13.127  0.0303 -0.8509 -0.1250
  845MOL0     H14038   6.304   2.195  13.343  1.9778 -2.7046  2.9976
  845MOL0     H14039   6.647   2.140  13.582  0.1784  0.6768  1.9846
  845MOL0     H14040   6.597   2.249  13.712 -1.2961  0.1297  1.3735
  845MOL0     H14041   6.574   2.008  13.781  1.1090  1.3587 -0.3651
  845MOL0     H14042   6.427   2.089  13.801  1.3146  1.6624  0.0105
  845MOL0     H14043   6.368   1.996  13.543 -0.8900  0.6458  0.8492
  845MOL0     H14044   6.524   1.926  13.558  0.0077 -0.3947 -1.1930
  845MOL0     H14045   6.259   1.892  13.706  0.8055 -0.4532  3.0185
  845MOL0     H14046   6.397   1.844  13.795 -0.6892 -0.0884  0.3324
  845MOL0     H14047   6.447   1.667  13.604  0.0229  0.8044  0.5089
  845MOL0     H14048   6.296   1.720  13.538  1.5614 -1.1965 -0.1247
  845MOL0     H14049   6.257   1.527  13.670 -0.3850  1.0702 -0.7274
  845MOL0     H14050   6.362   1.593  13.800  0.1329  1.8562 -0.3853
  845MOL0     H14051   6.084   1.696  13.735 -2.0503 -2.0727  1.6510
  845MOL0     H14052   6.181   1.756  13.866 -1.1213 -0.3924 -0.0177
  845MOL0     H14053   6.082   1.476  13.843  0.6392 -1.1146  3.0274
  845MOL0     H14054   6.160   1.559  13.981 -0.4405  2.1166  0.4351
  845MOL0     H14055   6.673   2.361  13.492 -0.4409  1.1730  0.3444
  845MOL0     H14056   6.727   2.429  13.245 -1.6180  2.0963 -2.3079
  845MOL0     H14057   6.955   2.260  12.902 -1.8258 -2.1961 -0.4019
  845MOL0     H14058   7.057   2.339  12.712  0.8220  2.6216 -1.4028
  845MOL0     H14059   5.997   2.856  11.596 -1.5426 -0.5284 -2.3183
  845MOL0     H14060   5.890   3.057  11.503 -1.1908  0.4501  0.0135
  845MOL0     H14061   5.647   3.442  11.630 -2.3368  1.5196  1.6673
  845MOL0     H14062   5.470   3.630  11.603 -1.0069  2.3141 -1.2033
  845MOL0     H14063   5.234   3.645  11.228  0.8693 -0.1564  1.3750
  845MOL0     H14064   5.352   3.772  11.253  0.7055  1.9609  1.1727
  845MOL0     H14065   5.141   3.862  11.225  2.4316 -1.4808 -1.8258
  845MOL0     H14066   5.184   3.909  11.385 -1.6204  0.3402  0.8678
  845MOL0     H14067   5.065   3.726  11.488 -1.1769  3.1915  1.4222
  845MOL0     H14068   5.000   3.673  11.330  0.9160 -2.1712  2.9384
  845MOL0     H14069   4.942   3.926  11.489  0.5832 -1.3824  1.4210
  845MOL0     H14070   4.867   3.907  11.323  1.8455 -1.2813 -2.0033
  845MOL0     H14071   4.643   3.622  11.567  0.3429 -0.6321  1.0027
  845MOL0     H14072   5.321   3.446  11.254 -2.2894 -0.5032  0.2277
  845MOL0     H14073   5.439   3.282  11.144 -0.1728 -0.2834  0.6985
  845MOL0     H14074   5.611   3.242  11.188  0.1643 -2.0382  0.4339
  845MOL0     H14075   5.468   3.145  11.253 -1.3041  0.7974  0.9538
  846MOL0     O14076   5.590  10.488   6.312  0.2045 -0.7957  0.8152
  846MOL0     C14077   5.625  10.563   6.402 -0.0075  0.3890 -0.7080
  846MOL0     O14078   5.654  10.522   6.529 -0.4583  0.3090  0.0569
  846MOL0     C14079   5.589  10.404   6.564 -0.2490 -0.2459  0.0520
  846MOL0     C14080   5.674  10.328   6.655  0.1997 -0.3561  0.4131
  846MOL0     C14081   5.625  10.201   6.684  0.6726 -0.5805 -0.2928
  846MOL0     C14082   5.497  10.153   6.651  0.1598  0.4164 -0.8931
  846MOL0     O14083   5.456  10.024   6.670  0.4773  0.3420 -0.2683
  846MOL0     C14084   5.538   9.926   6.739  0.0915 -0.8791  0.6526
  846MOL0     C14085   5.636   9.857   6.637 -1.1116 -0.2154 -0.1756
  846MOL0     C14086   5.563   9.785   6.513 -0.7860  0.2104  0.1896
  846MOL0     C14087   5.674   9.772   6.405  0.4129 -0.9593 -0.9677
  846MOL0     C14088   5.607   9.725   6.272 -0.3180  0.0135  0.4105
  846MOL0     C14089   5.534   9.596   6.267  0.3569  0.0417  0.6718
  846MOL0     C14090   5.497   9.552   6.126  0.0185  0.5238 -0.2409
  846MOL0     C14091   5.396   9.440   6.119  0.4373  0.0990 -0.1846
  846MOL0     N14092   5.364   9.355   6.236  0.0637  0.5351 -0.3923
  846MOL0     C14093   5.283   9.388   6.341 -0.3519  0.2069  1.0862
  846MOL0     C14094   5.294   9.286   6.432 -0.2177 -0.5495 -0.1428
  846MOL0     C14095   5.214   9.287   6.564 -0.2988  0.3538  0.0915
  846MOL0     C14096   5.281   9.374   6.674  1.0518 -0.3260 -0.0938
  846MOL0     C14097   5.428   9.340   6.694  0.3885  0.4886 -0.4879
  846MOL0     C14098   5.469   9.384   6.831  0.0004 -0.3891  0.0021
  846MOL0     O14099   5.482   9.529   6.836  0.0880 -0.3472 -0.5461
  846MOL0     C14100   5.618   9.562   6.840  0.2673 -0.5614 -0.1119
  846MOL0     C14101   5.688   9.600   6.964  0.0820  0.6534  1.0788
  846MOL0     C14102   5.825   9.627   6.967  1.0414  1.2097 -0.1931
  846MOL0     C14103   5.908   9.608   6.852  1.2087 -0.2361  0.2660
  846MOL0     C14104   6.050   9.636   6.850 -1.8386  0.0285  0.9175
  846MOL0     O14105   6.115   9.696   6.962  0.0737  0.1455 -0.6840
  846MOL0     C14106   6.246   9.714   6.959 -0.1144 -0.4653 -0.2961
  846MOL0     C14107   6.281   9.857   6.978  0.5377 -0.8602  0.5948
  846MOL0     C14108   6.412   9.897   6.975 -0.0667  0.0481  0.4949
  846MOL0     C14109   6.512   9.805   6.938 -0.7852 -0.5693 -0.3515
  846MOL0     O14110   6.650   9.828   6.936  0.1332 -0.1406 -0.3968
  846MOL0     C14111   6.683   9.950   7.002  0.4808  0.1263  0.9240
  846MOL0     C14112   6.838   9.948   7.002 -0.1785 -0.3617  0.0869
  846MOL0     C14113   6.898   9.851   7.097 -0.5634  0.2669  0.0337
  846MOL0     C14114   6.981   9.729   7.043 -1.0320 -0.5236  0.8560
  846MOL0     C14115   6.900   9.611   7.013  1.2443  0.2859  0.9081
  846MOL0     C14116   6.982   9.471   6.996 -0.0542 -0.2768  0.4522
  846MOL0     C14117   7.057   9.477   6.864 -0.0691  0.0770  0.5069
  846MOL0     C14118   7.137   9.351   6.846  0.2593 -0.0212 -0.0377
  846MOL0    Cl14119   7.038   9.217   6.790  0.1330  0.1411 -0.1642
  846MOL0     C14120   6.473   9.674   6.912  0.2483  1.2253  0.2783
  846MOL0     C14121   6.343   9.628   6.923  0.2526 -0.1588 -0.8874
  846MOL0     O14122   6.108   9.590   6.753 -0.4567  0.6445 -0.1229
  846MOL0     C14123   5.831   9.571   6.737  0.3346  0.8080 -0.0327
  846MOL0     C14124   5.696   9.540   6.732 -0.1189 -0.4773 -0.5484
  846MOL0     N14125   5.386   9.189   6.386 -0.3124  0.4485  0.4965
  846MOL0     N14126   5.424   9.232   6.270  0.7635 -0.0612 -0.1447
  846MOL0     C14127   5.408  10.236   6.583 -0.7990 -0.6335 -0.4200
  846MOL0     C14128   5.454  10.362   6.547  1.3140  0.3203  0.5861
  846MOL0     C14129   5.677  10.698   6.364 -0.2858 -0.6873  0.2350
  846MOL0     C14130   5.771  10.763   6.444 -0.0397 -0.1462 -0.1794
  846MOL0     C14131   5.841  10.874   6.398 -0.6320 -0.5131  0.3805
  846MOL0     C14132   5.809  10.933   6.278  0.5751 -0.0431  0.6586
  846MOL0     O14133   5.867  11.048   6.222 -0.0395  0.5765 -0.0084
  846MOL0     C14134   5.963  11.116   6.299 -0.6299 -0.2813 -0.2086
  846MOL0     C14135   5.992  11.245   6.222  0.0580 -0.2370  0.7766
  846MOL0     C14136   6.091  11.335   6.283 -1.0107 -0.1892 -0.3301
  846MOL0     C14137   6.131  11.460   6.197 -0.6536  0.4790 -0.4151
  846MOL0     C14138   6.181  11.570   6.287  0.8958  0.0855 -0.4347
  846MOL0     C14139   6.219  11.663   6.353 -0.1431  0.3620  0.2999
  846MOL0     C14140   5.711  10.865   6.202 -0.5790  0.2711 -0.0757
  846MOL0     C14141   5.636  10.750   6.235 -1.3177  0.2997  0.0720
  846MOL0     C14142   5.525  10.692   6.150  0.3943 -0.4138 -0.0108
  846MOL0     H14143   5.775  10.358   6.680  0.9138 -4.0580  2.7904
  846MOL0     H14144   5.700  10.143   6.736  0.0760 -4.6882 -3.4153
  846MOL0     H14145   5.589   9.977   6.821 -3.1173  0.5643  1.9053
  846MOL0     H14146   5.465   9.857   6.781 -1.9338  1.1453  0.6600
  846MOL0     H14147   5.688   9.782   6.696 -1.5696  1.3885  2.4575
  846MOL0     H14148   5.705   9.932   6.597  3.5262 -4.4564 -1.0722
  846MOL0     H14149   5.486   9.849   6.468  1.9647  2.1482 -2.1134
  846MOL0     H14150   5.528   9.687   6.546  1.7770 -1.5059 -1.7284
  846MOL0     H14151   5.720   9.869   6.387 -3.0876  0.8044 -1.1535
  846MOL0     H14152   5.742   9.690   6.432 -0.4730 -0.7832  2.3089
  846MOL0     H14153   5.546   9.807   6.231 -0.3866 -0.2701 -0.0611
  846MOL0     H14154   5.695   9.719   6.208  1.8217 -1.6751  3.2777
  846MOL0     H14155   5.576   9.510   6.321 -2.7285 -1.4519  0.9261
  846MOL0     H14156   5.439   9.616   6.319  0.3247  1.2645  0.1720
  846MOL0     H14157   5.591   9.515   6.084  0.3327 -1.2735  1.8869
  846MOL0     H14158   5.468   9.637   6.062  0.0782 -1.1941 -2.7159
  846MOL0     H14159   5.304   9.476   6.072 -0.5266 -2.9188 -0.8388
  846MOL0     H14160   5.444   9.375   6.045  0.9362  1.2333 -0.8718
  846MOL0     H14161   5.216   9.474   6.344 -1.8569 -0.6249 -2.6153
  846MOL0     H14162   5.116   9.332   6.551  0.2405  0.7731 -3.6061
  846MOL0     H14163   5.194   9.182   6.588  1.8293 -0.2053 -0.3289
  846MOL0     H14164   5.259   9.480   6.658 -1.9051 -0.9633 -0.9156
  846MOL0     H14165   5.227   9.346   6.765 -2.7578  3.5886 -0.8202
  846MOL0     H14166   5.495   9.368   6.612  2.5409 -1.6200  0.4257
  846MOL0     H14167   5.438   9.231   6.701  2.6981  0.7617  1.4569
  846MOL0     H14168   5.568   9.344   6.857 -0.2544 -1.1175 -0.1529
  846MOL0     H14169   5.391   9.354   6.902  0.0483 -2.4616 -0.7651
  846MOL0     H14170   5.636   9.606   7.059 -2.7348  3.2000 -0.4563
  846MOL0     H14171   5.865   9.656   7.064 -1.9488 -1.0523  1.9118
  846MOL0     H14172   6.214   9.942   6.983 -0.6530 -1.5160 -2.1396
  846MOL0     H14173   6.428  10.004   6.979  1.0714 -0.1447  2.1195
  846MOL0     H14174   6.637  10.032   6.947  2.2924  2.2989  2.4474
  846MOL0     H14175   6.644   9.961   7.104  2.7471  1.6700  1.7179
  846MOL0     H14176   6.874   9.933   6.900  3.0039 -0.4750  1.0981
  846MOL0     H14177   6.873  10.048   7.028  0.6524 -0.6736  0.2139
  846MOL0     H14178   6.971   9.906   7.156  3.4921 -2.2795 -2.1669
  846MOL0     H14179   6.826   9.810   7.168  0.9404  0.3638  1.6748
  846MOL0     H14180   7.037   9.692   7.130  0.0014 -3.6408 -0.9775
  846MOL0     H14181   7.050   9.754   6.962 -1.3405  0.4924  0.8969
  846MOL0     H14182   6.852   9.627   6.916  2.1436 -1.2832  0.1637
  846MOL0     H14183   6.811   9.598   7.076  2.4074 -0.5817  2.4368
  846MOL0     H14184   7.061   9.475   7.072 -0.0937 -0.6667  0.5134
  846MOL0     H14185   6.918   9.383   6.996 -0.2132 -0.2339  2.9995
  846MOL0     H14186   7.128   9.559   6.852  1.3541 -1.1364  0.3416
  846MOL0     H14187   6.975   9.481   6.792 -0.7366 -1.2064  1.1495
  846MOL0     H14188   7.225   9.376   6.785  3.0370 -0.7786  3.3147
  846MOL0     H14189   7.192   9.321   6.936  2.3072 -1.5174 -1.6885
  846MOL0     H14190   6.554   9.602   6.896  0.9171  1.9912  0.1674
  846MOL0     H14191   6.325   9.524   6.897  0.7997 -0.6011  0.4313
  846MOL0     H14192   5.888   9.573   6.645 -0.7120 -3.9648 -1.0631
  846MOL0     H14193   5.658   9.520   6.632  1.1488  1.9758 -1.6284
  846MOL0     H14194   5.323  10.196   6.530 -0.6024  1.9177 -2.8906
  846MOL0     H14195   5.389  10.418   6.480  1.3759 -2.4371 -2.0067
  846MOL0     H14196   5.805  10.716   6.536  2.4800  0.6388 -0.6300
  846MOL0     H14197   5.909  10.931   6.461 -2.8878  2.8743  0.0259
  846MOL0     H14198   6.047  11.047   6.290 -2.2165 -2.1427 -1.7579
  846MOL0     H14199   5.940  11.144   6.402  1.3067 -0.5572  0.3296
  846MOL0     H14200   5.906  11.312   6.223  1.9075  2.3527  3.2180
  846MOL0     H14201   6.027  11.218   6.122  2.9144 -1.4040  1.9916
  846MOL0     H14202   6.178  11.273   6.308 -0.0435  1.6866  1.1595
  846MOL0     H14203   6.048  11.365   6.379 -0.6485 -0.3988 -0.1028
  846MOL0     H14204   6.219  11.428   6.140 -1.6600 -2.2492 -0.5882
  846MOL0     H14205   6.051  11.488   6.128 -0.8038  1.1120  0.0032
  846MOL0     H14206   6.256  11.740   6.417 -0.3464  1.7199 -1.1588
  846MOL0     H14207   5.692  10.906   6.103 -1.0155 -0.5530 -0.3416
  846MOL0     H14208   5.565  10.628   6.070  0.6321 -1.6820  1.0783
  846MOL0     H14209   5.438  10.644   6.195  0.2095 -1.7311 -1.6337
  846MOL0     H14210   5.486  10.781   6.099  0.8897 -0.3313 -0.2582
  847MOL0     O14211  10.689   4.426   5.698  0.0644  0.1960  0.0393
  847MOL0     C14212  10.713   4.359   5.802 -0.4735 -0.5948  0.4713
  847MOL0     O14213  10.714   4.415   5.927  1.1987  0.1298  0.5775
  847MOL0     C14214  10.725   4.552   5.960  0.4451  1.2687  0.8360
  847MOL0     C14215  10.703   4.585   6.093  0.6073  0.9201 -0.1071
  847MOL0     C14216  10.737   4.710   6.142 -0.4119 -0.4899 -0.2032
  847MOL0     C14217  10.782   4.810   6.060 -0.0677  0.3823  0.4200
  847MOL0     O14218  10.814   4.937   6.103  0.3613  0.0504 -0.7874
  847MOL0     C14219  10.953   4.949   6.160  0.3104 -0.3142  0.0034
  847MOL0     C14220  10.947   5.017   6.285  1.1824 -0.9075 -0.0476
  847MOL0     C14221  10.941   4.928   6.404  0.7192 -0.3080 -0.1911
  847MOL0     C14222  10.820   4.982   6.490  0.6911  1.1955 -0.2213
  847MOL0     C14223  10.798   4.921   6.627 -0.4691  0.5350 -0.3881
  847MOL0     C14224  10.744   4.782   6.616  0.6845 -0.0924  0.3792
  847MOL0     C14225  10.732   4.718   6.753 -0.0172 -0.4760  0.1478
  847MOL0     C14226  10.628   4.607   6.751  0.4971 -0.5729  0.3678
  847MOL0     N14227  10.628   4.538   6.878  0.3328 -0.1149  0.1184
  847MOL0     C14228  10.616   4.599   6.999  1.1791  0.2172 -0.6494
  847MOL0     C14229  10.628   4.496   7.094  0.5572 -0.4017  1.5742
  847MOL0     C14230  10.601   4.507   7.243  0.0129  0.6247 -0.8505
  847MOL0     C14231  10.711   4.609   7.290 -0.1827  0.7525 -0.8443
  847MOL0     C14232  10.719   4.635   7.442 -0.0002 -0.3191 -0.0892
  847MOL0     C14233  10.579   4.692   7.489 -0.3890  0.7665 -0.0029
  847MOL0     O14234  10.610   4.744   7.623  0.3690 -0.5190  0.3017
  847MOL0     C14235  10.680   4.864   7.631  1.1905  0.7324 -0.2927
  847MOL0     C14236  10.691   4.964   7.532  0.6281 -0.2732 -0.1175
  847MOL0     C14237  10.769   5.075   7.558 -0.3037 -0.1311 -0.6272
  847MOL0     C14238  10.805   5.105   7.684  0.4022  0.1446  0.0629
  847MOL0     C14239  10.872   5.237   7.719 -0.3992  0.3624 -0.4139
  847MOL0     O14240  10.878   5.339   7.633  0.0244 -0.4819  0.4733
  847MOL0     C14241  10.972   5.441   7.639  0.1092 -0.4082 -0.3530
  847MOL0     C14242  10.964   5.530   7.531  0.5936 -0.0540 -0.8751
  847MOL0     C14243  11.049   5.641   7.512 -0.5656  0.4146 -0.2210
  847MOL0     C14244  11.162   5.645   7.600 -0.1617  0.8204  0.1514
  847MOL0     O14245  11.272   5.730   7.579  0.5987 -0.4694 -0.5642
  847MOL0     C14246  11.241   5.867   7.548 -0.5196 -0.4568  0.2722
  847MOL0     C14247  11.374   5.939   7.564 -0.1926 -0.1019  0.4074
  847MOL0     C14248  11.468   5.924   7.439  0.3026 -0.1099 -0.2575
  847MOL0     C14249  11.610   5.961   7.490 -0.1311 -0.1738 -0.7494
  847MOL0     C14250  11.715   5.971   7.382  0.3452 -0.2001 -0.3819
  847MOL0     C14251  11.751   5.834   7.321  0.1330 -0.1375  0.1967
  847MOL0     C14252  11.849   5.853   7.204 -0.6809 -1.1951  0.2615
  847MOL0     C14253  11.989   5.908   7.245  0.5223  1.4776  0.4452
  847MOL0    Cl14254  12.114   5.900   7.111 -0.1014  0.1438  0.3003
  847MOL0     C14255  11.183   5.554   7.703  0.2022  0.1365 -0.2779
  847MOL0     C14256  11.085   5.457   7.720  0.3888  0.0427  0.2748
  847MOL0     O14257  10.913   5.246   7.834  0.0771  0.5405  0.4048
  847MOL0     C14258  10.787   5.007   7.784 -0.5903 -0.0748 -0.2417
  847MOL0     C14259  10.726   4.891   7.755  0.0649  0.0137 -1.0968
  847MOL0     N14260  10.666   4.380   7.025  0.0242 -0.5754 -0.2158
  847MOL0     N14261  10.661   4.407   6.899 -0.4180 -0.0592  0.2208
  847MOL0     C14262  10.801   4.779   5.926  0.6462 -0.1153 -0.3372
  847MOL0     C14263  10.765   4.655   5.877 -0.3773 -0.4512 -0.4345
  847MOL0     C14264  10.740   4.210   5.798  0.5772  0.1931 -0.0374
  847MOL0     C14265  10.818   4.169   5.899  0.9118  0.4298 -0.7860
  847MOL0     C14266  10.829   4.027   5.923 -0.3047 -0.0106 -0.4855
  847MOL0     C14267  10.775   3.930   5.833 -0.0484 -0.4490  0.1550
  847MOL0     O14268  10.761   3.808   5.869 -0.1788  0.1067 -0.3138
  847MOL0     C14269  10.887   3.744   5.885  0.6522  0.5170 -0.7965
  847MOL0     C14270  10.868   3.600   5.921  0.2305  0.2309 -0.1734
  847MOL0     C14271  10.810   3.512   5.797  1.6841 -1.0191 -0.4103
  847MOL0     C14272  10.919   3.507   5.687  1.0352  0.3842 -0.1943
  847MOL0     C14273  11.044   3.446   5.733 -0.5840 -0.6974  0.0926
  847MOL0     C14274  11.133   3.395   5.803  0.2453 -1.2476 -0.0469
  847MOL0     C14275  10.721   3.975   5.717 -0.7281 -0.4391 -0.1489
  847MOL0     C14276  10.706   4.113   5.697 -0.3099 -0.0790  0.3163
  847MOL0     C14277  10.646   4.153   5.565  0.5460 -0.8258  0.6419
  847MOL0     H14278  10.662   4.507   6.157  0.2139  0.0625 -1.3763
  847MOL0     H14279  10.723   4.744   6.245 -0.7401 -0.8627 -0.1225
  847MOL0     H14280  11.002   4.852   6.169  0.0068 -0.6590 -1.6612
  847MOL0     H14281  11.017   5.013   6.098  1.7029 -3.0781 -1.6159
  847MOL0     H14282  10.863   5.088   6.287  1.2802 -0.7490 -1.1296
  847MOL0     H14283  11.034   5.082   6.284 -0.4443  1.4374  0.8689
  847MOL0     H14284  11.025   4.938   6.474 -1.7590 -0.9033  3.0884
  847MOL0     H14285  10.928   4.825   6.368  4.3483 -1.2019  0.6258
  847MOL0     H14286  10.852   5.083   6.517  2.4818  0.8997 -1.0700
  847MOL0     H14287  10.721   4.998   6.447  1.5225  0.8356 -2.3917
  847MOL0     H14288  10.894   4.921   6.679 -0.9267  0.2231  0.4707
  847MOL0     H14289  10.724   4.982   6.680  0.3955  1.6726 -0.4477
  847MOL0     H14290  10.643   4.779   6.575  0.2558  2.9010  0.9853
  847MOL0     H14291  10.814   4.724   6.554 -0.3961 -0.5094 -0.4799
  847MOL0     H14292  10.713   4.785   6.837 -1.5252 -2.4887  1.4993
  847MOL0     H14293  10.829   4.669   6.765  0.5054  0.6908  0.8181
  847MOL0     H14294  10.533   4.650   6.717  1.4848  0.1574 -1.6272
  847MOL0     H14295  10.661   4.544   6.668  0.1283  3.9054 -3.6230
  847MOL0     H14296  10.593   4.702   7.025  0.1708 -0.0210 -0.5399
  847MOL0     H14297  10.499   4.540   7.263  0.4576  2.6206 -1.6823
  847MOL0     H14298  10.619   4.408   7.287 -4.0307 -1.5307 -3.4228
  847MOL0     H14299  10.808   4.567   7.261 -0.5096 -0.5553 -0.1490
  847MOL0     H14300  10.693   4.703   7.239 -1.5227 -0.3363 -2.4706
  847MOL0     H14301  10.798   4.710   7.448 -1.1689  1.1398 -1.5789
  847MOL0     H14302  10.754   4.550   7.502 -0.8516 -1.0697 -0.6252
  847MOL0     H14303  10.510   4.607   7.492  1.1665 -1.2031 -6.1131
  847MOL0     H14304  10.545   4.765   7.414 -1.7424  0.5964  0.4122
  847MOL0     H14305  10.665   4.929   7.432 -3.7922 -1.3430  1.1714
  847MOL0     H14306  10.800   5.134   7.472 -0.5456  0.3862 -0.3619
  847MOL0     H14307  10.896   5.509   7.449  2.5642 -0.2369 -2.5293
  847MOL0     H14308  11.045   5.700   7.421  1.8693  1.6459  0.4177
  847MOL0     H14309  11.214   5.869   7.442  3.8828 -1.2448 -1.0678
  847MOL0     H14310  11.167   5.925   7.604 -0.4829  1.5462 -1.6147
  847MOL0     H14311  11.338   6.042   7.574 -0.2946 -0.0228 -0.6165
  847MOL0     H14312  11.422   5.911   7.658 -2.9350  0.7564  2.1740
  847MOL0     H14313  11.477   5.817   7.420 -0.6748 -0.3677  0.7066
  847MOL0     H14314  11.429   5.961   7.344 -1.8617 -2.6736 -0.4775
  847MOL0     H14315  11.650   5.899   7.571  0.4831  1.2180  0.0442
  847MOL0     H14316  11.597   6.059   7.536 -2.1046 -1.1542  0.9278
  847MOL0     H14317  11.806   6.019   7.422 -0.0727  1.5498 -1.4448
  847MOL0     H14318  11.687   6.044   7.306  0.1763  3.1872  2.6411
  847MOL0     H14319  11.802   5.777   7.398  2.5722  1.0781 -0.4031
  847MOL0     H14320  11.666   5.782   7.275  0.7995  1.4639 -3.1759
  847MOL0     H14321  11.806   5.917   7.126  0.2970 -0.5845  0.2017
  847MOL0     H14322  11.865   5.755   7.159  2.7658 -0.7102  0.1555
  847MOL0     H14323  11.977   6.012   7.275  0.0712  1.3278  0.8072
  847MOL0     H14324  12.021   5.850   7.332 -4.1677 -0.1872  1.3812
  847MOL0     H14325  11.276   5.559   7.759 -0.4765 -1.9781  1.1608
  847MOL0     H14326  11.107   5.383   7.796 -0.1730  1.9356  2.3898
  847MOL0     H14327  10.823   5.027   7.884 -0.1435  1.8708 -0.7635
  847MOL0     H14328  10.710   4.816   7.831  0.9357  0.8791 -0.0140
  847MOL0     H14329  10.843   4.858   5.864  1.2241  2.3298  2.9084
  847MOL0     H14330  10.799   4.637   5.775  0.7941 -1.1574  0.0504
  847MOL0     H14331  10.855   4.243   5.969  1.6154  0.7337 -1.4739
  847MOL0     H14332  10.871   4.000   6.019 -1.2796 -1.9711 -0.5552
  847MOL0     H14333  10.944   3.785   5.969  4.2698 -3.5030 -0.9242
  847MOL0     H14334  10.950   3.742   5.795 -0.2142 -0.0842 -1.4055
  847MOL0     H14335  10.798   3.599   6.006 -2.4501  0.4682 -2.2494
  847MOL0     H14336  10.953   3.548   5.966  0.7354 -0.2019 -1.5859
  847MOL0     H14337  10.724   3.565   5.754  0.3258 -1.3938  1.7055
  847MOL0     H14338  10.777   3.410   5.820 -3.3563  0.6523  1.1505
  847MOL0     H14339  10.874   3.444   5.610  0.5230 -1.6241  1.6356
  847MOL0     H14340  10.942   3.607   5.650 -3.0543  2.4865  2.1491
  847MOL0     H14341  11.217   3.373   5.866  0.9244 -2.4263 -1.3107
  847MOL0     H14342  10.683   3.908   5.640  0.1335 -0.5214 -0.5070
  847MOL0     H14343  10.727   4.200   5.509 -1.4184  2.7018  0.4982
  847MOL0     H14344  10.607   4.074   5.499 -0.4842 -1.8557  2.4000
  847MOL0     H14345  10.567   4.224   5.589 -0.2069 -2.5004  3.6609
  848MOL0     O14346  10.199   8.486   0.035 -0.4113 -0.4241  0.4945
  848MOL0     C14347  10.093   8.497   0.091  0.0882 -0.7938 -0.2094
  848MOL0     O14348  10.053   8.603   0.166 -0.2374  0.2688  0.3423
  848MOL0     C14349  10.148   8.701   0.177 -0.2351 -0.5680 -0.1299
  848MOL0     C14350  10.171   8.796   0.076  0.5488  0.4619  0.7881
  848MOL0     C14351  10.271   8.890   0.096  0.2568  1.0456  0.2129
  848MOL0     C14352  10.358   8.880   0.198 -0.6085 -0.3209 -0.0958
  848MOL0     O14353  10.452   8.983   0.208 -0.4444  0.0330  0.4364
  848MOL0     C14354  10.438   9.079   0.307 -0.3754 -0.2874 -0.7787
  848MOL0     C14355  10.461   9.212   0.235 -0.4353  0.0514  0.1577
  848MOL0     C14356  10.523   9.310   0.340  0.2498 -0.8083  1.1598
  848MOL0     C14357  10.524   9.455   0.294  0.3901  0.5120  0.5277
  848MOL0     C14358  10.565   9.545   0.420 -0.6951 -0.8960 -0.1076
  848MOL0     C14359  10.582   9.695   0.372  0.6654 -0.2392  0.6727
  848MOL0     C14360  10.571   9.794   0.487  0.9651 -0.7817 -0.1149
  848MOL0     C14361  10.543   9.939   0.436  0.7204  0.4531 -0.7400
  848MOL0     N14362  10.409   9.934   0.374 -0.0267  0.1220  0.4200
  848MOL0     C14363  10.403   9.920   0.239  0.2105 -0.0836  0.3893
  848MOL0     C14364  10.270   9.904   0.216  0.0120 -0.8898 -0.3826
  848MOL0     C14365  10.195   9.870   0.090 -0.6153 -0.5035 -0.2185
  848MOL0     C14366  10.194   9.713   0.078 -0.4316 -0.0589 -0.2872
  848MOL0     C14367  10.259   9.661  -0.047  0.5498  0.2854  0.1195
  848MOL0     C14368  10.168   9.716  -0.168 -0.5935 -0.6371 -1.8790
  848MOL0     O14369  10.197   9.627  -0.272 -0.1829 -0.5516  0.6244
  848MOL0     C14370  10.257   9.673  -0.385  0.5309 -0.0210 -0.3258
  848MOL0     C14371  10.306   9.799  -0.421  0.5200  0.1447  0.3610
  848MOL0     C14372  10.351   9.815  -0.554 -0.0307 -0.0402  0.6294
  848MOL0     C14373  10.349   9.712  -0.644  0.2892 -0.1768  0.3055
  848MOL0     C14374  10.381   9.738  -0.793 -0.0801  0.4837 -0.9509
  848MOL0     O14375  10.435   9.859  -0.818  0.4338  0.8711 -0.7640
  848MOL0     C14376  10.440   9.895  -0.951 -0.1148 -0.8284 -0.3426
  848MOL0     C14377  10.333   9.874  -1.034  0.0797 -0.4122  0.3203
  848MOL0     C14378  10.345   9.902  -1.171  0.5818 -0.1319  0.3971
  848MOL0     C14379  10.461   9.965  -1.237  0.4880 -0.7701 -0.3432
  848MOL0     O14380  10.463   9.993  -1.372 -0.9652 -1.1560 -0.3318
  848MOL0     C14381  10.487   9.881  -1.458  0.7121  0.3739 -0.8062
  848MOL0     C14382  10.471   9.909  -1.600 -0.5507 -0.1620 -0.4318
  848MOL0     C14383  10.595   9.964  -1.659 -0.2617  0.1178 -0.5839
  848MOL0     C14384  10.595  10.005  -1.804 -0.5433  0.6954 -0.6142
  848MOL0     C14385  10.727  10.030  -1.861 -0.8236 -0.3503 -1.4971
  848MOL0     C14386  10.803   9.900  -1.888 -0.8950  0.2831 -0.1536
  848MOL0     C14387  10.939   9.926  -1.952  0.8361  0.3317 -0.9647
  848MOL0     C14388  11.032   9.802  -1.944 -0.3453  0.8641  0.4737
  848MOL0    Cl14389  10.948   9.643  -1.963  0.2138  0.6913 -0.0005
  848MOL0     C14390  10.558   9.998  -1.141 -0.2413 -0.9208  0.5703
  848MOL0     C14391  10.559   9.947  -1.014 -0.6866  1.2188 -1.3743
  848MOL0     O14392  10.366   9.648  -0.873 -0.1610 -0.5298 -0.1331
  848MOL0     C14393  10.317   9.587  -0.604 -0.4612 -0.2763 -0.5761
  848MOL0     C14394  10.274   9.568  -0.475  0.0665  1.5695 -0.4831
  848MOL0     N14395  10.204   9.907   0.338 -0.4185  0.0150  0.2533
  848MOL0     N14396  10.292   9.917   0.430  0.2754  0.2347 -0.0997
  848MOL0     C14397  10.337   8.784   0.305  0.8440 -0.5206  0.0634
  848MOL0     C14398  10.228   8.701   0.294  1.0014 -0.0941  0.7443
  848MOL0     C14399   9.984   8.400   0.061  0.2906  0.1079  0.1341
  848MOL0     C14400   9.853   8.457   0.059 -0.1166  0.4965  0.2971
  848MOL0     C14401   9.740   8.379   0.026  0.3035  1.8416  0.1239
  848MOL0     C14402   9.759   8.245  -0.007  0.2068  0.1382 -0.0062
  848MOL0     O14403   9.647   8.169  -0.011 -0.4621  0.1027  0.2197
  848MOL0     C14404   9.624   8.113  -0.137 -0.3392  0.2481 -0.5187
  848MOL0     C14405   9.505   8.027  -0.132  0.0339 -1.1295  0.2456
  848MOL0     C14406   9.381   8.101  -0.087 -0.5411 -0.1737  0.4997
  848MOL0     C14407   9.259   8.022  -0.096  0.1069 -0.3189 -0.4375
  848MOL0     C14408   9.144   8.105  -0.062  0.5848 -0.0200  0.1286
  848MOL0     C14409   9.057   8.157  -0.009  0.4524  0.0319 -0.3939
  848MOL0     C14410   9.889   8.190  -0.004  0.2051 -0.0060 -0.7023
  848MOL0     C14411  10.006   8.268   0.023  0.5143 -0.3135  0.6390
  848MOL0     C14412  10.139   8.195   0.017  1.3583 -0.1007  0.2669
  848MOL0     H14413  10.120   8.795  -0.020  0.9509 -0.3244  0.5771
  848MOL0     H14414  10.279   8.972   0.025  0.2621  1.5472  0.7882
  848MOL0     H14415  10.335   9.084   0.344 -1.7973 -1.2103 -4.2961
  848MOL0     H14416  10.500   9.066   0.397 -0.5113 -0.0265 -0.6462
  848MOL0     H14417  10.364   9.243   0.196 -0.8314  1.3719  2.0395
  848MOL0     H14418  10.527   9.201   0.149  1.2638  1.3664  1.2215
  848MOL0     H14419  10.623   9.278   0.369  1.5744 -0.8608 -2.8547
  848MOL0     H14420  10.457   9.302   0.427  1.1238  1.0265  2.0324
  848MOL0     H14421  10.606   9.476   0.225 -0.0659 -0.5157 -0.3608
  848MOL0     H14422  10.433   9.493   0.245 -0.2522 -0.3561  1.0121
  848MOL0     H14423  10.488   9.546   0.497 -0.3524  2.4483  0.3342
  848MOL0     H14424  10.657   9.514   0.472  0.4015  1.4639 -0.4853
  848MOL0     H14425  10.677   9.717   0.323  0.8261 -3.5247 -0.7309
  848MOL0     H14426  10.500   9.715   0.302  0.3179 -1.2999  0.7540
  848MOL0     H14427  10.663   9.814   0.543  1.2540 -1.2223 -0.4242
  848MOL0     H14428  10.498   9.764   0.562  0.6979 -1.6755 -0.7202
  848MOL0     H14429  10.534  10.009   0.519  1.0862  0.8280 -1.0078
  848MOL0     H14430  10.623   9.963   0.365  2.4880  0.6548  1.2261
  848MOL0     H14431  10.481   9.921   0.163  1.5667 -2.0302  1.6533
  848MOL0     H14432  10.090   9.901   0.104 -0.9055 -1.4416 -0.2576
  848MOL0     H14433  10.231   9.915  -0.003  0.4056 -3.0922 -1.1453
  848MOL0     H14434  10.247   9.664   0.160 -1.5536  2.1557  1.8771
  848MOL0     H14435  10.089   9.686   0.094 -0.6479 -0.3894 -1.9887
  848MOL0     H14436  10.263   9.552  -0.043  1.2680  0.3051  0.0443
  848MOL0     H14437  10.362   9.696  -0.034  1.0971 -1.4708  0.8939
  848MOL0     H14438  10.166   9.823  -0.189  0.8074 -0.0466  0.6282
  848MOL0     H14439  10.068   9.679  -0.142  0.6946 -2.0566  1.6099
  848MOL0     H14440  10.289   9.880  -0.351 -1.5656  0.9331 -0.9584
  848MOL0     H14441  10.367   9.919  -0.581 -1.9154  0.6219  1.7921
  848MOL0     H14442  10.245   9.833  -0.986 -0.3698  1.6863  1.4305
  848MOL0     H14443  10.262   9.879  -1.238  0.6726  2.1990 -0.6124
  848MOL0     H14444  10.583   9.831  -1.443  0.2522  0.1037  1.6021
  848MOL0     H14445  10.411   9.810  -1.427 -0.7978  1.9316 -0.8105
  848MOL0     H14446  10.451   9.817  -1.656  2.9768 -1.6709  0.5046
  848MOL0     H14447  10.388   9.976  -1.623 -0.1998 -0.4793 -2.8980
  848MOL0     H14448  10.633  10.046  -1.597 -0.3678  0.5227 -1.0416
  848MOL0     H14449  10.678   9.896  -1.642 -0.9001 -0.6668 -0.5600
  848MOL0     H14450  10.540  10.099  -1.817  0.8483  1.6083 -0.1735
  848MOL0     H14451  10.542   9.929  -1.862 -0.8344  2.5252 -2.8512
  848MOL0     H14452  10.779  10.077  -1.777 -1.8658  0.3989 -1.2502
  848MOL0     H14453  10.726  10.099  -1.946 -2.8285 -0.3477 -1.5011
  848MOL0     H14454  10.816   9.838  -1.799 -0.1413 -0.3342 -0.6929
  848MOL0     H14455  10.738   9.850  -1.960 -0.0811 -0.9845 -0.0222
  848MOL0     H14456  10.991  10.016  -1.919 -0.0403  0.7997 -0.8451
  848MOL0     H14457  10.915   9.943  -2.057 -1.5089 -2.9529 -1.1110
  848MOL0     H14458  11.104   9.804  -2.026 -2.8129  2.5849 -1.8439
  848MOL0     H14459  11.097   9.799  -1.856  1.1690 -0.9957 -0.6262
  848MOL0     H14460  10.639  10.059  -1.179 -0.5543  0.1784  1.6190
  848MOL0     H14461  10.631   9.964  -0.934 -1.5864 -0.5211 -0.1347
  848MOL0     H14462  10.321   9.503  -0.672 -1.5423  1.7891 -3.3939
  848MOL0     H14463  10.240   9.471  -0.440  4.1440  0.1150 -0.0834
  848MOL0     H14464  10.412   8.776   0.384  2.7393  0.8551 -1.4823
  848MOL0     H14465  10.199   8.622   0.362 -2.3388  1.6521  1.5515
  848MOL0     H14466   9.827   8.556   0.095  0.9052  0.2876  1.6981
  848MOL0     H14467   9.635   8.399   0.047 -0.8179 -0.3270 -2.6518
  848MOL0     H14468   9.710   8.056  -0.174 -1.4835 -1.8261 -0.1628
  848MOL0     H14469   9.608   8.194  -0.209 -1.5829 -0.2803 -0.8705
  848MOL0     H14470   9.534   7.941  -0.071 -0.1131 -0.5631  1.1461
  848MOL0     H14471   9.491   7.995  -0.235  2.1762  0.5783 -0.6381
  848MOL0     H14472   9.368   8.199  -0.133  1.8525 -0.4472 -0.9277
  848MOL0     H14473   9.400   8.120   0.019 -2.3158 -1.3947  1.0817
  848MOL0     H14474   9.242   7.995  -0.201  2.1498  3.3244 -1.9076
  848MOL0     H14475   9.257   7.936  -0.029 -1.5812 -0.8464 -1.1183
  848MOL0     H14476   8.982   8.207   0.049 -2.6692 -1.1097 -3.1079
  848MOL0     H14477   9.882   8.085  -0.030 -0.4241  0.4362 -2.4159
  848MOL0     H14478  10.214   8.252  -0.039 -0.3540  2.4410  0.3845
  848MOL0     H14479  10.180   8.161   0.113  2.1782 -1.2123 -0.4498
  848MOL0     H14480  10.143   8.105  -0.044  1.3070  2.0881 -3.2644
  849MOL0     O14481   8.656   5.267   1.222 -0.1604 -0.0850 -0.1597
  849MOL0     C14482   8.599   5.246   1.333  0.5691 -0.8309 -0.0523
  849MOL0     O14483   8.484   5.190   1.339  1.0015 -0.7097 -0.0308
  849MOL0     C14484   8.429   5.112   1.238 -0.8365  0.3607 -0.4544
  849MOL0     C14485   8.484   4.984   1.212  0.2016  0.1860  1.0611
  849MOL0     C14486   8.433   4.896   1.117  0.0404  0.1312  0.4956
  849MOL0     C14487   8.332   4.952   1.029 -0.3243  0.6802 -0.6772
  849MOL0     O14488   8.270   4.903   0.916  0.3848  0.1459 -0.1232
  849MOL0     C14489   8.231   4.762   0.916  0.7199 -0.5415  0.3941
  849MOL0     C14490   8.141   4.720   0.797 -0.0268  0.1850 -0.5208
  849MOL0     C14491   8.220   4.712   0.655  0.5067 -0.2049 -0.1069
  849MOL0     C14492   8.210   4.836   0.575 -0.4419  0.3181 -0.0457
  849MOL0     C14493   8.269   4.833   0.432  0.2192  0.2970  1.3097
  849MOL0     C14494   8.293   4.976   0.389  0.6358 -0.7781  1.0258
  849MOL0     C14495   8.344   5.003   0.251 -0.5145  0.0091  0.2971
  849MOL0     C14496   8.232   4.981   0.155  0.0088 -0.3410  0.1623
  849MOL0     N14497   8.252   5.002   0.013  0.0610 -0.2880 -0.3196
  849MOL0     C14498   8.338   4.914  -0.059  0.6775 -0.7973 -0.1181
  849MOL0     C14499   8.317   4.957  -0.189  0.2565  0.1132  0.4918
  849MOL0     C14500   8.370   4.882  -0.307 -0.2071  0.6198  0.2291
  849MOL0     C14501   8.271   4.771  -0.330  0.0556  0.2509  0.3636
  849MOL0     C14502   8.312   4.671  -0.445  1.1228  0.7286  0.2858
  849MOL0     C14503   8.203   4.562  -0.469 -1.1421 -0.3736 -0.7879
  849MOL0     O14504   8.207   4.491  -0.595 -0.8398 -0.1520  0.2754
  849MOL0     C14505   8.305   4.391  -0.626  0.4173 -0.6183  0.0010
  849MOL0     C14506   8.413   4.362  -0.541  0.1658  0.5361 -0.0184
  849MOL0     C14507   8.483   4.242  -0.566 -0.1286 -0.0736 -0.2451
  849MOL0     C14508   8.467   4.166  -0.680 -0.6210 -0.0259 -0.6040
  849MOL0     C14509   8.546   4.041  -0.709  0.4253  0.4916  0.0035
  849MOL0     O14510   8.523   3.973  -0.819 -0.3365  0.7967  0.2263
  849MOL0     C14511   8.595   3.858  -0.852  0.3476  0.2365  0.8883
  849MOL0     C14512   8.542   3.765  -0.953 -0.1948  0.0271 -0.8314
  849MOL0     C14513   8.605   3.641  -0.981 -0.9431 -0.2233 -0.5040
  849MOL0     C14514   8.723   3.606  -0.917 -0.4016 -0.2638  0.1030
  849MOL0     O14515   8.790   3.485  -0.950 -0.3390 -0.6027  0.0800
  849MOL0     C14516   8.934   3.471  -0.928 -1.0900 -0.2745 -0.7476
  849MOL0     C14517   8.957   3.359  -0.816 -0.1762  0.0495 -0.8543
  849MOL0     C14518   9.096   3.297  -0.821 -0.1757 -0.0948  0.0383
  849MOL0     C14519   9.115   3.193  -0.928  0.2478 -0.7716  0.1511
  849MOL0     C14520   9.254   3.145  -0.926  0.4859 -0.0492  0.5143
  849MOL0     C14521   9.287   3.030  -1.025  0.0915 -0.2227 -0.2666
  849MOL0     C14522   9.253   2.883  -0.981  1.2620  0.3885  0.2932
  849MOL0     C14523   9.309   2.825  -0.850  0.0048 -0.0818  0.5213
  849MOL0    Cl14524   9.265   2.646  -0.848 -0.0140 -0.2944  0.1366
  849MOL0     C14525   8.775   3.694  -0.824  0.5236 -0.2655 -0.1109
  849MOL0     C14526   8.717   3.821  -0.800 -0.1899 -0.4342 -0.0476
  849MOL0     O14527   8.632   4.022  -0.623  0.5572 -0.1085 -0.0704
  849MOL0     C14528   8.368   4.204  -0.771  0.2579 -0.5724  0.3112
  849MOL0     C14529   8.292   4.320  -0.752 -1.3681 -0.8352 -0.8738
  849MOL0     N14530   8.228   5.067  -0.196 -0.2297 -0.5223 -0.7924
  849MOL0     N14531   8.195   5.096  -0.071  0.2995 -0.3759  0.4650
  849MOL0     C14532   8.283   5.086   1.052 -0.6594 -0.1227 -0.0806
  849MOL0     C14533   8.336   5.165   1.159 -0.4003  0.6246 -0.4098
  849MOL0     C14534   8.650   5.304   1.459 -0.9376 -0.2323  0.2064
  849MOL0     C14535   8.577   5.290   1.582  0.8726 -0.5219  0.6467
  849MOL0     C14536   8.614   5.360   1.701 -0.9331  0.4580  0.0120
  849MOL0     C14537   8.732   5.431   1.702  0.1058 -0.2103  1.1089
  849MOL0     O14538   8.769   5.503   1.810  0.5564 -1.5541 -0.4103
  849MOL0     C14539   8.871   5.443   1.896 -0.2181  0.0025  0.1865
  849MOL0     C14540   8.985   5.541   1.948  0.6773 -0.2889  0.1218
  849MOL0     C14541   9.064   5.485   2.065  0.0948  0.4654  0.5687
  849MOL0     C14542   9.150   5.360   2.033  0.4618 -0.0808  0.2888
  849MOL0     C14543   9.185   5.325   1.890 -0.5134 -0.4054 -0.4883
  849MOL0     C14544   9.229   5.308   1.780 -0.0417 -0.4055  0.3520
  849MOL0     C14545   8.812   5.441   1.584 -0.4950  1.4082 -1.2765
  849MOL0     C14546   8.780   5.374   1.457  0.2936 -0.0836 -1.7375
  849MOL0     C14547   8.858   5.413   1.329 -0.7606 -0.1981  0.6535
  849MOL0     H14548   8.577   4.963   1.264  2.2081  2.0538 -1.4906
  849MOL0     H14549   8.493   4.812   1.084  2.8694  1.6104  1.5679
  849MOL0     H14550   8.323   4.703   0.920 -0.3582 -2.2799  0.1543
  849MOL0     H14551   8.177   4.736   1.008 -2.5966 -3.8304 -2.1645
  849MOL0     H14552   8.072   4.803   0.782  0.4703  0.8652  0.7938
  849MOL0     H14553   8.089   4.625   0.811 -0.3343  0.5044  0.5795
  849MOL0     H14554   8.161   4.646   0.590 -0.5148 -0.4343  1.0244
  849MOL0     H14555   8.321   4.680   0.681  0.8421  1.5967  0.9856
  849MOL0     H14556   8.110   4.879   0.586 -0.7096 -0.6128  1.3703
  849MOL0     H14557   8.271   4.901   0.639  0.1767  0.2666 -0.5700
  849MOL0     H14558   8.364   4.779   0.426  0.4173  0.7690 -0.2979
  849MOL0     H14559   8.206   4.780   0.360 -0.4240  1.9293  0.6105
  849MOL0     H14560   8.200   5.032   0.396  2.1648  1.8453  1.8057
  849MOL0     H14561   8.355   5.035   0.457 -0.2076  2.2964 -0.7029
  849MOL0     H14562   8.434   4.946   0.226 -0.1528  1.0735 -0.9270
  849MOL0     H14563   8.384   5.105   0.254 -2.4782  0.7904  1.7896
  849MOL0     H14564   8.214   4.874   0.165 -0.9488 -0.0659  1.7757
  849MOL0     H14565   8.139   5.027   0.193  1.4600  1.5289  1.6590
  849MOL0     H14566   8.401   4.833  -0.022 -0.7612 -1.8331  0.1606
  849MOL0     H14567   8.391   4.944  -0.395  4.3575  1.7344  1.8249
  849MOL0     H14568   8.463   4.828  -0.286 -0.1884 -0.5570 -2.3873
  849MOL0     H14569   8.251   4.723  -0.234  0.4584 -1.2683 -0.2938
  849MOL0     H14570   8.174   4.803  -0.370  0.2458 -1.3375 -1.5317
  849MOL0     H14571   8.411   4.628  -0.425  1.4630  1.9288  1.2837
  849MOL0     H14572   8.305   4.719  -0.542  0.1345 -1.6390 -0.9057
  849MOL0     H14573   8.110   4.618  -0.459 -0.6598  0.8831 -2.8985
  849MOL0     H14574   8.211   4.486  -0.391 -0.6363 -0.6819 -1.1371
  849MOL0     H14575   8.432   4.400  -0.441  0.3735 -3.2392  1.5244
  849MOL0     H14576   8.557   4.219  -0.490  0.1308  2.7868  0.4778
  849MOL0     H14577   8.454   3.799  -1.006 -1.8781 -1.7465  0.6693
  849MOL0     H14578   8.566   3.587  -1.066  1.1640  1.2183 -2.5300
  849MOL0     H14579   8.971   3.425  -1.020 -1.6555 -2.3008 -0.0078
  849MOL0     H14580   8.996   3.559  -0.909  1.3802 -2.1151  0.0663
  849MOL0     H14581   8.939   3.403  -0.718 -0.1943 -2.5565  0.4058
  849MOL0     H14582   8.879   3.283  -0.824  0.6152 -1.0263  0.9922
  849MOL0     H14583   9.168   3.379  -0.825 -1.5333  1.0844 -2.9950
  849MOL0     H14584   9.102   3.249  -0.723 -0.0941 -0.1404  0.0107
  849MOL0     H14585   9.092   3.230  -1.029 -1.4701 -1.3264  0.3171
  849MOL0     H14586   9.041   3.113  -0.922 -2.0681  1.0060 -2.1762
  849MOL0     H14587   9.287   3.115  -0.826 -2.4343  3.1360  2.6620
  849MOL0     H14588   9.316   3.231  -0.953  0.8008  0.2354  2.0513
  849MOL0     H14589   9.235   3.050  -1.119  1.1086 -0.3932 -0.8787
  849MOL0     H14590   9.394   3.032  -1.047  0.3610 -0.9987  0.8490
  849MOL0     H14591   9.280   2.822  -1.068  3.0267  1.9458 -0.3300
  849MOL0     H14592   9.144   2.873  -0.982  1.1038  1.8092  1.3352
  849MOL0     H14593   9.417   2.841  -0.856 -0.1568  0.9851  0.2078
  849MOL0     H14594   9.288   2.891  -0.766  0.1186  2.9530 -1.6489
  849MOL0     H14595   8.870   3.666  -0.779  1.4383  0.5858 -1.4842
  849MOL0     H14596   8.779   3.872  -0.728  1.3236 -1.6995 -0.4027
  849MOL0     H14597   8.361   4.162  -0.871  0.3106 -2.1561  0.9503
  849MOL0     H14598   8.212   4.355  -0.816 -0.8637  0.9891 -0.5857
  849MOL0     H14599   8.215   5.130   0.979 -0.8000 -0.2575 -0.0303
  849MOL0     H14600   8.302   5.267   1.172 -0.4461  0.8896 -2.2953
  849MOL0     H14601   8.480   5.242   1.575 -0.1448  1.2483  1.6409
  849MOL0     H14602   8.548   5.352   1.788  0.3955 -0.2922  0.9832
  849MOL0     H14603   8.918   5.348   1.870 -0.2454 -0.3373  1.3365
  849MOL0     H14604   8.811   5.402   1.978 -0.9574  2.3455  0.9178
  849MOL0     H14605   8.941   5.633   1.988 -3.7476 -3.1274  2.6091
  849MOL0     H14606   9.046   5.565   1.860 -1.0117 -2.9135 -1.9531
  849MOL0     H14607   9.002   5.450   2.147  2.3055 -1.4962  1.5371
  849MOL0     H14608   9.115   5.576   2.096 -2.3626  2.7882 -1.7112
  849MOL0     H14609   9.247   5.353   2.082  1.6664  0.3765 -1.8813
  849MOL0     H14610   9.084   5.282   2.072  1.1840 -0.5906  0.5068
  849MOL0     H14611   9.267   5.311   1.680  0.4358  0.2042  0.5443
  849MOL0     H14612   8.910   5.487   1.598 -0.1300  0.9443 -2.1966
  849MOL0     H14613   8.814   5.475   1.251  4.9563  4.6467  0.5644
  849MOL0     H14614   8.943   5.478   1.352 -1.2431  1.4204 -1.8156
  849MOL0     H14615   8.893   5.324   1.275 -0.2770  1.4690 -1.9280
  850MOL0     O14616  10.420   1.415   2.741 -0.0709  0.1470  0.0499
  850MOL0     C14617  10.490   1.318   2.775  0.8289  0.2791  0.3546
  850MOL0     O14618  10.619   1.311   2.755  0.6897 -0.0859 -0.0996
  850MOL0     C14619  10.680   1.423   2.702  0.3250  0.4710  0.3020
  850MOL0     C14620  10.676   1.449   2.569  0.4959 -0.3948  0.9975
  850MOL0     C14621  10.745   1.567   2.518  0.1040  0.8610 -0.0715
  850MOL0     C14622  10.835   1.641   2.598  0.0740 -0.8283  0.0337
  850MOL0     O14623  10.924   1.734   2.537 -0.2007  0.4947 -0.6264
  850MOL0     C14624  10.978   1.826   2.631 -0.3939  0.3597 -0.0735
  850MOL0     C14625  11.076   1.933   2.584  0.0295  0.5761  0.3383
  850MOL0     C14626  11.012   2.032   2.486  0.5853 -0.3463  0.1328
  850MOL0     C14627  10.944   2.157   2.557  0.0722  0.0279  0.1782
  850MOL0     C14628  10.913   2.281   2.459  0.5800 -0.0403 -0.0992
  850MOL0     C14629  11.043   2.329   2.408 -0.1012 -0.3371  0.9133
  850MOL0     C14630  11.024   2.461   2.341 -0.2407 -0.3515 -0.7817
  850MOL0     C14631  11.131   2.503   2.250 -0.8450 -1.0528  0.7003
  850MOL0     N14632  11.262   2.498   2.309 -0.0362  0.3547  0.4539
  850MOL0     C14633  11.305   2.584   2.404  0.1410  0.6526 -0.7188
  850MOL0     C14634  11.441   2.572   2.400 -0.1237  0.7587  0.3850
  850MOL0     C14635  11.528   2.646   2.489  0.4843 -0.2830  0.7913
  850MOL0     C14636  11.529   2.795   2.459  0.7357  0.1700 -0.0641
  850MOL0     C14637  11.628   2.863   2.564 -0.5524 -0.0370  0.2966
  850MOL0     C14638  11.769   2.876   2.495 -0.4469 -0.2544 -0.4512
  850MOL0     O14639  11.852   2.964   2.571 -0.0883 -0.4660  0.3228
  850MOL0     C14640  11.957   3.011   2.501 -0.2026 -0.3643 -0.9578
  850MOL0     C14641  12.012   2.971   2.376  0.2533 -0.6264  0.0274
  850MOL0     C14642  12.132   3.027   2.335  0.0188 -0.5930 -0.1178
  850MOL0     C14643  12.199   3.126   2.412  0.5665  0.5984  0.5186
  850MOL0     C14644  12.325   3.188   2.358  1.1008  0.0134  0.3720
  850MOL0     O14645  12.360   3.162   2.233 -0.2789  0.5597  0.0286
  850MOL0     C14646  12.475   3.225   2.189  0.0670  0.0162 -0.8824
  850MOL0     C14647  12.482   3.367   2.165  0.9474 -0.3909  0.2710
  850MOL0     C14648  12.599   3.429   2.134  0.4577  0.0439  0.5981
  850MOL0     C14649  12.714   3.356   2.126  1.0578  0.1039  0.5919
  850MOL0     O14650  12.836   3.410   2.105  0.1293 -0.1107 -0.5156
  850MOL0     C14651  12.861   3.542   2.132  0.2618  0.1328 -0.1288
  850MOL0     C14652  13.006   3.578   2.083  0.5403  0.4635 -0.1336
  850MOL0     C14653  13.007   3.590   1.931 -0.4238 -0.2975  0.1808
  850MOL0     C14654  12.895   3.665   1.854  0.1673  0.2678 -0.3670
  850MOL0     C14655  12.950   3.699   1.718  0.2977  0.7710 -0.7610
  850MOL0     C14656  12.865   3.800   1.645  0.0244 -0.3623  0.0288
  850MOL0     C14657  12.842   3.935   1.715  0.0631 -0.1826  0.3110
  850MOL0     C14658  12.815   4.042   1.610 -0.5813  0.0829 -1.3649
  850MOL0    Cl14659  12.966   4.075   1.501  0.0761 -0.1740 -0.2797
  850MOL0     C14660  12.708   3.218   2.129  1.2878  0.6580  0.2194
  850MOL0     C14661  12.592   3.147   2.166  0.0150 -0.2940 -0.0357
  850MOL0     O14662  12.377   3.260   2.432  0.0959 -0.5612 -0.5805
  850MOL0     C14663  12.148   3.168   2.532 -0.4012 -0.6761  0.2169
  850MOL0     C14664  12.028   3.109   2.577  0.6462  0.5735 -0.3356
  850MOL0     N14665  11.476   2.486   2.310  0.1849  0.1065  0.5208
  850MOL0     N14666  11.371   2.438   2.258 -0.1994 -0.0506 -0.1479
  850MOL0     C14667  10.836   1.608   2.733  0.2423 -0.1218 -0.1231
  850MOL0     C14668  10.764   1.504   2.782  0.3881 -0.0515  0.0552
  850MOL0     C14669  10.435   1.184   2.831 -0.0191  0.4918 -0.3797
  850MOL0     C14670  10.520   1.103   2.901 -0.1366  0.0618  0.7896
  850MOL0     C14671  10.478   0.979   2.951 -0.3406 -0.0001  0.7870
  850MOL0     C14672  10.350   0.935   2.940  0.1302 -0.3531  0.1322
  850MOL0     O14673  10.308   0.812   2.986  0.2974 -0.7135 -0.5145
  850MOL0     C14674  10.359   0.776   3.120  0.2745  0.0590 -0.1906
  850MOL0     C14675  10.329   0.878   3.224 -1.1033  0.3566 -0.5321
  850MOL0     C14676  10.182   0.919   3.209  0.5560  0.2304 -0.0278
  850MOL0     C14677  10.103   0.931   3.345  0.0043 -0.6183  0.7879
  850MOL0     C14678  10.089   0.797   3.397 -0.3163 -1.4400  0.2564
  850MOL0     C14679  10.077   0.685   3.431  0.5417  0.4659  0.0728
  850MOL0     C14680  10.258   1.029   2.888 -0.2156  0.1939 -1.0420
  850MOL0     C14681  10.295   1.146   2.825  0.2463  0.1736 -0.0176
  850MOL0     C14682  10.195   1.221   2.743 -0.6810 -0.4457  0.0114
  850MOL0     H14683  10.605   1.394   2.507 -1.3910 -0.0635  2.7618
  850MOL0     H14684  10.739   1.591   2.412 -0.0392 -1.2258 -0.5662
  850MOL0     H14685  10.890   1.876   2.672 -2.9102 -2.4320 -1.6409
  850MOL0     H14686  11.034   1.773   2.709 -1.1935  0.3346  0.4962
  850MOL0     H14687  11.166   1.895   2.535  1.2294  3.3969  0.1062
  850MOL0     H14688  11.113   1.995   2.666 -0.1794  0.8575  0.2246
  850MOL0     H14689  10.946   1.982   2.414  2.9615  0.2635 -2.6563
  850MOL0     H14690  11.104   2.061   2.434  0.4626  0.7734  0.5247
  850MOL0     H14691  10.846   2.126   2.596 -1.1560  0.0211 -2.6412
  850MOL0     H14692  11.018   2.201   2.625  1.1708 -0.2253 -0.8278
  850MOL0     H14693  10.848   2.244   2.379 -3.0483  0.7665  2.2441
  850MOL0     H14694  10.857   2.357   2.515 -4.2299 -2.8101 -0.5848
  850MOL0     H14695  11.116   2.340   2.488  0.0204 -1.7806  1.0283
  850MOL0     H14696  11.079   2.254   2.337 -3.6373 -0.2484 -1.2178
  850MOL0     H14697  11.016   2.538   2.418 -1.6445 -0.3834 -0.8694
  850MOL0     H14698  10.926   2.462   2.291 -0.6777  2.0058 -0.0054
  850MOL0     H14699  11.139   2.435   2.165 -2.0255  0.9029 -1.0787
  850MOL0     H14700  11.121   2.608   2.220 -0.8142 -0.1775  3.4557
  850MOL0     H14701  11.237   2.645   2.463 -1.3726 -1.6339  0.0438
  850MOL0     H14702  11.497   2.636   2.593 -1.3426  0.0542  0.3106
  850MOL0     H14703  11.628   2.602   2.494  0.0525 -1.2263  1.4730
  850MOL0     H14704  11.552   2.804   2.352 -2.8776  0.5455 -0.9262
  850MOL0     H14705  11.427   2.834   2.454  1.3570  1.8042 -1.4311
  850MOL0     H14706  11.637   2.808   2.658 -2.1733  1.9232  1.6820
  850MOL0     H14707  11.594   2.965   2.585 -1.6599 -0.0284 -1.3788
  850MOL0     H14708  11.752   2.903   2.390 -0.9327  3.2377  0.3750
  850MOL0     H14709  11.808   2.774   2.497 -1.8665 -0.9643 -3.4037
  850MOL0     H14710  11.964   2.895   2.314 -2.6148  0.7761  0.3357
  850MOL0     H14711  12.173   2.999   2.238 -2.1990 -1.4136 -0.8863
  850MOL0     H14712  12.389   3.419   2.184  0.8437  0.2278 -1.7353
  850MOL0     H14713  12.589   3.535   2.112 -0.0390 -0.1571 -0.1992
  850MOL0     H14714  12.777   3.598   2.089 -1.7273 -2.6803 -0.1470
  850MOL0     H14715  12.870   3.563   2.239  3.0524  1.2420 -0.4787
  850MOL0     H14716  13.048   3.658   2.145  0.1756  0.6554 -0.1300
  850MOL0     H14717  13.068   3.491   2.106  0.1478  0.2073 -0.0258
  850MOL0     H14718  13.099   3.640   1.902 -1.2415  0.7876 -0.6300
  850MOL0     H14719  13.013   3.489   1.888 -1.5809 -0.5637  0.5991
  850MOL0     H14720  12.863   3.755   1.907 -3.9775 -0.1571 -1.7329
  850MOL0     H14721  12.797   3.616   1.851 -0.5625  1.6137  0.2833
  850MOL0     H14722  12.944   3.607   1.659  2.0074  0.6455 -0.7959
  850MOL0     H14723  13.047   3.750   1.719 -0.7689  2.9032  1.0045
  850MOL0     H14724  12.925   3.825   1.558 -2.1031  4.9547 -0.2721
  850MOL0     H14725  12.773   3.765   1.598 -0.1115  3.0783 -2.5832
  850MOL0     H14726  12.931   3.964   1.773 -1.6769  0.6301  2.7158
  850MOL0     H14727  12.755   3.928   1.780  0.2136  0.2367  0.5570
  850MOL0     H14728  12.732   4.001   1.552  0.4174 -2.9143 -0.8655
  850MOL0     H14729  12.777   4.133   1.657  1.4945  1.1107 -1.5380
  850MOL0     H14730  12.790   3.153   2.100  0.8390  0.2722 -0.2309
  850MOL0     H14731  12.577   3.040   2.178  1.4774 -0.2860  2.4448
  850MOL0     H14732  12.198   3.236   2.600 -1.4327 -2.3173  2.7614
  850MOL0     H14733  11.977   3.140   2.668 -3.3034 -2.6991 -1.1835
  850MOL0     H14734  10.883   1.666   2.812  0.0653  2.2630 -1.6768
  850MOL0     H14735  10.761   1.469   2.885 -2.0758 -1.2934 -0.3585
  850MOL0     H14736  10.610   1.155   2.933 -2.1122  4.0583  0.5388
  850MOL0     H14737  10.550   0.928   3.013 -0.1204 -0.4271  0.1923
  850MOL0     H14738  10.465   0.753   3.103  0.6439  1.9648 -0.7114
  850MOL0     H14739  10.304   0.685   3.146  0.7724  0.0434  0.8577
  850MOL0     H14740  10.392   0.967   3.212 -0.0321 -0.3820 -0.4800
  850MOL0     H14741  10.343   0.835   3.324 -3.3962 -1.7811 -1.0527
  850MOL0     H14742  10.125   0.857   3.139  3.1007 -2.1197 -0.1900
  850MOL0     H14743  10.184   1.021   3.169 -2.7641  2.8457  5.2633
  850MOL0     H14744  10.178   0.978   3.410 -0.2494 -1.1864  1.4917
  850MOL0     H14745  10.013   0.993   3.338  1.4979  1.6391  0.1947
  850MOL0     H14746  10.065   0.582   3.458 -0.9096 -0.3744 -3.2872
  850MOL0     H14747  10.155   0.995   2.889 -1.3077  3.1932 -0.5037
  850MOL0     H14748  10.123   1.158   2.690  0.8015  0.5385 -3.4650
  850MOL0     H14749  10.133   1.293   2.799  0.2283 -0.6590  1.3429
  850MOL0     H14750  10.238   1.284   2.664 -2.4881  3.2643  1.7011
  851MOL0     O14751  11.310   3.526   8.986  1.2267  0.3965 -0.7516
  851MOL0     C14752  11.365   3.443   9.054  0.9933  0.5217  0.6352
  851MOL0     O14753  11.361   3.310   9.027 -0.2977 -0.2918  0.0305
  851MOL0     C14754  11.327   3.260   8.907 -0.3162  0.1303  0.0999
  851MOL0     C14755  11.337   3.326   8.784 -1.1127 -0.7843  0.8006
  851MOL0     C14756  11.309   3.250   8.665  0.3442 -0.1140  0.0621
  851MOL0     C14757  11.263   3.122   8.671 -0.6566 -0.6528  0.6082
  851MOL0     O14758  11.245   3.071   8.548  0.5470  0.5172 -0.4715
  851MOL0     C14759  11.164   2.958   8.517  0.0356  0.6943 -0.1851
  851MOL0     C14760  11.164   2.966   8.364  0.5347  0.6365 -1.2220
  851MOL0     C14761  11.125   2.844   8.290  0.5486  0.8763  0.0225
  851MOL0     C14762  11.264   2.777   8.246  0.8553 -0.9061  0.5014
  851MOL0     C14763  11.260   2.662   8.155 -0.3968 -0.3776 -0.5198
  851MOL0     C14764  11.233   2.531   8.228  0.1265  0.3725 -0.6665
  851MOL0     C14765  11.230   2.409   8.128  0.8696  0.8192  0.5815
  851MOL0     C14766  11.205   2.277   8.214  0.5040 -0.4527  0.2519
  851MOL0     N14767  11.223   2.170   8.118 -0.1669 -0.2850  1.2354
  851MOL0     C14768  11.118   2.141   8.042 -0.1236  0.4272 -0.3197
  851MOL0     C14769  11.159   2.049   7.946 -1.2577 -0.7727  0.2837
  851MOL0     C14770  11.069   1.978   7.848  0.2068  0.7050  1.3562
  851MOL0     C14771  10.977   1.869   7.906 -0.1496 -0.3515  0.2809
  851MOL0     C14772  11.047   1.765   7.990  0.2957 -0.3337  0.8648
  851MOL0     C14773  10.939   1.653   8.037  0.3861 -0.3365  0.2884
  851MOL0     O14774  10.889   1.571   7.931  0.2202  0.1571  0.2006
  851MOL0     C14775  10.782   1.485   7.945  0.8034  0.5884 -1.1856
  851MOL0     C14776  10.692   1.482   8.057 -0.0237  0.0581 -0.8122
  851MOL0     C14777  10.579   1.402   8.050  0.4523  0.1756  0.1292
  851MOL0     C14778  10.550   1.315   7.934 -0.3808 -0.7639 -0.9519
  851MOL0     C14779  10.441   1.221   7.940  0.1917  0.2225 -0.0288
  851MOL0     O14780  10.390   1.185   7.821  0.4063  0.6602  0.3702
  851MOL0     C14781  10.258   1.131   7.826 -0.5168  0.4502  0.1307
  851MOL0     C14782  10.222   1.062   7.707 -0.0635  0.3432  0.2714
  851MOL0     C14783  10.092   1.026   7.680  0.3296 -0.6190 -0.0618
  851MOL0     C14784   9.994   1.063   7.771 -0.4295  0.4603  0.4163
  851MOL0     O14785   9.871   1.026   7.737 -0.1724  0.0315 -0.0839
  851MOL0     C14786   9.814   0.935   7.816 -0.1131  0.5457 -0.3255
  851MOL0     C14787   9.678   0.896   7.758  0.1506  0.1509 -0.6545
  851MOL0     C14788   9.579   1.016   7.759 -0.5308 -0.3822 -0.5334
  851MOL0     C14789   9.439   0.974   7.703  0.6145  1.4069  0.0449
  851MOL0     C14790   9.353   1.095   7.680  0.1988  0.9664 -0.5821
  851MOL0     C14791   9.217   1.052   7.628  0.6222 -0.1261 -0.2611
  851MOL0     C14792   9.110   1.157   7.593  0.0999 -1.3871  0.7799
  851MOL0     C14793   9.104   1.278   7.698 -0.0824 -0.0940 -0.0419
  851MOL0    Cl14794   9.209   1.417   7.630 -0.2260  0.0956  0.2531
  851MOL0     C14795  10.023   1.125   7.893 -0.4869  0.4505 -0.0713
  851MOL0     C14796  10.157   1.166   7.921 -0.3373 -0.0409  1.2004
  851MOL0     O14797  10.406   1.203   8.056  0.4231  0.2312 -0.2510
  851MOL0     C14798  10.640   1.323   7.829  0.1817 -0.8217  0.5019
  851MOL0     C14799  10.748   1.399   7.834  0.8884 -0.8725 -0.6496
  851MOL0     N14800  11.290   2.031   7.963 -0.6385 -0.2663 -0.1259
  851MOL0     N14801  11.328   2.111   8.062 -0.0936  0.3839 -0.3513
  851MOL0     C14802  11.243   3.067   8.792  0.4405 -0.0483  0.4097
  851MOL0     C14803  11.276   3.130   8.906 -0.3222 -0.6231 -0.8017
  851MOL0     C14804  11.445   3.487   9.164  1.0712 -0.9877 -0.1282
  851MOL0     C14805  11.477   3.624   9.169 -0.0145  0.7778 -0.1272
  851MOL0     C14806  11.555   3.669   9.274  0.9226 -0.5027  0.2935
  851MOL0     C14807  11.602   3.592   9.379  0.7607  0.1950  0.0689
  851MOL0     O14808  11.672   3.643   9.486  0.4787  1.2275  0.3811
  851MOL0     C14809  11.718   3.784   9.478  0.4733 -0.1504  0.6679
  851MOL0     C14810  11.809   3.834   9.601  0.9346  0.1255  0.3327
  851MOL0     C14811  11.889   3.963   9.567 -0.4897 -0.7029 -0.0193
  851MOL0     C14812  11.812   4.086   9.619  0.1458  1.0564  0.2964
  851MOL0     C14813  11.676   4.100   9.557  0.6941 -1.5961 -0.0952
  851MOL0     C14814  11.557   4.111   9.525 -0.4365 -0.2887  0.3020
  851MOL0     C14815  11.567   3.455   9.375  0.6954 -0.1426 -0.2822
  851MOL0     C14816  11.484   3.403   9.280  0.9873 -0.3823  0.5371
  851MOL0     C14817  11.453   3.261   9.291  0.5382  0.4197 -0.1118
  851MOL0     H14818  11.358   3.431   8.769  0.1017 -1.1281 -0.1051
  851MOL0     H14819  11.322   3.296   8.568 -0.6337 -2.0241 -1.0208
  851MOL0     H14820  11.204   2.863   8.555  0.4632  0.4238 -1.2621
  851MOL0     H14821  11.061   2.972   8.552  0.7154  2.2927  1.3129
  851MOL0     H14822  11.268   2.991   8.344  1.8306 -3.9756 -1.3989
  851MOL0     H14823  11.092   3.043   8.335 -5.5594 -4.2361 -1.0740
  851MOL0     H14824  11.064   2.876   8.206  2.0020  1.2724 -0.9143
  851MOL0     H14825  11.062   2.772   8.344  0.0796  0.7927 -0.6236
  851MOL0     H14826  11.322   2.853   8.193  1.4226 -0.5982  1.5304
  851MOL0     H14827  11.317   2.757   8.340  2.8329  0.5037 -0.2446
  851MOL0     H14828  11.179   2.677   8.083 -1.0087 -0.9438  0.0289
  851MOL0     H14829  11.357   2.647   8.107 -0.3023  0.0172 -0.4565
  851MOL0     H14830  11.310   2.516   8.303  0.3483 -1.5676 -1.2314
  851MOL0     H14831  11.137   2.536   8.281  0.2520 -0.9993 -0.2638
  851MOL0     H14832  11.321   2.401   8.068  2.3242  2.6731  2.3915
  851MOL0     H14833  11.144   2.419   8.061  0.9160 -0.2033  0.3483
  851MOL0     H14834  11.288   2.261   8.283 -1.0213 -1.7616  1.8598
  851MOL0     H14835  11.109   2.280   8.266  1.6003 -0.6264  2.4169
  851MOL0     H14836  11.017   2.178   8.052 -0.3591 -0.4963  1.0536
  851MOL0     H14837  11.012   2.044   7.783  2.8989  0.4108 -1.5167
  851MOL0     H14838  11.137   1.927   7.780  1.2191  4.2518 -0.5193
  851MOL0     H14839  10.893   1.911   7.963 -0.3187 -1.9973  1.3156
  851MOL0     H14840  10.920   1.814   7.830 -0.6872 -0.0123  0.4292
  851MOL0     H14841  11.082   1.814   8.082  0.6397  0.3442  0.3851
  851MOL0     H14842  11.138   1.728   7.941  1.2959  3.1710 -0.2680
  851MOL0     H14843  10.853   1.699   8.087 -0.4949 -1.5145 -0.1205
  851MOL0     H14844  10.988   1.596   8.117  3.3058  2.1083  0.4431
  851MOL0     H14845  10.712   1.550   8.139 -0.5277  2.6018 -2.6545
  851MOL0     H14846  10.506   1.410   8.130  0.0077 -2.0828  0.0033
  851MOL0     H14847  10.299   1.051   7.630  0.5809  1.0220  0.8030
  851MOL0     H14848  10.072   0.977   7.585  0.6130 -0.0788 -0.4080
  851MOL0     H14849   9.873   0.843   7.811  1.7124  1.5292  1.5607
  851MOL0     H14850   9.806   0.969   7.920 -0.6332  1.5981 -0.6970
  851MOL0     H14851   9.696   0.861   7.656 -0.6344 -3.2056  0.2304
  851MOL0     H14852   9.642   0.815   7.822  1.8319 -0.5984 -0.6209
  851MOL0     H14853   9.567   1.045   7.864 -0.0485 -2.5124  0.1765
  851MOL0     H14854   9.614   1.088   7.685  0.5305 -2.9652 -2.7028
  851MOL0     H14855   9.401   0.888   7.759  0.9407  0.7268 -0.7650
  851MOL0     H14856   9.446   0.917   7.610  2.4729 -2.6400  2.4058
  851MOL0     H14857   9.377   1.169   7.603 -0.2633  0.2216 -1.4579
  851MOL0     H14858   9.349   1.145   7.778 -2.8832 -2.0452  1.0378
  851MOL0     H14859   9.229   0.996   7.534 -1.4092  1.9416 -1.8375
  851MOL0     H14860   9.173   0.987   7.705  1.7910 -1.2536 -0.4954
  851MOL0     H14861   9.019   1.097   7.596 -0.4962 -0.4756  2.5489
  851MOL0     H14862   9.116   1.185   7.487 -0.9010 -4.6449 -0.2440
  851MOL0     H14863   9.001   1.313   7.713  0.0677 -0.4589  2.1302
  851MOL0     H14864   9.141   1.232   7.790 -1.1104 -0.6706  0.1006
  851MOL0     H14865   9.943   1.155   7.960  0.4649  1.9875  0.4175
  851MOL0     H14866  10.168   1.232   8.006  0.2067  4.0729 -1.7542
  851MOL0     H14867  10.630   1.276   7.732 -0.5038 -0.9561  0.6316
  851MOL0     H14868  10.819   1.396   7.752  1.6752 -1.2004  0.0290
  851MOL0     H14869  11.203   2.967   8.797 -0.6192  0.4033  1.5280
  851MOL0     H14870  11.269   3.077   9.000  0.3527  0.3940 -0.1448
  851MOL0     H14871  11.447   3.691   9.090 -0.1949  0.3129 -0.4618
  851MOL0     H14872  11.561   3.775   9.255 -0.0769 -0.3527  0.7460
  851MOL0     H14873  11.628   3.845   9.484  2.3406  2.6948  2.4418
  851MOL0     H14874  11.773   3.801   9.385 -1.4693  0.6006 -0.3854
  851MOL0     H14875  11.888   3.762   9.625 -1.8174 -3.1242  0.4327
  851MOL0     H14876  11.744   3.849   9.687  1.6649  2.7771  0.5019
  851MOL0     H14877  11.902   3.986   9.461  0.6722  0.7641  0.4112
  851MOL0     H14878  11.988   3.959   9.615  1.3044  0.9237 -3.2579
  851MOL0     H14879  11.794   4.086   9.727 -0.3353  2.9500  0.2431
  851MOL0     H14880  11.876   4.171   9.595 -0.2801  1.3729  0.2708
  851MOL0     H14881  11.453   4.096   9.506 -1.2527  0.8810  3.3182
  851MOL0     H14882  11.600   3.389   9.454  0.6216 -0.2335 -0.3262
  851MOL0     H14883  11.344   3.260   9.284  0.6517 -0.8395 -3.3878
  851MOL0     H14884  11.499   3.199   9.214  0.4631 -0.8343  0.8256
  851MOL0     H14885  11.475   3.220   9.390 -0.0919 -2.3103 -1.0331
  852MOL0     O14886   1.546  10.964   9.176  0.8944 -0.0100  0.0198
  852MOL0     C14887   1.540  10.978   9.299 -0.0151 -1.1305  0.0194
  852MOL0     O14888   1.426  10.990   9.366 -0.7172 -0.7333 -0.1290
  852MOL0     C14889   1.304  11.005   9.307  0.2391  0.7504 -0.6132
  852MOL0     C14890   1.256  10.931   9.201  0.3415 -0.3787 -0.1696
  852MOL0     C14891   1.125  10.933   9.162 -0.1118 -0.1086  0.2363
  852MOL0     C14892   1.028  11.005   9.238  0.8605 -0.2336 -0.4801
  852MOL0     O14893   0.897  11.017   9.219  0.2099 -0.9210  0.5551
  852MOL0     C14894   0.835  10.943   9.116  0.0393 -0.3243 -0.9188
  852MOL0     C14895   0.682  10.952   9.108 -0.4783  0.6829 -0.8179
  852MOL0     C14896   0.622  11.095   9.073 -0.5628  0.4685 -0.2316
  852MOL0     C14897   0.587  11.110   8.918 -0.4763  0.2593  0.9193
  852MOL0     C14898   0.578  11.256   8.884 -0.3207 -1.2949  0.1544
  852MOL0     C14899   0.541  11.294   8.734 -0.2546 -0.0536 -0.1460
  852MOL0     C14900   0.391  11.273   8.712 -1.1245  0.1241 -0.6350
  852MOL0     C14901   0.352  11.282   8.567  0.1520 -0.7945 -0.0303
  852MOL0     N14902   0.389  11.405   8.494 -0.2828 -0.4167  0.2651
  852MOL0     C14903   0.381  11.527   8.553  0.1167 -0.1629 -0.3386
  852MOL0     C14904   0.431  11.612   8.465  0.5559 -0.6647  0.4498
  852MOL0     C14905   0.451  11.761   8.493 -0.1937  0.1299  0.5390
  852MOL0     C14906   0.361  11.844   8.405  0.0678 -0.8739  0.1456
  852MOL0     C14907   0.384  11.818   8.250  0.2768 -0.0009  0.1618
  852MOL0     C14908   0.415  11.941   8.170 -0.4447  0.3495  0.3890
  852MOL0     O14909   0.559  11.959   8.178  0.2619  0.0866  0.0488
  852MOL0     C14910   0.618  12.076   8.128 -0.1973  0.0320 -0.2531
  852MOL0     C14911   0.746  12.108   8.173  0.9322  0.5883  0.2673
  852MOL0     C14912   0.809  12.222   8.136  0.4956 -0.6819 -0.0322
  852MOL0     C14913   0.741  12.316   8.050 -0.9630 -0.3005  0.1098
  852MOL0     C14914   0.791  12.443   8.005 -0.4420 -1.1522 -0.1297
  852MOL0     O14915   0.924  12.477   8.034 -0.3768  0.1301  0.4581
  852MOL0     C14916   0.979  12.593   7.982 -0.4411 -1.2908  0.2100
  852MOL0     C14917   1.116  12.587   7.947  0.0368 -0.1665  0.4211
  852MOL0     C14918   1.193  12.688   7.895 -0.4674 -0.1223  0.3058
  852MOL0     C14919   1.132  12.813   7.883  0.1212  0.5024 -0.7178
  852MOL0     O14920   1.211  12.914   7.834  0.0869 -0.4714 -0.4958
  852MOL0     C14921   1.143  13.028   7.783 -0.3504 -0.0311  0.5980
  852MOL0     C14922   1.224  13.110   7.674 -0.2323  0.4515  0.5195
  852MOL0     C14923   1.327  13.207   7.738  0.2297  0.1181 -0.0266
  852MOL0     C14924   1.373  13.310   7.637  1.5321 -0.3751  0.0824
  852MOL0     C14925   1.304  13.435   7.662  0.0343  0.2211  0.1335
  852MOL0     C14926   1.339  13.551   7.567 -0.3891  0.0121 -0.1730
  852MOL0     C14927   1.329  13.517   7.421  0.4209 -0.0729 -0.3917
  852MOL0     C14928   1.189  13.476   7.367  1.1703  0.2095 -0.6426
  852MOL0    Cl14929   1.192  13.406   7.199  0.1582  0.0366  0.3719
  852MOL0     C14930   0.993  12.831   7.915  0.0440  0.4987  0.4918
  852MOL0     C14931   0.914  12.719   7.956 -0.6184  0.1578  0.9188
  852MOL0     O14932   0.727  12.508   7.921 -0.9092  0.6636  0.1316
  852MOL0     C14933   0.614  12.282   7.999  0.0219 -1.0032 -1.1286
  852MOL0     C14934   0.543  12.172   8.047 -0.4091  0.5240 -0.3150
  852MOL0     N14935   0.443  11.540   8.346  0.7254 -0.4270 -0.0105
  852MOL0     N14936   0.429  11.415   8.363  0.0780  0.5990 -0.7329
  852MOL0     C14937   1.082  11.077   9.347 -0.7473  0.3866 -0.1627
  852MOL0     C14938   1.218  11.081   9.380 -0.5766 -1.0021  0.6302
  852MOL0     C14939   1.673  11.001   9.366 -0.2078 -0.1940 -0.0492
  852MOL0     C14940   1.794  10.997   9.286 -0.2466  0.7154  0.1349
  852MOL0     C14941   1.929  11.004   9.339  0.1993  0.2969  0.0740
  852MOL0     C14942   1.943  11.039   9.472 -0.2018  0.3624 -0.4280
  852MOL0     O14943   2.072  11.056   9.536  0.1323 -0.3360 -0.4508
  852MOL0     C14944   2.092  11.094   9.673  0.0646  0.3940 -0.1513
  852MOL0     C14945   2.083  10.977   9.772  0.3415 -0.4581  0.1784
  852MOL0     C14946   2.202  10.888   9.727 -0.2549  0.5905 -1.1929
  852MOL0     C14947   2.189  10.754   9.796  0.1260 -0.3720  0.8315
  852MOL0     C14948   2.221  10.771   9.936  0.2932  0.3076 -0.3037
  852MOL0     C14949   2.277  10.770  10.047 -0.1073  0.1171  0.1950
  852MOL0     C14950   1.822  11.048   9.546 -0.0306  0.1486  0.1845
  852MOL0     C14951   1.691  11.041   9.500 -0.7940 -0.0779  0.3879
  852MOL0     C14952   1.584  11.063   9.605 -0.2751 -0.3014 -0.4253
  852MOL0     H14953   1.314  10.862   9.139 -1.4776 -2.2397  0.1017
  852MOL0     H14954   1.093  10.866   9.083  0.9374 -1.6572  1.0802
  852MOL0     H14955   0.872  10.979   9.019 -1.0202  1.6327 -0.6539
  852MOL0     H14956   0.859  10.837   9.127 -2.1983 -0.5791  4.0616
  852MOL0     H14957   0.647  10.905   9.200  1.1086 -1.4808 -1.2143
  852MOL0     H14958   0.658  10.888   9.022 -3.4245  0.7727 -0.1407
  852MOL0     H14959   0.706  11.164   9.081  0.3950 -0.4267 -1.9495
  852MOL0     H14960   0.540  11.123   9.140  1.0705  0.6570  1.7742
  852MOL0     H14961   0.660  11.054   8.859 -0.8218  0.4680  0.2886
  852MOL0     H14962   0.490  11.060   8.919 -0.4472  0.2032  1.3697
  852MOL0     H14963   0.496  11.291   8.947  1.3568 -0.8357  2.1606
  852MOL0     H14964   0.675  11.301   8.906  0.9072 -4.3454  1.6677
  852MOL0     H14965   0.556  11.400   8.711  2.4705 -0.4344 -0.5107
  852MOL0     H14966   0.602  11.230   8.670 -0.5626 -0.5700  0.0717
  852MOL0     H14967   0.331  11.337   8.777 -1.5424 -0.0471 -0.8544
  852MOL0     H14968   0.362  11.172   8.744  2.4882 -0.7501  0.4172
  852MOL0     H14969   0.391  11.194   8.516  1.1101 -0.7471  0.5885
  852MOL0     H14970   0.243  11.269   8.569  0.0552 -0.0308 -0.0297
  852MOL0     H14971   0.346  11.542   8.655 -0.7420  0.4140 -0.7101
  852MOL0     H14972   0.438  11.780   8.600  0.7019 -0.9823  0.8637
  852MOL0     H14973   0.554  11.785   8.467 -0.1965  0.3293  0.7075
  852MOL0     H14974   0.260  11.817   8.434 -0.1464  1.2794  1.5992
  852MOL0     H14975   0.377  11.952   8.410  1.3316 -1.0272 -0.0172
  852MOL0     H14976   0.310  11.753   8.204  2.6076 -1.2415 -2.0822
  852MOL0     H14977   0.472  11.753   8.242  1.8288  1.9343  0.8377
  852MOL0     H14978   0.368  12.035   8.203  1.5940  2.1295 -1.4244
  852MOL0     H14979   0.373  11.918   8.072 -3.5352 -2.6740  2.2090
  852MOL0     H14980   0.790  12.058   8.259  2.1605  2.7264  0.9420
  852MOL0     H14981   0.911  12.242   8.170 -0.1117  1.9385  0.5105
  852MOL0     H14982   1.163  12.494   7.978 -1.3492 -0.2317  2.5844
  852MOL0     H14983   1.301  12.687   7.880  0.1852 -0.0478  3.9359
  852MOL0     H14984   1.045  13.007   7.739 -1.7406  0.8873  3.0175
  852MOL0     H14985   1.131  13.091   7.872  1.8728 -1.6567  2.1645
  852MOL0     H14986   1.253  13.032   7.604 -3.4322 -0.0786 -0.3900
  852MOL0     H14987   1.144  13.171   7.630 -1.2972 -0.9330  0.4447
  852MOL0     H14988   1.283  13.234   7.834 -0.0374 -0.9602  0.1713
  852MOL0     H14989   1.417  13.148   7.756 -1.1733 -1.6069  1.7108
  852MOL0     H14990   1.347  13.266   7.541  0.9774  3.4261 -1.6977
  852MOL0     H14991   1.481  13.325   7.647  1.3278  1.7771 -0.4879
  852MOL0     H14992   1.320  13.455   7.769  3.9797 -4.6622  0.8313
  852MOL0     H14993   1.196  13.427   7.653 -0.2919  2.7183  0.8079
  852MOL0     H14994   1.270  13.635   7.580 -0.5769 -0.2420  0.5116
  852MOL0     H14995   1.441  13.578   7.594 -1.2958  3.1916  0.5535
  852MOL0     H14996   1.396  13.437   7.385  0.8313  0.6609 -1.3015
  852MOL0     H14997   1.367  13.606   7.370  0.9677 -0.0480  0.0461
  852MOL0     H14998   1.149  13.396   7.429 -2.3831  0.4625 -2.3840
  852MOL0     H14999   1.109  13.550   7.361 -1.2549 -2.3148 -1.4282
  852MOL0     H15000   0.948  12.929   7.908 -1.5580 -0.1615  1.0430
  852MOL0     H15001   0.812  12.732   7.988 -0.3649  0.8443  1.4848
  852MOL0     H15002   0.551  12.336   7.928  1.7094 -1.2397 -2.8753
  852MOL0     H15003   0.444  12.156   8.007 -0.4269  0.4634 -0.2475
  852MOL0     H15004   1.021  11.122   9.424  2.6482  1.5576  2.1062
  852MOL0     H15005   1.248  11.129   9.473 -0.5245  1.8751 -0.7689
  852MOL0     H15006   1.793  10.981   9.178 -0.8517 -0.1864  0.2607
  852MOL0     H15007   2.014  10.996   9.272  1.1532  2.3889  0.9301
  852MOL0     H15008   2.011  11.163   9.698  0.3861  0.7758 -0.1455
  852MOL0     H15009   2.190  11.141   9.682 -0.3291  1.3654 -0.7964
  852MOL0     H15010   1.989  10.922   9.762  0.2410 -0.5722  1.5502
  852MOL0     H15011   2.089  11.013   9.875 -0.0319  4.3488 -1.2160
  852MOL0     H15012   2.297  10.940   9.747 -0.5056  0.7760 -0.4431
  852MOL0     H15013   2.191  10.863   9.621  0.9802  2.6084 -1.8783
  852MOL0     H15014   2.087  10.716   9.784  0.1415  0.1297 -1.3273
  852MOL0     H15015   2.257  10.676   9.761  2.2254  1.4711  0.6022
  852MOL0     H15016   2.315  10.761  10.147  0.3309 -0.0625  0.0137
  852MOL0     H15017   1.840  11.075   9.650  3.1020  0.2033 -0.2648
  852MOL0     H15018   1.531  11.157   9.590 -2.1493 -0.8856  1.8038
  852MOL0     H15019   1.515  10.980   9.588  0.6428 -0.5032 -3.9179
  852MOL0     H15020   1.619  11.067   9.708 -2.4053  0.9834  0.3245
  853MOL0     O15021   3.878   6.678   2.627 -0.6495  0.6729 -0.4295
  853MOL0     C15022   3.875   6.789   2.681 -0.8907  0.8027 -0.3685
  853MOL0     O15023   3.826   6.804   2.804  0.0102  0.2666  0.5918
  853MOL0     C15024   3.743   6.710   2.854 -0.0341  0.7136  0.9490
  853MOL0     C15025   3.784   6.641   2.967 -0.6636 -0.3586  0.4661
  853MOL0     C15026   3.709   6.538   3.030 -0.3698  0.0715 -0.8824
  853MOL0     C15027   3.597   6.494   2.966 -0.4742 -0.2493 -0.1970
  853MOL0     O15028   3.535   6.390   3.035 -0.2497  0.0096  0.4554
  853MOL0     C15029   3.432   6.322   2.970  0.8519  0.2173 -0.7070
  853MOL0     C15030   3.357   6.242   3.083  0.3206 -0.2676  0.1367
  853MOL0     C15031   3.290   6.345   3.174 -0.0809 -0.4687  0.5825
  853MOL0     C15032   3.207   6.279   3.285 -0.1906 -0.0046 -0.2923
  853MOL0     C15033   3.165   6.383   3.403  0.5850 -0.3699  0.5431
  853MOL0     C15034   3.095   6.299   3.504  0.7811 -0.4322  0.6344
  853MOL0     C15035   3.041   6.385   3.623 -0.6290  0.3114 -0.2715
  853MOL0     C15036   3.028   6.297   3.749 -0.2817 -0.3304  0.5440
  853MOL0     N15037   2.986   6.370   3.862 -0.0218 -1.2489  0.2103
  853MOL0     C15038   2.859   6.405   3.894  0.8695 -0.0137 -0.0553
  853MOL0     C15039   2.871   6.446   4.022 -0.0506  0.6270 -0.5480
  853MOL0     C15040   2.755   6.496   4.109 -0.2276 -1.3068  0.5101
  853MOL0     C15041   2.787   6.515   4.252  0.4254 -0.0756 -0.2984
  853MOL0     C15042   2.763   6.383   4.330  0.2268  1.2298 -0.3149
  853MOL0     C15043   2.770   6.402   4.486 -0.1716 -0.0306  0.5210
  853MOL0     O15044   2.682   6.503   4.524 -0.2124 -0.5526 -0.1776
  853MOL0     C15045   2.707   6.570   4.637  0.5539 -0.5479 -0.4975
  853MOL0     C15046   2.653   6.687   4.649  0.0800  0.0063 -0.4003
  853MOL0     C15047   2.648   6.766   4.770 -0.0806 -0.7538  0.0524
  853MOL0     C15048   2.695   6.708   4.886  0.3518 -0.1854 -0.1885
  853MOL0     C15049   2.693   6.777   5.017 -0.3411  0.4776  0.7193
  853MOL0     O15050   2.573   6.831   5.072 -0.2059 -0.3624  0.0205
  853MOL0     C15051   2.592   6.897   5.188 -0.6588 -0.6773 -0.2685
  853MOL0     C15052   2.565   6.845   5.316  0.3246  0.3396  0.2272
  853MOL0     C15053   2.612   6.922   5.426  0.7787  0.2754 -0.1091
  853MOL0     C15054   2.651   7.049   5.415  0.0609  0.3890  0.3754
  853MOL0     O15055   2.696   7.114   5.533 -0.2709  0.0010 -0.1376
  853MOL0     C15056   2.616   7.103   5.640  0.1322  0.9994 -0.5829
  853MOL0     C15057   2.568   7.238   5.685  0.0076  0.2777 -0.6650
  853MOL0     C15058   2.522   7.316   5.567  0.5582  0.1291  0.6057
  853MOL0     C15059   2.460   7.454   5.605 -0.0558  0.8922  0.7090
  853MOL0     C15060   2.317   7.451   5.651  0.0726 -0.7512 -0.3483
  853MOL0     C15061   2.223   7.410   5.537  0.0518  0.0466  0.3973
  853MOL0     C15062   2.076   7.434   5.581 -0.1949  0.4210 -0.0427
  853MOL0     C15063   1.969   7.410   5.476  0.0528  0.1188  0.2263
  853MOL0    Cl15064   1.964   7.544   5.363  0.2888 -0.0078  0.3109
  853MOL0     C15065   2.659   7.099   5.287 -0.3733  0.1305  0.5856
  853MOL0     C15066   2.630   7.030   5.179 -0.1028 -0.2825  0.7243
  853MOL0     O15067   2.800   6.759   5.086  0.0766  0.2221 -0.1098
  853MOL0     C15068   2.754   6.578   4.872 -1.0476 -0.1826 -1.3066
  853MOL0     C15069   2.755   6.513   4.747 -0.0206  0.6583 -1.0462
  853MOL0     N15070   2.999   6.425   4.056  0.0581 -0.5984 -0.5494
  853MOL0     N15071   3.067   6.381   3.959 -0.3851  0.4166 -0.3349
  853MOL0     C15072   3.560   6.547   2.839  0.1296  0.5392 -0.3070
  853MOL0     C15073   3.620   6.664   2.789 -0.1276 -0.6704 -0.4545
  853MOL0     C15074   3.947   6.910   2.624  0.5226 -0.3051  0.1947
  853MOL0     C15075   3.982   7.004   2.712  0.5879  0.0002  0.3276
  853MOL0     C15076   4.064   7.111   2.675 -0.0746 -0.4598 -0.0168
  853MOL0     C15077   4.081   7.139   2.544  0.8096  0.0025  0.6236
  853MOL0     O15078   4.147   7.245   2.492 -0.4497  0.6173 -0.1410
  853MOL0     C15079   4.175   7.349   2.587 -0.4336 -0.4851  0.0972
  853MOL0     C15080   4.259   7.456   2.522 -0.5116  0.5643  0.8563
  853MOL0     C15081   4.406   7.440   2.546  0.3628  0.2135 -0.4212
  853MOL0     C15082   4.479   7.527   2.449  0.3051 -0.4518  0.8328
  853MOL0     C15083   4.622   7.512   2.452 -0.4091  0.5636 -0.4474
  853MOL0     C15084   4.744   7.511   2.459 -1.1260  0.6511 -0.2919
  853MOL0     C15085   4.042   7.042   2.454 -0.4591 -1.4178 -0.3585
  853MOL0     C15086   3.976   6.925   2.493  0.6759 -1.3338  0.0557
  853MOL0     C15087   3.939   6.831   2.387  0.0613 -0.3240 -0.0497
  853MOL0     H15088   3.872   6.677   3.020 -1.4573 -3.9342  4.8590
  853MOL0     H15089   3.737   6.511   3.131 -1.4823  2.5952  0.1836
  853MOL0     H15090   3.366   6.392   2.919  1.9650  0.1776 -2.2625
  853MOL0     H15091   3.466   6.244   2.900  2.1952 -0.5652  0.7320
  853MOL0     H15092   3.405   6.156   3.130 -3.5734 -2.6992  0.0747
  853MOL0     H15093   3.271   6.199   3.032  0.6481 -0.8569  0.0677
  853MOL0     H15094   3.226   6.410   3.114  2.5085  2.1596  0.3910
  853MOL0     H15095   3.363   6.416   3.215 -2.4056  2.6572 -0.2501
  853MOL0     H15096   3.119   6.233   3.239 -0.5020 -0.0251  0.3183
  853MOL0     H15097   3.254   6.189   3.326 -1.9478 -0.9426 -0.2513
  853MOL0     H15098   3.255   6.435   3.438 -1.1861  3.1444  0.3589
  853MOL0     H15099   3.109   6.461   3.350 -0.6822 -1.0621  0.8258
  853MOL0     H15100   3.001   6.260   3.462 -0.8449  3.1665  0.5575
  853MOL0     H15101   3.149   6.207   3.531  2.0028 -0.2599 -1.0705
  853MOL0     H15102   2.951   6.441   3.595 -0.3613  0.8443 -0.0775
  853MOL0     H15103   3.112   6.460   3.658 -0.4190 -0.9315  2.1794
  853MOL0     H15104   2.955   6.220   3.720  1.9414 -3.3414  2.3420
  853MOL0     H15105   3.119   6.247   3.783  0.2042  0.7037  0.7876
  853MOL0     H15106   2.770   6.405   3.831  0.2381 -0.2017  0.8232
  853MOL0     H15107   2.721   6.591   4.067  1.2654 -0.3175  1.4628
  853MOL0     H15108   2.667   6.431   4.100 -1.9510  1.1386 -1.7590
  853MOL0     H15109   2.889   6.553   4.268 -1.1939  3.6705  2.6519
  853MOL0     H15110   2.718   6.586   4.299 -0.2121 -0.0004 -1.3168
  853MOL0     H15111   2.834   6.305   4.302 -3.0207 -1.8151 -0.8693
  853MOL0     H15112   2.664   6.341   4.307  0.9132  0.5766 -2.2024
  853MOL0     H15113   2.875   6.426   4.509 -0.7067  3.5131 -0.2044
  853MOL0     H15114   2.750   6.301   4.525  2.8985  0.0428  2.7073
  853MOL0     H15115   2.601   6.713   4.557 -1.9077 -1.6027  0.1939
  853MOL0     H15116   2.600   6.863   4.762 -2.9502 -1.8364  2.3730
  853MOL0     H15117   2.521   6.746   5.314 -0.0698  0.5043 -2.4002
  853MOL0     H15118   2.598   6.866   5.518 -1.3811 -0.6784 -0.9602
  853MOL0     H15119   2.528   7.041   5.624  0.6247 -0.5007  1.8917
  853MOL0     H15120   2.666   7.054   5.725  0.4592  1.1079 -0.7098
  853MOL0     H15121   2.490   7.220   5.760  0.3148  0.1936 -0.3634
  853MOL0     H15122   2.645   7.296   5.737  0.0974 -0.8435  0.5092
  853MOL0     H15123   2.610   7.347   5.510  2.4928 -3.9726  0.9850
  853MOL0     H15124   2.458   7.253   5.505 -0.7346 -2.2255  4.0509
  853MOL0     H15125   2.460   7.512   5.512  2.7266 -0.7033 -0.4215
  853MOL0     H15126   2.524   7.512   5.673 -1.1123  1.8235  0.9443
  853MOL0     H15127   2.298   7.554   5.684  0.9113 -1.5789  3.1006
  853MOL0     H15128   2.298   7.382   5.733 -3.0753  0.1695 -0.1758
  853MOL0     H15129   2.243   7.473   5.450 -0.2348  0.9143  0.9437
  853MOL0     H15130   2.240   7.306   5.507 -0.0763 -0.1287  0.9295
  853MOL0     H15131   2.056   7.536   5.613 -3.2326  0.1229 -0.7055
  853MOL0     H15132   2.048   7.372   5.667 -1.4928  0.6423 -0.2774
  853MOL0     H15133   1.991   7.321   5.417 -0.9608 -1.0773  1.5768
  853MOL0     H15134   1.872   7.395   5.526  0.0191  0.5109  0.2810
  853MOL0     H15135   2.705   7.197   5.281  1.1003 -0.5541  0.1492
  853MOL0     H15136   2.650   7.077   5.083  1.0820  3.4655  2.5917
  853MOL0     H15137   2.796   6.528   4.958  0.8053 -2.1511 -3.2476
  853MOL0     H15138   2.816   6.423   4.757 -2.3781 -0.8513  0.6696
  853MOL0     H15139   3.468   6.516   2.791  0.0467  1.9311 -1.0924
  853MOL0     H15140   3.574   6.703   2.699 -0.8986  1.0379  0.6176
  853MOL0     H15141   3.959   7.010   2.818 -3.0677  2.4771 -0.4262
  853MOL0     H15142   4.112   7.170   2.753  3.3924 -0.4244 -1.9566
  853MOL0     H15143   4.230   7.312   2.674  0.9329 -1.0137 -0.9648
  853MOL0     H15144   4.084   7.404   2.613 -0.4038 -0.5003  0.2340
  853MOL0     H15145   4.229   7.555   2.558 -1.8706  1.6224 -2.7132
  853MOL0     H15146   4.235   7.454   2.415 -0.7187 -0.6097  0.9134
  853MOL0     H15147   4.429   7.335   2.527 -1.0975  0.2195 -2.7195
  853MOL0     H15148   4.433   7.469   2.648  0.0972 -2.4983  0.4962
  853MOL0     H15149   4.439   7.523   2.347 -1.3413  3.4890  1.1636
  853MOL0     H15150   4.462   7.632   2.475  3.5578 -0.0805  1.9279
  853MOL0     H15151   4.851   7.510   2.466 -1.1994  1.0796  1.4726
  853MOL0     H15152   4.065   7.072   2.352 -1.7603  1.4448  0.0962
  853MOL0     H15153   4.002   6.743   2.402  0.3166 -0.3972 -1.4022
  853MOL0     H15154   3.835   6.798   2.395 -0.1377 -0.0042 -1.1360
  853MOL0     H15155   3.957   6.878   2.290 -1.4398  3.9176  1.4994
  854MOL0     O15156   7.743   1.873   9.628 -0.0492 -0.0988 -0.3605
  854MOL0     C15157   7.656   1.846   9.549  1.0231  0.0128 -1.0817
  854MOL0     O15158   7.613   1.930   9.444 -0.1633 -0.2249  0.1837
  854MOL0     C15159   7.650   2.059   9.445 -0.3570  0.5307 -0.1240
  854MOL0     C15160   7.605   2.151   9.540 -0.3098  0.8737  0.1282
  854MOL0     C15161   7.625   2.287   9.520 -0.2345 -0.3391 -0.4222
  854MOL0     C15162   7.696   2.339   9.413 -0.3287  0.0339  0.5647
  854MOL0     O15163   7.726   2.476   9.389  0.5889  0.1146 -0.2798
  854MOL0     C15164   7.666   2.580   9.469  0.2284 -1.0664 -0.1493
  854MOL0     C15165   7.753   2.708   9.454  0.4057  0.9093 -0.2451
  854MOL0     C15166   7.705   2.781   9.333  0.0750 -1.1742 -0.1074
  854MOL0     C15167   7.635   2.908   9.387  0.2480 -0.2165  0.5170
  854MOL0     C15168   7.570   3.003   9.281 -0.3957 -0.3638 -0.2995
  854MOL0     C15169   7.676   3.060   9.179  0.0274  0.1175  0.6494
  854MOL0     C15170   7.592   3.109   9.054  0.0746  0.6812  0.2965
  854MOL0     C15171   7.686   3.148   8.936 -0.6388 -0.6775  0.0895
  854MOL0     N15172   7.735   3.039   8.858 -0.8134  0.1778  0.4213
  854MOL0     C15173   7.663   2.977   8.751 -0.3005  0.0161 -0.2182
  854MOL0     C15174   7.764   2.926   8.680  0.6566 -0.8080  0.1394
  854MOL0     C15175   7.765   2.850   8.547 -0.0189  0.2925  0.3592
  854MOL0     C15176   7.818   2.946   8.431  0.2137  0.6747 -0.3006
  854MOL0     C15177   7.719   3.012   8.332 -0.2574  0.1777 -0.3058
  854MOL0     C15178   7.783   3.105   8.238  0.7467 -0.2740 -0.5677
  854MOL0     O15179   7.840   3.219   8.309  0.1137  0.3342 -0.0258
  854MOL0     C15180   7.822   3.347   8.247 -0.5430  0.8026 -0.8702
  854MOL0     C15181   7.898   3.371   8.136 -0.7708 -0.0353  0.3129
  854MOL0     C15182   7.877   3.488   8.067 -0.3919  0.1123 -0.1872
  854MOL0     C15183   7.780   3.589   8.106  0.0088  0.5598 -0.1962
  854MOL0     C15184   7.783   3.727   8.046 -0.2843  1.0590  0.5783
  854MOL0     O15185   7.709   3.820   8.117  0.0429 -0.0626 -0.2759
  854MOL0     C15186   7.646   3.926   8.053 -0.4054 -0.3691  0.4056
  854MOL0     C15187   7.688   3.994   7.941  0.6746  0.0198 -0.0786
  854MOL0     C15188   7.607   4.089   7.883  0.5925 -0.1268 -0.3082
  854MOL0     C15189   7.492   4.133   7.964 -0.1818 -1.0853  0.5417
  854MOL0     O15190   7.412   4.239   7.928  0.3562 -0.2230 -0.1950
  854MOL0     C15191   7.424   4.305   7.795  0.1067  0.1976 -0.2510
  854MOL0     C15192   7.338   4.427   7.812 -0.0814  0.0974 -0.0897
  854MOL0     C15193   7.302   4.495   7.682  0.5960 -0.3548 -0.7728
  854MOL0     C15194   7.223   4.403   7.575  0.1135 -0.4372 -0.5896
  854MOL0     C15195   7.122   4.307   7.635  0.6427  0.4736  0.1617
  854MOL0     C15196   6.997   4.285   7.546 -0.1663  0.7265  0.3060
  854MOL0     C15197   6.879   4.237   7.628  1.0458 -0.5493  0.6427
  854MOL0     C15198   6.744   4.221   7.559  0.1861  0.4728  1.6046
  854MOL0    Cl15199   6.687   4.375   7.488 -0.0349  0.0707 -0.2680
  854MOL0     C15200   7.460   4.070   8.083  0.1747  0.1078  0.2080
  854MOL0     C15201   7.528   3.963   8.128 -1.2892  0.4636  0.3182
  854MOL0     O15202   7.857   3.748   7.953  0.0682  0.2057  0.2028
  854MOL0     C15203   7.694   3.557   8.213  0.5694 -0.6739  0.3204
  854MOL0     C15204   7.715   3.435   8.283  0.5730  0.8512 -0.1478
  854MOL0     N15205   7.889   2.938   8.748 -0.0562  0.1419  0.1401
  854MOL0     N15206   7.871   3.006   8.855  1.0899  0.7951  1.1741
  854MOL0     C15207   7.750   2.243   9.324 -0.5493 -0.1394  0.1373
  854MOL0     C15208   7.722   2.104   9.341 -0.5355  0.7805 -0.0532
  854MOL0     C15209   7.589   1.715   9.565 -0.2917 -0.3286  0.1728
  854MOL0     C15210   7.495   1.683   9.469  0.1155  0.3100 -0.7135
  854MOL0     C15211   7.419   1.567   9.488  0.9598 -0.0543 -1.0805
  854MOL0     C15212   7.428   1.483   9.600 -0.6767  0.0260 -1.2156
  854MOL0     O15213   7.358   1.365   9.623  0.0400  0.2082 -0.8238
  854MOL0     C15214   7.297   1.312   9.504  0.3807  0.7012 -0.2274
  854MOL0     C15215   7.301   1.167   9.528  0.7995 -0.2258 -1.2147
  854MOL0     C15216   7.441   1.113   9.546 -1.1673  0.1221 -1.0826
  854MOL0     C15217   7.456   0.970   9.502  0.5708  0.1247 -1.0428
  854MOL0     C15218   7.388   0.867   9.575  0.4175 -0.8606  0.1828
  854MOL0     C15219   7.336   0.769   9.627  0.2293  0.3455 -0.2592
  854MOL0     C15220   7.520   1.520   9.693 -0.4459 -0.1695  0.5857
  854MOL0     C15221   7.606   1.634   9.682  0.2492  0.0582  0.3093
  854MOL0     C15222   7.702   1.659   9.801  0.3526  0.3598  0.4934
  854MOL0     H15223   7.555   2.127   9.633  0.7474 -0.1945  0.4523
  854MOL0     H15224   7.587   2.357   9.594  1.5895 -0.2881  0.5034
  854MOL0     H15225   7.564   2.598   9.435  0.2617 -1.6017 -0.5441
  854MOL0     H15226   7.660   2.557   9.576 -0.1667  0.7062  0.2482
  854MOL0     H15227   7.860   2.690   9.442  0.0204 -0.5184 -1.9549
  854MOL0     H15228   7.732   2.760   9.548 -1.9654 -1.5321  0.7276
  854MOL0     H15229   7.620   2.741   9.277  0.9650 -2.8514 -0.3235
  854MOL0     H15230   7.785   2.806   9.263 -1.1841 -1.1749 -1.6036
  854MOL0     H15231   7.564   2.870   9.461 -0.1160  1.9163  1.3163
  854MOL0     H15232   7.704   2.966   9.449 -1.5288 -0.1561  2.5665
  854MOL0     H15233   7.494   2.947   9.227 -2.6030  0.0924  2.1345
  854MOL0     H15234   7.521   3.087   9.333 -0.5866 -0.8946  0.3924
  854MOL0     H15235   7.726   3.143   9.230  3.0506 -2.1562  1.6888
  854MOL0     H15236   7.744   2.983   9.141  0.3778  1.4550 -1.5940
  854MOL0     H15237   7.532   3.191   9.094  1.0225  1.6579 -0.2296
  854MOL0     H15238   7.531   3.032   9.006 -0.6085 -0.2809  2.5556
  854MOL0     H15239   7.638   3.222   8.872 -1.0196 -0.7436  0.2933
  854MOL0     H15240   7.772   3.201   8.979  0.3322  0.9763 -3.4636
  854MOL0     H15241   7.561   2.996   8.719 -0.0074  2.7220  0.1699
  854MOL0     H15242   7.821   2.756   8.558 -2.5353 -1.4439 -0.7544
  854MOL0     H15243   7.664   2.820   8.516 -0.8710 -0.3155  3.3780
  854MOL0     H15244   7.869   3.032   8.477  0.5377 -0.2687  1.1637
  854MOL0     H15245   7.898   2.896   8.376  0.5432  0.4435  0.3666
  854MOL0     H15246   7.641   3.066   8.385  0.7594  0.3217  1.1263
  854MOL0     H15247   7.667   2.946   8.262 -0.3688 -0.8134  0.6808
  854MOL0     H15248   7.710   3.124   8.159  2.2032  0.3085 -1.8465
  854MOL0     H15249   7.866   3.063   8.180  4.0646  4.4116  0.1671
  854MOL0     H15250   7.973   3.303   8.097 -2.5369 -1.1612 -1.3261
  854MOL0     H15251   7.944   3.509   7.985  1.1550  0.3587  1.0964
  854MOL0     H15252   7.782   3.964   7.896 -0.9999 -4.9081 -0.8846
  854MOL0     H15253   7.634   4.140   7.791 -4.3877  2.8085 -0.4877
  854MOL0     H15254   7.522   4.351   7.782 -0.2787  0.9194 -0.6249
  854MOL0     H15255   7.405   4.237   7.711 -2.1786  0.4440  0.0130
  854MOL0     H15256   7.253   4.406   7.878 -1.1089  0.4499 -1.2739
  854MOL0     H15257   7.388   4.502   7.874  0.0271  0.6737 -0.8674
  854MOL0     H15258   7.232   4.568   7.722  0.8507 -1.3504  1.6491
  854MOL0     H15259   7.388   4.543   7.635 -0.0554 -0.5087 -2.1932
  854MOL0     H15260   7.289   4.333   7.523  0.9984 -1.6786  2.0425
  854MOL0     H15261   7.185   4.474   7.501 -0.3549  1.6206  1.4833
  854MOL0     H15262   7.090   4.366   7.722 -0.0154  2.1356 -1.1445
  854MOL0     H15263   7.161   4.213   7.675  0.1260 -0.2547 -1.0020
  854MOL0     H15264   6.979   4.374   7.484 -2.8767 -0.2786 -0.4820
  854MOL0     H15265   7.011   4.209   7.468 -1.1165  1.6104 -0.7656
  854MOL0     H15266   6.878   4.312   7.707  3.6264  2.8189 -2.1955
  854MOL0     H15267   6.895   4.134   7.664  1.8917 -0.6999 -0.1278
  854MOL0     H15268   6.758   4.145   7.482 -1.0876  0.4907  1.3220
  854MOL0     H15269   6.674   4.171   7.628  1.0652 -1.2463  1.2861
  854MOL0     H15270   7.381   4.108   8.147  1.2123  2.1546  0.3634
  854MOL0     H15271   7.514   3.901   8.216  1.5893  0.8818  1.1923
  854MOL0     H15272   7.611   3.612   8.255  0.1649 -2.1201  1.4943
  854MOL0     H15273   7.644   3.396   8.355 -0.0130  0.8815 -0.7054
  854MOL0     H15274   7.814   2.280   9.245 -2.1237  1.0799 -0.6150
  854MOL0     H15275   7.771   2.028   9.282 -3.6842 -1.6665  0.1956
  854MOL0     H15276   7.473   1.746   9.383 -2.2160  0.4230 -0.1067
  854MOL0     H15277   7.332   1.556   9.424  0.4670  1.7709 -0.7923
  854MOL0     H15278   7.355   1.324   9.412 -2.4326 -2.4705 -2.6795
  854MOL0     H15279   7.201   1.358   9.479  1.4125  3.0303 -0.1780
  854MOL0     H15280   7.257   1.126   9.437  2.3622 -0.7178 -1.7786
  854MOL0     H15281   7.242   1.133   9.613  0.7322  0.6347 -0.8990
  854MOL0     H15282   7.463   1.121   9.653 -3.1010  0.7979 -0.6807
  854MOL0     H15283   7.528   1.162   9.501  0.1552 -3.1204 -2.3730
  854MOL0     H15284   7.428   0.968   9.396  0.6279  0.6631 -1.0712
  854MOL0     H15285   7.559   0.935   9.507  0.4431 -0.3742 -1.7371
  854MOL0     H15286   7.281   0.686   9.667 -2.2241  2.4665  1.0054
  854MOL0     H15287   7.540   1.445   9.769  1.1497  0.8906  1.2843
  854MOL0     H15288   7.663   1.745   9.856  0.6526  0.1586  1.0342
  854MOL0     H15289   7.694   1.579   9.876  1.6397  0.1986  0.4736
  854MOL0     H15290   7.805   1.672   9.766 -0.4200  0.9469 -1.6916
  855MOL0     O15291  10.173   4.737   8.632 -0.0546  0.1892  0.6693
  855MOL0     C15292  10.164   4.625   8.598  0.5000  0.5003  0.0991
  855MOL0     O15293  10.214   4.573   8.484  0.6302 -0.0990 -0.3591
  855MOL0     C15294  10.206   4.648   8.367  1.0983 -0.0767  0.6430
  855MOL0     C15295  10.120   4.769   8.345 -0.6256 -0.0084 -0.2302
  855MOL0     C15296  10.126   4.847   8.241  0.5311 -0.0118 -0.6561
  855MOL0     C15297  10.217   4.829   8.136 -2.1258  0.1652  0.3074
  855MOL0     O15298  10.226   4.916   8.023  0.2481 -0.0945 -0.5712
  855MOL0     C15299  10.313   4.884   7.921  0.0519 -0.3798 -0.2458
  855MOL0     C15300  10.310   4.987   7.816  0.3934 -0.5214  0.5616
  855MOL0     C15301  10.359   5.123   7.871 -0.5357  0.2906  0.0139
  855MOL0     C15302  10.425   5.230   7.778 -0.9858 -0.5126  1.5587
  855MOL0     C15303  10.419   5.376   7.840  0.3466 -0.1011 -0.0461
  855MOL0     C15304  10.419   5.493   7.745  0.3008 -0.1963  0.4999
  855MOL0     C15305  10.555   5.527   7.670  0.3387  0.1515 -0.0725
  855MOL0     C15306  10.655   5.604   7.759  0.1846  0.2860 -0.0768
  855MOL0     N15307  10.620   5.751   7.785 -0.8297 -0.3952  1.2024
  855MOL0     C15308  10.596   5.803   7.906  0.5500  0.4325 -0.5587
  855MOL0     C15309  10.541   5.927   7.893 -0.5258  0.1532 -0.7792
  855MOL0     C15310  10.519   6.025   8.004  0.3731 -0.2585  0.0731
  855MOL0     C15311  10.513   5.946   8.145 -0.5538 -0.8384 -0.6727
  855MOL0     C15312  10.513   6.042   8.265 -0.3391  0.6308  0.3383
  855MOL0     C15313  10.414   6.155   8.262  0.2851  0.0230  0.4401
  855MOL0     O15314  10.281   6.106   8.282  0.2039  0.3839 -0.6085
  855MOL0     C15315  10.184   6.193   8.321 -0.0938 -0.6018  0.2897
  855MOL0     C15316  10.073   6.148   8.374  1.1624 -0.5792 -0.5994
  855MOL0     C15317   9.979   6.233   8.429  0.0703  0.3592  0.5186
  855MOL0     C15318   9.989   6.371   8.413  0.1457  0.4009 -0.6081
  855MOL0     C15319   9.885   6.460   8.466 -0.3783 -0.1488  0.0273
  855MOL0     O15320   9.780   6.407   8.529  0.4654 -1.3061 -0.1476
  855MOL0     C15321   9.689   6.487   8.601 -0.5848 -0.2600 -1.1065
  855MOL0     C15322   9.589   6.569   8.542  0.9380  0.2128  0.2010
  855MOL0     C15323   9.499   6.644   8.615 -0.2303 -0.6465 -0.8555
  855MOL0     C15324   9.510   6.650   8.754 -0.1192 -0.3522 -0.2153
  855MOL0     O15325   9.433   6.727   8.830  0.9736 -0.0257 -0.0094
  855MOL0     C15326   9.401   6.862   8.774 -0.7775  1.6212 -0.1293
  855MOL0     C15327   9.255   6.867   8.767 -0.4958 -0.4287  0.5786
  855MOL0     C15328   9.182   6.874   8.902 -0.9354  0.1201  0.8776
  855MOL0     C15329   9.204   6.999   8.995  0.6918 -1.0419  0.0751
  855MOL0     C15330   9.127   7.119   8.935 -0.3893 -0.5093  0.5473
  855MOL0     C15331   9.161   7.246   8.993  0.7258 -0.3300 -0.3890
  855MOL0     C15332   9.083   7.269   9.123 -1.0432  0.3905  0.1617
  855MOL0     C15333   9.108   7.408   9.185 -0.9631 -0.3084  0.0191
  855MOL0    Cl15334   9.025   7.515   9.074 -0.0074  0.4287 -0.1213
  855MOL0     C15335   9.607   6.570   8.811 -0.2923  0.2105 -0.1924
  855MOL0     C15336   9.687   6.478   8.743  0.5060 -0.6172  0.3830
  855MOL0     O15337   9.910   6.585   8.455  0.2859 -0.0736 -0.2781
  855MOL0     C15338  10.099   6.420   8.335  1.1427  0.0051  0.0385
  855MOL0     C15339  10.192   6.329   8.297 -0.6278 -0.0594 -0.3405
  855MOL0     N15340  10.526   5.950   7.764  0.8039 -0.0351  0.5274
  855MOL0     N15341  10.562   5.849   7.693  0.1103 -0.7323  0.1366
  855MOL0     C15342  10.313   4.726   8.156 -0.0238  0.5117  0.2954
  855MOL0     C15343  10.296   4.633   8.262  0.3426  0.6872  0.0205
  855MOL0     C15344  10.100   4.524   8.686  0.4239 -0.7156  0.6262
  855MOL0     C15345  10.035   4.420   8.620 -0.0631 -0.6394 -0.4218
  855MOL0     C15346   9.965   4.318   8.683  0.2222  0.1277 -0.7183
  855MOL0     C15347   9.967   4.333   8.823 -0.4034 -0.6210 -0.8941
  855MOL0     O15348   9.906   4.244   8.894  0.1617  0.2167 -0.2007
  855MOL0     C15349   9.951   4.106   8.869  0.2616 -0.1938  0.3064
  855MOL0     C15350   9.846   4.040   8.775  0.3879 -0.0374  0.6080
  855MOL0     C15351   9.798   3.907   8.840  0.0990  0.2329 -0.6589
  855MOL0     C15352   9.684   3.857   8.753 -0.5290  0.2433 -0.6366
  855MOL0     C15353   9.614   3.761   8.833 -1.1328 -1.0006 -0.2818
  855MOL0     C15354   9.556   3.672   8.895  0.5462 -0.3661  0.6014
  855MOL0     C15355  10.037   4.432   8.893 -0.2659  0.2011  0.1399
  855MOL0     C15356  10.108   4.522   8.828  0.3862 -0.7394  0.0728
  855MOL0     C15357  10.176   4.625   8.912  0.3646  0.5917 -0.0552
  855MOL0     H15358  10.043   4.780   8.421  0.0504 -5.4400  1.7247
  855MOL0     H15359  10.058   4.927   8.214 -1.0668 -1.7880 -2.1554
  855MOL0     H15360  10.417   4.881   7.953 -0.2321  1.6740  1.0304
  855MOL0     H15361  10.288   4.787   7.878  0.2866 -0.3224 -0.5221
  855MOL0     H15362  10.209   5.005   7.778  0.4857 -1.5534 -0.2199
  855MOL0     H15363  10.367   4.967   7.724 -4.3686  3.3564 -3.8855
  855MOL0     H15364  10.439   5.103   7.943  1.0911  0.5747 -1.6252
  855MOL0     H15365  10.282   5.180   7.924  0.6774 -0.3373  2.6606
  855MOL0     H15366  10.527   5.214   7.743 -1.6100 -0.1729 -0.5325
  855MOL0     H15367  10.373   5.238   7.683 -1.8107 -3.9478  1.6221
  855MOL0     H15368  10.322   5.380   7.889 -0.3487 -0.0030 -1.3756
  855MOL0     H15369  10.500   5.390   7.913 -0.6141 -1.4900  1.3236
  855MOL0     H15370  10.334   5.474   7.679 -1.1667  1.1738  1.8799
  855MOL0     H15371  10.393   5.587   7.795  1.8632  0.6560 -0.1927
  855MOL0     H15372  10.521   5.591   7.588  0.7520 -0.5030 -0.7642
  855MOL0     H15373  10.601   5.437   7.630  0.9707  0.3730  0.1368
  855MOL0     H15374  10.671   5.540   7.846 -0.8353 -0.3541 -0.3337
  855MOL0     H15375  10.753   5.609   7.711  0.8410  1.1459  1.2917
  855MOL0     H15376  10.619   5.753   7.999 -1.5272  0.8827  0.2660
  855MOL0     H15377  10.605   6.092   8.004 -1.4793  2.2752  0.9324
  855MOL0     H15378  10.422   6.075   8.002  0.4395  0.2104  3.1894
  855MOL0     H15379  10.422   5.888   8.165  0.3653 -1.5774  1.7645
  855MOL0     H15380  10.602   5.886   8.166  1.1711  1.7714 -0.0398
  855MOL0     H15381  10.613   6.086   8.273 -0.4933  0.9748  0.3721
  855MOL0     H15382  10.508   5.986   8.359  2.5193  0.0916  0.2580
  855MOL0     H15383  10.417   6.203   8.164 -0.5923 -4.2492 -1.9050
  855MOL0     H15384  10.435   6.230   8.339  1.6972  1.8017 -1.5373
  855MOL0     H15385  10.057   6.041   8.379  0.1295 -0.4264 -0.2927
  855MOL0     H15386   9.889   6.187   8.469 -0.1769 -1.8861 -2.2948
  855MOL0     H15387   9.580   6.570   8.433 -2.4749  1.5084  0.3651
  855MOL0     H15388   9.418   6.690   8.559  0.3915  0.2659 -1.0150
  855MOL0     H15389   9.432   6.934   8.851  1.0648  1.1503 -0.3741
  855MOL0     H15390   9.458   6.893   8.686  3.0434  0.1160  1.5650
  855MOL0     H15391   9.226   6.956   8.711  0.1495 -1.4874 -1.5758
  855MOL0     H15392   9.211   6.785   8.709  0.0721 -0.2974 -0.0578
  855MOL0     H15393   9.076   6.870   8.877 -0.4717  1.3292 -1.5231
  855MOL0     H15394   9.194   6.784   8.964 -0.6587  2.8146  5.1047
  855MOL0     H15395   9.308   7.030   9.007 -0.7340  4.3624  1.5273
  855MOL0     H15396   9.167   6.978   9.096 -0.7791  1.3722  0.1168
  855MOL0     H15397   9.022   7.094   8.948 -0.9073  0.7446 -0.9439
  855MOL0     H15398   9.146   7.113   8.827  0.4019  2.6757  0.4100
  855MOL0     H15399   9.269   7.254   9.004  0.7956  1.9242 -2.1186
  855MOL0     H15400   9.132   7.333   8.934 -0.2642 -0.1746  0.3036
  855MOL0     H15401   9.131   7.194   9.186  0.7267  0.1086 -1.4317
  855MOL0     H15402   8.980   7.234   9.114  0.0328 -3.6026  1.3722
  855MOL0     H15403   9.056   7.404   9.281  0.9851 -3.7488  1.1042
  855MOL0     H15404   9.217   7.419   9.196 -0.7991 -1.2640 -0.5689
  855MOL0     H15405   9.617   6.573   8.919  0.7465  0.9420 -0.2960
  855MOL0     H15406   9.736   6.395   8.793 -0.1697 -1.1101  0.2382
  855MOL0     H15407  10.116   6.526   8.317  1.6520 -0.0009  0.4847
  855MOL0     H15408  10.268   6.375   8.234 -0.5108 -2.3789 -1.9895
  855MOL0     H15409  10.390   4.702   8.084  2.1473  2.0209  1.9780
  855MOL0     H15410  10.369   4.552   8.265 -3.0729 -2.6766  2.4682
  855MOL0     H15411  10.029   4.414   8.512  3.2798 -0.9057 -0.6822
  855MOL0     H15412   9.918   4.238   8.627 -0.0513  1.2856 -2.2070
  855MOL0     H15413   9.946   4.059   8.967  0.8993  0.7720  0.8093
  855MOL0     H15414  10.057   4.098   8.847  0.6655  2.5722  0.8740
  855MOL0     H15415   9.911   4.036   8.687 -0.0216 -0.4161  0.3124
  855MOL0     H15416   9.763   4.109   8.756 -0.0483 -0.3308  1.3980
  855MOL0     H15417   9.771   3.933   8.943  0.5679 -0.5914 -0.3177
  855MOL0     H15418   9.886   3.843   8.847  0.7256  1.2123  0.8998
  855MOL0     H15419   9.614   3.935   8.723 -2.8544 -2.0051 -1.4144
  855MOL0     H15420   9.731   3.807   8.667  0.4455  0.7979 -0.4413
  855MOL0     H15421   9.512   3.581   8.930  0.2620 -1.7548 -2.8947
  855MOL0     H15422  10.043   4.417   9.000  0.1808 -2.3304 -0.1787
  855MOL0     H15423  10.133   4.722   8.887  1.6255  0.6473 -2.3311
  855MOL0     H15424  10.171   4.604   9.019  3.2611  3.5036  0.7802
  855MOL0     H15425  10.281   4.627   8.880  1.7349 -0.0113  3.8831
  856MOL0     O15426   9.505   3.662   1.455 -0.2483 -0.6999  0.1288
  856MOL0     C15427   9.551   3.717   1.352  0.2254  0.0036 -0.0378
  856MOL0     O15428   9.519   3.683   1.230 -0.6363  0.1896  0.7658
  856MOL0     C15429   9.442   3.566   1.208 -0.1719 -0.0790  0.6016
  856MOL0     C15430   9.327   3.536   1.276  0.4660 -0.2101  0.0365
  856MOL0     C15431   9.261   3.426   1.245  0.0067 -0.0294 -0.9376
  856MOL0     C15432   9.301   3.338   1.145 -0.0972 -0.2636 -0.2137
  856MOL0     O15433   9.240   3.220   1.111  0.3523 -0.0671 -0.6440
  856MOL0     C15434   9.143   3.165   1.201  0.2993 -0.8916 -0.0213
  856MOL0     C15435   9.103   3.018   1.169  0.4891 -0.7328  0.1267
  856MOL0     C15436   9.220   2.929   1.123 -0.4812  0.1450  0.0215
  856MOL0     C15437   9.172   2.791   1.092  0.6087  0.2593 -0.2693
  856MOL0     C15438   9.265   2.702   1.005  0.2999 -0.1365  0.4349
  856MOL0     C15439   9.290   2.770   0.875 -0.1079  0.4266  0.9916
  856MOL0     C15440   9.374   2.680   0.779 -0.9410  0.5130  0.6143
  856MOL0     C15441   9.416   2.763   0.661 -0.0255 -0.1133  0.3479
  856MOL0     N15442   9.396   2.687   0.531  0.1690  0.5878 -0.4435
  856MOL0     C15443   9.287   2.697   0.445 -0.6070  0.8665  0.4491
  856MOL0     C15444   9.315   2.614   0.339 -0.3670 -0.1409 -0.2670
  856MOL0     C15445   9.236   2.600   0.205  0.0829 -0.0794 -0.5138
  856MOL0     C15446   9.194   2.740   0.146  0.1751 -0.0854 -0.0750
  856MOL0     C15447   9.315   2.812   0.084  0.6566  0.1134 -0.5918
  856MOL0     C15448   9.286   2.933   0.004 -0.2421  0.6971 -0.9291
  856MOL0     O15449   9.233   2.890  -0.122  0.1399  0.0680 -0.1015
  856MOL0     C15450   9.197   3.004  -0.187 -0.4216 -1.0574  0.5613
  856MOL0     C15451   9.264   3.050  -0.301  0.8913  0.9195 -0.6310
  856MOL0     C15452   9.212   3.159  -0.371  0.0039 -1.7947 -0.8029
  856MOL0     C15453   9.102   3.231  -0.328  0.7876  0.4317  0.0014
  856MOL0     C15454   9.069   3.358  -0.378  0.4536 -0.5241 -0.1805
  856MOL0     O15455   9.013   3.451  -0.291 -0.6707  0.1436  0.5712
  856MOL0     C15456   9.003   3.575  -0.349 -0.8640 -0.8439 -1.3295
  856MOL0     C15457   8.879   3.623  -0.379  0.1134 -1.4543 -0.8584
  856MOL0     C15458   8.868   3.752  -0.430  0.0799 -0.5314  0.7918
  856MOL0     C15459   8.984   3.825  -0.459 -0.1922 -0.2575  0.3331
  856MOL0     O15460   8.990   3.954  -0.512  0.0758  0.0110  0.1979
  856MOL0     C15461   9.002   4.040  -0.395  0.1579 -0.5513  0.4792
  856MOL0     C15462   8.938   4.172  -0.437 -0.6014  0.0079 -0.8953
  856MOL0     C15463   8.970   4.286  -0.338  0.2036  0.6451  0.2211
  856MOL0     C15464   8.852   4.384  -0.314  0.2292 -0.5873 -0.2048
  856MOL0     C15465   8.912   4.512  -0.255 -0.4733 -0.5598  0.0308
  856MOL0     C15466   8.794   4.612  -0.222 -0.0006 -0.1373  0.3092
  856MOL0     C15467   8.770   4.635  -0.071 -0.5011 -0.0516  0.5886
  856MOL0     C15468   8.626   4.677  -0.043  0.3682  0.6776  0.2129
  856MOL0    Cl15469   8.604   4.715   0.139 -0.3956  0.4798  0.3045
  856MOL0     C15470   9.106   3.770  -0.433  0.1884 -0.1041 -0.2254
  856MOL0     C15471   9.119   3.645  -0.374 -1.1038 -0.4620  0.1989
  856MOL0     O15472   9.094   3.380  -0.499 -0.1726 -0.2161  0.3453
  856MOL0     C15473   9.026   3.173  -0.224 -0.4060  0.4286  0.5593
  856MOL0     C15474   9.074   3.062  -0.154 -0.9545  0.4188 -1.0101
  856MOL0     N15475   9.428   2.540   0.364 -0.0264 -0.4290 -0.6992
  856MOL0     N15476   9.480   2.591   0.476 -0.4299  0.3329  0.6413
  856MOL0     C15477   9.407   3.376   1.066 -0.6813  0.4612 -0.4105
  856MOL0     C15478   9.475   3.494   1.087  0.3171 -0.4757 -0.0718
  856MOL0     C15479   9.653   3.823   1.360 -0.0904 -0.5421  0.0221
  856MOL0     C15480   9.728   3.849   1.242 -0.7205  0.2741  0.1330
  856MOL0     C15481   9.837   3.937   1.243 -0.3137 -0.2689 -0.1017
  856MOL0     C15482   9.868   4.003   1.362  0.9353  0.1591  0.4475
  856MOL0     O15483   9.980   4.080   1.365  1.0171  0.6461 -0.2465
  856MOL0     C15484  10.045   4.119   1.490  0.4419  0.3780  0.3493
  856MOL0     C15485  10.199   4.144   1.462  0.8041  0.5558 -0.2080
  856MOL0     C15486  10.237   4.163   1.319 -0.0284 -0.0754  0.2122
  856MOL0     C15487  10.384   4.179   1.298 -0.2597 -0.0387  0.5727
  856MOL0     C15488  10.411   4.238   1.169 -0.3672  0.6174  0.8145
  856MOL0     C15489  10.428   4.288   1.061 -1.0070 -1.0822 -1.6144
  856MOL0     C15490   9.785   3.992   1.473 -0.1431  0.5619  0.3699
  856MOL0     C15491   9.680   3.895   1.475 -0.0205  1.3429 -0.2109
  856MOL0     C15492   9.614   3.869   1.596  0.6282 -1.1179 -1.0028
  856MOL0     H15493   9.281   3.602   1.349 -1.0022 -1.0448 -0.0947
  856MOL0     H15494   9.164   3.418   1.294  1.0868  1.9652  1.7403
  856MOL0     H15495   9.176   3.184   1.304  2.0523  3.1587 -1.1276
  856MOL0     H15496   9.056   3.232   1.195 -0.6722 -2.1962 -1.3123
  856MOL0     H15497   9.024   3.017   1.093  1.3130 -0.2447 -0.7581
  856MOL0     H15498   9.060   2.980   1.262 -0.0124  0.3109  0.3360
  856MOL0     H15499   9.295   2.922   1.202 -1.4676 -2.8930  0.8123
  856MOL0     H15500   9.272   2.980   1.041 -0.9617  0.3469 -0.1602
  856MOL0     H15501   9.145   2.734   1.181  1.3850  0.8082  0.3408
  856MOL0     H15502   9.081   2.805   1.034  0.4610  0.9158  0.1089
  856MOL0     H15503   9.361   2.690   1.056  0.1663 -2.0131  0.2880
  856MOL0     H15504   9.210   2.608   0.994 -1.3595  0.3868  3.3195
  856MOL0     H15505   9.193   2.789   0.827  1.0411  2.2591 -0.7569
  856MOL0     H15506   9.343   2.864   0.891 -0.9380  1.0765  0.0808
  856MOL0     H15507   9.323   2.589   0.747 -0.6941  0.4721  0.3384
  856MOL0     H15508   9.458   2.653   0.844  0.1168 -0.6103 -1.1493
  856MOL0     H15509   9.377   2.865   0.671 -0.4910 -0.5507  4.4042
  856MOL0     H15510   9.524   2.775   0.679  0.3208  0.1045 -1.6026
  856MOL0     H15511   9.196   2.756   0.456 -2.8697 -2.4381  1.0374
  856MOL0     H15512   9.288   2.546   0.126  1.8884  1.2894 -0.3166
  856MOL0     H15513   9.146   2.543   0.231  1.3892 -1.6368  0.8166
  856MOL0     H15514   9.119   2.717   0.070  0.0715  3.3266 -1.1753
  856MOL0     H15515   9.155   2.799   0.229 -0.5724 -2.4490  1.3458
  856MOL0     H15516   9.380   2.746   0.025  2.3891  1.1726  0.0544
  856MOL0     H15517   9.383   2.829   0.168 -0.4996 -0.4862  0.5063
  856MOL0     H15518   9.389   2.965  -0.015  0.3260  1.0325  2.2258
  856MOL0     H15519   9.231   3.012   0.055 -0.7516 -1.7186  2.6672
  856MOL0     H15520   9.348   2.994  -0.341  0.0805 -1.0105  0.2349
  856MOL0     H15521   9.262   3.217  -0.448 -3.1156  1.3048 -0.7221
  856MOL0     H15522   8.781   3.585  -0.353 -1.7424  3.2314 -0.0816
  856MOL0     H15523   8.768   3.793  -0.440  0.0363 -1.1582 -2.0292
  856MOL0     H15524   8.941   3.994  -0.316 -2.2360  0.9083 -0.4103
  856MOL0     H15525   9.105   4.054  -0.361  1.1399 -2.9298 -1.2573
  856MOL0     H15526   8.957   4.212  -0.537 -2.1472  0.0440 -1.1994
  856MOL0     H15527   8.832   4.145  -0.447 -1.0162  1.4920 -0.6377
  856MOL0     H15528   9.013   4.256  -0.241  1.0408  1.3324  0.0810
  856MOL0     H15529   9.053   4.346  -0.377 -1.4233  1.8737 -1.5133
  856MOL0     H15530   8.774   4.342  -0.250 -1.8309  1.4279 -1.2352
  856MOL0     H15531   8.818   4.405  -0.416 -0.2818 -0.5786 -0.0357
  856MOL0     H15532   8.990   4.546  -0.324  4.7377 -2.0221  4.4412
  856MOL0     H15533   8.974   4.496  -0.166  0.1401  1.0678 -0.0616
  856MOL0     H15534   8.820   4.711  -0.262 -2.0148  0.7039  0.9687
  856MOL0     H15535   8.697   4.593  -0.268  1.0048  3.2733 -3.9999
  856MOL0     H15536   8.838   4.713  -0.033  0.8561 -2.1840  2.8849
  856MOL0     H15537   8.796   4.544  -0.016  0.8901  1.2341  2.2062
  856MOL0     H15538   8.599   4.772  -0.090 -0.0026 -0.0822 -1.1701
  856MOL0     H15539   8.565   4.598  -0.088  0.9693 -0.7721  1.8198
  856MOL0     H15540   9.203   3.813  -0.458  0.4002 -0.6542 -0.3644
  856MOL0     H15541   9.218   3.605  -0.352 -1.4566 -0.2728  2.3743
  856MOL0     H15542   8.937   3.230  -0.200  0.5634  2.7372 -1.0487
  856MOL0     H15543   9.035   3.022  -0.061  2.9942 -2.2942 -0.2980
  856MOL0     H15544   9.444   3.322   0.980  1.0656  0.0399  0.5512
  856MOL0     H15545   9.556   3.528   1.023  0.4790 -0.1754  0.2872
  856MOL0     H15546   9.687   3.803   1.153 -1.8783  1.1582  0.1934
  856MOL0     H15547   9.908   3.942   1.161  1.6772  2.9745  1.6091
  856MOL0     H15548  10.014   4.051   1.570 -2.2571  1.1995  0.1143
  856MOL0     H15549   9.995   4.212   1.521 -0.3543  0.0178  0.1655
  856MOL0     H15550  10.249   4.050   1.487 -2.0082 -1.5952 -1.9542
  856MOL0     H15551  10.223   4.227   1.528 -1.9709  0.6982  0.7639
  856MOL0     H15552  10.186   4.254   1.287  0.1831 -0.3946 -1.0621
  856MOL0     H15553  10.205   4.080   1.255 -0.8568 -0.1757  0.7336
  856MOL0     H15554  10.433   4.242   1.372  0.1313  1.0643 -0.5818
  856MOL0     H15555  10.415   4.074   1.301 -1.9769 -0.6762 -1.3231
  856MOL0     H15556  10.454   4.346   0.974  1.6409 -1.5755 -1.2501
  856MOL0     H15557   9.825   4.042   1.561  3.8156  2.1593 -2.0681
  856MOL0     H15558   9.641   3.952   1.662 -0.9106 -1.5118  0.1811
  856MOL0     H15559   9.505   3.874   1.594  0.6784 -0.2118 -2.4763
  856MOL0     H15560   9.652   3.779   1.645 -0.0659 -1.5076 -1.1571
  857MOL0     O15561   1.753   2.821   9.763  0.6238  0.0237  0.1641
  857MOL0     C15562   1.853   2.888   9.790  0.1047  0.0304 -0.4588
  857MOL0     O15563   1.972   2.872   9.720  0.0078  0.2111 -0.4712
  857MOL0     C15564   1.998   2.777   9.624 -0.3168  0.5140  0.1677
  857MOL0     C15565   2.133   2.752   9.618 -0.4902  0.1188 -1.0310
  857MOL0     C15566   2.185   2.668   9.522 -0.9551 -0.0717  0.4919
  857MOL0     C15567   2.106   2.584   9.446  1.2678 -0.7295 -0.1262
  857MOL0     O15568   2.166   2.500   9.355  0.0254  0.1822 -0.0237
  857MOL0     C15569   2.086   2.419   9.268 -0.9788  0.4706 -0.3381
  857MOL0     C15570   2.192   2.358   9.176  0.3830 -0.3130 -0.1935
  857MOL0     C15571   2.146   2.340   9.038  1.1238  0.2370  0.2265
  857MOL0     C15572   2.249   2.268   8.958 -0.3637  0.0741  0.5789
  857MOL0     C15573   2.217   2.262   8.809  0.0282 -0.5885  0.8682
  857MOL0     C15574   2.104   2.160   8.771 -0.9710 -0.2436 -0.1926
  857MOL0     C15575   2.074   2.175   8.622  0.1553  0.5029  1.2168
  857MOL0     C15576   1.962   2.099   8.553 -0.3319  0.7300 -0.5358
  857MOL0     N15577   1.943   1.959   8.597 -0.4640 -0.2036 -0.3874
  857MOL0     C15578   1.960   1.851   8.517 -0.2979  0.2377  0.2048
  857MOL0     C15579   1.931   1.743   8.599 -0.0921 -0.5942 -0.2441
  857MOL0     C15580   1.949   1.601   8.568  0.1824  0.0098 -0.6157
  857MOL0     C15581   2.095   1.574   8.529 -0.7436 -0.0947 -0.3135
  857MOL0     C15582   2.126   1.426   8.514  0.5917  0.1970 -0.4906
  857MOL0     C15583   2.081   1.357   8.386 -0.4465  0.2109  0.2437
  857MOL0     O15584   2.176   1.249   8.354 -0.2192  0.2103 -0.5869
  857MOL0     C15585   2.160   1.175   8.241  0.1706  0.0017  0.1730
  857MOL0     C15586   2.258   1.073   8.213  0.3381  0.5607 -0.2634
  857MOL0     C15587   2.245   0.987   8.106 -0.7818  0.2514  1.0195
  857MOL0     C15588   2.149   1.023   8.003  0.3386  0.0745  0.4973
  857MOL0     C15589   2.132   0.936   7.883 -0.3069  0.5995  0.0763
  857MOL0     O15590   2.013   0.933   7.818 -0.6928 -0.8772 -1.0201
  857MOL0     C15591   2.006   0.881   7.699  0.2915 -0.0394  0.3021
  857MOL0     C15592   2.035   0.958   7.596 -0.0136 -0.6650 -0.1005
  857MOL0     C15593   2.034   0.916   7.462 -0.5709 -0.7850 -0.2766
  857MOL0     C15594   2.017   0.780   7.439 -0.4658  0.0621 -0.0240
  857MOL0     O15595   2.012   0.720   7.319 -0.3280  0.4610 -0.4972
  857MOL0     C15596   2.056   0.795   7.201  0.7289 -0.1206 -0.7398
  857MOL0     C15597   2.055   0.693   7.083  0.4921  0.7776  0.5064
  857MOL0     C15598   2.132   0.569   7.128 -1.3937  0.4186 -0.2273
  857MOL0     C15599   2.138   0.466   7.021  1.5824 -0.7929  0.4119
  857MOL0     C15600   2.175   0.334   7.079  0.2008  0.5678  0.5908
  857MOL0     C15601   2.200   0.234   6.966 -0.6112  0.1284  0.4611
  857MOL0     C15602   2.260   0.089   7.000 -0.2020  0.1929 -0.3294
  857MOL0     C15603   2.161   0.009   7.076 -0.1004  0.1705  0.6016
  857MOL0    Cl15604   2.226  -0.068   7.228  0.4412  0.0185  0.3212
  857MOL0     C15605   1.989   0.698   7.544 -1.1412 -0.4670  0.0104
  857MOL0     C15606   1.978   0.745   7.673  0.3344  0.5313 -0.5772
  857MOL0     O15607   2.231   0.867   7.853  0.1081 -0.0924  0.1096
  857MOL0     C15608   2.050   1.128   8.028  0.1783  0.8467 -1.0057
  857MOL0     C15609   2.053   1.191   8.152 -0.5690 -0.6543  0.1938
  857MOL0     N15610   1.885   1.799   8.714 -0.3795  0.0413 -0.4763
  857MOL0     N15611   1.891   1.928   8.719  0.3172 -0.1134 -0.1965
  857MOL0     C15612   1.965   2.612   9.453  0.1763  1.3441 -0.2339
  857MOL0     C15613   1.913   2.706   9.544 -0.4304 -0.0657  0.2912
  857MOL0     C15614   1.845   2.970   9.908 -0.6482  0.7563 -0.7308
  857MOL0     C15615   1.719   3.010   9.958 -0.5731 -0.0320 -0.1999
  857MOL0     C15616   1.703   3.094  10.064  0.2340  1.0069 -0.0091
  857MOL0     C15617   1.819   3.146  10.132 -1.0145  1.0311 -0.4691
  857MOL0     O15618   1.823   3.209  10.250 -0.4082 -0.5016 -0.4086
  857MOL0     C15619   1.725   3.183  10.345 -0.2494  1.1690  1.0817
  857MOL0     C15620   1.775   3.191  10.486  0.2850  0.8056 -0.8549
  857MOL0     C15621   1.755   3.332  10.547  0.0450  0.9299  0.2806
  857MOL0     C15622   1.767   3.327  10.700 -0.7135 -0.2807 -0.0784
  857MOL0     C15623   1.778   3.469  10.753 -0.7558 -0.4471 -0.4034
  857MOL0     C15624   1.787   3.582  10.790 -0.0787  0.6199  0.3351
  857MOL0     C15625   1.949   3.107  10.084  0.1741 -0.0762 -0.6600
  857MOL0     C15626   1.963   3.029   9.968  0.2585 -0.5170  0.0452
  857MOL0     C15627   2.106   3.007   9.925 -0.6275 -0.5722 -0.2071
  857MOL0     H15628   2.201   2.802   9.686 -1.3667 -1.7292  1.3195
  857MOL0     H15629   2.292   2.652   9.509 -0.8134  0.6882  0.6496
  857MOL0     H15630   2.028   2.346   9.325  1.5176 -0.3358  1.3452
  857MOL0     H15631   2.008   2.473   9.213 -2.8298 -1.5334  0.1449
  857MOL0     H15632   2.203   2.254   9.209 -1.0408 -0.4675 -0.1511
  857MOL0     H15633   2.285   2.414   9.192  0.5603 -1.2762  2.6598
  857MOL0     H15634   2.114   2.434   8.992  0.2594 -1.6044 -3.2511
  857MOL0     H15635   2.063   2.269   9.045  2.2769 -1.1181  0.5513
  857MOL0     H15636   2.350   2.305   8.977 -0.1210 -0.4885  0.4014
  857MOL0     H15637   2.256   2.163   8.988  0.1933 -0.5063 -1.4076
  857MOL0     H15638   2.195   2.354   8.754  3.2891 -3.0132 -5.7033
  857MOL0     H15639   2.310   2.241   8.755 -0.3905 -2.3751  0.7702
  857MOL0     H15640   2.126   2.056   8.797 -0.5201  0.4429  2.5258
  857MOL0     H15641   2.015   2.187   8.829 -0.6657  2.1682 -0.7487
  857MOL0     H15642   2.165   2.137   8.573  0.2931  1.8309  0.3933
  857MOL0     H15643   2.056   2.277   8.586 -1.3166 -0.5658 -1.3843
  857MOL0     H15644   1.870   2.158   8.545 -1.5518 -0.7823  1.2672
  857MOL0     H15645   1.991   2.095   8.448  0.2617  0.2168 -0.3592
  857MOL0     H15646   2.000   1.841   8.417 -1.8643 -0.7885 -0.3571
  857MOL0     H15647   1.940   1.555   8.667 -1.1737 -3.6360 -2.2419
  857MOL0     H15648   1.872   1.563   8.501  0.7746  1.7081 -2.3511
  857MOL0     H15649   2.128   1.617   8.434  3.1689 -0.6302  0.6223
  857MOL0     H15650   2.155   1.617   8.610  0.0599  0.4583 -1.1784
  857MOL0     H15651   2.106   1.372   8.607  1.0575  1.6654  0.4844
  857MOL0     H15652   2.236   1.423   8.520  0.6255  2.3170  1.0196
  857MOL0     H15653   2.086   1.430   8.304 -1.6713 -0.3723 -0.3733
  857MOL0     H15654   1.981   1.316   8.399 -0.3839  0.2985  1.0348
  857MOL0     H15655   2.337   1.060   8.287  1.3316  1.9250 -1.0544
  857MOL0     H15656   2.303   0.897   8.088  1.6502  1.8936 -0.0510
  857MOL0     H15657   2.070   1.058   7.619 -2.9206  0.7674 -1.4970
  857MOL0     H15658   2.058   0.991   7.388 -1.2040  0.8679  1.1426
  857MOL0     H15659   1.992   0.881   7.178 -0.3060 -0.4069  0.9093
  857MOL0     H15660   2.161   0.822   7.216  0.3276  1.8316 -1.0673
  857MOL0     H15661   1.956   0.668   7.044 -1.2380  0.4494  4.6418
  857MOL0     H15662   2.108   0.743   7.002  0.2216  2.0856  1.1063
  857MOL0     H15663   2.233   0.581   7.167 -0.1750  0.1999 -3.0638
  857MOL0     H15664   2.063   0.524   7.200 -0.3419 -5.1883 -2.1696
  857MOL0     H15665   2.204   0.501   6.942  0.2614 -3.5911 -2.1322
  857MOL0     H15666   2.040   0.474   6.975  1.2190  5.2710  1.5270
  857MOL0     H15667   2.095   0.296   7.143 -1.1947  0.9036 -0.8716
  857MOL0     H15668   2.268   0.341   7.136  2.6143 -0.5819 -2.8758
  857MOL0     H15669   2.118   0.237   6.895 -0.4145  0.6791  0.2572
  857MOL0     H15670   2.281   0.278   6.908  0.3240  0.8676  2.2373
  857MOL0     H15671   2.352   0.101   7.059  0.1939  1.1587 -1.1160
  857MOL0     H15672   2.292   0.026   6.917 -0.6772 -2.2358  1.2483
  857MOL0     H15673   2.075   0.072   7.103  0.5874  3.0794 -3.0999
  857MOL0     H15674   2.132  -0.074   7.011  0.7615  1.5467 -1.6470
  857MOL0     H15675   1.960   0.597   7.518 -1.8457 -0.3882  0.4647
  857MOL0     H15676   1.962   0.671   7.751 -0.4219  0.5754 -0.6869
  857MOL0     H15677   1.981   1.158   7.951 -1.2676 -1.5629 -0.7557
  857MOL0     H15678   1.982   1.270   8.173 -2.0571 -1.2669 -2.1010
  857MOL0     H15679   1.899   2.564   9.381  1.8583  0.8195 -1.4951
  857MOL0     H15680   1.806   2.723   9.532 -0.7662 -1.6418  0.8099
  857MOL0     H15681   1.626   2.984   9.909 -0.1178  1.1739 -1.7787
  857MOL0     H15682   1.606   3.114  10.107 -0.1316 -2.1239  0.8516
  857MOL0     H15683   1.697   3.078  10.331 -0.5212  1.5277 -1.6174
  857MOL0     H15684   1.633   3.238  10.324 -0.6031  0.3962  0.5843
  857MOL0     H15685   1.879   3.160  10.491  0.1932 -0.2571 -3.8778
  857MOL0     H15686   1.707   3.133  10.549  1.0458 -0.0685 -0.8181
  857MOL0     H15687   1.659   3.379  10.526  0.1684  0.1383 -2.5359
  857MOL0     H15688   1.842   3.389  10.511 -1.9143  2.9548 -1.5189
  857MOL0     H15689   1.688   3.271  10.751  0.3166 -1.7625 -0.0383
  857MOL0     H15690   1.858   3.268  10.718 -1.0966 -1.6102 -2.1008
  857MOL0     H15691   1.803   3.679  10.833 -0.4607  1.1396 -0.6451
  857MOL0     H15692   2.034   3.150  10.135 -0.6634  1.8638 -0.8263
  857MOL0     H15693   2.171   3.052  10.001 -1.3656 -1.5836  1.0582
  857MOL0     H15694   2.129   2.901   9.914 -2.5594 -0.9543 -0.9280
  857MOL0     H15695   2.126   3.059   9.830 -0.2007  1.1651  0.7781
  858MOL0     O15696  11.189   3.683   4.708  0.2189  0.2716 -0.0484
  858MOL0     C15697  11.237   3.625   4.619 -0.3015 -0.5271  0.3144
  858MOL0     O15698  11.291   3.685   4.504 -0.3487 -0.0511 -0.7512
  858MOL0     C15699  11.276   3.818   4.486 -0.4213 -0.7888  0.7493
  858MOL0     C15700  11.387   3.900   4.488 -0.2890 -0.4443  0.2707
  858MOL0     C15701  11.369   4.035   4.464  0.3948 -0.8091 -1.0925
  858MOL0     C15702  11.239   4.094   4.468 -0.1946  0.1287  0.3075
  858MOL0     O15703  11.216   4.224   4.456  1.1108  0.1630 -0.4365
  858MOL0     C15704  11.318   4.324   4.430  0.5221  0.1287 -0.4949
  858MOL0     C15705  11.247   4.461   4.426  0.4003  0.0507  1.3298
  858MOL0     C15706  11.183   4.519   4.548  0.6654  0.3114  0.4425
  858MOL0     C15707  11.107   4.645   4.506 -0.0451  1.3677 -0.3796
  858MOL0     C15708  11.054   4.721   4.627  0.2430 -0.2170  0.2146
  858MOL0     C15709  10.954   4.840   4.596 -0.3076  0.5047  1.1701
  858MOL0     C15710  10.925   4.914   4.721  0.3305 -0.3906 -0.5808
  858MOL0     C15711  10.824   5.032   4.697  0.3632  0.7172  0.3421
  858MOL0     N15712  10.775   5.090   4.830  0.9440  0.2744  0.2342
  858MOL0     C15713  10.761   5.227   4.856 -0.3089  0.8569 -0.2926
  858MOL0     C15714  10.741   5.233   4.989 -0.3073  0.5762  0.1318
  858MOL0     C15715  10.712   5.351   5.059  0.2838 -0.0102 -0.4909
  858MOL0     C15716  10.571   5.407   5.030  0.3083 -0.1941 -0.1221
  858MOL0     C15717  10.512   5.496   5.143  0.1641 -0.4019  0.2201
  858MOL0     C15718  10.366   5.527   5.102  0.2397 -1.3288  0.3068
  858MOL0     O15719  10.283   5.417   5.138  0.1340 -0.2692 -0.2867
  858MOL0     C15720  10.240   5.396   5.265  0.1411 -0.1668 -0.2692
  858MOL0     C15721  10.134   5.309   5.293  0.4977  0.3497 -0.3416
  858MOL0     C15722  10.092   5.290   5.424  0.2792  1.0043  0.1471
  858MOL0     C15723  10.147   5.355   5.532  0.2282 -0.8367 -0.6147
  858MOL0     C15724  10.096   5.341   5.666  0.6314  0.3939  0.0369
  858MOL0     O15725  10.171   5.391   5.756 -0.5652 -0.8617 -0.3007
  858MOL0     C15726  10.136   5.441   5.879 -0.0345 -0.5440 -0.6460
  858MOL0     C15727  10.237   5.481   5.960 -0.3955  0.3126  0.7997
  858MOL0     C15728  10.215   5.526   6.088  0.1034  0.2960 -0.6747
  858MOL0     C15729  10.096   5.534   6.150 -0.6066 -0.0228 -0.2811
  858MOL0     O15730  10.084   5.592   6.272 -0.1854 -0.4783 -0.2768
  858MOL0     C15731  10.004   5.527   6.367  0.3711  0.9113  0.1320
  858MOL0     C15732  10.062   5.397   6.420  0.2632  0.0878 -0.0531
  858MOL0     C15733   9.990   5.274   6.354  0.4864 -0.2921 -0.3179
  858MOL0     C15734  10.083   5.158   6.312 -0.2108  0.0502  0.5269
  858MOL0     C15735  10.181   5.198   6.198 -0.2891  0.1662  0.1253
  858MOL0     C15736  10.314   5.113   6.209  0.6857  0.1093  0.1289
  858MOL0     C15737  10.440   5.183   6.151  0.3470 -0.3790 -0.3691
  858MOL0     C15738  10.429   5.171   5.997  0.1666 -0.0204 -0.4258
  858MOL0    Cl15739  10.506   5.015   5.926  0.2294 -0.1236  0.5697
  858MOL0     C15740   9.992   5.487   6.077  0.0647  0.0560 -0.1363
  858MOL0     C15741  10.007   5.433   5.944 -0.7390  0.0367 -0.1648
  858MOL0     O15742   9.975   5.291   5.683  0.3933  0.0805 -0.5329
  858MOL0     C15743  10.236   5.460   5.507  0.3233  0.5954  0.2947
  858MOL0     C15744  10.282   5.481   5.375  1.2434 -0.0326 -0.8100
  858MOL0     N15745  10.770   5.104   5.039 -0.3566  0.3508 -0.3178
  858MOL0     N15746  10.785   5.026   4.949  0.2922  0.5647 -0.0624
  858MOL0     C15747  11.129   4.012   4.465 -0.5394 -0.0941 -0.5367
  858MOL0     C15748  11.149   3.874   4.468  0.9477  0.3169  1.0345
  858MOL0     C15749  11.232   3.475   4.628 -0.2107 -0.1569 -1.1417
  858MOL0     C15750  11.279   3.403   4.520  1.2893  0.1245 -0.5198
  858MOL0     C15751  11.273   3.260   4.515 -0.3529 -0.5935 -0.2354
  858MOL0     C15752  11.231   3.188   4.626 -0.0666  0.2968 -0.1921
  858MOL0     O15753  11.247   3.053   4.638 -0.2880  0.1877 -0.2237
  858MOL0     C15754  11.181   2.979   4.539  0.0580 -0.5725  0.0085
  858MOL0     C15755  11.094   2.868   4.597 -1.2286  0.6377 -0.1728
  858MOL0     C15756  11.176   2.756   4.664  0.1025  0.2542  0.8265
  858MOL0     C15757  11.102   2.619   4.681 -0.2781 -0.3413 -0.0402
  858MOL0     C15758  11.204   2.513   4.714  0.4044  0.8703 -0.3749
  858MOL0     C15759  11.308   2.450   4.718  0.6261  0.0012 -0.1479
  858MOL0     C15760  11.185   3.261   4.734  0.5361  0.8869 -0.5343
  858MOL0     C15761  11.172   3.405   4.739 -1.0473  0.3616  0.2398
  858MOL0     C15762  11.122   3.460   4.875  0.2582  0.3992 -0.7960
  858MOL0     H15763  11.485   3.853   4.492  0.2260  0.4405 -1.1818
  858MOL0     H15764  11.460   4.092   4.452 -0.6232  1.0923 -0.2260
  858MOL0     H15765  11.382   4.322   4.518  1.1447 -0.5925 -0.9509
  858MOL0     H15766  11.383   4.307   4.344  0.0874 -3.3168 -0.2747
  858MOL0     H15767  11.172   4.443   4.348  3.0058  0.4571 -1.4843
  858MOL0     H15768  11.300   4.535   4.365  0.9605 -2.0867 -0.9517
  858MOL0     H15769  11.268   4.556   4.606  0.5439  1.8557 -0.3161
  858MOL0     H15770  11.120   4.440   4.590  1.3642 -0.5591 -0.1198
  858MOL0     H15771  11.178   4.704   4.447  0.2099  2.3225  0.8375
  858MOL0     H15772  11.019   4.634   4.443 -0.6730  1.8065  0.4020
  858MOL0     H15773  11.011   4.641   4.688 -0.8851  0.9392  0.9855
  858MOL0     H15774  11.131   4.771   4.686 -1.1989  0.9937  1.1475
  858MOL0     H15775  11.011   4.908   4.533  3.7234 -2.7173  0.9238
  858MOL0     H15776  10.859   4.825   4.542  0.1581 -2.0354  0.9293
  858MOL0     H15777  11.020   4.950   4.761  0.1218 -2.7432  2.3884
  858MOL0     H15778  10.880   4.854   4.801  0.9564  1.0142  0.8936
  858MOL0     H15779  10.869   5.107   4.632  1.1053 -1.3552 -1.6715
  858MOL0     H15780  10.737   4.996   4.641 -1.2977 -0.1678  3.2586
  858MOL0     H15781  10.762   5.309   4.785 -1.2943  1.5894  0.5081
  858MOL0     H15782  10.708   5.335   5.167 -2.5515 -1.6209 -0.7398
  858MOL0     H15783  10.787   5.428   5.036 -0.8363  0.5976 -2.4044
  858MOL0     H15784  10.583   5.461   4.935  0.0750  0.3545  0.1546
  858MOL0     H15785  10.504   5.321   5.039 -0.9456  0.8419  1.0281
  858MOL0     H15786  10.562   5.590   5.170 -3.2407  0.8597  2.9249
  858MOL0     H15787  10.519   5.445   5.240 -0.3523  0.4537  0.7161
  858MOL0     H15788  10.359   5.545   4.995 -0.6379 -2.3443  0.1782
  858MOL0     H15789  10.344   5.621   5.154  1.2119  0.3745 -2.1411
  858MOL0     H15790  10.091   5.247   5.215 -0.4135  0.1625  0.2951
  858MOL0     H15791  10.018   5.213   5.440  1.7873 -0.6496 -0.5199
  858MOL0     H15792  10.339   5.462   5.929 -1.1807 -0.1111 -1.7399
  858MOL0     H15793  10.299   5.568   6.142  2.3068 -2.4063 -1.7940
  858MOL0     H15794  10.012   5.600   6.448  1.7298 -0.1419  0.9971
  858MOL0     H15795   9.902   5.527   6.328  0.3860 -1.0863 -0.0254
  858MOL0     H15796  10.170   5.397   6.406  0.4009  2.0062  0.8171
  858MOL0     H15797  10.041   5.397   6.527 -2.8365  0.6598 -0.5584
  858MOL0     H15798   9.915   5.250   6.430  2.2060  2.6981  2.5953
  858MOL0     H15799   9.936   5.310   6.266 -2.9244  4.0910  3.0665
  858MOL0     H15800  10.012   5.080   6.284  1.4317 -2.4792  2.8775
  858MOL0     H15801  10.138   5.107   6.392  2.2334  0.9527 -0.4954
  858MOL0     H15802  10.212   5.303   6.203  0.9185  0.0062 -2.4205
  858MOL0     H15803  10.138   5.189   6.097  3.0440  5.9982 -2.3484
  858MOL0     H15804  10.337   5.074   6.309  2.6417  1.0653  0.1046
  858MOL0     H15805  10.291   5.023   6.151 -0.1361  0.9680 -0.9097
  858MOL0     H15806  10.526   5.122   6.180 -0.6554 -2.0483 -0.8131
  858MOL0     H15807  10.455   5.283   6.193 -0.6680 -0.7272  0.8926
  858MOL0     H15808  10.330   5.180   5.953 -0.3230 -0.9104  0.4439
  858MOL0     H15809  10.480   5.262   5.964 -0.9588  1.1646  0.9402
  858MOL0     H15810   9.894   5.476   6.123  0.1128 -3.3374 -0.5924
  858MOL0     H15811   9.925   5.387   5.890 -0.7209 -0.3674  0.1469
  858MOL0     H15812  10.291   5.512   5.586  0.2472  1.1428 -0.0113
  858MOL0     H15813  10.357   5.559   5.364 -1.1950  2.6695  0.4997
  858MOL0     H15814  11.029   4.054   4.458 -0.4269  0.5389  1.2185
  858MOL0     H15815  11.062   3.809   4.465  0.2582  1.2263  0.6978
  858MOL0     H15816  11.318   3.447   4.429 -1.3158  0.6839 -1.4499
  858MOL0     H15817  11.307   3.212   4.424  2.7259 -1.2202  1.1109
  858MOL0     H15818  11.253   2.937   4.468 -1.4277 -1.4859 -1.0351
  858MOL0     H15819  11.112   3.053   4.499 -0.8078  0.0574  2.5143
  858MOL0     H15820  11.041   2.809   4.521 -0.1692 -1.0644  0.3538
  858MOL0     H15821  11.024   2.908   4.671  0.0147 -1.6746  2.4372
  858MOL0     H15822  11.237   2.785   4.749  1.3937  0.6271 -0.1921
  858MOL0     H15823  11.249   2.736   4.585 -1.6834 -2.0254 -0.4171
  858MOL0     H15824  11.039   2.625   4.771  2.3790 -3.5636  2.2781
  858MOL0     H15825  11.051   2.590   4.589  0.0641  3.0573 -1.4437
  858MOL0     H15826  11.399   2.402   4.750  0.0319 -1.3528 -0.4071
  858MOL0     H15827  11.147   3.199   4.814  0.0623  0.4116 -1.1201
  858MOL0     H15828  11.194   3.524   4.925 -0.0228  1.8009 -2.1254
  858MOL0     H15829  11.036   3.525   4.853 -2.1415 -1.8682  1.1126
  858MOL0     H15830  11.087   3.393   4.955 -0.4686  3.1679  1.3427
  859MOL0     O15831   6.365   3.742   8.931 -0.3382 -0.4178 -0.0944
  859MOL0     C15832   6.303   3.853   8.945 -1.0150 -0.9765 -0.0362
  859MOL0     O15833   6.174   3.874   8.901  0.4246  1.0385  0.5179
  859MOL0     C15834   6.111   3.770   8.835 -0.0475 -0.0507  0.1344
  859MOL0     C15835   6.053   3.805   8.713 -0.0948 -0.2055  0.8306
  859MOL0     C15836   5.995   3.701   8.634 -0.0596 -0.4977  0.2466
  859MOL0     C15837   6.000   3.570   8.675  0.8434  0.0762  1.5143
  859MOL0     O15838   5.957   3.462   8.605  0.6028 -0.1391 -0.3797
  859MOL0     C15839   5.910   3.482   8.469  0.2131  1.0374  0.1367
  859MOL0     C15840   5.863   3.352   8.403  0.5893  0.0854  0.3766
  859MOL0     C15841   5.809   3.378   8.261  0.7035  0.4901 -0.3059
  859MOL0     C15842   5.890   3.481   8.170  0.8614 -0.0907  0.8690
  859MOL0     C15843   5.859   3.483   8.014  0.4573 -0.1964  0.0950
  859MOL0     C15844   5.712   3.502   7.969  0.1724  0.0732  0.8383
  859MOL0     C15845   5.698   3.535   7.818  0.4766 -0.6762 -0.3040
  859MOL0     C15846   5.553   3.546   7.769  0.6264  0.0552  0.1430
  859MOL0     N15847   5.495   3.663   7.826  0.5176  0.5129 -0.2915
  859MOL0     C15848   5.452   3.763   7.754 -0.1770 -0.4238 -0.0213
  859MOL0     C15849   5.402   3.857   7.839 -1.2170  0.5253  0.4189
  859MOL0     C15850   5.348   3.994   7.801  0.4554 -0.9210 -0.6519
  859MOL0     C15851   5.454   4.072   7.726 -0.6608 -0.5136  0.1169
  859MOL0     C15852   5.446   4.221   7.745  0.7013  0.5111  0.2313
  859MOL0     C15853   5.310   4.283   7.699 -0.1318 -0.3591  0.2631
  859MOL0     O15854   5.233   4.309   7.812 -0.2783  0.0695  0.0471
  859MOL0     C15855   5.156   4.419   7.809  0.1759  0.3614  0.4391
  859MOL0     C15856   5.177   4.532   7.890  0.4928 -0.8742 -0.3799
  859MOL0     C15857   5.093   4.638   7.872  0.3154  1.1037  0.0546
  859MOL0     C15858   4.993   4.647   7.773  0.1922  0.1491 -0.0616
  859MOL0     C15859   4.894   4.753   7.778 -0.5595  0.1013  0.9416
  859MOL0     O15860   4.806   4.762   7.673  0.0316  0.3897  0.1427
  859MOL0     C15861   4.729   4.875   7.648 -0.9269  0.8718 -0.2178
  859MOL0     C15862   4.773   5.005   7.621 -0.3134 -0.7327  0.1298
  859MOL0     C15863   4.680   5.106   7.589  0.5080  0.0203  0.2567
  859MOL0     C15864   4.548   5.073   7.579  0.4644 -0.4956  0.0585
  859MOL0     O15865   4.461   5.174   7.557 -0.1127 -0.6656 -0.2001
  859MOL0     C15866   4.324   5.142   7.539  0.4852 -0.1977 -0.3381
  859MOL0     C15867   4.250   5.267   7.503 -0.4309 -0.2725 -0.3476
  859MOL0     C15868   4.291   5.322   7.360  0.3697  0.2463 -0.3916
  859MOL0     C15869   4.188   5.430   7.324  0.3927  0.2147 -0.1423
  859MOL0     C15870   4.208   5.471   7.174 -0.2671 -1.4053 -0.4584
  859MOL0     C15871   4.099   5.551   7.103 -0.5301  0.3288 -0.5544
  859MOL0     C15872   4.137   5.573   6.962 -1.1091 -0.1187  0.2653
  859MOL0     C15873   4.038   5.678   6.890 -0.5210  0.8902  0.0779
  859MOL0    Cl15874   3.870   5.656   6.962 -0.1822  0.2641 -0.0225
  859MOL0     C15875   4.507   4.948   7.639 -0.6226 -0.1895  0.9623
  859MOL0     C15876   4.595   4.844   7.663  0.1251  0.4480  0.5325
  859MOL0     O15877   4.900   4.833   7.870  1.0616  0.8689 -0.4013
  859MOL0     C15878   4.978   4.540   7.690 -0.3596 -0.4284 -0.0922
  859MOL0     C15879   5.059   4.426   7.708  0.5649 -0.4555  0.0005
  859MOL0     N15880   5.421   3.806   7.967  0.1617 -0.1960 -0.7743
  859MOL0     N15881   5.465   3.685   7.956 -0.1501 -0.3716 -0.2945
  859MOL0     C15882   6.036   3.548   8.804  0.0445 -0.7503  0.6523
  859MOL0     C15883   6.094   3.647   8.882 -0.4920 -0.0597  0.2235
  859MOL0     C15884   6.380   3.970   9.004 -0.0124  1.0855  0.6920
  859MOL0     C15885   6.461   3.940   9.113 -0.3280 -0.6352 -0.4577
  859MOL0     C15886   6.525   4.043   9.184 -0.4820  0.8545 -0.0698
  859MOL0     C15887   6.513   4.168   9.140  0.1950  0.1353 -1.1216
  859MOL0     O15888   6.582   4.271   9.202  0.4184  0.0358 -0.2303
  859MOL0     C15889   6.654   4.354   9.112  0.1875  0.1663  0.0555
  859MOL0     C15890   6.802   4.370   9.164 -0.5555  0.1386 -0.3365
  859MOL0     C15891   6.815   4.420   9.302 -0.2079 -0.5578  0.3388
  859MOL0     C15892   6.837   4.573   9.312 -1.0070 -0.7948  0.2564
  859MOL0     C15893   6.977   4.596   9.281 -0.6717  0.3144 -0.2432
  859MOL0     C15894   7.094   4.605   9.249  0.4720 -0.5073 -0.4671
  859MOL0     C15895   6.416   4.199   9.040  0.5572  0.0576 -0.2209
  859MOL0     C15896   6.353   4.102   8.962 -0.7173  0.4263  0.6523
  859MOL0     C15897   6.269   4.147   8.855 -0.2324 -1.1210  0.5244
  859MOL0     H15898   6.079   3.891   8.652  0.5512 -1.0146 -0.0784
  859MOL0     H15899   5.963   3.739   8.538  3.0499  1.7298 -0.0799
  859MOL0     H15900   5.830   3.557   8.468 -0.5072  0.3174  0.9160
  859MOL0     H15901   5.989   3.525   8.407 -1.6477 -1.0425 -4.0849
  859MOL0     H15902   5.788   3.306   8.467  0.1287  1.6132  0.9803
  859MOL0     H15903   5.947   3.283   8.391  0.7962  0.7792 -3.7097
  859MOL0     H15904   5.701   3.393   8.267  0.4741 -1.3715  2.7542
  859MOL0     H15905   5.811   3.281   8.209 -0.1113  0.4204 -0.2161
  859MOL0     H15906   5.873   3.582   8.211  0.0676  0.1410 -0.0178
  859MOL0     H15907   5.996   3.463   8.192  1.6885  1.5718 -1.3352
  859MOL0     H15908   5.923   3.555   7.962  2.9920 -1.9680  0.5166
  859MOL0     H15909   5.892   3.387   7.971 -2.4120  0.7293 -4.8901
  859MOL0     H15910   5.650   3.413   7.985 -0.2867  0.2786  0.2395
  859MOL0     H15911   5.667   3.585   8.024 -2.7831  0.1491 -1.4156
  859MOL0     H15912   5.756   3.471   7.752  2.4877  1.0674 -0.3356
  859MOL0     H15913   5.744   3.634   7.805  4.1948 -2.0178  1.2208
  859MOL0     H15914   5.524   3.527   7.665 -3.1808 -0.2531  1.0958
  859MOL0     H15915   5.510   3.457   7.816  1.4459 -0.9691 -1.0018
  859MOL0     H15916   5.462   3.771   7.646  0.0293  0.8444  0.0771
  859MOL0     H15917   5.255   3.995   7.744  1.1923 -1.5198 -1.9111
  859MOL0     H15918   5.325   4.047   7.895  0.5501 -1.4851 -0.3080
  859MOL0     H15919   5.551   4.034   7.760 -0.2032 -0.0616 -0.6679
  859MOL0     H15920   5.450   4.041   7.621 -3.2662 -2.5196  0.7050
  859MOL0     H15921   5.526   4.261   7.682  3.1483 -2.0915  1.4165
  859MOL0     H15922   5.462   4.250   7.850 -1.6321 -0.0585  0.7979
  859MOL0     H15923   5.265   4.223   7.620  2.7694  0.5901 -2.3504
  859MOL0     H15924   5.338   4.380   7.656  0.4962 -0.2614  0.8675
  859MOL0     H15925   5.251   4.544   7.969 -1.1721 -4.2997  1.9186
  859MOL0     H15926   5.104   4.728   7.932  1.2811  1.8020 -1.1124
  859MOL0     H15927   4.881   5.017   7.628 -0.2541 -1.5956  0.8220
  859MOL0     H15928   4.722   5.200   7.554 -1.5357  1.0844  0.5001
  859MOL0     H15929   4.311   5.068   7.460 -1.9425  4.2345 -4.6585
  859MOL0     H15930   4.287   5.105   7.635 -0.6416 -0.2096 -0.7638
  859MOL0     H15931   4.142   5.262   7.519 -0.8333  4.0642 -0.6299
  859MOL0     H15932   4.259   5.336   7.587 -0.3972  0.5219 -0.9954
  859MOL0     H15933   4.394   5.359   7.364  0.6655 -0.5087 -0.8393
  859MOL0     H15934   4.287   5.239   7.289  3.4655 -1.5667  1.3456
  859MOL0     H15935   4.198   5.516   7.390  0.7065 -0.4839  0.7337
  859MOL0     H15936   4.083   5.409   7.349 -0.3379  1.9050 -1.5013
  859MOL0     H15937   4.230   5.381   7.115  1.2203 -0.2856 -1.6671
  859MOL0     H15938   4.300   5.529   7.161 -1.1574  0.2320  0.3381
  859MOL0     H15939   4.003   5.498   7.107  0.8430 -2.2854  1.2817
  859MOL0     H15940   4.079   5.645   7.155  0.0673  0.3322 -0.3251
  859MOL0     H15941   4.112   5.477   6.915  0.5716 -0.9663  1.0166
  859MOL0     H15942   4.244   5.590   6.950 -1.2274  0.1235 -0.5775
  859MOL0     H15943   4.081   5.777   6.908 -2.1626  1.7869 -0.7011
  859MOL0     H15944   4.035   5.667   6.781 -0.8268  1.8333 -0.0162
  859MOL0     H15945   4.401   4.931   7.655 -0.8703  0.5634  0.2208
  859MOL0     H15946   4.563   4.743   7.684 -1.8591  0.7349 -0.8875
  859MOL0     H15947   4.894   4.536   7.622 -0.5918 -0.7329  0.2133
  859MOL0     H15948   5.033   4.341   7.646 -1.3344  1.6181 -2.2340
  859MOL0     H15949   6.047   3.451   8.852  0.3576 -1.0260  0.0474
  859MOL0     H15950   6.123   3.640   8.986 -0.8971  1.0244  0.4264
  859MOL0     H15951   6.487   3.842   9.151  0.2321 -0.5545 -0.6125
  859MOL0     H15952   6.594   4.031   9.268  1.4109 -0.9216 -1.7638
  859MOL0     H15953   6.603   4.450   9.106  0.0682  0.2266  1.6692
  859MOL0     H15954   6.655   4.312   9.011 -0.4425  0.1328  0.0585
  859MOL0     H15955   6.854   4.423   9.084 -0.4457 -2.0624 -1.8095
  859MOL0     H15956   6.852   4.273   9.160  1.4171  1.1628 -2.0531
  859MOL0     H15957   6.901   4.376   9.353  2.3393  4.9030  1.4668
  859MOL0     H15958   6.725   4.398   9.361 -0.7106 -0.0425 -0.2125
  859MOL0     H15959   6.779   4.622   9.233 -2.0279 -2.5275 -0.1324
  859MOL0     H15960   6.821   4.611   9.413 -0.0155  3.0228 -0.8566
  859MOL0     H15961   7.198   4.617   9.223  1.2259  0.9981  2.8023
  859MOL0     H15962   6.389   4.302   9.020  0.1942 -0.3759 -2.2733
  859MOL0     H15963   6.174   4.179   8.899 -1.1645 -0.1035 -2.0589
  859MOL0     H15964   6.309   4.228   8.794  0.4800 -0.0388  2.3307
  859MOL0     H15965   6.257   4.070   8.778 -0.4823  0.8050 -1.4246
  860MOL0     O15966   1.951  10.129  11.150 -0.2927 -0.5949  0.6522
  860MOL0     C15967   1.928  10.012  11.172 -0.6218  0.3291  0.3868
  860MOL0     O15968   2.022   9.921  11.188  0.3258  0.3516  0.6789
  860MOL0     C15969   2.154   9.947  11.144  0.2853  0.0071 -0.6081
  860MOL0     C15970   2.205   9.890  11.030  0.0081 -0.0744  0.6122
  860MOL0     C15971   2.337   9.909  10.998  0.3371 -0.3744 -0.7446
  860MOL0     C15972   2.421   9.986  11.075  0.0969  0.3438 -0.7475
  860MOL0     O15973   2.550  10.004  11.031 -0.2839  0.3006  0.3562
  860MOL0     C15974   2.654  10.041  11.118 -0.2716 -1.2083 -0.0082
  860MOL0     C15975   2.672   9.967  11.247 -1.0308 -0.0611  0.2508
  860MOL0     C15976   2.818   9.928  11.285  0.0823 -0.7055 -0.6507
  860MOL0     C15977   2.906   9.852  11.179 -1.3252 -0.6717 -0.2113
  860MOL0     C15978   3.043   9.822  11.252  0.4449  0.8741 -0.7794
  860MOL0     C15979   3.157   9.776  11.159 -0.2116 -1.1078 -0.3047
  860MOL0     C15980   3.139   9.626  11.109 -0.3430  1.1185  0.5719
  860MOL0     C15981   3.268   9.572  11.050 -0.4749  0.3104  0.4643
  860MOL0     N15982   3.264   9.433  11.015  0.1041 -0.0100 -0.3459
  860MOL0     C15983   3.375   9.365  10.999 -0.8725  0.5591 -0.1510
  860MOL0     C15984   3.339   9.241  10.958 -0.7998  0.8380  0.0448
  860MOL0     C15985   3.430   9.116  10.941  0.7943 -0.0935  0.1197
  860MOL0     C15986   3.572   9.130  10.997  0.0914  0.2963 -0.3338
  860MOL0     C15987   3.655   9.227  10.915 -1.1550  0.7320  0.8024
  860MOL0     C15988   3.751   9.309  11.005  0.6200 -0.1112 -0.6004
  860MOL0     O15989   3.818   9.230  11.099  0.0197 -0.7695 -0.3267
  860MOL0     C15990   3.936   9.164  11.077 -0.6173 -0.1332  0.5659
  860MOL0     C15991   4.001   9.168  10.953  0.1656  1.0549 -0.2279
  860MOL0     C15992   4.105   9.082  10.927  0.0114 -1.0689 -1.0377
  860MOL0     C15993   4.165   9.003  11.027 -1.4053 -0.8865 -0.2466
  860MOL0     C15994   4.279   8.902  11.004  0.6200 -0.0925 -0.1842
  860MOL0     O15995   4.338   8.851  11.110 -0.8053 -0.3188 -0.7409
  860MOL0     C15996   4.440   8.758  11.096  0.1431  0.4146 -0.0342
  860MOL0     C15997   4.427   8.630  11.149 -0.1287  0.3200  0.8666
  860MOL0     C15998   4.528   8.530  11.135  0.8061 -0.3487  0.0133
  860MOL0     C15999   4.635   8.563  11.060 -0.2164  0.2776 -0.0560
  860MOL0     O16000   4.726   8.466  11.049 -0.2319 -0.6637  0.2418
  860MOL0     C16001   4.820   8.463  11.153  0.5858  0.3154  0.6669
  860MOL0     C16002   4.959   8.444  11.091 -0.3948  0.0230 -0.4219
  860MOL0     C16003   5.061   8.388  11.187 -0.3268 -0.5777 -0.3324
  860MOL0     C16004   5.194   8.369  11.116 -0.5281  0.8040  0.0934
  860MOL0     C16005   5.305   8.333  11.206  0.3172  0.9712  1.4118
  860MOL0     C16006   5.328   8.435  11.323 -0.4701  0.4210  1.0298
  860MOL0     C16007   5.433   8.377  11.415  0.0033  0.6479 -0.1081
  860MOL0     C16008   5.569   8.361  11.341 -0.9008 -0.4786  0.5514
  860MOL0    Cl16009   5.701   8.365  11.443 -0.2536 -0.1426  0.0874
  860MOL0     C16010   4.652   8.679  11.000  0.1232  0.3044  0.4031
  860MOL0     C16011   4.561   8.787  11.023  0.3696  0.1343  0.4930
  860MOL0     O16012   4.308   8.874  10.890 -0.2449 -0.3130  0.0667
  860MOL0     C16013   4.116   9.014  11.156 -0.0465  0.4757  0.5195
  860MOL0     C16014   3.994   9.087  11.183  0.0462  0.2462  1.1875
  860MOL0     N16015   3.199   9.242  10.940  0.5142 -0.0675  0.7959
  860MOL0     N16016   3.153   9.359  10.986 -0.3314 -0.1251 -0.3856
  860MOL0     C16017   2.364  10.051  11.183 -0.4102 -0.2540 -0.2229
  860MOL0     C16018   2.234  10.031  11.220  0.7751  0.3674 -0.2629
  860MOL0     C16019   1.793   9.967  11.138 -0.1694 -0.8063  0.5609
  860MOL0     C16020   1.742  10.001  11.012 -0.5545 -0.8704 -0.5245
  860MOL0     C16021   1.614   9.956  10.981 -0.1202  0.2496  0.4544
  860MOL0     C16022   1.544   9.864  11.059  0.3429 -0.1036 -0.4811
  860MOL0     O16023   1.429   9.806  11.014 -0.4210  1.5176 -0.0995
  860MOL0     C16024   1.361   9.703  11.093  0.2166  0.5949  0.5515
  860MOL0     C16025   1.237   9.665  11.021  0.4135 -0.2400  0.0094
  860MOL0     C16026   1.134   9.782  11.047 -0.9589 -0.1271 -0.3988
  860MOL0     C16027   0.991   9.762  10.988 -0.4327 -0.3317  0.1047
  860MOL0     C16028   0.940   9.631  10.966  0.7869  0.6465  0.2363
  860MOL0     C16029   0.891   9.520  10.942  0.4692  0.2988  0.2339
  860MOL0     C16030   1.609   9.814  11.172 -0.8238  0.1015 -0.1932
  860MOL0     C16031   1.733   9.873  11.216  0.1099  1.1492 -0.4542
  860MOL0     C16032   1.787   9.810  11.339  0.3430  1.0517 -0.7387
  860MOL0     H16033   2.135   9.835  10.968 -1.1948  3.5366 -1.5332
  860MOL0     H16034   2.378   9.859  10.911 -0.1446 -1.2344 -0.4907
  860MOL0     H16035   2.742  10.043  11.054 -1.6321 -1.7762 -1.9956
  860MOL0     H16036   2.637  10.144  11.150 -1.8189 -1.8222  1.3270
  860MOL0     H16037   2.621   9.870  11.244 -2.1278  0.5131 -2.0899
  860MOL0     H16038   2.614  10.030  11.316 -3.0654  0.4514 -1.8084
  860MOL0     H16039   2.805   9.869  11.376  2.0664 -2.4048 -1.4088
  860MOL0     H16040   2.865  10.018  11.327 -1.9707  0.3963 -0.5700
  860MOL0     H16041   2.859   9.759  11.148  0.2123 -0.9823 -1.7708
  860MOL0     H16042   2.920   9.928  11.102  1.4752  1.7359  2.3924
  860MOL0     H16043   3.083   9.913  11.298  1.0827  0.7011 -0.9732
  860MOL0     H16044   3.028   9.763  11.343  0.3033  1.4150 -0.4465
  860MOL0     H16045   3.167   9.848  11.077  5.9112  1.7465  2.3078
  860MOL0     H16046   3.250   9.796  11.212  2.1895 -3.4757 -3.2525
  860MOL0     H16047   3.057   9.615  11.038 -0.1011 -1.2700  0.5987
  860MOL0     H16048   3.111   9.571  11.199 -0.9497  1.1643  0.4132
  860MOL0     H16049   3.299   9.629  10.961 -0.1649  0.1409  0.4608
  860MOL0     H16050   3.348   9.585  11.124 -0.0520 -2.7704  0.6863
  860MOL0     H16051   3.474   9.398  11.028 -1.1011 -0.1266  1.5388
  860MOL0     H16052   3.376   9.036  10.992 -0.7873  1.2707  0.6958
  860MOL0     H16053   3.437   9.100  10.834 -4.6208  3.2009 -1.1231
  860MOL0     H16054   3.556   9.170  11.098 -3.0136  1.4747 -1.1766
  860MOL0     H16055   3.618   9.031  10.999  1.0897  0.7455  0.0610
  860MOL0     H16056   3.601   9.298  10.851  0.6806  0.8976 -0.6513
  860MOL0     H16057   3.705   9.156  10.849  0.1577  1.1986  1.2621
  860MOL0     H16058   3.691   9.384  11.056  2.1144  0.7525 -0.0354
  860MOL0     H16059   3.828   9.363  10.950  0.8419  0.7251  0.4906
  860MOL0     H16060   3.964   9.219  10.864 -0.7346 -2.4761 -2.0805
  860MOL0     H16061   4.164   9.084  10.836  2.7379 -2.9099  0.5321
  860MOL0     H16062   4.344   8.628  11.220  0.3822  1.3599  1.5289
  860MOL0     H16063   4.533   8.434  11.185  2.9448 -1.0500 -1.4437
  860MOL0     H16064   4.813   8.551  11.218 -2.3084  0.5752  0.1248
  860MOL0     H16065   4.811   8.372  11.213 -0.7584  0.1147  0.1996
  860MOL0     H16066   4.958   8.379  11.003  3.1426  1.6622 -1.8798
  860MOL0     H16067   5.001   8.533  11.042  0.1063 -0.3669 -0.7093
  860MOL0     H16068   5.076   8.459  11.269 -0.8870  0.9605 -1.5154
  860MOL0     H16069   5.029   8.294  11.234  0.7968 -0.0337  1.6621
  860MOL0     H16070   5.215   8.462  11.063  1.5544 -0.3730 -1.2724
  860MOL0     H16071   5.184   8.291  11.040 -0.1018  0.3581  0.4941
  860MOL0     H16072   5.395   8.319  11.146 -0.5026 -0.4809  0.4556
  860MOL0     H16073   5.294   8.239  11.261  2.0190 -0.6281 -0.8250
  860MOL0     H16074   5.364   8.531  11.286 -0.4978 -0.9597 -3.0504
  860MOL0     H16075   5.246   8.452  11.393 -1.8596  2.3288 -0.9228
  860MOL0     H16076   5.411   8.275  11.449  0.5923  1.1130  1.7729
  860MOL0     H16077   5.447   8.434  11.507  1.5585 -1.2845  0.9542
  860MOL0     H16078   5.576   8.268  11.284 -0.6263  0.3672 -0.8399
  860MOL0     H16079   5.572   8.438  11.264 -0.2220 -1.9218 -0.9215
  860MOL0     H16080   4.732   8.690  10.927  1.3906  2.1470  1.9523
  860MOL0     H16081   4.571   8.885  10.978  0.5313  0.1001  0.4559
  860MOL0     H16082   4.152   8.951  11.237  1.9385  1.6625  0.6247
  860MOL0     H16083   3.930   9.078  11.270 -0.7430 -0.4930  0.5491
  860MOL0     H16084   2.427  10.125  11.231  0.7899 -1.0534 -0.5195
  860MOL0     H16085   2.184  10.080  11.303 -1.9853  1.3460 -2.3346
  860MOL0     H16086   1.806  10.053  10.943  1.1136  3.7832  3.8788
  860MOL0     H16087   1.582   9.968  10.878 -1.1085 -1.4287  0.5215
  860MOL0     H16088   1.346   9.737  11.196  0.0678 -2.8767  1.8019
  860MOL0     H16089   1.423   9.614  11.103 -0.6794 -0.2164 -0.7492
  860MOL0     H16090   1.207   9.567  11.058  2.0871 -0.7155  0.1754
  860MOL0     H16091   1.254   9.655  10.913  1.5335 -3.6403  0.3808
  860MOL0     H16092   1.188   9.874  11.025 -1.0542  0.4905  1.7903
  860MOL0     H16093   1.117   9.799  11.154  0.7955 -1.4824  0.1505
  860MOL0     H16094   0.920   9.808  11.058 -1.3704 -0.0589 -0.9835
  860MOL0     H16095   0.980   9.813  10.891  0.1140 -1.0692 -0.3552
  860MOL0     H16096   0.832   9.435  10.916 -0.9354  1.0902  0.7602
  860MOL0     H16097   1.555   9.743  11.234 -1.4236 -0.3568 -1.2227
  860MOL0     H16098   1.819   9.891  11.405  1.4967 -0.1466  0.2344
  860MOL0     H16099   1.716   9.756  11.402  2.7995 -0.8283  0.5984
  860MOL0     H16100   1.866   9.738  11.313 -1.4239 -0.0368 -3.6067
  861MOL0     O16101   9.666   4.980   6.774 -0.4322  0.4807  0.4818
  861MOL0     C16102   9.555   4.953   6.725  0.4132  0.1852  0.0849
  861MOL0     O16103   9.432   5.021   6.758  0.6170  0.3282  0.0684
  861MOL0     C16104   9.436   5.136   6.829 -0.8336  0.1039 -0.6072
  861MOL0     C16105   9.334   5.181   6.909 -0.4172 -0.5683  0.0561
  861MOL0     C16106   9.341   5.290   7.000  0.3297 -0.7739 -0.5692
  861MOL0     C16107   9.450   5.375   7.002  0.1799  0.0608 -0.1810
  861MOL0     O16108   9.454   5.482   7.090  0.4069  0.5627 -0.2232
  861MOL0     C16109   9.336   5.563   7.094  0.0138 -0.9238  0.1969
  861MOL0     C16110   9.386   5.707   7.125  1.0748 -0.1301  0.0354
  861MOL0     C16111   9.435   5.780   7.002  0.8949  0.6601 -0.2143
  861MOL0     C16112   9.458   5.931   7.019 -0.0818  0.3308 -0.4893
  861MOL0     C16113   9.505   5.989   6.892 -0.1653  0.2413  0.9428
  861MOL0     C16114   9.602   6.105   6.893 -0.3442 -0.5218  0.4555
  861MOL0     C16115   9.544   6.216   6.992 -0.3975  1.0220  0.6740
  861MOL0     C16116   9.622   6.356   7.008 -0.1908 -0.6617  0.1270
  861MOL0     N16117   9.652   6.403   6.875 -0.1265 -0.7424  0.3854
  861MOL0     C16118   9.573   6.471   6.786 -0.0621 -0.7324  0.4918
  861MOL0     C16119   9.642   6.496   6.671  0.5595 -0.1823  0.5133
  861MOL0     C16120   9.588   6.560   6.541  0.8475 -0.1663 -0.2885
  861MOL0     C16121   9.679   6.568   6.420 -1.0912  0.5201 -0.1013
  861MOL0     C16122   9.674   6.438   6.347 -0.2096  0.9959 -0.3289
  861MOL0     C16123   9.742   6.438   6.206 -0.1305  0.2846  0.3855
  861MOL0     O16124   9.750   6.305   6.148  0.5383 -1.1793  0.4669
  861MOL0     C16125   9.786   6.306   6.011  0.0803 -0.3201  1.2282
  861MOL0     C16126   9.739   6.186   5.947  0.2249 -0.8002 -0.0751
  861MOL0     C16127   9.776   6.163   5.812  0.1145 -1.4688 -0.7416
  861MOL0     C16128   9.860   6.255   5.746 -0.3620  0.1490  0.5721
  861MOL0     C16129   9.885   6.241   5.600 -0.6922  0.3590  0.3233
  861MOL0     O16130   9.804   6.155   5.533  0.4108  0.2127 -0.3695
  861MOL0     C16131   9.814   6.142   5.397  0.0100 -0.1881  0.5027
  861MOL0     C16132   9.781   6.029   5.344  1.0277 -0.4192 -0.2536
  861MOL0     C16133   9.775   6.011   5.215  0.9373  0.3804  0.8836
  861MOL0     C16134   9.798   6.112   5.116 -0.8148 -0.2707  0.3656
  861MOL0     O16135   9.770   6.078   4.986  0.1534  0.7481 -0.0971
  861MOL0     C16136   9.739   6.190   4.904  0.8942  0.8425  0.7626
  861MOL0     C16137   9.666   6.143   4.776 -0.6599 -0.3234 -0.1789
  861MOL0     C16138   9.597   6.261   4.708 -0.0882 -0.1079 -0.7573
  861MOL0     C16139   9.512   6.241   4.588  0.6474 -0.2188 -0.1704
  861MOL0     C16140   9.598   6.200   4.458  0.8586 -0.0621  0.0122
  861MOL0     C16141   9.525   6.239   4.327  0.4439  0.2564  1.0219
  861MOL0     C16142   9.600   6.207   4.198  0.1982  1.2966 -0.1396
  861MOL0     C16143   9.635   6.056   4.168 -0.6974  0.2908  1.1199
  861MOL0    Cl16144   9.479   5.967   4.118  0.3766 -0.1740  0.3439
  861MOL0     C16145   9.845   6.236   5.171  0.4047  0.2418 -0.2001
  861MOL0     C16146   9.858   6.248   5.311 -0.7772  0.3053  0.5989
  861MOL0     O16147   9.976   6.304   5.556 -0.0278 -0.1886  0.6581
  861MOL0     C16148   9.906   6.365   5.819 -0.7895  0.0297  0.7710
  861MOL0     C16149   9.871   6.391   5.950  0.5283 -0.0151  0.6739
  861MOL0     N16150   9.779   6.462   6.704  0.9274  0.9797 -1.0519
  861MOL0     N16151   9.780   6.409   6.827  0.2430  0.3879  1.0413
  861MOL0     C16152   9.549   5.346   6.906 -0.2930  0.7841  0.8417
  861MOL0     C16153   9.543   5.236   6.806  0.8059  0.6113  0.2655
  861MOL0     C16154   9.551   4.835   6.635  0.8442  0.0573 -0.4702
  861MOL0     C16155   9.501   4.720   6.682 -0.0868 -0.4686  0.6540
  861MOL0     C16156   9.494   4.604   6.598  0.4665  0.5089 -0.6844
  861MOL0     C16157   9.534   4.619   6.460 -0.5956 -0.7081 -0.9831
  861MOL0     O16158   9.528   4.516   6.366 -0.0860 -0.4690  0.0765
  861MOL0     C16159   9.556   4.375   6.396 -0.1641 -0.9272 -0.1305
  861MOL0     C16160   9.446   4.298   6.326 -0.9455 -0.3701 -0.3808
  861MOL0     C16161   9.446   4.148   6.364 -0.5187  0.1124 -0.0025
  861MOL0     C16162   9.537   4.074   6.268 -0.0430  0.4881 -0.2727
  861MOL0     C16163   9.587   3.945   6.330 -0.6119 -0.1976  0.4895
  861MOL0     C16164   9.642   3.845   6.374 -0.2001 -0.7182 -1.1060
  861MOL0     C16165   9.605   4.730   6.424  0.1089  0.5451  0.1093
  861MOL0     C16166   9.611   4.839   6.507 -1.2584 -0.4591 -0.7963
  861MOL0     C16167   9.689   4.961   6.458 -0.4387 -0.7139  0.8769
  861MOL0     H16168   9.243   5.121   6.913 -0.2776 -0.7608  3.0224
  861MOL0     H16169   9.260   5.303   7.071  0.7608  1.0449 -0.3812
  861MOL0     H16170   9.284   5.559   6.998 -2.0588  2.0455  1.0609
  861MOL0     H16171   9.269   5.533   7.176  2.1609 -3.0085  1.3031
  861MOL0     H16172   9.461   5.713   7.204  0.6120  1.6878  0.3826
  861MOL0     H16173   9.300   5.758   7.170 -0.4659 -3.1401  0.7565
  861MOL0     H16174   9.351   5.771   6.932 -0.1052 -2.6425  1.2020
  861MOL0     H16175   9.528   5.738   6.963  1.2174  1.0031  0.1735
  861MOL0     H16176   9.359   5.975   7.039 -1.3032 -2.4015 -0.0209
  861MOL0     H16177   9.515   5.941   7.112 -1.6831 -3.2956  1.0964
  861MOL0     H16178   9.549   5.916   6.823  5.4833  3.6810  0.2451
  861MOL0     H16179   9.420   6.035   6.840 -0.5283  0.4852  1.7360
  861MOL0     H16180   9.695   6.058   6.923 -0.2396  0.2123  1.3230
  861MOL0     H16181   9.607   6.150   6.793 -0.2026 -2.0650 -0.2519
  861MOL0     H16182   9.536   6.175   7.093  1.3461  1.4400  1.0109
  861MOL0     H16183   9.440   6.233   6.962 -1.1682  0.3808  2.8005
  861MOL0     H16184   9.559   6.429   7.059 -1.2737  0.1121 -2.1367
  861MOL0     H16185   9.717   6.334   7.056  1.4315 -0.0793 -2.6187
  861MOL0     H16186   9.467   6.491   6.804  0.3513  3.0740 -0.4164
  861MOL0     H16187   9.490   6.519   6.512 -0.4160  3.6479 -2.0706
  861MOL0     H16188   9.560   6.664   6.560 -0.6582 -0.7524  0.9530
  861MOL0     H16189   9.646   6.647   6.352 -2.2307  1.6018  1.6141
  861MOL0     H16190   9.780   6.581   6.461 -1.7640 -0.5281  2.0222
  861MOL0     H16191   9.570   6.406   6.332  0.1213  0.6795 -2.2157
  861MOL0     H16192   9.715   6.360   6.412  0.8748  1.3577 -0.5601
  861MOL0     H16193   9.845   6.474   6.221 -0.0190  0.8055 -1.4385
  861MOL0     H16194   9.686   6.504   6.141 -0.9021 -3.5716 -3.2624
  861MOL0     H16195   9.703   6.106   6.012  0.5288  0.1054  1.2542
  861MOL0     H16196   9.753   6.068   5.765 -0.8469 -2.2475  1.1873
  861MOL0     H16197   9.736   5.951   5.404 -0.0496 -0.0338 -0.5388
  861MOL0     H16198   9.730   5.917   5.185 -0.7179  1.0139  1.2596
  861MOL0     H16199   9.664   6.248   4.959 -0.7540 -0.4141 -0.0830
  861MOL0     H16200   9.829   6.246   4.878  1.4761 -1.5938 -3.3181
  861MOL0     H16201   9.738   6.104   4.703 -0.4552 -0.8391  0.2928
  861MOL0     H16202   9.594   6.062   4.790  0.9173 -1.6534  0.4788
  861MOL0     H16203   9.540   6.315   4.784 -1.3297 -1.5230 -0.6501
  861MOL0     H16204   9.675   6.335   4.684 -0.4558  0.7325  0.5062
  861MOL0     H16205   9.461   6.337   4.577  0.3532 -0.2852  0.5680
  861MOL0     H16206   9.427   6.172   4.594 -0.5798  1.1650 -0.9721
  861MOL0     H16207   9.619   6.093   4.459 -0.4602 -0.3319  0.0322
  861MOL0     H16208   9.699   6.242   4.460  1.2166 -0.8505 -0.7533
  861MOL0     H16209   9.428   6.192   4.311  1.0389 -0.5327 -0.5471
  861MOL0     H16210   9.500   6.346   4.331  0.2580  0.2361  0.5452
  861MOL0     H16211   9.696   6.257   4.210 -0.1978  1.8822  0.6905
  861MOL0     H16212   9.554   6.239   4.103  0.7682  2.2722 -0.1071
  861MOL0     H16213   9.704   6.052   4.083  0.5712  0.1997  2.1316
  861MOL0     H16214   9.684   6.011   4.254  0.5593 -0.0501  0.2449
  861MOL0     H16215   9.859   6.326   5.112  3.5810 -0.3525 -0.4918
  861MOL0     H16216   9.883   6.348   5.347 -0.0892  1.9481 -3.7218
  861MOL0     H16217   9.960   6.441   5.763 -0.7245 -0.7958 -0.3118
  861MOL0     H16218   9.920   6.476   5.996  1.4868 -2.1303  3.9478
  861MOL0     H16219   9.642   5.401   6.908 -0.0641  0.4884 -0.6989
  861MOL0     H16220   9.621   5.228   6.732  0.0075  2.6029 -0.8482
  861MOL0     H16221   9.452   4.733   6.778 -4.8481  0.3505 -1.5710
  861MOL0     H16222   9.452   4.512   6.637  2.8642 -0.4157 -0.1347
  861MOL0     H16223   9.572   4.350   6.502  1.4075  1.9615  0.4039
  861MOL0     H16224   9.649   4.349   6.344 -0.7286  1.8790 -2.7938
  861MOL0     H16225   9.447   4.318   6.218  1.0219 -0.0765 -0.3444
  861MOL0     H16226   9.355   4.345   6.365  0.4154  2.0982  0.0596
  861MOL0     H16227   9.344   4.128   6.331 -1.5224  3.0558  1.0228
  861MOL0     H16228   9.466   4.122   6.468  2.3173  0.0732 -0.4765
  861MOL0     H16229   9.478   4.048   6.179 -1.8733  3.0345  0.0670
  861MOL0     H16230   9.620   4.132   6.228 -0.4884 -0.5506 -2.9303
  861MOL0     H16231   9.682   3.766   6.434 -0.7096 -0.2091 -0.0451
  861MOL0     H16232   9.648   4.737   6.325  2.9431 -0.2995  1.1741
  861MOL0     H16233   9.757   4.947   6.373  1.5267  3.7429  1.4152
  861MOL0     H16234   9.623   5.046   6.437 -0.5064 -1.0573 -0.4460
  861MOL0     H16235   9.758   5.008   6.528  0.1028  0.0851 -0.1672
  862MOL0     O16236   8.301   8.204   4.249  0.3281 -0.1200  0.3296
  862MOL0     C16237   8.375   8.120   4.292 -0.1220  0.4669  0.5858
  862MOL0     O16238   8.395   8.087   4.432 -0.1384 -0.2422 -0.1633
  862MOL0     C16239   8.306   8.135   4.523 -0.1312 -0.3042  0.0813
  862MOL0     C16240   8.161   8.135   4.511 -0.0534  0.2179 -0.1148
  862MOL0     C16241   8.094   8.175   4.621  0.6002 -0.3295  0.1999
  862MOL0     C16242   8.152   8.206   4.744 -1.4383  0.3372  0.3858
  862MOL0     O16243   8.061   8.233   4.842 -0.0570  0.3677  0.3466
  862MOL0     C16244   8.122   8.298   4.961  1.1462 -0.1429  0.0087
  862MOL0     C16245   8.013   8.324   5.071 -0.3683  0.3940 -0.1484
  862MOL0     C16246   7.904   8.426   5.025 -1.1742  0.8676 -0.0107
  862MOL0     C16247   7.939   8.569   5.073 -0.2841 -0.4428 -0.4297
  862MOL0     C16248   7.849   8.682   5.032 -0.4911 -0.0814 -0.1242
  862MOL0     C16249   7.900   8.819   5.093  0.3452  0.8431  0.6096
  862MOL0     C16250   7.817   8.939   5.035  0.8128  0.1017  0.3600
  862MOL0     C16251   7.874   9.084   5.056 -0.1259  0.6312  0.4826
  862MOL0     N16252   7.942   9.127   4.928 -0.1726 -0.5360  0.3940
  862MOL0     C16253   8.079   9.118   4.893  0.1705 -0.0230  0.0157
  862MOL0     C16254   8.091   9.190   4.773 -0.1351  0.2322  0.3901
  862MOL0     C16255   8.226   9.226   4.712  0.3606  0.5850  0.8501
  862MOL0     C16256   8.261   9.371   4.741  0.3114 -0.4159  0.0410
  862MOL0     C16257   8.245   9.413   4.888 -0.3526  0.2259 -0.6755
  862MOL0     C16258   8.340   9.341   4.987  0.1500 -0.3069 -0.2529
  862MOL0     O16259   8.470   9.388   4.992 -0.2624 -0.4826  0.1948
  862MOL0     C16260   8.559   9.366   5.096  0.5207  0.3558 -0.6205
  862MOL0     C16261   8.533   9.270   5.198  0.2665  0.2066  0.1392
  862MOL0     C16262   8.628   9.253   5.305 -0.0904 -0.5279 -0.2591
  862MOL0     C16263   8.735   9.343   5.325 -0.6521 -0.1729  0.4153
  862MOL0     C16264   8.819   9.336   5.449 -0.2181 -0.3807  0.3030
  862MOL0     O16265   8.767   9.276   5.557 -0.5333 -0.5464  1.3259
  862MOL0     C16266   8.859   9.243   5.661  0.4474 -0.3630  0.3098
  862MOL0     C16267   8.834   9.285   5.789  0.2834  0.0839 -0.7402
  862MOL0     C16268   8.929   9.242   5.883  0.6452 -0.4423 -0.2441
  862MOL0     C16269   9.034   9.144   5.859  0.4412 -0.1351 -0.7397
  862MOL0     O16270   9.115   9.095   5.964 -0.2273 -0.5964  0.6466
  862MOL0     C16271   9.249   9.056   5.930 -0.5741 -0.4923 -0.7904
  862MOL0     C16272   9.336   9.085   6.053  0.5307  0.3293  0.0164
  862MOL0     C16273   9.480   9.037   6.042 -0.2364  0.9034 -0.3603
  862MOL0     C16274   9.491   8.886   6.035 -0.6697  0.7378  0.0900
  862MOL0     C16275   9.642   8.845   6.005 -0.2078 -0.3585  0.6385
  862MOL0     C16276   9.648   8.697   6.004  0.3800  0.0413  0.7332
  862MOL0     C16277   9.794   8.638   6.000  0.2312  0.5784 -0.0312
  862MOL0     C16278   9.873   8.689   5.878  0.3064 -0.4708 -0.4350
  862MOL0    Cl16279  10.010   8.573   5.862 -0.3304 -0.0497  0.2533
  862MOL0     C16280   9.049   9.114   5.725 -0.6088 -0.7961  0.5445
  862MOL0     C16281   8.956   9.152   5.620 -0.8324  0.8255  0.2602
  862MOL0     O16282   8.931   9.371   5.441 -0.2601 -0.8012  0.7339
  862MOL0     C16283   8.753   9.433   5.227 -0.3043  0.1220 -0.5879
  862MOL0     C16284   8.673   9.444   5.113 -0.1400 -0.2732  0.0632
  862MOL0     N16285   7.969   9.230   4.731 -0.3416  0.0013  0.7685
  862MOL0     N16286   7.887   9.194   4.822 -0.1203  0.3446  0.2472
  862MOL0     C16287   8.296   8.209   4.759 -1.0106 -0.5749  0.2162
  862MOL0     C16288   8.365   8.179   4.645 -0.7020  0.3656 -0.6358
  862MOL0     C16289   8.467   8.052   4.197 -0.1333 -0.1023  0.8668
  862MOL0     C16290   8.559   7.960   4.258  0.7299 -0.1071  0.7325
  862MOL0     C16291   8.638   7.882   4.180 -0.1750 -0.0208  1.0558
  862MOL0     C16292   8.646   7.904   4.038 -0.4187  0.9107 -0.1293
  862MOL0     O16293   8.726   7.826   3.952 -0.1454 -0.7028 -0.2913
  862MOL0     C16294   8.873   7.838   3.979 -0.9402  0.5803 -0.5279
  862MOL0     C16295   8.948   7.711   4.005  0.3638  0.8674 -0.4237
  862MOL0     C16296   9.025   7.662   3.888  0.3491  0.1304 -0.1278
  862MOL0     C16297   9.158   7.739   3.863 -0.1115  0.2392 -1.0408
  862MOL0     C16298   9.253   7.696   3.966 -0.1857  0.9480 -0.5495
  862MOL0     C16299   9.326   7.654   4.060  0.4741 -0.1365  1.2693
  862MOL0     C16300   8.558   7.995   3.984  0.8532 -0.3056 -0.8888
  862MOL0     C16301   8.460   8.061   4.063  0.3336  0.4748  0.8800
  862MOL0     C16302   8.373   8.151   3.983  0.3234  0.7146  0.6735
  862MOL0     H16303   8.105   8.105   4.423  0.3994  0.7305 -0.5832
  862MOL0     H16304   7.986   8.168   4.615  0.4433 -0.4492  2.2437
  862MOL0     H16305   8.193   8.247   5.027 -1.7733 -2.2852  1.7441
  862MOL0     H16306   8.166   8.392   4.927 -0.4991  0.3404 -0.8765
  862MOL0     H16307   8.064   8.361   5.161  1.4783  1.8391 -1.6796
  862MOL0     H16308   7.969   8.227   5.094 -0.0539 -0.2922 -2.2526
  862MOL0     H16309   7.813   8.390   5.076 -0.3828 -0.0632  0.7916
  862MOL0     H16310   7.901   8.424   4.916 -0.6636  0.6323 -0.0236
  862MOL0     H16311   7.949   8.564   5.181  0.6829 -2.2137 -0.5584
  862MOL0     H16312   8.037   8.598   5.034 -0.3825 -3.0575 -2.9963
  862MOL0     H16313   7.833   8.688   4.924 -3.1201  3.0054  0.2906
  862MOL0     H16314   7.752   8.659   5.077  0.7416 -0.9143  2.2492
  862MOL0     H16315   7.909   8.820   5.202 -2.7904  1.6013  0.9732
  862MOL0     H16316   8.001   8.838   5.057 -0.5387  3.8265 -0.6291
  862MOL0     H16317   7.719   8.939   5.084 -0.1907 -1.0000 -1.5180
  862MOL0     H16318   7.792   8.931   4.929 -4.0266  2.1534  1.0786
  862MOL0     H16319   7.790   9.151   5.079  0.5288  1.9222 -0.7118
  862MOL0     H16320   7.941   9.095   5.142  2.1568  0.7165 -1.2235
  862MOL0     H16321   8.157   9.074   4.954 -1.8099 -0.0242  2.7093
  862MOL0     H16322   8.301   9.152   4.742 -0.5345 -0.1405  1.3468
  862MOL0     H16323   8.228   9.216   4.603  3.7646 -0.1014  0.8615
  862MOL0     H16324   8.366   9.386   4.716  0.2884 -2.4226 -1.4586
  862MOL0     H16325   8.201   9.444   4.685 -2.0845 -1.5120  1.0242
  862MOL0     H16326   8.141   9.392   4.916  0.3171 -1.3648  0.8257
  862MOL0     H16327   8.264   9.519   4.905 -0.3636  0.2023 -0.5079
  862MOL0     H16328   8.340   9.236   4.958 -0.7545 -0.1757 -0.7909
  862MOL0     H16329   8.283   9.345   5.080 -0.2480  0.2544 -0.5113
  862MOL0     H16330   8.440   9.214   5.197  1.2146 -1.4242 -0.2627
  862MOL0     H16331   8.620   9.174   5.379  1.2111  0.8364  1.4296
  862MOL0     H16332   8.750   9.348   5.813 -0.1775 -0.3894 -1.1021
  862MOL0     H16333   8.899   9.273   5.982  4.1424  2.5381  0.0766
  862MOL0     H16334   9.227   8.951   5.908 -1.7680 -0.2232 -0.9261
  862MOL0     H16335   9.288   9.109   5.842  0.8778  1.6378  1.0238
  862MOL0     H16336   9.343   9.193   6.069 -1.8199  0.3549  1.2812
  862MOL0     H16337   9.294   9.044   6.146  0.3180 -0.7152 -0.5172
  862MOL0     H16338   9.527   9.085   5.956 -0.1972  0.4195 -0.6109
  862MOL0     H16339   9.528   9.060   6.138 -2.4441 -2.3693  1.7491
  862MOL0     H16340   9.435   8.837   5.955  0.4416 -1.0242  0.3363
  862MOL0     H16341   9.462   8.845   6.132 -0.1865  0.4051  0.0980
  862MOL0     H16342   9.691   8.899   6.086 -4.7565  5.3880  0.2825
  862MOL0     H16343   9.670   8.880   5.905 -3.3830 -2.1902 -1.0512
  862MOL0     H16344   9.590   8.653   6.086 -0.1732 -3.7883 -1.4722
  862MOL0     H16345   9.608   8.663   5.908  0.7974 -1.1619  0.9630
  862MOL0     H16346   9.783   8.529   6.007  0.7386  0.6185  2.0952
  862MOL0     H16347   9.861   8.672   6.079  0.5127  1.3265 -0.5815
  862MOL0     H16348   9.819   8.684   5.783  0.6659 -0.2011 -0.6546
  862MOL0     H16349   9.923   8.785   5.896 -0.5354 -0.2605  0.9348
  862MOL0     H16350   9.135   9.059   5.689  1.1670  2.7542 -1.1890
  862MOL0     H16351   8.987   9.116   5.522 -0.5252 -0.5494  0.8324
  862MOL0     H16352   8.832   9.507   5.236 -0.1902  0.3352 -2.8497
  862MOL0     H16353   8.699   9.525   5.045  2.9093 -0.2121  1.1333
  862MOL0     H16354   8.344   8.237   4.852 -0.2377 -1.5151  0.1165
  862MOL0     H16355   8.473   8.178   4.644 -0.6872  0.5952 -2.0409
  862MOL0     H16356   8.565   7.949   4.366 -2.5646  1.5733  1.2333
  862MOL0     H16357   8.688   7.799   4.229 -1.7744 -1.9152 -0.3722
  862MOL0     H16358   8.893   7.894   4.071 -0.9301 -2.8503  1.7533
  862MOL0     H16359   8.927   7.896   3.903  0.1710  2.3174  1.4954
  862MOL0     H16360   8.871   7.646   4.048  0.9399  0.3405 -0.1761
  862MOL0     H16361   9.020   7.722   4.087 -1.0843  0.4930  0.9567
  862MOL0     H16362   8.955   7.663   3.804 -0.7434  1.1310  0.7724
  862MOL0     H16363   9.051   7.556   3.897  1.2977  0.4142  0.6472
  862MOL0     H16364   9.188   7.717   3.760  4.2673  1.2125 -0.1430
  862MOL0     H16365   9.140   7.847   3.875 -1.3506 -0.1703  1.2282
  862MOL0     H16366   9.396   7.636   4.139  2.9174  3.5336  0.2388
  862MOL0     H16367   8.547   7.996   3.876  0.3004 -2.3359 -0.8905
  862MOL0     H16368   8.380   8.120   3.878 -0.9917 -3.4636  1.6186
  862MOL0     H16369   8.264   8.144   3.993 -0.2055  0.9880 -3.0778
  862MOL0     H16370   8.397   8.258   3.990  3.1006  0.1696  0.5674
  863MOL0     O16371   9.264   7.651  11.392  1.2919 -0.3479 -0.3781
  863MOL0     C16372   9.178   7.651  11.302 -0.1910  0.1266  0.5434
  863MOL0     O16373   9.205   7.708  11.177  0.0929  0.5158 -1.2625
  863MOL0     C16374   9.333   7.717  11.131 -0.3491 -0.2849 -0.3235
  863MOL0     C16375   9.405   7.599  11.100 -0.5203 -0.4951  1.0146
  863MOL0     C16376   9.521   7.605  11.032  0.3708  0.5425  0.4152
  863MOL0     C16377   9.575   7.718  10.973 -0.4989  0.7537  0.0343
  863MOL0     O16378   9.704   7.727  10.915 -0.4443 -0.4499  0.3827
  863MOL0     C16379   9.752   7.858  10.864  0.9825  0.6626  0.5733
  863MOL0     C16380   9.860   7.847  10.770  0.0287  0.3772  0.1194
  863MOL0     C16381   9.937   7.980  10.750  0.7308  0.3129 -0.5077
  863MOL0     C16382  10.047   7.959  10.639  0.7127  0.1118  0.7746
  863MOL0     C16383  10.102   8.097  10.606 -0.3996  0.8682 -0.1690
  863MOL0     C16384  10.225   8.094  10.516  0.2787 -0.1359 -0.4412
  863MOL0     C16385  10.280   8.232  10.462 -0.8746  0.4323 -0.6256
  863MOL0     C16386  10.368   8.190  10.340 -0.2730 -0.3719  0.3671
  863MOL0     N16387  10.438   8.313  10.291 -0.5059  0.6049 -0.0435
  863MOL0     C16388  10.418   8.388  10.181 -0.0026 -0.4744  0.4306
  863MOL0     C16389  10.524   8.469  10.187 -0.7429  0.0210 -0.0207
  863MOL0     C16390  10.569   8.570  10.094  0.4321  0.2490  0.6192
  863MOL0     C16391  10.720   8.588  10.079  0.0106  0.5523  0.0636
  863MOL0     C16392  10.793   8.472  10.028 -0.6040  0.8998  0.6124
  863MOL0     C16393  10.939   8.490  10.010 -0.7646 -0.2040 -1.1499
  863MOL0     O16394  10.962   8.554   9.887 -0.3964 -0.1494  0.0753
  863MOL0     C16395  11.072   8.645   9.872  0.4227  0.4443 -0.1207
  863MOL0     C16396  11.166   8.668   9.969  0.7976  0.4076 -0.5461
  863MOL0     C16397  11.272   8.757   9.946  0.1682 -0.1972  0.9908
  863MOL0     C16398  11.265   8.837   9.829  0.8284  0.9800  0.9134
  863MOL0     C16399  11.365   8.943   9.808 -0.7694 -0.0603 -0.1283
  863MOL0     O16400  11.455   8.957   9.906  0.3693  0.1436  0.3492
  863MOL0     C16401  11.566   9.035   9.881  0.4009 -0.1500  0.7530
  863MOL0     C16402  11.539   9.162   9.920  0.8774  0.6865  0.7887
  863MOL0     C16403  11.648   9.254   9.898  0.9354  0.1586 -0.0292
  863MOL0     C16404  11.777   9.219   9.875 -0.3856  0.7593  0.2805
  863MOL0     O16405  11.876   9.320   9.874  0.4407 -0.1737  0.1776
  863MOL0     C16406  11.960   9.318   9.986 -0.3475 -0.6314  0.4756
  863MOL0     C16407  11.892   9.410  10.081  0.5211 -0.7843 -0.3801
  863MOL0     C16408  11.989   9.476  10.181  0.8096  0.0884  0.5483
  863MOL0     C16409  11.938   9.609  10.233 -0.1705 -0.2979 -0.5761
  863MOL0     C16410  12.028   9.689  10.319  0.5792 -0.3680 -0.6600
  863MOL0     C16411  12.093   9.613  10.437  0.6520 -0.3057  0.6035
  863MOL0     C16412  12.194   9.703  10.511 -0.3928 -0.5931  0.6121
  863MOL0     C16413  12.247   9.629  10.641  0.1125 -0.1175  0.6858
  863MOL0    Cl16414  12.122   9.654  10.772 -0.4553  0.6434  0.3085
  863MOL0     C16415  11.794   9.087   9.825 -0.0863  0.5023  0.6301
  863MOL0     C16416  11.688   8.993   9.827 -0.5014 -0.3698 -0.9299
  863MOL0     O16417  11.368   9.003   9.706  0.5709 -0.1722  0.4618
  863MOL0     C16418  11.174   8.800   9.720 -0.1741  0.0750  0.0366
  863MOL0     C16419  11.079   8.700   9.743 -0.8828  0.3334  0.0804
  863MOL0     N16420  10.605   8.435  10.297  0.6163  0.8723 -0.0120
  863MOL0     N16421  10.552   8.346  10.359 -0.2062  0.4388  0.4115
  863MOL0     C16422   9.503   7.834  11.011  0.3427 -0.4727 -0.8591
  863MOL0     C16423   9.384   7.832  11.086 -0.8540 -0.1790 -0.3075
  863MOL0     C16424   9.046   7.586  11.334  1.4331 -0.4921  0.6463
  863MOL0     C16425   8.968   7.546  11.220 -0.1513  1.9236  0.1266
  863MOL0     C16426   8.857   7.463  11.226 -0.6813 -1.0714  0.0869
  863MOL0     C16427   8.798   7.425  11.347  0.3791 -0.5185 -0.2602
  863MOL0     O16428   8.696   7.339  11.361 -0.5469 -0.0590 -0.0145
  863MOL0     C16429   8.574   7.395  11.403 -0.2034  0.1920 -1.4801
  863MOL0     C16430   8.499   7.472  11.293  1.1666 -0.2763 -0.2856
  863MOL0     C16431   8.453   7.378  11.178  0.0011  0.1866 -0.0434
  863MOL0     C16432   8.325   7.303  11.208 -0.1611  0.6939 -0.7384
  863MOL0     C16433   8.290   7.223  11.089  0.3474 -0.2679  0.0971
  863MOL0     C16434   8.277   7.157  10.991 -0.4901 -0.1469  0.4590
  863MOL0     C16435   8.873   7.458  11.458  0.7268  0.1545  0.0517
  863MOL0     C16436   8.992   7.550  11.459 -0.1782  0.6328 -0.4214
  863MOL0     C16437   9.042   7.592  11.587 -0.4077 -0.4617 -0.7057
  863MOL0     H16438   9.372   7.498  11.119  1.5523 -1.3931  0.1352
  863MOL0     H16439   9.561   7.506  11.009  2.0707  0.7624  2.2074
  863MOL0     H16440   9.670   7.900  10.806  1.3287  1.4152  0.6133
  863MOL0     H16441   9.781   7.927  10.945  3.6199 -0.9563  1.1513
  863MOL0     H16442   9.818   7.825  10.672  3.4822  1.7074 -1.8229
  863MOL0     H16443   9.927   7.767  10.803 -2.7832 -2.3345 -0.2189
  863MOL0     H16444   9.983   8.016  10.842 -3.4830  5.4938  0.1172
  863MOL0     H16445   9.877   8.069  10.725 -0.5692 -1.2448 -3.5296
  863MOL0     H16446  10.120   7.885  10.671  1.2933 -0.5250 -1.8174
  863MOL0     H16447  10.006   7.912  10.549 -1.4980  0.6101  1.4433
  863MOL0     H16448  10.022   8.150  10.553 -2.1050 -2.7282 -1.4990
  863MOL0     H16449  10.129   8.148  10.700  0.0508  0.1553  0.0936
  863MOL0     H16450  10.303   8.037  10.568  0.5424  0.4695 -0.1657
  863MOL0     H16451  10.205   8.034  10.427 -1.2664 -0.2310 -0.0623
  863MOL0     H16452  10.347   8.283  10.532 -1.2772  1.1812 -0.7683
  863MOL0     H16453  10.203   8.302  10.429 -0.4485  1.9144  1.3370
  863MOL0     H16454  10.449   8.123  10.370 -0.7700 -1.9058 -1.5245
  863MOL0     H16455  10.311   8.144  10.259 -0.0833  0.3649 -0.1901
  863MOL0     H16456  10.344   8.395  10.101 -1.1882 -2.4868  1.2616
  863MOL0     H16457  10.534   8.560   9.990  2.2082 -5.0152  0.2552
  863MOL0     H16458  10.518   8.661  10.128 -0.8384  0.4232 -1.5174
  863MOL0     H16459  10.750   8.676  10.020  0.2544 -0.4609 -1.3809
  863MOL0     H16460  10.773   8.615  10.171 -1.6129 -1.5079  1.6802
  863MOL0     H16461  10.762   8.448   9.926  0.0190 -1.2493  0.8662
  863MOL0     H16462  10.773   8.388  10.095  2.3454 -0.2450  0.2311
  863MOL0     H16463  10.989   8.392  10.012 -1.0929 -0.3650 -0.5565
  863MOL0     H16464  10.976   8.548  10.096 -0.7080 -0.4866 -0.9819
  863MOL0     H16465  11.173   8.617  10.065 -0.7930  2.8923  1.0105
  863MOL0     H16466  11.346   8.759  10.025  0.4622 -2.8359  0.8687
  863MOL0     H16467  11.442   9.206   9.941 -1.2753 -2.2898 -1.9314
  863MOL0     H16468  11.633   9.360   9.909  1.3972  0.3228 -0.8749
  863MOL0     H16469  11.983   9.214  10.011  1.0921 -1.2064 -2.7367
  863MOL0     H16470  12.056   9.363   9.961  0.6542 -1.8444  1.9588
  863MOL0     H16471  11.846   9.495  10.028  1.1832 -0.2126 -0.0464
  863MOL0     H16472  11.808   9.352  10.122 -1.2683  1.0559 -1.2209
  863MOL0     H16473  12.017   9.406  10.261 -0.7462  0.2185  1.2377
  863MOL0     H16474  12.083   9.502  10.130 -1.0781  2.8239 -1.8829
  863MOL0     H16475  11.855   9.582  10.300  0.1548  0.3552  0.1023
  863MOL0     H16476  11.898   9.670  10.151 -0.1070 -2.5827 -2.4154
  863MOL0     H16477  11.967   9.768  10.364  0.7875 -0.9216  0.6475
  863MOL0     H16478  12.105   9.718  10.247 -0.2659 -1.2292 -1.9483
  863MOL0     H16479  12.012   9.572  10.497 -0.7886 -0.7496 -1.5403
  863MOL0     H16480  12.147   9.522  10.407 -1.0788 -1.5297  1.0330
  863MOL0     H16481  12.156   9.802  10.536  5.5448  2.4010 -0.3857
  863MOL0     H16482  12.269   9.741  10.441 -3.3193  3.4328 -0.7520
  863MOL0     H16483  12.257   9.522  10.622  2.9188  0.5961 -3.1821
  863MOL0     H16484  12.343   9.665  10.677 -0.0582 -0.0169  1.0387
  863MOL0     H16485  11.894   9.049   9.805 -1.2930 -3.7110  1.6628
  863MOL0     H16486  11.698   8.886   9.810 -0.6515 -0.7686  1.1889
  863MOL0     H16487  11.172   8.849   9.623 -2.9932  0.7179  0.3302
  863MOL0     H16488  11.020   8.651   9.666  0.3388  1.9035 -1.9483
  863MOL0     H16489   9.548   7.928  10.983 -0.1902  0.1544  0.2949
  863MOL0     H16490   9.330   7.924  11.109 -1.7634 -0.6695 -0.4169
  863MOL0     H16491   9.015   7.554  11.122  0.4093  0.0096  0.2013
  863MOL0     H16492   8.809   7.414  11.143  0.4590 -1.7037 -0.2143
  863MOL0     H16493   8.582   7.463  11.488 -1.5257 -3.0682  1.4881
  863MOL0     H16494   8.520   7.311  11.447  0.7031  1.7973  3.2887
  863MOL0     H16495   8.550   7.560  11.254  1.8421 -1.2457 -1.7004
  863MOL0     H16496   8.400   7.503  11.329 -0.9674 -5.6065 -0.5027
  863MOL0     H16497   8.540   7.315  11.160  0.1391  0.6429 -1.0459
  863MOL0     H16498   8.427   7.427  11.084  0.9807 -1.7509 -1.3888
  863MOL0     H16499   8.344   7.234  11.290 -0.7764  1.1376 -0.2163
  863MOL0     H16500   8.241   7.367  11.236 -1.5454 -0.2158 -2.5842
  863MOL0     H16501   8.271   7.093  10.906  4.5685 -2.1258  1.2404
  863MOL0     H16502   8.834   7.419  11.552  0.1209  0.3244 -0.1217
  863MOL0     H16503   9.033   7.700  11.576 -2.4924 -0.6844 -1.7690
  863MOL0     H16504   8.981   7.558  11.672  0.2221 -1.5396 -0.6720
  863MOL0     H16505   9.145   7.571  11.618 -0.4031  0.6762  0.1202
  864MOL0     O16506  10.399   5.829   9.695 -0.0754 -0.6650 -0.3560
  864MOL0     C16507  10.331   5.846   9.798 -1.0158  0.7768  0.2945
  864MOL0     O16508  10.212   5.915   9.796  0.0188 -1.0844  0.4892
  864MOL0     C16509  10.156   5.934   9.670 -0.1647 -0.6444  0.1949
  864MOL0     C16510  10.177   6.046   9.581  0.0814  0.2464  0.0673
  864MOL0     C16511  10.116   6.050   9.452  0.1091  0.2548 -0.0814
  864MOL0     C16512  10.047   5.938   9.400 -0.4222  0.1396  0.7526
  864MOL0     O16513  10.002   5.953   9.269 -0.0474  0.1205  0.4575
  864MOL0     C16514  10.005   5.852   9.161 -0.4255 -0.0254  0.8258
  864MOL0     C16515  10.100   5.908   9.058 -1.2963 -0.3330 -0.4396
  864MOL0     C16516  10.248   5.941   9.110  0.1186  0.1827  0.1714
  864MOL0     C16517  10.331   5.980   8.982 -1.4709 -0.4000  0.3899
  864MOL0     C16518  10.480   5.986   9.010  0.4013  0.3357 -0.1725
  864MOL0     C16519  10.538   5.838   9.039 -0.0941  0.7851  0.1450
  864MOL0     C16520  10.700   5.857   9.041 -0.1851  0.5739  0.0957
  864MOL0     C16521  10.763   5.735   9.094  0.7826 -1.0889 -0.4763
  864MOL0     N16522  10.909   5.766   9.086  0.1664  0.4472  0.1390
  864MOL0     C16523  10.975   5.859   9.160  0.8668  0.8946  0.2542
  864MOL0     C16524  11.106   5.847   9.131 -0.2601  0.2892 -0.1647
  864MOL0     C16525  11.217   5.948   9.170 -0.6089  0.1661 -0.4485
  864MOL0     C16526  11.196   6.077   9.080  0.3442 -0.5227 -0.4768
  864MOL0     C16527  11.196   6.056   8.933  0.1636 -0.7807 -0.4081
  864MOL0     C16528  11.198   6.193   8.860 -0.3398 -0.0567  0.4482
  864MOL0     O16529  11.238   6.155   8.728 -0.7751 -0.2736  0.0723
  864MOL0     C16530  11.205   6.236   8.621  0.2372 -0.0169 -0.3199
  864MOL0     C16531  11.099   6.325   8.606  0.4492  0.4450 -0.8102
  864MOL0     C16532  11.075   6.421   8.504 -0.4309  1.2020  0.5247
  864MOL0     C16533  11.169   6.416   8.396  0.1468  0.6996 -0.8240
  864MOL0     C16534  11.144   6.499   8.281 -1.2940 -0.2377  0.2356
  864MOL0     O16535  11.226   6.479   8.166  0.2127  0.0635 -0.0401
  864MOL0     C16536  11.208   6.564   8.061  0.1547 -0.6724 -0.1975
  864MOL0     C16537  11.121   6.533   7.958 -0.5257 -0.0969  0.4320
  864MOL0     C16538  11.108   6.617   7.848  0.3360  0.5620 -0.2134
  864MOL0     C16539  11.168   6.741   7.840 -0.0734 -0.2463 -0.7958
  864MOL0     O16540  11.141   6.827   7.738  0.2359  1.1463  0.0119
  864MOL0     C16541  11.239   6.913   7.700 -0.1518  0.5645 -0.4799
  864MOL0     C16542  11.182   7.048   7.718 -0.3581 -0.2964 -0.2011
  864MOL0     C16543  11.272   7.172   7.742 -0.0466 -0.8909  0.3043
  864MOL0     C16544  11.211   7.294   7.678  0.4454 -1.3265  0.1982
  864MOL0     C16545  11.288   7.426   7.694  0.3619 -0.1503 -1.9518
  864MOL0     C16546  11.218   7.538   7.616 -0.3640 -0.4758  0.8870
  864MOL0     C16547  11.282   7.676   7.638  0.4372  1.0584  0.0362
  864MOL0     C16548  11.239   7.763   7.527 -1.2500 -0.5978 -0.0662
  864MOL0    Cl16549  11.319   7.926   7.522  0.2742  0.5102 -0.2611
  864MOL0     C16550  11.238   6.779   7.959 -0.2594  0.2509  0.1951
  864MOL0     C16551  11.260   6.697   8.073  0.2703  1.0325 -0.4244
  864MOL0     O16552  11.061   6.592   8.292 -1.1637 -0.7840  0.1946
  864MOL0     C16553  11.275   6.315   8.399  0.3201  0.4335  0.1770
  864MOL0     C16554  11.301   6.235   8.514 -0.3423 -0.9985 -0.9453
  864MOL0     N16555  11.124   5.737   9.048 -0.2948 -0.2113 -0.2972
  864MOL0     N16556  11.008   5.687   9.029 -0.0884 -0.1832  0.7125
  864MOL0     C16557  10.024   5.828   9.482 -0.4723 -0.1684  0.1176
  864MOL0     C16558  10.071   5.826   9.619 -0.6588  0.3122  0.8356
  864MOL0     C16559  10.391   5.796   9.929  0.4446 -0.1344  0.7042
  864MOL0     C16560  10.332   5.849  10.045 -0.6552 -0.4757  0.5839
  864MOL0     C16561  10.370   5.813  10.170 -0.0872  1.1054 -0.1441
  864MOL0     C16562  10.477   5.723  10.187  0.2306  0.0885  0.4271
  864MOL0     O16563  10.510   5.651  10.302  0.5548 -0.2991 -0.0929
  864MOL0     C16564  10.405   5.646  10.409  0.1042  1.1399 -0.9227
  864MOL0     C16565  10.456   5.570  10.536  1.4793  0.6031  0.4842
  864MOL0     C16566  10.450   5.424  10.511 -0.6657 -0.3107 -0.1833
  864MOL0     C16567  10.547   5.357  10.604  0.6764  0.0571  1.1825
  864MOL0     C16568  10.526   5.214  10.619  0.2139  1.0282  0.2449
  864MOL0     C16569  10.526   5.098  10.639 -0.4421  0.1276 -0.0246
  864MOL0     C16570  10.547   5.680  10.075 -0.8368  0.2584 -0.4848
  864MOL0     C16571  10.506   5.715   9.940  0.5853 -0.0738 -1.2413
  864MOL0     C16572  10.581   5.665   9.816 -0.0748  0.6261 -0.5625
  864MOL0     H16573  10.239   6.128   9.615 -2.6237  1.6407  2.0652
  864MOL0     H16574  10.128   6.128   9.378  2.1332 -1.9392 -2.2385
  864MOL0     H16575  10.024   5.745   9.173 -4.7364 -1.5179 -2.7329
  864MOL0     H16576   9.902   5.851   9.124  0.2148  2.1393 -1.2892
  864MOL0     H16577  10.058   5.990   8.999 -1.2248 -0.5938 -0.8561
  864MOL0     H16578  10.110   5.824   8.989 -0.7403 -1.3727  0.8507
  864MOL0     H16579  10.288   5.859   9.170 -0.6393  0.7624  1.5052
  864MOL0     H16580  10.236   6.023   9.181 -1.1953  0.2157 -0.0641
  864MOL0     H16581  10.314   5.901   8.908 -0.2476 -0.4849  0.1812
  864MOL0     H16582  10.306   6.082   8.953  1.2173  1.0375  2.6371
  864MOL0     H16583  10.525   6.014   8.915  0.4420  0.5637 -0.0859
  864MOL0     H16584  10.495   6.062   9.087  1.6460  0.7560 -0.8133
  864MOL0     H16585  10.501   5.792   9.132  2.6914 -0.6151  0.6885
  864MOL0     H16586  10.500   5.765   8.968  0.5161 -0.0312  0.6422
  864MOL0     H16587  10.712   5.943   9.108  2.3864 -1.5755  2.6601
  864MOL0     H16588  10.734   5.880   8.939 -0.4518  1.0820  0.1194
  864MOL0     H16589  10.723   5.720   9.195 -1.6886  1.6482 -0.9513
  864MOL0     H16590  10.737   5.641   9.044  3.0222 -1.9749 -0.1253
  864MOL0     H16591  10.931   5.945   9.210  0.4167 -0.2891  1.9960
  864MOL0     H16592  11.214   5.973   9.276  1.4750 -1.7147  0.1380
  864MOL0     H16593  11.309   5.891   9.159 -0.2182  0.6102  0.4169
  864MOL0     H16594  11.101   6.118   9.116 -0.0628 -1.4120 -0.5138
  864MOL0     H16595  11.282   6.139   9.106  0.0734 -0.4752  0.3496
  864MOL0     H16596  11.108   5.997   8.905 -1.0590  0.4777  0.6134
  864MOL0     H16597  11.286   6.000   8.907  1.8147  0.8696  1.4082
  864MOL0     H16598  11.284   6.256   8.885  3.5371 -3.6427 -2.3969
  864MOL0     H16599  11.099   6.236   8.870 -0.4673 -0.3073  0.2856
  864MOL0     H16600  11.024   6.325   8.685 -1.3666  2.2987 -2.4454
  864MOL0     H16601  10.988   6.485   8.504  0.7103  2.7968  0.4338
  864MOL0     H16602  11.079   6.433   7.954 -0.1011 -0.2395 -1.3302
  864MOL0     H16603  11.040   6.585   7.770 -0.4625  0.3385  0.5506
  864MOL0     H16604  11.332   6.888   7.752 -1.4801 -3.3943  0.3062
  864MOL0     H16605  11.270   6.898   7.597 -0.1108 -2.4272 -0.1108
  864MOL0     H16606  11.134   7.064   7.621 -1.1588  2.2987  0.5536
  864MOL0     H16607  11.104   7.047   7.795 -0.6087 -2.0148 -0.4339
  864MOL0     H16608  11.299   7.198   7.844 -0.4469  2.1948 -0.2693
  864MOL0     H16609  11.371   7.156   7.698 -0.5159  0.1012 -1.1985
  864MOL0     H16610  11.116   7.312   7.731 -0.5827 -1.9133 -1.3932
  864MOL0     H16611  11.186   7.275   7.574  0.0033 -2.1106  0.4399
  864MOL0     H16612  11.387   7.403   7.652  1.1627 -1.2905  0.4125
  864MOL0     H16613  11.301   7.458   7.797  0.5724 -1.9236 -1.3918
  864MOL0     H16614  11.208   7.511   7.510 -1.9530  1.6814  0.4345
  864MOL0     H16615  11.117   7.548   7.655 -2.1863  2.7536 -3.7362
  864MOL0     H16616  11.390   7.673   7.654  0.9137  3.7919 -1.9870
  864MOL0     H16617  11.234   7.699   7.733 -0.5533 -1.2145  0.1493
  864MOL0     H16618  11.266   7.719   7.430  0.9550 -0.2256  0.3382
  864MOL0     H16619  11.131   7.778   7.541 -1.4220 -1.8226  0.0621
  864MOL0     H16620  11.291   6.874   7.965  1.9500 -0.9566  0.9416
  864MOL0     H16621  11.319   6.723   8.160 -1.4899 -1.6178  1.7292
  864MOL0     H16622  11.333   6.310   8.307 -3.4433  2.6934 -2.5737
  864MOL0     H16623  11.387   6.168   8.520  0.6283  0.0832 -2.0317
  864MOL0     H16624   9.977   5.743   9.434 -0.4496 -0.4302  0.5499
  864MOL0     H16625  10.053   5.740   9.682 -1.8014  1.6902  2.4655
  864MOL0     H16626  10.262   5.930  10.025  2.4757  2.2217 -0.3192
  864MOL0     H16627  10.317   5.842  10.260 -0.9420  0.4455 -0.4247
  864MOL0     H16628  10.322   5.594  10.360  0.6067 -0.6799  0.0768
  864MOL0     H16629  10.370   5.745  10.438 -3.1559 -0.3557  0.7613
  864MOL0     H16630  10.389   5.603  10.616  2.1155  2.3931  0.3327
  864MOL0     H16631  10.554   5.614  10.554  0.7336  2.5719  0.0938
  864MOL0     H16632  10.477   5.409  10.406  0.6986  0.6150  0.0145
  864MOL0     H16633  10.346   5.392  10.513  0.0578 -3.1601 -2.2540
  864MOL0     H16634  10.649   5.369  10.564 -0.4775 -1.7818 -2.8367
  864MOL0     H16635  10.546   5.392  10.708 -2.4546 -1.0316  1.6255
  864MOL0     H16636  10.525   5.000  10.684  0.7687  1.0806  2.2628
  864MOL0     H16637  10.631   5.612  10.081 -1.0513  0.1160  1.6025
  864MOL0     H16638  10.677   5.617   9.834 -0.6419 -0.3516 -0.0600
  864MOL0     H16639  10.526   5.611   9.738  2.4382 -0.0643 -1.9679
  864MOL0     H16640  10.608   5.759   9.766  0.2299  1.2348  0.7036
  865MOL0     O16641   2.610  11.139   7.436 -0.5700  0.3639 -0.0314
  865MOL0     C16642   2.502  11.149   7.385 -0.5158 -0.4390 -0.5055
  865MOL0     O16643   2.380  11.102   7.442 -0.3652 -0.1327 -0.1100
  865MOL0     C16644   2.395  11.035   7.558 -0.3393 -0.1400 -0.0218
  865MOL0     C16645   2.390  11.100   7.682  0.6009  0.0510  0.9877
  865MOL0     C16646   2.408  11.019   7.799 -0.7310 -0.4114 -0.0910
  865MOL0     C16647   2.413  10.883   7.795 -1.2378  0.0722  0.1268
  865MOL0     O16648   2.412  10.809   7.909  0.1744  0.3991  0.1473
  865MOL0     C16649   2.307  10.835   8.006 -0.9105  0.3040  0.8313
  865MOL0     C16650   2.168  10.796   7.973 -0.3480  0.3935 -0.5891
  865MOL0     C16651   2.076  10.815   8.102 -0.0439 -0.0965  0.1815
  865MOL0     C16652   2.017  10.681   8.163  0.5993 -0.2242 -0.1851
  865MOL0     C16653   2.031  10.664   8.316 -0.1810 -0.6360  0.0987
  865MOL0     C16654   2.175  10.656   8.368  0.2264 -0.0655  0.4334
  865MOL0     C16655   2.177  10.628   8.524 -0.7166 -0.1497  0.3557
  865MOL0     C16656   2.117  10.740   8.611 -0.3648 -1.1592 -0.4921
  865MOL0     N16657   2.176  10.873   8.585  0.8973 -0.1075  0.7446
  865MOL0     C16658   2.107  10.988   8.555 -0.0930 -0.1123 -0.0641
  865MOL0     C16659   2.198  11.088   8.563  0.4965  0.7114 -0.6599
  865MOL0     C16660   2.194  11.239   8.533  1.2151  0.4433 -0.1622
  865MOL0     C16661   2.156  11.314   8.661  0.1321  0.2977 -0.3180
  865MOL0     C16662   2.183  11.460   8.661  0.3161 -1.0667 -0.5479
  865MOL0     C16663   2.295  11.517   8.745 -0.9853 -0.1321  1.0085
  865MOL0     O16664   2.424  11.473   8.694 -0.2262 -0.6416  0.5883
  865MOL0     C16665   2.488  11.390   8.776  0.1750  0.5100 -0.4181
  865MOL0     C16666   2.504  11.426   8.909 -0.7004  0.7086  0.7420
  865MOL0     C16667   2.577  11.343   9.000  0.8761  0.1465  0.9850
  865MOL0     C16668   2.629  11.227   8.948 -0.1852 -0.0232 -0.8714
  865MOL0     C16669   2.724  11.151   9.032  0.1167  0.6163  0.1946
  865MOL0     O16670   2.752  11.034   8.972  0.0024 -0.9430  1.1245
  865MOL0     C16671   2.846  10.945   9.021  0.3063 -0.9445 -0.0186
  865MOL0     C16672   2.929  10.885   8.926 -0.3770  0.7762 -0.4301
  865MOL0     C16673   3.035  10.801   8.978 -0.5970  0.0599  0.2765
  865MOL0     C16674   3.044  10.766   9.115 -0.1131 -0.4025 -0.2405
  865MOL0     O16675   3.152  10.684   9.143  0.0497  0.1995  0.2833
  865MOL0     C16676   3.214  10.685   9.274 -0.5773 -0.3336  0.1173
  865MOL0     C16677   3.303  10.565   9.284  0.9600  0.3553  0.3867
  865MOL0     C16678   3.237  10.428   9.329  0.5594 -0.5702  0.3036
  865MOL0     C16679   3.339  10.307   9.350 -0.0914 -0.7036  0.0829
  865MOL0     C16680   3.468  10.296   9.273  0.0569 -0.1142  0.6998
  865MOL0     C16681   3.440  10.274   9.124 -0.5128 -0.4079  0.2155
  865MOL0     C16682   3.561  10.306   9.029 -0.7335  0.1153 -0.9512
  865MOL0     C16683   3.686  10.221   9.072  0.2925  0.0360  0.5589
  865MOL0    Cl16684   3.804  10.310   9.156  0.1830  0.0355  0.2673
  865MOL0     C16685   2.959  10.828   9.209  0.3390 -0.5163  0.5298
  865MOL0     C16686   2.860  10.915   9.163  0.1163  0.3100  0.1036
  865MOL0     O16687   2.775  11.193   9.136  0.7769 -0.5011  0.4839
  865MOL0     C16688   2.601  11.186   8.819 -0.1333  0.0928  0.6622
  865MOL0     C16689   2.523  11.260   8.729  1.2348  0.1600  0.0108
  865MOL0     N16690   2.309  11.032   8.621  0.3019  0.6379  0.4613
  865MOL0     N16691   2.301  10.904   8.625  0.5733  0.5367 -0.3041
  865MOL0     C16692   2.423  10.821   7.671 -0.0402  0.6826 -1.1403
  865MOL0     C16693   2.408  10.893   7.554  0.1457 -0.4230  0.0381
  865MOL0     C16694   2.499  11.210   7.252  0.2677  1.0770  0.0216
  865MOL0     C16695   2.405  11.150   7.164  0.1119 -0.6746  0.2190
  865MOL0     C16696   2.384  11.181   7.032 -0.6154  0.1007  0.2244
  865MOL0     C16697   2.468  11.287   6.979 -0.0803  0.2165 -0.0519
  865MOL0     O16698   2.440  11.322   6.844  0.4287  0.2875 -0.1787
  865MOL0     C16699   2.505  11.427   6.789  0.2778  0.2401  1.3637
  865MOL0     C16700   2.471  11.435   6.641 -0.2979  0.0125 -0.7989
  865MOL0     C16701   2.578  11.486   6.556 -0.4001 -0.0458  1.4595
  865MOL0     C16702   2.602  11.630   6.582  0.2996 -0.5174  0.3315
  865MOL0     C16703   2.697  11.691   6.495 -0.1010 -0.0543 -0.9790
  865MOL0     C16704   2.774  11.737   6.418 -0.3895 -0.5527 -0.6609
  865MOL0     C16705   2.576  11.334   7.058 -0.7005 -0.9492 -0.4341
  865MOL0     C16706   2.597  11.292   7.191  0.0835 -0.4797 -1.0500
  865MOL0     C16707   2.717  11.350   7.271 -0.5078  0.6363 -0.3238
  865MOL0     H16708   2.376  11.208   7.679 -3.4278 -0.3333 -0.9460
  865MOL0     H16709   2.422  11.067   7.895  1.3785 -1.7476  0.3383
  865MOL0     H16710   2.342  10.795   8.101  0.3456 -0.4641  0.0817
  865MOL0     H16711   2.311  10.942   8.026 -1.8568  0.7981 -1.2965
  865MOL0     H16712   2.161  10.692   7.939  0.8762 -0.2281  0.9128
  865MOL0     H16713   2.132  10.862   7.894  0.8606  0.7110 -0.9012
  865MOL0     H16714   1.987  10.874   8.079 -1.1291 -0.0199  3.9465
  865MOL0     H16715   2.116  10.881   8.180 -0.8518  1.7479 -0.9104
  865MOL0     H16716   1.913  10.683   8.129  0.1237  0.8347  1.2428
  865MOL0     H16717   2.073  10.600   8.114 -0.1729 -1.0654  0.2989
  865MOL0     H16718   1.984  10.755   8.351 -1.1812 -0.2890 -1.9640
  865MOL0     H16719   1.976  10.571   8.334  0.4241 -0.8903  0.6945
  865MOL0     H16720   2.217  10.567   8.319 -2.9889  0.4792 -3.7920
  865MOL0     H16721   2.222  10.752   8.347 -1.0865  0.2695 -1.1921
  865MOL0     H16722   2.282  10.610   8.547 -1.4669 -1.8300  2.9602
  865MOL0     H16723   2.121  10.541   8.560 -1.5946  0.4344  0.4599
  865MOL0     H16724   2.010  10.748   8.592 -0.2975 -0.6956 -0.6948
  865MOL0     H16725   2.130  10.722   8.718  0.2317  3.4834  0.4302
  865MOL0     H16726   2.003  11.005   8.528 -0.6242 -0.3335  1.7359
  865MOL0     H16727   2.299  11.260   8.513  1.5962 -1.1122  0.1068
  865MOL0     H16728   2.131  11.251   8.445 -0.2874 -3.7581  0.1350
  865MOL0     H16729   2.049  11.297   8.675  0.0983  0.9039  0.2133
  865MOL0     H16730   2.208  11.270   8.747 -1.2554 -0.7500  0.0210
  865MOL0     H16731   2.102  11.515   8.709  0.6248 -0.6650 -0.4811
  865MOL0     H16732   2.201  11.486   8.556 -0.1706 -2.1802 -0.9235
  865MOL0     H16733   2.276  11.481   8.847  2.1069 -2.0577  1.0416
  865MOL0     H16734   2.286  11.625   8.748 -2.9006 -0.2802  2.6729
  865MOL0     H16735   2.477  11.519   8.959  0.9612  0.3128  2.4884
  865MOL0     H16736   2.594  11.362   9.106  0.2452 -0.9169  1.2840
  865MOL0     H16737   2.914  10.910   8.822 -0.5464  1.3422 -0.2761
  865MOL0     H16738   3.106  10.754   8.911 -1.6235  0.0341 -0.8312
  865MOL0     H16739   3.271  10.778   9.280 -1.6964  0.2618  3.2617
  865MOL0     H16740   3.147  10.682   9.360 -0.3865 -3.4791  0.2647
  865MOL0     H16741   3.355  10.552   9.189 -0.7162  3.5939 -1.1343
  865MOL0     H16742   3.383  10.584   9.356  1.1366  1.4127 -0.0776
  865MOL0     H16743   3.163  10.444   9.409  0.0768  0.9773 -0.4259
  865MOL0     H16744   3.193  10.380   9.241  4.0219 -1.5730 -1.0290
  865MOL0     H16745   3.276  10.221   9.327 -4.1446  1.8895  0.4609
  865MOL0     H16746   3.365  10.301   9.456 -1.5683 -1.5838  0.4261
  865MOL0     H16747   3.527  10.217   9.321 -0.3871 -0.4154  0.7488
  865MOL0     H16748   3.520  10.390   9.296  1.3000  0.1474 -2.5370
  865MOL0     H16749   3.410  10.169   9.130  1.7869 -1.2967 -2.0958
  865MOL0     H16750   3.359  10.343   9.096  1.2695  2.6995  2.1170
  865MOL0     H16751   3.575  10.413   9.045 -0.3969  0.4174 -3.0406
  865MOL0     H16752   3.545  10.302   8.921 -0.8545  2.0567 -1.0392
  865MOL0     H16753   3.661  10.133   9.133  0.0961 -1.9463 -2.1896
  865MOL0     H16754   3.728  10.170   8.985  0.5081 -2.2851  1.9231
  865MOL0     H16755   2.974  10.810   9.315  3.0965  2.7980  0.8668
  865MOL0     H16756   2.792  10.971   9.225  0.3034  0.1945  0.4162
  865MOL0     H16757   2.645  11.094   8.780 -1.0829  0.0435 -0.3510
  865MOL0     H16758   2.513  11.222   8.628  1.5669 -0.1316  0.0871
  865MOL0     H16759   2.434  10.713   7.672 -1.2263  0.5478 -0.7956
  865MOL0     H16760   2.391  10.835   7.464 -2.5026 -1.2482  0.9812
  865MOL0     H16761   2.341  11.072   7.202  0.2048 -1.0449 -0.3735
  865MOL0     H16762   2.304  11.132   6.976  2.3529 -3.9253 -0.9038
  865MOL0     H16763   2.610  11.395   6.792  0.3968 -0.8703 -4.0336
  865MOL0     H16764   2.496  11.524   6.838 -2.7289 -0.1051  1.6467
  865MOL0     H16765   2.390  11.509   6.643  0.6875  1.0910  0.6215
  865MOL0     H16766   2.440  11.338   6.602  1.2894 -2.6968  3.8813
  865MOL0     H16767   2.540  11.476   6.454 -0.1882  1.7285  1.1752
  865MOL0     H16768   2.673  11.432   6.556 -1.4582 -2.1627 -1.0148
  865MOL0     H16769   2.514  11.696   6.580  2.1397  2.1299 -2.3601
  865MOL0     H16770   2.657  11.630   6.676 -2.2281  1.6807  1.9574
  865MOL0     H16771   2.833  11.785   6.343 -0.1632 -0.4228 -0.3995
  865MOL0     H16772   2.651  11.404   7.022 -1.3342 -0.3834 -0.6801
  865MOL0     H16773   2.673  11.398   7.359  0.1921  2.8926 -1.1510
  865MOL0     H16774   2.780  11.265   7.300 -1.9350 -0.1997  0.4681
  865MOL0     H16775   2.763  11.430   7.212  1.2199 -1.5510 -2.1378
  866MOL0     O16776   7.925   5.941   3.428  0.1728 -0.0823 -0.0662
  866MOL0     C16777   8.026   5.984   3.486  1.0954 -0.9695  0.3008
  866MOL0     O16778   8.154   5.972   3.443  0.5555  0.7007  0.1763
  866MOL0     C16779   8.190   5.892   3.341  0.3093 -0.3986 -0.0345
  866MOL0     C16780   8.215   5.758   3.375  0.5055 -0.1284  0.2493
  866MOL0     C16781   8.241   5.668   3.279 -0.3046  0.5614  1.1858
  866MOL0     C16782   8.232   5.704   3.147  1.2644 -0.4480  0.9547
  866MOL0     O16783   8.271   5.618   3.048 -0.3829 -0.3543  0.1980
  866MOL0     C16784   8.200   5.610   2.923  0.3699 -0.4813 -0.1985
  866MOL0     C16785   8.251   5.501   2.833 -0.2816 -0.8667  0.4502
  866MOL0     C16786   8.201   5.524   2.686 -0.5538 -0.4496 -0.2846
  866MOL0     C16787   8.048   5.494   2.668 -1.3340  0.7224  0.3242
  866MOL0     C16788   8.020   5.345   2.661 -1.6022 -0.1875 -0.6487
  866MOL0     C16789   7.889   5.323   2.609  0.5374 -0.1047  0.1302
  866MOL0     C16790   7.878   5.170   2.595  0.7891  1.4726 -0.2591
  866MOL0     C16791   7.918   5.097   2.471 -1.0092  0.2036 -0.5813
  866MOL0     N16792   8.062   5.066   2.448  0.4221  0.0841  0.7418
  866MOL0     C16793   8.154   5.059   2.556  0.1298  0.5092 -0.4752
  866MOL0     C16794   8.271   5.030   2.489  0.3890  0.9363  0.2273
  866MOL0     C16795   8.404   5.009   2.551  0.7174 -0.1939 -0.3260
  866MOL0     C16796   8.450   5.119   2.645 -0.2556 -0.4198 -0.6377
  866MOL0     C16797   8.535   5.223   2.576 -0.5691  0.1439  0.6833
  866MOL0     C16798   8.596   5.315   2.676 -0.6101  0.5479  0.0424
  866MOL0     O16799   8.700   5.234   2.743  0.5068 -0.6056  0.2186
  866MOL0     C16800   8.805   5.303   2.792 -0.6912  0.2438 -0.3383
  866MOL0     C16801   8.852   5.251   2.908 -0.2357  0.4606 -0.0678
  866MOL0     C16802   8.976   5.286   2.964  0.2274  0.3709  0.6586
  866MOL0     C16803   9.051   5.403   2.908  0.6081  0.5253 -0.5055
  866MOL0     C16804   9.185   5.446   2.947 -0.2096 -0.3773 -0.3520
  866MOL0     O16805   9.209   5.578   2.952  0.2402 -1.1055  0.1073
  866MOL0     C16806   9.335   5.617   2.988  0.5760 -1.1860 -0.2969
  866MOL0     C16807   9.380   5.629   3.119 -0.4700  0.6378  1.1732
  866MOL0     C16808   9.516   5.658   3.147  0.7407  1.0229 -0.5491
  866MOL0     C16809   9.605   5.670   3.047 -0.9080 -0.1784 -0.2314
  866MOL0     O16810   9.741   5.688   3.083  0.6913 -1.3978 -0.4134
  866MOL0     C16811   9.780   5.821   3.081 -0.1859 -0.4943 -0.2239
  866MOL0     C16812   9.913   5.839   3.151  0.2867 -0.1678  0.7968
  866MOL0     C16813   9.952   5.990   3.156 -0.1396 -0.2948 -0.4496
  866MOL0     C16814   9.998   6.068   3.035  0.1385  0.0387  0.3684
  866MOL0     C16815  10.058   6.200   3.091  0.2767  0.6449  0.2252
  866MOL0     C16816   9.970   6.294   3.173 -0.1049 -0.5477  0.1779
  866MOL0     C16817  10.036   6.434   3.185 -0.4685  0.6694  0.4279
  866MOL0     C16818   9.938   6.529   3.237 -0.1824  0.1467  0.0649
  866MOL0    Cl16819   9.904   6.491   3.411 -0.3470  0.1857  0.4515
  866MOL0     C16820   9.570   5.647   2.914  0.4853 -0.2007 -0.3955
  866MOL0     C16821   9.433   5.633   2.881 -0.6816 -0.0927  0.2828
  866MOL0     O16822   9.262   5.353   2.988  0.4815 -0.0797  1.1790
  866MOL0     C16823   8.987   5.467   2.792  0.0075 -0.7288  0.9677
  866MOL0     C16824   8.870   5.415   2.743  0.1827 -0.1350  0.2503
  866MOL0     N16825   8.244   5.017   2.352  0.0102  0.6329  0.3416
  866MOL0     N16826   8.114   5.039   2.331 -0.2416  0.5296  0.2015
  866MOL0     C16827   8.206   5.833   3.108  0.1363  0.0676 -0.1215
  866MOL0     C16828   8.188   5.928   3.208 -0.5697 -0.2400  0.1823
  866MOL0     C16829   8.005   6.068   3.608  0.4065  0.4158  0.6427
  866MOL0     C16830   8.128   6.105   3.678 -0.1169 -0.3111  0.6558
  866MOL0     C16831   8.128   6.176   3.791  0.0808 -0.0235 -1.2572
  866MOL0     C16832   8.005   6.221   3.849 -0.3831  0.5121 -0.7249
  866MOL0     O16833   8.019   6.310   3.963  0.3961 -0.1143  0.5163
  866MOL0     C16834   7.891   6.390   3.982 -0.4715  0.0607 -0.6129
  866MOL0     C16835   7.928   6.517   4.060 -0.3760  0.4338 -0.3150
  866MOL0     C16836   7.891   6.644   3.978  0.5992 -0.6682 -0.0422
  866MOL0     C16837   7.951   6.645   3.841  0.1294 -0.5505  0.4773
  866MOL0     C16838   8.087   6.589   3.824 -0.4970  0.5558  0.6708
  866MOL0     C16839   8.194   6.541   3.809  0.4438 -0.9672  0.1745
  866MOL0     C16840   7.883   6.166   3.796 -0.3204 -0.3289 -0.2828
  866MOL0     C16841   7.883   6.098   3.673 -0.4326 -0.3457  0.1080
  866MOL0     C16842   7.746   6.041   3.629  0.0962 -0.2228 -0.4227
  866MOL0     H16843   8.215   5.732   3.480  5.5108  0.0065  0.5378
  866MOL0     H16844   8.275   5.567   3.299 -0.4321  0.3227  0.2401
  866MOL0     H16845   8.092   5.605   2.941  0.1616 -2.2255 -1.6514
  866MOL0     H16846   8.203   5.706   2.872  0.7879 -1.5157 -2.2475
  866MOL0     H16847   8.211   5.408   2.877 -0.9763 -0.4308  0.7634
  866MOL0     H16848   8.359   5.498   2.848 -0.1383  0.8002 -0.0777
  866MOL0     H16849   8.261   5.458   2.624  1.6311  3.3772 -2.6617
  866MOL0     H16850   8.219   5.624   2.645 -0.7429 -1.2385 -2.3594
  866MOL0     H16851   7.988   5.551   2.739 -1.9969  1.2336 -0.6127
  866MOL0     H16852   8.028   5.527   2.565 -1.3992 -1.1070 -0.2939
  866MOL0     H16853   8.104   5.303   2.604 -2.3124 -0.8233 -1.2293
  866MOL0     H16854   8.028   5.287   2.754 -0.2765 -0.6917 -1.0419
  866MOL0     H16855   7.819   5.355   2.686  0.4575 -1.8614  0.8481
  866MOL0     H16856   7.869   5.372   2.513  0.9042  0.9922  0.5970
  866MOL0     H16857   7.773   5.139   2.596  1.2181 -0.1025 -0.8076
  866MOL0     H16858   7.921   5.125   2.685 -3.6307 -2.1822  0.3936
  866MOL0     H16859   7.879   4.995   2.465  0.1432 -0.2267 -1.2291
  866MOL0     H16860   7.872   5.147   2.385 -4.1392 -1.3987  0.0321
  866MOL0     H16861   8.131   5.074   2.661  2.5684 -1.0028  0.3482
  866MOL0     H16862   8.387   4.919   2.611 -1.2220  1.6934  2.1353
  866MOL0     H16863   8.482   4.998   2.475  2.0970 -0.3042  1.0537
  866MOL0     H16864   8.389   5.176   2.716  3.1869  4.7635 -1.2898
  866MOL0     H16865   8.508   5.061   2.717 -0.0255  0.6185  0.0420
  866MOL0     H16866   8.474   5.274   2.501  1.1425  1.0802 -0.1451
  866MOL0     H16867   8.629   5.177   2.543  0.8702  2.5880  1.1278
  866MOL0     H16868   8.522   5.353   2.747 -0.1987 -1.0084  1.3698
  866MOL0     H16869   8.629   5.402   2.618 -2.2620  0.4872 -1.0126
  866MOL0     H16870   8.794   5.169   2.951  1.1412  0.6985  2.3914
  866MOL0     H16871   9.006   5.242   3.058  0.6698  0.1550  0.4191
  866MOL0     H16872   9.313   5.602   3.200 -1.0316  1.3412  0.9562
  866MOL0     H16873   9.545   5.658   3.252  1.0967 -1.6419 -0.5667
  866MOL0     H16874   9.772   5.853   2.976 -2.5381 -2.2309 -0.6675
  866MOL0     H16875   9.705   5.869   3.144  2.2132 -0.1552  2.5691
  866MOL0     H16876   9.892   5.790   3.247 -0.3141 -2.1998 -0.3213
  866MOL0     H16877   9.993   5.786   3.099 -2.0832 -2.8456 -0.4004
  866MOL0     H16878   9.865   6.042   3.198 -2.4401 -4.1533  0.0936
  866MOL0     H16879  10.032   5.994   3.231  1.7187 -1.7075 -2.2585
  866MOL0     H16880   9.927   6.106   2.961  2.8957 -1.1502 -3.1760
  866MOL0     H16881  10.065   6.009   2.973  0.4929  0.2150  0.5793
  866MOL0     H16882  10.078   6.259   3.001  2.6568 -0.0912  0.2112
  866MOL0     H16883  10.156   6.181   3.135 -0.3051 -1.0485  0.9067
  866MOL0     H16884   9.874   6.300   3.121  0.8877 -1.4413 -1.8970
  866MOL0     H16885   9.943   6.253   3.271  0.5860  0.3330  0.7587
  866MOL0     H16886  10.073   6.470   3.088 -1.4875  0.8977  0.1061
  866MOL0     H16887  10.125   6.423   3.247  2.0819 -2.9396 -3.3794
  866MOL0     H16888   9.974   6.631   3.225 -0.2945  0.0528 -1.2039
  866MOL0     H16889   9.843   6.522   3.183 -0.8117 -2.3718  1.3373
  866MOL0     H16890   9.646   5.654   2.837  1.3954 -2.2044  0.2604
  866MOL0     H16891   9.413   5.628   2.774 -1.1795  4.1091 -0.0246
  866MOL0     H16892   9.022   5.557   2.744  2.3219 -2.6153 -1.1960
  866MOL0     H16893   8.828   5.465   2.656 -0.1977  0.4555  0.7730
  866MOL0     H16894   8.230   5.869   3.009  2.1577  3.2053  1.3368
  866MOL0     H16895   8.183   6.029   3.167  0.3299  0.8823  2.6883
  866MOL0     H16896   8.222   6.053   3.659  0.5701  1.2803 -0.5183
  866MOL0     H16897   8.218   6.196   3.849 -1.3423  3.6963 -0.0347
  866MOL0     H16898   7.822   6.326   4.038 -0.7502 -0.3246 -1.3813
  866MOL0     H16899   7.844   6.415   3.886 -2.4585  0.7151  0.4804
  866MOL0     H16900   8.029   6.527   4.101 -1.3841  5.0745  1.7702
  866MOL0     H16901   7.874   6.505   4.155 -1.8180 -0.0430 -1.1649
  866MOL0     H16902   7.936   6.729   4.030 -0.0699  0.1270 -0.7189
  866MOL0     H16903   7.782   6.659   3.977  0.5387 -0.9304  1.1529
  866MOL0     H16904   7.886   6.591   3.773 -0.6847  2.1103 -0.9972
  866MOL0     H16905   7.963   6.749   3.811  0.3569 -0.5922  0.4248
  866MOL0     H16906   8.295   6.504   3.806  1.5095  1.7601 -0.8028
  866MOL0     H16907   7.797   6.199   3.852 -0.4442 -0.3135 -0.4810
  866MOL0     H16908   7.664   6.087   3.685  0.8585  0.1990  0.3811
  866MOL0     H16909   7.718   6.055   3.524 -2.6411  1.5950  0.4360
  866MOL0     H16910   7.742   5.935   3.656  0.4849  0.2267  1.5654
  867MOL0     O16911   3.628   2.644   1.419  0.0000 -0.0164 -0.0379
  867MOL0     C16912   3.530   2.659   1.350  1.0433 -0.3411 -0.1192
  867MOL0     O16913   3.436   2.566   1.341 -0.0466 -0.4741 -0.1711
  867MOL0     C16914   3.429   2.449   1.412 -0.3477  0.0647 -0.5715
  867MOL0     C16915   3.316   2.421   1.491  0.1997 -0.7768  0.1483
  867MOL0     C16916   3.306   2.299   1.541 -0.0230 -0.3002  0.4007
  867MOL0     C16917   3.419   2.207   1.536  0.3966  0.3788  0.6340
  867MOL0     O16918   3.393   2.104   1.622 -0.1087  0.5685  0.5322
  867MOL0     C16919   3.509   2.053   1.693  0.2734 -0.3189  0.4864
  867MOL0     C16920   3.463   1.934   1.775  0.0525  0.0509  0.2760
  867MOL0     C16921   3.387   1.978   1.892 -0.2913  0.3682  0.4734
  867MOL0     C16922   3.360   1.848   1.979  0.1953  1.0200 -1.3107
  867MOL0     C16923   3.280   1.878   2.108 -0.2336  0.0551  0.0843
  867MOL0     C16924   3.354   1.958   2.205 -0.3290 -1.1858 -0.2526
  867MOL0     C16925   3.275   1.980   2.328  0.4539  0.0831  0.2221
  867MOL0     C16926   3.178   2.091   2.304  0.6320  1.1919 -0.7962
  867MOL0     N16927   3.045   2.043   2.329 -0.2615 -1.0399 -0.3938
  867MOL0     C16928   2.959   2.008   2.234 -0.1455 -0.5358  0.0568
  867MOL0     C16929   2.832   2.022   2.284 -0.6006  0.4213 -0.7186
  867MOL0     C16930   2.709   1.994   2.210 -0.2196 -0.5821  0.6628
  867MOL0     C16931   2.675   1.848   2.216 -0.2443 -0.2420  0.2723
  867MOL0     C16932   2.523   1.820   2.221  0.4256 -0.9230  0.0798
  867MOL0     C16933   2.443   1.863   2.096  0.4158  0.2504 -0.5918
  867MOL0     O16934   2.301   1.833   2.122 -0.4198  0.5365 -0.1581
  867MOL0     C16935   2.216   1.871   2.027 -0.0175 -0.1749  0.3241
  867MOL0     C16936   2.228   1.844   1.894  0.8562  0.7909  0.0101
  867MOL0     C16937   2.127   1.881   1.809  0.6303 -0.6626  0.3398
  867MOL0     C16938   2.014   1.961   1.849  0.0811 -0.1243 -0.7298
  867MOL0     C16939   1.912   2.011   1.749 -0.2756  0.2754 -0.6321
  867MOL0     O16940   1.848   2.129   1.788  0.0617 -0.4409  0.3847
  867MOL0     C16941   1.769   2.205   1.705 -0.0606  0.8929  0.1341
  867MOL0     C16942   1.646   2.246   1.754 -0.1410  0.5459  0.6379
  867MOL0     C16943   1.557   2.325   1.674 -0.4396 -0.0358  0.3832
  867MOL0     C16944   1.595   2.367   1.541 -0.4111 -0.4156  0.9575
  867MOL0     O16945   1.504   2.436   1.462  0.5525 -0.3591  0.1142
  867MOL0     C16946   1.512   2.441   1.318  0.2569  0.9954  0.1516
  867MOL0     C16947   1.386   2.531   1.280 -0.8026  0.2936  0.0866
  867MOL0     C16948   1.376   2.576   1.136  0.0399  0.5411  0.3622
  867MOL0     C16949   1.492   2.670   1.103 -0.3432  0.2463  0.0108
  867MOL0     C16950   1.460   2.746   0.973  0.4905  0.5459 -0.1309
  867MOL0     C16951   1.582   2.843   0.959  0.5906  0.1085 -0.0375
  867MOL0     C16952   1.577   2.916   0.824 -0.8469 -0.0443  0.4904
  867MOL0     C16953   1.449   3.001   0.803 -0.4132 -0.6500 -0.2007
  867MOL0    Cl16954   1.304   2.922   0.741  0.0204 -0.1809  0.2387
  867MOL0     C16955   1.723   2.335   1.498  0.0124  0.0963  0.6816
  867MOL0     C16956   1.805   2.254   1.577 -0.1455 -0.0246 -0.5155
  867MOL0     O16957   1.884   1.942   1.652  0.4481 -0.0514 -0.5014
  867MOL0     C16958   1.996   1.969   1.988 -0.0113  0.1008  0.2749
  867MOL0     C16959   2.099   1.927   2.073 -0.1433  1.2781 -0.9385
  867MOL0     N16960   2.844   2.060   2.415  0.6260  0.5983  0.7730
  867MOL0     N16961   2.969   2.073   2.445 -0.2184  0.1128 -0.1315
  867MOL0     C16962   3.532   2.239   1.462  0.5866  0.3133  0.3688
  867MOL0     C16963   3.528   2.355   1.387 -0.4540 -0.2719 -0.2738
  867MOL0     C16964   3.523   2.772   1.255  0.0618 -0.3778  0.3184
  867MOL0     C16965   3.457   2.749   1.128  0.0877 -0.1848 -0.2939
  867MOL0     C16966   3.438   2.857   1.045  0.0575 -0.0987  0.9143
  867MOL0     C16967   3.473   2.988   1.079  0.5631 -0.3246 -0.5464
  867MOL0     O16968   3.443   3.094   0.991 -0.5005  0.5280 -0.8391
  867MOL0     C16969   3.460   3.224   1.046 -0.1659 -0.0371 -0.2473
  867MOL0     C16970   3.426   3.322   0.926 -0.0529  0.3028  0.2459
  867MOL0     C16971   3.520   3.285   0.801 -0.1950 -0.0308 -0.0073
  867MOL0     C16972   3.465   3.208   0.681  0.0653  1.3963  0.3121
  867MOL0     C16973   3.346   3.269   0.618 -0.0631 -0.1001 -0.1786
  867MOL0     C16974   3.246   3.317   0.573 -0.2586  0.1668  0.1297
  867MOL0     C16975   3.535   2.999   1.205  0.1787 -0.9958 -1.0856
  867MOL0     C16976   3.571   2.894   1.294  0.2455  0.0664  0.2644
  867MOL0     C16977   3.639   2.931   1.425 -0.3276  0.4947 -0.3062
  867MOL0     H16978   3.245   2.502   1.503 -0.9590 -1.5217 -1.2212
  867MOL0     H16979   3.217   2.271   1.596  0.1511 -0.8010  0.4355
  867MOL0     H16980   3.568   2.019   1.607 -2.8640 -1.1058 -1.5649
  867MOL0     H16981   3.543   2.137   1.753 -0.9530 -0.1345  0.9616
  867MOL0     H16982   3.552   1.880   1.810 -0.1948  0.1919  1.1370
  867MOL0     H16983   3.402   1.873   1.707 -0.4680  2.2741 -1.3945
  867MOL0     H16984   3.291   2.016   1.857  1.1081  2.1179 -1.7417
  867MOL0     H16985   3.438   2.059   1.947 -0.1338  0.2357  0.5255
  867MOL0     H16986   3.299   1.781   1.917 -0.7438 -0.2506  0.8874
  867MOL0     H16987   3.455   1.800   2.003 -0.2664  0.2184 -1.0417
  867MOL0     H16988   3.188   1.934   2.085 -0.3446  0.2254  0.9224
  867MOL0     H16989   3.256   1.786   2.161 -1.3782  0.5211  0.4132
  867MOL0     H16990   3.450   1.916   2.235  0.0361 -0.5593 -0.5119
  867MOL0     H16991   3.379   2.060   2.173  0.4306 -0.7127  1.6624
  867MOL0     H16992   3.345   2.007   2.408 -0.5184  1.8777  0.5145
  867MOL0     H16993   3.230   1.886   2.361  1.6893  0.2285  2.5616
  867MOL0     H16994   3.205   2.164   2.381  1.8569 -1.1294  1.1164
  867MOL0     H16995   3.177   2.143   2.207 -0.9395  4.1270  0.6507
  867MOL0     H16996   2.985   1.994   2.130  0.2713 -0.5121  0.1552
  867MOL0     H16997   2.636   2.051   2.269  1.8742  1.1193  1.7845
  867MOL0     H16998   2.710   2.033   2.108 -1.4942  1.0571  1.2285
  867MOL0     H16999   2.720   1.797   2.129  0.0155  1.2961 -0.5271
  867MOL0     H17000   2.718   1.803   2.306  0.9164 -0.7041 -0.4884
  867MOL0     H17001   2.490   1.871   2.312  2.9830 -1.9220  1.6833
  867MOL0     H17002   2.508   1.714   2.244 -0.1546 -1.0928 -1.0023
  867MOL0     H17003   2.483   1.812   2.007 -0.3518  2.0914 -2.0670
  867MOL0     H17004   2.459   1.968   2.068  3.7639 -0.5738 -2.3638
  867MOL0     H17005   2.311   1.782   1.864 -1.9821 -1.2763 -4.7220
  867MOL0     H17006   2.130   1.856   1.703  1.2786 -3.1202  0.8733
  867MOL0     H17007   1.628   2.212   1.855  0.9778 -0.5141  0.5065
  867MOL0     H17008   1.462   2.367   1.705  0.1826  0.9866  0.9815
  867MOL0     H17009   1.605   2.481   1.276  0.0368 -0.2579 -1.6640
  867MOL0     H17010   1.496   2.340   1.278 -1.3343  0.9545  0.8309
  867MOL0     H17011   1.305   2.461   1.301 -0.2501  0.3420  2.7729
  867MOL0     H17012   1.399   2.618   1.345 -2.5389  0.7552 -0.1504
  867MOL0     H17013   1.385   2.498   1.060 -0.1456  0.9695 -0.0982
  867MOL0     H17014   1.287   2.639   1.138  1.2166  2.3067  0.2329
  867MOL0     H17015   1.591   2.624   1.092  0.0297  0.9986  0.1417
  867MOL0     H17016   1.510   2.740   1.185  0.3416 -1.1084  1.0652
  867MOL0     H17017   1.364   2.798   0.978  0.1848 -0.0856  0.9869
  867MOL0     H17018   1.459   2.667   0.897 -1.9392 -0.7069  1.0750
  867MOL0     H17019   1.584   2.913   1.043  0.1398 -2.9490  2.7221
  867MOL0     H17020   1.675   2.785   0.968  4.1518  5.0389 -0.4104
  867MOL0     H17021   1.583   2.838   0.748  2.2312 -1.1625  1.7213
  867MOL0     H17022   1.674   2.966   0.819  0.7377 -2.7830  1.4636
  867MOL0     H17023   1.433   3.057   0.896 -1.2531  0.5758 -1.0541
  867MOL0     H17024   1.481   3.069   0.723  2.8769  0.1615  1.6059
  867MOL0     H17025   1.747   2.362   1.395  0.4004  1.6366  1.1621
  867MOL0     H17026   1.899   2.223   1.533  1.4551  1.5056  1.6618
  867MOL0     H17027   1.909   2.015   2.034  0.1388  0.4352  0.2280
  867MOL0     H17028   2.097   1.944   2.180  1.5872  1.6066 -0.9234
  867MOL0     H17029   3.626   2.185   1.458  1.4746  1.4962  2.7371
  867MOL0     H17030   3.612   2.386   1.326 -0.0441  2.6223  1.5418
  867MOL0     H17031   3.418   2.651   1.106  1.8795 -0.6901 -1.5074
  867MOL0     H17032   3.397   2.845   0.946 -1.2989 -0.2839  1.4863
  867MOL0     H17033   3.568   3.226   1.058  0.2403  3.5963 -2.7794
  867MOL0     H17034   3.407   3.251   1.138  0.8511  3.2629 -0.4990
  867MOL0     H17035   3.449   3.424   0.956  0.0846 -0.9089  5.1778
  867MOL0     H17036   3.319   3.300   0.914  0.2118 -3.2279  2.6044
  867MOL0     H17037   3.622   3.251   0.822 -1.1508 -3.3192 -0.2591
  867MOL0     H17038   3.538   3.384   0.757  0.3760  0.3388  1.0310
  867MOL0     H17039   3.552   3.207   0.614  0.4059  1.5459  0.7412
  867MOL0     H17040   3.447   3.105   0.712  1.0560  1.0951 -0.0619
  867MOL0     H17041   3.156   3.352   0.527 -0.0791  0.3513 -0.0869
  867MOL0     H17042   3.564   3.102   1.226 -0.8917 -0.5337 -1.7578
  867MOL0     H17043   3.728   2.869   1.432 -4.5907 -6.5411  1.8089
  867MOL0     H17044   3.657   3.039   1.426 -0.7152  0.5742 -1.0630
  867MOL0     H17045   3.587   2.897   1.516  0.5119  2.2673  0.9041
  868MOL0     O17046   8.175   6.371   5.432  0.8550  0.3136  1.0173
  868MOL0     C17047   8.082   6.445   5.414  0.6609  0.2279  0.0582
  868MOL0     O17048   8.045   6.505   5.297 -0.3531 -0.9550 -0.4719
  868MOL0     C17049   8.109   6.496   5.175  0.1281 -1.2315 -0.1445
  868MOL0     C17050   8.039   6.549   5.068 -0.3866 -0.2433 -0.1128
  868MOL0     C17051   8.100   6.541   4.937 -0.1619  0.4614 -0.3982
  868MOL0     C17052   8.230   6.488   4.924  0.4098 -1.2839 -0.1602
  868MOL0     O17053   8.279   6.479   4.798 -0.0119 -0.4533  0.3291
  868MOL0     C17054   8.370   6.590   4.763  0.4483  0.5428 -0.5827
  868MOL0     C17055   8.409   6.581   4.613  0.3930  0.5616 -0.6187
  868MOL0     C17056   8.287   6.587   4.524  0.1326 -1.1661 -0.8784
  868MOL0     C17057   8.315   6.622   4.381 -0.0606  0.2349  0.3712
  868MOL0     C17058   8.334   6.502   4.283 -0.0607 -0.2417 -1.6769
  868MOL0     C17059   8.472   6.434   4.313  0.9905 -1.0365  0.0478
  868MOL0     C17060   8.506   6.335   4.197 -0.5366  0.0852 -0.4463
  868MOL0     C17061   8.559   6.402   4.069  0.8977 -0.8643 -0.6427
  868MOL0     N17062   8.620   6.313   3.972 -0.4412  0.3438 -0.5306
  868MOL0     C17063   8.558   6.216   3.901  0.1829 -0.0771  0.7154
  868MOL0     C17064   8.657   6.153   3.837  0.1810  1.0978  0.3315
  868MOL0     C17065   8.656   6.026   3.752 -0.1839 -0.6495  0.8263
  868MOL0     C17066   8.699   6.045   3.601 -0.7182 -0.5945 -0.4480
  868MOL0     C17067   8.638   6.162   3.525 -0.0659 -0.3221 -0.0122
  868MOL0     C17068   8.706   6.178   3.391 -0.4896 -0.2517 -0.2126
  868MOL0     O17069   8.685   6.051   3.329 -0.6052 -1.1500  0.3406
  868MOL0     C17070   8.647   6.047   3.193  0.1621  0.7984 -0.3131
  868MOL0     C17071   8.644   6.154   3.113 -0.3219  0.8290 -0.3058
  868MOL0     C17072   8.574   6.140   2.993  0.6033  0.2556 -0.0399
  868MOL0     C17073   8.513   6.026   2.947  0.0824 -0.6904 -0.8722
  868MOL0     C17074   8.426   6.017   2.831  0.1753 -0.2000  0.5280
  868MOL0     O17075   8.442   6.118   2.745 -0.5894 -0.8918 -0.1821
  868MOL0     C17076   8.359   6.137   2.647  0.9240 -0.5799 -0.2453
  868MOL0     C17077   8.225   6.137   2.650  0.3324 -1.0864 -0.2771
  868MOL0     C17078   8.158   6.175   2.537 -0.5673  0.4475  0.1512
  868MOL0     C17079   8.211   6.199   2.416 -0.1251 -1.0115  0.8291
  868MOL0     O17080   8.129   6.236   2.309  1.4080 -0.6140 -0.8619
  868MOL0     C17081   8.052   6.121   2.253 -0.2883  0.1218 -0.4971
  868MOL0     C17082   7.979   6.159   2.119 -1.2260 -1.1155  0.1010
  868MOL0     C17083   7.914   6.036   2.055 -0.9696  0.0799  0.7238
  868MOL0     C17084   8.024   5.967   1.962  0.3523  0.9792 -0.7108
  868MOL0     C17085   7.979   5.825   1.933 -0.1891 -1.4655 -0.7735
  868MOL0     C17086   8.069   5.751   1.830  0.4414 -0.0987  0.4187
  868MOL0     C17087   7.984   5.730   1.697  0.3682  0.3705  0.8069
  868MOL0     C17088   8.067   5.744   1.571 -0.5705  0.5750  0.8369
  868MOL0    Cl17089   8.233   5.664   1.580 -0.5139 -0.0528 -0.0302
  868MOL0     C17090   8.352   6.203   2.407 -0.2240  1.1600  0.5477
  868MOL0     C17091   8.423   6.168   2.525 -0.4836  0.4735  0.3962
  868MOL0     O17092   8.358   5.925   2.821  0.5341  0.4998 -0.0310
  868MOL0     C17093   8.530   5.912   3.036 -0.5457 -0.2034  0.0594
  868MOL0     C17094   8.599   5.925   3.159 -0.4039  0.3207  0.1399
  868MOL0     N17095   8.770   6.219   3.865 -0.0568 -0.3581 -0.2707
  868MOL0     N17096   8.751   6.315   3.945 -0.4887  0.9705 -0.7686
  868MOL0     C17097   8.297   6.440   5.036 -0.4383  0.1742 -0.0091
  868MOL0     C17098   8.243   6.444   5.160  0.6574  0.6237 -0.3447
  868MOL0     C17099   8.004   6.477   5.536  1.1540 -0.5123  0.0237
  868MOL0     C17100   8.032   6.409   5.653  0.6586 -0.1016 -0.2437
  868MOL0     C17101   7.954   6.420   5.769  0.5535 -0.2664 -0.1506
  868MOL0     C17102   7.858   6.521   5.774  0.7949 -0.0931  0.2577
  868MOL0     O17103   7.795   6.538   5.898  0.5805  0.0372  0.8418
  868MOL0     C17104   7.682   6.452   5.928  0.0276 -0.0920  0.0765
  868MOL0     C17105   7.710   6.321   5.991  0.1323 -0.1887 -0.2115
  868MOL0     C17106   7.586   6.250   6.054  0.0499 -0.0454  0.1754
  868MOL0     C17107   7.633   6.099   6.089  0.2194  0.0638  0.8470
  868MOL0     C17108   7.512   6.021   6.086  0.1953  0.2358 -0.0070
  868MOL0     C17109   7.416   5.950   6.079  1.0473 -0.6119 -0.1165
  868MOL0     C17110   7.834   6.602   5.664 -0.5874  0.0151  0.6738
  868MOL0     C17111   7.897   6.577   5.544 -0.5006  0.8347 -0.1176
  868MOL0     C17112   7.865   6.660   5.435  0.0707 -0.3191  0.5803
  868MOL0     H17113   7.942   6.596   5.077  0.1962  0.5606  2.5373
  868MOL0     H17114   8.042   6.583   4.855 -2.8598 -3.3666 -0.7442
  868MOL0     H17115   8.329   6.689   4.785 -0.4169 -0.5301  3.5254
  868MOL0     H17116   8.457   6.566   4.825 -0.4616 -0.6191  0.2904
  868MOL0     H17117   8.442   6.477   4.610 -0.5853  0.1752  0.9407
  868MOL0     H17118   8.479   6.654   4.570 -0.7719  1.4389 -1.0755
  868MOL0     H17119   8.223   6.667   4.563  0.5673 -0.9145 -0.6775
  868MOL0     H17120   8.218   6.502   4.534 -0.3933 -0.9290 -2.1883
  868MOL0     H17121   8.230   6.681   4.346  0.2852 -0.2660 -1.4287
  868MOL0     H17122   8.408   6.679   4.372 -0.4997  1.1898  1.5899
  868MOL0     H17123   8.252   6.431   4.275  0.9645 -1.7378  0.2594
  868MOL0     H17124   8.335   6.543   4.181 -1.3725  1.0098 -1.2225
  868MOL0     H17125   8.545   6.513   4.333 -1.3461  0.7962  2.0499
  868MOL0     H17126   8.467   6.384   4.410  2.0958 -0.9471  0.1622
  868MOL0     H17127   8.415   6.288   4.160 -0.5561 -0.8406  0.6836
  868MOL0     H17128   8.582   6.267   4.238 -1.6244  0.9738  3.5255
  868MOL0     H17129   8.469   6.434   4.017 -0.7525 -1.3804  1.7355
  868MOL0     H17130   8.616   6.492   4.095 -0.3417 -0.3566  0.4182
  868MOL0     H17131   8.453   6.191   3.901 -0.0474  0.8271  1.7327
  868MOL0     H17132   8.725   5.948   3.783  3.2559  2.2136  1.0265
  868MOL0     H17133   8.551   5.996   3.744 -0.3737 -0.1900  1.4628
  868MOL0     H17134   8.807   6.060   3.600 -1.2001  5.9191 -1.3299
  868MOL0     H17135   8.666   5.958   3.543 -2.0862  0.3521 -1.1385
  868MOL0     H17136   8.662   6.254   3.580  0.9637  0.3637 -1.5594
  868MOL0     H17137   8.529   6.153   3.523 -0.2265  0.9962  1.1786
  868MOL0     H17138   8.810   6.211   3.378 -0.5333 -0.9907 -3.5107
  868MOL0     H17139   8.652   6.262   3.346  0.6397  0.1191 -0.9177
  868MOL0     H17140   8.699   6.246   3.129  2.8868 -0.7402 -1.5755
  868MOL0     H17141   8.565   6.228   2.930  0.4352 -0.7813 -1.5300
  868MOL0     H17142   8.164   6.132   2.739  0.4348  1.6999  0.0507
  868MOL0     H17143   8.050   6.167   2.547 -0.3934 -0.3862  1.6354
  868MOL0     H17144   8.116   6.037   2.226 -0.9179 -0.4917 -0.0992
  868MOL0     H17145   7.979   6.086   2.326 -3.1118  0.7662 -2.8205
  868MOL0     H17146   7.908   6.240   2.138  0.6878  1.1254 -1.7790
  868MOL0     H17147   8.045   6.206   2.046 -0.7526 -2.3543 -0.2876
  868MOL0     H17148   7.885   5.958   2.127  0.4975 -2.2225 -1.0439
  868MOL0     H17149   7.827   6.068   1.996 -0.4604  1.3979  0.6604
  868MOL0     H17150   8.117   5.963   2.019 -0.6917  2.0811  1.1623
  868MOL0     H17151   8.039   6.017   1.866 -1.4687  0.8434 -1.1048
  868MOL0     H17152   7.872   5.813   1.915 -1.2811  2.0242  2.2235
  868MOL0     H17153   7.987   5.776   2.031 -1.1660 -0.4273 -0.1460
  868MOL0     H17154   8.164   5.806   1.825 -0.0015  0.9256  2.2650
  868MOL0     H17155   8.097   5.653   1.869 -3.9350 -2.6418 -2.0346
  868MOL0     H17156   7.908   5.808   1.685  1.1216  1.0635  0.4231
  868MOL0     H17157   7.934   5.633   1.696 -0.3924  0.7547  1.0175
  868MOL0     H17158   8.008   5.720   1.482  1.6936 -1.2967 -0.2756
  868MOL0     H17159   8.083   5.850   1.550  4.0895 -0.2826 -1.4036
  868MOL0     H17160   8.412   6.240   2.324 -0.1992  3.9138  1.6687
  868MOL0     H17161   8.531   6.159   2.531 -0.3645 -1.1689 -2.5152
  868MOL0     H17162   8.492   5.811   3.020  0.8014 -1.2713  2.8112
  868MOL0     H17163   8.612   5.831   3.213  2.1814  0.7300  0.3551
  868MOL0     H17164   8.392   6.386   5.028 -0.7471 -0.6050  1.2561
  868MOL0     H17165   8.311   6.415   5.240 -4.6823 -1.3688  4.1146
  868MOL0     H17166   8.108   6.331   5.657  0.2901 -0.4766 -0.5472
  868MOL0     H17167   7.981   6.357   5.853 -0.2299  0.5019  0.6978
  868MOL0     H17168   7.625   6.443   5.835  2.4704  0.2919 -1.5572
  868MOL0     H17169   7.611   6.497   5.998  0.8287  0.8660  0.2950
  868MOL0     H17170   7.784   6.337   6.071  2.8016 -2.4349 -2.0635
  868MOL0     H17171   7.769   6.267   5.917 -0.7788  1.6071 -2.3582
  868MOL0     H17172   7.506   6.250   5.979 -0.1975  1.4342  0.3979
  868MOL0     H17173   7.569   6.309   6.145  1.2303 -1.1971  1.1828
  868MOL0     H17174   7.700   6.052   6.016 -0.0944  0.0342  0.5718
  868MOL0     H17175   7.695   6.091   6.178  0.4434 -2.8005  0.5090
  868MOL0     H17176   7.329   5.889   6.064 -1.2786  2.8929 -2.6517
  868MOL0     H17177   7.765   6.685   5.673 -0.3718  0.3277 -0.4025
  868MOL0     H17178   7.814   6.599   5.359  0.4164 -0.9186  0.8238
  868MOL0     H17179   7.790   6.733   5.467 -1.4037 -1.5527  0.0747
  868MOL0     H17180   7.953   6.710   5.394  1.5217 -1.7877  1.7958
  869MOL0     O17181   6.541   0.641   4.409  0.6451  0.3971  0.1277
  869MOL0     C17182   6.452   0.711   4.446  0.2475  0.0055 -0.9764
  869MOL0     O17183   6.470   0.840   4.491 -0.6010 -1.2703 -0.0037
  869MOL0     C17184   6.600   0.904   4.494  0.6600  0.5810 -0.5351
  869MOL0     C17185   6.619   1.040   4.454 -0.2954  0.3842  0.6534
  869MOL0     C17186   6.754   1.090   4.438  0.5697 -0.7756 -0.0445
  869MOL0     C17187   6.867   1.013   4.462 -0.1050 -0.1835 -0.2569
  869MOL0     O17188   6.990   1.065   4.433 -0.1305  0.7546 -0.4951
  869MOL0     C17189   7.023   1.199   4.459 -1.2302 -0.8324  0.3131
  869MOL0     C17190   7.171   1.205   4.470  0.3302  0.1896  0.4461
  869MOL0     C17191   7.231   1.343   4.480  0.3572  0.3640 -0.6632
  869MOL0     C17192   7.383   1.326   4.474  0.0351 -0.7141  0.1481
  869MOL0     C17193   7.448   1.465   4.459 -0.3502  0.0183 -0.4922
  869MOL0     C17194   7.439   1.537   4.326 -0.5364  0.3807 -0.5674
  869MOL0     C17195   7.529   1.468   4.216 -0.5739  0.2465  0.3769
  869MOL0     C17196   7.489   1.507   4.076  0.5022  0.2702 -0.1254
  869MOL0     N17197   7.506   1.651   4.066  0.1999 -0.3935 -0.4231
  869MOL0     C17198   7.613   1.734   4.096  0.8897 -0.0654  0.2577
  869MOL0     C17199   7.579   1.855   4.034  0.1359  0.1302 -0.1272
  869MOL0     C17200   7.649   1.989   4.054 -0.2854  0.5495 -0.0776
  869MOL0     C17201   7.739   2.035   3.941 -0.0718  0.0272 -0.3091
  869MOL0     C17202   7.851   1.928   3.921  0.2202  0.1655  0.1023
  869MOL0     C17203   7.938   1.959   3.803  0.3787 -0.3758  0.8482
  869MOL0     O17204   7.997   1.836   3.760 -0.3768 -0.2205  0.1419
  869MOL0     C17205   8.119   1.841   3.702  0.3621  0.3575  0.2952
  869MOL0     C17206   8.223   1.897   3.776  0.0481  0.3739 -0.3889
  869MOL0     C17207   8.353   1.914   3.721 -0.4670  0.5171  0.0818
  869MOL0     C17208   8.380   1.861   3.593  0.4956  0.1043 -0.7837
  869MOL0     C17209   8.525   1.860   3.558  0.4356  0.2622  1.0619
  869MOL0     O17210   8.615   1.924   3.626 -0.3905  0.0560 -0.6661
  869MOL0     C17211   8.747   1.883   3.633  0.0570  0.0675  0.6067
  869MOL0     C17212   8.843   1.948   3.562  0.0225 -0.4448  0.7680
  869MOL0     C17213   8.979   1.907   3.570  0.0246 -0.7420 -0.9643
  869MOL0     C17214   9.021   1.806   3.662  0.8297 -0.6603  0.0645
  869MOL0     O17215   9.149   1.763   3.682  0.3463  0.4566  0.0297
  869MOL0     C17216   9.226   1.777   3.810  1.5713  0.0371  0.8908
  869MOL0     C17217   9.266   1.644   3.862  0.0549  0.8904 -0.3694
  869MOL0     C17218   9.280   1.631   4.009 -1.1250  0.5515 -0.3435
  869MOL0     C17219   9.364   1.514   4.043 -1.1470 -0.1286  0.0245
  869MOL0     C17220   9.338   1.476   4.188  0.6870 -0.5446  0.3969
  869MOL0     C17221   9.395   1.584   4.285 -0.2542  0.4305 -0.4717
  869MOL0     C17222   9.371   1.544   4.428  0.2755 -0.7815 -0.5030
  869MOL0     C17223   9.221   1.510   4.474 -0.0192  0.3827 -0.0116
  869MOL0    Cl17224   9.112   1.644   4.432 -0.2845  0.5988 -0.0087
  869MOL0     C17225   8.910   1.741   3.728 -0.5560 -0.1555  0.5076
  869MOL0     C17226   8.777   1.781   3.722  0.3639  0.8277  0.5142
  869MOL0     O17227   8.541   1.774   3.466 -0.1629  0.5183  0.7772
  869MOL0     C17228   8.272   1.803   3.515  0.0172  0.0719  0.6917
  869MOL0     C17229   8.145   1.786   3.574 -0.6757 -0.4784  0.0759
  869MOL0     N17230   7.463   1.843   3.966  0.7752  0.2665  0.5640
  869MOL0     N17231   7.413   1.730   4.000 -0.2387 -0.6961  0.1901
  869MOL0     C17232   6.846   0.888   4.522 -0.3320 -0.0467  0.3018
  869MOL0     C17233   6.715   0.836   4.532 -0.2603  0.1002  0.2509
  869MOL0     C17234   6.318   0.653   4.438 -0.1276  0.1023  0.5613
  869MOL0     C17235   6.210   0.744   4.423 -0.1888 -0.0851  0.0796
  869MOL0     C17236   6.074   0.696   4.417 -0.5697 -0.8003 -0.1326
  869MOL0     C17237   6.045   0.562   4.408  0.6795  0.5504  0.3156
  869MOL0     O17238   5.916   0.530   4.379  0.5678 -0.4143 -1.0713
  869MOL0     C17239   5.890   0.399   4.321  0.1725 -0.1785  0.6749
  869MOL0     C17240   5.871   0.302   4.448  0.3486  0.0924 -0.1808
  869MOL0     C17241   5.875   0.147   4.408 -1.0652 -0.7107  0.4304
  869MOL0     C17242   5.887   0.042   4.508 -0.0623  0.8970 -0.0774
  869MOL0     C17243   5.796   0.057   4.620  0.2339 -0.1464 -0.6790
  869MOL0     C17244   5.725   0.077   4.716  0.1341  0.3623  0.2555
  869MOL0     C17245   6.151   0.468   4.419 -0.1561 -0.4300  0.2892
  869MOL0     C17246   6.286   0.512   4.447  0.3773 -0.7558 -0.3386
  869MOL0     C17247   6.388   0.397   4.473 -0.6018  0.3683 -0.4272
  869MOL0     H17248   6.538   1.107   4.429 -1.2642 -0.5931  1.0658
  869MOL0     H17249   6.772   1.194   4.414  1.0595 -0.0847  2.9021
  869MOL0     H17250   7.004   1.261   4.371  1.0559  1.4256  1.2728
  869MOL0     H17251   6.982   1.252   4.545  0.5468  0.5772  0.3700
  869MOL0     H17252   7.213   1.151   4.384 -2.5582  1.8401 -2.2041
  869MOL0     H17253   7.201   1.154   4.562  1.3987  0.3671  0.2107
  869MOL0     H17254   7.205   1.382   4.579  0.8791  1.1030 -0.8074
  869MOL0     H17255   7.193   1.416   4.408 -0.0841  2.2044  1.3229
  869MOL0     H17256   7.426   1.291   4.568 -1.1704 -0.0829  0.9524
  869MOL0     H17257   7.426   1.265   4.393  2.9177 -1.0837  1.8353
  869MOL0     H17258   7.395   1.525   4.535  1.2001 -0.2552  0.8515
  869MOL0     H17259   7.551   1.463   4.495 -0.3882  0.8854 -0.3073
  869MOL0     H17260   7.342   1.523   4.277 -0.5933 -1.2966 -0.0578
  869MOL0     H17261   7.479   1.638   4.332  0.5799 -0.0569 -0.4185
  869MOL0     H17262   7.523   1.359   4.224  0.0610  0.2864  1.6769
  869MOL0     H17263   7.634   1.491   4.235 -0.3208 -0.0848 -0.5395
  869MOL0     H17264   7.558   1.463   4.005  0.6393  2.3594 -1.3821
  869MOL0     H17265   7.385   1.482   4.054 -0.1105  1.1562  1.5370
  869MOL0     H17266   7.708   1.718   4.148  0.8186  0.8488  0.6770
  869MOL0     H17267   7.569   2.064   4.059  1.4016  2.6065 -1.6783
  869MOL0     H17268   7.705   1.997   4.147  0.4852 -1.1244 -0.3687
  869MOL0     H17269   7.687   2.053   3.847 -0.3397 -0.2671 -0.2179
  869MOL0     H17270   7.778   2.131   3.975 -1.7342  0.6464 -0.0621
  869MOL0     H17271   7.808   1.828   3.928 -1.2766  0.8229  0.7100
  869MOL0     H17272   7.917   1.936   4.008  0.9178  0.2745 -0.4246
  869MOL0     H17273   8.021   2.026   3.827  0.8398 -1.0077  1.0393
  869MOL0     H17274   7.887   2.010   3.721  2.6647 -0.9140 -0.9823
  869MOL0     H17275   8.204   1.919   3.880 -0.2056 -1.1157 -0.0963
  869MOL0     H17276   8.433   1.937   3.790 -1.3135 -1.6369  1.9528
  869MOL0     H17277   8.806   2.025   3.494  1.7555  0.1112  0.4018
  869MOL0     H17278   9.048   1.963   3.507  1.2077 -1.9913 -0.8148
  869MOL0     H17279   9.315   1.836   3.789  2.5218  0.4263  5.0407
  869MOL0     H17280   9.148   1.820   3.874  0.3433  1.5608 -1.4895
  869MOL0     H17281   9.186   1.577   3.829 -0.9477  1.9088 -0.0354
  869MOL0     H17282   9.359   1.606   3.818 -1.6172 -2.2826 -1.5108
  869MOL0     H17283   9.313   1.720   4.062  0.9620 -1.2372  1.5805
  869MOL0     H17284   9.175   1.616   4.037 -0.5763 -0.2631  1.4767
  869MOL0     H17285   9.473   1.527   4.038 -0.8215 -2.1164  0.9749
  869MOL0     H17286   9.345   1.433   3.973 -1.6263 -0.0054  0.0068
  869MOL0     H17287   9.385   1.378   4.203 -3.4106 -3.0155 -1.2767
  869MOL0     H17288   9.230   1.463   4.202  0.7585  0.7824  2.6047
  869MOL0     H17289   9.502   1.595   4.265 -0.5243  0.6052 -1.9728
  869MOL0     H17290   9.345   1.680   4.274 -1.4804 -0.0956  0.3149
  869MOL0     H17291   9.408   1.617   4.501 -2.5742  1.5067 -1.1406
  869MOL0     H17292   9.416   1.447   4.450 -0.2635 -1.1193 -0.8654
  869MOL0     H17293   9.183   1.432   4.407 -1.9417  0.3916  0.9987
  869MOL0     H17294   9.222   1.479   4.579  2.5497  2.9614  0.8729
  869MOL0     H17295   8.931   1.657   3.793 -1.7020  0.4499  1.7117
  869MOL0     H17296   8.706   1.729   3.785  1.4501 -0.6063  0.6230
  869MOL0     H17297   8.290   1.777   3.411  0.1496  1.0655  0.4528
  869MOL0     H17298   8.067   1.741   3.514 -2.1896  1.4960  0.4391
  869MOL0     H17299   6.926   0.825   4.559 -0.3909  0.4133  1.2268
  869MOL0     H17300   6.706   0.731   4.561 -1.3295  0.1113 -0.0009
  869MOL0     H17301   6.231   0.850   4.424  0.8159 -0.1532  4.2370
  869MOL0     H17302   5.995   0.770   4.412  0.9062  0.8337 -0.5139
  869MOL0     H17303   5.962   0.382   4.241 -0.2038  3.4858 -0.6156
  869MOL0     H17304   5.795   0.405   4.267  2.3912 -3.3701 -4.2730
  869MOL0     H17305   5.772   0.328   4.486  0.2849 -1.0711  0.4945
  869MOL0     H17306   5.937   0.313   4.534  2.2979 -0.6393 -1.5109
  869MOL0     H17307   5.957   0.140   4.335  0.4817  1.3968  1.8254
  869MOL0     H17308   5.782   0.126   4.354 -0.5494  0.8993 -1.1899
  869MOL0     H17309   5.859  -0.053   4.462  1.1691  1.1633 -1.4591
  869MOL0     H17310   5.987   0.045   4.553 -1.5752  0.3058  3.6725
  869MOL0     H17311   5.652   0.097   4.792  0.0092 -1.0422  0.5167
  869MOL0     H17312   6.127   0.363   4.424  1.6759 -0.8211  2.9420
  869MOL0     H17313   6.439   0.420   4.568  0.2995  1.1165 -1.0773
  869MOL0     H17314   6.328   0.306   4.478 -0.0109  0.0297  0.9039
  869MOL0     H17315   6.455   0.389   4.387 -2.0948 -0.8297 -1.5241
  870MOL0     O17316   9.276  10.605   9.256  0.2243 -0.1447 -0.4482
  870MOL0     C17317   9.339  10.686   9.327  0.8656  0.5553 -0.1744
  870MOL0     O17318   9.324  10.706   9.459 -0.6488  0.3026  0.3549
  870MOL0     C17319   9.239  10.615   9.513 -0.3195  0.5561  0.1718
  870MOL0     C17320   9.110  10.643   9.522 -0.1606 -0.0578  0.5583
  870MOL0     C17321   9.015  10.551   9.575 -0.0553  0.7752  0.7688
  870MOL0     C17322   9.057  10.421   9.607 -0.0363 -0.3794 -0.1537
  870MOL0     O17323   8.951  10.344   9.659 -0.2433 -1.2681 -0.1257
  870MOL0     C17324   8.975  10.222   9.732  0.6051  0.0917  0.1928
  870MOL0     C17325   8.936  10.262   9.878 -0.3172 -0.0767  0.3377
  870MOL0     C17326   8.799  10.340   9.880 -0.6512 -0.3968  0.1895
  870MOL0     C17327   8.741  10.342  10.029  0.3609  0.5328 -0.2522
  870MOL0     C17328   8.605  10.422  10.027  0.0512 -0.6526  0.2991
  870MOL0     C17329   8.543  10.417  10.170  0.6049 -1.0197  0.5862
  870MOL0     C17330   8.495  10.267  10.203 -0.4194 -0.4917 -0.0397
  870MOL0     C17331   8.383  10.273  10.307  0.4105  0.3302 -0.1686
  870MOL0     N17332   8.441  10.307  10.429  0.7561 -0.5708  0.6475
  870MOL0     C17333   8.509  10.215  10.503  1.0441  0.1977  0.3194
  870MOL0     C17334   8.511  10.274  10.628  0.5710 -0.1679  0.8118
  870MOL0     C17335   8.567  10.216  10.747  0.0240 -0.0329  1.8396
  870MOL0     C17336   8.654  10.324  10.816  0.4895  0.2359  0.8541
  870MOL0     C17337   8.694  10.285  10.957  0.3403  0.4909 -0.1344
  870MOL0     C17338   8.813  10.361  10.999  0.4139  0.6146 -0.2970
  870MOL0     O17339   8.830  10.341  11.137  0.6834 -0.9268 -0.0788
  870MOL0     C17340   8.931  10.408  11.205 -0.4929  0.0708 -0.1552
  870MOL0     C17341   8.942  10.399  11.345  0.2696  0.1221 -0.0212
  870MOL0     C17342   9.043  10.468  11.409  0.0442  0.1277  0.6335
  870MOL0     C17343   9.138  10.544  11.341  0.1967 -1.0949  0.2255
  870MOL0     C17344   9.244  10.612  11.405 -0.5636  0.7953  0.3623
  870MOL0     O17345   9.325  10.692  11.322 -0.0567 -0.6239  0.4432
  870MOL0     C17346   9.417  10.792  11.374  0.4280 -0.3150 -0.6878
  870MOL0     C17347   9.525  10.832  11.287 -0.0253  0.5371 -0.5010
  870MOL0     C17348   9.627  10.917  11.316 -0.1193 -0.4460  0.0041
  870MOL0     C17349   9.632  10.966  11.455 -1.1005 -0.1354  0.2928
  870MOL0     O17350   9.730  11.058  11.480  0.2675  0.0936  1.0485
  870MOL0     C17351   9.805  11.043  11.607  0.6864  0.9286 -0.3743
  870MOL0     C17352   9.935  11.120  11.616  0.3022  0.0058  1.0353
  870MOL0     C17353  10.063  11.050  11.572  0.2742  0.1540 -0.5165
  870MOL0     C17354  10.070  11.053  11.424 -0.8971 -0.1160  0.0728
  870MOL0     C17355  10.185  10.955  11.379 -0.3472 -0.2251  0.4809
  870MOL0     C17356  10.329  11.012  11.413 -0.2315  0.4354  0.1651
  870MOL0     C17357  10.447  10.905  11.373 -0.4203 -0.9222  0.4513
  870MOL0     C17358  10.590  10.953  11.431 -0.7738  0.6639 -0.5048
  870MOL0    Cl17359  10.651  10.828  11.555  0.1380  0.1577 -0.3047
  870MOL0     C17360   9.540  10.920  11.549  0.4822 -0.7660 -0.3657
  870MOL0     C17361   9.432  10.838  11.510 -0.2533 -0.3183 -0.1269
  870MOL0     O17362   9.277  10.569  11.518  1.3010 -0.4108  0.0872
  870MOL0     C17363   9.122  10.562  11.205  0.8443  0.0782  0.8602
  870MOL0     C17364   9.021  10.494  11.138 -0.5598 -0.0673  0.8639
  870MOL0     N17365   8.455  10.403  10.618 -0.1741 -0.9224  0.1089
  870MOL0     N17366   8.412  10.421  10.495 -0.9101  0.0619 -0.0456
  870MOL0     C17367   9.192  10.378   9.595 -0.0967 -0.9456  0.4932
  870MOL0     C17368   9.276  10.486   9.562 -0.0364 -0.2916  0.1728
  870MOL0     C17369   9.427  10.782   9.248  0.9789  0.6818 -0.1578
  870MOL0     C17370   9.402  10.796   9.105 -0.4313  0.0570  0.2144
  870MOL0     C17371   9.465  10.889   9.024 -1.2742  0.3918 -0.3018
  870MOL0     C17372   9.562  10.973   9.075  0.0589 -0.4652 -0.2276
  870MOL0     O17373   9.618  11.080   9.009 -0.3943  0.3625 -0.0107
  870MOL0     C17374   9.626  11.073   8.864  0.4662  0.2874 -0.0849
  870MOL0     C17375   9.751  10.992   8.832  0.2814 -0.8817 -0.4627
  870MOL0     C17376   9.814  11.026   8.695 -0.5434  0.2913 -0.2090
  870MOL0     C17377   9.735  10.964   8.574 -0.6803 -0.3473 -0.3903
  870MOL0     C17378   9.627  11.057   8.545 -0.2227 -0.0612  1.3905
  870MOL0     C17379   9.556  11.147   8.523  0.0433  0.1998 -0.4727
  870MOL0     C17380   9.586  10.964   9.220  0.3317 -0.1494 -0.0136
  870MOL0     C17381   9.527  10.864   9.302 -0.4408  0.4617  0.8135
  870MOL0     C17382   9.569  10.863   9.449 -0.8240  0.0210  0.2938
  870MOL0     H17383   9.077  10.740   9.485 -0.9314 -0.8694 -0.9538
  870MOL0     H17384   8.911  10.581   9.582 -0.1666  0.4117  0.6679
  870MOL0     H17385   8.924  10.136   9.688  0.7562 -0.0786  0.3523
  870MOL0     H17386   9.083  10.206   9.730  0.9090  1.8763 -0.2446
  870MOL0     H17387   9.014  10.326   9.919  0.9689 -0.6453 -1.1330
  870MOL0     H17388   8.925  10.167   9.933  1.6500 -0.0677  0.8287
  870MOL0     H17389   8.724  10.282   9.826 -2.1250  0.2989  1.4307
  870MOL0     H17390   8.808  10.443   9.843  1.7790 -0.8210 -0.6018
  870MOL0     H17391   8.737  10.240  10.067 -0.4511  0.6014 -0.1396
  870MOL0     H17392   8.807  10.398  10.097  0.9832  0.9583 -1.1884
  870MOL0     H17393   8.620  10.530  10.015  0.2662 -0.3136  2.8962
  870MOL0     H17394   8.541  10.382   9.948 -0.0495  2.5142 -1.3586
  870MOL0     H17395   8.605  10.455  10.251 -1.2667  1.9964  0.7653
  870MOL0     H17396   8.456  10.483  10.168  0.3403 -1.3518  0.9984
  870MOL0     H17397   8.582  10.204  10.220 -0.7876 -1.2877 -0.9760
  870MOL0     H17398   8.457  10.220  10.111 -0.6278 -1.2516  0.4215
  870MOL0     H17399   8.307  10.349  10.287  0.8266  0.2017 -2.5125
  870MOL0     H17400   8.330  10.177  10.306 -2.1067  1.6205 -0.3537
  870MOL0     H17401   8.533  10.114  10.472 -2.0433  0.4472 -3.6113
  870MOL0     H17402   8.497  10.177  10.822 -0.0993  0.4640  1.9939
  870MOL0     H17403   8.629  10.132  10.715 -0.7616  0.1301 -0.3050
  870MOL0     H17404   8.739  10.338  10.748  0.8750  2.1977  1.6780
  870MOL0     H17405   8.605  10.421  10.833  0.5917 -0.0077  2.6881
  870MOL0     H17406   8.697  10.176  10.967 -4.2018 -0.0679 -2.3061
  870MOL0     H17407   8.606  10.314  11.015  1.5682  2.3912  0.8758
  870MOL0     H17408   8.790  10.463  10.968  2.3446  0.2668 -3.2961
  870MOL0     H17409   8.896  10.327  10.937 -1.3288 -0.8121 -1.9730
  870MOL0     H17410   8.868  10.334  11.390 -4.1073  2.6697 -2.9088
  870MOL0     H17411   9.050  10.468  11.517 -0.6050 -0.6823  0.6847
  870MOL0     H17412   9.520  10.791  11.186 -2.1760  2.8177 -1.4103
  870MOL0     H17413   9.703  10.945  11.243 -1.2914 -1.2458 -1.5773
  870MOL0     H17414   9.737  11.075  11.686 -2.2831 -2.1751 -1.4262
  870MOL0     H17415   9.828  10.937  11.621 -2.9087  0.2845  1.6761
  870MOL0     H17416   9.935  11.213  11.559 -2.2225 -1.6961 -2.1410
  870MOL0     H17417   9.943  11.142  11.723  2.0893  1.8415  0.5728
  870MOL0     H17418  10.149  11.099  11.618 -0.9825 -0.9555  3.3476
  870MOL0     H17419  10.063  10.946  11.607  0.4046  0.2128 -0.3401
  870MOL0     H17420  10.079  11.150  11.375 -0.7446 -1.0808 -1.8680
  870MOL0     H17421   9.988  10.996  11.380  0.2611 -0.8335 -1.2148
  870MOL0     H17422  10.196  10.952  11.270  0.0163 -2.0677  0.5375
  870MOL0     H17423  10.167  10.855  11.419 -2.0367 -0.3650 -0.5507
  870MOL0     H17424  10.339  11.103  11.353 -1.6533  0.2761 -0.3333
  870MOL0     H17425  10.322  11.030  11.521 -1.2765  0.4646  0.0950
  870MOL0     H17426  10.455  10.903  11.264  4.5990 -0.1506  0.5557
  870MOL0     H17427  10.425  10.807  11.416  3.0363 -0.4302  3.9483
  870MOL0     H17428  10.666  10.963  11.353 -1.5575 -1.1341 -1.5549
  870MOL0     H17429  10.587  11.051  11.479 -0.6247 -0.7718  2.6742
  870MOL0     H17430   9.533  10.960  11.649 -1.7444  0.5969 -0.9715
  870MOL0     H17431   9.356  10.798  11.577 -0.5295 -0.4525 -0.5122
  870MOL0     H17432   9.194  10.611  11.140  0.6599  0.1750  0.7259
  870MOL0     H17433   9.014  10.510  11.031 -0.3706 -0.5215  0.7819
  870MOL0     H17434   9.235  10.279   9.602 -0.3889 -0.9475  3.1117
  870MOL0     H17435   9.378  10.449   9.553  0.1224 -0.5733  2.3678
  870MOL0     H17436   9.329  10.730   9.059  0.8166 -1.3147  0.1107
  870MOL0     H17437   9.443  10.888   8.918  0.2617  3.4240 -0.7384
  870MOL0     H17438   9.635  11.176   8.828  4.4103  0.8039  1.8471
  870MOL0     H17439   9.541  11.028   8.813  1.7576 -2.1831 -0.2299
  870MOL0     H17440   9.723  10.886   8.830  0.5769 -1.0037  0.8082
  870MOL0     H17441   9.822  11.013   8.912 -1.7998  1.1362  0.9979
  870MOL0     H17442   9.917  10.994   8.683 -1.4061 -1.9674 -2.4773
  870MOL0     H17443   9.820  11.135   8.686  0.5599  0.5895  2.9300
  870MOL0     H17444   9.804  10.961   8.489 -1.4238 -1.8662 -0.9816
  870MOL0     H17445   9.703  10.861   8.592  0.3120 -0.6691 -0.4172
  870MOL0     H17446   9.493  11.231   8.503  0.3410  2.0462  4.9121
  870MOL0     H17447   9.660  11.030   9.262 -0.0455  0.5856 -0.4802
  870MOL0     H17448   9.491  10.906   9.512  0.6011  4.0652 -0.4460
  870MOL0     H17449   9.594  10.762   9.485 -2.2795 -0.2880  0.5365
  870MOL0     H17450   9.657  10.925   9.463 -1.9222  1.2761  2.0576
  871MOL0     O17451   1.914   4.550   3.154 -0.0380 -0.6639  0.1471
  871MOL0     C17452   1.840   4.535   3.251  0.0340  1.0106  0.6932
  871MOL0     O17453   1.756   4.627   3.299  0.1296 -0.5719 -0.3364
  871MOL0     C17454   1.694   4.720   3.225  0.4104 -0.6816 -0.3080
  871MOL0     C17455   1.632   4.719   3.102  0.7726  0.1923 -0.1344
  871MOL0     C17456   1.571   4.833   3.040 -0.2185  0.9967 -0.5752
  871MOL0     C17457   1.555   4.948   3.108 -0.1341 -0.2132  0.1289
  871MOL0     O17458   1.490   5.055   3.056 -0.4883 -0.1824  0.0051
  871MOL0     C17459   1.366   5.087   3.101  0.4962  0.0423 -0.2321
  871MOL0     C17460   1.257   4.995   3.039 -1.5625  1.0624 -0.1748
  871MOL0     C17461   1.122   5.020   3.096 -0.8002 -0.1897  0.2836
  871MOL0     C17462   1.013   4.934   3.039  0.6888  1.0558 -0.2059
  871MOL0     C17463   0.889   5.011   3.082  0.2802  0.0377 -0.1425
  871MOL0     C17464   0.759   4.944   3.041 -1.0603 -1.1053  0.3816
  871MOL0     C17465   0.643   5.034   3.085 -0.9828 -0.8703 -0.8525
  871MOL0     C17466   0.512   4.976   3.031  0.1979  0.7343  0.8096
  871MOL0     N17467   0.398   5.071   3.038  0.0410  0.3934  0.3016
  871MOL0     C17468   0.368   5.173   2.956  0.0305  0.0971 -0.5197
  871MOL0     C17469   0.282   5.250   3.024 -0.2604  0.0012 -0.0362
  871MOL0     C17470   0.228   5.381   2.994  0.8114 -0.3865 -0.1856
  871MOL0     C17471   0.346   5.467   2.941  0.3073 -0.4832 -0.2385
  871MOL0     C17472   0.322   5.615   2.921  0.3169  0.2294  0.3298
  871MOL0     C17473   0.171   5.660   2.916  0.6608  0.4497  1.2225
  871MOL0     O17474   0.107   5.615   2.798  0.2745  0.1058 -0.1637
  871MOL0     C17475  -0.023   5.635   2.782 -0.1737  1.1626  0.8633
  871MOL0     C17476  -0.119   5.664   2.872  0.8932  0.4693  0.6326
  871MOL0     C17477  -0.256   5.665   2.837  0.4453  0.2123  0.2190
  871MOL0     C17478  -0.307   5.614   2.716 -0.3314 -0.2361 -1.0525
  871MOL0     C17479  -0.451   5.614   2.674 -1.5038 -0.9016 -0.1844
  871MOL0     O17480  -0.530   5.645   2.772 -0.4355 -0.1586 -0.3262
  871MOL0     C17481  -0.662   5.675   2.735  0.1315  0.7007  0.9552
  871MOL0     C17482  -0.692   5.812   2.711 -0.4346  0.0081 -0.5699
  871MOL0     C17483  -0.824   5.849   2.690 -0.4107 -0.0139  1.1570
  871MOL0     C17484  -0.923   5.763   2.715  0.4969 -0.9302  1.9083
  871MOL0     O17485  -1.049   5.808   2.690 -0.5506 -0.6585 -0.1892
  871MOL0     C17486  -1.155   5.749   2.758 -0.3654 -0.1225  0.5917
  871MOL0     C17487  -1.287   5.827   2.747 -1.0097 -0.0862  0.0184
  871MOL0     C17488  -1.321   5.873   2.608  0.1837 -0.0841  0.4906
  871MOL0     C17489  -1.336   6.030   2.595  0.5674  0.1678 -0.1194
  871MOL0     C17490  -1.216   6.116   2.639 -0.0141  0.1203  0.5409
  871MOL0     C17491  -1.255   6.263   2.643  0.5969  0.0601  0.0769
  871MOL0     C17492  -1.128   6.345   2.681  0.8231 -0.2560  0.5080
  871MOL0     C17493  -1.039   6.402   2.569 -0.3333 -0.2007 -0.1136
  871MOL0    Cl17494  -0.908   6.499   2.625 -0.1576 -0.0479 -0.3006
  871MOL0     C17495  -0.896   5.626   2.737 -0.2855  0.2040 -0.3346
  871MOL0     C17496  -0.763   5.587   2.746  1.2558 -0.3395 -1.1711
  871MOL0     O17497  -0.472   5.598   2.562 -0.3029 -0.4717 -0.1270
  871MOL0     C17498  -0.205   5.569   2.632 -0.8509  0.5192 -0.4978
  871MOL0     C17499  -0.068   5.589   2.658  0.6125  0.1246 -0.6907
  871MOL0     N17500   0.253   5.191   3.150 -0.4411  0.1044  0.1482
  871MOL0     N17501   0.334   5.082   3.160  0.0541 -0.3714 -0.1510
  871MOL0     C17502   1.619   4.961   3.235  0.3318  0.6309 -0.0692
  871MOL0     C17503   1.691   4.848   3.288 -0.6197  0.2427  0.5121
  871MOL0     C17504   1.856   4.409   3.308  0.0983 -0.4523 -0.3379
  871MOL0     C17505   1.779   4.390   3.422  0.5365  1.1988 -0.8090
  871MOL0     C17506   1.790   4.282   3.505  0.1828  0.3395 -0.3780
  871MOL0     C17507   1.883   4.179   3.464  0.8601 -0.8553 -0.6040
  871MOL0     O17508   1.904   4.072   3.543  0.3880  0.2469 -0.4342
  871MOL0     C17509   1.817   4.058   3.659  0.1558 -0.5352  0.8333
  871MOL0     C17510   1.843   3.928   3.731 -0.4048  0.0398 -0.0891
  871MOL0     C17511   1.818   3.812   3.628  0.1051 -0.5186 -0.6512
  871MOL0     C17512   1.768   3.681   3.688  1.3209 -0.7385 -0.5051
  871MOL0     C17513   1.738   3.582   3.586 -0.7068 -0.0030  0.4333
  871MOL0     C17514   1.694   3.507   3.501  0.2177  0.0571  0.9592
  871MOL0     C17515   1.957   4.187   3.346 -0.4453  0.4928  0.5110
  871MOL0     C17516   1.953   4.310   3.268 -0.6144  0.0979 -0.8017
  871MOL0     C17517   2.039   4.311   3.138  0.0049 -0.5674  0.0990
  871MOL0     H17518   1.619   4.630   3.042  0.7027  0.5298 -0.6289
  871MOL0     H17519   1.515   4.824   2.947 -1.1385  2.2152 -0.1694
  871MOL0     H17520   1.365   5.065   3.208 -1.4742  0.8001 -0.0427
  871MOL0     H17521   1.342   5.193   3.083  1.7847  0.2434 -0.8677
  871MOL0     H17522   1.279   4.893   3.071  1.3719  0.4490 -3.4966
  871MOL0     H17523   1.252   4.999   2.930 -2.2854 -0.9482 -0.2580
  871MOL0     H17524   1.102   5.125   3.073  0.3255 -0.1424 -0.5672
  871MOL0     H17525   1.136   5.001   3.203  1.6099  1.1428  0.2875
  871MOL0     H17526   1.030   4.929   2.931  2.7466 -1.8493  0.1409
  871MOL0     H17527   1.014   4.832   3.077 -1.8247  0.7358 -0.8376
  871MOL0     H17528   0.889   5.027   3.190 -1.8089 -2.7069  0.3875
  871MOL0     H17529   0.882   5.108   3.031 -0.3126 -0.4519 -1.0103
  871MOL0     H17530   0.762   4.928   2.932 -2.5428 -1.9695  0.4272
  871MOL0     H17531   0.753   4.847   3.092 -1.2812 -0.8551  0.8370
  871MOL0     H17532   0.665   5.137   3.056  1.5356 -1.4029 -1.0722
  871MOL0     H17533   0.645   5.039   3.194 -0.7164 -3.1332 -0.7122
  871MOL0     H17534   0.530   4.951   2.926 -1.2669  1.5826  0.3143
  871MOL0     H17535   0.478   4.882   3.076  0.4546  0.2885  0.0931
  871MOL0     H17536   0.409   5.184   2.856 -0.0550  0.7028 -0.4923
  871MOL0     H17537   0.150   5.379   2.918  2.4321 -2.7835 -1.9175
  871MOL0     H17538   0.200   5.415   3.094  3.6142  1.1712  0.2074
  871MOL0     H17539   0.431   5.470   3.010 -0.9243  0.2247  1.3144
  871MOL0     H17540   0.382   5.425   2.847  1.7553  2.0154 -0.8832
  871MOL0     H17541   0.376   5.644   2.831 -0.5622 -3.9181 -1.8042
  871MOL0     H17542   0.364   5.676   3.001 -3.2131 -0.2592  2.8031
  871MOL0     H17543   0.168   5.769   2.910 -3.1707  0.4220  0.3269
  871MOL0     H17544   0.114   5.639   3.007  1.3943  2.5832  2.2472
  871MOL0     H17545  -0.109   5.679   2.978 -3.4382 -0.7576  1.4419
  871MOL0     H17546  -0.329   5.709   2.903  1.1300  1.6443  0.0716
  871MOL0     H17547  -0.610   5.883   2.706 -0.2397 -0.0569  1.1491
  871MOL0     H17548  -0.844   5.951   2.657  0.1992 -0.2407  0.0626
  871MOL0     H17549  -1.172   5.647   2.720  0.4031 -0.6564  1.6234
  871MOL0     H17550  -1.120   5.745   2.861  4.9793 -0.6062 -0.9002
  871MOL0     H17551  -1.369   5.758   2.771  1.1148 -2.9351 -0.3017
  871MOL0     H17552  -1.287   5.912   2.816 -1.1528  1.3184 -1.6552
  871MOL0     H17553  -1.242   5.847   2.538  2.1257  1.9232  1.7941
  871MOL0     H17554  -1.415   5.823   2.580  0.2599 -1.3630  2.3412
  871MOL0     H17555  -1.424   6.066   2.649  0.3727  0.6035 -0.7117
  871MOL0     H17556  -1.361   6.061   2.494 -0.5176 -0.1679  0.0307
  871MOL0     H17557  -1.142   6.095   2.561 -0.3742 -0.2707  0.2986
  871MOL0     H17558  -1.168   6.086   2.733  2.1825  2.0379  0.1288
  871MOL0     H17559  -1.291   6.294   2.545  0.2568 -0.7906 -0.0783
  871MOL0     H17560  -1.336   6.286   2.713 -2.8444 -1.8058 -2.9862
  871MOL0     H17561  -1.066   6.273   2.736  2.4382 -0.9709 -2.0944
  871MOL0     H17562  -1.163   6.422   2.751  1.7569  0.0448  0.6625
  871MOL0     H17563  -1.000   6.323   2.503 -1.0831  0.0097 -0.8256
  871MOL0     H17564  -1.090   6.467   2.499  0.0930 -2.1113 -2.3456
  871MOL0     H17565  -0.963   5.541   2.747  0.0886 -0.2831 -1.6124
  871MOL0     H17566  -0.740   5.484   2.770  3.1423  0.3099  0.0192
  871MOL0     H17567  -0.235   5.532   2.535  1.1658  2.5068 -1.9707
  871MOL0     H17568   0.009   5.578   2.582  4.5923 -0.5120  3.0264
  871MOL0     H17569   1.608   5.058   3.281 -0.5082  1.8533 -2.6814
  871MOL0     H17570   1.737   4.857   3.385 -1.4967  1.9364  0.8060
  871MOL0     H17571   1.721   4.477   3.455 -1.9832 -0.4108 -0.6956
  871MOL0     H17572   1.733   4.271   3.596  1.7101  0.2158  0.6004
  871MOL0     H17573   1.712   4.062   3.627  0.4239  1.5775  0.0105
  871MOL0     H17574   1.836   4.132   3.737 -3.6877 -3.4677  5.0545
  871MOL0     H17575   1.773   3.919   3.815  1.6251 -0.2515  1.6714
  871MOL0     H17576   1.947   3.933   3.766  0.0029  1.6086 -1.4237
  871MOL0     H17577   1.917   3.795   3.584  1.1716 -0.4128  1.5546
  871MOL0     H17578   1.748   3.842   3.550 -1.5177  0.4551  1.1006
  871MOL0     H17579   1.838   3.638   3.761  0.4909 -3.0386 -0.9986
  871MOL0     H17580   1.676   3.700   3.745  0.5366 -0.8853 -1.6789
  871MOL0     H17581   1.667   3.441   3.421 -1.4370 -2.3017  3.2906
  871MOL0     H17582   2.020   4.103   3.319 -0.4428  0.7531 -0.3216
  871MOL0     H17583   2.083   4.212   3.123  0.6725 -0.1250 -0.9399
  871MOL0     H17584   1.970   4.332   3.055 -1.3066 -2.5644  0.6005
  871MOL0     H17585   2.116   4.388   3.150 -1.2736  0.9084 -0.7724
  872MOL0     O17586   0.412   3.960   4.868 -0.5964 -0.1302 -1.1130
  872MOL0     C17587   0.375   3.851   4.833 -0.4119 -0.0733  0.0759
  872MOL0     O17588   0.249   3.799   4.847 -0.2676  0.2883  0.2859
  872MOL0     C17589   0.147   3.866   4.908 -0.4122  0.0838 -0.2178
  872MOL0     C17590   0.025   3.867   4.832 -0.5772  1.0927 -0.5472
  872MOL0     C17591  -0.091   3.926   4.883 -0.3592 -0.3361 -0.7964
  872MOL0     C17592  -0.080   4.002   5.002  0.6599  1.0155 -0.8462
  872MOL0     O17593  -0.179   4.068   5.060  0.9648 -0.3824 -0.1135
  872MOL0     C17594  -0.316   4.055   5.011 -0.6575 -0.4353 -0.0631
  872MOL0     C17595  -0.327   4.132   4.879  0.0899 -0.2048 -0.8449
  872MOL0     C17596  -0.476   4.159   4.859 -0.8182 -0.8781  0.4228
  872MOL0     C17597  -0.501   4.261   4.758  1.3556 -0.5590 -0.0526
  872MOL0     C17598  -0.648   4.268   4.726  1.0341  0.3575  0.1116
  872MOL0     C17599  -0.676   4.365   4.611  0.0743  0.6866 -0.0256
  872MOL0     C17600  -0.818   4.385   4.576  0.4903 -1.4919 -0.0591
  872MOL0     C17601  -0.817   4.489   4.466  0.5584  0.3867  0.1082
  872MOL0     N17602  -0.915   4.454   4.358 -0.4701  0.2717 -0.1549
  872MOL0     C17603  -1.049   4.445   4.373  0.7817 -0.8374 -0.8635
  872MOL0     C17604  -1.092   4.393   4.250  0.9090 -0.0726  0.2474
  872MOL0     C17605  -1.226   4.376   4.183  0.5470 -0.5018 -0.6348
  872MOL0     C17606  -1.301   4.258   4.232  0.4717 -0.4811 -0.1238
  872MOL0     C17607  -1.393   4.203   4.124  0.9327  0.1024  0.0887
  872MOL0     C17608  -1.498   4.103   4.188 -0.2145 -0.0565  0.3857
  872MOL0     O17609  -1.609   4.176   4.252  0.2701  0.0215 -0.5606
  872MOL0     C17610  -1.685   4.109   4.343 -0.2609  0.0276 -0.0348
  872MOL0     C17611  -1.686   3.969   4.368  0.9720  0.6346  0.2510
  872MOL0     C17612  -1.790   3.907   4.434 -1.1237  0.0256 -0.4364
  872MOL0     C17613  -1.891   3.984   4.493  0.8714 -0.8854 -0.3207
  872MOL0     C17614  -2.001   3.917   4.582 -0.3926 -0.3739  0.1963
  872MOL0     O17615  -1.966   3.786   4.605 -0.8220  0.1449 -0.6025
  872MOL0     C17616  -2.058   3.722   4.681  0.2813  0.5693  1.0491
  872MOL0     C17617  -2.156   3.644   4.617 -0.5437 -0.0993 -0.2083
  872MOL0     C17618  -2.262   3.585   4.700 -0.0817  1.2071 -0.2865
  872MOL0     C17619  -2.261   3.591   4.842 -0.0868 -0.0216  0.4722
  872MOL0     O17620  -2.351   3.538   4.923 -0.0655 -0.5315 -0.3666
  872MOL0     C17621  -2.373   3.400   4.898 -0.2813  0.4984 -0.2277
  872MOL0     C17622  -2.389   3.341   5.039  0.5685 -0.6913 -0.7021
  872MOL0     C17623  -2.260   3.338   5.133 -1.2663  0.0924  0.6622
  872MOL0     C17624  -2.190   3.203   5.119  0.4754 -0.0097  0.6002
  872MOL0     C17625  -2.105   3.165   5.230 -0.6822 -0.1104  0.5210
  872MOL0     C17626  -2.040   3.026   5.206 -0.0851  0.1333 -0.1822
  872MOL0     C17627  -1.928   3.007   5.318 -0.3372  0.5974 -0.0591
  872MOL0     C17628  -1.880   2.859   5.332 -0.2756  0.3333 -0.0399
  872MOL0    Cl17629  -1.775   2.826   5.185  0.1512  0.2916 -0.4498
  872MOL0     C17630  -2.158   3.662   4.897  0.0710 -0.8528 -0.0542
  872MOL0     C17631  -2.051   3.725   4.821  0.1971 -0.3010  0.6211
  872MOL0     O17632  -2.095   3.975   4.638  0.4185  0.5374  0.0780
  872MOL0     C17633  -1.888   4.122   4.467 -0.6896  0.2603 -0.6566
  872MOL0     C17634  -1.787   4.185   4.397  0.1097  0.3838 -0.7836
  872MOL0     N17635  -0.975   4.365   4.176  0.3453  0.3543 -0.0821
  872MOL0     N17636  -0.872   4.398   4.242 -0.2509 -0.3964  0.1886
  872MOL0     C17637   0.032   3.995   5.079 -0.0903  0.4485 -0.0646
  872MOL0     C17638   0.139   3.909   5.047 -0.6998  0.1766  0.0700
  872MOL0     C17639   0.479   3.765   4.750  0.2248  0.2749 -0.7557
  872MOL0     C17640   0.468   3.626   4.742  0.8858 -0.9621 -0.6622
  872MOL0     C17641   0.551   3.542   4.678  0.2790  0.2105 -0.2821
  872MOL0     C17642   0.657   3.600   4.614 -1.5708 -0.3445 -0.1663
  872MOL0     O17643   0.746   3.514   4.550 -0.0535  1.0144  0.3124
  872MOL0     C17644   0.824   3.563   4.440 -0.1366 -1.7620 -0.4082
  872MOL0     C17645   0.740   3.595   4.314 -0.6554  0.4127  0.0600
  872MOL0     C17646   0.673   3.468   4.252 -1.0372 -0.7653  0.2098
  872MOL0     C17647   0.653   3.471   4.099  0.0526  0.2726  0.5527
  872MOL0     C17648   0.568   3.589   4.053  0.5267  0.0243 -0.4003
  872MOL0     C17649   0.506   3.693   4.048  0.1927 -0.5851 -0.8022
  872MOL0     C17650   0.677   3.741   4.615  0.6397 -0.3469 -0.5800
  872MOL0     C17651   0.587   3.821   4.678 -0.1197 -0.3169  0.8405
  872MOL0     C17652   0.619   3.963   4.656  1.1075  0.3634 -0.5288
  872MOL0     H17653   0.030   3.817   4.735 -0.4576 -0.1750  0.0901
  872MOL0     H17654  -0.184   3.915   4.829  1.0343 -0.9707 -3.2507
  872MOL0     H17655  -0.344   3.951   4.993 -1.7757 -0.3733  1.1404
  872MOL0     H17656  -0.382   4.098   5.087 -1.1619 -0.4729 -0.4768
  872MOL0     H17657  -0.284   4.086   4.788  1.4558 -0.6981  0.0091
  872MOL0     H17658  -0.281   4.228   4.905 -2.3550 -0.0283  3.7677
  872MOL0     H17659  -0.499   4.196   4.959  2.0635 -1.2592  1.3389
  872MOL0     H17660  -0.536   4.069   4.842 -2.3421 -0.0792  1.3410
  872MOL0     H17661  -0.450   4.353   4.791 -0.3376  1.4653 -2.6819
  872MOL0     H17662  -0.464   4.223   4.663 -1.8539 -3.7673 -0.2155
  872MOL0     H17663  -0.686   4.166   4.714 -0.3957  0.4674  2.9073
  872MOL0     H17664  -0.707   4.296   4.814  2.2055  2.9134  0.1457
  872MOL0     H17665  -0.628   4.459   4.642  0.4090  1.1699 -1.8801
  872MOL0     H17666  -0.628   4.331   4.519  1.0925 -1.6971  1.2883
  872MOL0     H17667  -0.874   4.418   4.664 -0.6132 -1.1695 -0.8588
  872MOL0     H17668  -0.859   4.289   4.544  2.6736 -1.5357 -3.0653
  872MOL0     H17669  -0.833   4.591   4.504  1.1256  0.4196  0.2591
  872MOL0     H17670  -0.719   4.505   4.422  0.2188  2.1927 -0.0839
  872MOL0     H17671  -1.098   4.491   4.458  2.7467 -3.3032  1.7908
  872MOL0     H17672  -1.289   4.465   4.183 -0.7257 -1.3372  1.3071
  872MOL0     H17673  -1.202   4.361   4.078 -2.9356  1.9243 -1.9535
  872MOL0     H17674  -1.227   4.183   4.263  0.9622 -0.9995 -2.4151
  872MOL0     H17675  -1.359   4.297   4.316  0.5992 -0.8644  0.1473
  872MOL0     H17676  -1.325   4.160   4.049 -0.6983  2.2177 -2.8347
  872MOL0     H17677  -1.459   4.280   4.082  1.1781  0.9102  1.1449
  872MOL0     H17678  -1.454   4.042   4.268 -2.5671  0.2570  2.0260
  872MOL0     H17679  -1.538   4.040   4.108  3.2864 -2.1698  0.1003
  872MOL0     H17680  -1.609   3.907   4.323 -0.4053  0.1841 -1.6037
  872MOL0     H17681  -1.793   3.799   4.440 -1.1394  0.0931  1.6607
  872MOL0     H17682  -2.144   3.623   4.511 -4.1728 -3.2222 -0.2025
  872MOL0     H17683  -2.348   3.539   4.652 -0.1759  0.3298  0.6736
  872MOL0     H17684  -2.463   3.384   4.839  1.1276 -1.7559 -1.9341
  872MOL0     H17685  -2.295   3.334   4.859 -0.6698 -0.0116 -0.1433
  872MOL0     H17686  -2.454   3.406   5.097  0.3437 -1.4873 -0.0331
  872MOL0     H17687  -2.433   3.240   5.034 -1.0436 -0.2049  1.8142
  872MOL0     H17688  -2.189   3.420   5.119  0.2509 -0.7000  3.0229
  872MOL0     H17689  -2.289   3.350   5.238 -5.3820 -1.9009 -0.0375
  872MOL0     H17690  -2.144   3.202   5.019 -0.8763 -1.8125 -0.0546
  872MOL0     H17691  -2.262   3.122   5.131 -0.0469  0.6937  2.4380
  872MOL0     H17692  -2.169   3.159   5.318 -0.2425  1.8801  1.0067
  872MOL0     H17693  -2.033   3.246   5.246 -0.6863  0.3173 -1.3784
  872MOL0     H17694  -2.110   2.943   5.213  0.6151 -0.6151 -1.6815
  872MOL0     H17695  -2.002   3.019   5.104 -0.6310 -2.9459 -0.2571
  872MOL0     H17696  -1.968   3.039   5.415  1.0025  3.8928 -0.4562
  872MOL0     H17697  -1.848   3.080   5.303 -0.6313  0.9573  0.1118
  872MOL0     H17698  -1.814   2.841   5.418 -0.5162 -0.0811  0.0581
  872MOL0     H17699  -1.963   2.789   5.339  1.7194 -2.3368 -1.2034
  872MOL0     H17700  -2.146   3.664   5.005 -1.9471  0.9907  0.2150
  872MOL0     H17701  -1.974   3.777   4.876  0.8762  2.1135 -2.3131
  872MOL0     H17702  -1.948   4.192   4.526  0.4866 -0.2918  1.2799
  872MOL0     H17703  -1.792   4.293   4.399  0.7722  0.4864  3.1127
  872MOL0     H17704   0.030   4.058   5.168 -2.3119  1.1549 -0.5547
  872MOL0     H17705   0.222   3.897   5.116 -2.1436 -1.8339  1.5688
  872MOL0     H17706   0.394   3.581   4.806  1.3159 -0.3835  0.2591
  872MOL0     H17707   0.534   3.435   4.686  0.8117  0.1987  0.8685
  872MOL0     H17708   0.892   3.479   4.421  0.8324 -0.7392 -1.6499
  872MOL0     H17709   0.885   3.648   4.471  0.1230 -1.6380 -1.2231
  872MOL0     H17710   0.822   3.636   4.255  0.8239  0.1630  1.8376
  872MOL0     H17711   0.678   3.683   4.337  0.5834  0.5871  3.3517
  872MOL0     H17712   0.572   3.461   4.293 -2.9816  5.3626 -2.3274
  872MOL0     H17713   0.729   3.380   4.286  1.1534  0.8176  0.9352
  872MOL0     H17714   0.744   3.462   4.039  2.0065 -0.2717  3.3791
  872MOL0     H17715   0.596   3.383   4.067  2.6513 -0.0525 -4.0539
  872MOL0     H17716   0.449   3.782   4.066  2.5454  0.6631  1.0177
  872MOL0     H17717   0.774   3.784   4.591  0.0211  1.0026 -0.7651
  872MOL0     H17718   0.618   4.017   4.751 -2.0099 -1.0512  0.3869
  872MOL0     H17719   0.709   3.988   4.599  1.7343 -0.2542  0.1752
  872MOL0     H17720   0.530   4.005   4.609  0.6464  0.1156  0.1171
  873MOL0     O17721  10.419   7.440   1.467  0.6029  0.8821  0.0795
  873MOL0     C17722  10.455   7.551   1.456 -0.4863 -1.0621 -0.6148
  873MOL0     O17723  10.542   7.630   1.544  0.1076 -0.1698 -1.0825
  873MOL0     C17724  10.593   7.559   1.653 -0.3182  0.0235 -1.5523
  873MOL0     C17725  10.733   7.534   1.660 -0.0471 -0.4545 -1.5179
  873MOL0     C17726  10.791   7.503   1.788 -0.1892 -1.7774  0.9315
  873MOL0     C17727  10.712   7.500   1.898 -1.1840  0.0460  0.1705
  873MOL0     O17728  10.768   7.453   2.013 -0.0001 -0.7390  0.0349
  873MOL0     C17729  10.714   7.494   2.133 -0.1883 -0.5980 -0.2782
  873MOL0     C17730  10.820   7.463   2.241 -0.1288  0.1180  0.3684
  873MOL0     C17731  10.961   7.506   2.204 -0.0421  0.4973  0.0049
  873MOL0     C17732  11.058   7.521   2.323  0.1651  0.1542  0.7850
  873MOL0     C17733  11.112   7.376   2.357 -0.0272  0.8200  0.5206
  873MOL0     C17734  11.242   7.373   2.444 -0.7924 -0.8761  0.3822
  873MOL0     C17735  11.233   7.439   2.583  0.2612 -0.3076 -0.8000
  873MOL0     C17736  11.339   7.393   2.683  0.2292  0.0117 -0.0865
  873MOL0     N17737  11.355   7.245   2.711 -0.2216 -1.0764 -0.3471
  873MOL0     C17738  11.255   7.160   2.759  0.9412 -0.5991  1.1210
  873MOL0     C17739  11.298   7.036   2.746 -0.2826  0.2997 -0.1176
  873MOL0     C17740  11.235   6.914   2.792  0.6584 -0.7126 -0.1757
  873MOL0     C17741  11.129   6.882   2.689  0.2130  0.0465 -0.3449
  873MOL0     C17742  11.072   6.735   2.702 -0.3925  0.2320 -0.1045
  873MOL0     C17743  10.975   6.703   2.819 -0.5044 -0.3526 -0.3742
  873MOL0     O17744  10.881   6.815   2.808 -0.7497  0.4491  0.5831
  873MOL0     C17745  10.753   6.804   2.846  0.3851 -1.3200 -0.5501
  873MOL0     C17746  10.688   6.681   2.868 -0.4036 -0.6304 -0.7579
  873MOL0     C17747  10.566   6.681   2.925  0.9943 -0.2011  0.5266
  873MOL0     C17748  10.489   6.799   2.924  0.5597  0.4622 -1.0278
  873MOL0     C17749  10.337   6.789   2.957 -1.4035 -0.0082  0.0402
  873MOL0     O17750  10.268   6.911   2.961 -0.2323  1.2456 -0.3405
  873MOL0     C17751  10.137   6.915   2.983  0.3941 -0.2593  1.6767
  873MOL0     C17752  10.084   7.025   3.052 -0.3844 -0.4296  0.0873
  873MOL0     C17753   9.944   7.034   3.066 -0.1036  0.3970  0.2030
  873MOL0     C17754   9.854   6.935   3.019  0.2626 -0.5007 -0.5701
  873MOL0     O17755   9.722   6.930   3.041  0.6813  0.4035 -0.7862
  873MOL0     C17756   9.655   7.050   2.989  0.3351 -0.0068  1.0251
  873MOL0     C17757   9.504   7.040   3.052 -0.8429  1.0010 -0.1852
  873MOL0     C17758   9.398   7.114   2.971  0.2249  0.1000 -0.5862
  873MOL0     C17759   9.341   7.028   2.854  0.7323 -0.1136  0.0641
  873MOL0     C17760   9.281   7.107   2.740  0.5872  1.1139 -0.8415
  873MOL0     C17761   9.263   7.011   2.622  0.1574  0.0046  0.5326
  873MOL0     C17762   9.240   7.080   2.481  0.3806  0.4748 -0.0295
  873MOL0     C17763   9.094   7.118   2.459  0.1813 -0.1244  0.5154
  873MOL0    Cl17764   9.030   7.261   2.539  0.0087  0.4175  0.2513
  873MOL0     C17765   9.907   6.830   2.949 -0.2216  0.7751 -0.4680
  873MOL0     C17766  10.049   6.826   2.930 -0.3704  0.2741 -0.0294
  873MOL0     O17767  10.289   6.679   2.998 -0.6951 -0.0147  0.6355
  873MOL0     C17768  10.550   6.919   2.898  0.1881 -0.2921 -0.8266
  873MOL0     C17769  10.684   6.921   2.860  0.9946 -0.1764  0.3633
  873MOL0     N17770  11.429   7.041   2.703 -0.0793  0.3027 -0.9669
  873MOL0     N17771  11.465   7.167   2.690  0.3873  0.4513  0.6641
  873MOL0     C17772  10.570   7.514   1.885 -1.1170  1.4850 -0.6042
  873MOL0     C17773  10.510   7.541   1.764  1.3155 -0.1263  0.0020
  873MOL0     C17774  10.400   7.621   1.343 -0.7350 -0.0697 -0.1803
  873MOL0     C17775  10.407   7.552   1.216  0.4981  0.0355  0.1267
  873MOL0     C17776  10.361   7.623   1.106 -0.0152  0.1524 -0.7624
  873MOL0     C17777  10.307   7.752   1.111  0.7681 -0.3120 -0.0102
  873MOL0     O17778  10.263   7.821   1.000  0.2523 -0.2857 -0.7344
  873MOL0     C17779  10.299   7.785   0.871 -0.7181  1.0933  0.4042
  873MOL0     C17780  10.271   7.912   0.786  0.4456 -0.6874 -0.3663
  873MOL0     C17781  10.291   7.908   0.639  0.8562  0.1539 -1.3166
  873MOL0     C17782  10.439   7.916   0.594 -0.8809  0.2546 -0.4834
  873MOL0     C17783  10.495   7.779   0.605 -0.9467 -0.0529  0.4612
  873MOL0     C17784  10.539   7.670   0.630 -1.0511 -1.0274 -0.3250
  873MOL0     C17785  10.299   7.803   1.232  0.6172 -0.5632 -0.6309
  873MOL0     C17786  10.350   7.753   1.353  0.6509 -0.0319 -0.6600
  873MOL0     C17787  10.313   7.826   1.477 -0.2947 -0.8884  0.0345
  873MOL0     H17788  10.788   7.554   1.568 -2.7976 -1.6505 -3.5739
  873MOL0     H17789  10.899   7.505   1.796  0.0584  0.5879 -1.6097
  873MOL0     H17790  10.696   7.602   2.131 -2.1975 -0.7801  2.5009
  873MOL0     H17791  10.618   7.446   2.154 -1.4510  1.1096 -1.8056
  873MOL0     H17792  10.834   7.358   2.271  2.9182  0.0195 -0.9728
  873MOL0     H17793  10.794   7.522   2.329 -0.1885  0.7361 -0.0598
  873MOL0     H17794  10.960   7.604   2.157 -1.4742 -0.9958 -3.4436
  873MOL0     H17795  11.006   7.429   2.141  1.3791  0.5682  0.8997
  873MOL0     H17796  11.142   7.590   2.308  2.6738 -2.5884  1.3074
  873MOL0     H17797  11.009   7.562   2.412  0.7416  0.4286  0.9780
  873MOL0     H17798  11.031   7.326   2.412  1.0547  1.8937  3.3081
  873MOL0     H17799  11.133   7.318   2.267 -2.2864  1.8442 -0.7496
  873MOL0     H17800  11.269   7.267   2.439  0.3149 -0.5725 -0.4909
  873MOL0     H17801  11.311   7.430   2.380 -2.8339  0.1641 -1.0396
  873MOL0     H17802  11.139   7.399   2.624  0.3559 -0.6371 -0.8965
  873MOL0     H17803  11.232   7.546   2.563  1.2723 -0.5816 -2.5530
  873MOL0     H17804  11.440   7.423   2.653  0.3548  0.7043  0.9643
  873MOL0     H17805  11.309   7.449   2.772 -0.8319  0.8838 -0.9749
  873MOL0     H17806  11.158   7.195   2.792  0.9373 -0.5597  1.0666
  873MOL0     H17807  11.314   6.838   2.793 -0.0549 -1.4793  0.4437
  873MOL0     H17808  11.200   6.918   2.896 -0.1010 -0.5542 -0.4325
  873MOL0     H17809  11.040   6.944   2.708 -0.5766 -1.0425 -0.3989
  873MOL0     H17810  11.164   6.902   2.587 -3.5719  4.2575 -1.1521
  873MOL0     H17811  11.164   6.675   2.699  0.5584  1.6727 -2.5128
  873MOL0     H17812  11.023   6.715   2.606 -1.1712  2.8080 -0.3287
  873MOL0     H17813  11.032   6.701   2.912 -1.4606  3.0929  0.4639
  873MOL0     H17814  10.938   6.604   2.793  1.4694 -0.7730 -1.8232
  873MOL0     H17815  10.734   6.586   2.842  0.9944  0.5163 -2.8919
  873MOL0     H17816  10.525   6.586   2.956 -1.4824  1.2679  2.1689
  873MOL0     H17817  10.146   7.104   3.093  0.9409 -0.1897 -2.1761
  873MOL0     H17818   9.912   7.129   3.107  0.1159  1.0024 -0.9794
  873MOL0     H17819   9.708   7.144   3.010 -2.5164  2.0130 -0.1598
  873MOL0     H17820   9.650   7.045   2.880 -1.1969 -0.4044  1.0985
  873MOL0     H17821   9.474   6.935   3.052 -2.2904  1.3836 -0.1474
  873MOL0     H17822   9.514   7.076   3.154 -0.1184 -1.7693  0.7877
  873MOL0     H17823   9.324   7.143   3.046  1.3355  1.9506 -0.1409
  873MOL0     H17824   9.442   7.209   2.939  1.1146 -0.6523 -1.6659
  873MOL0     H17825   9.263   6.968   2.902 -0.8042  1.3683 -0.4895
  873MOL0     H17826   9.417   6.963   2.811 -0.7182 -1.3932 -0.6576
  873MOL0     H17827   9.347   7.189   2.713  0.0050  0.8723 -3.2377
  873MOL0     H17828   9.190   7.159   2.770  1.2863  1.8262  0.0937
  873MOL0     H17829   9.356   6.952   2.615  0.1952  0.2126 -1.2850
  873MOL0     H17830   9.175   6.952   2.648 -2.1670  2.1833 -1.8186
  873MOL0     H17831   9.272   7.018   2.397  0.5213 -1.8235  1.6194
  873MOL0     H17832   9.293   7.175   2.470  0.5158  0.1008 -4.3407
  873MOL0     H17833   9.087   7.135   2.351  2.6856 -1.8853 -0.0125
  873MOL0     H17834   9.036   7.026   2.466  1.9647 -1.6906 -3.1626
  873MOL0     H17835   9.858   6.741   2.910  0.0861 -1.0874  3.0120
  873MOL0     H17836  10.092   6.750   2.866 -0.0793  0.6141 -0.2405
  873MOL0     H17837  10.502   7.016   2.892 -1.6536 -1.0530  0.5826
  873MOL0     H17838  10.728   7.012   2.820  1.9893 -1.3825 -1.4239
  873MOL0     H17839  10.507   7.504   1.972  1.5770 -0.3317  1.2844
  873MOL0     H17840  10.404   7.565   1.764  0.6897 -2.1086  3.8718
  873MOL0     H17841  10.429   7.445   1.211  0.6635  0.1151 -0.9676
  873MOL0     H17842  10.351   7.578   1.008 -2.8832  0.8362 -0.8914
  873MOL0     H17843  10.241   7.700   0.834  0.5018  1.4165 -2.5379
  873MOL0     H17844  10.401   7.748   0.857 -1.1239  0.3618 -0.7592
  873MOL0     H17845  10.328   7.989   0.839 -2.3715 -0.6993  3.0746
  873MOL0     H17846  10.167   7.941   0.801  1.6415  5.1671 -0.9348
  873MOL0     H17847  10.234   7.987   0.590 -4.3744 -1.8016  0.8732
  873MOL0     H17848  10.258   7.811   0.600  1.5194  0.6285 -3.1431
  873MOL0     H17849  10.458   7.949   0.491  2.1750  0.5342  0.0667
  873MOL0     H17850  10.507   7.989   0.639 -0.1415  1.2858 -3.0507
  873MOL0     H17851  10.558   7.574   0.673 -3.8803 -2.0553 -1.1331
  873MOL0     H17852  10.253   7.901   1.234  1.2810 -0.2176  2.3884
  873MOL0     H17853  10.299   7.747   1.551 -1.0630 -5.0491 -4.0684
  873MOL0     H17854  10.387   7.897   1.516 -1.9733 -0.1781  2.0905
  873MOL0     H17855  10.219   7.882   1.479 -0.1012 -0.3359 -2.5557
  874MOL0     O17856   7.483  10.731   5.033  0.0908 -0.0610 -0.3490
  874MOL0     C17857   7.594  10.689   5.007  0.7218  0.3909 -0.0257
  874MOL0     O17858   7.617  10.590   4.919 -1.3166  0.0231  0.5952
  874MOL0     C17859   7.521  10.566   4.828 -0.5332  0.2918  0.5007
  874MOL0     C17860   7.522  10.591   4.687 -0.1289  0.2699 -0.2178
  874MOL0     C17861   7.424  10.549   4.596 -0.3051 -0.3026  0.2385
  874MOL0     C17862   7.322  10.463   4.638 -0.9850  0.7891 -0.2742
  874MOL0     O17863   7.239  10.411   4.542 -0.0718  0.5630 -0.0809
  874MOL0     C17864   7.187  10.286   4.561  0.3067  0.7488  0.3279
  874MOL0     C17865   7.106  10.262   4.435  0.2117  0.5731  1.2701
  874MOL0     C17866   7.194  10.207   4.321 -0.8174  0.0613 -0.0533
  874MOL0     C17867   7.129  10.158   4.184 -0.0576  0.0388 -0.6121
  874MOL0     C17868   7.239  10.095   4.093  0.2096  0.2351 -0.2890
  874MOL0     C17869   7.164  10.007   3.978 -0.0588  1.0247  0.9601
  874MOL0     C17870   7.252   9.930   3.875 -0.5173  0.2522 -0.4933
  874MOL0     C17871   7.322  10.029   3.774  0.3331 -0.1288 -0.5522
  874MOL0     N17872   7.420   9.964   3.692 -0.9511 -0.1132  0.2590
  874MOL0     C17873   7.552   9.928   3.730 -0.0577  0.2863  0.1498
  874MOL0     C17874   7.594   9.861   3.622 -1.0199 -0.4824  0.2909
  874MOL0     C17875   7.739   9.813   3.591 -0.3909 -0.9385 -0.1634
  874MOL0     C17876   7.794   9.733   3.709 -0.5605 -0.1912  0.2063
  874MOL0     C17877   7.943   9.742   3.700  0.0588  0.8115  0.2526
  874MOL0     C17878   8.027   9.649   3.790  0.1231 -0.4584  0.7648
  874MOL0     O17879   8.168   9.673   3.761  0.0257 -0.3015 -0.4302
  874MOL0     C17880   8.238   9.787   3.817 -0.1051  0.4253  0.1757
  874MOL0     C17881   8.371   9.795   3.787 -0.8717  0.8950 -0.1584
  874MOL0     C17882   8.468   9.885   3.855 -0.1083  0.4317  1.1117
  874MOL0     C17883   8.418   9.971   3.947 -0.9470 -0.1809  0.5759
  874MOL0     C17884   8.505  10.068   4.017 -0.0850 -0.3950 -0.1620
  874MOL0     O17885   8.639  10.055   4.014  0.6169  0.8112 -0.8063
  874MOL0     C17886   8.696  10.133   4.112 -0.2896  0.0087  0.7400
  874MOL0     C17887   8.748  10.086   4.233 -0.0443  0.2620 -0.3702
  874MOL0     C17888   8.819  10.165   4.322  0.0526 -0.3486 -0.2222
  874MOL0     C17889   8.827  10.301   4.299  0.1075  0.7084  0.2975
  874MOL0     O17890   8.876  10.398   4.388  1.3111 -0.8804 -0.0163
  874MOL0     C17891   8.879  10.359   4.526  0.8264  0.3537  0.2705
  874MOL0     C17892   8.946  10.462   4.617 -0.6698  1.6689  0.2092
  874MOL0     C17893   9.096  10.488   4.600  0.3738 -0.7423  0.3957
  874MOL0     C17894   9.196  10.382   4.591  0.3224  0.0673  0.1151
  874MOL0     C17895   9.338  10.431   4.549 -0.5800  0.3901  1.1247
  874MOL0     C17896   9.430  10.309   4.527 -0.0794  0.6947  1.0171
  874MOL0     C17897   9.579  10.354   4.488 -0.6003 -0.2969  0.1390
  874MOL0     C17898   9.647  10.413   4.607 -1.0588 -0.6712 -0.4042
  874MOL0    Cl17899   9.818  10.418   4.540  0.3656 -1.2425 -0.4144
  874MOL0     C17900   8.803  10.353   4.175  1.2136 -0.1976  0.8450
  874MOL0     C17901   8.740  10.269   4.081 -0.2239  0.4706 -0.4686
  874MOL0     O17902   8.453  10.156   4.087  0.4912  0.6395 -0.8096
  874MOL0     C17903   8.282   9.949   3.984  0.2256 -0.4813 -0.7873
  874MOL0     C17904   8.189   9.860   3.924  0.3017 -0.0393 -0.4831
  874MOL0     N17905   7.498   9.862   3.516  0.3709  0.0512 -0.1081
  874MOL0     N17906   7.398   9.924   3.565  0.8170  0.1227 -0.4877
  874MOL0     C17907   7.319  10.435   4.783  0.5321 -0.1367  0.6088
  874MOL0     C17908   7.415  10.490   4.872  0.2155  0.0229 -0.4803
  874MOL0     C17909   7.719  10.733   5.070 -0.3407 -0.3363 -0.4243
  874MOL0     C17910   7.835  10.762   4.988  0.3062 -0.9752  0.5849
  874MOL0     C17911   7.953  10.809   5.033  0.5527  1.1355  0.5250
  874MOL0     C17912   7.968  10.842   5.169  0.6071  0.8872 -0.2758
  874MOL0     O17913   8.073  10.914   5.225 -0.2169 -0.0553  0.2284
  874MOL0     C17914   8.162  10.988   5.125 -1.2942 -0.1626 -0.0562
  874MOL0     C17915   8.260  11.094   5.190  0.4900 -0.4439  0.5861
  874MOL0     C17916   8.335  11.053   5.318  0.1915  1.0245 -1.0000
  874MOL0     C17917   8.290  11.123   5.453  0.5903 -0.1779  0.3097
  874MOL0     C17918   8.405  11.134   5.552 -0.3839 -0.0418  0.0541
  874MOL0     C17919   8.484  11.162   5.638  0.1181  0.7911  0.4673
  874MOL0     C17920   7.853  10.817   5.257 -0.7844 -0.3464 -0.0982
  874MOL0     C17921   7.732  10.763   5.204 -0.4211  0.3316 -0.4057
  874MOL0     C17922   7.616  10.755   5.307  0.1635  0.5007 -0.2149
  874MOL0     H17923   7.609  10.649   4.657  1.8933 -3.2394 -1.7475
  874MOL0     H17924   7.438  10.567   4.490 -1.9566 -0.2060  0.0201
  874MOL0     H17925   7.264  10.210   4.578 -1.4467 -0.7148  2.0427
  874MOL0     H17926   7.131  10.294   4.654  0.4461 -1.2400  0.6253
  874MOL0     H17927   7.066  10.355   4.394  2.5615  0.8220 -0.7128
  874MOL0     H17928   7.024  10.192   4.455 -0.4055  1.2852  1.2443
  874MOL0     H17929   7.246  10.120   4.361  0.8409  0.9482 -0.1970
  874MOL0     H17930   7.276  10.275   4.298  0.5850 -1.2268  1.0265
  874MOL0     H17931   7.069  10.072   4.214 -0.7203  0.4778 -0.6618
  874MOL0     H17932   7.063  10.231   4.135 -2.4053  0.0221  2.2575
  874MOL0     H17933   7.291  10.179   4.046 -0.9211  1.3388  0.3840
  874MOL0     H17934   7.303  10.038   4.162 -0.4896  1.7581  1.6978
  874MOL0     H17935   7.105   9.931   4.030  1.2733  0.0048  1.0369
  874MOL0     H17936   7.106  10.078   3.918  1.5146  1.5359 -0.0279
  874MOL0     H17937   7.186   9.867   3.815 -0.9850 -0.4059  0.6841
  874MOL0     H17938   7.324   9.868   3.929 -0.2713 -1.6810 -2.8556
  874MOL0     H17939   7.248  10.065   3.702 -0.6087 -2.2470 -0.6954
  874MOL0     H17940   7.357  10.116   3.832 -0.6546 -0.5059  0.6544
  874MOL0     H17941   7.616   9.945   3.816  1.2365  2.3369 -1.1492
  874MOL0     H17942   7.745   9.759   3.496 -2.7359 -1.6009  0.0085
  874MOL0     H17943   7.807   9.896   3.575  0.4686 -1.8186 -1.2359
  874MOL0     H17944   7.765   9.774   3.805  1.0787 -2.0145  1.5701
  874MOL0     H17945   7.773   9.626   3.701  0.6968 -0.4510  0.0339
  874MOL0     H17946   7.974   9.847   3.710 -0.4320  0.8399  1.6480
  874MOL0     H17947   7.965   9.698   3.602 -1.1891 -1.8270  1.0747
  874MOL0     H17948   8.010   9.543   3.771  0.0218 -0.3180  0.0289
  874MOL0     H17949   7.997   9.660   3.895 -2.0100  0.4304  0.1058
  874MOL0     H17950   8.406   9.728   3.709 -2.4783  0.8464 -0.8856
  874MOL0     H17951   8.568   9.868   3.818 -0.6664 -1.6394  0.3953
  874MOL0     H17952   8.712   9.990   4.268 -0.6428  1.8302  4.1197
  874MOL0     H17953   8.856  10.119   4.414  2.4332  3.0477  0.6938
  874MOL0     H17954   8.775  10.354   4.558  0.9747  2.4702  1.2791
  874MOL0     H17955   8.931  10.266   4.551 -3.2967 -1.5920  2.5172
  874MOL0     H17956   8.902  10.559   4.591  0.4289  1.5387 -2.4588
  874MOL0     H17957   8.933  10.439   4.723 -1.9035 -1.2951 -0.4950
  874MOL0     H17958   9.104  10.550   4.510 -0.6064  2.8007  2.5459
  874MOL0     H17959   9.130  10.555   4.680  0.1220  0.9513 -0.8708
  874MOL0     H17960   9.155  10.300   4.531  2.6213 -0.5128 -0.7752
  874MOL0     H17961   9.211  10.337   4.689 -0.1672  1.4086  0.8353
  874MOL0     H17962   9.380  10.487   4.634  1.3272  0.5043  0.1629
  874MOL0     H17963   9.330  10.491   4.459  0.2907  2.2760  2.2384
  874MOL0     H17964   9.433  10.236   4.609  2.6215 -0.1151  0.3066
  874MOL0     H17965   9.391  10.250   4.444 -0.4511 -0.8893  2.2532
  874MOL0     H17966   9.575  10.427   4.407 -0.2863  0.8786  1.1646
  874MOL0     H17967   9.637  10.264   4.466 -1.3650 -0.3432 -1.8818
  874MOL0     H17968   9.615  10.509   4.648  2.5054  0.6024 -0.3061
  874MOL0     H17969   9.647  10.351   4.698  0.7900 -0.1899 -0.0287
  874MOL0     H17970   8.820  10.458   4.152 -0.0135 -0.9001 -4.3778
  874MOL0     H17971   8.714  10.307   3.983 -0.2754 -1.5410 -1.2904
  874MOL0     H17972   8.229  10.018   4.050  1.5290  1.4114 -1.6162
  874MOL0     H17973   8.084   9.862   3.950  0.9946  1.0082  2.6826
  874MOL0     H17974   7.246  10.367   4.827  2.0838 -2.9916 -0.9148
  874MOL0     H17975   7.402  10.475   4.979  0.9538  0.4719 -0.3244
  874MOL0     H17976   7.827  10.751   4.880  0.9071  1.9023  0.1763
  874MOL0     H17977   8.045  10.812   4.975 -0.9511  1.4108 -1.9557
  874MOL0     H17978   8.110  11.053   5.054 -1.1073  2.2307  1.8652
  874MOL0     H17979   8.223  10.910   5.078 -2.8701 -0.3233 -1.9770
  874MOL0     H17980   8.191  11.175   5.215  1.8119  0.0787  2.8168
  874MOL0     H17981   8.330  11.129   5.114 -0.5913 -1.3457 -0.9057
  874MOL0     H17982   8.434  11.094   5.293 -0.5040  2.8177 -0.9653
  874MOL0     H17983   8.333  10.944   5.326 -1.6663  0.8582 -2.8386
  874MOL0     H17984   8.252  11.222   5.425 -0.2391  0.1441  2.3919
  874MOL0     H17985   8.211  11.064   5.501 -2.0846  1.6032 -1.6117
  874MOL0     H17986   8.556  11.177   5.715 -0.5012  1.7058  0.8755
  874MOL0     H17987   7.850  10.854   5.359 -0.4819  1.7420 -0.7921
  874MOL0     H17988   7.658  10.797   5.399 -0.0033  2.1196 -0.8450
  874MOL0     H17989   7.542  10.810   5.248 -0.2716 -1.1420 -1.2556
  874MOL0     H17990   7.588  10.650   5.321  1.3954  0.1584 -0.2229
  875MOL0     O17991   5.319   4.754   1.369 -0.1212 -0.0633 -0.2735
  875MOL0     C17992   5.309   4.771   1.246 -0.3810  0.6073 -0.8605
  875MOL0     O17993   5.252   4.680   1.154  1.3745  0.4319  0.1526
  875MOL0     C17994   5.206   4.558   1.207  0.2111 -0.4989  0.9083
  875MOL0     C17995   5.107   4.542   1.300 -0.0638 -0.4699 -0.6711
  875MOL0     C17996   5.047   4.425   1.343  0.8461  0.4827 -0.8598
  875MOL0     C17997   5.082   4.307   1.283  1.1746 -0.2266 -0.2887
  875MOL0     O17998   5.014   4.185   1.281 -0.3802  0.3136  0.2184
  875MOL0     C17999   4.959   4.148   1.411  0.5011 -0.4339  0.4652
  875MOL0     C18000   5.063   4.100   1.520  0.6028  0.1886  1.7536
  875MOL0     C18001   4.997   4.036   1.642 -0.1919 -0.4264  0.8684
  875MOL0     C18002   5.091   4.042   1.765  0.5713 -0.0236  0.7403
  875MOL0     C18003   5.013   3.999   1.894  0.5068 -0.2303 -0.1656
  875MOL0     C18004   5.105   3.966   2.010  0.7583  0.0758  0.6910
  875MOL0     C18005   5.180   4.085   2.065  0.2660  0.2657  0.1272
  875MOL0     C18006   5.085   4.186   2.133  0.3805 -0.2950 -0.3802
  875MOL0     N18007   5.142   4.304   2.197 -1.2940  0.6981  0.0888
  875MOL0     C18008   5.205   4.300   2.321 -0.3810 -0.4599 -1.0885
  875MOL0     C18009   5.248   4.430   2.337  0.0246 -0.0908  0.6769
  875MOL0     C18010   5.344   4.488   2.443 -0.4032 -0.8983  0.6603
  875MOL0     C18011   5.458   4.395   2.482 -0.0215 -0.2884 -0.1975
  875MOL0     C18012   5.572   4.478   2.557  1.1471 -0.4116 -0.3158
  875MOL0     C18013   5.685   4.376   2.607  0.5499 -0.1910  0.4614
  875MOL0     O18014   5.652   4.320   2.735  0.0321 -0.0573  0.6369
  875MOL0     C18015   5.735   4.364   2.832  1.7891 -0.7493 -0.1684
  875MOL0     C18016   5.682   4.450   2.933 -1.2842  0.0794 -1.3301
  875MOL0     C18017   5.760   4.481   3.050 -0.4869  0.2044 -0.7668
  875MOL0     C18018   5.890   4.443   3.039 -0.4383  0.1884 -0.5854
  875MOL0     C18019   5.978   4.478   3.151  0.4492 -0.0150 -0.0548
  875MOL0     O18020   5.917   4.554   3.255 -1.2805  0.0617 -0.3471
  875MOL0     C18021   5.992   4.618   3.351  0.2452 -0.4272 -0.1084
  875MOL0     C18022   5.981   4.751   3.379  0.4982  0.9044  0.6153
  875MOL0     C18023   6.038   4.812   3.486  0.8123  0.4718  0.4828
  875MOL0     C18024   6.102   4.727   3.572  0.0018 -0.0841 -0.3059
  875MOL0     O18025   6.177   4.794   3.666  0.3224  1.5838  0.2009
  875MOL0     C18026   6.150   4.746   3.801 -0.5843  0.0499  0.3077
  875MOL0     C18027   6.203   4.851   3.900 -0.1086 -0.3504 -0.0446
  875MOL0     C18028   6.340   4.812   3.958  0.5061 -1.1139  0.6145
  875MOL0     C18029   6.382   4.906   4.077 -0.6442  0.3672  0.4014
  875MOL0     C18030   6.535   4.936   4.088 -0.6140 -0.8975  0.2751
  875MOL0     C18031   6.622   4.819   4.114  0.2296  0.5970 -0.2902
  875MOL0     C18032   6.772   4.851   4.147  1.2932 -0.8017 -0.3948
  875MOL0     C18033   6.852   4.731   4.191 -0.9164  0.2435 -0.8579
  875MOL0    Cl18034   6.903   4.619   4.072 -0.0261 -0.2003  0.3177
  875MOL0     C18035   6.099   4.588   3.560 -0.3722  0.3953  0.0235
  875MOL0     C18036   6.042   4.541   3.446 -0.1587 -0.4113  0.3030
  875MOL0     O18037   6.094   4.435   3.151 -0.8370 -0.6626 -0.1597
  875MOL0     C18038   5.933   4.353   2.943  0.3466  0.0848  0.4837
  875MOL0     C18039   5.856   4.304   2.842 -0.2892  0.0468  0.0960
  875MOL0     N18040   5.216   4.505   2.233  0.7161 -0.3103 -0.0974
  875MOL0     N18041   5.162   4.428   2.147  0.3759 -0.4162 -0.9494
  875MOL0     C18042   5.191   4.310   1.183  0.4160 -0.1514  0.8074
  875MOL0     C18043   5.237   4.434   1.137 -0.7446 -0.3530  0.5054
  875MOL0     C18044   5.390   4.880   1.192 -0.9836 -0.4223 -0.3651
  875MOL0     C18045   5.441   4.868   1.058  0.6214  0.5808  0.1866
  875MOL0     C18046   5.520   4.967   1.001 -0.0406  0.0309  0.0928
  875MOL0     C18047   5.536   5.083   1.070 -0.9107 -0.6136  0.2834
  875MOL0     O18048   5.578   5.196   1.015  0.8461  0.1432 -0.0532
  875MOL0     C18049   5.625   5.220   0.883 -0.1560  0.4955 -0.4987
  875MOL0     C18050   5.522   5.246   0.785  0.7552 -0.0050  0.6419
  875MOL0     C18051   5.580   5.314   0.663 -0.3820 -0.6082 -0.3241
  875MOL0     C18052   5.481   5.344   0.561 -0.1141  0.1079  0.0753
  875MOL0     C18053   5.553   5.403   0.445  0.5593 -0.4550  0.3274
  875MOL0     C18054   5.612   5.439   0.344  0.1236  0.2095  0.7343
  875MOL0     C18055   5.503   5.097   1.204  0.3202 -0.2585 -0.5596
  875MOL0     C18056   5.426   4.995   1.268 -0.8495  1.1197  0.0138
  875MOL0     C18057   5.395   5.029   1.408 -0.3737  1.4464 -0.8850
  875MOL0     H18058   5.067   4.633   1.344  1.1808 -0.8128  1.3044
  875MOL0     H18059   4.967   4.429   1.417  2.3833 -0.6925  0.9523
  875MOL0     H18060   4.891   4.227   1.445  1.6927  0.1288  1.6897
  875MOL0     H18061   4.891   4.066   1.387 -0.9168  0.8249  0.0585
  875MOL0     H18062   5.122   4.190   1.539  0.8883  1.1553 -2.6466
  875MOL0     H18063   5.129   4.030   1.468  0.9744 -0.3305  2.8879
  875MOL0     H18064   4.972   3.934   1.614 -0.8238 -0.7702  2.6133
  875MOL0     H18065   4.906   4.093   1.662 -0.1219 -0.6789  1.9625
  875MOL0     H18066   5.169   3.967   1.747 -0.0934 -0.5814  0.1172
  875MOL0     H18067   5.135   4.139   1.791 -0.9105  1.1894 -1.0471
  875MOL0     H18068   4.940   4.075   1.924 -2.0719 -1.2028 -3.4110
  875MOL0     H18069   4.954   3.910   1.872  0.8932 -0.8988  1.4133
  875MOL0     H18070   5.045   3.916   2.087 -0.8054 -2.7853 -2.1305
  875MOL0     H18071   5.189   3.903   1.978  1.3582  0.6741  1.0546
  875MOL0     H18072   5.235   4.140   1.988 -3.3747  2.6743 -1.0194
  875MOL0     H18073   5.260   4.051   2.131  1.2999  1.4527 -0.4691
  875MOL0     H18074   5.020   4.231   2.058 -1.0247  0.8974  1.4637
  875MOL0     H18075   5.018   4.137   2.205  2.8725  1.4954  3.5121
  875MOL0     H18076   5.205   4.215   2.390 -1.5329  0.0304 -0.4618
  875MOL0     H18077   5.374   4.585   2.402  1.0250 -0.7400  1.9576
  875MOL0     H18078   5.289   4.525   2.530 -0.8182  1.1181 -0.3952
  875MOL0     H18079   5.418   4.317   2.547  1.2505  1.9682  3.6219
  875MOL0     H18080   5.508   4.362   2.390  3.3576 -0.6234  1.5993
  875MOL0     H18081   5.531   4.539   2.638 -1.3954  0.0234 -1.7990
  875MOL0     H18082   5.618   4.542   2.481  0.1794 -0.6219 -1.1042
  875MOL0     H18083   5.780   4.430   2.604 -0.1386  0.9842 -2.1745
  875MOL0     H18084   5.686   4.291   2.538 -0.1727  0.3732 -0.2559
  875MOL0     H18085   5.581   4.489   2.930 -1.8937 -1.0528  1.3441
  875MOL0     H18086   5.713   4.536   3.131 -0.4847 -1.2959  0.3024
  875MOL0     H18087   5.921   4.812   3.311 -2.4239  1.8689  3.7624
  875MOL0     H18088   6.025   4.919   3.497 -0.5420  0.2070  1.7062
  875MOL0     H18089   6.048   4.708   3.805 -0.2180 -0.8491  1.4973
  875MOL0     H18090   6.215   4.658   3.809 -0.0456  0.4034 -0.0992
  875MOL0     H18091   6.201   4.954   3.864 -3.3166  0.5194  2.2195
  875MOL0     H18092   6.143   4.840   3.991  0.8236 -1.3447  0.4868
  875MOL0     H18093   6.340   4.706   3.985 -2.3631 -1.3503  0.0609
  875MOL0     H18094   6.417   4.828   3.882  0.1264  1.6147  0.7147
  875MOL0     H18095   6.363   4.839   4.161  1.1212 -2.4919 -1.2738
  875MOL0     H18096   6.312   4.990   4.075  0.4241  1.2722 -1.0247
  875MOL0     H18097   6.538   5.002   4.176  1.3522 -0.6625  0.0603
  875MOL0     H18098   6.564   4.999   4.004  0.5641  1.4012  2.2610
  875MOL0     H18099   6.574   4.759   4.192 -0.6038  1.1169 -0.4002
  875MOL0     H18100   6.614   4.752   4.027 -1.7674 -3.5062  2.7357
  875MOL0     H18101   6.766   4.915   4.235  1.0750 -0.2351 -0.8139
  875MOL0     H18102   6.806   4.912   4.062 -0.4848  0.2795 -0.3993
  875MOL0     H18103   6.942   4.767   4.241 -1.3631  1.2060 -0.7230
  875MOL0     H18104   6.800   4.667   4.263  1.2645 -1.5989 -0.8150
  875MOL0     H18105   6.146   4.517   3.627  0.7041 -0.0845 -1.2012
  875MOL0     H18106   6.060   4.435   3.433 -1.2913 -0.6960  0.8784
  875MOL0     H18107   6.036   4.322   2.962 -0.0460  0.1947  3.2641
  875MOL0     H18108   5.889   4.232   2.768 -3.5161 -1.3921 -0.1178
  875MOL0     H18109   5.209   4.216   1.132 -0.7284  0.5989 -1.0960
  875MOL0     H18110   5.311   4.429   1.058  0.6794  2.1105  1.5455
  875MOL0     H18111   5.436   4.773   1.006 -0.5161  1.4140 -1.3032
  875MOL0     H18112   5.546   4.963   0.896  1.9769 -0.3874  0.5620
  875MOL0     H18113   5.693   5.138   0.861  0.1674  0.6899 -0.2467
  875MOL0     H18114   5.693   5.306   0.888  1.6368 -0.8950  0.0933
  875MOL0     H18115   5.445   5.303   0.839  1.3396  0.0535  1.4311
  875MOL0     H18116   5.479   5.148   0.766  1.6733 -0.9382  2.9791
  875MOL0     H18117   5.662   5.271   0.606  1.5549  1.7971  0.4506
  875MOL0     H18118   5.612   5.414   0.696  0.9064 -0.3039 -2.3670
  875MOL0     H18119   5.447   5.248   0.520  1.3516 -0.6278  0.5247
  875MOL0     H18120   5.389   5.400   0.582 -0.7099 -0.5357 -0.7198
  875MOL0     H18121   5.654   5.462   0.248  1.0276 -0.1712  1.0258
  875MOL0     H18122   5.519   5.197   1.243  0.7319 -0.9416  1.0944
  875MOL0     H18123   5.295   4.991   1.431  0.1272 -0.0825 -1.1001
  875MOL0     H18124   5.466   4.981   1.475 -1.4120 -0.5377 -1.1382
  875MOL0     H18125   5.406   5.136   1.428 -1.7542  1.2135  1.3890
  876MOL0     O18126   9.337   9.462   6.826 -0.4465 -0.6101  0.0299
  876MOL0     C18127   9.232   9.505   6.870 -0.1339  0.0732  0.6492
  876MOL0     O18128   9.122   9.430   6.885 -0.4022  0.3399 -0.0806
  876MOL0     C18129   9.131   9.293   6.879  0.5897 -0.2996  0.2923
  876MOL0     C18130   9.174   9.218   6.988 -1.1665 -0.3639  0.3693
  876MOL0     C18131   9.172   9.083   6.988  0.2390  0.9384  1.0227
  876MOL0     C18132   9.103   9.007   6.888  0.4747  0.1189 -0.0253
  876MOL0     O18133   9.102   8.875   6.911  0.4966 -1.3382 -0.1555
  876MOL0     C18134   9.050   8.795   6.802 -0.6683  0.6127 -0.2017
  876MOL0     C18135   9.095   8.655   6.810 -0.5266  0.9467 -0.1834
  876MOL0     C18136   9.042   8.578   6.936  0.2123  0.2146  0.2111
  876MOL0     C18137   9.085   8.433   6.944  0.1702 -0.2785  0.1976
  876MOL0     C18138   9.229   8.410   6.981  0.1209  0.3342 -0.5355
  876MOL0     C18139   9.240   8.393   7.136 -0.3524  0.3370  0.1356
  876MOL0     C18140   9.370   8.335   7.188 -0.3435 -0.1182 -0.3171
  876MOL0     C18141   9.435   8.211   7.125 -0.2929  1.0220 -0.0131
  876MOL0     N18142   9.341   8.093   7.125 -1.2195  0.1301 -0.4851
  876MOL0     C18143   9.378   7.956   7.100  0.2737  0.6304  0.7480
  876MOL0     C18144   9.253   7.888   7.105  0.0494 -1.3001  0.3600
  876MOL0     C18145   9.234   7.742   7.101  0.7313  0.3414  0.8462
  876MOL0     C18146   9.345   7.685   7.184  0.1285 -0.5925 -1.1437
  876MOL0     C18147   9.344   7.533   7.175 -0.1991  0.2970  0.5428
  876MOL0     C18148   9.423   7.472   7.292 -0.1132  0.6940 -0.0115
  876MOL0     O18149   9.412   7.526   7.429  0.0909  0.2338  0.0650
  876MOL0     C18150   9.296   7.512   7.505 -0.1889 -0.3845 -0.1368
  876MOL0     C18151   9.180   7.442   7.480 -0.0675 -1.5069  0.2442
  876MOL0     C18152   9.074   7.437   7.572  0.0488 -0.7780 -0.5211
  876MOL0     C18153   9.083   7.493   7.698 -1.0195  0.1020 -0.3309
  876MOL0     C18154   8.968   7.494   7.792  0.5135  0.4150 -0.1530
  876MOL0     O18155   9.001   7.530   7.921 -0.3574  0.6855 -1.4444
  876MOL0     C18156   8.911   7.544   8.021 -0.5806  0.3045 -0.4609
  876MOL0     C18157   8.775   7.587   8.012 -0.3664 -0.0535 -1.3361
  876MOL0     C18158   8.696   7.604   8.118 -0.7297 -0.1093  0.1871
  876MOL0     C18159   8.747   7.571   8.247  0.4811 -0.9836 -0.7391
  876MOL0     O18160   8.659   7.584   8.355 -0.5356  0.7370 -0.9290
  876MOL0     C18161   8.704   7.535   8.488 -1.3134 -0.1897 -0.5038
  876MOL0     C18162   8.698   7.390   8.507 -0.5966  0.2596  0.1752
  876MOL0     C18163   8.732   7.338   8.640 -0.4436  0.5077 -1.2844
  876MOL0     C18164   8.693   7.190   8.653 -0.7263  1.0779 -0.1080
  876MOL0     C18165   8.759   7.116   8.782  0.6527  0.5275 -0.0946
  876MOL0     C18166   8.718   6.974   8.797 -0.1951  0.0710 -0.0410
  876MOL0     C18167   8.737   6.936   8.945  0.2118  0.0692 -0.1224
  876MOL0     C18168   8.681   6.792   8.965  0.4265 -0.3920 -0.2793
  876MOL0    Cl18169   8.804   6.678   8.906 -0.2102  0.0745 -0.3176
  876MOL0     C18170   8.885   7.549   8.264 -0.0993  0.2547  0.2643
  876MOL0     C18171   8.968   7.526   8.149 -0.5086 -0.1249 -0.2345
  876MOL0     O18172   8.853   7.488   7.746 -1.0115  0.2739  0.2874
  876MOL0     C18173   9.200   7.566   7.730  0.3804 -0.3099 -0.0896
  876MOL0     C18174   9.308   7.570   7.642 -0.5788 -0.1026 -0.5379
  876MOL0     N18175   9.149   7.975   7.129  0.8325  0.6570 -0.1815
  876MOL0     N18176   9.205   8.090   7.147  0.3413 -0.4787 -0.2589
  876MOL0     C18177   9.050   9.085   6.779  0.5939  0.7738  0.2613
  876MOL0     C18178   9.067   9.225   6.775  0.1585  0.3049 -0.6400
  876MOL0     C18179   9.220   9.654   6.897  0.3087 -1.0675 -0.3292
  876MOL0     C18180   9.117   9.708   6.980 -0.4702 -0.5193 -0.6453
  876MOL0     C18181   9.111   9.847   7.013  0.3065  1.1503 -0.2405
  876MOL0     C18182   9.197   9.941   6.947 -0.5328  0.8739 -0.1409
  876MOL0     O18183   9.179  10.071   6.968  0.1003  0.0437 -0.8644
  876MOL0     C18184   9.288  10.133   7.038  0.2594  0.4622 -0.0002
  876MOL0     C18185   9.375  10.198   6.941  1.5483 -0.3295 -0.1233
  876MOL0     C18186   9.318  10.303   6.849  0.0103  0.1757  0.1176
  876MOL0     C18187   9.386  10.310   6.703  0.1832  0.8393  0.8430
  876MOL0     C18188   9.349  10.430   6.634  0.1998 -0.3566 -0.3108
  876MOL0     C18189   9.346  10.525   6.557 -1.2164 -0.4849 -0.4516
  876MOL0     C18190   9.294   9.887   6.867 -0.1694  0.7593  0.0379
  876MOL0     C18191   9.301   9.750   6.826 -0.6435 -0.4209  1.2384
  876MOL0     C18192   9.405   9.717   6.723 -0.4061 -0.3866  0.7161
  876MOL0     H18193   9.232   9.274   7.061 -0.0433  1.0806 -1.5464
  876MOL0     H18194   9.210   9.037   7.079  0.4468  1.0587  0.9965
  876MOL0     H18195   8.942   8.802   6.788 -0.6995 -2.4146 -2.2357
  876MOL0     H18196   9.102   8.829   6.712 -0.4882  3.5828  0.9108
  876MOL0     H18197   9.204   8.661   6.811 -0.5159  0.9501 -0.9883
  876MOL0     H18198   9.070   8.597   6.720 -1.6484  1.6107 -0.3230
  876MOL0     H18199   8.933   8.582   6.926  0.4540  0.4286 -4.1617
  876MOL0     H18200   9.068   8.621   7.034 -1.5728 -0.7692  1.1654
  876MOL0     H18201   9.018   8.379   7.012  1.0393  0.3174  1.5876
  876MOL0     H18202   9.059   8.393   6.846 -1.8734  1.6067 -0.1028
  876MOL0     H18203   9.274   8.329   6.923 -1.7352  0.2160 -1.8950
  876MOL0     H18204   9.285   8.504   6.971 -0.6989  1.1028  1.5157
  876MOL0     H18205   9.223   8.487   7.191  1.4759  2.0639 -2.0358
  876MOL0     H18206   9.165   8.316   7.156  1.5155 -1.1579  1.7511
  876MOL0     H18207   9.358   8.311   7.294 -0.3461  2.2378  0.2557
  876MOL0     H18208   9.439   8.419   7.195 -0.6006 -0.0020  1.1146
  876MOL0     H18209   9.454   8.248   7.023  0.1234  2.0857  0.4395
  876MOL0     H18210   9.530   8.187   7.174 -2.0102  0.5214  3.3102
  876MOL0     H18211   9.474   7.915   7.072 -0.1537  0.9132 -1.2445
  876MOL0     H18212   9.137   7.718   7.145  0.4796 -2.0650 -0.8351
  876MOL0     H18213   9.242   7.698   7.001  0.1521  0.1011  0.9035
  876MOL0     H18214   9.450   7.710   7.165  0.8500 -1.9371  0.7832
  876MOL0     H18215   9.321   7.702   7.289 -2.4896  0.1837 -1.7901
  876MOL0     H18216   9.391   7.499   7.082 -1.0322 -1.6748  0.7986
  876MOL0     H18217   9.244   7.490   7.183  0.4141 -1.6588 -1.4112
  876MOL0     H18218   9.527   7.493   7.266 -0.5833 -1.4855 -4.6198
  876MOL0     H18219   9.421   7.363   7.297  0.2883  0.7341  1.5117
  876MOL0     H18220   9.155   7.405   7.381 -0.0564 -0.9375  0.0195
  876MOL0     H18221   8.986   7.377   7.551 -0.2994  0.1525 -1.8715
  876MOL0     H18222   8.734   7.608   7.914 -0.1357  2.2728 -0.9981
  876MOL0     H18223   8.594   7.636   8.099 -0.3278 -0.6823 -3.9061
  876MOL0     H18224   8.799   7.575   8.524 -1.2879 -0.2812 -0.4659
  876MOL0     H18225   8.646   7.578   8.570  2.5215  3.7995  0.4759
  876MOL0     H18226   8.597   7.363   8.477 -0.0879 -1.2805 -0.2367
  876MOL0     H18227   8.767   7.348   8.433  0.0517  1.8328 -0.1515
  876MOL0     H18228   8.838   7.340   8.666 -0.5871  2.4102 -0.6978
  876MOL0     H18229   8.676   7.395   8.715 -2.3311 -1.2992 -1.2137
  876MOL0     H18230   8.717   7.132   8.564  2.8196 -0.1987  1.5064
  876MOL0     H18231   8.584   7.182   8.650 -0.7407  1.2992 -0.2654
  876MOL0     H18232   8.749   7.174   8.875 -0.9000  1.0061 -0.5365
  876MOL0     H18233   8.867   7.127   8.771  0.4183  1.4786 -1.7386
  876MOL0     H18234   8.616   6.956   8.762 -0.1003 -1.9596  0.5761
  876MOL0     H18235   8.791   6.922   8.733  0.7100  0.1517  0.9079
  876MOL0     H18236   8.682   7.008   9.006  2.3253  1.9559 -0.3209
  876MOL0     H18237   8.843   6.935   8.969  0.3985 -4.5026 -0.3135
  876MOL0     H18238   8.655   6.775   9.070  0.7068  2.5393  0.3416
  876MOL0     H18239   8.582   6.778   8.919  0.8550 -2.6781 -0.6322
  876MOL0     H18240   8.943   7.534   8.354  2.7371 -1.0538 -1.6395
  876MOL0     H18241   9.071   7.491   8.157 -0.9872 -1.5679 -0.0777
  876MOL0     H18242   9.222   7.621   7.820  1.5503  2.5353 -1.9718
  876MOL0     H18243   9.397   7.627   7.666  0.9459 -1.9796 -1.4877
  876MOL0     H18244   9.007   9.037   6.692 -2.3235  3.2879  0.1446
  876MOL0     H18245   9.021   9.275   6.691 -1.3185 -1.6382 -1.0747
  876MOL0     H18246   9.046   9.642   7.027  2.1788 -1.5664  2.2678
  876MOL0     H18247   9.019   9.884   7.058 -0.8008 -0.8160 -0.7926
  876MOL0     H18248   9.354  10.065   7.092 -0.7328  1.9822  3.3467
  876MOL0     H18249   9.247  10.206   7.109  0.0253  0.2043  0.1354
  876MOL0     H18250   9.420  10.126   6.872 -0.4074  0.5961 -2.5576
  876MOL0     H18251   9.453  10.249   6.998 -2.1317  0.4157  4.8792
  876MOL0     H18252   9.344  10.395   6.904  0.1617  0.4911 -0.4784
  876MOL0     H18253   9.210  10.296   6.834  0.3884  1.2964 -4.7324
  876MOL0     H18254   9.494  10.305   6.716  0.3130 -0.4987 -0.5051
  876MOL0     H18255   9.363  10.221   6.644  3.9591 -0.5517  1.1792
  876MOL0     H18256   9.361  10.614   6.499  0.5249 -0.8869 -0.6929
  876MOL0     H18257   9.339   9.967   6.810 -2.1724  1.5887 -0.4843
  876MOL0     H18258   9.358   9.641   6.659 -1.3006 -1.0243  2.0776
  876MOL0     H18259   9.441   9.804   6.668 -0.8696  0.1661  1.2726
  876MOL0     H18260   9.500   9.685   6.765  0.2017  1.7395  1.0878
  877MOL0     O18261   8.310   9.707   2.911 -0.1247 -0.4695  1.3176
  877MOL0     C18262   8.381   9.788   2.953  0.5701 -0.8032 -0.0734
  877MOL0     O18263   8.445   9.777   3.077 -0.3282 -0.5227 -0.2085
  877MOL0     C18264   8.445   9.662   3.143  0.1596  0.1585 -1.5784
  877MOL0     C18265   8.490   9.539   3.087 -0.8223 -0.0204  0.9275
  877MOL0     C18266   8.482   9.422   3.159 -0.0838  0.2858 -0.6757
  877MOL0     C18267   8.411   9.426   3.287 -0.2603  0.7109  0.1095
  877MOL0     O18268   8.390   9.309   3.352  0.2052 -0.2938 -0.5413
  877MOL0     C18269   8.495   9.270   3.458 -0.4677  0.7906 -0.0270
  877MOL0     C18270   8.446   9.289   3.604 -0.9661  0.2389 -0.5448
  877MOL0     C18271   8.337   9.201   3.652 -1.1585  0.0754 -0.1344
  877MOL0     C18272   8.201   9.204   3.585 -0.1725 -0.7246  0.0950
  877MOL0     C18273   8.118   9.333   3.603 -0.8218 -0.0859 -0.6584
  877MOL0     C18274   7.983   9.336   3.524 -0.6539 -0.8973  0.7004
  877MOL0     C18275   8.007   9.324   3.372  0.3136  0.5778  0.6879
  877MOL0     C18276   7.903   9.384   3.272 -0.7062  0.0959  0.8970
  877MOL0     N18277   7.768   9.340   3.307  0.9486  0.1509  0.2892
  877MOL0     C18278   7.665   9.415   3.379  0.1931  0.7898 -0.1528
  877MOL0     C18279   7.558   9.335   3.393  1.4524  0.5674  0.2101
  877MOL0     C18280   7.430   9.355   3.484  0.1632  0.5366  0.0135
  877MOL0     C18281   7.319   9.244   3.470  0.0840 -0.5281 -0.3531
  877MOL0     C18282   7.191   9.286   3.554  0.5872 -0.3419  0.3703
  877MOL0     C18283   7.115   9.154   3.599  1.3635 -0.3387 -0.1863
  877MOL0     O18284   7.019   9.127   3.494 -0.2302 -0.7729  0.5168
  877MOL0     C18285   6.925   9.031   3.506  0.6180  0.5492  0.0378
  877MOL0     C18286   6.941   8.922   3.584 -0.0300  0.1040  0.0699
  877MOL0     C18287   6.833   8.836   3.602  0.3265 -0.2285  0.5167
  877MOL0     C18288   6.717   8.855   3.530 -0.5769 -0.0567 -0.1590
  877MOL0     C18289   6.608   8.758   3.542 -0.2909  0.6846 -0.2544
  877MOL0     O18290   6.626   8.665   3.638  0.1690  0.6231  0.0010
  877MOL0     C18291   6.520   8.587   3.667  0.0504  0.7169 -0.6298
  877MOL0     C18292   6.541   8.455   3.684 -0.4963  0.5491  0.0063
  877MOL0     C18293   6.445   8.378   3.745 -0.3153 -1.0271 -0.7899
  877MOL0     C18294   6.324   8.425   3.790  0.9885  0.0484  0.2028
  877MOL0     O18295   6.226   8.330   3.805  0.8343  0.0558 -0.1325
  877MOL0     C18296   6.168   8.321   3.931  0.2986 -0.0880 -0.1332
  877MOL0     C18297   6.063   8.221   3.925  0.0069  0.8357  0.3761
  877MOL0     C18298   6.102   8.079   3.887 -0.6080 -1.0644  0.9825
  877MOL0     C18299   5.987   7.988   3.859 -0.1377  0.9897 -0.1152
  877MOL0     C18300   6.040   7.841   3.871  0.0144  0.6807  0.0802
  877MOL0     C18301   5.973   7.761   3.757  0.3172 -0.2657 -0.3435
  877MOL0     C18302   6.040   7.620   3.749  0.0962 -0.0217 -0.2702
  877MOL0     C18303   5.987   7.543   3.634 -0.4405  0.5597 -0.0492
  877MOL0    Cl18304   5.845   7.453   3.668  0.0736 -0.3873  0.2553
  877MOL0     C18305   6.306   8.560   3.783 -0.6449 -0.8374 -0.6002
  877MOL0     C18306   6.404   8.647   3.729  0.2382 -0.0418  0.1198
  877MOL0     O18307   6.507   8.769   3.477 -0.6344 -0.6189 -0.2268
  877MOL0     C18308   6.701   8.965   3.438  0.7812  0.1291  0.5917
  877MOL0     C18309   6.811   9.046   3.422  0.0276  0.2209 -0.2865
  877MOL0     N18310   7.596   9.224   3.314  0.6772 -0.6084  0.3099
  877MOL0     N18311   7.721   9.220   3.279  0.0223  0.7552 -0.2403
  877MOL0     C18312   8.365   9.543   3.342  0.1198  0.5916 -0.2766
  877MOL0     C18313   8.383   9.660   3.266  0.3202  1.0467  0.0659
  877MOL0     C18314   8.412   9.897   2.860 -0.0453  0.8220 -0.2096
  877MOL0     C18315   8.468   9.872   2.734  0.4976 -0.2067  0.4221
  877MOL0     C18316   8.508   9.969   2.644  0.1633  0.0141 -0.2640
  877MOL0     C18317   8.506  10.104   2.687 -0.3722 -0.2103 -0.2842
  877MOL0     O18318   8.559  10.194   2.602 -0.7022 -0.0553  0.1876
  877MOL0     C18319   8.584  10.333   2.646 -0.2372 -0.1819 -1.3009
  877MOL0     C18320   8.673  10.400   2.547  1.0954  0.3052  0.4185
  877MOL0     C18321   8.800  10.331   2.514  1.1225 -0.7388  0.3762
  877MOL0     C18322   8.896  10.306   2.625 -0.2755  0.1360  0.8050
  877MOL0     C18323   9.040  10.313   2.585 -0.1687 -0.1370 -0.2784
  877MOL0     C18324   9.148  10.329   2.531 -0.0857  0.3094  0.3438
  877MOL0     C18325   8.465  10.135   2.816  0.6503 -1.0109 -0.6130
  877MOL0     C18326   8.412  10.030   2.900  0.0469 -0.5763 -0.3473
  877MOL0     C18327   8.359  10.071   3.035 -1.2005  0.0670  0.6333
  877MOL0     H18328   8.558   9.539   3.003  2.2708 -1.7403  3.2100
  877MOL0     H18329   8.523   9.329   3.120  4.2480  1.8872 -0.5411
  877MOL0     H18330   8.530   9.167   3.446  3.7590  1.9735  0.6034
  877MOL0     H18331   8.581   9.334   3.435 -1.7259  1.1387 -5.1191
  877MOL0     H18332   8.407   9.390   3.621  2.8093  2.4371 -3.3240
  877MOL0     H18333   8.536   9.285   3.667 -2.1105 -0.5491  1.0906
  877MOL0     H18334   8.315   9.217   3.758 -0.2994  0.4053 -0.0019
  877MOL0     H18335   8.372   9.097   3.643  1.1941  0.6462  1.6296
  877MOL0     H18336   8.214   9.203   3.476 -1.2336  2.2082 -0.1530
  877MOL0     H18337   8.141   9.122   3.625  0.0542 -1.8341 -1.7348
  877MOL0     H18338   8.102   9.355   3.708 -1.3258 -2.1325 -0.2582
  877MOL0     H18339   8.185   9.413   3.570  1.7221 -0.9844  1.9911
  877MOL0     H18340   7.920   9.253   3.558 -0.4849 -0.5233  1.9760
  877MOL0     H18341   7.927   9.429   3.537  1.1936  0.5357 -0.9250
  877MOL0     H18342   8.019   9.221   3.339  1.2918 -0.2061  3.2880
  877MOL0     H18343   8.103   9.375   3.356 -0.0165  1.9157  2.6766
  877MOL0     H18344   7.908   9.492   3.285  2.8971  0.2716 -0.7556
  877MOL0     H18345   7.942   9.373   3.170  5.5325  1.3333  2.7480
  877MOL0     H18346   7.680   9.509   3.431  1.9427 -0.3929  1.6241
  877MOL0     H18347   7.466   9.357   3.587  0.2411  1.3716 -0.0191
  877MOL0     H18348   7.385   9.452   3.458  0.3677  0.4609 -0.6354
  877MOL0     H18349   7.298   9.231   3.364  1.2266 -2.3683 -0.3913
  877MOL0     H18350   7.357   9.148   3.505 -1.6107 -0.8981  0.6318
  877MOL0     H18351   7.127   9.359   3.504  0.5963 -1.6408 -1.6845
  877MOL0     H18352   7.225   9.337   3.645  0.4663  1.8691 -0.7585
  877MOL0     H18353   7.068   9.171   3.696  4.0810 -1.3565  1.4124
  877MOL0     H18354   7.181   9.068   3.611  3.6582  1.4362  0.5565
  877MOL0     H18355   7.025   8.919   3.653  0.3329 -1.2480 -0.4111
  877MOL0     H18356   6.851   8.758   3.675 -1.3325 -1.3939 -0.2595
  877MOL0     H18357   6.630   8.411   3.639  1.5920  0.9951  3.3782
  877MOL0     H18358   6.470   8.274   3.766  2.0665 -0.9150 -2.7033
  877MOL0     H18359   6.246   8.298   4.004  1.7688 -0.5702 -1.7899
  877MOL0     H18360   6.114   8.414   3.951 -0.4572 -1.0458  2.7456
  877MOL0     H18361   6.016   8.214   4.023 -1.6012 -1.7760 -0.4864
  877MOL0     H18362   5.979   8.242   3.858 -1.8709 -1.3336  1.9058
  877MOL0     H18363   6.172   8.086   3.803 -1.5654  2.2341  0.3128
  877MOL0     H18364   6.156   8.027   3.967 -0.7835 -1.5073  0.8142
  877MOL0     H18365   5.952   7.999   3.756 -0.9045 -1.4368 -0.1789
  877MOL0     H18366   5.909   8.018   3.930  1.6127  0.3761  2.2072
  877MOL0     H18367   6.032   7.795   3.970  4.9286 -1.5010 -0.2306
  877MOL0     H18368   6.146   7.848   3.844 -0.2077 -2.1200 -1.9036
  877MOL0     H18369   5.864   7.762   3.767  0.4940  1.6204  2.3806
  877MOL0     H18370   5.992   7.805   3.659  1.4176 -2.1112 -1.0228
  877MOL0     H18371   6.019   7.562   3.840 -0.2667  1.6725  0.7960
  877MOL0     H18372   6.148   7.627   3.733  0.1063 -0.3007 -0.3247
  877MOL0     H18373   5.961   7.606   3.547 -4.1631 -2.8360 -1.7091
  877MOL0     H18374   6.066   7.469   3.615 -0.5831 -0.2669  2.2662
  877MOL0     H18375   6.209   8.602   3.807 -1.4921 -3.8704  1.7725
  877MOL0     H18376   6.403   8.756   3.727  0.3423  0.0643  2.8680
  877MOL0     H18377   6.607   8.980   3.387  0.1732 -1.2313  1.2505
  877MOL0     H18378   6.806   9.138   3.363 -1.2090  1.9741  2.3778
  877MOL0     H18379   8.317   9.566   3.437  2.5341  0.2712  1.0924
  877MOL0     H18380   8.361   9.755   3.314 -2.3777  1.4871 -1.8388
  877MOL0     H18381   8.473   9.770   2.697  5.0686 -0.0025  0.0051
  877MOL0     H18382   8.532   9.943   2.541 -2.2687 -1.2226 -0.5812
  877MOL0     H18383   8.633  10.337   2.744  3.0554  0.3053 -2.8381
  877MOL0     H18384   8.487  10.384   2.651  0.6471  1.4156  1.5230
  877MOL0     H18385   8.700  10.498   2.588  2.4309  0.2078 -0.1617
  877MOL0     H18386   8.622  10.417   2.452  1.6897  2.7481  0.4620
  877MOL0     H18387   8.853  10.388   2.437  0.2573  1.0258  1.0148
  877MOL0     H18388   8.772  10.241   2.459 -0.4269  0.4619 -0.8874
  877MOL0     H18389   8.883  10.382   2.704 -0.1586 -1.5056  2.4774
  877MOL0     H18390   8.874  10.214   2.680  3.4747 -1.6200 -0.3284
  877MOL0     H18391   9.242  10.353   2.486  1.2072 -0.5746  2.3882
  877MOL0     H18392   8.454  10.238   2.846  0.3905 -0.9099 -1.0519
  877MOL0     H18393   8.342  10.179   3.044 -0.6237  0.4815 -2.2489
  877MOL0     H18394   8.262  10.023   3.042 -0.8988 -0.3231  2.6188
  877MOL0     H18395   8.428  10.033   3.111  2.6791  2.2664 -1.4250
  878MOL0     O18396   2.502   4.624   5.930  0.1527  0.8838 -0.5803
  878MOL0     C18397   2.424   4.688   5.852  0.0146 -0.2491 -0.1248
  878MOL0     O18398   2.432   4.689   5.717 -0.3503  1.3291  0.6023
  878MOL0     C18399   2.536   4.629   5.651  0.7187  0.9166  0.2022
  878MOL0     C18400   2.492   4.539   5.555  0.0863 -0.4393  0.9203
  878MOL0     C18401   2.583   4.485   5.460 -0.5284 -0.1514  1.0682
  878MOL0     C18402   2.718   4.532   5.470 -1.3477  0.3246  0.0904
  878MOL0     O18403   2.825   4.506   5.382  0.1709 -0.1261  0.0604
  878MOL0     C18404   2.795   4.469   5.252 -0.0014  0.7247  0.6986
  878MOL0     C18405   2.918   4.474   5.164 -0.4864  0.0748  0.1580
  878MOL0     C18406   3.020   4.368   5.215  1.0944  0.3976 -0.0835
  878MOL0     C18407   3.152   4.349   5.138 -0.4442 -0.3292  0.0374
  878MOL0     C18408   3.219   4.212   5.160 -0.1014  0.8972 -0.4150
  878MOL0     C18409   3.252   4.208   5.314  0.3271 -0.5362  0.2755
  878MOL0     C18410   3.384   4.139   5.360 -0.5096 -0.1683 -0.2026
  878MOL0     C18411   3.377   4.117   5.509  0.4237 -0.4785 -0.1180
  878MOL0     N18412   3.501   4.058   5.563  0.4241 -0.3173 -0.1341
  878MOL0     C18413   3.523   3.935   5.627 -0.3994 -0.9754 -0.0369
  878MOL0     C18414   3.644   3.941   5.684 -0.5830 -0.1209 -0.5088
  878MOL0     C18415   3.705   3.833   5.767 -1.5096  1.2732  0.4186
  878MOL0     C18416   3.803   3.883   5.874 -0.3057 -0.1194  0.4273
  878MOL0     C18417   3.903   3.773   5.892  0.5675 -0.1327  0.4252
  878MOL0     C18418   3.985   3.799   6.015  0.2889  0.2662 -1.1651
  878MOL0     O18419   4.039   3.930   6.026 -0.4740 -0.1579  0.0687
  878MOL0     C18420   4.171   3.935   6.021 -0.1011  0.4657  1.1864
  878MOL0     C18421   4.223   4.005   5.915 -1.1761 -0.9162  0.3745
  878MOL0     C18422   4.370   4.000   5.898  0.0655 -0.2351 -0.7373
  878MOL0     C18423   4.447   3.921   5.992 -0.2548 -0.0319  0.1733
  878MOL0     C18424   4.591   3.919   5.972  0.4713 -0.3607 -0.1684
  878MOL0     O18425   4.669   3.864   6.066  0.3356  0.1853 -0.5388
  878MOL0     C18426   4.802   3.851   6.044 -1.1427  0.1694  0.6273
  878MOL0     C18427   4.895   3.873   6.155 -0.3327  1.1168  0.1238
  878MOL0     C18428   5.035   3.856   6.133  0.6088 -0.7400 -0.6998
  878MOL0     C18429   5.093   3.826   6.011  1.1481  0.0445 -0.3586
  878MOL0     O18430   5.233   3.816   6.000  0.2137  0.2627  0.0680
  878MOL0     C18431   5.300   3.789   5.875  0.8971  0.6110 -0.4486
  878MOL0     C18432   5.435   3.851   5.864  0.1669  0.2112  0.0311
  878MOL0     C18433   5.488   3.877   5.722  1.2983 -0.0252 -0.1245
  878MOL0     C18434   5.480   4.020   5.661  0.6929 -0.1448 -0.0548
  878MOL0     C18435   5.354   4.097   5.707 -0.5696 -0.0271 -0.4104
  878MOL0     C18436   5.327   4.238   5.641 -0.2853  1.3519 -0.5845
  878MOL0     C18437   5.430   4.343   5.670  0.5273 -0.0747 -0.6133
  878MOL0     C18438   5.468   4.432   5.556  0.0313  0.0856 -0.1617
  878MOL0    Cl18439   5.334   4.531   5.495  0.2549  0.4164 -0.4158
  878MOL0     C18440   4.997   3.788   5.910  0.5275  0.1683 -1.1172
  878MOL0     C18441   4.864   3.806   5.917 -0.3776 -0.7633  0.3754
  878MOL0     O18442   4.637   3.973   5.870 -0.0785  0.4676  0.6975
  878MOL0     C18443   4.387   3.841   6.085 -0.1738  0.4960  0.1072
  878MOL0     C18444   4.247   3.854   6.107  0.4486  0.5464  0.7543
  878MOL0     N18445   3.707   4.058   5.644 -0.2793  0.9080  0.4065
  878MOL0     N18446   3.620   4.124   5.575 -0.0501  0.2807  1.0423
  878MOL0     C18447   2.762   4.615   5.581  0.1364  0.3302  0.1813
  878MOL0     C18448   2.669   4.655   5.671  0.0528 -0.4728 -0.4192
  878MOL0     C18449   2.331   4.784   5.919 -0.7608 -0.3531 -0.0860
  878MOL0     C18450   2.278   4.746   6.047  0.4874 -0.5250  0.3230
  878MOL0     C18451   2.186   4.827   6.113  0.7571  0.3186 -0.3938
  878MOL0     C18452   2.131   4.937   6.047 -1.4173 -1.3046  0.4739
  878MOL0     O18453   2.024   5.006   6.103 -0.3260  0.3775  0.2621
  878MOL0     C18454   2.053   5.054   6.241  0.2742  0.3143 -0.8643
  878MOL0     C18455   1.984   5.180   6.275 -0.6835 -0.0696  0.0271
  878MOL0     C18456   2.002   5.237   6.418  0.6827  0.1090  0.0415
  878MOL0     C18457   1.928   5.373   6.432 -0.4771 -0.3218  0.6976
  878MOL0     C18458   1.778   5.367   6.440 -0.4873 -0.4688  0.8100
  878MOL0     C18459   1.664   5.328   6.447  0.4097 -0.1730  1.1859
  878MOL0     C18460   2.177   4.974   5.919  0.2950 -0.1395  0.8068
  878MOL0     C18461   2.285   4.905   5.860  0.0923 -0.1854  0.1708
  878MOL0     C18462   2.343   4.965   5.729  0.3116  0.3612 -0.2564
  878MOL0     H18463   2.388   4.519   5.531  1.1216 -2.7234 -2.5128
  878MOL0     H18464   2.542   4.417   5.386  0.5645 -2.2207  2.2394
  878MOL0     H18465   2.769   4.363   5.254  2.5388  0.0307  0.3020
  878MOL0     H18466   2.718   4.533   5.208 -2.4335 -2.2715  0.2601
  878MOL0     H18467   2.971   4.570   5.171 -0.7747  0.1589  1.2861
  878MOL0     H18468   2.892   4.458   5.059  1.0733  0.6679 -0.3472
  878MOL0     H18469   2.966   4.273   5.222 -3.2947  2.6816  0.7853
  878MOL0     H18470   3.036   4.410   5.315 -0.7490  3.1666 -0.8166
  878MOL0     H18471   3.133   4.351   5.031  1.0493  0.5760 -0.2494
  878MOL0     H18472   3.223   4.430   5.161 -3.2530  1.2088  4.7557
  878MOL0     H18473   3.149   4.133   5.132 -1.6563  2.5810 -1.5297
  878MOL0     H18474   3.303   4.218   5.090 -1.2063 -0.6004 -1.9548
  878MOL0     H18475   3.256   4.303   5.367  0.7413 -0.8160  0.7640
  878MOL0     H18476   3.169   4.151   5.355  0.7781 -0.0287  1.9627
  878MOL0     H18477   3.473   4.196   5.335  0.9519 -2.1927  0.1171
  878MOL0     H18478   3.379   4.040   5.313  1.5417  0.7197 -2.4930
  878MOL0     H18479   3.382   4.219   5.550  3.9161 -1.9634  3.9385
  878MOL0     H18480   3.284   4.065   5.535  0.2202  0.4442  1.0999
  878MOL0     H18481   3.454   3.853   5.642 -0.4532 -1.1993 -1.3967
  878MOL0     H18482   3.626   3.770   5.809  0.1445 -1.2005  0.0369
  878MOL0     H18483   3.765   3.772   5.700 -1.1899 -1.5870  3.1092
  878MOL0     H18484   3.847   3.973   5.830 -1.5629  0.2074 -0.2011
  878MOL0     H18485   3.750   3.911   5.965  0.3795  0.9230  0.5174
  878MOL0     H18486   3.961   3.772   5.799  0.1197 -0.6807  0.1485
  878MOL0     H18487   3.853   3.677   5.899 -0.5168  0.3588 -0.2915
  878MOL0     H18488   4.061   3.722   6.034  0.5336  0.5643 -0.9196
  878MOL0     H18489   3.916   3.800   6.101 -0.7358  0.4028 -1.9699
  878MOL0     H18490   4.156   4.073   5.864  0.1210  1.1890  1.3362
  878MOL0     H18491   4.407   4.056   5.813 -0.9167 -1.3092 -1.8991
  878MOL0     H18492   4.873   3.904   6.257  1.8173  1.2856  0.5859
  878MOL0     H18493   5.101   3.891   6.212 -1.9189  3.2449 -0.0534
  878MOL0     H18494   5.312   3.680   5.867 -1.2014  0.3226 -0.2190
  878MOL0     H18495   5.224   3.803   5.798 -1.6462 -2.8396  1.1734
  878MOL0     H18496   5.446   3.943   5.923 -1.7882  0.7044 -0.3285
  878MOL0     H18497   5.498   3.772   5.907  1.8967  1.5199  0.0132
  878MOL0     H18498   5.596   3.862   5.712  1.9029  3.4476  0.0317
  878MOL0     H18499   5.439   3.794   5.670 -3.8240  0.5428  3.0108
  878MOL0     H18500   5.503   4.012   5.554  1.7719  1.5507  0.0136
  878MOL0     H18501   5.570   4.064   5.705  1.9743 -2.6907  0.0531
  878MOL0     H18502   5.351   4.103   5.816  0.4475 -3.4766 -0.0731
  878MOL0     H18503   5.271   4.035   5.672 -1.5287  1.0353 -0.0443
  878MOL0     H18504   5.326   4.218   5.533  0.8740 -0.5605 -0.2966
  878MOL0     H18505   5.230   4.285   5.660 -0.9304  0.9123 -2.5475
  878MOL0     H18506   5.522   4.299   5.709  2.1790  3.3228 -0.3164
  878MOL0     H18507   5.394   4.402   5.755 -0.5213 -2.2575  0.5333
  878MOL0     H18508   5.551   4.495   5.591  0.1199  0.5708 -1.1823
  878MOL0     H18509   5.503   4.371   5.472 -0.4581  2.2105 -2.0300
  878MOL0     H18510   5.038   3.749   5.817  0.4704  1.9592 -1.9436
  878MOL0     H18511   4.800   3.780   5.833 -1.0571 -1.9125  1.2253
  878MOL0     H18512   4.447   3.775   6.147  0.3768  0.9375  0.0521
  878MOL0     H18513   4.195   3.807   6.190 -0.5495 -0.2364 -0.2959
  878MOL0     H18514   2.866   4.647   5.579  0.9027 -1.9965 -1.4735
  878MOL0     H18515   2.701   4.709   5.759  0.3072  1.4128 -1.6056
  878MOL0     H18516   2.315   4.660   6.102  1.7373  0.3014  0.8303
  878MOL0     H18517   2.147   4.790   6.207  1.3647  1.8264  0.4854
  878MOL0     H18518   2.159   5.080   6.249 -0.0564  1.4991 -0.1443
  878MOL0     H18519   2.030   4.981   6.319  0.7097  0.6016 -0.4608
  878MOL0     H18520   1.880   5.157   6.251 -1.6310  3.5981  0.0411
  878MOL0     H18521   2.022   5.257   6.208 -1.7437  1.1933  0.8130
  878MOL0     H18522   2.108   5.253   6.440  0.4645 -0.6156  1.7587
  878MOL0     H18523   1.974   5.160   6.491 -0.9393 -1.4960 -2.1334
  878MOL0     H18524   1.970   5.433   6.513  1.7367  2.6425 -2.3630
  878MOL0     H18525   1.953   5.429   6.341 -0.1715  0.1518  1.0687
  878MOL0     H18526   1.558   5.312   6.456  0.1451  0.6824 -0.1063
  878MOL0     H18527   2.133   5.064   5.878 -1.4562 -1.0313  0.6469
  878MOL0     H18528   2.308   4.906   5.643 -0.1737 -4.2907  2.7508
  878MOL0     H18529   2.315   5.070   5.719  0.2123  0.2342 -1.4949
  878MOL0     H18530   2.452   4.964   5.738  0.1203 -0.7382  3.1656
  879MOL0     O18531   0.053   0.620   2.900  0.2822 -0.4215  0.4832
  879MOL0     C18532  -0.059   0.597   2.937  0.5702 -0.1460 -0.5808
  879MOL0     O18533  -0.172   0.650   2.885 -0.6919  0.0520  0.0367
  879MOL0     C18534  -0.185   0.786   2.871  0.5774  0.5183 -0.2425
  879MOL0     C18535  -0.199   0.834   2.741  1.1349 -0.3971 -0.6155
  879MOL0     C18536  -0.252   0.963   2.718 -0.0022 -0.8612 -1.3155
  879MOL0     C18537  -0.271   1.051   2.825 -0.5443 -0.1769  0.1004
  879MOL0     O18538  -0.311   1.186   2.805  0.1688 -0.3557 -0.7401
  879MOL0     C18539  -0.369   1.263   2.919 -1.0170 -0.3195 -0.2656
  879MOL0     C18540  -0.510   1.209   2.975 -0.0399 -0.1600  0.7461
  879MOL0     C18541  -0.537   1.268   3.121  0.0345 -0.4305  0.2243
  879MOL0     C18542  -0.427   1.241   3.226 -0.2394 -0.5971 -0.5526
  879MOL0     C18543  -0.462   1.259   3.369  0.2804  1.6348  0.0247
  879MOL0     C18544  -0.591   1.174   3.412  0.1195 -0.0597 -1.2043
  879MOL0     C18545  -0.565   1.023   3.418  0.3876  0.7581 -0.2056
  879MOL0     C18546  -0.624   0.947   3.296  0.1252  0.4626 -1.1167
  879MOL0     N18547  -0.635   0.807   3.336  0.3699  0.0936 -0.3726
  879MOL0     C18548  -0.554   0.701   3.331  0.2902 -0.1317  0.7991
  879MOL0     C18549  -0.608   0.596   3.382  0.0691 -0.1305 -0.3074
  879MOL0     C18550  -0.559   0.459   3.371 -0.5906 -0.6371  0.3855
  879MOL0     C18551  -0.428   0.428   3.457  0.2798  0.5776 -0.0238
  879MOL0     C18552  -0.469   0.366   3.593 -0.6161 -1.0359 -0.1043
  879MOL0     C18553  -0.470   0.211   3.591  0.6876 -0.1489 -0.7294
  879MOL0     O18554  -0.455   0.163   3.729 -0.2544 -0.0078  0.2539
  879MOL0     C18555  -0.546   0.207   3.821 -0.0716  0.9346  0.7272
  879MOL0     C18556  -0.494   0.203   3.952 -0.3725 -0.2673  0.5583
  879MOL0     C18557  -0.579   0.238   4.051  0.1152 -0.6524  0.0166
  879MOL0     C18558  -0.708   0.284   4.037  0.1753  0.4867  0.4138
  879MOL0     C18559  -0.792   0.328   4.165  0.5748  0.0020 -0.0698
  879MOL0     O18560  -0.932   0.331   4.150 -0.0827 -0.4300  0.4332
  879MOL0     C18561  -1.003   0.408   4.234  0.1426 -0.3086 -0.4105
  879MOL0     C18562  -1.084   0.351   4.336 -0.4027 -0.2756  0.0435
  879MOL0     C18563  -1.169   0.431   4.412  0.0059 -0.4803 -0.2811
  879MOL0     C18564  -1.163   0.565   4.391  0.2448 -1.0986 -0.4540
  879MOL0     O18565  -1.245   0.653   4.454 -0.0806  0.9600  0.1210
  879MOL0     C18566  -1.386   0.609   4.448  0.1947 -0.0401 -0.6284
  879MOL0     C18567  -1.454   0.720   4.534 -0.6559 -0.4033 -0.4608
  879MOL0     C18568  -1.608   0.703   4.554 -0.2004  0.0975 -0.4546
  879MOL0     C18569  -1.641   0.565   4.605  0.6267  0.8689 -0.1275
  879MOL0     C18570  -1.782   0.556   4.659 -0.1749  0.3173 -0.2266
  879MOL0     C18571  -1.886   0.551   4.555 -0.1750 -0.3271 -0.5012
  879MOL0     C18572  -2.008   0.623   4.617  0.0468 -0.7274 -1.0710
  879MOL0     C18573  -2.135   0.599   4.545 -0.3987 -0.1760  0.6139
  879MOL0    Cl18574  -2.242   0.731   4.604 -0.1068  0.2657  0.0924
  879MOL0     C18575  -1.085   0.625   4.302 -0.0321 -0.0518  0.3293
  879MOL0     C18576  -1.001   0.545   4.223  0.4118 -0.2720  1.0742
  879MOL0     O18577  -0.735   0.357   4.267 -0.4267 -0.2088  0.8505
  879MOL0     C18578  -0.760   0.290   3.910 -0.0392  0.4448 -0.3610
  879MOL0     C18579  -0.680   0.247   3.800  0.3524 -0.0936  0.6593
  879MOL0     N18580  -0.739   0.632   3.419  0.1296 -0.4933 -0.6480
  879MOL0     N18581  -0.750   0.758   3.387  0.7391  0.8537 -0.5016
  879MOL0     C18582  -0.228   1.017   2.956  0.0098  0.0175 -1.2030
  879MOL0     C18583  -0.192   0.880   2.980  0.6164 -0.5432  1.3350
  879MOL0     C18584  -0.077   0.483   3.038 -0.3634 -0.7279 -0.4641
  879MOL0     C18585  -0.208   0.429   3.056 -0.5600 -0.1973 -0.1468
  879MOL0     C18586  -0.229   0.328   3.146 -0.3744 -0.1130 -0.9666
  879MOL0     C18587  -0.123   0.265   3.207 -0.5736  0.1690  0.0296
  879MOL0     O18588  -0.158   0.150   3.271 -0.2239  1.0080 -0.2341
  879MOL0     C18589  -0.055   0.069   3.321 -0.0512 -0.3060  0.5685
  879MOL0     C18590  -0.112  -0.039   3.406 -0.6114 -0.1844  0.5228
  879MOL0     C18591  -0.155   0.000   3.540 -0.1947 -0.2618 -0.1137
  879MOL0     C18592  -0.259  -0.095   3.593  0.7258  0.4334 -0.2223
  879MOL0     C18593  -0.222  -0.232   3.622  0.3555  0.8141  0.6798
  879MOL0     C18594  -0.209  -0.352   3.605  0.0394  0.6213 -0.0805
  879MOL0     C18595   0.003   0.318   3.193 -0.3045  0.5946  0.1747
  879MOL0     C18596   0.029   0.423   3.108  0.7694 -0.2520 -0.6648
  879MOL0     C18597   0.171   0.476   3.114 -0.0269  0.1101 -0.5514
  879MOL0     H18598  -0.190   0.765   2.658  1.6360 -1.1849  0.0791
  879MOL0     H18599  -0.284   0.996   2.620 -2.6828  1.8253  0.2741
  879MOL0     H18600  -0.291   1.277   2.995 -0.3748  2.0069 -1.2677
  879MOL0     H18601  -0.379   1.357   2.864  0.1886 -0.0887 -0.1256
  879MOL0     H18602  -0.508   1.100   2.965  2.2432 -0.1874  1.0339
  879MOL0     H18603  -0.588   1.239   2.904  0.6934 -0.5881 -0.2707
  879MOL0     H18604  -0.627   1.220   3.159  0.6372 -0.8532  1.1331
  879MOL0     H18605  -0.547   1.377   3.120  3.5618  0.0447  1.9854
  879MOL0     H18606  -0.398   1.140   3.198 -3.5783 -1.1583 -2.5831
  879MOL0     H18607  -0.343   1.305   3.199 -0.9308 -0.1186 -1.6541
  879MOL0     H18608  -0.381   1.227   3.436  0.7324  1.7015 -0.4892
  879MOL0     H18609  -0.484   1.364   3.389 -0.2486  1.3824  0.8275
  879MOL0     H18610  -0.609   1.201   3.516  1.4274 -0.5022 -0.8453
  879MOL0     H18611  -0.679   1.210   3.357  1.1338  1.9267 -1.6319
  879MOL0     H18612  -0.614   0.991   3.510 -0.4833  1.0107 -0.5655
  879MOL0     H18613  -0.459   1.000   3.433 -0.0103  0.1219  1.8143
  879MOL0     H18614  -0.726   0.978   3.273 -1.3184 -2.8307  0.1855
  879MOL0     H18615  -0.561   0.951   3.206 -0.1585 -3.5689 -1.7159
  879MOL0     H18616  -0.455   0.703   3.287  0.8189  2.1828  1.9482
  879MOL0     H18617  -0.635   0.384   3.398 -1.0060  0.3204  2.0239
  879MOL0     H18618  -0.530   0.434   3.268  1.0787  1.1748  0.3687
  879MOL0     H18619  -0.355   0.365   3.404 -0.9517  0.1443 -1.2634
  879MOL0     H18620  -0.386   0.527   3.475  0.2207  0.5113  0.5026
  879MOL0     H18621  -0.564   0.401   3.635 -0.4755 -2.1757  1.2224
  879MOL0     H18622  -0.399   0.406   3.668 -0.4956 -2.5783  0.6409
  879MOL0     H18623  -0.381   0.168   3.545  1.1733  1.3623 -1.2570
  879MOL0     H18624  -0.562   0.177   3.543  0.1591 -0.8439  0.6924
  879MOL0     H18625  -0.391   0.180   3.979  1.1127  2.4095 -2.2164
  879MOL0     H18626  -0.547   0.237   4.155 -3.9054 -0.8360  1.4264
  879MOL0     H18627  -1.098   0.243   4.339  2.3375 -0.6811  2.0459
  879MOL0     H18628  -1.240   0.375   4.472  2.1276 -4.0532 -0.8735
  879MOL0     H18629  -1.429   0.608   4.348  1.0356 -1.6400 -1.0049
  879MOL0     H18630  -1.409   0.512   4.493 -2.4023  0.2192 -1.2074
  879MOL0     H18631  -1.416   0.718   4.637 -1.9327 -0.2813  0.0330
  879MOL0     H18632  -1.424   0.816   4.493 -1.8622 -0.4045 -1.4100
  879MOL0     H18633  -1.652   0.775   4.625 -0.6107  0.6651 -1.2619
  879MOL0     H18634  -1.653   0.728   4.458  2.1240  1.9211 -1.1721
  879MOL0     H18635  -1.574   0.564   4.691  1.4004  5.1208 -0.4278
  879MOL0     H18636  -1.628   0.480   4.537 -3.3903  0.7712 -1.0318
  879MOL0     H18637  -1.792   0.644   4.724  0.1308  0.1269  0.0778
  879MOL0     H18638  -1.792   0.466   4.720 -6.0180 -0.2160 -1.3581
  879MOL0     H18639  -1.848   0.603   4.467 -0.7566 -1.0763 -1.2079
  879MOL0     H18640  -1.913   0.451   4.520 -0.4153  0.6870 -3.4305
  879MOL0     H18641  -1.988   0.731   4.623 -0.5679 -0.6264 -0.7996
  879MOL0     H18642  -2.014   0.579   4.717  0.8930  0.2367 -0.5759
  879MOL0     H18643  -2.119   0.619   4.439  1.9526 -0.0745  0.9223
  879MOL0     H18644  -2.177   0.499   4.557 -0.4084 -0.4873 -1.6681
  879MOL0     H18645  -1.092   0.732   4.282 -3.9934 -0.2617 -0.2700
  879MOL0     H18646  -0.926   0.596   4.166 -0.1977 -1.3494 -0.7701
  879MOL0     H18647  -0.864   0.319   3.897 -0.0362 -0.0805 -1.7725
  879MOL0     H18648  -0.722   0.237   3.700  0.5127 -0.9490  0.6729
  879MOL0     H18649  -0.240   1.076   3.046 -0.1872 -2.2884  0.3862
  879MOL0     H18650  -0.168   0.847   3.081 -3.5730 -0.3701  2.5690
  879MOL0     H18651  -0.281   0.455   2.979 -0.1579 -1.1082 -0.8484
  879MOL0     H18652  -0.324   0.277   3.149  0.2550 -1.3056 -0.4880
  879MOL0     H18653   0.016   0.130   3.377  1.9871 -1.6439 -0.4301
  879MOL0     H18654  -0.004   0.030   3.232  1.4243  3.0151 -0.1811
  879MOL0     H18655  -0.029  -0.110   3.415  2.1547  2.7676  0.1809
  879MOL0     H18656  -0.190  -0.089   3.348  0.7501 -0.5870 -1.0125
  879MOL0     H18657  -0.198   0.101   3.538  0.2721 -0.0619 -1.5059
  879MOL0     H18658  -0.074   0.001   3.613  0.7372  1.8683 -1.0853
  879MOL0     H18659  -0.310  -0.065   3.685 -0.8742  0.1074 -0.9821
  879MOL0     H18660  -0.336  -0.102   3.517  0.4139  3.4700 -0.2870
  879MOL0     H18661  -0.198  -0.459   3.601 -0.7814  0.5591 -1.6399
  879MOL0     H18662   0.089   0.270   3.238  1.3255  0.5819 -2.6618
  879MOL0     H18663   0.213   0.434   3.205 -5.9602 -4.9128  0.5305
  879MOL0     H18664   0.233   0.434   3.034  1.9344  1.4990  0.1602
  879MOL0     H18665   0.179   0.585   3.105 -0.5847  0.1497 -0.5802
  880MOL0     O18666  11.176  10.399   1.750  0.3188  0.1660 -0.0206
  880MOL0     C18667  11.168  10.442   1.863  0.4287  0.9340 -0.2670
  880MOL0     O18668  11.203  10.565   1.906  0.6956  0.2611  0.4745
  880MOL0     C18669  11.226  10.655   1.802 -0.0468  0.1521 -0.1888
  880MOL0     C18670  11.336  10.639   1.724  0.2662 -0.4171  0.6722
  880MOL0     C18671  11.356  10.721   1.624  0.4325 -1.1373  0.9469
  880MOL0     C18672  11.285  10.841   1.607 -0.2876  0.4480 -0.5098
  880MOL0     O18673  11.319  10.925   1.505  0.4244  0.4444 -0.1659
  880MOL0     C18674  11.256  11.051   1.518 -0.1026  0.1335 -0.1731
  880MOL0     C18675  11.292  11.132   1.394 -0.0409  1.2656  0.0955
  880MOL0     C18676  11.218  11.079   1.272 -0.3427 -0.1559 -0.1897
  880MOL0     C18677  11.252  11.158   1.150  0.2882  1.5285  0.1102
  880MOL0     C18678  11.204  11.085   1.027  0.0224 -0.6237  0.4027
  880MOL0     C18679  11.214  11.185   0.908 -0.4423 -0.7875 -0.4300
  880MOL0     C18680  11.172  11.115   0.775 -0.7345 -0.2709  0.5096
  880MOL0     C18681  11.267  11.009   0.731 -0.1228  0.5296  0.5029
  880MOL0     N18682  11.227  10.952   0.605 -1.0015  0.3698  0.1893
  880MOL0     C18683  11.233  11.003   0.471  0.3948 -1.1694 -0.6694
  880MOL0     C18684  11.144  10.934   0.405  0.8228  0.8370 -0.3898
  880MOL0     C18685  11.087  10.961   0.268  0.0954  0.1454  0.7567
  880MOL0     C18686  10.937  10.961   0.262  0.1609  0.4075 -0.4047
  880MOL0     C18687  10.873  11.074   0.339  0.1842 -0.2237 -0.7961
  880MOL0     C18688  10.724  11.076   0.315 -1.1229  0.3879  0.0086
  880MOL0     O18689  10.647  10.957   0.335 -0.0538  0.1766 -0.7913
  880MOL0     C18690  10.520  10.959   0.376 -0.0450  0.5233 -0.4165
  880MOL0     C18691  10.421  11.048   0.316  0.1349 -1.4200  0.4954
  880MOL0     C18692  10.290  11.050   0.358 -0.4970  0.4749  0.8636
  880MOL0     C18693  10.249  10.959   0.451 -1.2246  0.0443  0.6416
  880MOL0     C18694  10.107  10.944   0.480 -0.8727 -0.4351  0.2053
  880MOL0     O18695  10.074  10.828   0.544 -0.1941 -0.0411  0.0480
  880MOL0     C18696   9.967  10.751   0.508 -0.0090 -0.7800  0.7388
  880MOL0     C18697   9.908  10.754   0.375  0.1210  1.3129 -0.5508
  880MOL0     C18698   9.814  10.647   0.338 -0.5967 -0.4730  0.9249
  880MOL0     C18699   9.791  10.551   0.432  0.2444  0.1517 -0.6990
  880MOL0     O18700   9.730  10.430   0.411 -0.0745 -0.0623  0.1384
  880MOL0     C18701   9.783  10.352   0.307  0.4412  0.3448  0.9512
  880MOL0     C18702   9.697  10.231   0.271 -0.5467  0.9750  0.2726
  880MOL0     C18703   9.706  10.130   0.384 -0.0399  0.0192  0.2874
  880MOL0     C18704   9.819  10.037   0.360 -0.1655  0.4136  0.0636
  880MOL0     C18705   9.863   9.964   0.487  0.3669 -0.5383 -0.1244
  880MOL0     C18706   9.755   9.873   0.544 -0.2618 -0.9277 -0.2543
  880MOL0     C18707   9.709   9.928   0.682 -0.8551  1.2156  0.1125
  880MOL0     C18708   9.615   9.845   0.761  0.4513  1.1262 -0.7263
  880MOL0    Cl18709   9.452   9.824   0.673 -0.1324  0.2144  0.1515
  880MOL0     C18710   9.840  10.556   0.557 -1.3129 -0.4257 -0.5734
  880MOL0     C18711   9.934  10.657   0.597  0.1977 -0.3220 -0.1724
  880MOL0     O18712  10.031  11.010   0.408  0.0506  0.7934  0.5868
  880MOL0     C18713  10.347  10.863   0.505  0.3852 -0.1373  0.6301
  880MOL0     C18714  10.474  10.857   0.454 -0.3274 -1.6995 -1.1818
  880MOL0     N18715  11.122  10.823   0.484  0.2265 -0.1449  0.0834
  880MOL0     N18716  11.171  10.828   0.601 -0.2218 -0.2256  0.1140
  880MOL0     C18717  11.160  10.850   1.680  0.0637  0.0680  0.1346
  880MOL0     C18718  11.139  10.760   1.778  0.5480  0.3580  1.1881
  880MOL0     C18719  11.113  10.356   1.968  0.3387  0.1890 -0.5977
  880MOL0     C18720  11.045  10.406   2.076 -0.1989 -0.8269 -0.2903
  880MOL0     C18721  11.013  10.336   2.194  1.1879  0.4979  0.1511
  880MOL0     C18722  11.055  10.205   2.204 -0.3574 -1.0140  0.5860
  880MOL0     O18723  11.065  10.136   2.325  0.4690  0.4240 -0.2791
  880MOL0     C18724  11.048  10.196   2.448  0.3454  0.7033  0.4243
  880MOL0     C18725  10.911  10.157   2.512  0.2177  0.2736  0.7012
  880MOL0     C18726  10.903  10.211   2.659  0.8818  0.0478 -1.1975
  880MOL0     C18727  10.765  10.212   2.713  0.6442 -0.0207  0.2201
  880MOL0     C18728  10.710  10.078   2.725  0.8330 -0.2301 -0.0705
  880MOL0     C18729  10.677   9.965   2.762 -0.3503 -0.4089 -0.0411
  880MOL0     C18730  11.094  10.140   2.082 -0.0835 -0.3362  0.0036
  880MOL0     C18731  11.128  10.218   1.965  1.0603 -0.3681 -0.0052
  880MOL0     C18732  11.199  10.134   1.859 -0.2837 -0.8806  0.4410
  880MOL0     H18733  11.399  10.553   1.743  3.9199  2.4563  2.9617
  880MOL0     H18734  11.429  10.693   1.548 -1.2217 -2.4142 -0.2369
  880MOL0     H18735  11.147  11.044   1.518 -0.0602 -0.9379  1.4338
  880MOL0     H18736  11.280  11.105   1.610 -2.4428 -1.9732  1.8220
  880MOL0     H18737  11.400  11.127   1.379  0.2829  2.8937  1.6229
  880MOL0     H18738  11.260  11.233   1.421 -2.1945  1.3364 -2.3133
  880MOL0     H18739  11.112  11.069   1.293  0.0471 -0.4586  1.8194
  880MOL0     H18740  11.262  10.978   1.270 -0.1741 -0.1215  1.1427
  880MOL0     H18741  11.203  11.255   1.164 -0.2198  1.3287 -0.2739
  880MOL0     H18742  11.361  11.171   1.149  0.4054  0.5648 -0.4946
  880MOL0     H18743  11.271  11.000   1.012  0.8615 -0.0366  0.7456
  880MOL0     H18744  11.108  11.034   1.035 -0.3735 -0.8913 -3.7231
  880MOL0     H18745  11.141  11.264   0.925  0.5886  0.3484 -1.2005
  880MOL0     H18746  11.313  11.228   0.894  0.0249 -1.2240  1.3363
  880MOL0     H18747  11.149  11.190   0.698  2.0581  0.1775  0.0124
  880MOL0     H18748  11.075  11.066   0.790 -1.7647  1.4514 -0.1732
  880MOL0     H18749  11.367  11.046   0.707  2.0445 -5.4562 -1.7380
  880MOL0     H18750  11.277  10.932   0.809  3.2936 -1.1576 -1.3627
  880MOL0     H18751  11.303  11.075   0.429  0.7098 -1.2273 -0.2478
  880MOL0     H18752  11.118  11.059   0.231 -0.1965  0.8836  2.3568
  880MOL0     H18753  11.138  10.893   0.199  2.0519  2.6027 -0.3435
  880MOL0     H18754  10.908  10.965   0.157 -1.0285 -4.9275 -0.5559
  880MOL0     H18755  10.908  10.864   0.304  1.5607 -0.1969 -0.7697
  880MOL0     H18756  10.914  11.172   0.311 -0.6783  0.6896  0.9308
  880MOL0     H18757  10.898  11.065   0.445  0.9686  0.3317 -0.9281
  880MOL0     H18758  10.716  11.101   0.208  0.1711 -0.9841 -0.4406
  880MOL0     H18759  10.673  11.157   0.367 -2.0716 -0.6450  0.7127
  880MOL0     H18760  10.451  11.127   0.249  1.6015 -1.0298  1.5476
  880MOL0     H18761  10.222  11.121   0.313 -1.8686 -0.9333  0.6334
  880MOL0     H18762   9.941  10.831   0.307 -1.0092  2.7059  0.4223
  880MOL0     H18763   9.775  10.652   0.237 -0.0485  3.4731  0.7130
  880MOL0     H18764   9.786  10.400   0.208  0.7195  2.4062  1.8876
  880MOL0     H18765   9.888  10.323   0.320  0.7722 -0.4060 -2.3792
  880MOL0     H18766   9.593  10.257   0.250 -0.3336 -0.5900 -3.5308
  880MOL0     H18767   9.739  10.184   0.182  1.2097  3.5817 -0.3960
  880MOL0     H18768   9.724  10.183   0.478  0.7605 -2.6337  1.7431
  880MOL0     H18769   9.611  10.076   0.392 -0.9826  1.5958  0.2054
  880MOL0     H18770   9.899  10.101   0.323 -3.5317  6.9695  2.5664
  880MOL0     H18771   9.781   9.962   0.289 -2.2781  1.0890  0.4169
  880MOL0     H18772   9.904  10.039   0.555  0.5285  0.6794 -1.5225
  880MOL0     H18773   9.952   9.905   0.461  0.1374 -0.9929  0.0960
  880MOL0     H18774   9.667   9.854   0.481 -0.4638 -1.9847  0.3294
  880MOL0     H18775   9.806   9.778   0.562  0.3111 -0.6040 -0.1210
  880MOL0     H18776   9.669  10.029   0.674 -0.4441  1.3557 -0.1973
  880MOL0     H18777   9.803   9.930   0.738 -1.8333  0.2985  1.8857
  880MOL0     H18778   9.645   9.742   0.783 -2.1116  0.8055  1.7905
  880MOL0     H18779   9.588   9.893   0.855  0.1752  2.0174 -1.2438
  880MOL0     H18780   9.820  10.471   0.622  0.4196  1.6464  2.9922
  880MOL0     H18781   9.990  10.649   0.690  0.5570 -1.9255 -0.4912
  880MOL0     H18782  10.314  10.778   0.566  0.4361 -0.6055  0.0138
  880MOL0     H18783  10.542  10.780   0.490  3.1671  2.7492  3.0114
  880MOL0     H18784  11.093  10.935   1.686 -0.1578 -0.0731 -0.3234
  880MOL0     H18785  11.049  10.775   1.836  0.9299  2.4593  1.3297
  880MOL0     H18786  11.025  10.512   2.070 -0.2718 -0.7488  1.1053
  880MOL0     H18787  10.946  10.382   2.265  0.4764  0.2344 -0.3344
  880MOL0     H18788  11.052  10.305   2.447 -2.7081  0.9138 -1.5954
  880MOL0     H18789  11.128  10.164   2.516  1.2090 -2.0790 -1.7081
  880MOL0     H18790  10.905  10.048   2.503  0.9772  0.2550  0.3301
  880MOL0     H18791  10.833  10.205   2.453 -0.5360 -2.6112 -0.8380
  880MOL0     H18792  10.943  10.313   2.664  2.7792 -0.7183  2.5201
  880MOL0     H18793  10.962  10.143   2.720  0.1696 -0.6028 -1.2230
  880MOL0     H18794  10.775  10.254   2.813  0.1764  0.4820  0.0607
  880MOL0     H18795  10.698  10.267   2.646  2.8672 -0.1500 -2.2832
  880MOL0     H18796  10.654   9.866   2.795 -2.1904 -0.3054 -0.9126
  880MOL0     H18797  11.115  10.034   2.088 -2.3898 -0.8797 -0.6155
  880MOL0     H18798  11.223  10.034   1.898 -0.6443 -0.0961  2.8334
  880MOL0     H18799  11.137  10.149   1.771  0.0827  3.9865  0.7246
  880MOL0     H18800  11.292  10.178   1.823 -1.9796 -0.0436 -3.3065
  881MOL0     O18801   1.598   9.213   8.894  0.2833  0.7457 -0.5820
  881MOL0     C18802   1.675   9.278   8.818 -0.8188 -0.5614  1.0193
  881MOL0     O18803   1.675   9.412   8.798  0.8479  0.2944 -0.0413
  881MOL0     C18804   1.580   9.474   8.870  0.4869 -0.3687 -0.1216
  881MOL0     C18805   1.465   9.519   8.798 -0.3536  0.3833 -0.1999
  881MOL0     C18806   1.367   9.587   8.867 -0.5350 -0.4497 -0.6660
  881MOL0     C18807   1.388   9.598   9.004 -0.8270  0.2546  0.2083
  881MOL0     O18808   1.277   9.644   9.066  1.0278  0.0026 -0.1695
  881MOL0     C18809   1.257   9.639   9.209  0.4624 -0.8392  1.3959
  881MOL0     C18810   1.106   9.657   9.236  0.3090 -0.4648 -1.0157
  881MOL0     C18811   1.048   9.803   9.225  0.3452  0.4298  0.2568
  881MOL0     C18812   1.115   9.895   9.117  0.5493 -0.4603  0.2408
  881MOL0     C18813   1.041  10.032   9.095  0.4027  0.2992  0.2398
  881MOL0     C18814   1.121  10.161   9.088  0.1251 -0.6277 -0.0684
  881MOL0     C18815   1.054  10.288   9.038 -0.3441 -0.1845  0.5299
  881MOL0     C18816   1.165  10.408   9.041 -0.5316  1.1139 -0.1061
  881MOL0     N18817   1.112  10.516   8.952 -0.3256 -0.5432 -0.8614
  881MOL0     C18818   1.190  10.580   8.863  0.1977 -0.5956 -0.3387
  881MOL0     C18819   1.121  10.694   8.847  0.8690  0.7876 -0.1910
  881MOL0     C18820   1.173  10.819   8.788  0.5276 -0.3671  0.5662
  881MOL0     C18821   1.219  10.810   8.644  0.3953 -0.7219  0.3964
  881MOL0     C18822   1.115  10.851   8.534 -0.4747 -0.3273  0.0976
  881MOL0     C18823   1.177  10.840   8.392 -0.3118 -0.8428  0.1315
  881MOL0     O18824   1.078  10.858   8.295 -0.0180  0.6467  0.8754
  881MOL0     C18825   1.108  10.917   8.176 -0.1227 -0.0511 -0.4114
  881MOL0     C18826   1.206  10.860   8.094 -0.1862 -0.4701  0.4793
  881MOL0     C18827   1.244  10.905   7.962 -0.4309  1.0125 -0.2489
  881MOL0     C18828   1.167  11.006   7.906 -0.7349  0.2228 -0.3398
  881MOL0     C18829   1.189  11.038   7.766 -0.3402 -0.9677 -0.3753
  881MOL0     O18830   1.082  11.075   7.688  0.2374 -0.0632  0.6269
  881MOL0     C18831   1.088  11.086   7.553 -0.5751 -1.0964  0.9217
  881MOL0     C18832   1.005  11.185   7.492  1.4266 -0.2743 -0.2177
  881MOL0     C18833   1.004  11.211   7.357  0.7689  0.5945 -0.3591
  881MOL0     C18834   1.087  11.137   7.270  0.8336  0.5518  0.3562
  881MOL0     O18835   1.088  11.165   7.134  0.1219 -0.8532  0.2330
  881MOL0     C18836   1.128  11.056   7.049 -0.3510 -0.2443  0.8402
  881MOL0     C18837   1.118  11.083   6.895 -0.0868 -0.5464 -0.5948
  881MOL0     C18838   1.248  11.092   6.822  0.4110  0.2266 -0.6215
  881MOL0     C18839   1.365  11.170   6.888  0.5906  1.1596 -0.1992
  881MOL0     C18840   1.481  11.199   6.790  0.6713 -0.8116  0.3451
  881MOL0     C18841   1.626  11.202   6.847  0.1217  0.1246 -1.1248
  881MOL0     C18842   1.665  11.316   6.951  0.1829  0.8105  0.8427
  881MOL0     C18843   1.677  11.458   6.897  0.3110  0.7691  0.3182
  881MOL0    Cl18844   1.791  11.491   6.757 -0.3973 -0.3677  0.2554
  881MOL0     C18845   1.178  11.040   7.331  0.4348  0.1857 -0.0811
  881MOL0     C18846   1.162  11.008   7.468  0.9645 -0.5114  0.3762
  881MOL0     O18847   1.308  11.055   7.737 -0.1519 -0.3182 -0.0679
  881MOL0     C18848   1.069  11.061   7.981  0.0636  0.1617 -0.2488
  881MOL0     C18849   1.030  11.028   8.116 -0.4371 -0.0856  0.2181
  881MOL0     N18850   1.003  10.695   8.922 -0.2551 -0.0520  0.0108
  881MOL0     N18851   0.998  10.583   8.982 -0.0115  0.7926 -0.0031
  881MOL0     C18852   1.501   9.556   9.074 -0.6086  0.2159 -0.8192
  881MOL0     C18853   1.611   9.506   8.998 -0.3267 -0.3166  0.1317
  881MOL0     C18854   1.791   9.198   8.760  0.4806  0.0463 -0.8449
  881MOL0     C18855   1.776   9.062   8.721 -0.0231  0.0277  0.4734
  881MOL0     C18856   1.883   8.997   8.657  0.6583  1.6606  0.3678
  881MOL0     C18857   2.010   9.054   8.647  0.0941 -0.6947 -0.1957
  881MOL0     O18858   2.119   8.983   8.597 -0.5539  0.8243 -0.6770
  881MOL0     C18859   2.128   8.851   8.658 -0.5172  0.2289  0.1397
  881MOL0     C18860   2.128   8.737   8.557 -0.3142 -0.4655 -0.3973
  881MOL0     C18861   2.240   8.750   8.458 -0.7195 -0.2140 -0.8908
  881MOL0     C18862   2.385   8.740   8.508  0.5340  0.4417 -0.4871
  881MOL0     C18863   2.479   8.684   8.410 -0.6980 -0.6610  0.2336
  881MOL0     C18864   2.555   8.643   8.325  0.7563 -0.6360 -0.7481
  881MOL0     C18865   2.040   9.176   8.701  0.1287 -0.8036 -0.9075
  881MOL0     C18866   1.930   9.257   8.756  0.0235  0.0293  0.7510
  881MOL0     C18867   1.963   9.401   8.816 -0.3880 -0.1759 -0.2285
  881MOL0     H18868   1.452   9.498   8.692  1.9624  0.5849 -0.5872
  881MOL0     H18869   1.272   9.602   8.816 -0.0130 -1.2442 -1.9268
  881MOL0     H18870   1.278   9.535   9.235  2.0272 -0.5378  1.4280
  881MOL0     H18871   1.316   9.720   9.252  0.4069 -0.3860  0.6273
  881MOL0     H18872   1.079   9.605   9.328 -2.3605  1.1342 -0.7760
  881MOL0     H18873   1.049   9.605   9.159 -0.8371 -0.0764 -0.4640
  881MOL0     H18874   1.066   9.848   9.323 -3.0437  0.4609  1.0070
  881MOL0     H18875   0.943   9.786   9.197  0.8371  0.0675 -1.5329
  881MOL0     H18876   1.222   9.914   9.130  0.4933  0.3717 -0.4534
  881MOL0     H18877   1.103   9.844   9.021 -1.4822  2.5463 -1.2413
  881MOL0     H18878   0.986  10.023   9.001 -0.7785  1.3274  0.8103
  881MOL0     H18879   0.970  10.053   9.176 -0.1251  1.7808 -0.5592
  881MOL0     H18880   1.167  10.173   9.187  3.6693 -0.3857 -1.5990
  881MOL0     H18881   1.201  10.138   9.017  0.3189 -2.1200  0.5961
  881MOL0     H18882   0.977  10.336   9.098  0.4638  1.2577  0.4475
  881MOL0     H18883   1.021  10.268   8.936  0.1691 -1.9035  0.6669
  881MOL0     H18884   1.180  10.441   9.144  0.6109  0.9063 -0.1878
  881MOL0     H18885   1.264  10.386   8.998 -0.4597  0.6639  0.2778
  881MOL0     H18886   1.287  10.542   8.831  0.5714  0.0217  0.0458
  881MOL0     H18887   1.100  10.899   8.802  1.5273  0.4263  1.4378
  881MOL0     H18888   1.253  10.851   8.855  1.4465 -0.6930 -0.3499
  881MOL0     H18889   1.305  10.878   8.646  0.8028 -1.1944 -0.6418
  881MOL0     H18890   1.252  10.712   8.610  1.8660  0.2535 -1.1367
  881MOL0     H18891   1.066  10.948   8.551 -2.2093 -1.6408  3.2621
  881MOL0     H18892   1.042  10.771   8.544 -0.1824 -0.5209  0.6670
  881MOL0     H18893   1.212  10.736   8.389  1.9218 -0.1281 -0.9375
  881MOL0     H18894   1.254  10.916   8.378  0.4473 -1.3142  1.5945
  881MOL0     H18895   1.260  10.774   8.131 -1.0660 -1.2404  0.0235
  881MOL0     H18896   1.306  10.836   7.906  0.2722  0.5015  1.1056
  881MOL0     H18897   0.943  11.247   7.557  0.6285 -3.0548  1.8696
  881MOL0     H18898   0.943  11.292   7.318  0.2419 -0.5166 -1.9556
  881MOL0     H18899   1.228  11.024   7.079 -0.1213  2.9225  4.2222
  881MOL0     H18900   1.048  10.983   7.064  0.6064 -1.1761  1.4716
  881MOL0     H18901   1.054  11.012   6.842  0.5468  0.7343 -3.2452
  881MOL0     H18902   1.064  11.178   6.888 -2.3787 -1.6397  1.1108
  881MOL0     H18903   1.274  10.988   6.799 -0.4243  0.1988 -1.5450
  881MOL0     H18904   1.232  11.135   6.723  1.7405 -2.5977 -2.1891
  881MOL0     H18905   1.400  11.116   6.976 -1.0240  1.0789  0.4250
  881MOL0     H18906   1.317  11.262   6.922 -2.5894 -0.5670  0.3325
  881MOL0     H18907   1.465  11.291   6.732 -3.2399 -1.6726 -0.1772
  881MOL0     H18908   1.494  11.112   6.725  0.7488  0.3096 -1.1957
  881MOL0     H18909   1.651  11.106   6.894  0.7600  2.1054  2.9805
  881MOL0     H18910   1.685  11.213   6.756 -0.9311 -2.0611 -2.1564
  881MOL0     H18911   1.756  11.287   7.004  0.4293 -1.4037 -0.6918
  881MOL0     H18912   1.590  11.310   7.030  0.0906  2.3742  0.9196
  881MOL0     H18913   1.572  11.480   6.875  0.5052  2.7930  1.1512
  881MOL0     H18914   1.707  11.523   6.980  4.3404 -3.1059  2.3050
  881MOL0     H18915   1.256  10.981   7.283 -2.4305 -2.8031 -1.5138
  881MOL0     H18916   1.233  10.935   7.507  0.4731 -1.9228 -1.2632
  881MOL0     H18917   1.008  11.141   7.940 -0.9343 -0.2822  0.3263
  881MOL0     H18918   0.942  11.067   8.165 -1.1952  0.4052 -1.4393
  881MOL0     H18919   1.508   9.563   9.182  1.3015 -0.6676 -0.8607
  881MOL0     H18920   1.704   9.485   9.050  0.6548 -2.2283 -2.2143
  881MOL0     H18921   1.678   9.015   8.730 -1.0840  2.3973  2.8574
  881MOL0     H18922   1.859   8.895   8.628  1.0924  1.8582 -0.7581
  881MOL0     H18923   2.055   8.834   8.738 -1.6025  1.3946 -0.5549
  881MOL0     H18924   2.224   8.850   8.711 -0.5245 -3.4891  0.3532
  881MOL0     H18925   2.031   8.748   8.508 -2.1686 -1.4597  2.7400
  881MOL0     H18926   2.115   8.638   8.600  1.5759 -0.2426  0.8320
  881MOL0     H18927   2.231   8.850   8.416 -3.3222  0.5693  1.2373
  881MOL0     H18928   2.234   8.675   8.379  0.1209  0.2299 -1.3949
  881MOL0     H18929   2.439   8.829   8.542  1.4439  0.8925 -2.9313
  881MOL0     H18930   2.376   8.673   8.594 -0.7443  2.7612  1.3066
  881MOL0     H18931   2.619   8.600   8.250  0.3473 -1.9062 -0.3959
  881MOL0     H18932   2.143   9.209   8.706  0.1596 -0.9148 -0.8254
  881MOL0     H18933   1.906   9.479   8.765  0.5234 -0.2512 -1.4168
  881MOL0     H18934   1.935   9.404   8.922 -0.5010  1.1540 -0.2806
  881MOL0     H18935   2.068   9.429   8.807 -0.4634  0.4788  0.7807
  882MOL0     O18936   6.919   3.883   5.201  0.3908  0.4225 -0.3575
  882MOL0     C18937   6.988   3.833   5.285 -0.3876 -0.2611 -0.7989
  882MOL0     O18938   7.123   3.839   5.284  0.0044 -0.1269 -0.5541
  882MOL0     C18939   7.185   3.878   5.175 -0.0122  0.0138 -0.2531
  882MOL0     C18940   7.193   3.802   5.062 -1.4058 -0.2175 -0.4469
  882MOL0     C18941   7.260   3.850   4.948  0.1655  0.1196  0.2243
  882MOL0     C18942   7.323   3.974   4.958  0.0311  0.2986 -0.4843
  882MOL0     O18943   7.382   4.025   4.847  0.2819 -0.3469  0.2708
  882MOL0     C18944   7.516   4.069   4.862  0.4071 -0.0864 -0.2017
  882MOL0     C18945   7.577   4.124   4.730  0.1815  0.0558  0.4470
  882MOL0     C18946   7.609   3.999   4.627  0.1700 -0.2548  0.4841
  882MOL0     C18947   7.488   3.972   4.528 -0.7325  0.6553 -0.5609
  882MOL0     C18948   7.494   3.834   4.458 -0.4714  0.1526  0.0449
  882MOL0     C18949   7.365   3.792   4.400  0.1755 -0.5161  0.7008
  882MOL0     C18950   7.230   3.835   4.478  0.2031 -0.2931 -1.3649
  882MOL0     C18951   7.102   3.792   4.419  0.0251 -0.0633  0.1851
  882MOL0     N18952   7.047   3.875   4.302  0.0430  0.3895 -0.5226
  882MOL0     C18953   7.091   4.002   4.266  0.4294  0.3217  0.2414
  882MOL0     C18954   7.017   4.039   4.153  0.8604 -0.0139  0.3343
  882MOL0     C18955   7.023   4.169   4.076  0.2551  0.3323 -0.0063
  882MOL0     C18956   7.153   4.179   3.995  0.0538  0.3547  1.2473
  882MOL0     C18957   7.141   4.302   3.897  0.7786 -0.9344  0.0479
  882MOL0     C18958   7.128   4.270   3.750 -0.4895 -0.1495 -0.0904
  882MOL0     O18959   7.128   4.392   3.677  0.0560 -0.2500 -0.5845
  882MOL0     C18960   7.098   4.390   3.542 -0.9179 -0.1214  0.2663
  882MOL0     C18961   7.061   4.276   3.472  0.0800 -0.9664 -0.0353
  882MOL0     C18962   7.047   4.287   3.338 -0.8651  0.0380  0.2835
  882MOL0     C18963   7.074   4.399   3.254 -0.8066 -1.2000 -0.0097
  882MOL0     C18964   7.080   4.375   3.108 -0.4218 -0.5476 -0.1006
  882MOL0     O18965   6.958   4.318   3.060 -0.6218  0.1510 -0.4333
  882MOL0     C18966   6.954   4.280   2.930  0.4535  0.0501  0.0290
  882MOL0     C18967   7.047   4.188   2.889  0.2131 -0.1845  1.4534
  882MOL0     C18968   7.062   4.165   2.750 -0.0662  0.6080  0.2097
  882MOL0     C18969   6.980   4.222   2.650  0.6027 -0.3030  0.2292
  882MOL0     O18970   6.988   4.170   2.523  0.0058 -0.6126 -0.9580
  882MOL0     C18971   6.869   4.195   2.441  0.6393 -0.4382  0.3028
  882MOL0     C18972   6.857   4.093   2.328 -0.5675 -0.1122 -0.0563
  882MOL0     C18973   6.820   3.946   2.373  0.0162  0.2222 -0.3174
  882MOL0     C18974   6.663   3.924   2.399 -1.1219  0.4045 -0.6905
  882MOL0     C18975   6.644   3.798   2.480 -0.2383  0.5882 -0.0964
  882MOL0     C18976   6.509   3.776   2.531  0.4961 -0.7019 -0.6630
  882MOL0     C18977   6.467   3.640   2.586  0.1874  1.4623  0.6447
  882MOL0     C18978   6.354   3.647   2.688 -0.2691  0.6772  0.0739
  882MOL0    Cl18979   6.215   3.714   2.602  0.5849  0.3527 -0.6806
  882MOL0     C18980   6.887   4.313   2.696 -0.0275 -0.2362  0.3234
  882MOL0     C18981   6.882   4.345   2.835  0.1620 -0.3661  1.6444
  882MOL0     O18982   7.173   4.421   3.046  0.4813  0.1129  0.4057
  882MOL0     C18983   7.126   4.507   3.322  0.4921  0.2502  0.4375
  882MOL0     C18984   7.131   4.508   3.462 -0.3426  0.8733  0.2217
  882MOL0     N18985   6.921   3.935   4.140  0.2663 -0.7911 -0.5761
  882MOL0     N18986   6.946   3.839   4.220 -0.7855 -0.3216  0.4488
  882MOL0     C18987   7.323   4.050   5.075 -0.0740 -0.4047 -0.2730
  882MOL0     C18988   7.256   4.004   5.189 -0.4147  0.4379  0.3602
  882MOL0     C18989   6.920   3.781   5.414  1.2095  0.5223 -0.5276
  882MOL0     C18990   6.982   3.688   5.494  0.6891  0.1312 -0.6884
  882MOL0     C18991   6.936   3.655   5.627  0.0367  0.4707  0.3516
  882MOL0     C18992   6.811   3.696   5.686 -0.5533 -0.3875 -0.2845
  882MOL0     O18993   6.765   3.665   5.810  0.0476  0.6701  0.9058
  882MOL0     C18994   6.848   3.572   5.892  1.3610 -0.2500  0.0902
  882MOL0     C18995   6.844   3.426   5.855 -0.2479 -0.3324  0.5687
  882MOL0     C18996   6.920   3.324   5.946  0.7486 -0.6696  0.5804
  882MOL0     C18997   7.076   3.299   5.916  0.4422  0.9121 -0.0039
  882MOL0     C18998   7.135   3.198   6.005 -1.1079 -0.3102 -0.3316
  882MOL0     C18999   7.180   3.124   6.092  0.2507  0.8462  0.5581
  882MOL0     C19000   6.746   3.790   5.605  0.1603  0.1543  0.2165
  882MOL0     C19001   6.791   3.831   5.481 -0.4398 -1.1099 -0.3623
  882MOL0     C19002   6.708   3.933   5.407  0.1671 -0.5938 -0.1411
  882MOL0     H19003   7.147   3.704   5.062  3.6055 -2.8854 -0.8342
  882MOL0     H19004   7.253   3.802   4.851 -2.1459 -1.5872  1.1528
  882MOL0     H19005   7.522   4.139   4.945 -0.7777 -2.1086  1.7021
  882MOL0     H19006   7.573   3.977   4.882  0.1796 -0.6272 -1.8652
  882MOL0     H19007   7.674   4.170   4.749  1.7513 -1.6678 -2.6367
  882MOL0     H19008   7.511   4.204   4.696  0.8609  1.3890  2.1347
  882MOL0     H19009   7.640   3.911   4.684  0.8185 -1.0375 -1.0238
  882MOL0     H19010   7.697   4.025   4.569  0.2738  0.8093  1.0930
  882MOL0     H19011   7.396   3.986   4.586 -0.9563 -0.0261 -0.7360
  882MOL0     H19012   7.488   4.046   4.448  1.6548  2.1662  0.7171
  882MOL0     H19013   7.580   3.819   4.392  0.3096  0.7880  0.8947
  882MOL0     H19014   7.499   3.770   4.546 -3.6537 -0.3247  0.0054
  882MOL0     H19015   7.349   3.841   4.303 -1.7953 -0.2662  1.0960
  882MOL0     H19016   7.381   3.685   4.392  0.6132 -0.5185  1.5387
  882MOL0     H19017   7.222   3.944   4.476  5.4944  0.3978 -0.8167
  882MOL0     H19018   7.239   3.791   4.578 -3.0045 -0.0116 -0.8717
  882MOL0     H19019   7.117   3.691   4.380  0.4058 -0.6336  1.7398
  882MOL0     H19020   7.027   3.772   4.496  1.1834 -1.7254  0.9269
  882MOL0     H19021   7.175   4.057   4.309  0.2211  1.5470 -0.8379
  882MOL0     H19022   6.935   4.170   4.011 -2.8817 -1.6204  3.8447
  882MOL0     H19023   7.014   4.251   4.147 -0.5262 -0.3768  0.7404
  882MOL0     H19024   7.237   4.199   4.061  1.7595  0.4005 -0.8265
  882MOL0     H19025   7.176   4.092   3.933 -1.5734  0.4356  0.4658
  882MOL0     H19026   7.232   4.362   3.910  0.3176  0.2164 -1.7684
  882MOL0     H19027   7.058   4.366   3.929  0.7896  0.0798 -1.8321
  882MOL0     H19028   7.033   4.215   3.740 -2.2519  2.9619 -2.8376
  882MOL0     H19029   7.210   4.207   3.716 -2.1305 -0.5292 -3.9918
  882MOL0     H19030   7.037   4.185   3.526  2.6807 -1.2931  0.6669
  882MOL0     H19031   7.021   4.204   3.273  0.2247 -0.2252  0.1663
  882MOL0     H19032   7.123   4.160   2.961  1.7359  0.5632  0.2087
  882MOL0     H19033   7.150   4.103   2.734 -0.9788 -1.1806  1.6952
  882MOL0     H19034   6.775   4.203   2.497  1.7031  1.0749  1.9726
  882MOL0     H19035   6.888   4.295   2.402  2.1552 -0.3802  1.1387
  882MOL0     H19036   6.774   4.116   2.260  2.0608  3.3899 -2.4369
  882MOL0     H19037   6.953   4.087   2.276 -0.1129 -1.1911  0.8686
  882MOL0     H19038   6.850   3.891   2.284  0.6086 -0.4933  0.3057
  882MOL0     H19039   6.883   3.921   2.459  0.3872 -2.9007 -1.3563
  882MOL0     H19040   6.613   3.913   2.302 -1.6729 -0.8007 -0.2899
  882MOL0     H19041   6.625   4.008   2.458  0.4997 -0.5584  1.9002
  882MOL0     H19042   6.704   3.805   2.571 -0.9360  1.1299  0.3351
  882MOL0     H19043   6.670   3.710   2.421 -3.3693 -1.7704  1.7158
  882MOL0     H19044   6.494   3.851   2.609  2.5402  0.5649 -1.4113
  882MOL0     H19045   6.440   3.791   2.448 -1.0439 -3.3473  0.0196
  882MOL0     H19046   6.555   3.588   2.626 -0.3375 -1.0041 -1.2015
  882MOL0     H19047   6.428   3.574   2.508 -2.2136  2.1075  1.2129
  882MOL0     H19048   6.325   3.548   2.724 -1.3051  0.4263 -1.3507
  882MOL0     H19049   6.387   3.714   2.769  2.3053  0.1317 -0.4335
  882MOL0     H19050   6.838   4.379   2.625 -1.1525 -1.1333  0.2238
  882MOL0     H19051   6.826   4.434   2.860 -2.1909 -1.2415 -0.0490
  882MOL0     H19052   7.150   4.602   3.275 -1.3763  0.1697 -0.7987
  882MOL0     H19053   7.167   4.592   3.521 -0.2417  0.3265  0.9514
  882MOL0     H19054   7.360   4.150   5.057 -1.1373 -0.4385 -3.2720
  882MOL0     H19055   7.255   4.047   5.288 -1.5269  0.9096  0.1607
  882MOL0     H19056   7.085   3.657   5.477  1.3841 -0.2373  3.3301
  882MOL0     H19057   7.004   3.595   5.686  1.0210 -0.0355 -1.2435
  882MOL0     H19058   6.812   3.582   5.995 -1.3587 -1.3936 -0.6409
  882MOL0     H19059   6.950   3.606   5.876  0.0680  3.6223 -1.3136
  882MOL0     H19060   6.892   3.422   5.757  2.1323  2.4090  1.4722
  882MOL0     H19061   6.737   3.406   5.848 -0.6668  2.1165 -1.8743
  882MOL0     H19062   6.872   3.229   5.922 -0.8430  0.1470  0.4149
  882MOL0     H19063   6.909   3.353   6.051 -0.3077 -1.8000  0.8020
  882MOL0     H19064   7.063   3.256   5.816 -4.4137 -0.8865  1.1131
  882MOL0     H19065   7.125   3.397   5.921 -0.3295  1.2379  2.1335
  882MOL0     H19066   7.212   3.055   6.168 -1.9223 -1.3141 -0.3553
  882MOL0     H19067   6.674   3.847   5.664  0.7672  2.9624 -1.5541
  882MOL0     H19068   6.605   3.945   5.440  0.7357 -1.1739  1.9405
  882MOL0     H19069   6.748   4.034   5.399 -2.0326  0.3079 -0.4585
  882MOL0     H19070   6.708   3.893   5.305  3.6619 -0.2958 -0.3681
  883MOL0     O19071   5.857   9.678   1.795 -0.3574 -0.3365 -0.0233
  883MOL0     C19072   5.959   9.693   1.868 -0.2464 -0.4216 -0.5990
  883MOL0     O19073   5.986   9.623   1.977  0.2612 -0.2138 -0.1737
  883MOL0     C19074   5.900   9.517   2.007 -0.0108  0.3932 -1.2587
  883MOL0     C19075   5.766   9.535   2.018 -0.3423 -0.0048  0.4883
  883MOL0     C19076   5.677   9.419   2.031 -0.1203 -0.9746 -0.6318
  883MOL0     C19077   5.722   9.290   2.023 -0.5744  0.3905  0.0236
  883MOL0     O19078   5.627   9.192   2.036  0.5415 -0.0575  0.5083
  883MOL0     C19079   5.664   9.055   2.054 -1.3108 -0.0653  0.1857
  883MOL0     C19080   5.638   8.968   1.925  0.3661 -0.2922 -0.1035
  883MOL0     C19081   5.727   9.012   1.801  0.5547 -0.2604 -0.7655
  883MOL0     C19082   5.756   8.892   1.708  0.2010  0.0462 -0.2291
  883MOL0     C19083   5.870   8.919   1.608 -0.2176  0.0587  0.3893
  883MOL0     C19084   6.010   8.914   1.681  0.5913  0.1342  0.5034
  883MOL0     C19085   6.119   8.973   1.593 -0.0997 -0.1384  0.2667
  883MOL0     C19086   6.245   8.980   1.674 -0.0121  1.2489 -0.5949
  883MOL0     N19087   6.276   9.095   1.761  0.7670  0.4992 -0.3487
  883MOL0     C19088   6.329   9.213   1.716  0.1508  0.4818 -0.0891
  883MOL0     C19089   6.324   9.295   1.818  0.0730  0.1158 -0.7037
  883MOL0     C19090   6.352   9.437   1.834  0.3822  0.0665 -0.2388
  883MOL0     C19091   6.495   9.449   1.871  0.8025 -0.2743 -0.1326
  883MOL0     C19092   6.531   9.603   1.870  0.2015  0.1542 -0.4114
  883MOL0     C19093   6.683   9.620   1.896 -0.4428  0.0085 -0.0253
  883MOL0     O19094   6.713   9.756   1.923 -0.0617 -1.3588 -0.2347
  883MOL0     C19095   6.844   9.796   1.953  0.8680 -0.2442 -0.0697
  883MOL0     C19096   6.949   9.701   1.976  0.2672 -0.7769  0.8008
  883MOL0     C19097   7.089   9.756   2.004  0.8526  0.6010  0.7146
  883MOL0     C19098   7.118   9.900   1.997 -0.1248  0.2652 -0.2291
  883MOL0     C19099   7.243   9.954   2.048  0.1414  0.4038  1.3233
  883MOL0     O19100   7.274  10.085   2.009  0.4273  0.0632  1.6605
  883MOL0     C19101   7.407  10.133   2.023 -0.3352  0.2776 -0.0307
  883MOL0     C19102   7.464  10.144   2.150 -0.0916  1.0835  0.2321
  883MOL0     C19103   7.589  10.207   2.169  0.2685 -0.1860  0.3582
  883MOL0     C19104   7.654  10.272   2.052 -0.2000 -0.0327 -0.4085
  883MOL0     O19105   7.792  10.319   2.068 -0.4280  0.3628 -1.2444
  883MOL0     C19106   7.817  10.448   2.013 -0.7463 -0.7924  0.2244
  883MOL0     C19107   7.957  10.494   2.071 -0.6462 -0.9772  0.2587
  883MOL0     C19108   8.009  10.632   2.027 -0.3134 -0.3791 -0.7091
  883MOL0     C19109   8.161  10.662   2.061  0.0901 -0.3423 -0.4158
  883MOL0     C19110   8.192  10.811   2.041  0.8058 -0.1207 -0.1711
  883MOL0     C19111   8.331  10.852   2.082 -0.5324  0.1295  0.0542
  883MOL0     C19112   8.364  10.997   2.044  0.7653 -0.0297 -0.1781
  883MOL0     C19113   8.333  11.091   2.162 -0.2777 -0.9723 -0.4034
  883MOL0    Cl19114   8.383  11.265   2.118 -0.0396  0.0398 -0.3626
  883MOL0     C19115   7.583  10.279   1.935  0.5299  0.4321  0.0938
  883MOL0     C19116   7.467  10.204   1.913 -0.5823 -0.9580 -0.4572
  883MOL0     O19117   7.315   9.879   2.112 -0.2627 -0.3600  0.4422
  883MOL0     C19118   7.014   9.977   1.964 -0.0504 -0.7920 -0.0716
  883MOL0     C19119   6.883   9.928   1.948 -0.1710  0.3848  0.5341
  883MOL0     N19120   6.271   9.234   1.925  0.2625 -0.0541 -0.4125
  883MOL0     N19121   6.255   9.106   1.893  0.4273  0.5357 -0.0767
  883MOL0     C19122   5.865   9.278   2.012  0.0611  0.2285 -0.2034
  883MOL0     C19123   5.954   9.392   2.007  0.9414  0.6985  0.2456
  883MOL0     C19124   6.053   9.811   1.846 -0.0027  0.1054 -0.6374
  883MOL0     C19125   6.026   9.898   1.737 -0.0232 -0.3458 -0.5276
  883MOL0     C19126   6.111  10.011   1.708 -0.7802 -0.0563 -0.1706
  883MOL0     C19127   6.215  10.034   1.792 -1.0545 -0.2288  0.2099
  883MOL0     O19128   6.293  10.138   1.747  0.8453 -0.2301 -0.5195
  883MOL0     C19129   6.422  10.155   1.822 -0.4182 -0.8542 -0.5846
  883MOL0     C19130   6.526  10.053   1.780  0.6369 -0.4331 -0.0671
  883MOL0     C19131   6.569  10.076   1.638 -0.2394 -0.9613 -0.9688
  883MOL0     C19132   6.701  10.148   1.623  0.1890  0.5144  0.3251
  883MOL0     C19133   6.700  10.287   1.661 -0.7606 -0.2307  0.0446
  883MOL0     C19134   6.693  10.413   1.676 -0.2137  0.1693  0.2319
  883MOL0     C19135   6.243   9.963   1.912 -0.1038  0.2718  0.3734
  883MOL0     C19136   6.156   9.851   1.929  0.1103 -0.4681 -1.3498
  883MOL0     C19137   6.174   9.790   2.065  0.7474 -0.8173  0.4864
  883MOL0     H19138   5.728   9.635   2.033 -3.8902 -1.3763  1.5723
  883MOL0     H19139   5.571   9.443   2.037 -0.0893 -0.9935  0.0539
  883MOL0     H19140   5.769   9.043   2.081 -0.9080  1.2596 -0.6967
  883MOL0     H19141   5.601   9.017   2.135  1.8795 -0.4360  2.7107
  883MOL0     H19142   5.531   8.966   1.901  0.4790  0.5224 -0.7091
  883MOL0     H19143   5.669   8.867   1.956  0.5839 -1.1883 -2.9561
  883MOL0     H19144   5.817   9.066   1.834 -0.1162  0.0668  0.6255
  883MOL0     H19145   5.666   9.080   1.742 -0.6911  0.6931  1.4861
  883MOL0     H19146   5.786   8.808   1.771 -3.0146 -0.2542  1.0395
  883MOL0     H19147   5.667   8.881   1.646  1.2198  1.1445 -1.9890
  883MOL0     H19148   5.878   8.841   1.532 -0.8051 -1.2889  1.6506
  883MOL0     H19149   5.853   9.006   1.545  2.2225 -1.7023 -3.0403
  883MOL0     H19150   6.002   8.982   1.767 -1.5647  0.0302  0.4587
  883MOL0     H19151   6.040   8.813   1.709  1.4460 -1.1260 -4.1067
  883MOL0     H19152   6.104   9.073   1.552  2.5619  0.8915  1.5663
  883MOL0     H19153   6.149   8.909   1.510  1.3320  1.8452 -0.8381
  883MOL0     H19154   6.258   8.890   1.735  2.0398  2.0672  0.2717
  883MOL0     H19155   6.334   8.974   1.611 -1.0630  1.6954 -2.1784
  883MOL0     H19156   6.364   9.230   1.614 -3.3203  1.0694 -1.2944
  883MOL0     H19157   6.331   9.494   1.743  3.3392 -0.5349 -1.4010
  883MOL0     H19158   6.296   9.480   1.918 -0.5680 -1.5114 -0.0221
  883MOL0     H19159   6.515   9.404   1.968 -0.1712 -1.5703 -0.5116
  883MOL0     H19160   6.556   9.400   1.794  1.6752 -1.8617  1.4987
  883MOL0     H19161   6.472   9.655   1.945 -1.8197  0.5122 -2.1758
  883MOL0     H19162   6.500   9.646   1.775 -5.2161  2.0016  1.8227
  883MOL0     H19163   6.736   9.585   1.806  0.3549  2.0949 -0.4466
  883MOL0     H19164   6.714   9.560   1.982  0.6495 -0.9863 -1.0653
  883MOL0     H19165   6.916   9.598   1.989  0.5715 -0.7220  2.1095
  883MOL0     H19166   7.166   9.686   2.034  1.3239  2.0263  3.1705
  883MOL0     H19167   7.401  10.125   2.236  0.6409  1.0848  0.7670
  883MOL0     H19168   7.634  10.220   2.267  3.9363 -1.4614 -0.9806
  883MOL0     H19169   7.814  10.435   1.905 -1.7455 -3.1155  0.4675
  883MOL0     H19170   7.744  10.524   2.043  1.1222  1.0492  0.3402
  883MOL0     H19171   7.958  10.494   2.180  2.8791 -0.9757  0.3406
  883MOL0     H19172   8.016  10.407   2.043 -0.1574 -0.1950 -1.2816
  883MOL0     H19173   7.997  10.644   1.919 -2.4345  0.7171 -0.3959
  883MOL0     H19174   7.950  10.716   2.065  1.2719  0.2850  0.4001
  883MOL0     H19175   8.223  10.599   1.996  0.6547 -0.9843  0.7238
  883MOL0     H19176   8.184  10.631   2.163 -2.4096  1.5542  0.8260
  883MOL0     H19177   8.116  10.858   2.105 -0.6854 -1.3862 -0.9355
  883MOL0     H19178   8.165  10.841   1.939  0.3741 -1.2200 -0.3968
  883MOL0     H19179   8.339  10.838   2.190 -1.1758 -1.7987 -0.1125
  883MOL0     H19180   8.413  10.797   2.035  0.8068  0.7390  1.5880
  883MOL0     H19181   8.305  11.038   1.962  2.9473  1.0554 -1.2748
  883MOL0     H19182   8.464  11.014   2.004  0.3414  1.5174 -0.6460
  883MOL0     H19183   8.227  11.085   2.190 -0.1812 -0.8558 -0.0055
  883MOL0     H19184   8.395  11.077   2.251  1.3379 -0.6071 -1.4396
  883MOL0     H19185   7.611  10.331   1.844 -0.7646  0.4760 -0.2866
  883MOL0     H19186   7.414  10.201   1.819 -0.4951 -0.0619 -0.5447
  883MOL0     H19187   7.022  10.084   1.948 -0.2632 -0.1435  3.4634
  883MOL0     H19188   6.802   9.993   1.915 -0.1068 -0.0747 -0.5718
  883MOL0     H19189   5.918   9.184   2.019 -2.0779 -1.0716 -0.6257
  883MOL0     H19190   6.058   9.375   1.983  0.2609  0.0375 -2.6372
  883MOL0     H19191   5.953   9.861   1.666  0.6811 -1.2668 -0.7885
  883MOL0     H19192   6.095  10.065   1.615 -1.4331 -2.0565 -1.2808
  883MOL0     H19193   6.417  10.150   1.931 -2.5317  1.5532 -0.4755
  883MOL0     H19194   6.465  10.254   1.810  1.0383 -1.5324 -1.1427
  883MOL0     H19195   6.494   9.949   1.786 -1.5607  0.2098  0.4809
  883MOL0     H19196   6.609  10.071   1.849  0.7207  0.1670 -0.3121
  883MOL0     H19197   6.490  10.128   1.582  0.1982 -3.1601 -3.8716
  883MOL0     H19198   6.587   9.979   1.591  0.1069 -0.2954 -2.2640
  883MOL0     H19199   6.778  10.093   1.679 -0.3148  0.1313  0.6587
  883MOL0     H19200   6.720  10.141   1.516 -1.7106  1.6605 -0.1212
  883MOL0     H19201   6.687  10.517   1.699 -0.9139 -0.1418  1.6199
  883MOL0     H19202   6.336   9.974   1.966  0.4002 -0.7795 -0.2424
  883MOL0     H19203   6.215   9.688   2.060  0.4088 -1.1708  3.2416
  883MOL0     H19204   6.250   9.847   2.119  0.4319 -0.1216  0.2006
  883MOL0     H19205   6.087   9.793   2.131  1.7024  2.1253  1.7629
  884MOL0     O19206   5.550   2.235   8.768  0.0250 -0.1551 -0.3047
  884MOL0     C19207   5.588   2.265   8.656 -0.0218  0.0125  0.1498
  884MOL0     O19208   5.706   2.232   8.608 -0.1252  0.3072  0.4602
  884MOL0     C19209   5.783   2.123   8.637 -0.0865  0.7235  0.0769
  884MOL0     C19210   5.733   2.008   8.696 -0.0429  0.0506  0.3602
  884MOL0     C19211   5.819   1.902   8.723 -0.4201 -0.2900 -1.1950
  884MOL0     C19212   5.957   1.917   8.711 -1.0238  0.0222  0.6878
  884MOL0     O19213   6.032   1.805   8.737 -0.5197  0.5169 -0.4831
  884MOL0     C19214   6.129   1.762   8.632  0.1721 -0.8609 -0.0269
  884MOL0     C19215   6.168   1.622   8.647 -0.5622 -0.1260  0.0093
  884MOL0     C19216   6.063   1.512   8.624 -0.4919 -0.3120 -0.0524
  884MOL0     C19217   6.128   1.373   8.629 -0.1372  0.3832 -0.0119
  884MOL0     C19218   6.007   1.276   8.608 -0.4627  0.2132  0.7171
  884MOL0     C19219   6.062   1.134   8.584  0.4588  0.2248 -0.4563
  884MOL0     C19220   5.969   1.025   8.621  0.6082  0.4307 -0.2551
  884MOL0     C19221   5.845   1.003   8.527 -0.3585 -0.3551  0.3176
  884MOL0     N19222   5.889   0.991   8.384  0.2466 -0.1343 -1.1145
  884MOL0     C19223   5.989   0.895   8.342  0.1741 -0.1887 -0.7835
  884MOL0     C19224   6.012   0.928   8.216 -1.2809  0.5085  0.9100
  884MOL0     C19225   6.103   0.863   8.118 -0.2137 -0.4800  0.5387
  884MOL0     C19226   6.074   0.710   8.093  0.1984 -0.1831 -0.6102
  884MOL0     C19227   6.162   0.657   7.986  0.3179 -0.3536 -0.2075
  884MOL0     C19228   6.138   0.506   7.957  0.6554 -0.3804  0.3746
  884MOL0     O19229   6.152   0.432   8.077  0.0145  0.2050  0.3782
  884MOL0     C19230   6.183   0.296   8.060  0.1225  0.1148 -0.1205
  884MOL0     C19231   6.103   0.212   7.973 -0.1994 -0.3983  0.0443
  884MOL0     C19232   6.125   0.085   7.954  0.3590  1.1340  0.3724
  884MOL0     C19233   6.229   0.019   8.030  0.9386 -0.3840 -0.3930
  884MOL0     C19234   6.260  -0.128   8.017 -0.4080 -0.2599 -0.5207
  884MOL0     O19235   6.250  -0.178   7.895 -0.9163 -0.0609 -1.0182
  884MOL0     C19236   6.279  -0.307   7.877  0.6323 -0.7218  0.2388
  884MOL0     C19237   6.399  -0.353   7.864 -0.4611 -0.0817  0.3365
  884MOL0     C19238   6.414  -0.492   7.848  0.2894 -0.4573  0.8800
  884MOL0     C19239   6.303  -0.576   7.857  1.2005 -0.3473 -0.0089
  884MOL0     O19240   6.326  -0.713   7.853 -0.5384 -0.2102 -0.4200
  884MOL0     C19241   6.222  -0.808   7.898  0.4442  0.3591  0.6908
  884MOL0     C19242   6.253  -0.963   7.910  0.5132 -0.8090  0.2589
  884MOL0     C19243   6.385  -0.997   7.990 -0.3233 -0.5422 -0.4919
  884MOL0     C19244   6.373  -0.979   8.143 -0.5430  0.0820 -0.1530
  884MOL0     C19245   6.503  -0.986   8.216 -0.5052  0.1306  0.3101
  884MOL0     C19246   6.495  -0.985   8.370 -0.0583 -0.7448  0.4935
  884MOL0     C19247   6.427  -0.847   8.412  0.8572  0.1757  0.3928
  884MOL0     C19248   6.455  -0.819   8.561 -0.2228 -0.2194 -0.2392
  884MOL0    Cl19249   6.395  -0.655   8.594 -0.0193  0.2373 -0.1665
  884MOL0     C19250   6.174  -0.522   7.865 -0.0472  0.3318  0.7695
  884MOL0     C19251   6.162  -0.384   7.877 -0.4472  1.2704 -1.1598
  884MOL0     O19252   6.283  -0.195   8.120  0.7261 -0.7076 -0.5837
  884MOL0     C19253   6.301   0.091   8.117 -0.3007  0.1519  0.2199
  884MOL0     C19254   6.281   0.225   8.132  0.1627 -1.0592  0.0485
  884MOL0     N19255   5.920   1.020   8.174 -0.3934 -0.2483 -0.4312
  884MOL0     N19256   5.843   1.055   8.275 -0.8361  0.8240 -0.7038
  884MOL0     C19257   6.010   2.029   8.646  0.3246  0.9370 -0.4428
  884MOL0     C19258   5.920   2.129   8.615  0.8002 -0.1716 -0.7198
  884MOL0     C19259   5.498   2.338   8.552 -0.4459  0.0488  1.1094
  884MOL0     C19260   5.559   2.381   8.428 -0.0305  0.3952  0.1762
  884MOL0     C19261   5.493   2.474   8.340 -0.3504  1.4564  0.6434
  884MOL0     C19262   5.367   2.511   8.365  0.1019 -0.4587  0.1022
  884MOL0     O19263   5.297   2.603   8.299  0.7386  0.0485  0.6934
  884MOL0     C19264   5.346   2.640   8.169 -0.5247 -0.0839  0.0670
  884MOL0     C19265   5.259   2.755   8.107  1.2617 -0.8761 -0.6225
  884MOL0     C19266   5.299   2.889   8.180 -0.6229 -1.4653  0.7814
  884MOL0     C19267   5.224   3.007   8.119  0.0033  0.2915 -0.9826
  884MOL0     C19268   5.282   3.135   8.176  0.7811  0.8005  0.0646
  884MOL0     C19269   5.301   3.239   8.222 -0.3546 -0.3545  0.2122
  884MOL0     C19270   5.310   2.464   8.482 -0.0506 -0.7785 -0.6320
  884MOL0     C19271   5.374   2.382   8.569 -0.3736  0.2917 -0.4513
  884MOL0     C19272   5.306   2.347   8.700 -0.0246  0.0870 -0.3208
  884MOL0     H19273   5.625   2.004   8.700 -0.0179 -0.1622  0.8581
  884MOL0     H19274   5.777   1.805   8.747 -2.4535  0.1639 -2.6033
  884MOL0     H19275   6.085   1.776   8.533  0.5404 -1.0242 -0.2158
  884MOL0     H19276   6.217   1.825   8.650 -1.6038  1.7198  0.0772
  884MOL0     H19277   6.196   1.596   8.749  3.1383 -0.1525 -0.8585
  884MOL0     H19278   6.257   1.603   8.586  0.9384 -1.1307  2.3874
  884MOL0     H19279   6.001   1.523   8.534 -2.9935 -0.6546  1.5092
  884MOL0     H19280   5.992   1.532   8.704 -3.9780 -3.3228 -2.0261
  884MOL0     H19281   6.196   1.365   8.543 -0.0577 -4.5336  0.2622
  884MOL0     H19282   6.172   1.345   8.725 -0.5976 -0.6098 -0.0771
  884MOL0     H19283   5.950   1.289   8.700 -0.5804  1.4476  0.4858
  884MOL0     H19284   5.946   1.317   8.527 -1.6401  0.3116  1.6304
  884MOL0     H19285   6.093   1.122   8.480 -1.5444  0.4581 -1.1270
  884MOL0     H19286   6.157   1.130   8.639 -1.4367  2.3329  3.3419
  884MOL0     H19287   5.933   1.050   8.721  1.0117 -2.0668  0.5809
  884MOL0     H19288   6.028   0.934   8.638  0.9963  1.1246  2.4637
  884MOL0     H19289   5.778   0.921   8.555 -0.0729 -0.4401  0.7737
  884MOL0     H19290   5.774   1.086   8.539  0.8685  0.6164  1.0644
  884MOL0     H19291   6.042   0.821   8.401  1.5419  1.0504 -0.4287
  884MOL0     H19292   6.100   0.908   8.018  4.3527 -2.5897 -0.8544
  884MOL0     H19293   6.206   0.880   8.150  0.3118  0.2376 -1.3682
  884MOL0     H19294   6.095   0.656   8.186 -2.5005  1.8372  1.3104
  884MOL0     H19295   5.968   0.702   8.071  0.5964 -1.8036 -2.2087
  884MOL0     H19296   6.266   0.669   8.018 -0.9782  0.7399  4.5086
  884MOL0     H19297   6.151   0.716   7.895 -1.3530  3.8476  2.4101
  884MOL0     H19298   6.191   0.466   7.870 -1.0998  0.7298 -1.2908
  884MOL0     H19299   6.032   0.503   7.930  0.3592 -6.1875  0.9227
  884MOL0     H19300   6.020   0.269   7.933  0.3442  0.4426  0.0901
  884MOL0     H19301   6.051   0.021   7.907 -0.1999  2.1955 -0.2409
  884MOL0     H19302   6.489  -0.293   7.870 -0.0458 -0.8226  3.3754
  884MOL0     H19303   6.509  -0.539   7.824  0.1041 -0.3287 -0.1854
  884MOL0     H19304   6.194  -0.773   7.998  1.8832  2.1943  0.5079
  884MOL0     H19305   6.126  -0.801   7.847  0.6033  1.0277  0.4749
  884MOL0     H19306   6.173  -1.017   7.962  3.8467 -3.4788  3.1293
  884MOL0     H19307   6.282  -1.011   7.816  1.2209  1.1284 -0.5716
  884MOL0     H19308   6.422  -1.100   7.993  3.1996  0.5979  2.4225
  884MOL0     H19309   6.476  -0.951   7.951  0.8018 -3.1673 -1.1444
  884MOL0     H19310   6.305  -1.055   8.182 -1.7642  2.3328  2.4102
  884MOL0     H19311   6.331  -0.884   8.176 -0.4060 -1.1277  4.0435
  884MOL0     H19312   6.545  -0.891   8.184 -2.9679  0.7944 -1.2433
  884MOL0     H19313   6.552  -1.080   8.188 -0.8936  0.0885 -0.2224
  884MOL0     H19314   6.439  -1.069   8.410 -1.1135  0.2076  1.0529
  884MOL0     H19315   6.598  -0.981   8.408 -0.4511  1.7854  1.4616
  884MOL0     H19316   6.319  -0.859   8.396  1.0201  0.4534 -0.9923
  884MOL0     H19317   6.462  -0.762   8.353  0.1072  0.4294  0.2990
  884MOL0     H19318   6.409  -0.891   8.629 -0.4261  0.2368  0.1068
  884MOL0     H19319   6.564  -0.809   8.567 -0.2963  1.6706 -1.3198
  884MOL0     H19320   6.083  -0.581   7.869  0.6945 -0.7845  2.1642
  884MOL0     H19321   6.060  -0.348   7.892 -2.0467 -2.2584 -2.3464
  884MOL0     H19322   6.369   0.040   8.185 -2.0113 -3.3673 -0.5036
  884MOL0     H19323   6.347   0.278   8.201  1.6833 -4.0178  1.0224
  884MOL0     H19324   6.114   2.051   8.623  0.8484  0.0652  0.9672
  884MOL0     H19325   5.951   2.228   8.584 -0.3866  1.5329  3.0026
  884MOL0     H19326   5.661   2.353   8.402 -0.2896 -0.6427  0.2536
  884MOL0     H19327   5.554   2.508   8.257  0.4952  1.5458  1.2897
  884MOL0     H19328   5.355   2.563   8.091  3.1341  0.4937 -0.2372
  884MOL0     H19329   5.452   2.663   8.170  0.4642 -3.6206 -2.5450
  884MOL0     H19330   5.156   2.737   8.137  1.0433 -0.6593 -1.2438
  884MOL0     H19331   5.263   2.757   7.998  3.7136 -1.3501 -0.6116
  884MOL0     H19332   5.408   2.900   8.174 -0.8092 -0.4648 -3.2688
  884MOL0     H19333   5.265   2.873   8.283  2.1900 -0.7665  1.9039
  884MOL0     H19334   5.237   2.997   8.011  0.0184  0.9707 -1.0507
  884MOL0     H19335   5.118   2.991   8.141 -0.0732 -1.1631 -2.2460
  884MOL0     H19336   5.317   3.340   8.254  1.0884 -0.1361 -1.0774
  884MOL0     H19337   5.207   2.497   8.488  0.7023  1.3707  3.1622
  884MOL0     H19338   5.288   2.239   8.696  2.6149 -0.4292 -0.0451
  884MOL0     H19339   5.356   2.383   8.790  1.5227 -0.6823 -0.8447
  884MOL0     H19340   5.206   2.393   8.705 -0.7400 -0.8802 -3.3054
  885MOL0     O19341  11.125   2.826   4.250  0.0990 -0.1393  0.0584
  885MOL0     C19342  11.231   2.763   4.253 -0.0668 -0.5998 -0.0682
  885MOL0     O19343  11.354   2.820   4.222 -0.7421  0.2478 -0.6257
  885MOL0     C19344  11.373   2.949   4.207  0.1544 -0.4316  1.0904
  885MOL0     C19345  11.306   3.023   4.111  0.0564  0.8918 -0.6587
  885MOL0     C19346  11.319   3.161   4.107  0.4160  0.2409  0.3191
  885MOL0     C19347  11.424   3.227   4.185  0.3760 -0.1009  0.1489
  885MOL0     O19348  11.455   3.352   4.165  0.4035 -0.4158  0.5296
  885MOL0     C19349  11.422   3.411   4.038 -0.1617  0.1219  0.1786
  885MOL0     C19350  11.306   3.506   4.044  0.0486  0.5283 -0.9589
  885MOL0     C19351  11.337   3.615   4.146 -0.3212 -0.6003  0.0407
  885MOL0     C19352  11.223   3.718   4.155 -0.1956 -0.0194 -0.0700
  885MOL0     C19353  11.154   3.767   4.034 -0.5914  0.0047 -0.3213
  885MOL0     C19354  11.058   3.884   4.071 -0.0227  0.1742 -0.3580
  885MOL0     C19355  10.991   3.941   3.959 -0.2734  0.3010  0.8465
  885MOL0     C19356  10.873   4.025   4.004  0.2981  0.4188 -0.3575
  885MOL0     N19357  10.802   4.083   3.894  0.1265 -0.0038  0.4242
  885MOL0     C19358  10.662   4.104   3.909  0.1029  0.1704  0.2963
  885MOL0     C19359  10.632   4.208   3.829 -0.8170  0.7658 -0.4781
  885MOL0     C19360  10.490   4.260   3.797 -1.0038  0.0918 -0.3312
  885MOL0     C19361  10.499   4.417   3.756  0.5916  1.1075 -0.1107
  885MOL0     C19362  10.376   4.504   3.792  0.7497 -0.4429  0.3203
  885MOL0     C19363  10.257   4.472   3.705 -0.2369  0.3192  0.9574
  885MOL0     O19364  10.276   4.485   3.560 -0.0096 -0.1977 -0.0750
  885MOL0     C19365  10.172   4.474   3.477  0.8563  0.1310 -0.3768
  885MOL0     C19366  10.188   4.516   3.344  0.1867  0.2872  0.2109
  885MOL0     C19367  10.080   4.504   3.253  0.7642 -0.6429 -0.0287
  885MOL0     C19368   9.949   4.451   3.297  0.2522 -0.0548  0.0534
  885MOL0     C19369   9.830   4.459   3.203  0.0268  0.2720  0.2673
  885MOL0     O19370   9.727   4.371   3.239  0.7580 -0.2396 -0.6335
  885MOL0     C19371   9.623   4.354   3.144 -0.1560  0.9572 -1.0605
  885MOL0     C19372   9.637   4.293   3.014  1.1456  0.6478  0.1834
  885MOL0     C19373   9.522   4.280   2.939 -0.2251  0.4941  1.3721
  885MOL0     C19374   9.397   4.328   2.980 -0.8957 -1.2239 -0.1669
  885MOL0     O19375   9.286   4.310   2.903  0.3581  0.8608  0.3262
  885MOL0     C19376   9.289   4.331   2.768 -0.2159 -0.8147 -0.8008
  885MOL0     C19377   9.153   4.375   2.730 -0.5144  0.1211  0.1299
  885MOL0     C19378   9.110   4.511   2.792  0.0145 -0.1045  0.8791
  885MOL0     C19379   9.205   4.621   2.777  0.3917 -0.2898 -0.5596
  885MOL0     C19380   9.135   4.751   2.801 -0.6531 -0.3488  0.0311
  885MOL0     C19381   9.205   4.876   2.739 -0.1845  0.0563 -0.1431
  885MOL0     C19382   9.140   4.999   2.790  0.1727  0.5178 -0.4193
  885MOL0     C19383   9.164   5.114   2.695  0.4785 -0.0083  0.7915
  885MOL0    Cl19384   9.319   5.202   2.723  0.2883  0.1721 -0.2031
  885MOL0     C19385   9.380   4.395   3.103 -1.5215  0.4328 -0.3053
  885MOL0     C19386   9.493   4.399   3.187 -0.2622  0.3500  0.0563
  885MOL0     O19387   9.833   4.523   3.103 -0.3215 -0.0848 -0.4418
  885MOL0     C19388   9.931   4.418   3.435 -0.2882  0.2169 -0.4230
  885MOL0     C19389  10.042   4.431   3.520 -0.7614 -0.4683 -1.0757
  885MOL0     N19390  10.750   4.267   3.784  0.8716  0.5414  0.6353
  885MOL0     N19391  10.844   4.178   3.806 -0.1793 -0.3923  0.4750
  885MOL0     C19392  11.506   3.153   4.264  0.9312  0.2611 -0.5736
  885MOL0     C19393  11.470   3.017   4.281 -0.5057 -0.1456 -0.1076
  885MOL0     C19394  11.221   2.624   4.296 -0.5203  0.1242  0.0219
  885MOL0     C19395  11.334   2.553   4.330 -0.7444 -0.7971  1.0476
  885MOL0     C19396  11.331   2.429   4.389 -0.3641 -0.5113 -0.0634
  885MOL0     C19397  11.225   2.357   4.399  0.2725  0.0293  0.5537
  885MOL0     O19398  11.237   2.227   4.437  0.1216 -0.4816 -0.7521
  885MOL0     C19399  11.119   2.147   4.476  1.4600 -0.0308 -0.4810
  885MOL0     C19400  11.054   2.175   4.613  0.0305  0.4902  0.4673
  885MOL0     C19401  10.929   2.082   4.622 -0.3562 -0.3494 -0.3148
  885MOL0     C19402  10.845   2.092   4.752  0.5280  0.0750  0.8487
  885MOL0     C19403  10.899   2.003   4.853 -0.3359 -0.0081 -0.5448
  885MOL0     C19404  10.932   1.916   4.927  0.9728 -0.3289  0.3228
  885MOL0     C19405  11.102   2.422   4.363  0.3771  0.1295 -0.3541
  885MOL0     C19406  11.101   2.550   4.318  0.4823 -0.6865 -0.7543
  885MOL0     C19407  10.961   2.604   4.305 -0.3563 -0.4620  0.6487
  885MOL0     H19408  11.228   2.975   4.053  0.3836  1.7997 -1.8893
  885MOL0     H19409  11.247   3.207   4.041 -0.5716 -3.9009 -1.8337
  885MOL0     H19410  11.513   3.462   4.003  1.4333 -3.3094 -1.1543
  885MOL0     H19411  11.417   3.333   3.962  1.8499  1.4539 -1.4356
  885MOL0     H19412  11.223   3.446   4.082  0.8923 -0.2990 -0.3740
  885MOL0     H19413  11.287   3.551   3.946 -2.8239 -1.5054 -1.4756
  885MOL0     H19414  11.439   3.653   4.135 -0.7056  1.1447  1.9146
  885MOL0     H19415  11.340   3.573   4.247 -0.1295  1.4319  0.9198
  885MOL0     H19416  11.158   3.666   4.226  3.8477 -0.7864  3.4891
  885MOL0     H19417  11.265   3.800   4.214 -1.8523 -0.2066  1.4565
  885MOL0     H19418  11.219   3.802   3.953 -2.8041  0.8898 -1.8037
  885MOL0     H19419  11.098   3.688   3.982 -0.0947 -0.5601 -0.0140
  885MOL0     H19420  10.986   3.833   4.135  0.5049  0.5991  0.5835
  885MOL0     H19421  11.106   3.963   4.129  1.6929 -0.9281 -0.1917
  885MOL0     H19422  10.965   3.857   3.894 -0.2520 -0.2541  1.5322
  885MOL0     H19423  11.053   4.007   3.899 -2.9670 -0.0615 -2.7064
  885MOL0     H19424  10.813   3.969   4.076 -0.4172  2.8712  1.0605
  885MOL0     H19425  10.908   4.106   4.068 -1.1799  1.9245 -1.3850
  885MOL0     H19426  10.593   4.047   3.971  0.2936 -3.0943 -2.1852
  885MOL0     H19427  10.455   4.201   3.711 -1.5066  0.7598 -0.5923
  885MOL0     H19428  10.423   4.252   3.883 -0.1628  0.2424  0.3537
  885MOL0     H19429  10.588   4.465   3.798  1.7844 -0.6478 -0.5047
  885MOL0     H19430  10.510   4.419   3.647  1.3840 -0.2997 -0.0737
  885MOL0     H19431  10.411   4.602   3.759  0.4942 -0.5636 -0.3336
  885MOL0     H19432  10.344   4.499   3.896 -0.8911 -1.0848 -0.1927
  885MOL0     H19433  10.173   4.535   3.736 -1.1459 -0.7426  0.7315
  885MOL0     H19434  10.238   4.368   3.736  0.5117 -0.6109 -1.4718
  885MOL0     H19435  10.285   4.553   3.312  0.8040 -1.3707  0.0880
  885MOL0     H19436  10.089   4.539   3.151  1.7161  0.1873  0.3322
  885MOL0     H19437   9.726   4.248   2.973  2.9213  1.5438  2.7522
  885MOL0     H19438   9.522   4.220   2.849 -0.6611 -0.5069  2.0217
  885MOL0     H19439   9.360   4.413   2.751  0.7372 -1.4154  0.1208
  885MOL0     H19440   9.330   4.246   2.713  4.4452 -0.1871  1.2541
  885MOL0     H19441   9.158   4.370   2.621  4.6935  0.8873  0.0991
  885MOL0     H19442   9.089   4.296   2.771 -2.2075  0.5254 -1.5978
  885MOL0     H19443   9.035   4.537   2.716  1.6282 -1.8826 -1.4774
  885MOL0     H19444   9.088   4.483   2.895  1.5175 -4.4057  0.2560
  885MOL0     H19445   9.243   4.618   2.675 -1.5285 -2.2880 -1.3140
  885MOL0     H19446   9.284   4.619   2.852  0.1341  0.1291 -0.2753
  885MOL0     H19447   9.139   4.761   2.910 -0.1096 -1.1644  0.0982
  885MOL0     H19448   9.033   4.754   2.763 -0.0641  1.0371 -1.5400
  885MOL0     H19449   9.314   4.872   2.748 -0.1177 -0.3581 -1.0000
  885MOL0     H19450   9.187   4.857   2.633  1.3009 -6.1675  0.2927
  885MOL0     H19451   9.175   5.034   2.887  4.3480 -0.1733 -1.4899
  885MOL0     H19452   9.030   4.997   2.795 -0.0048  4.6782  0.6909
  885MOL0     H19453   9.158   5.080   2.591  2.2200  2.9872 -0.4236
  885MOL0     H19454   9.091   5.196   2.698  1.8359  1.4229 -1.5891
  885MOL0     H19455   9.292   4.455   3.126 -0.8334  1.7778 -1.0549
  885MOL0     H19456   9.477   4.455   3.279  1.0473  1.0291 -0.1090
  885MOL0     H19457   9.839   4.379   3.478  0.3801  0.0465  0.9062
  885MOL0     H19458  10.023   4.407   3.624  1.0975  3.6295  0.3783
  885MOL0     H19459  11.596   3.187   4.313  1.2982  0.1111 -1.1264
  885MOL0     H19460  11.525   2.966   4.359 -0.7773  1.3516  1.1281
  885MOL0     H19461  11.427   2.607   4.342 -0.8122 -0.3597 -0.2224
  885MOL0     H19462  11.415   2.385   4.443 -0.9757 -2.3964 -0.5591
  885MOL0     H19463  11.146   2.041   4.485  0.3401 -0.3267 -0.4785
  885MOL0     H19464  11.052   2.159   4.391  2.5272 -0.3158 -1.3932
  885MOL0     H19465  11.023   2.280   4.611  2.1424  1.1521 -0.4362
  885MOL0     H19466  11.136   2.158   4.684  2.0032  1.9208 -1.3559
  885MOL0     H19467  10.958   1.978   4.606 -0.2398  0.0342 -2.9783
  885MOL0     H19468  10.870   2.113   4.536 -1.7860  0.7015  0.9860
  885MOL0     H19469  10.842   2.195   4.788 -0.1917  1.3033 -2.3773
  885MOL0     H19470  10.747   2.047   4.735  2.4564 -3.3026 -3.2141
  885MOL0     H19471  10.968   1.837   4.989 -0.4134 -2.1099 -1.0499
  885MOL0     H19472  11.010   2.366   4.376  0.8092  0.1006  4.0429
  885MOL0     H19473  10.935   2.651   4.401  3.0237 -2.0494  2.5202
  885MOL0     H19474  10.945   2.671   4.220 -1.3721  1.8786  2.5610
  885MOL0     H19475  10.892   2.519   4.301 -0.4577 -0.4921  2.3500
  886MOL0     O19476   1.412   7.658   1.775 -0.1615 -0.4586 -0.0994
  886MOL0     C19477   1.403   7.560   1.698 -0.1139 -0.0546 -1.2253
  886MOL0     O19478   1.347   7.436   1.730  0.4322 -0.1693 -0.3238
  886MOL0     C19479   1.304   7.392   1.853 -0.4618 -0.6165  0.0256
  886MOL0     C19480   1.296   7.465   1.973  0.6489 -0.2391 -0.2436
  886MOL0     C19481   1.260   7.393   2.086 -1.4485  0.6632  0.5941
  886MOL0     C19482   1.248   7.257   2.090  0.8546  0.2651  0.2245
  886MOL0     O19483   1.226   7.180   2.202 -0.8656 -0.6662 -0.6653
  886MOL0     C19484   1.313   7.073   2.221  0.4427 -0.1810  0.2506
  886MOL0     C19485   1.256   6.972   2.319  0.0450  0.4430 -0.5064
  886MOL0     C19486   1.125   6.904   2.264  0.1841  0.0386 -0.1867
  886MOL0     C19487   1.078   6.788   2.355 -0.1756  0.4768  0.0946
  886MOL0     C19488   1.039   6.671   2.275 -0.2970  0.4667  0.0320
  886MOL0     C19489   0.987   6.548   2.349 -0.0648  0.8195 -0.4622
  886MOL0     C19490   1.050   6.506   2.480  0.2611 -0.1318 -0.0960
  886MOL0     C19491   0.981   6.368   2.525  0.3492  0.2223  0.9197
  886MOL0     N19492   1.027   6.305   2.652 -0.0315 -0.6925  0.1135
  886MOL0     C19493   0.996   6.182   2.706  0.1629 -0.1970  0.1356
  886MOL0     C19494   1.061   6.193   2.832 -0.3609 -0.2468  0.1541
  886MOL0     C19495   1.078   6.081   2.928 -0.4275  0.5985 -0.1002
  886MOL0     C19496   0.980   6.069   3.045 -0.5993  0.7214 -0.6181
  886MOL0     C19497   1.008   5.930   3.105  0.3683 -0.9195 -0.2643
  886MOL0     C19498   0.940   5.907   3.230  0.3728 -0.8486 -0.4374
  886MOL0     O19499   0.989   5.801   3.304  0.1000  1.0192 -0.2670
  886MOL0     C19500   0.938   5.787   3.429  0.9589  0.1266  1.2226
  886MOL0     C19501   1.016   5.713   3.517  0.1475 -0.4417  0.5246
  886MOL0     C19502   0.974   5.663   3.643 -1.7444  0.3763 -0.3324
  886MOL0     C19503   0.840   5.693   3.676 -0.1743  0.4833  0.8799
  886MOL0     C19504   0.789   5.627   3.799  0.0496  0.1073 -0.3556
  886MOL0     O19505   0.650   5.644   3.822  0.6444 -0.5864 -0.4894
  886MOL0     C19506   0.603   5.604   3.939  1.2000  0.3383 -0.4931
  886MOL0     C19507   0.586   5.466   3.972 -0.0462 -0.5681  1.0053
  886MOL0     C19508   0.561   5.427   4.092  0.6450 -0.1067 -0.6473
  886MOL0     C19509   0.537   5.523   4.192  0.1000 -0.7573 -0.8620
  886MOL0     O19510   0.520   5.471   4.313  0.4242  0.5067  0.7854
  886MOL0     C19511   0.445   5.548   4.399 -0.3210 -0.1745  0.3615
  886MOL0     C19512   0.420   5.484   4.535  0.2269  0.9302 -0.3173
  886MOL0     C19513   0.550   5.431   4.604  0.5836 -0.0494  0.1373
  886MOL0     C19514   0.525   5.413   4.757 -0.7535 -0.2296  0.7734
  886MOL0     C19515   0.609   5.294   4.811  0.3053 -1.2212  0.0201
  886MOL0     C19516   0.764   5.307   4.793 -0.0844  0.0069  0.8316
  886MOL0     C19517   0.832   5.182   4.849  0.1624 -0.2124 -0.0007
  886MOL0     C19518   0.978   5.214   4.865  0.4170 -0.6193  0.2715
  886MOL0    Cl19519   1.005   5.325   5.006 -0.0235 -0.4734  0.2663
  886MOL0     C19520   0.537   5.659   4.158 -0.1518 -0.4442  0.3106
  886MOL0     C19521   0.577   5.701   4.038  0.2834  0.3758  0.4766
  886MOL0     O19522   0.870   5.581   3.884 -0.7174 -0.2019 -0.4438
  886MOL0     C19523   0.755   5.772   3.589 -0.0985  0.8890  0.0020
  886MOL0     C19524   0.810   5.824   3.470 -0.8642  0.5417 -0.2704
  886MOL0     N19525   1.115   6.314   2.855 -0.5843 -0.3142 -0.8196
  886MOL0     N19526   1.086   6.382   2.752  0.4122 -0.4438 -1.0955
  886MOL0     C19527   1.235   7.194   1.963  0.7092  0.0623  0.1045
  886MOL0     C19528   1.261   7.264   1.849 -0.6887  1.2485 -0.3912
  886MOL0     C19529   1.455   7.568   1.561  0.7366 -0.6395 -0.7618
  886MOL0     C19530   1.595   7.560   1.538  0.0463 -0.1554  0.2078
  886MOL0     C19531   1.653   7.548   1.409  0.5773 -0.6166 -0.0983
  886MOL0     C19532   1.563   7.569   1.302 -0.3843  0.1394 -0.1684
  886MOL0     O19533   1.627   7.592   1.180 -0.0525  0.1036  0.1600
  886MOL0     C19534   1.536   7.651   1.074 -0.3785  0.1784 -0.4376
  886MOL0     C19535   1.626   7.732   0.976  0.3641  0.7275 -0.2093
  886MOL0     C19536   1.542   7.790   0.858 -0.6371  0.0313  0.2529
  886MOL0     C19537   1.638   7.878   0.770  0.0094  0.2058 -0.0956
  886MOL0     C19538   1.561   7.919   0.654 -0.6797  0.6699  0.4877
  886MOL0     C19539   1.509   7.960   0.554  0.0885  0.9204 -0.9012
  886MOL0     C19540   1.423   7.563   1.328 -0.7866  0.6949  0.2484
  886MOL0     C19541   1.361   7.561   1.456  0.1629  0.5367 -0.6550
  886MOL0     C19542   1.213   7.551   1.471  0.0710 -0.1311 -0.1781
  886MOL0     H19543   1.325   7.570   1.979  1.8363 -0.5597 -0.1824
  886MOL0     H19544   1.264   7.461   2.170  0.4022  3.0850 -1.3172
  886MOL0     H19545   1.334   7.013   2.132  0.3997 -0.8838  0.7095
  886MOL0     H19546   1.410   7.112   2.255  2.3942  0.5687 -5.1841
  886MOL0     H19547   1.220   7.012   2.415 -0.1428  0.0998 -0.4343
  886MOL0     H19548   1.325   6.888   2.332 -0.4591  0.2760  1.5435
  886MOL0     H19549   1.131   6.872   2.160 -0.3350 -2.3865  0.4737
  886MOL0     H19550   1.048   6.981   2.265  0.5670  0.4332 -0.6272
  886MOL0     H19551   1.163   6.759   2.418 -1.5719 -0.1158  1.8088
  886MOL0     H19552   0.990   6.820   2.412  0.3562 -1.2809  2.0213
  886MOL0     H19553   0.970   6.703   2.197 -0.9264  0.9210  0.7550
  886MOL0     H19554   1.130   6.647   2.219  1.3414  0.0976  2.6323
  886MOL0     H19555   0.882   6.571   2.365 -0.0476  1.4375 -1.1824
  886MOL0     H19556   0.986   6.465   2.277  3.8515 -0.4697  0.7119
  886MOL0     H19557   1.026   6.584   2.552  0.4589 -1.1700  1.1317
  886MOL0     H19558   1.159   6.496   2.480  0.4570  1.7066  0.1164
  886MOL0     H19559   0.873   6.384   2.535  0.5110  0.9907  1.4561
  886MOL0     H19560   0.994   6.306   2.436 -2.0130  0.0740  0.5905
  886MOL0     H19561   0.947   6.101   2.654 -2.1569  1.9621 -1.2484
  886MOL0     H19562   1.066   5.993   2.865 -0.6889  1.6253 -1.5445
  886MOL0     H19563   1.181   6.070   2.963 -0.7829 -1.3064  0.4541
  886MOL0     H19564   0.989   6.155   3.113 -1.2270  0.0968  0.2880
  886MOL0     H19565   0.887   6.080   2.988  0.5092  0.8885 -2.4282
  886MOL0     H19566   1.115   5.931   3.128  0.3138 -0.4246 -0.0153
  886MOL0     H19567   0.975   5.851   3.037 -0.3423 -0.3501 -0.5890
  886MOL0     H19568   0.832   5.907   3.211  0.3770  1.5638 -0.7996
  886MOL0     H19569   0.967   6.002   3.277  0.0893  0.2714 -2.4511
  886MOL0     H19570   1.117   5.692   3.482  0.3489  1.8723 -0.4188
  886MOL0     H19571   1.044   5.605   3.703 -1.7456 -1.4048 -1.9482
  886MOL0     H19572   0.606   5.386   3.901  2.0591 -0.1319  1.0436
  886MOL0     H19573   0.551   5.324   4.122 -2.6384  1.1208  3.2476
  886MOL0     H19574   0.508   5.634   4.424  0.5928 -0.7731  0.1488
  886MOL0     H19575   0.348   5.565   4.353  0.5914 -0.5133 -1.7730
  886MOL0     H19576   0.385   5.555   4.610  1.3325 -1.2742  2.4984
  886MOL0     H19577   0.347   5.404   4.519  1.2468  0.3255 -2.3880
  886MOL0     H19578   0.584   5.342   4.550  1.3938 -0.5078  1.3632
  886MOL0     H19579   0.625   5.508   4.585  0.4162  0.4818  1.5637
  886MOL0     H19580   0.418   5.406   4.775 -0.6772  2.3396  2.6786
  886MOL0     H19581   0.571   5.498   4.808 -1.1123 -0.7257  1.9462
  886MOL0     H19582   0.560   5.199   4.788  0.3728 -1.4426  0.7489
  886MOL0     H19583   0.590   5.307   4.918 -0.8896 -0.5024 -0.2577
  886MOL0     H19584   0.785   5.318   4.686 -2.3642 -1.1475  0.1971
  886MOL0     H19585   0.800   5.398   4.841  1.5449  0.8881 -1.8194
  886MOL0     H19586   0.809   5.098   4.783  0.9838 -0.1647 -0.3574
  886MOL0     H19587   0.787   5.179   4.949 -2.3014  2.5123 -0.8925
  886MOL0     H19588   1.026   5.116   4.871 -0.2954 -0.9873  0.1141
  886MOL0     H19589   1.013   5.267   4.776  0.6146  0.6191  1.0581
  886MOL0     H19590   0.502   5.740   4.221 -3.4859 -0.1565 -1.6885
  886MOL0     H19591   0.577   5.810   4.037 -3.5761  0.5915  2.6123
  886MOL0     H19592   0.654   5.800   3.618 -0.4207 -0.3647  0.1918
  886MOL0     H19593   0.749   5.874   3.395 -0.0319  1.4447 -0.3640
  886MOL0     H19594   1.199   7.093   1.950  0.1305  0.3453 -0.5543
  886MOL0     H19595   1.243   7.211   1.755 -4.2769  0.1285  0.7204
  886MOL0     H19596   1.664   7.568   1.622  1.0206  1.1617 -0.6655
  886MOL0     H19597   1.758   7.546   1.382  0.2784  0.2740 -1.4197
  886MOL0     H19598   1.465   7.723   1.116 -0.9201  0.3650 -1.6142
  886MOL0     H19599   1.491   7.568   1.020  0.8080 -1.1809  0.5985
  886MOL0     H19600   1.690   7.658   0.926  0.3642  2.4038 -2.8717
  886MOL0     H19601   1.673   7.812   1.034  0.0577  1.2009 -0.6025
  886MOL0     H19602   1.464   7.849   0.908  0.4178  0.1362  1.8388
  886MOL0     H19603   1.492   7.710   0.802  2.4552 -2.7574  1.1332
  886MOL0     H19604   1.668   7.969   0.824 -2.7277  1.9202 -1.2054
  886MOL0     H19605   1.721   7.817   0.733 -1.0048 -0.7969 -0.7865
  886MOL0     H19606   1.455   7.983   0.463 -1.7322  0.7528  0.0820
  886MOL0     H19607   1.361   7.557   1.240  2.0563 -3.4091 -1.8654
  886MOL0     H19608   1.173   7.583   1.375 -0.6382  3.0415  1.0645
  886MOL0     H19609   1.175   7.451   1.496 -1.3889  1.1990  3.6309
  886MOL0     H19610   1.184   7.628   1.543  0.5194 -0.3200  0.2168
  887MOL0     O19611   0.857   8.758   1.295  0.4903  0.6393  0.6353
  887MOL0     C19612   0.837   8.713   1.183 -0.9085  0.5974 -0.1577
  887MOL0     O19613   0.929   8.697   1.084  0.3583  0.6903 -0.4911
  887MOL0     C19614   1.066   8.725   1.083 -0.3880 -0.2541  0.9662
  887MOL0     C19615   1.148   8.675   0.979  0.0679  0.0388 -0.3618
  887MOL0     C19616   1.284   8.687   0.984  0.3322  0.1288  0.6018
  887MOL0     C19617   1.347   8.757   1.081  0.4863  0.8918  0.3382
  887MOL0     O19618   1.489   8.752   1.073  0.0479  0.1057 -1.0640
  887MOL0     C19619   1.555   8.775   1.196 -0.1665  0.7746 -0.1095
  887MOL0     C19620   1.702   8.780   1.165 -0.3049 -0.3193  0.0354
  887MOL0     C19621   1.763   8.819   1.291  0.0296 -0.0067  0.1590
  887MOL0     C19622   1.906   8.838   1.276 -0.2912 -0.2466  0.7703
  887MOL0     C19623   1.976   8.896   1.396  0.1928 -0.0494 -0.2199
  887MOL0     C19624   1.945   9.049   1.404 -0.0085 -0.2519  0.6399
  887MOL0     C19625   2.035   9.115   1.503  0.2720  0.4728 -0.5120
  887MOL0     C19626   2.001   9.104   1.652 -0.8956  1.0356  0.5158
  887MOL0     N19627   2.091   9.198   1.723  0.2445 -0.4070 -0.1304
  887MOL0     C19628   2.105   9.339   1.712 -0.2265  0.6018  0.2935
  887MOL0     C19629   2.215   9.363   1.782 -0.3068  0.2331 -1.0887
  887MOL0     C19630   2.277   9.498   1.802 -0.1858 -0.0800 -0.5278
  887MOL0     C19631   2.419   9.501   1.752 -1.1780 -0.3889 -0.8574
  887MOL0     C19632   2.493   9.624   1.807 -0.3531  1.0245 -0.1026
  887MOL0     C19633   2.641   9.618   1.753  0.1034 -0.4964 -0.4542
  887MOL0     O19634   2.729   9.727   1.795 -0.6350 -0.1805  0.5221
  887MOL0     C19635   2.756   9.765   1.924  0.2608  0.4719 -1.3177
  887MOL0     C19636   2.775   9.675   2.027 -0.4589 -0.3815  0.4143
  887MOL0     C19637   2.814   9.719   2.154  0.2582  0.3517 -0.1931
  887MOL0     C19638   2.814   9.857   2.182  0.6572 -0.2337 -0.6416
  887MOL0     C19639   2.830   9.909   2.319 -0.5098 -0.5814 -0.9850
  887MOL0     O19640   2.915  10.016   2.342 -0.1903  0.9200  0.3866
  887MOL0     C19641   2.979  10.025   2.465 -0.6903  0.1713 -0.4699
  887MOL0     C19642   3.118  10.006   2.479 -0.6224 -0.2242 -0.3883
  887MOL0     C19643   3.177  10.030   2.599  0.4272 -0.0231 -1.1425
  887MOL0     C19644   3.100  10.062   2.714  0.2055 -0.1777  0.0269
  887MOL0     O19645   3.158  10.109   2.828 -0.0853  0.2849  0.4041
  887MOL0     C19646   3.291  10.074   2.870 -0.4146 -0.1986 -0.0292
  887MOL0     C19647   3.291  10.117   3.019  0.3149 -0.3697  0.2035
  887MOL0     C19648   3.339  10.256   3.055 -0.1681 -0.5951  0.0361
  887MOL0     C19649   3.305  10.283   3.201 -0.4898  0.0707 -0.8737
  887MOL0     C19650   3.329  10.439   3.226  0.3313 -0.2631 -0.9295
  887MOL0     C19651   3.275  10.480   3.374  0.0932  0.4978  0.5098
  887MOL0     C19652   3.310  10.630   3.385  0.1733 -0.3184 -0.6161
  887MOL0     C19653   3.260  10.688   3.520 -0.2896 -0.1466  1.2402
  887MOL0    Cl19654   3.340  10.596   3.655 -0.3508 -0.5715 -0.0382
  887MOL0     C19655   2.965  10.081   2.699 -1.0948  0.0717  0.2246
  887MOL0     C19656   2.904  10.053   2.578  0.7751 -0.7240 -0.2598
  887MOL0     O19657   2.781   9.837   2.402  0.5865  0.3882 -0.2019
  887MOL0     C19658   2.780   9.949   2.079 -0.2054 -0.4777  0.3532
  887MOL0     C19659   2.751   9.898   1.954  0.6423 -0.5431  0.8857
  887MOL0     N19660   2.254   9.253   1.855  0.6311  0.3552  0.1515
  887MOL0     N19661   2.173   9.148   1.818  0.4443 -0.7720 -1.4758
  887MOL0     C19662   1.264   8.821   1.185  0.3431 -0.4941  0.4099
  887MOL0     C19663   1.128   8.797   1.184  0.6486 -0.3164 -0.0076
  887MOL0     C19664   0.708   8.663   1.149  0.0274 -0.2951  0.3755
  887MOL0     C19665   0.705   8.623   1.009 -1.1455  0.2690 -0.0482
  887MOL0     C19666   0.580   8.595   0.953 -0.0935 -0.2868 -0.1824
  887MOL0     C19667   0.462   8.593   1.022  0.8322 -0.3572 -0.0374
  887MOL0     O19668   0.355   8.583   0.943  0.1650  0.3041  0.1964
  887MOL0     C19669   0.316   8.714   0.896  0.4154  0.0416 -0.1522
  887MOL0     C19670   0.178   8.698   0.823 -0.1414  0.1434  0.2744
  887MOL0     C19671   0.184   8.638   0.683 -0.0709 -0.7376  0.0098
  887MOL0     C19672   0.045   8.629   0.631 -0.1214 -0.0244  0.1449
  887MOL0     C19673  -0.022   8.511   0.679 -0.3007 -0.3421  0.0308
  887MOL0     C19674  -0.099   8.415   0.709 -0.1916 -0.5638  0.3966
  887MOL0     C19675   0.470   8.615   1.164 -0.0117  1.0305  0.1935
  887MOL0     C19676   0.589   8.650   1.231  0.4892  0.1529  0.6769
  887MOL0     C19677   0.585   8.683   1.378 -0.1773 -0.3245 -0.0439
  887MOL0     H19678   1.092   8.621   0.904 -1.5605  0.3959  0.5399
  887MOL0     H19679   1.347   8.645   0.906 -1.2198 -2.1863  0.5132
  887MOL0     H19680   1.518   8.866   1.245 -1.2499 -0.1842  0.9296
  887MOL0     H19681   1.532   8.684   1.253  0.6706 -0.4477 -1.6261
  887MOL0     H19682   1.728   8.848   1.083 -3.8222  2.3617  0.8946
  887MOL0     H19683   1.740   8.679   1.147 -3.0063 -0.9213 -3.3033
  887MOL0     H19684   1.767   8.750   1.376 -0.6027 -0.9279 -0.5384
  887MOL0     H19685   1.734   8.919   1.325 -1.8052 -1.3214  2.8934
  887MOL0     H19686   1.952   8.743   1.250 -2.7078 -0.7340 -2.2479
  887MOL0     H19687   1.923   8.893   1.183  0.5285  2.8192  2.5749
  887MOL0     H19688   1.944   8.850   1.490  1.4505  1.7723  1.1926
  887MOL0     H19689   2.085   8.887   1.402  0.2686  0.7843 -0.1879
  887MOL0     H19690   1.964   9.092   1.305 -1.3143  0.8157  0.8159
  887MOL0     H19691   1.846   9.077   1.441 -0.0550 -0.4533  0.6678
  887MOL0     H19692   2.025   9.219   1.471  0.4142  0.1942 -1.4977
  887MOL0     H19693   2.138   9.084   1.488  0.1788  0.8875 -2.1677
  887MOL0     H19694   1.898   9.134   1.674 -1.1143 -1.2053  3.1170
  887MOL0     H19695   2.001   9.002   1.691  0.8975  1.2160  1.1024
  887MOL0     H19696   2.055   9.407   1.644 -0.3126 -1.2418 -1.5902
  887MOL0     H19697   2.229   9.576   1.742 -0.6103  0.4926  0.5312
  887MOL0     H19698   2.270   9.512   1.910  0.4816 -3.8498  0.1307
  887MOL0     H19699   2.475   9.421   1.801 -1.4575 -0.7183 -1.0701
  887MOL0     H19700   2.427   9.493   1.644  1.8629  3.2211 -1.0569
  887MOL0     H19701   2.501   9.629   1.916 -1.3596  0.1644  0.0314
  887MOL0     H19702   2.446   9.714   1.767  1.1716  1.3271 -1.2960
  887MOL0     H19703   2.636   9.617   1.644 -1.5675  2.6263 -0.5085
  887MOL0     H19704   2.691   9.526   1.786  1.3530  0.8544  1.6967
  887MOL0     H19705   2.777   9.570   1.996 -2.8795  0.9522 -5.6988
  887MOL0     H19706   2.814   9.644   2.233  1.8919 -1.1771 -1.5403
  887MOL0     H19707   3.180   9.986   2.392  1.4842 -1.1347  1.2318
  887MOL0     H19708   3.283  10.008   2.605 -0.1420 -2.7231  1.1085
  887MOL0     H19709   3.305   9.965   2.865  1.8979  0.0716 -0.0525
  887MOL0     H19710   3.369  10.132   2.821  0.7449 -2.6675 -1.2882
  887MOL0     H19711   3.194  10.108   3.069  2.2823  2.7486  5.4001
  887MOL0     H19712   3.365  10.051   3.066  1.6436 -1.0619 -2.6344
  887MOL0     H19713   3.443  10.275   3.026 -0.5253  1.2565 -0.1365
  887MOL0     H19714   3.276  10.311   2.985  0.3316 -1.9848 -1.5924
  887MOL0     H19715   3.377  10.238   3.270 -0.3658  3.5214  1.5420
  887MOL0     H19716   3.204  10.251   3.227 -0.0131 -2.6088 -1.9767
  887MOL0     H19717   3.283  10.502   3.151  2.0852  1.8336 -0.3487
  887MOL0     H19718   3.436  10.462   3.234  0.5936 -1.9990  2.3875
  887MOL0     H19719   3.168  10.455   3.372  0.4843 -1.3039  0.9674
  887MOL0     H19720   3.314  10.433   3.464 -1.1180 -2.9653 -0.6209
  887MOL0     H19721   3.268  10.692   3.305 -0.5598 -3.7598 -3.0924
  887MOL0     H19722   3.419  10.637   3.378  0.1449 -0.3462 -1.1438
  887MOL0     H19723   3.288  10.793   3.535 -1.7439  0.8130 -1.8820
  887MOL0     H19724   3.153  10.671   3.531  0.1688 -3.4536  1.6444
  887MOL0     H19725   2.919  10.129   2.785  1.8109  2.8045  0.4613
  887MOL0     H19726   2.795  10.060   2.578  0.7851  3.7762  2.9519
  887MOL0     H19727   2.769  10.056   2.098  0.8313 -0.6927  2.4952
  887MOL0     H19728   2.732   9.978   1.884  0.0804 -0.6827  0.8766
  887MOL0     H19729   1.310   8.874   1.267 -1.4344  0.4643  0.8494
  887MOL0     H19730   1.072   8.818   1.275 -1.4305 -2.4119 -0.6918
  887MOL0     H19731   0.783   8.603   0.936 -1.8838 -1.1237 -0.4966
  887MOL0     H19732   0.581   8.567   0.848  0.7508  0.0606 -0.2775
  887MOL0     H19733   0.391   8.759   0.831  0.7736  0.1559  0.3382
  887MOL0     H19734   0.302   8.778   0.983  1.3761 -2.2874  1.8119
  887MOL0     H19735   0.128   8.796   0.820 -1.1106 -0.3267  0.6249
  887MOL0     H19736   0.125   8.620   0.879  0.6249  0.7795  1.9784
  887MOL0     H19737   0.240   8.546   0.669  1.6866  0.4233 -0.9411
  887MOL0     H19738   0.232   8.708   0.613 -2.1143 -0.4191 -1.1607
  887MOL0     H19739  -0.023   8.714   0.622  0.2921  0.1969 -1.1822
  887MOL0     H19740   0.062   8.606   0.525  0.6015  3.6407 -0.7076
  887MOL0     H19741  -0.159   8.328   0.727 -0.2139 -0.6374 -0.0076
  887MOL0     H19742   0.375   8.612   1.217 -1.0239 -2.4206 -1.5584
  887MOL0     H19743   0.635   8.780   1.379  2.9721 -1.8091 -1.0958
  887MOL0     H19744   0.485   8.679   1.421 -0.6033 -0.6569 -1.0161
  887MOL0     H19745   0.655   8.624   1.438  0.9993 -0.8821 -1.8746
  888MOL0     O19746   5.645   9.843   8.454  0.0829 -0.9111 -0.3047
  888MOL0     C19747   5.559   9.788   8.518 -0.1883 -0.3715  1.2146
  888MOL0     O19748   5.568   9.654   8.532  0.8316  0.4829 -0.8250
  888MOL0     C19749   5.686   9.587   8.495  0.8613 -0.9450  0.2908
  888MOL0     C19750   5.772   9.613   8.392  0.3492 -0.9331  0.2435
  888MOL0     C19751   5.881   9.533   8.370 -0.3736  0.3560  0.2931
  888MOL0     C19752   5.924   9.437   8.469 -0.7666 -0.7458  0.1504
  888MOL0     O19753   6.034   9.359   8.453 -0.9329  0.0521  0.2757
  888MOL0     C19754   6.140   9.418   8.374 -0.3902 -0.4388 -0.6616
  888MOL0     C19755   6.280   9.334   8.377 -0.1997 -0.1564  0.1629
  888MOL0     C19756   6.408   9.411   8.318  0.0020 -0.2010 -0.5541
  888MOL0     C19757   6.478   9.494   8.427 -0.4144  0.2658 -0.8945
  888MOL0     C19758   6.569   9.597   8.364  0.6628  0.5624 -0.5578
  888MOL0     C19759   6.658   9.661   8.476  0.2549 -0.6119  0.1188
  888MOL0     C19760   6.727   9.791   8.434  0.5803  0.0773 -0.8739
  888MOL0     C19761   6.878   9.813   8.468 -0.3598  0.5691 -0.2571
  888MOL0     N19762   6.976   9.721   8.410  0.6017 -0.1709 -0.5310
  888MOL0     C19763   7.065   9.652   8.495  0.2546 -0.2283 -0.1087
  888MOL0     C19764   7.126   9.571   8.400  0.7801 -0.1280  0.2008
  888MOL0     C19765   7.214   9.451   8.438  0.0064  0.4024 -0.6240
  888MOL0     C19766   7.369   9.508   8.460  0.7614 -0.0689 -0.1555
  888MOL0     C19767   7.473   9.400   8.416  0.1986 -0.4704 -0.6917
  888MOL0     C19768   7.602   9.441   8.486 -0.2060 -0.1849  0.3311
  888MOL0     O19769   7.583   9.440   8.635 -0.1872  0.6031  1.3006
  888MOL0     C19770   7.675   9.505   8.704 -0.5173  0.3035  0.1967
  888MOL0     C19771   7.797   9.539   8.658  0.1802  0.0018 -0.4807
  888MOL0     C19772   7.884   9.610   8.731  0.3194  0.7689 -0.2503
  888MOL0     C19773   7.861   9.653   8.858  0.0069  0.3916  0.0994
  888MOL0     C19774   7.951   9.751   8.933  0.4405 -0.6333  0.2370
  888MOL0     O19775   7.898   9.811   9.044  0.1143  0.7087  0.3462
  888MOL0     C19776   7.948   9.930   9.093  0.4628  0.0037  0.6547
  888MOL0     C19777   7.895   9.977   9.210 -1.0218  0.1366 -0.4204
  888MOL0     C19778   7.951  10.079   9.281 -0.8040  0.3924  0.2631
  888MOL0     C19779   8.061  10.151   9.228  0.2970  0.5229  1.1472
  888MOL0     O19780   8.104  10.260   9.306  0.2940  0.3601  0.5248
  888MOL0     C19781   8.170  10.366   9.224  0.3349  0.3159  0.1225
  888MOL0     C19782   8.175  10.488   9.304 -0.0555 -0.1639  0.2272
  888MOL0     C19783   8.278  10.460   9.414  0.2911  0.2271 -0.1436
  888MOL0     C19784   8.290  10.565   9.519 -0.2814 -0.9769  0.3226
  888MOL0     C19785   8.401  10.544   9.622 -0.1045  0.5430 -0.1591
  888MOL0     C19786   8.471  10.673   9.675 -0.9055  0.8643  0.6644
  888MOL0     C19787   8.606  10.631   9.732  0.2836 -0.0576  0.2310
  888MOL0     C19788   8.640  10.740   9.832 -0.3326  0.7651  0.6281
  888MOL0    Cl19789   8.652  10.906   9.767 -0.3286  0.4406  0.6479
  888MOL0     C19790   8.101  10.121   9.097 -0.2846 -1.7421 -0.4722
  888MOL0     C19791   8.050  10.009   9.027 -0.1205 -0.8433  1.0766
  888MOL0     O19792   8.059   9.771   8.884  0.0818 -0.2903 -0.1171
  888MOL0     C19793   7.750   9.602   8.919  0.0660  0.7072 -0.2623
  888MOL0     C19794   7.658   9.534   8.839 -0.5043  0.1063  0.8146
  888MOL0     N19795   7.067   9.580   8.281  0.2672 -0.5803  0.2078
  888MOL0     N19796   6.981   9.669   8.283  0.7129 -1.1359 -0.8057
  888MOL0     C19797   5.836   9.412   8.584 -0.4154 -0.8365 -0.3941
  888MOL0     C19798   5.720   9.490   8.595 -0.1087 -0.7288 -0.3911
  888MOL0     C19799   5.438   9.865   8.571 -0.6873  0.5660  0.5148
  888MOL0     C19800   5.312   9.793   8.597  0.1424 -0.3825  0.3409
  888MOL0     C19801   5.199   9.860   8.634  0.0768  0.3417  0.5757
  888MOL0     C19802   5.194   9.994   8.636 -0.1044  0.0237 -1.2065
  888MOL0     O19803   5.073  10.048   8.670 -1.1910 -0.0073 -0.1943
  888MOL0     C19804   5.028  10.155   8.580  0.3085 -0.1637 -0.2487
  888MOL0     C19805   4.992  10.099   8.439 -0.2963 -1.0734  0.4054
  888MOL0     C19806   4.909   9.977   8.448  0.1305  0.8805  0.4224
  888MOL0     C19807   4.857   9.939   8.309 -0.7862  0.4648 -0.8335
  888MOL0     C19808   4.745   9.845   8.319 -0.0186  0.1876 -0.3037
  888MOL0     C19809   4.656   9.768   8.318 -0.4342  0.2413  0.2656
  888MOL0     C19810   5.309  10.062   8.631 -0.1321  0.3992  0.2553
  888MOL0     C19811   5.428  10.006   8.586  0.0803  0.1701  0.8360
  888MOL0     C19812   5.537  10.097   8.538 -0.0997  0.4092  0.5743
  888MOL0     H19813   5.753   9.693   8.320 -1.0587 -0.5009  1.0624
  888MOL0     H19814   5.942   9.557   8.283  1.1102 -0.6447  1.0053
  888MOL0     H19815   6.119   9.422   8.267  0.1901 -1.7775 -0.8417
  888MOL0     H19816   6.169   9.514   8.419 -0.4844 -1.6066  2.1212
  888MOL0     H19817   6.273   9.243   8.317  1.0071 -1.1282  1.4076
  888MOL0     H19818   6.302   9.290   8.475  2.7776 -1.6751 -1.0546
  888MOL0     H19819   6.376   9.475   8.235 -0.7841  1.3757  0.8985
  888MOL0     H19820   6.478   9.336   8.280  2.0733 -0.2303  2.8904
  888MOL0     H19821   6.407   9.539   8.497 -0.2657 -0.2263 -0.4294
  888MOL0     H19822   6.540   9.436   8.496 -1.8813 -0.8187 -0.4306
  888MOL0     H19823   6.626   9.540   8.290 -1.0591 -2.2509  0.1222
  888MOL0     H19824   6.510   9.674   8.315  1.1974  1.4076  0.1001
  888MOL0     H19825   6.596   9.687   8.563  0.5073  2.1326 -0.4080
  888MOL0     H19826   6.748   9.608   8.505  3.4617  3.3780 -1.4994
  888MOL0     H19827   6.670   9.879   8.462  0.9997 -0.2843  1.3393
  888MOL0     H19828   6.718   9.793   8.325 -1.0322  2.0175 -0.7541
  888MOL0     H19829   6.892   9.912   8.423 -0.8999  1.5321  1.5780
  888MOL0     H19830   6.899   9.825   8.575 -0.6413 -1.8737  0.1137
  888MOL0     H19831   7.089   9.661   8.601  2.7886  3.1721 -0.7805
  888MOL0     H19832   7.179   9.396   8.526  0.5689  1.1501  0.0826
  888MOL0     H19833   7.211   9.371   8.364  2.4019 -0.1593 -0.1943
  888MOL0     H19834   7.387   9.589   8.388  0.7240 -1.9188 -2.3619
  888MOL0     H19835   7.385   9.546   8.561 -0.0226  1.7922 -0.6913
  888MOL0     H19836   7.484   9.384   8.308 -3.7292  1.0830 -1.5327
  888MOL0     H19837   7.443   9.305   8.460  0.4897  0.4228  1.5808
  888MOL0     H19838   7.626   9.542   8.450  0.1871 -0.9308 -1.5797
  888MOL0     H19839   7.689   9.380   8.461  0.4400  1.1858 -0.9676
  888MOL0     H19840   7.818   9.518   8.554 -1.1179 -2.4403 -0.3137
  888MOL0     H19841   7.976   9.635   8.680  1.0875 -0.4980  0.4467
  888MOL0     H19842   7.808   9.926   9.251 -2.9249  1.6271 -2.3635
  888MOL0     H19843   7.911  10.117   9.375 -0.5074  1.4923 -0.0402
  888MOL0     H19844   8.273  10.340   9.199  1.5348  3.9474  0.6230
  888MOL0     H19845   8.110  10.385   9.134  0.3339  0.2261  0.1054
  888MOL0     H19846   8.200  10.577   9.245  0.0692  1.0400  2.0136
  888MOL0     H19847   8.077  10.506   9.349  0.1679 -0.5560  0.8752
  888MOL0     H19848   8.256  10.362   9.456 -0.3211 -1.2688 -3.6147
  888MOL0     H19849   8.379  10.448   9.373  0.5920 -1.4172  0.9685
  888MOL0     H19850   8.193  10.556   9.569 -3.0072  0.5246 -4.0978
  888MOL0     H19851   8.316  10.657   9.467  2.6364 -0.8217  1.8697
  888MOL0     H19852   8.476  10.495   9.560 -0.1875  2.3409 -1.7862
  888MOL0     H19853   8.374  10.480   9.706  1.1651  0.4801  0.2124
  888MOL0     H19854   8.474  10.734   9.584  0.3825 -2.2695 -1.5772
  888MOL0     H19855   8.408  10.716   9.753 -1.2333  0.3774  0.6694
  888MOL0     H19856   8.678  10.638   9.650  3.8481 -2.0446  2.8811
  888MOL0     H19857   8.610  10.532   9.778  0.8502  0.0053  0.3257
  888MOL0     H19858   8.557  10.729   9.902 -1.9473  1.0783 -1.1453
  888MOL0     H19859   8.734  10.718   9.884 -0.3726  0.3599  0.5325
  888MOL0     H19860   8.182  10.177   9.051 -3.3074  0.2449 -3.9422
  888MOL0     H19861   8.099   9.991   8.932  0.4564  1.9519  0.7656
  888MOL0     H19862   7.719   9.635   9.018  0.8717 -2.7600  1.2777
  888MOL0     H19863   7.561   9.498   8.872 -0.7308 -0.3148 -0.2699
  888MOL0     H19864   5.862   9.352   8.670 -4.4162  0.7196  2.1847
  888MOL0     H19865   5.653   9.484   8.680 -2.4685 -0.5046 -2.1137
  888MOL0     H19866   5.294   9.687   8.584 -4.0251 -0.0950  2.2121
  888MOL0     H19867   5.107   9.802   8.641 -0.2928 -0.1158 -4.5617
  888MOL0     H19868   5.102  10.236   8.576 -0.5290  0.5651 -1.4953
  888MOL0     H19869   4.935  10.200   8.616 -1.2548 -0.5318 -3.4526
  888MOL0     H19870   5.084  10.075   8.385 -0.5864  2.0455 -1.7295
  888MOL0     H19871   4.948  10.177   8.377  0.9630  0.3243  1.2116
  888MOL0     H19872   4.826   9.988   8.519  1.7772  1.9062  2.2695
  888MOL0     H19873   4.978   9.899   8.482 -1.1410  0.0857  1.3004
  888MOL0     H19874   4.810  10.030   8.271  0.4535  1.9631  1.0125
  888MOL0     H19875   4.934   9.914   8.235 -0.0668  2.3804 -0.7907
  888MOL0     H19876   4.574   9.702   8.297  0.1965 -1.3078  2.3347
  888MOL0     H19877   5.287  10.167   8.647 -1.8890  0.2667 -0.9879
  888MOL0     H19878   5.559  10.060   8.438 -2.4476 -1.4281  0.6441
  888MOL0     H19879   5.517  10.205   8.546 -1.6821  0.2516 -0.8153
  888MOL0     H19880   5.622  10.076   8.604  0.5186 -0.8354 -0.5697
  889MOL0     O19881   0.100   8.799   6.064  0.5302 -0.2272  0.3170
  889MOL0     C19882   0.091   8.688   6.116  0.1101 -0.3658 -0.3557
  889MOL0     O19883  -0.010   8.647   6.197  0.4184 -0.5410  0.0293
  889MOL0     C19884   0.011   8.539   6.276  0.2448  0.3515 -0.5700
  889MOL0     C19885   0.121   8.524   6.365  1.0684 -0.7718 -0.1522
  889MOL0     C19886   0.129   8.417   6.455  0.1983  0.0854  0.3580
  889MOL0     C19887   0.031   8.316   6.444  0.4791 -0.3560  0.7117
  889MOL0     O19888   0.041   8.197   6.512 -0.0415 -0.0172  0.3528
  889MOL0     C19889   0.143   8.183   6.619  1.2664 -0.0706  0.3518
  889MOL0     C19890   0.135   8.056   6.710  0.4312 -0.4065 -0.1720
  889MOL0     C19891   0.269   8.027   6.777 -0.9370  0.8422 -0.5652
  889MOL0     C19892   0.253   7.955   6.901 -0.5498  0.1327 -0.0649
  889MOL0     C19893   0.384   7.886   6.952 -0.6909 -0.0478  0.6845
  889MOL0     C19894   0.507   7.971   6.967  0.2933  0.2589  0.0978
  889MOL0     C19895   0.617   7.877   7.031 -0.5690 -0.2590  0.0735
  889MOL0     C19896   0.746   7.959   7.069 -0.0992  1.5092 -0.8365
  889MOL0     N19897   0.718   8.051   7.177 -0.3506 -0.2778  0.6148
  889MOL0     C19898   0.632   8.035   7.283 -0.3955 -0.3298  0.2164
  889MOL0     C19899   0.608   8.141   7.350  0.6798  0.3337  0.8838
  889MOL0     C19900   0.510   8.144   7.468  0.8652 -0.4494  0.7551
  889MOL0     C19901   0.572   8.134   7.606 -0.6297  0.1302  0.3745
  889MOL0     C19902   0.650   8.267   7.631  1.1933 -0.8653  0.5989
  889MOL0     C19903   0.701   8.250   7.776 -0.2789 -0.0797 -0.2195
  889MOL0     O19904   0.833   8.187   7.790 -0.0638 -0.4630  0.4643
  889MOL0     C19905   0.879   8.170   7.910 -0.2128 -0.4732 -0.3410
  889MOL0     C19906   0.928   8.046   7.944 -0.5794  0.1872 -0.2479
  889MOL0     C19907   0.950   8.026   8.081 -0.5599 -0.4531 -1.2380
  889MOL0     C19908   0.931   8.126   8.184  0.0313 -0.8626  0.1484
  889MOL0     C19909   0.953   8.094   8.323 -0.3305 -0.7353 -0.0044
  889MOL0     O19910   1.001   7.963   8.352  0.8159  0.1544 -0.0779
  889MOL0     C19911   1.030   7.939   8.487 -0.3359 -0.2363  1.0026
  889MOL0     C19912   0.955   7.842   8.546  0.1288  1.0719  0.2167
  889MOL0     C19913   1.008   7.780   8.655  0.7572  0.2722  0.2215
  889MOL0     C19914   1.112   7.825   8.729 -0.6099 -0.1547 -0.7383
  889MOL0     O19915   1.135   7.767   8.855 -0.2473 -0.6546 -0.2656
  889MOL0     C19916   1.233   7.842   8.934  0.4621  0.8793 -0.0116
  889MOL0     C19917   1.243   7.793   9.077  0.2436  0.1194  0.6995
  889MOL0     C19918   1.323   7.879   9.175  0.4042 -0.0176  0.1362
  889MOL0     C19919   1.462   7.917   9.130  0.4019 -0.2943  0.8601
  889MOL0     C19920   1.535   7.999   9.243  0.1569 -0.3756 -0.1185
  889MOL0     C19921   1.594   7.920   9.359 -0.2329  0.7480  0.5314
  889MOL0     C19922   1.530   7.930   9.495  0.2706  0.3846  0.2074
  889MOL0     C19923   1.614   7.880   9.614  0.4994  0.4481 -0.7042
  889MOL0    Cl19924   1.681   7.708   9.593 -0.0628  0.0159  0.3301
  889MOL0     C19925   1.195   7.920   8.675  0.5850  0.1801 -0.3913
  889MOL0     C19926   1.151   7.980   8.554  0.5491  1.2148 -0.0302
  889MOL0     O19927   0.913   8.183   8.398 -0.8237 -0.1115 -0.1945
  889MOL0     C19928   0.895   8.261   8.145  0.4518 -0.3771  0.0120
  889MOL0     C19929   0.868   8.275   8.008  0.5132 -0.0443 -0.3710
  889MOL0     N19930   0.689   8.232   7.296  0.5850 -1.4717  0.5989
  889MOL0     N19931   0.747   8.187   7.180 -0.8120 -0.3090 -0.2834
  889MOL0     C19932  -0.075   8.327   6.359 -0.4489 -0.0331  0.8648
  889MOL0     C19933  -0.095   8.437   6.277  0.1082 -0.1081 -0.8998
  889MOL0     C19934   0.200   8.602   6.092 -0.3445  0.3295 -0.7208
  889MOL0     C19935   0.328   8.644   6.131  0.4141 -0.2681 -0.6989
  889MOL0     C19936   0.443   8.557   6.125 -0.9873 -0.5120  1.5343
  889MOL0     C19937   0.430   8.434   6.059 -0.8977  0.2338  1.5755
  889MOL0     O19938   0.541   8.361   6.022  0.1857  0.5074  0.7883
  889MOL0     C19939   0.552   8.254   6.118  0.0834  0.7120  0.1186
  889MOL0     C19940   0.703   8.216   6.142  0.5247  0.0048 -0.2552
  889MOL0     C19941   0.764   8.280   6.275  0.0223 -1.2302 -0.1066
  889MOL0     C19942   0.866   8.387   6.224  0.4922 -0.0977  0.4667
  889MOL0     C19943   0.910   8.494   6.316  0.1815  0.0475 -0.4749
  889MOL0     C19944   0.931   8.595   6.376  0.1918 -0.8909 -0.5342
  889MOL0     C19945   0.305   8.410   6.002 -0.9845 -0.5160  0.2996
  889MOL0     C19946   0.193   8.488   6.017  0.2320 -0.9026 -0.6003
  889MOL0     C19947   0.064   8.448   5.933 -0.1972 -0.0970  0.8263
  889MOL0     H19948   0.197   8.600   6.351  0.9625 -0.9109 -1.6857
  889MOL0     H19949   0.205   8.410   6.532  0.9843 -0.2972 -0.4406
  889MOL0     H19950   0.239   8.187   6.566  0.9729 -0.9232 -0.2616
  889MOL0     H19951   0.143   8.271   6.685  0.4139  1.2354 -1.3096
  889MOL0     H19952   0.098   7.981   6.639  0.7420  0.7689 -1.6126
  889MOL0     H19953   0.061   8.068   6.790  3.0252 -0.7362  2.4280
  889MOL0     H19954   0.312   8.121   6.812 -0.1977 -0.5129  2.4510
  889MOL0     H19955   0.334   7.984   6.699  1.3349 -1.1630  2.2099
  889MOL0     H19956   0.214   8.034   6.966  0.9265  0.9686 -0.1511
  889MOL0     H19957   0.168   7.886   6.898 -0.2732 -0.4757  2.9307
  889MOL0     H19958   0.364   7.847   7.052  2.3107 -2.3968  0.5329
  889MOL0     H19959   0.409   7.798   6.891  2.8161  0.8868  0.5497
  889MOL0     H19960   0.541   7.999   6.867  1.0232  0.1854  0.3183
  889MOL0     H19961   0.498   8.055   7.037 -1.0350 -0.7095  1.1529
  889MOL0     H19962   0.642   7.810   6.948  0.9731  1.6775 -1.1114
  889MOL0     H19963   0.580   7.827   7.121 -0.4824  2.1731  1.5500
  889MOL0     H19964   0.821   7.885   7.099 -1.1339  0.1767 -1.4328
  889MOL0     H19965   0.783   8.013   6.982 -0.8788  0.6912 -1.6969
  889MOL0     H19966   0.588   7.936   7.294  1.1491 -0.9589  0.9762
  889MOL0     H19967   0.451   8.235   7.455  1.3160 -0.5858 -3.6040
  889MOL0     H19968   0.439   8.061   7.462 -1.1485  1.0418  2.4702
  889MOL0     H19969   0.507   8.101   7.687  0.5540 -0.1258  1.2455
  889MOL0     H19970   0.650   8.057   7.609  0.7577  1.4467 -0.2735
  889MOL0     H19971   0.573   8.345   7.639 -1.2595 -2.6848 -2.9053
  889MOL0     H19972   0.725   8.299   7.558 -1.2249  2.9348 -0.5372
  889MOL0     H19973   0.632   8.205   7.849  0.7440 -0.1494  0.7272
  889MOL0     H19974   0.716   8.352   7.811  1.4226  0.3868 -2.1128
  889MOL0     H19975   0.924   7.967   7.870 -0.4616  0.9213 -1.0656
  889MOL0     H19976   0.970   7.921   8.100  2.0496 -0.2546 -2.4676
  889MOL0     H19977   0.883   7.788   8.487  0.9913  0.4406 -0.2859
  889MOL0     H19978   0.972   7.684   8.689  3.1303 -0.7001  0.2250
  889MOL0     H19979   1.327   7.825   8.881  0.4169 -0.6220  0.3662
  889MOL0     H19980   1.200   7.945   8.949 -2.7830 -0.1855  0.9666
  889MOL0     H19981   1.143   7.774   9.114 -1.7629  2.2006 -3.0117
  889MOL0     H19982   1.280   7.690   9.068 -1.1044 -0.2960 -0.4660
  889MOL0     H19983   1.261   7.969   9.185 -1.2766 -0.4599 -4.0554
  889MOL0     H19984   1.318   7.820   9.266 -2.0649 -0.0838  0.0145
  889MOL0     H19985   1.473   7.978   9.040  0.2468 -2.7033 -0.8743
  889MOL0     H19986   1.517   7.829   9.097 -1.6649 -1.5843  0.6576
  889MOL0     H19987   1.479   8.084   9.283  0.6226  0.3875 -1.0575
  889MOL0     H19988   1.626   8.036   9.196 -0.1165 -0.2657 -0.5724
  889MOL0     H19989   1.608   7.816   9.328 -0.6444  0.0459  2.5563
  889MOL0     H19990   1.691   7.961   9.390 -0.3228  1.5008 -0.1368
  889MOL0     H19991   1.438   7.871   9.490  0.9183 -0.6583  0.2230
  889MOL0     H19992   1.508   8.035   9.514  0.7681  1.5038 -4.2147
  889MOL0     H19993   1.666   7.969   9.651 -0.1278  1.6230 -2.4882
  889MOL0     H19994   1.542   7.862   9.695  0.7400  1.5026 -0.2397
  889MOL0     H19995   1.287   7.959   8.717 -0.0391  1.6262 -0.3153
  889MOL0     H19996   1.213   8.057   8.508 -1.6901  2.1942 -1.5841
  889MOL0     H19997   0.883   8.337   8.221  1.8823 -0.9575  0.8504
  889MOL0     H19998   0.834   8.371   7.973  1.1375  0.0724 -0.6689
  889MOL0     H19999  -0.145   8.244   6.352 -1.1914  0.7122 -2.0072
  889MOL0     H20000  -0.181   8.434   6.211 -1.2122  2.1714  0.5731
  889MOL0     H20001   0.331   8.731   6.195 -2.3058 -1.9380  1.9784
  889MOL0     H20002   0.538   8.585   6.168 -0.9119 -1.0519  1.7245
  889MOL0     H20003   0.502   8.169   6.071 -2.8648  2.7124 -0.6588
  889MOL0     H20004   0.488   8.280   6.203 -1.1637 -1.2929 -0.1396
  889MOL0     H20005   0.758   8.240   6.051  0.6793 -1.0061 -0.4506
  889MOL0     H20006   0.719   8.108   6.149 -1.3796 -0.2394  1.3328
  889MOL0     H20007   0.814   8.201   6.331 -1.8063 -1.6243  1.0775
  889MOL0     H20008   0.694   8.335   6.339  0.9339  1.0128 -0.9523
  889MOL0     H20009   0.956   8.344   6.180  0.3225  2.2458 -2.4792
  889MOL0     H20010   0.814   8.435   6.141  1.3466  2.2730  1.2204
  889MOL0     H20011   0.946   8.681   6.438 -1.0253  0.6677 -2.2919
  889MOL0     H20012   0.303   8.323   5.936  4.8571  0.3140 -1.6227
  889MOL0     H20013   0.082   8.477   5.829  2.5313 -2.3809  0.5199
  889MOL0     H20014   0.036   8.343   5.947 -0.2886 -0.2929 -0.6584
  889MOL0     H20015  -0.025   8.501   5.967  0.6604  2.7615 -1.0331
  890MOL0     O20016   6.508  10.037   6.137 -0.3164 -0.0870 -0.0532
  890MOL0     C20017   6.422  10.018   6.059  0.8990  0.8724  0.2763
  890MOL0     O20018   6.370   9.895   6.029  0.2290  1.0496 -0.7775
  890MOL0     C20019   6.416   9.793   6.106  0.5310  0.1207 -0.7358
  890MOL0     C20020   6.347   9.756   6.230 -0.0994 -0.2201 -0.7584
  890MOL0     C20021   6.397   9.643   6.305 -0.4009 -1.2118 -0.0736
  890MOL0     C20022   6.496   9.552   6.255 -0.2150  0.2877 -0.9806
  890MOL0     O20023   6.516   9.432   6.318 -0.0779  0.0257 -0.0259
  890MOL0     C20024   6.633   9.348   6.284  0.2200  0.7530 -0.6233
  890MOL0     C20025   6.631   9.229   6.383  0.0443  0.2100  0.4984
  890MOL0     C20026   6.751   9.132   6.361 -0.9411  0.1971 -1.3114
  890MOL0     C20027   6.753   9.021   6.464  0.3075  0.0726  0.2599
  890MOL0     C20028   6.890   8.936   6.469  1.0165  0.0132  0.6952
  890MOL0     C20029   6.883   8.846   6.605  0.2973 -0.1881 -0.5216
  890MOL0     C20030   6.760   8.752   6.628  0.1069  0.0726 -0.7700
  890MOL0     C20031   6.752   8.644   6.511 -0.5954 -0.3156 -0.2258
  890MOL0     N20032   6.643   8.667   6.415 -0.0922 -0.2619 -0.2112
  890MOL0     C20033   6.514   8.638   6.426  0.0963  1.7610 -0.6176
  890MOL0     C20034   6.454   8.690   6.317 -0.8569 -0.3653  0.5897
  890MOL0     C20035   6.309   8.695   6.271 -0.5257  0.7785  0.0341
  890MOL0     C20036   6.252   8.826   6.317 -0.1483 -0.3202  0.3262
  890MOL0     C20037   6.110   8.853   6.259 -0.2199  0.2493 -0.3846
  890MOL0     C20038   6.109   8.930   6.125  0.0692  0.2945 -0.8647
  890MOL0     O20039   5.979   8.933   6.072 -0.3164  0.4062 -0.3619
  890MOL0     C20040   5.955   8.816   6.001  0.7637  0.5327  0.0059
  890MOL0     C20041   5.832   8.756   6.035  0.7314 -0.6492 -0.5608
  890MOL0     C20042   5.785   8.643   5.968  0.6976  0.1786 -0.7574
  890MOL0     C20043   5.864   8.587   5.863  0.3666 -0.0509 -0.3521
  890MOL0     C20044   5.817   8.462   5.797 -0.0929 -1.8405  0.5838
  890MOL0     O20045   5.872   8.430   5.677  0.2178 -0.3626 -0.1488
  890MOL0     C20046   5.836   8.310   5.611 -0.7003 -0.0347  0.3069
  890MOL0     C20047   5.937   8.222   5.569  0.4898 -0.2785  0.2110
  890MOL0     C20048   5.904   8.099   5.516 -0.6006 -0.6187  0.5269
  890MOL0     C20049   5.772   8.058   5.505 -0.6526  0.0702  0.4881
  890MOL0     O20050   5.741   7.933   5.456 -0.1733 -0.3127  0.0743
  890MOL0     C20051   5.643   7.850   5.518  0.0004  0.2413 -0.6860
  890MOL0     C20052   5.692   7.706   5.543 -0.3446 -1.0488  0.4686
  890MOL0     C20053   5.701   7.621   5.416 -0.0493  0.4307 -0.7368
  890MOL0     C20054   5.764   7.495   5.451 -0.2868 -0.0587  0.0574
  890MOL0     C20055   5.767   7.399   5.332 -0.8051  0.3335 -0.5155
  890MOL0     C20056   5.818   7.261   5.378  0.5087  0.1679  0.1484
  890MOL0     C20057   5.788   7.153   5.267  0.3051  0.1185  0.7313
  890MOL0     C20058   5.797   7.005   5.318 -0.6169  0.7440  0.1694
  890MOL0    Cl20059   5.947   6.977   5.414 -0.0461  0.0892 -0.5563
  890MOL0     C20060   5.677   8.149   5.540 -0.0165  0.1627 -1.2039
  890MOL0     C20061   5.707   8.274   5.586  0.1056  0.4920 -0.1804
  890MOL0     O20062   5.726   8.401   5.846  0.0383 -0.8256 -0.8704
  890MOL0     C20063   5.986   8.648   5.833 -0.1584  0.1099 -0.2305
  890MOL0     C20064   6.034   8.762   5.899 -0.8802  0.6648 -0.8393
  890MOL0     N20065   6.552   8.736   6.235 -0.0601  0.2573 -0.6822
  890MOL0     N20066   6.659   8.718   6.292 -0.3655  0.2878 -0.4003
  890MOL0     C20067   6.553   9.589   6.133  0.3861  0.0672  0.4827
  890MOL0     C20068   6.515   9.706   6.063 -0.0075  0.2761 -0.2494
  890MOL0     C20069   6.372  10.124   5.978  0.7463  0.0813 -0.0431
  890MOL0     C20070   6.230  10.132   5.958 -0.6870  0.6188 -0.0984
  890MOL0     C20071   6.183  10.244   5.899 -0.0070 -0.1101 -0.2361
  890MOL0     C20072   6.257  10.351   5.867  0.2300  0.1106 -0.2469
  890MOL0     O20073   6.197  10.459   5.819 -0.4826  0.1823  0.0009
  890MOL0     C20074   6.278  10.578   5.809  0.6180  0.9200 -0.3486
  890MOL0     C20075   6.185  10.683   5.758  0.2852  0.5514  0.6877
  890MOL0     C20076   6.178  10.683   5.606 -0.0304 -0.6908  0.4459
  890MOL0     C20077   6.063  10.786   5.559  0.2513  0.3866  0.0707
  890MOL0     C20078   6.006  10.748   5.428 -0.2615  0.2755 -0.8664
  890MOL0     C20079   5.971  10.710   5.322  0.4591  0.3850  0.0315
  890MOL0     C20080   6.397  10.335   5.876  0.5869 -0.5055 -0.6520
  890MOL0     C20081   6.458  10.225   5.934  0.3643  0.2416  0.2642
  890MOL0     C20082   6.605  10.236   5.947 -0.2392 -0.2347 -0.1629
  890MOL0     H20083   6.273   9.828   6.264  1.2595 -0.4929  3.2493
  890MOL0     H20084   6.360   9.618   6.403 -4.6420  1.0852 -0.8636
  890MOL0     H20085   6.634   9.308   6.183 -2.6926 -1.0787 -0.0712
  890MOL0     H20086   6.720   9.408   6.310 -1.0136  0.8550  4.5769
  890MOL0     H20087   6.541   9.168   6.384 -0.7064  1.1980 -1.2626
  890MOL0     H20088   6.625   9.262   6.487  1.3913 -2.1480  1.4033
  890MOL0     H20089   6.839   9.197   6.362  0.0823 -1.1423 -0.4026
  890MOL0     H20090   6.749   9.079   6.265  1.0559 -2.5147 -0.0069
  890MOL0     H20091   6.721   9.065   6.558 -0.8220 -2.1760  1.0003
  890MOL0     H20092   6.674   8.951   6.433  0.0265  0.4122  0.2111
  890MOL0     H20093   6.893   8.877   6.377  1.8902  0.1680  0.6102
  890MOL0     H20094   6.978   9.002   6.463 -0.5489  2.3740  2.0207
  890MOL0     H20095   6.978   8.799   6.629  0.7608  0.9334 -0.0930
  890MOL0     H20096   6.877   8.915   6.690  0.0583 -0.6418 -0.1663
  890MOL0     H20097   6.666   8.808   6.627 -0.7521 -1.3193 -0.0573
  890MOL0     H20098   6.768   8.709   6.728  1.5536 -0.1642 -0.9678
  890MOL0     H20099   6.848   8.640   6.458 -1.3232 -2.1783 -1.4993
  890MOL0     H20100   6.741   8.548   6.562 -1.2428  0.1433  0.5277
  890MOL0     H20101   6.462   8.594   6.511  0.1783  1.0551 -0.9235
  890MOL0     H20102   6.303   8.675   6.164 -2.3234  0.9198  0.0775
  890MOL0     H20103   6.265   8.608   6.322  1.4009 -1.3604 -1.7101
  890MOL0     H20104   6.251   8.819   6.426  0.6377  1.6274  0.4984
  890MOL0     H20105   6.327   8.904   6.299  1.8940 -2.3432 -0.3172
  890MOL0     H20106   6.055   8.909   6.335  1.6989 -0.1955  1.4160
  890MOL0     H20107   6.058   8.758   6.244  2.7145 -1.6427  0.3952
  890MOL0     H20108   6.191   8.898   6.060  0.3632 -0.6177 -0.0792
  890MOL0     H20109   6.128   9.031   6.162 -0.3725 -1.1802  4.3164
  890MOL0     H20110   5.763   8.794   6.110  1.0394 -1.9585  0.4380
  890MOL0     H20111   5.682   8.611   5.977  0.4169  0.3963 -2.7806
  890MOL0     H20112   6.041   8.250   5.556 -0.5269  3.8201 -0.4840
  890MOL0     H20113   5.973   8.028   5.472  2.0799  1.0760  1.7047
  890MOL0     H20114   5.638   7.882   5.623  1.7677 -0.4186 -0.3680
  890MOL0     H20115   5.544   7.863   5.474 -1.1090  1.8511  2.0098
  890MOL0     H20116   5.788   7.712   5.596  0.1684  0.7742 -0.5863
  890MOL0     H20117   5.631   7.649   5.613  0.2399 -2.5812 -0.2178
  890MOL0     H20118   5.600   7.603   5.377 -1.9363  3.5987  2.2180
  890MOL0     H20119   5.755   7.682   5.342  1.6767  1.1470  1.0257
  890MOL0     H20120   5.706   7.439   5.525 -0.2070 -0.2259 -0.0081
  890MOL0     H20121   5.862   7.509   5.498  0.5180  0.0004 -1.5925
  890MOL0     H20122   5.831   7.425   5.247  2.2523  0.0885  1.5339
  890MOL0     H20123   5.665   7.386   5.295 -0.7146 -1.1046 -0.3172
  890MOL0     H20124   5.921   7.248   5.410  0.0731  1.7776  2.5309
  890MOL0     H20125   5.755   7.237   5.465  0.3315 -0.0265 -0.0316
  890MOL0     H20126   5.861   7.175   5.189 -0.1390 -0.2522  0.2024
  890MOL0     H20127   5.688   7.180   5.231  1.2591  0.6197 -1.6768
  890MOL0     H20128   5.704   6.986   5.372  1.4100 -2.1103  3.0914
  890MOL0     H20129   5.805   6.939   5.231  2.0100 -0.4430  1.1951
  890MOL0     H20130   5.570   8.129   5.537 -0.1821  0.5056  0.8352
  890MOL0     H20131   5.624   8.334   5.622  1.7061  0.9088  3.1638
  890MOL0     H20132   6.060   8.598   5.772  0.8050 -0.9133  1.6871
  890MOL0     H20133   6.129   8.808   5.875 -0.1141 -0.5968 -0.3022
  890MOL0     H20134   6.622   9.522   6.082 -1.9412 -1.6074 -0.6488
  890MOL0     H20135   6.558   9.721   5.965 -1.7152 -1.6443 -1.3779
  890MOL0     H20136   6.158  10.063   6.001 -1.8660  1.5032 -0.6037
  890MOL0     H20137   6.076  10.257   5.883 -0.3723 -2.2254  0.0963
  890MOL0     H20138   6.365  10.577   5.742  0.4667  2.4471 -0.6134
  890MOL0     H20139   6.307  10.609   5.910 -0.5882 -1.8744  0.9577
  890MOL0     H20140   6.223  10.782   5.787  2.4355  0.1563 -0.6064
  890MOL0     H20141   6.085  10.660   5.796  0.5118  0.6242  1.3398
  890MOL0     H20142   6.148  10.588   5.559 -1.5130  1.3921 -3.2203
  890MOL0     H20143   6.278  10.712   5.572 -0.6303  0.0246 -0.7704
  890MOL0     H20144   5.978  10.784   5.628  0.3972 -1.4417  0.2317
  890MOL0     H20145   6.097  10.889   5.540 -0.7132  0.4956 -1.1894
  890MOL0     H20146   5.925  10.690   5.228 -0.1173  1.0900  0.1546
  890MOL0     H20147   6.470  10.411   5.850  2.8087 -1.0767  3.2345
  890MOL0     H20148   6.643  10.151   6.006 -0.5403  2.1584  3.9061
  890MOL0     H20149   6.646  10.233   5.846  0.4489  1.1618  0.0445
  890MOL0     H20150   6.645  10.321   6.004 -2.8447 -1.5512  4.0748
  891MOL0     O20151   0.609   3.878   2.830 -0.1529 -0.6140  0.2936
  891MOL0     C20152   0.615   3.904   2.714  0.5786 -0.6572  0.9583
  891MOL0     O20153   0.567   3.831   2.606  0.2407  0.0596 -0.1182
  891MOL0     C20154   0.495   3.718   2.630  0.5771  1.1754  0.1063
  891MOL0     C20155   0.357   3.720   2.671 -0.2611  0.2355 -0.0762
  891MOL0     C20156   0.288   3.606   2.709  0.9394  0.3287  0.2904
  891MOL0     C20157   0.358   3.482   2.718  0.4493  0.1368  0.5857
  891MOL0     O20158   0.311   3.362   2.764  0.6802 -0.4593  0.1397
  891MOL0     C20159   0.170   3.357   2.767 -0.7838 -0.4524 -0.3246
  891MOL0     C20160   0.138   3.209   2.791  0.1936  0.3397  0.1420
  891MOL0     C20161  -0.012   3.189   2.785 -0.3598 -0.4901  1.5509
  891MOL0     C20162  -0.064   3.054   2.841 -0.7971  0.2250  0.4152
  891MOL0     C20163  -0.219   3.057   2.833 -0.0563 -0.8788  1.0032
  891MOL0     C20164  -0.294   2.935   2.892 -1.1082 -0.4030 -0.2069
  891MOL0     C20165  -0.300   2.809   2.804 -0.4053  0.3755  0.2734
  891MOL0     C20166  -0.396   2.818   2.691  0.9629  0.4744 -0.1857
  891MOL0     N20167  -0.491   2.708   2.714  0.4778 -0.6385 -0.4290
  891MOL0     C20168  -0.609   2.712   2.783  0.5035  0.1192 -0.5974
  891MOL0     C20169  -0.665   2.591   2.771  0.6243  1.7994 -0.5352
  891MOL0     C20170  -0.781   2.551   2.865  0.3730 -1.0664  0.0079
  891MOL0     C20171  -0.879   2.457   2.793  0.9466  0.0912  0.4478
  891MOL0     C20172  -0.848   2.308   2.788 -0.6073 -0.3831  0.9383
  891MOL0     C20173  -0.935   2.244   2.680  0.2697 -1.2111  0.3660
  891MOL0     O20174  -1.074   2.263   2.712  0.1861 -0.0968  0.2750
  891MOL0     C20175  -1.177   2.222   2.632 -0.7541  0.4295  0.2441
  891MOL0     C20176  -1.304   2.269   2.662 -0.6626  0.0217 -1.4120
  891MOL0     C20177  -1.412   2.245   2.575  0.1745  0.1421 -0.1994
  891MOL0     C20178  -1.385   2.165   2.459  0.9023 -0.8725  0.2051
  891MOL0     C20179  -1.487   2.156   2.348 -0.6704  0.6753 -0.0376
  891MOL0     O20180  -1.468   2.064   2.239 -0.2433 -0.5733  0.1554
  891MOL0     C20181  -1.551   2.069   2.129 -0.9176  0.3212  1.2300
  891MOL0     C20182  -1.640   2.172   2.092 -0.0975  0.1059 -0.7603
  891MOL0     C20183  -1.732   2.148   1.983 -0.6109 -0.2128  0.7262
  891MOL0     C20184  -1.732   2.025   1.917 -0.4310  0.5208  0.0281
  891MOL0     O20185  -1.849   2.003   1.832  1.0005 -1.0312 -0.6350
  891MOL0     C20186  -1.833   1.947   1.702  0.1870  0.6833  0.1948
  891MOL0     C20187  -1.772   2.051   1.605  0.3497  0.0230 -0.5059
  891MOL0     C20188  -1.631   2.089   1.629  0.3458  0.0610 -0.2250
  891MOL0     C20189  -1.570   2.177   1.525  0.6176  0.9922  0.5688
  891MOL0     C20190  -1.424   2.224   1.554  0.8723 -0.8264  0.2254
  891MOL0     C20191  -1.380   2.336   1.450 -0.1238  0.7250 -0.5611
  891MOL0     C20192  -1.329   2.281   1.319  0.3467  0.2533 -0.4354
  891MOL0     C20193  -1.267   2.386   1.227 -0.5363  0.4860 -0.3122
  891MOL0    Cl20194  -1.407   2.496   1.177 -0.3915  0.2607  0.2817
  891MOL0     C20195  -1.643   1.919   1.949 -0.0675  0.4226 -0.5377
  891MOL0     C20196  -1.544   1.951   2.047  0.5521 -0.0697 -0.0514
  891MOL0     O20197  -1.588   2.214   2.376 -0.9964 -0.3667  0.1643
  891MOL0     C20198  -1.259   2.102   2.441  0.5089 -0.5237  0.0638
  891MOL0     C20199  -1.157   2.137   2.518  0.6966  0.0835 -0.1518
  891MOL0     N20200  -0.579   2.505   2.710  0.2377 -0.6761  0.2485
  891MOL0     N20201  -0.484   2.582   2.665  0.3671 -0.4221 -0.4218
  891MOL0     C20202   0.491   3.473   2.671  0.0263 -0.8265  0.1208
  891MOL0     C20203   0.551   3.594   2.623 -0.8332  0.0930  0.4398
  891MOL0     C20204   0.688   4.023   2.682 -0.6222  0.2426 -0.3584
  891MOL0     C20205   0.760   4.041   2.560 -0.0372 -0.2804  0.0362
  891MOL0     C20206   0.836   4.154   2.530 -0.1120 -0.5381 -1.6849
  891MOL0     C20207   0.828   4.260   2.620  0.7618  1.0327 -0.1916
  891MOL0     O20208   0.902   4.373   2.596 -0.2021 -0.3201  0.0973
  891MOL0     C20209   1.030   4.389   2.668  0.5783  0.3555  0.1004
  891MOL0     C20210   1.027   4.493   2.774  0.0561 -0.3818 -0.3293
  891MOL0     C20211   1.175   4.554   2.804  0.2505 -0.0718  0.2687
  891MOL0     C20212   1.216   4.684   2.741 -0.5764 -0.0666  0.0480
  891MOL0     C20213   1.214   4.676   2.598  0.0517  0.4804 -0.8776
  891MOL0     C20214   1.216   4.684   2.477  0.2296  0.7238  0.1246
  891MOL0     C20215   0.742   4.255   2.727 -0.9576  0.3376 -0.2135
  891MOL0     C20216   0.671   4.142   2.767  0.0895 -0.2500  1.0687
  891MOL0     C20217   0.569   4.152   2.883  0.3438 -0.9403 -0.4909
  891MOL0     H20218   0.312   3.818   2.673  0.2574  0.4780 -0.0541
  891MOL0     H20219   0.194   3.610   2.762  1.8842 -2.4229  2.4755
  891MOL0     H20220   0.119   3.408   2.849 -1.2692 -1.1463 -0.1907
  891MOL0     H20221   0.125   3.404   2.680 -1.7094 -0.4979  0.1232
  891MOL0     H20222   0.167   3.175   2.891 -0.5650  3.6306  1.5971
  891MOL0     H20223   0.185   3.141   2.719 -2.4557 -2.2808  0.6795
  891MOL0     H20224  -0.050   3.206   2.684 -0.1681 -1.5009  1.3020
  891MOL0     H20225  -0.074   3.267   2.832 -2.0631 -1.6524  1.3259
  891MOL0     H20226  -0.028   2.968   2.783 -0.4360  0.7643 -0.1728
  891MOL0     H20227  -0.041   3.048   2.947 -0.5696  0.0845  0.3571
  891MOL0     H20228  -0.244   3.137   2.903  1.0689  0.4764 -0.0727
  891MOL0     H20229  -0.264   3.100   2.743 -1.2647  3.4925  3.4310
  891MOL0     H20230  -0.244   2.915   2.987  2.8316  1.0254 -1.7896
  891MOL0     H20231  -0.400   2.960   2.904 -0.8026  1.0695 -0.4276
  891MOL0     H20232  -0.325   2.736   2.881  0.3417  0.6610  0.7925
  891MOL0     H20233  -0.203   2.790   2.759 -0.8897 -0.6620 -0.3567
  891MOL0     H20234  -0.445   2.915   2.689  2.9549  1.5286 -0.7939
  891MOL0     H20235  -0.347   2.792   2.596  0.6043 -1.4328  0.1132
  891MOL0     H20236  -0.658   2.802   2.819 -0.6620 -0.7771  0.0953
  891MOL0     H20237  -0.746   2.513   2.962  0.0794  0.4537  0.7426
  891MOL0     H20238  -0.824   2.646   2.898  1.0528 -0.7683  0.0762
  891MOL0     H20239  -0.976   2.473   2.841  0.0732 -1.2033 -0.8132
  891MOL0     H20240  -0.889   2.486   2.688  0.8592 -1.2499  0.0763
  891MOL0     H20241  -0.858   2.277   2.893  2.8296  1.1142  1.8673
  891MOL0     H20242  -0.744   2.288   2.760 -1.7900 -1.7690 -3.1097
  891MOL0     H20243  -0.923   2.137   2.662  1.8614 -0.8675 -0.9224
  891MOL0     H20244  -0.910   2.303   2.590  0.8803  0.7017  1.7243
  891MOL0     H20245  -1.312   2.336   2.748  1.1339 -1.6469  0.1742
  891MOL0     H20246  -1.509   2.290   2.591  0.6132  1.3194 -0.6934
  891MOL0     H20247  -1.657   2.263   2.148 -0.0476 -0.6556  0.5316
  891MOL0     H20248  -1.809   2.218   1.954  1.6881  0.9141 -3.4890
  891MOL0     H20249  -1.778   1.853   1.708 -0.6618  0.2743  2.8182
  891MOL0     H20250  -1.934   1.926   1.667  0.2248 -2.7647  1.7396
  891MOL0     H20251  -1.771   1.996   1.511 -2.9175  0.2902 -0.8125
  891MOL0     H20252  -1.832   2.143   1.598  0.1237  0.0762  1.4541
  891MOL0     H20253  -1.627   2.152   1.718 -2.3233  0.6351 -0.4190
  891MOL0     H20254  -1.575   1.996   1.645  0.7495 -0.3596 -3.3970
  891MOL0     H20255  -1.626   2.271   1.526 -0.0622  0.5997  0.5079
  891MOL0     H20256  -1.572   2.138   1.422 -2.2784  3.5574 -0.5144
  891MOL0     H20257  -1.353   2.142   1.547  2.0156  0.2518 -1.9434
  891MOL0     H20258  -1.421   2.278   1.649  3.7708  0.4896 -0.4982
  891MOL0     H20259  -1.458   2.413   1.441  2.7334  3.7348 -1.9192
  891MOL0     H20260  -1.293   2.392   1.486 -0.7036  0.2398  1.7971
  891MOL0     H20261  -1.413   2.233   1.267 -1.2772 -0.8745  2.9453
  891MOL0     H20262  -1.258   2.211   1.362 -1.0656  0.4903  2.5282
  891MOL0     H20263  -1.181   2.431   1.277  0.8844 -2.5730  0.2471
  891MOL0     H20264  -1.219   2.340   1.140 -1.3309 -1.3206  0.1554
  891MOL0     H20265  -1.659   1.828   1.892 -0.2040  1.7569 -2.7229
  891MOL0     H20266  -1.475   1.871   2.069  1.6141  1.4415  2.6388
  891MOL0     H20267  -1.260   2.040   2.351 -1.1722  0.2744 -0.5252
  891MOL0     H20268  -1.068   2.076   2.505  0.3197 -0.5919  0.3373
  891MOL0     H20269   0.539   3.376   2.685 -0.3313 -1.2426 -1.3247
  891MOL0     H20270   0.654   3.595   2.586 -0.9197  4.8977 -0.3272
  891MOL0     H20271   0.757   3.961   2.486 -2.0635  0.2194 -0.4617
  891MOL0     H20272   0.896   4.156   2.440  2.7474 -1.3549  0.0641
  891MOL0     H20273   1.103   4.396   2.586  0.0865 -3.9788 -0.9457
  891MOL0     H20274   1.039   4.290   2.712 -0.9476 -0.8193 -2.0445
  891MOL0     H20275   0.979   4.449   2.862 -1.1723 -1.6271 -1.5759
  891MOL0     H20276   0.959   4.574   2.743  0.9606  0.3331 -0.5060
  891MOL0     H20277   1.249   4.485   2.762 -0.1786  0.1376 -0.8601
  891MOL0     H20278   1.186   4.561   2.913 -2.2435  0.6696  0.5130
  891MOL0     H20279   1.138   4.758   2.762 -1.6046 -0.8476 -0.8489
  891MOL0     H20280   1.317   4.718   2.767 -0.0773 -0.8240 -0.8349
  891MOL0     H20281   1.214   4.701   2.371 -0.6313 -1.6750 -0.2981
  891MOL0     H20282   0.731   4.344   2.788  0.3737  0.2793  0.1465
  891MOL0     H20283   0.585   4.249   2.932  0.3899 -1.5767  0.7976
  891MOL0     H20284   0.469   4.147   2.840  0.5108 -3.6016 -0.7590
  891MOL0     H20285   0.588   4.079   2.962 -1.7127 -1.9800 -0.8932
  892MOL0     O20286   9.606  10.951   1.092  0.0921 -0.0084  0.0878
  892MOL0     C20287   9.582  10.871   1.182  1.0495 -0.6157  0.7862
  892MOL0     O20288   9.454  10.801   1.205 -0.6227 -0.1459  0.4518
  892MOL0     C20289   9.367  10.772   1.105  0.1576  0.0841  0.9148
  892MOL0     C20290   9.362  10.827   0.977 -0.5436  0.0580 -0.7596
  892MOL0     C20291   9.275  10.783   0.882 -0.2787  0.5490 -0.1221
  892MOL0     C20292   9.178  10.682   0.916 -0.3111  0.3673 -0.4167
  892MOL0     O20293   9.087  10.638   0.825 -0.4312  0.6577  0.2985
  892MOL0     C20294   9.081  10.711   0.707 -0.1871  0.6509  0.7252
  892MOL0     C20295   8.977  10.651   0.618  0.1177 -0.2360 -0.9088
  892MOL0     C20296   8.947  10.723   0.495 -0.3013  0.1779 -1.4468
  892MOL0     C20297   8.884  10.630   0.384 -0.1881  0.3963 -0.6496
  892MOL0     C20298   8.736  10.603   0.380  0.1149 -1.5800  1.2497
  892MOL0     C20299   8.698  10.472   0.312 -0.7977 -0.2070  0.1392
  892MOL0     C20300   8.550  10.449   0.314  0.6423  1.2111  0.8595
  892MOL0     C20301   8.507  10.316   0.375 -1.1189  0.3104 -0.7035
  892MOL0     N20302   8.524  10.191   0.304 -0.4379 -0.4970  0.3439
  892MOL0     C20303   8.455  10.079   0.331  0.3990 -0.9329  0.3499
  892MOL0     C20304   8.463  10.007   0.215  0.0463 -0.1672  0.0728
  892MOL0     C20305   8.394   9.877   0.201 -0.6761 -0.2124  0.6625
  892MOL0     C20306   8.510   9.770   0.184  0.4947 -0.0907 -0.0692
  892MOL0     C20307   8.448   9.623   0.174 -0.3689 -0.6607  0.5896
  892MOL0     C20308   8.522   9.514   0.257  0.7252 -1.2699  0.2432
  892MOL0     O20309   8.658   9.507   0.205 -0.1795  0.3852 -0.2040
  892MOL0     C20310   8.746   9.414   0.250 -0.1129  0.8754  0.6298
  892MOL0     C20311   8.869   9.401   0.184 -0.8454 -0.6690  0.5789
  892MOL0     C20312   8.969   9.321   0.240 -1.1314  0.3797  1.0788
  892MOL0     C20313   8.956   9.240   0.349  0.9955 -0.2791  0.1367
  892MOL0     C20314   9.050   9.136   0.390 -0.8712 -0.5302 -0.0181
  892MOL0     O20315   9.179   9.153   0.344  0.0043  0.2294  0.0090
  892MOL0     C20316   9.273   9.063   0.383  0.3214 -0.0391  0.1448
  892MOL0     C20317   9.350   9.001   0.287 -0.9716  0.1985  0.0084
  892MOL0     C20318   9.457   8.920   0.328 -0.1682  0.0835 -0.4257
  892MOL0     C20319   9.496   8.904   0.457  0.4561  1.0113 -1.1941
  892MOL0     O20320   9.605   8.839   0.492  0.0393  0.3685 -0.3021
  892MOL0     C20321   9.608   8.708   0.435 -0.4618  0.9659 -1.0460
  892MOL0     C20322   9.728   8.637   0.514 -0.3141  1.2063  0.0938
  892MOL0     C20323   9.689   8.489   0.549 -0.1994  0.8172  0.5650
  892MOL0     C20324   9.570   8.466   0.637  0.4097  0.1753 -1.2254
  892MOL0     C20325   9.482   8.355   0.563  0.4688 -0.3026 -0.7620
  892MOL0     C20326   9.351   8.332   0.636 -0.2611 -0.2514 -0.1273
  892MOL0     C20327   9.264   8.244   0.548  0.4204  0.7713  0.5620
  892MOL0     C20328   9.195   8.313   0.428  0.1148  0.0646 -1.1337
  892MOL0    Cl20329   9.133   8.207   0.311 -0.0415  0.5155  0.1143
  892MOL0     C20330   9.415   8.953   0.556  0.2186 -0.3028  0.7297
  892MOL0     C20331   9.306   9.031   0.518 -0.0951  0.4204  0.2989
  892MOL0     O20332   9.012   9.035   0.439 -0.0670 -0.4896 -0.5040
  892MOL0     C20333   8.828   9.241   0.409 -0.3941 -0.1993 -0.5552
  892MOL0     C20334   8.726   9.336   0.368 -1.0100 -0.0418 -0.6150
  892MOL0     N20335   8.547  10.070   0.125  0.4080 -0.0988 -0.5406
  892MOL0     N20336   8.573  10.189   0.178  0.1774 -0.4594  0.5563
  892MOL0     C20337   9.184  10.622   1.046  0.5923 -0.0128 -0.1266
  892MOL0     C20338   9.275  10.671   1.143 -0.3964  0.5974  0.3425
  892MOL0     C20339   9.685  10.844   1.286 -0.2177  0.2265  0.3053
  892MOL0     C20340   9.652  10.767   1.397 -0.0325  0.0543  0.2397
  892MOL0     C20341   9.743  10.721   1.492 -0.0901  0.0794 -0.9815
  892MOL0     C20342   9.872  10.758   1.484 -0.4399  0.1494 -0.1723
  892MOL0     O20343   9.960  10.697   1.572  0.4458  0.7590  0.3141
  892MOL0     C20344  10.107  10.712   1.569  0.4566 -0.2779  0.5490
  892MOL0     C20345  10.172  10.633   1.681 -0.5603  0.4800  0.5199
  892MOL0     C20346  10.086  10.645   1.812  0.5424 -1.0665 -0.0336
  892MOL0     C20347  10.158  10.573   1.932 -0.6689  0.4360 -0.4115
  892MOL0     C20348  10.146  10.431   1.919  0.3811 -0.1095  0.2985
  892MOL0     C20349  10.124  10.306   1.916  0.8106 -0.5595 -0.5647
  892MOL0     C20350   9.907  10.848   1.384  0.2142  0.3749  0.4081
  892MOL0     C20351   9.821  10.889   1.282  0.2408  0.4116  0.1029
  892MOL0     C20352   9.883  10.958   1.158 -0.3814 -0.2857 -0.3984
  892MOL0     H20353   9.438  10.899   0.947 -0.5451  0.7634  0.8502
  892MOL0     H20354   9.277  10.852   0.799  1.6391 -0.8874 -1.3526
  892MOL0     H20355   9.059  10.815   0.736 -0.3371  0.5580  0.9535
  892MOL0     H20356   9.170  10.708   0.644 -2.9090 -1.2627 -3.4802
  892MOL0     H20357   8.889  10.639   0.682 -1.0791 -1.1568 -2.6463
  892MOL0     H20358   9.019  10.553   0.591  2.8388  1.1602 -2.1006
  892MOL0     H20359   9.040  10.761   0.454 -2.3511  2.3929 -4.4890
  892MOL0     H20360   8.878  10.807   0.510  0.0845  0.5320 -1.6477
  892MOL0     H20361   8.894  10.676   0.285 -1.8035  2.6288  0.1520
  892MOL0     H20362   8.935  10.533   0.381  0.5491  0.6066  2.2407
  892MOL0     H20363   8.701  10.596   0.484 -1.9781 -1.1253  0.6041
  892MOL0     H20364   8.685  10.689   0.337 -0.2640 -1.2768  2.2698
  892MOL0     H20365   8.727  10.468   0.206 -0.2196 -0.1103  0.2899
  892MOL0     H20366   8.742  10.377   0.343 -2.4155 -0.9863  0.1503
  892MOL0     H20367   8.505  10.458   0.215  0.0810  0.6962  1.0630
  892MOL0     H20368   8.493  10.524   0.369 -1.7623 -0.4982  0.8169
  892MOL0     H20369   8.560  10.312   0.471 -1.3051  3.0450 -0.4224
  892MOL0     H20370   8.400  10.306   0.395 -0.4466 -1.1618  3.1197
  892MOL0     H20371   8.390  10.063   0.416  1.1490  2.2112  1.6282
  892MOL0     H20372   8.339   9.847   0.291 -2.9112 -1.6417 -1.0645
  892MOL0     H20373   8.319   9.872   0.121 -4.7935 -2.7689  4.2489
  892MOL0     H20374   8.570   9.791   0.095  2.5688  2.0225  1.7127
  892MOL0     H20375   8.567   9.775   0.277 -1.9338  0.2829  1.5078
  892MOL0     H20376   8.458   9.588   0.071 -3.3860 -1.1052  0.3708
  892MOL0     H20377   8.345   9.608   0.207 -0.1097  0.5336  2.0467
  892MOL0     H20378   8.470   9.418   0.257  1.3724 -1.6349  0.7821
  892MOL0     H20379   8.516   9.550   0.360 -1.6487  1.6745 -0.7908
  892MOL0     H20380   8.885   9.468   0.099 -1.1507  0.4885  1.4166
  892MOL0     H20381   9.058   9.331   0.179 -4.5631 -2.5034 -5.4450
  892MOL0     H20382   9.325   9.018   0.183 -3.9482 -0.0047  0.5916
  892MOL0     H20383   9.521   8.879   0.250  0.7684 -0.2681  0.5073
  892MOL0     H20384   9.517   8.648   0.444  1.8215 -2.6601  0.0409
  892MOL0     H20385   9.643   8.716   0.332  3.6442  1.9526  0.2344
  892MOL0     H20386   9.818   8.634   0.451  0.4095 -1.6413  1.0831
  892MOL0     H20387   9.746   8.699   0.602  2.4825  1.9419 -0.8837
  892MOL0     H20388   9.686   8.437   0.453 -0.6207  1.9752 -0.0627
  892MOL0     H20389   9.770   8.432   0.595 -0.5367  0.0716  0.2411
  892MOL0     H20390   9.517   8.561   0.647  1.8643  0.9009  0.0756
  892MOL0     H20391   9.608   8.421   0.730  2.2525 -1.8565 -2.8396
  892MOL0     H20392   9.538   8.261   0.560 -2.3848 -2.1712 -0.0071
  892MOL0     H20393   9.453   8.395   0.465 -0.3694 -1.3611 -0.9628
  892MOL0     H20394   9.367   8.300   0.740  1.0049  0.7396  0.0047
  892MOL0     H20395   9.304   8.428   0.657  2.6613  0.7307  2.9684
  892MOL0     H20396   9.189   8.196   0.613  0.9208 -0.2145  0.4310
  892MOL0     H20397   9.321   8.157   0.515  1.7178  2.0576 -0.7138
  892MOL0     H20398   9.110   8.371   0.465  0.0627 -0.4509 -0.4141
  892MOL0     H20399   9.266   8.380   0.380  1.7369 -0.1434  0.8101
  892MOL0     H20400   9.436   8.932   0.661  2.0072  2.8565  1.1174
  892MOL0     H20401   9.237   9.071   0.591  0.9412  0.0874  1.5064
  892MOL0     H20402   8.799   9.172   0.488 -0.2809  0.5400  0.1471
  892MOL0     H20403   8.632   9.319   0.421 -1.5633 -1.1879 -1.8946
  892MOL0     H20404   9.113  10.543   1.068 -0.7728  2.0109  3.7134
  892MOL0     H20405   9.277  10.625   1.241 -3.5733 -1.7766 -0.5147
  892MOL0     H20406   9.546  10.751   1.415  0.1475 -0.2943  1.0427
  892MOL0     H20407   9.706  10.658   1.571 -3.2657  3.8026  0.8566
  892MOL0     H20408  10.116  10.820   1.582  0.6386 -0.2438  0.1435
  892MOL0     H20409  10.153  10.689   1.472  2.1617  2.3179  0.6466
  892MOL0     H20410  10.276  10.664   1.695 -0.2853 -1.1175  2.3071
  892MOL0     H20411  10.191  10.529   1.653  2.3435  0.2459  2.9547
  892MOL0     H20412   9.983  10.610   1.803  0.6933 -1.7411  0.7684
  892MOL0     H20413  10.086  10.752   1.835 -0.8598 -0.9963 -0.2742
  892MOL0     H20414  10.265  10.585   1.916 -0.1812 -2.9472 -0.4281
  892MOL0     H20415  10.125  10.596   2.034 -2.2615 -0.9917 -0.5533
  892MOL0     H20416  10.119  10.199   1.925 -1.1264 -0.3151  4.6323
  892MOL0     H20417  10.012  10.871   1.376  0.4535 -1.0162 -0.8407
  892MOL0     H20418   9.841  11.057   1.142  0.9115  0.4958  0.7762
  892MOL0     H20419   9.992  10.969   1.170 -0.7057  1.0942  2.0761
  892MOL0     H20420   9.859  10.887   1.078 -4.1067  2.4268 -1.9594
  893MOL0     O20421   2.062   7.740   1.953  0.2760 -0.4774  0.2045
  893MOL0     C20422   2.001   7.801   2.043 -0.3155 -0.5150 -0.2711
  893MOL0     O20423   2.023   7.930   2.081  0.2753 -0.7130  0.0522
  893MOL0     C20424   2.091   8.022   2.000  0.9309  0.8267 -0.3655
  893MOL0     C20425   2.106   8.010   1.867 -0.6773 -0.8100  0.1887
  893MOL0     C20426   2.195   8.092   1.797 -0.5541 -0.0578 -0.4046
  893MOL0     C20427   2.247   8.207   1.865  0.2943 -0.0842  0.5450
  893MOL0     O20428   2.329   8.287   1.794  0.1667 -0.5610 -0.2764
  893MOL0     C20429   2.335   8.421   1.839  0.1891 -0.8421  0.2519
  893MOL0     C20430   2.378   8.516   1.717  0.1324  0.6623 -0.2992
  893MOL0     C20431   2.378   8.669   1.759  0.0625  0.1495  0.1695
  893MOL0     C20432   2.387   8.709   1.905  0.6671 -0.1145 -0.7215
  893MOL0     C20433   2.382   8.864   1.923  0.4169 -0.3024  0.4172
  893MOL0     C20434   2.424   8.908   2.063 -0.0297 -0.4292  0.9237
  893MOL0     C20435   2.298   8.920   2.143 -0.5884  0.2227 -0.0978
  893MOL0     C20436   2.320   8.970   2.286  0.2885  0.2777  0.8704
  893MOL0     N20437   2.414   8.888   2.351 -0.9617  0.2888 -0.4275
  893MOL0     C20438   2.425   8.752   2.387 -0.5970 -0.0625  0.1559
  893MOL0     C20439   2.540   8.742   2.459  0.2268 -0.0464  0.0560
  893MOL0     C20440   2.597   8.610   2.488  0.1826 -0.2954  0.6120
  893MOL0     C20441   2.520   8.539   2.603 -0.5701 -0.7480  0.5244
  893MOL0     C20442   2.498   8.638   2.722  0.6942  0.0937 -0.1176
  893MOL0     C20443   2.444   8.562   2.850 -0.3541 -0.4841 -0.4226
  893MOL0     O20444   2.316   8.512   2.830 -0.1980 -0.5036  0.0018
  893MOL0     C20445   2.198   8.576   2.852 -1.2469  0.9136 -0.6733
  893MOL0     C20446   2.090   8.497   2.831 -0.3102 -0.6258  0.2447
  893MOL0     C20447   1.963   8.540   2.860 -0.2079 -0.0591 -0.0774
  893MOL0     C20448   1.945   8.674   2.903 -0.3889 -0.7006  0.1669
  893MOL0     C20449   1.804   8.711   2.936  0.6046  0.0787  0.1675
  893MOL0     O20450   1.777   8.841   2.914  0.1762  0.4117 -0.4237
  893MOL0     C20451   1.646   8.882   2.906 -0.4201 -0.8918  0.4785
  893MOL0     C20452   1.577   8.843   2.793  0.4531  0.6274  0.2417
  893MOL0     C20453   1.446   8.877   2.768 -0.2426  0.1187  0.4098
  893MOL0     C20454   1.377   8.946   2.865 -0.1606 -0.8635  0.2801
  893MOL0     O20455   1.236   8.965   2.848 -0.7090 -0.0401  0.4158
  893MOL0     C20456   1.161   9.019   2.951  0.3424 -0.0424 -0.4515
  893MOL0     C20457   1.015   8.972   2.953  0.4801 -0.4071  0.7440
  893MOL0     C20458   0.948   8.995   3.093 -0.2788  0.5857 -0.3126
  893MOL0     C20459   0.844   8.890   3.120 -0.3814  0.1485  0.0675
  893MOL0     C20460   0.768   8.903   3.259  0.2305 -0.5335  0.4231
  893MOL0     C20461   0.645   8.996   3.242 -0.0292  0.6389  0.2792
  893MOL0     C20462   0.569   9.014   3.378  0.2773  0.3383 -0.0499
  893MOL0     C20463   0.448   9.110   3.362  0.9250 -0.4799  0.7708
  893MOL0    Cl20464   0.389   9.129   3.529  0.6664  0.4980 -0.1882
  893MOL0     C20465   1.453   9.004   2.982  0.2711  0.0198  0.1259
  893MOL0     C20466   1.590   8.970   2.997  0.3323 -0.8003 -0.0323
  893MOL0     O20467   1.724   8.627   2.977  0.3389  0.7997 -0.3093
  893MOL0     C20468   2.051   8.759   2.905 -0.2509  0.2305  0.6428
  893MOL0     C20469   2.178   8.712   2.877 -0.4228 -0.2934  0.2257
  893MOL0     N20470   2.587   8.869   2.479  0.4699 -0.5222 -0.6413
  893MOL0     N20471   2.522   8.953   2.408 -0.2472 -0.0777 -0.2138
  893MOL0     C20472   2.222   8.229   2.003  0.3807 -0.5495 -0.1995
  893MOL0     C20473   2.140   8.132   2.067 -0.2130  0.0446 -0.8286
  893MOL0     C20474   1.924   7.723   2.146  0.3503 -0.2457  0.8516
  893MOL0     C20475   1.932   7.759   2.286 -0.5347 -0.9535 -0.8768
  893MOL0     C20476   1.856   7.691   2.376  0.1734  1.6572 -1.2797
  893MOL0     C20477   1.758   7.600   2.336  0.5600  0.2722 -0.4022
  893MOL0     O20478   1.677   7.560   2.443 -0.0938  0.2117  0.0604
  893MOL0     C20479   1.583   7.460   2.425 -0.2883  0.5886 -0.5145
  893MOL0     C20480   1.638   7.326   2.400 -0.1506  0.1760  0.5769
  893MOL0     C20481   1.714   7.277   2.519 -0.2693  0.0509 -0.2390
  893MOL0     C20482   1.722   7.119   2.517 -0.9149  0.6443  0.2916
  893MOL0     C20483   1.616   7.051   2.588  0.0752 -0.1003 -0.2718
  893MOL0     C20484   1.532   7.005   2.666  0.0538 -0.9099  0.6655
  893MOL0     C20485   1.752   7.561   2.199  0.2837 -0.1118 -0.5340
  893MOL0     C20486   1.834   7.625   2.106 -0.2451  0.4836  0.5759
  893MOL0     C20487   1.815   7.594   1.962 -0.7100  0.6959  0.0100
  893MOL0     H20488   2.054   7.934   1.809 -0.9955 -0.4968  0.0600
  893MOL0     H20489   2.214   8.074   1.692  1.1641 -0.4522 -0.0541
  893MOL0     H20490   2.237   8.452   1.878 -0.6853 -3.7341  0.5725
  893MOL0     H20491   2.414   8.421   1.915  2.4662 -1.2758 -1.9706
  893MOL0     H20492   2.295   8.505   1.647 -2.7609 -1.4466  3.1248
  893MOL0     H20493   2.469   8.470   1.676 -0.5224 -2.0909  1.0696
  893MOL0     H20494   2.298   8.721   1.706  1.5740  0.8795 -1.5094
  893MOL0     H20495   2.470   8.703   1.710  0.7023 -1.2948  0.3088
  893MOL0     H20496   2.304   8.673   1.967  0.3000  3.4073  1.1347
  893MOL0     H20497   2.483   8.675   1.947 -0.2010 -0.5896  0.9889
  893MOL0     H20498   2.445   8.914   1.849  1.5377  0.8047  2.0366
  893MOL0     H20499   2.279   8.894   1.901 -0.2002 -0.9688  2.1920
  893MOL0     H20500   2.492   8.831   2.101  1.1299 -0.6021 -1.3476
  893MOL0     H20501   2.480   9.001   2.057  0.7464 -0.9801 -2.5731
  893MOL0     H20502   2.261   8.817   2.153 -1.7270  0.8432  3.3250
  893MOL0     H20503   2.223   8.983   2.095  0.3444  0.9603 -0.6202
  893MOL0     H20504   2.351   9.075   2.288 -0.3908  0.5189 -0.2148
  893MOL0     H20505   2.227   8.947   2.340  1.2581 -0.7368  2.1776
  893MOL0     H20506   2.377   8.663   2.349  3.7232 -3.2026  1.2889
  893MOL0     H20507   2.582   8.544   2.402  0.1633  0.1527  0.2666
  893MOL0     H20508   2.703   8.604   2.513 -0.1945 -2.1464  1.9694
  893MOL0     H20509   2.430   8.496   2.557  0.1363 -0.6687 -0.9997
  893MOL0     H20510   2.563   8.452   2.653 -1.9321 -2.3530 -0.9901
  893MOL0     H20511   2.425   8.711   2.688  1.1575  0.2365 -0.8295
  893MOL0     H20512   2.588   8.696   2.744  0.5061  1.7302 -3.0839
  893MOL0     H20513   2.436   8.624   2.940 -0.2040 -1.7523  0.4889
  893MOL0     H20514   2.516   8.482   2.871  4.5059  2.9031 -2.2161
  893MOL0     H20515   2.109   8.393   2.805 -1.0389 -0.7225  0.0861
  893MOL0     H20516   1.884   8.465   2.855  2.7516 -3.5867  1.7021
  893MOL0     H20517   1.634   8.791   2.716  0.1044  0.5379  0.0395
  893MOL0     H20518   1.408   8.847   2.670 -0.4175  2.1413 -0.2019
  893MOL0     H20519   1.205   8.983   3.044  0.4003 -1.2124 -0.9154
  893MOL0     H20520   1.178   9.127   2.953 -1.9279  0.3471  0.5527
  893MOL0     H20521   0.961   9.030   2.878  2.2701  3.2143  2.0449
  893MOL0     H20522   1.023   8.864   2.935 -0.5934 -0.5080  0.7904
  893MOL0     H20523   1.028   8.997   3.168  0.7298  1.2967 -1.3749
  893MOL0     H20524   0.909   9.097   3.090  1.5079  1.3371  0.2229
  893MOL0     H20525   0.897   8.794   3.121 -1.0903 -0.2638  1.9817
  893MOL0     H20526   0.769   8.883   3.040  0.3379 -1.7251 -0.5023
  893MOL0     H20527   0.838   8.943   3.334  2.5223 -1.9061 -0.8539
  893MOL0     H20528   0.736   8.801   3.283 -1.8789 -0.1066 -0.4360
  893MOL0     H20529   0.682   9.096   3.215 -2.4291  1.6311  0.4570
  893MOL0     H20530   0.578   8.973   3.158  2.2144 -0.5441 -1.2894
  893MOL0     H20531   0.636   9.062   3.450  0.2013 -3.3408  2.7875
  893MOL0     H20532   0.533   8.920   3.420 -0.3417  0.8387  0.5547
  893MOL0     H20533   0.477   9.204   3.312  2.3708 -1.3228 -0.0641
  893MOL0     H20534   0.371   9.071   3.295  1.7020  0.5355 -0.7952
  893MOL0     H20535   1.406   9.052   3.067 -0.0295  1.1203 -0.6386
  893MOL0     H20536   1.628   9.003   3.093 -1.2625 -2.6121  1.3061
  893MOL0     H20537   2.027   8.860   2.937  0.8521  0.0012  2.3486
  893MOL0     H20538   2.267   8.774   2.876 -0.9511  0.5001 -1.7702
  893MOL0     H20539   2.257   8.316   2.057 -0.0633  0.0191 -0.8076
  893MOL0     H20540   2.113   8.149   2.171  0.9376  2.1212 -0.8125
  893MOL0     H20541   2.006   7.830   2.320  2.1092 -4.9348  2.6725
  893MOL0     H20542   1.841   7.724   2.479 -2.0683  1.1687 -1.3966
  893MOL0     H20543   1.512   7.482   2.345  1.9576 -1.6092 -3.2817
  893MOL0     H20544   1.516   7.458   2.512 -1.4121  0.9407 -1.3479
  893MOL0     H20545   1.696   7.333   2.308 -1.7139  0.9240 -0.4078
  893MOL0     H20546   1.555   7.257   2.382  0.3572 -0.4113  0.4654
  893MOL0     H20547   1.660   7.312   2.607  0.2593  3.2718 -1.0503
  893MOL0     H20548   1.812   7.327   2.519  1.2104 -2.5636  2.0888
  893MOL0     H20549   1.702   7.086   2.415 -4.7178  1.2737  0.6677
  893MOL0     H20550   1.820   7.103   2.562 -1.2683  0.4686  1.0207
  893MOL0     H20551   1.467   6.963   2.740  0.9611 -1.8431  0.9571
  893MOL0     H20552   1.681   7.486   2.163  2.1742 -3.4392  2.1701
  893MOL0     H20553   1.765   7.682   1.919 -0.0924  1.1831  0.2695
  893MOL0     H20554   1.906   7.559   1.913 -0.2582 -0.4433  1.5835
  893MOL0     H20555   1.736   7.520   1.948 -0.4440  0.4869 -0.3733
  894MOL0     O20556   5.997   9.622   0.208  0.2462 -0.1307 -0.2872
  894MOL0     C20557   6.035   9.735   0.227 -0.4381  1.1046 -0.9164
  894MOL0     O20558   5.965   9.831   0.289  0.1349 -0.1865 -0.4127
  894MOL0     C20559   5.841   9.812   0.335  0.1670 -0.5933 -0.4196
  894MOL0     C20560   5.815   9.703   0.420  0.2507 -0.1292 -0.1248
  894MOL0     C20561   5.690   9.673   0.463  0.6175  1.1521 -0.1124
  894MOL0     C20562   5.584   9.758   0.444  0.2756  0.0526 -0.2825
  894MOL0     O20563   5.450   9.730   0.459 -0.0845  0.0701  0.2230
  894MOL0     C20564   5.429   9.596   0.519  0.1797  1.0451  0.2023
  894MOL0     C20565   5.276   9.571   0.532 -0.5617  0.2662  0.1531
  894MOL0     C20566   5.208   9.692   0.595 -0.4213  0.2765 -0.5624
  894MOL0     C20567   5.270   9.709   0.736  0.2140 -0.4679  0.4887
  894MOL0     C20568   5.207   9.794   0.844 -0.4904  0.9268 -0.1481
  894MOL0     C20569   5.196   9.936   0.788  1.0089 -0.4966 -0.0389
  894MOL0     C20570   5.089  10.019   0.866 -0.5309 -0.3927 -0.0381
  894MOL0     C20571   5.151  10.057   1.004 -0.3905 -0.3320  0.4561
  894MOL0     N20572   5.049  10.137   1.069  0.8358  0.7229 -0.1749
  894MOL0     C20573   4.941  10.079   1.143  0.1761 -0.3032  0.3119
  894MOL0     C20574   4.885  10.192   1.201 -0.0842 -0.1171 -0.3794
  894MOL0     C20575   4.773  10.195   1.299  0.3079 -0.7961  0.1739
  894MOL0     C20576   4.799  10.137   1.430  0.4583  0.2976  0.1865
  894MOL0     C20577   4.676  10.137   1.524  0.2270 -0.6881  0.8684
  894MOL0     C20578   4.719  10.118   1.669 -1.0436  0.0949  0.1597
  894MOL0     O20579   4.623  10.092   1.765  0.3269  1.6089 -0.7888
  894MOL0     C20580   4.582  10.198   1.843  0.4523 -0.5917 -0.0173
  894MOL0     C20581   4.578  10.332   1.792 -0.0239 -0.2468 -1.1950
  894MOL0     C20582   4.547  10.437   1.886 -0.5039  0.1313 -0.2523
  894MOL0     C20583   4.498  10.407   2.015 -0.3695 -0.0885  1.2132
  894MOL0     C20584   4.474  10.519   2.117  0.6003  0.0452  0.8840
  894MOL0     O20585   4.528  10.644   2.092  0.5361  0.1293  0.9072
  894MOL0     C20586   4.492  10.753   2.175 -0.4135  0.0256  0.5463
  894MOL0     C20587   4.365  10.789   2.208  1.3964 -0.2502 -0.0927
  894MOL0     C20588   4.340  10.915   2.258  0.3186  0.3681 -0.5489
  894MOL0     C20589   4.442  11.008   2.271 -0.7768 -0.1415 -0.6101
  894MOL0     O20590   4.440  11.131   2.329  0.3739  0.4192  0.5546
  894MOL0     C20591   4.318  11.201   2.318 -0.8295  0.2006 -0.2482
  894MOL0     C20592   4.330  11.316   2.407  0.5119  0.5305  0.3854
  894MOL0     C20593   4.207  11.413   2.412  1.0899  0.3561 -0.0229
  894MOL0     C20594   4.246  11.557   2.432  0.2856 -0.5725 -0.5582
  894MOL0     C20595   4.303  11.624   2.309 -0.6133 -0.8841  0.3221
  894MOL0     C20596   4.189  11.666   2.214  0.9081  1.2454 -0.6113
  894MOL0     C20597   4.252  11.738   2.089 -0.5371  0.3291  0.5188
  894MOL0     C20598   4.154  11.769   1.978 -1.2869 -0.5190  0.3058
  894MOL0    Cl20599   4.154  11.650   1.857  0.1025  0.3382  0.1605
  894MOL0     C20600   4.575  10.972   2.242 -0.7286  0.0344 -0.2000
  894MOL0     C20601   4.602  10.840   2.184  0.6378  0.5564 -0.2827
  894MOL0     O20602   4.418  10.484   2.222  0.6377  0.2295 -0.7846
  894MOL0     C20603   4.488  10.270   2.049  0.6446  0.9013 -0.2557
  894MOL0     C20604   4.532  10.164   1.970 -0.2520  0.3988  0.2321
  894MOL0     N20605   4.948  10.310   1.151  0.2112  0.6405 -0.7141
  894MOL0     N20606   5.044  10.272   1.081 -0.6775 -0.4377  0.2673
  894MOL0     C20607   5.607   9.886   0.376  0.0126  0.3360  0.3715
  894MOL0     C20608   5.734   9.908   0.323 -1.3535 -0.3393 -0.2202
  894MOL0     C20609   6.160   9.775   0.149  0.4466 -0.1071  0.2206
  894MOL0     C20610   6.235   9.666   0.091 -0.1948 -0.3441 -0.4975
  894MOL0     C20611   6.344   9.683   0.013  1.2893 -0.9529  0.0664
  894MOL0     C20612   6.398   9.815  -0.001  0.4348  0.2812 -0.1866
  894MOL0     O20613   6.508   9.850  -0.077 -1.1939  0.3425  0.4713
  894MOL0     C20614   6.570   9.759  -0.165 -0.8976 -0.7349  0.1872
  894MOL0     C20615   6.670   9.667  -0.093 -1.1301  0.3911 -1.0727
  894MOL0     C20616   6.754   9.571  -0.184 -0.1252 -0.1930 -0.5792
  894MOL0     C20617   6.852   9.476  -0.104  0.3909 -0.1117 -0.3743
  894MOL0     C20618   6.976   9.554  -0.080  0.5306  0.7588  0.6856
  894MOL0     C20619   7.066   9.622  -0.045  0.3873 -0.4093  0.4833
  894MOL0     C20620   6.318   9.920   0.040  0.4892 -1.1945  0.6712
  894MOL0     C20621   6.206   9.905   0.127 -0.2768  0.0712 -0.2399
  894MOL0     C20622   6.137  10.032   0.165 -0.9434  0.3154 -0.2852
  894MOL0     H20623   5.892   9.629   0.441  0.6750  0.3200 -0.0845
  894MOL0     H20624   5.682   9.579   0.517  3.0323 -0.0805 -1.7099
  894MOL0     H20625   5.466   9.504   0.473 -1.4345  0.4789 -0.0359
  894MOL0     H20626   5.466   9.588   0.622 -1.4600  2.6203  0.9741
  894MOL0     H20627   5.259   9.480   0.590 -2.0786 -1.7295 -3.1818
  894MOL0     H20628   5.226   9.557   0.436  1.8144 -0.2269 -1.0973
  894MOL0     H20629   5.100   9.675   0.606 -0.8188  1.4256 -2.2573
  894MOL0     H20630   5.214   9.781   0.531 -1.1809  0.9820  0.3171
  894MOL0     H20631   5.269   9.608   0.777 -0.6685 -1.0607 -0.9546
  894MOL0     H20632   5.374   9.744   0.730  0.1392 -0.2017  0.7133
  894MOL0     H20633   5.108   9.760   0.875 -1.2128  2.6485 -0.4379
  894MOL0     H20634   5.265   9.775   0.935 -0.7885  0.7399  0.0047
  894MOL0     H20635   5.298   9.975   0.790  2.7334 -4.4736 -0.7866
  894MOL0     H20636   5.152   9.922   0.689 -1.3565 -3.0152  1.2359
  894MOL0     H20637   5.018   9.944   0.902  1.2248 -1.9642  0.3569
  894MOL0     H20638   5.043  10.103   0.814 -2.1618 -1.2489 -0.0216
  894MOL0     H20639   5.166   9.976   1.075 -0.3107  1.0261  2.0336
  894MOL0     H20640   5.249  10.106   0.996 -1.0171  1.3304  2.2105
  894MOL0     H20641   4.908   9.976   1.152 -0.9804 -0.0041 -0.3544
  894MOL0     H20642   4.729  10.294   1.307  1.0385 -0.6448  3.8125
  894MOL0     H20643   4.690  10.133   1.264 -0.1555  0.8681 -1.8588
  894MOL0     H20644   4.847  10.039   1.424  3.2007  1.5430  0.4449
  894MOL0     H20645   4.866  10.216   1.467  0.9076  0.4184 -0.8696
  894MOL0     H20646   4.613  10.052   1.495 -3.4098  1.9359  0.3256
  894MOL0     H20647   4.620  10.230   1.513 -0.3722 -1.0523  0.8008
  894MOL0     H20648   4.780  10.206   1.693 -0.8061  0.4088 -1.4314
  894MOL0     H20649   4.789  10.034   1.663  1.7220  2.3125 -3.0099
  894MOL0     H20650   4.618  10.354   1.694 -2.0292  0.0900 -1.9779
  894MOL0     H20651   4.558  10.544   1.867  1.6968 -0.0909 -0.5041
  894MOL0     H20652   4.288  10.721   2.172  1.4226  1.1156 -3.0126
  894MOL0     H20653   4.238  10.922   2.294  1.0879 -0.2972  1.9006
  894MOL0     H20654   4.295  11.252   2.224 -3.9955 -1.5713 -0.5665
  894MOL0     H20655   4.225  11.150   2.345 -1.9105  1.0113 -2.1990
  894MOL0     H20656   4.345  11.274   2.507  1.4907 -2.0040 -0.7320
  894MOL0     H20657   4.416  11.377   2.379  0.6635  0.0835 -0.1402
  894MOL0     H20658   4.144  11.404   2.323  0.5066  1.4946  0.2659
  894MOL0     H20659   4.155  11.387   2.504  2.3305 -2.2217  0.0355
  894MOL0     H20660   4.335  11.560   2.495 -0.4734  1.5735  0.5105
  894MOL0     H20661   4.168  11.617   2.480  0.5902 -0.4878 -0.1577
  894MOL0     H20662   4.388  11.568   2.269 -0.8473  0.5960 -2.4845
  894MOL0     H20663   4.353  11.711   2.352 -1.3471 -1.4128  2.3909
  894MOL0     H20664   4.130  11.576   2.197  0.3734  1.1482  1.5221
  894MOL0     H20665   4.126  11.738   2.266  1.9375  1.5439  0.2739
  894MOL0     H20666   4.333  11.674   2.053 -2.8920 -3.7378  1.7849
  894MOL0     H20667   4.299  11.830   2.124 -1.7032  0.8430  0.8031
  894MOL0     H20668   4.053  11.781   2.016 -0.8488  1.7229  0.8920
  894MOL0     H20669   4.178  11.860   1.922 -1.0871  1.1587  2.9765
  894MOL0     H20670   4.654  11.042   2.266 -0.5563 -0.6570  1.4459
  894MOL0     H20671   4.702  10.799   2.173 -0.2149 -3.2606  3.4695
  894MOL0     H20672   4.452  10.253   2.150  1.3600 -1.2337 -0.3165
  894MOL0     H20673   4.532  10.060   2.000 -1.7123  0.0578 -0.8252
  894MOL0     H20674   5.528   9.961   0.374  0.1137  0.4168 -0.6678
  894MOL0     H20675   5.746   9.997   0.262 -3.2991 -1.8776 -3.0919
  894MOL0     H20676   6.208   9.561   0.094  1.9032 -0.9019  1.5094
  894MOL0     H20677   6.382   9.588  -0.024  0.8470 -0.5016 -1.5980
  894MOL0     H20678   6.627   9.811  -0.243  0.1657 -0.8139  0.9006
  894MOL0     H20679   6.493   9.698  -0.213  1.1983 -2.6526 -0.9688
  894MOL0     H20680   6.615   9.624  -0.009  1.0958  3.4562  2.2393
  894MOL0     H20681   6.741   9.728  -0.036  1.1951 -2.2198 -0.9905
  894MOL0     H20682   6.804   9.631  -0.261  0.4581  1.2352  0.8690
  894MOL0     H20683   6.683   9.512  -0.244  0.7712 -1.0824 -0.8012
  894MOL0     H20684   6.829   9.441  -0.002  1.0472 -0.4184 -0.3250
  894MOL0     H20685   6.870   9.392  -0.171 -0.5790  0.3797 -1.2814
  894MOL0     H20686   7.159   9.664  -0.013  0.2195 -0.3353  0.8813
  894MOL0     H20687   6.333  10.022   0.006  0.0730 -1.2435  0.3257
  894MOL0     H20688   6.132  10.039   0.274 -1.6421  2.3771 -0.4160
  894MOL0     H20689   6.178  10.121   0.117  1.3153  0.6097  1.9631
  894MOL0     H20690   6.033  10.022   0.131  0.0233  0.5868 -3.6658
  895MOL0     O20691   2.714   1.901   0.665 -0.2741  1.1469  0.4703
  895MOL0     C20692   2.779   1.833   0.747  0.6087  0.0070  0.1904
  895MOL0     O20693   2.862   1.882   0.845  0.7777 -0.9081  0.4896
  895MOL0     C20694   2.875   2.015   0.842 -0.0110 -0.0785 -0.4581
  895MOL0     C20695   2.778   2.085   0.901 -0.0914 -1.0307 -0.9709
  895MOL0     C20696   2.781   2.218   0.909  0.1463 -0.3600 -0.4462
  895MOL0     C20697   2.886   2.289   0.855  0.3511 -1.0103  0.4303
  895MOL0     O20698   2.877   2.430   0.852 -0.2867 -0.0939 -0.2569
  895MOL0     C20699   2.955   2.498   0.753  0.2804  0.4767 -0.0843
  895MOL0     C20700   2.957   2.653   0.759  1.0800 -0.2153 -0.3408
  895MOL0     C20701   3.034   2.730   0.649 -1.0302 -0.2826  0.3266
  895MOL0     C20702   3.081   2.869   0.684  0.3491 -0.7448 -0.3394
  895MOL0     C20703   2.976   2.959   0.737  0.1422 -0.0203  0.6412
  895MOL0     C20704   3.032   3.094   0.753  0.3463 -1.4527  1.3959
  895MOL0     C20705   2.941   3.181   0.842  0.4574  0.7813  0.1360
  895MOL0     C20706   2.988   3.320   0.845 -0.5418  0.8469 -0.7945
  895MOL0     N20707   2.906   3.404   0.934 -0.8988  0.3936 -0.1551
  895MOL0     C20708   2.778   3.443   0.906 -0.1280 -0.9812  0.3281
  895MOL0     C20709   2.744   3.531   0.999  0.0707 -0.2344 -0.6691
  895MOL0     C20710   2.620   3.617   1.004  0.0531  0.3831 -0.8894
  895MOL0     C20711   2.588   3.658   1.157 -0.6654  0.1506  1.4867
  895MOL0     C20712   2.529   3.536   1.241  0.3488 -0.4334  0.4605
  895MOL0     C20713   2.502   3.571   1.388  0.4237 -0.2431 -0.3648
  895MOL0     O20714   2.625   3.590   1.430 -0.2414  0.2132 -0.9610
  895MOL0     C20715   2.657   3.516   1.537 -0.7441 -0.1818 -0.0056
  895MOL0     C20716   2.587   3.529   1.663  0.3241 -0.1433 -0.0022
  895MOL0     C20717   2.620   3.450   1.767 -0.4455  0.5488  0.4149
  895MOL0     C20718   2.737   3.366   1.766 -0.8240 -1.1477  0.2901
  895MOL0     C20719   2.762   3.264   1.879 -0.3462  0.0056  0.2348
  895MOL0     O20720   2.846   3.165   1.858  0.1410  0.0097  0.5584
  895MOL0     C20721   2.847   3.054   1.933  1.0939  0.1188 -0.4413
  895MOL0     C20722   2.734   2.970   1.938 -0.3610  0.0847  0.0267
  895MOL0     C20723   2.745   2.847   2.006 -0.0238 -0.6031  0.1515
  895MOL0     C20724   2.862   2.821   2.085 -0.4289 -0.2862 -0.0606
  895MOL0     O20725   2.870   2.718   2.167 -0.1367  0.3353 -0.0230
  895MOL0     C20726   2.765   2.688   2.250  0.3315 -0.7966  0.4827
  895MOL0     C20727   2.795   2.576   2.342  1.2661  0.3141 -0.6205
  895MOL0     C20728   2.908   2.605   2.445 -0.2729 -0.4089 -0.4908
  895MOL0     C20729   2.976   2.482   2.504  0.0402  0.6810 -0.5869
  895MOL0     C20730   3.070   2.510   2.616  0.7871  0.6517  0.0554
  895MOL0     C20731   3.183   2.401   2.613 -0.0769  0.8018 -0.0568
  895MOL0     C20732   3.280   2.428   2.734  0.0192 -0.3735  0.5099
  895MOL0     C20733   3.414   2.355   2.730  1.4463  0.3986 -0.6706
  895MOL0    Cl20734   3.521   2.442   2.842  0.4624  0.0526 -0.3376
  895MOL0     C20735   2.976   2.899   2.069  0.0116 -0.5824  0.9619
  895MOL0     C20736   2.967   3.012   1.989 -0.0081  1.1632 -0.5916
  895MOL0     O20737   2.686   3.269   1.980  0.8947  0.5417 -0.6266
  895MOL0     C20738   2.816   3.371   1.645 -0.9400 -0.4319 -0.8366
  895MOL0     C20739   2.775   3.440   1.532  0.3623  0.6957 -0.0540
  895MOL0     N20740   2.845   3.532   1.089 -1.6894  0.5442  0.4283
  895MOL0     N20741   2.960   3.477   1.039  0.3083  0.1311  0.0065
  895MOL0     C20742   2.995   2.214   0.797  0.5820  1.1385  0.0543
  895MOL0     C20743   2.989   2.073   0.788  0.5046  0.7044  0.9756
  895MOL0     C20744   2.749   1.688   0.762  0.0170 -0.1983 -0.1255
  895MOL0     C20745   2.615   1.650   0.737  0.8631  0.7192 -0.2299
  895MOL0     C20746   2.562   1.527   0.778  0.6892 -0.7114  0.2118
  895MOL0     C20747   2.656   1.427   0.824  0.0460 -0.2256 -0.5937
  895MOL0     O20748   2.601   1.307   0.853 -0.0230  0.0171 -0.0917
  895MOL0     C20749   2.687   1.189   0.843 -1.0439 -0.9900  0.8707
  895MOL0     C20750   2.629   1.062   0.802 -0.1750  0.0812 -0.7099
  895MOL0     C20751   2.575   1.000   0.938  1.1201  0.2943  0.3874
  895MOL0     C20752   2.492   0.867   0.921  0.0519  1.1156  0.6835
  895MOL0     C20753   2.359   0.889   0.883  0.0702 -0.3535  0.1926
  895MOL0     C20754   2.253   0.922   0.850  0.5586 -0.1587  0.0714
  895MOL0     C20755   2.797   1.464   0.837 -0.3937 -0.6473  0.2128
  895MOL0     C20756   2.843   1.593   0.817  0.1582 -0.0164 -0.2059
  895MOL0     C20757   2.990   1.619   0.851  0.2167 -0.0359  0.4220
  895MOL0     H20758   2.691   2.044   0.951 -1.8886  1.8712 -1.4683
  895MOL0     H20759   2.715   2.264   0.982  0.3355  0.4688 -0.7914
  895MOL0     H20760   3.062   2.475   0.759  0.2237 -0.0720 -1.0961
  895MOL0     H20761   2.938   2.466   0.650 -1.4862  2.0338 -0.3321
  895MOL0     H20762   2.987   2.686   0.858 -2.3577 -0.4585  0.9411
  895MOL0     H20763   2.850   2.680   0.760  0.2623 -2.8171  3.3277
  895MOL0     H20764   2.980   2.732   0.554  0.8377 -0.8416 -0.8069
  895MOL0     H20765   3.126   2.672   0.635  0.3096  1.5733  1.0990
  895MOL0     H20766   3.152   2.854   0.766 -2.6298 -1.9979  2.1877
  895MOL0     H20767   3.132   2.900   0.592 -3.0639 -0.8632 -2.4299
  895MOL0     H20768   2.885   2.951   0.677  1.6399 -0.0295 -1.7702
  895MOL0     H20769   2.944   2.945   0.840  0.3137 -1.1502  0.5562
  895MOL0     H20770   3.136   3.100   0.788  1.5542  1.4275 -2.0249
  895MOL0     H20771   3.025   3.144   0.656 -1.0293 -0.6695  1.8676
  895MOL0     H20772   2.926   3.140   0.942 -0.0646 -0.7172 -0.5180
  895MOL0     H20773   2.838   3.189   0.806 -0.2523 -1.3032  1.5219
  895MOL0     H20774   3.089   3.318   0.885 -0.6847 -2.8790 -0.2437
  895MOL0     H20775   3.001   3.364   0.746  2.2927  1.0320 -0.4065
  895MOL0     H20776   2.732   3.405   0.815 -0.4253  1.7297 -0.7600
  895MOL0     H20777   2.626   3.715   0.956 -0.9733  1.9600  1.9739
  895MOL0     H20778   2.537   3.557   0.967  1.4348 -0.9039 -2.0440
  895MOL0     H20779   2.677   3.703   1.200  0.0023  0.4415 -0.1086
  895MOL0     H20780   2.526   3.748   1.159  2.3400  2.4455  0.0347
  895MOL0     H20781   2.600   3.453   1.232  0.1930 -0.7803  2.1416
  895MOL0     H20782   2.433   3.508   1.197 -0.7702  0.7847  1.9896
  895MOL0     H20783   2.449   3.495   1.446 -1.0652  1.5467  0.7055
  895MOL0     H20784   2.442   3.662   1.395 -0.7909 -0.8435 -2.2285
  895MOL0     H20785   2.498   3.589   1.678  0.9315  0.7235  0.2249
  895MOL0     H20786   2.561   3.454   1.858  2.1769  0.1062  2.2343
  895MOL0     H20787   2.641   2.999   1.889 -0.0883 -1.5748 -1.5873
  895MOL0     H20788   2.670   2.769   1.992  1.5583 -1.9774 -1.1764
  895MOL0     H20789   2.731   2.775   2.307 -1.1345  0.2065 -1.7785
  895MOL0     H20790   2.679   2.663   2.187  0.1878  2.2980 -0.7101
  895MOL0     H20791   2.706   2.558   2.402  0.4675  0.4952 -1.7257
  895MOL0     H20792   2.833   2.491   2.284 -1.2117 -2.1683  1.1066
  895MOL0     H20793   2.988   2.664   2.400 -0.1495  2.2867  2.8653
  895MOL0     H20794   2.875   2.665   2.530  1.3009 -0.6804  0.3458
  895MOL0     H20795   3.043   2.447   2.425 -1.0626 -0.5920 -0.9795
  895MOL0     H20796   2.907   2.400   2.524  3.9877 -3.2027 -1.3318
  895MOL0     H20797   3.002   2.509   2.701 -0.4546  0.2405 -0.9151
  895MOL0     H20798   3.117   2.607   2.631  0.0263  0.9378  0.6146
  895MOL0     H20799   3.138   2.302   2.626  0.9953  0.6402  3.4611
  895MOL0     H20800   3.243   2.421   2.524  4.1935  2.6328  2.9284
  895MOL0     H20801   3.233   2.424   2.833  1.1591  0.8539  1.1278
  895MOL0     H20802   3.305   2.533   2.720 -0.8569 -0.3393 -0.9225
  895MOL0     H20803   3.395   2.253   2.766 -2.3420  0.1452 -2.8841
  895MOL0     H20804   3.449   2.349   2.627 -4.7741 -0.0194 -3.1891
  895MOL0     H20805   3.069   2.868   2.116 -0.4972 -2.0569  1.0396
  895MOL0     H20806   3.057   3.070   1.971  0.6535  0.7268  1.1525
  895MOL0     H20807   2.915   3.328   1.639 -0.9439 -0.4713 -0.6329
  895MOL0     H20808   2.828   3.436   1.437  0.1326 -1.2928 -0.1459
  895MOL0     H20809   3.075   2.252   0.734 -1.0083  0.2044 -2.7147
  895MOL0     H20810   3.063   2.011   0.737 -0.3930  0.4734 -0.0800
  895MOL0     H20811   2.550   1.724   0.691 -1.4377  0.9110  2.9685
  895MOL0     H20812   2.454   1.515   0.777  0.1923  2.5109  1.6288
  895MOL0     H20813   2.747   1.163   0.930  0.4011 -4.6002 -0.9986
  895MOL0     H20814   2.750   1.215   0.758 -1.3010 -1.2846  0.5869
  895MOL0     H20815   2.701   1.000   0.746 -1.5901 -1.0299 -1.3730
  895MOL0     H20816   2.553   1.079   0.725  0.9296 -0.8993 -2.0793
  895MOL0     H20817   2.504   1.069   0.984 -2.0241 -1.5509 -1.4009
  895MOL0     H20818   2.659   0.973   1.003 -0.9418 -0.2775  3.0118
  895MOL0     H20819   2.560   0.808   0.858 -0.0622  1.2812  0.4083
  895MOL0     H20820   2.488   0.818   1.019  0.0455  1.1987  0.7241
  895MOL0     H20821   2.153   0.950   0.824  0.8529  2.8461  1.6894
  895MOL0     H20822   2.863   1.398   0.892  1.4519  2.2345  1.6991
  895MOL0     H20823   3.026   1.711   0.804  0.0625  1.2699  2.7244
  895MOL0     H20824   2.998   1.634   0.959  1.2122 -4.9279  1.2679
  895MOL0     H20825   3.060   1.536   0.839 -1.3647 -1.3994  0.2703
  896MOL0     O20826   3.114   1.572  11.139 -0.4076 -0.3506 -0.4709
  896MOL0     C20827   3.070   1.612  11.251 -0.3240 -0.2523  0.7820
  896MOL0     O20828   3.144   1.648  11.356  0.2724  0.1097 -0.4504
  896MOL0     C20829   3.285   1.644  11.345 -0.3254  0.8013 -0.2441
  896MOL0     C20830   3.349   1.761  11.386 -0.7702 -0.3634 -0.1312
  896MOL0     C20831   3.484   1.768  11.408  1.1959 -0.4906 -0.6666
  896MOL0     C20832   3.573   1.660  11.373  0.0512  1.0498 -0.6006
  896MOL0     O20833   3.707   1.658  11.393 -0.5018  0.2270 -0.9318
  896MOL0     C20834   3.736   1.677  11.531 -0.7296 -0.8086 -0.7215
  896MOL0     C20835   3.820   1.801  11.550  0.1521  0.0609  0.0893
  896MOL0     C20836   3.864   1.805  11.693  0.3274  0.2054 -0.6689
  896MOL0     C20837   3.971   1.708  11.726 -0.5822  0.0552  0.0537
  896MOL0     C20838   4.020   1.740  11.868 -0.9411  0.2739  0.2716
  896MOL0     C20839   4.102   1.616  11.915  0.3149 -0.4611 -0.3205
  896MOL0     C20840   4.222   1.578  11.829  0.1807 -0.6396 -0.5905
  896MOL0     C20841   4.284   1.441  11.870 -0.4772 -0.3374 -0.0337
  896MOL0     N20842   4.206   1.325  11.855  0.3211  0.3285  0.4290
  896MOL0     C20843   4.155   1.248  11.946  0.3551  0.0700 -0.2774
  896MOL0     C20844   4.080   1.156  11.879  0.7149 -0.7857 -0.2281
  896MOL0     C20845   3.991   1.051  11.937  0.4220  0.7121 -0.1599
  896MOL0     C20846   3.920   1.078  12.074 -0.2011 -0.5057  1.1086
  896MOL0     C20847   3.825   1.194  12.068  0.6760 -0.0363 -1.6687
  896MOL0     C20848   3.786   1.215  12.219  0.1596  0.7498  0.2448
  896MOL0     O20849   3.894   1.258  12.309  0.4811  0.2499  0.3846
  896MOL0     C20850   3.948   1.384  12.294  1.9100 -0.3564 -0.2353
  896MOL0     C20851   4.057   1.422  12.369  0.2748  0.0812 -0.8301
  896MOL0     C20852   4.103   1.557  12.364  0.4835 -0.0390  0.4690
  896MOL0     C20853   4.035   1.656  12.285 -0.6988  0.5264  0.5422
  896MOL0     C20854   4.086   1.792  12.274  0.0853  0.7196 -0.5308
  896MOL0     O20855   4.196   1.829  12.354 -0.3961  0.7845 -0.2179
  896MOL0     C20856   4.275   1.936  12.316  0.4337  0.3004 -0.8793
  896MOL0     C20857   4.228   2.070  12.333  0.8575 -0.5977 -0.2649
  896MOL0     C20858   4.303   2.179  12.288 -0.3907 -0.6205 -0.3978
  896MOL0     C20859   4.424   2.164  12.218 -0.0716  0.4924  0.7185
  896MOL0     O20860   4.500   2.269  12.183  0.3823 -0.8988  0.1862
  896MOL0     C20861   4.521   2.298  12.041  0.3388 -0.1402  1.0147
  896MOL0     C20862   4.642   2.389  12.019  0.5214 -0.4179 -0.4562
  896MOL0     C20863   4.672   2.423  11.871  0.5761  0.7898  1.0556
  896MOL0     C20864   4.622   2.325  11.760 -0.2258 -0.0827 -0.9465
  896MOL0     C20865   4.676   2.354  11.622 -0.6652  0.0820  0.2551
  896MOL0     C20866   4.588   2.296  11.516 -0.6322  0.3674  0.3065
  896MOL0     C20867   4.611   2.369  11.381  0.7185  0.1543 -0.2649
  896MOL0     C20868   4.710   2.304  11.288 -0.6199  0.2048 -0.5710
  896MOL0    Cl20869   4.877   2.286  11.355 -0.0952  0.2013  0.1777
  896MOL0     C20870   4.465   2.026  12.201  0.3014 -0.9403  0.8584
  896MOL0     C20871   4.400   1.917  12.249  0.7139  0.1698  1.4080
  896MOL0     O20872   4.040   1.865  12.191 -0.2465 -0.4032 -0.4729
  896MOL0     C20873   3.919   1.621  12.218 -0.6159  0.0757 -0.0109
  896MOL0     C20874   3.877   1.487  12.221 -0.1562  0.9153  0.3797
  896MOL0     N20875   4.088   1.193  11.743  0.2964  0.0463  0.4270
  896MOL0     N20876   4.170   1.289  11.728 -0.2912 -0.8888 -0.7287
  896MOL0     C20877   3.515   1.541  11.328 -0.0555 -1.9817  0.1522
  896MOL0     C20878   3.374   1.537  11.312  0.0016 -0.2252 -1.2028
  896MOL0     C20879   2.919   1.617  11.282 -0.0553  0.4752  0.2384
  896MOL0     C20880   2.878   1.605  11.421 -0.4399  0.4966  0.4975
  896MOL0     C20881   2.751   1.615  11.458  0.9060  0.0467  0.1571
  896MOL0     C20882   2.649   1.644  11.369 -0.7417  0.1953 -0.4437
  896MOL0     O20883   2.524   1.693  11.406  0.3733  0.0223  0.2424
  896MOL0     C20884   2.483   1.648  11.533  0.5226 -0.8560 -0.3548
  896MOL0     C20885   2.330   1.647  11.551  1.0547 -1.2404 -0.5386
  896MOL0     C20886   2.263   1.789  11.551  0.2681  0.1827 -0.5446
  896MOL0     C20887   2.112   1.793  11.510 -0.3834 -0.0910 -0.3657
  896MOL0     C20888   2.014   1.752  11.609  0.4164  0.4099  0.7775
  896MOL0     C20889   1.940   1.735  11.700 -0.2804 -0.3228  0.0999
  896MOL0     C20890   2.684   1.644  11.235  0.2256  0.5929 -0.3270
  896MOL0     C20891   2.817   1.638  11.192 -0.0552 -0.2953 -0.6506
  896MOL0     C20892   2.839   1.674  11.050 -0.5169 -0.1950  0.1437
  896MOL0     H20893   3.295   1.848  11.421  0.4435  0.6285 -0.6666
  896MOL0     H20894   3.528   1.864  11.432 -1.6059  0.5433  0.8491
  896MOL0     H20895   3.650   1.689  11.597 -0.8613  2.5366 -1.3431
  896MOL0     H20896   3.790   1.585  11.558 -2.1820 -2.0472 -1.8245
  896MOL0     H20897   3.757   1.888  11.530  0.3706 -0.0565 -1.1790
  896MOL0     H20898   3.905   1.811  11.481 -0.5783 -1.0341 -1.0303
  896MOL0     H20899   3.771   1.792  11.748 -0.9728 -0.3286 -2.8812
  896MOL0     H20900   3.901   1.907  11.703  0.9558 -0.1206  0.5089
  896MOL0     H20901   3.928   1.607  11.723 -0.3959 -0.0053 -3.0089
  896MOL0     H20902   4.034   1.711  11.637 -0.7289 -1.7061 -0.1397
  896MOL0     H20903   4.073   1.834  11.887 -1.6887  0.1738  3.4509
  896MOL0     H20904   3.930   1.750  11.929 -1.1637  1.1547 -0.1846
  896MOL0     H20905   4.132   1.646  12.016 -1.8217  1.2630 -0.1172
  896MOL0     H20906   4.031   1.535  11.933 -1.1891  0.7249 -0.7641
  896MOL0     H20907   4.298   1.657  11.827  0.2645 -0.7167 -0.4929
  896MOL0     H20908   4.198   1.559  11.724  3.6947 -2.1174 -1.2731
  896MOL0     H20909   4.373   1.428  11.807  0.0883 -2.6405  1.1338
  896MOL0     H20910   4.314   1.445  11.975 -3.8561 -1.2936  1.1062
  896MOL0     H20911   4.160   1.249  12.055 -1.6741  1.6689 -0.1402
  896MOL0     H20912   3.916   1.018  11.864 -1.5030  2.3347  0.9655
  896MOL0     H20913   4.046   0.958  11.951 -1.7916 -0.5935  0.3387
  896MOL0     H20914   3.865   0.987  12.099 -0.6614 -1.3362 -2.4778
  896MOL0     H20915   3.990   1.102  12.155  2.1848 -1.2181 -0.6524
  896MOL0     H20916   3.738   1.176  12.005 -0.1838 -1.0382 -0.2553
  896MOL0     H20917   3.886   1.275  12.026  0.6693  0.8303 -0.1043
  896MOL0     H20918   3.735   1.128  12.262 -1.8999  3.0826  2.8866
  896MOL0     H20919   3.711   1.293  12.234  0.2003  0.6458  1.0097
  896MOL0     H20920   4.092   1.363  12.453 -0.0461  0.1824 -0.6205
  896MOL0     H20921   4.192   1.579  12.421  0.6988  1.8011 -0.4960
  896MOL0     H20922   4.137   2.095  12.386  1.0123  1.0119 -0.7263
  896MOL0     H20923   4.270   2.280  12.311  1.4534 -0.3857  1.6004
  896MOL0     H20924   4.548   2.209  11.984  0.5261  0.9060 -0.6128
  896MOL0     H20925   4.429   2.340  11.998  1.4997  0.7331 -0.7340
  896MOL0     H20926   4.618   2.483  12.069 -2.0823 -1.1502 -0.1584
  896MOL0     H20927   4.728   2.337  12.064 -1.0188  0.6704  4.3757
  896MOL0     H20928   4.620   2.518  11.858 -0.0061  0.8130  3.1513
  896MOL0     H20929   4.779   2.437  11.855  0.9025 -1.3450  1.0877
  896MOL0     H20930   4.513   2.313  11.761 -0.3543  0.9796 -0.2645
  896MOL0     H20931   4.663   2.227  11.786 -1.1654  0.7330  5.2522
  896MOL0     H20932   4.781   2.326  11.611 -0.6381  0.3276 -0.1409
  896MOL0     H20933   4.665   2.463  11.626  2.0360  0.3817  1.8573
  896MOL0     H20934   4.602   2.187  11.521 -1.6087  0.1673 -0.8909
  896MOL0     H20935   4.482   2.304  11.545 -0.0317 -1.0672  3.2774
  896MOL0     H20936   4.632   2.475  11.397 -2.0550  0.6248  0.9426
  896MOL0     H20937   4.509   2.360  11.343  0.4935 -0.9192  0.5430
  896MOL0     H20938   4.677   2.200  11.282 -0.7068  0.1727  0.3274
  896MOL0     H20939   4.704   2.352  11.190  0.7959 -1.7435 -1.6631
  896MOL0     H20940   4.567   2.008  12.167  0.7092 -3.1824  2.9963
  896MOL0     H20941   4.434   1.816  12.226  0.3676  0.1151  1.1207
  896MOL0     H20942   3.864   1.699  12.166 -1.6809 -1.2285 -0.8949
  896MOL0     H20943   3.782   1.469  12.172 -0.5358  2.5642  0.4661
  896MOL0     H20944   3.576   1.456  11.302 -1.4463 -2.7603 -0.7176
  896MOL0     H20945   3.336   1.440  11.284  0.2256 -1.6081  2.6803
  896MOL0     H20946   2.951   1.591  11.499  0.0028 -0.7524 -0.1171
  896MOL0     H20947   2.740   1.612  11.566 -0.1781 -2.7747  0.0566
  896MOL0     H20948   2.535   1.703  11.612  0.4384 -0.7636 -0.3638
  896MOL0     H20949   2.508   1.543  11.548  0.5209 -1.2960 -2.9477
  896MOL0     H20950   2.305   1.592  11.642  0.3006  1.0464  0.7031
  896MOL0     H20951   2.293   1.596  11.461  1.8714 -3.9622  0.5614
  896MOL0     H20952   2.319   1.855  11.485 -1.5460  0.2858 -2.0482
  896MOL0     H20953   2.277   1.840  11.647 -2.4561  4.9588 -2.3265
  896MOL0     H20954   2.096   1.900  11.497 -0.3286  0.1002  0.9953
  896MOL0     H20955   2.107   1.742  11.413  3.9391  0.2125 -0.9606
  896MOL0     H20956   1.883   1.735  11.790  1.0143 -1.3531  0.9498
  896MOL0     H20957   2.609   1.664  11.159 -3.0630 -0.1179  2.4847
  896MOL0     H20958   2.895   1.768  11.047  2.6829 -1.9912 -1.1706
  896MOL0     H20959   2.885   1.602  10.982 -0.8783  0.5931 -0.9655
  896MOL0     H20960   2.750   1.691  10.989  0.2413  5.7093  0.1468
  897MOL0     O20961   9.416   0.653   7.393 -0.6355 -0.5446 -0.8596
  897MOL0     C20962   9.381   0.595   7.494 -0.2734 -0.4867  0.3491
  897MOL0     O20963   9.445   0.489   7.551  0.1222  0.9288  0.0259
  897MOL0     C20964   9.571   0.464   7.508  0.1514  0.6891  0.2671
  897MOL0     C20965   9.605   0.344   7.444  0.1644 -0.3995 -0.9013
  897MOL0     C20966   9.726   0.316   7.393  0.4519 -0.5497 -0.7428
  897MOL0     C20967   9.834   0.407   7.417  0.5331  0.7229  0.3296
  897MOL0     O20968   9.963   0.378   7.372  0.5966  0.2299 -0.3571
  897MOL0     C20969  10.043   0.291   7.452 -0.2663 -0.4229 -0.5818
  897MOL0     C20970  10.030   0.161   7.375 -0.8132 -0.1646  0.1072
  897MOL0     C20971  10.125   0.062   7.432 -0.2672 -0.1018  0.0650
  897MOL0     C20972  10.108  -0.084   7.371 -0.2394  0.1068  0.4562
  897MOL0     C20973  10.212  -0.189   7.418 -0.0411 -0.5368 -0.3782
  897MOL0     C20974  10.352  -0.159   7.380 -0.2187  0.5499 -0.8808
  897MOL0     C20975  10.442  -0.266   7.437  0.0568 -0.0419 -0.8468
  897MOL0     C20976  10.583  -0.238   7.433  0.7868 -0.6410  0.4911
  897MOL0     N20977  10.662  -0.349   7.466  0.5669 -1.0720 -0.1748
  897MOL0     C20978  10.679  -0.462   7.388 -0.4380  0.0299 -0.6927
  897MOL0     C20979  10.801  -0.512   7.431  0.0290 -1.0662  0.2421
  897MOL0     C20980  10.868  -0.613   7.354 -0.4173  0.6629  0.2493
  897MOL0     C20981  10.821  -0.756   7.396 -1.3461 -0.2360 -0.3843
  897MOL0     C20982  10.919  -0.862   7.331  0.5061 -0.6775  0.4768
  897MOL0     C20983  10.886  -1.002   7.375 -0.0759 -0.9787 -0.5149
  897MOL0     O20984  10.762  -1.043   7.327 -0.2071  0.4161  0.4296
  897MOL0     C20985  10.704  -1.136   7.409 -0.8231  0.4799  0.2000
  897MOL0     C20986  10.596  -1.092   7.486 -0.3845 -0.7849 -0.4912
  897MOL0     C20987  10.520  -1.195   7.546 -0.4546  0.3711 -0.1872
  897MOL0     C20988  10.546  -1.331   7.517  0.2770 -0.3746 -0.0939
  897MOL0     C20989  10.465  -1.438   7.574 -0.9747 -1.0508 -1.0343
  897MOL0     O20990  10.396  -1.381   7.678 -0.8516  1.0513  0.8634
  897MOL0     C20991  10.318  -1.459   7.758  0.1636  1.3916  0.1584
  897MOL0     C20992  10.322  -1.432   7.892 -0.8656 -0.3034 -0.2070
  897MOL0     C20993  10.254  -1.506   7.989 -0.6418  0.3307  0.2337
  897MOL0     C20994  10.185  -1.628   7.953 -0.2447 -0.7637 -0.3280
  897MOL0     O20995  10.122  -1.711   8.037  0.4513  0.1350  0.2203
  897MOL0     C20996  10.154  -1.698   8.177  0.8000  0.4715  0.1858
  897MOL0     C20997  10.297  -1.734   8.210  0.0982  0.5964  0.1043
  897MOL0     C20998  10.336  -1.678   8.342 -0.7076  0.1975 -0.3463
  897MOL0     C20999  10.483  -1.700   8.361  0.9799 -0.0562 -0.2297
  897MOL0     C21000  10.530  -1.644   8.489  0.0650 -0.2709 -0.5802
  897MOL0     C21001  10.535  -1.492   8.498  0.0471  0.3182  0.2837
  897MOL0     C21002  10.579  -1.444   8.632 -0.1195  0.1383  0.3583
  897MOL0     C21003  10.733  -1.446   8.649  1.2952  0.1862 -0.5635
  897MOL0    Cl21004  10.780  -1.580   8.742 -0.3349  0.2116  0.3848
  897MOL0     C21005  10.192  -1.666   7.818  0.7846 -0.7816 -0.3231
  897MOL0     C21006  10.248  -1.574   7.721 -0.4996 -0.7690  0.1803
  897MOL0     O21007  10.491  -1.554   7.544  0.3934  0.6515  0.9271
  897MOL0     C21008  10.652  -1.370   7.426 -0.8919  0.1196 -0.2297
  897MOL0     C21009  10.723  -1.269   7.365 -0.1283  0.3298 -0.3768
  897MOL0     N21010  10.841  -0.436   7.543 -0.1673 -0.6798  0.1770
  897MOL0     N21011  10.762  -0.343   7.560 -0.2776  0.5621  0.4425
  897MOL0     C21012   9.801   0.524   7.481  0.4928 -0.5273 -0.7768
  897MOL0     C21013   9.675   0.550   7.531 -0.2091  0.4402 -0.5402
  897MOL0     C21014   9.262   0.650   7.566  0.7219  0.5466  0.8994
  897MOL0     C21015   9.241   0.622   7.700  0.9141  0.5017  0.2976
  897MOL0     C21016   9.123   0.650   7.765 -0.6115  0.1861 -0.4408
  897MOL0     C21017   9.010   0.705   7.701  1.2846  0.4027  0.1693
  897MOL0     O21018   8.892   0.743   7.764  0.4744 -0.4237 -0.3956
  897MOL0     C21019   8.902   0.767   7.903  0.5279 -0.3609  1.3763
  897MOL0     C21020   8.803   0.887   7.918 -0.1520  0.8819  0.7783
  897MOL0     C21021   8.837   1.012   7.844  1.0413 -0.0652  0.5954
  897MOL0     C21022   8.719   1.052   7.746 -0.0624 -0.2670  0.1059
  897MOL0     C21023   8.591   1.077   7.826 -0.5944  0.7249 -0.2109
  897MOL0     C21024   8.507   1.115   7.901  0.3493  0.2906  0.7697
  897MOL0     C21025   9.023   0.724   7.563 -0.1214 -0.2893  0.7273
  897MOL0     C21026   9.145   0.695   7.493 -0.0086  0.2979 -0.3939
  897MOL0     C21027   9.140   0.709   7.337 -0.2152  0.3286 -0.7053
  897MOL0     H21028   9.528   0.268   7.436 -0.8536  0.5163 -0.1776
  897MOL0     H21029   9.749   0.224   7.341  2.0242 -0.9876  0.6310
  897MOL0     H21030  10.151   0.303   7.439  0.1052 -1.9936  0.6585
  897MOL0     H21031  10.019   0.300   7.559 -2.2114 -1.7113 -0.8486
  897MOL0     H21032  10.047   0.176   7.268 -2.6617  0.1139 -0.1790
  897MOL0     H21033   9.930   0.120   7.388 -0.8467 -0.1386 -0.0724
  897MOL0     H21034  10.099   0.049   7.537  2.0054  1.8226  0.9617
  897MOL0     H21035  10.229   0.095   7.434 -0.2240 -0.2212 -0.2146
  897MOL0     H21036  10.006  -0.115   7.396 -0.8634  1.7312  0.0754
  897MOL0     H21037  10.111  -0.067   7.262  0.4582  0.3058  0.5015
  897MOL0     H21038  10.208  -0.206   7.526  1.0693 -2.2692 -0.5719
  897MOL0     H21039  10.184  -0.287   7.377  0.7206 -2.7565  3.7942
  897MOL0     H21040  10.373  -0.145   7.274 -0.5519  1.8136 -0.7952
  897MOL0     H21041  10.379  -0.066   7.430  2.8804 -1.0788  0.8011
  897MOL0     H21042  10.433  -0.364   7.391  3.3416 -0.8396 -0.0957
  897MOL0     H21043  10.418  -0.292   7.541  2.2255  2.6222  0.4624
  897MOL0     H21044  10.611  -0.216   7.330 -0.2420 -2.5858 -0.2440
  897MOL0     H21045  10.621  -0.153   7.491 -0.6463  2.2027 -2.4334
  897MOL0     H21046  10.619  -0.514   7.314 -1.0762 -0.4283  0.1214
  897MOL0     H21047  10.841  -0.603   7.249  0.1486 -0.4970 -0.0274
  897MOL0     H21048  10.977  -0.610   7.367 -0.1364 -0.6322 -1.5012
  897MOL0     H21049  10.835  -0.765   7.504  0.1139 -2.5540 -0.6866
  897MOL0     H21050  10.716  -0.767   7.366 -2.0426 -4.1152  2.6142
  897MOL0     H21051  11.016  -0.843   7.377  0.6948 -2.3296  0.8284
  897MOL0     H21052  10.924  -0.852   7.222  1.7383 -1.0946  0.4766
  897MOL0     H21053  10.881  -1.010   7.485 -1.0479 -1.2635 -0.5633
  897MOL0     H21054  10.960  -1.070   7.331  0.4381 -0.8591  0.1494
  897MOL0     H21055  10.596  -0.986   7.510  3.8983 -0.5533 -0.8210
  897MOL0     H21056  10.428  -1.175   7.600 -0.8445  1.9227 -1.3655
  897MOL0     H21057  10.382  -1.348   7.926  0.6945 -1.7501  0.7579
  897MOL0     H21058  10.261  -1.472   8.092 -1.2378 -0.2282  0.4674
  897MOL0     H21059  10.137  -1.596   8.213 -0.8193 -0.7839  3.4916
  897MOL0     H21060  10.087  -1.763   8.234 -1.4995  0.8025 -1.9741
  897MOL0     H21061  10.300  -1.843   8.212  1.9239  0.6287  1.3933
  897MOL0     H21062  10.362  -1.701   8.128  0.0514 -1.2903 -0.7447
  897MOL0     H21063  10.298  -1.576   8.357 -1.6638  0.0478 -1.5097
  897MOL0     H21064  10.302  -1.733   8.430  2.5264 -0.6916  0.4611
  897MOL0     H21065  10.547  -1.661   8.281  0.0856  1.2067 -0.3695
  897MOL0     H21066  10.500  -1.808   8.367  1.5134 -0.0423 -1.1427
  897MOL0     H21067  10.631  -1.682   8.508 -1.2129 -2.9268  1.7285
  897MOL0     H21068  10.475  -1.691   8.571  1.0072 -2.4098 -1.1123
  897MOL0     H21069  10.584  -1.450   8.410 -1.9686  2.0134 -0.1052
  897MOL0     H21070  10.433  -1.456   8.480  0.1489 -0.1401 -1.3969
  897MOL0     H21071  10.516  -1.481   8.713 -0.7376 -1.3169 -0.7479
  897MOL0     H21072  10.560  -1.336   8.630  0.7902  0.3218  0.9359
  897MOL0     H21073  10.781  -1.450   8.551  3.4847 -2.9549  0.4867
  897MOL0     H21074  10.760  -1.352   8.699  0.4922 -0.4090  1.0744
  897MOL0     H21075  10.151  -1.765   7.804  5.5522 -3.0782  0.0404
  897MOL0     H21076  10.264  -1.604   7.618 -0.2019 -1.4380  0.4139
  897MOL0     H21077  10.675  -1.474   7.407 -0.7473 -0.2879  1.8970
  897MOL0     H21078  10.816  -1.283   7.311  1.2940  2.3988  1.3511
  897MOL0     H21079   9.873   0.600   7.509 -2.2575  1.8692  0.3084
  897MOL0     H21080   9.668   0.628   7.606  0.4852 -0.2383  0.2476
  897MOL0     H21081   9.313   0.561   7.753 -2.5198 -4.3870 -0.1091
  897MOL0     H21082   9.109   0.643   7.873  0.9661  2.5612 -0.0011
  897MOL0     H21083   8.998   0.808   7.937  0.8070 -0.9894  1.3594
  897MOL0     H21084   8.873   0.676   7.956  0.8462 -0.6015  1.1433
  897MOL0     H21085   8.797   0.909   8.025 -3.1941 -0.6429  1.0383
  897MOL0     H21086   8.699   0.858   7.904  0.5969 -1.0083 -1.7657
  897MOL0     H21087   8.932   0.998   7.793  1.9922 -1.3285  2.5681
  897MOL0     H21088   8.855   1.097   7.910  0.6329  0.6857 -0.2512
  897MOL0     H21089   8.744   1.146   7.695 -3.3750  1.9517  2.2143
  897MOL0     H21090   8.695   0.974   7.673  1.8804 -0.0334 -0.8568
  897MOL0     H21091   8.438   1.158   7.971  0.4538  3.4178 -0.8457
  897MOL0     H21092   8.937   0.744   7.500 -0.9974  0.1013  2.0119
  897MOL0     H21093   9.103   0.618   7.287  1.5386 -1.2993  0.7999
  897MOL0     H21094   9.066   0.781   7.301 -1.0191  1.1055  2.2201
  897MOL0     H21095   9.231   0.746   7.290  2.5683  1.4159  4.7384
  898MOL0     O21096   7.023   2.710  11.436 -0.3533  0.7609 -0.3063
  898MOL0     C21097   7.107   2.683  11.519  0.2901 -0.7074  0.3620
  898MOL0     O21098   7.149   2.564  11.560 -0.1388  0.3349 -0.2322
  898MOL0     C21099   7.072   2.451  11.532  0.5485  0.0470 -0.0455
  898MOL0     C21100   7.038   2.411  11.405  0.2481 -0.4657 -0.2186
  898MOL0     C21101   6.952   2.303  11.382  0.2354  0.0620  0.0302
  898MOL0     C21102   6.899   2.224  11.491 -0.0738 -0.0836  0.3084
  898MOL0     O21103   6.824   2.110  11.486 -0.2771  0.5228  0.3168
  898MOL0     C21104   6.778   2.079  11.349  0.1947 -0.2063 -0.6685
  898MOL0     C21105   6.675   1.963  11.375  0.0772  0.3015 -0.4231
  898MOL0     C21106   6.586   1.938  11.257  0.9098 -0.1630 -0.2835
  898MOL0     C21107   6.461   1.850  11.296 -0.3688  0.7218  0.8905
  898MOL0     C21108   6.347   1.856  11.196  0.5574 -0.2089  0.0502
  898MOL0     C21109   6.236   1.771  11.250  0.4285 -0.1879 -0.4538
  898MOL0     C21110   6.095   1.823  11.215  0.3662 -0.5667  0.3000
  898MOL0     C21111   5.973   1.741  11.261 -0.1129 -0.7301 -0.9600
  898MOL0     N21112   5.932   1.657  11.150 -0.3650 -0.8409  0.2903
  898MOL0     C21113   5.975   1.527  11.143  0.7591 -0.5389  0.2074
  898MOL0     C21114   5.961   1.492  11.016  0.5107 -0.2971 -0.1676
  898MOL0     C21115   5.990   1.353  10.966  0.7343  0.7648 -0.7905
  898MOL0     C21116   5.979   1.356  10.816  0.1037 -0.9543 -0.6245
  898MOL0     C21117   5.999   1.220  10.740 -0.0810 -0.3591  0.0388
  898MOL0     C21118   6.132   1.168  10.771 -0.3188  0.1518 -0.6311
  898MOL0     O21119   6.151   1.050  10.690  0.9645 -1.0555 -0.5280
  898MOL0     C21120   6.180   1.060  10.560  0.6339  0.0643  0.4725
  898MOL0     C21121   6.162   0.956  10.467  0.1947  0.2953  0.1426
  898MOL0     C21122   6.196   0.957  10.328  0.2801  0.0835 -0.0970
  898MOL0     C21123   6.285   1.059  10.282 -0.4679 -0.1175 -0.9616
  898MOL0     C21124   6.356   1.049  10.154  0.2387 -0.7261 -0.3915
  898MOL0     O21125   6.318   0.955  10.066  0.0310 -1.1833 -0.3338
  898MOL0     C21126   6.397   0.936   9.956  0.6986 -0.5005  0.6699
  898MOL0     C21127   6.401   1.029   9.850  0.7438 -0.8685 -0.9991
  898MOL0     C21128   6.473   0.994   9.734 -0.5909 -0.5469 -0.6877
  898MOL0     C21129   6.547   0.879   9.720 -0.3983 -0.4381  0.0531
  898MOL0     O21130   6.606   0.861   9.598  0.4141 -0.1580  0.6930
  898MOL0     C21131   6.718   0.768   9.598 -0.1201  0.8681 -0.0116
  898MOL0     C21132   6.799   0.766   9.463  0.7381 -0.5271 -0.7760
  898MOL0     C21133   6.916   0.674   9.470  0.0574 -0.1939  0.1137
  898MOL0     C21134   6.998   0.697   9.350 -0.4484 -0.4621  0.0683
  898MOL0     C21135   7.134   0.627   9.359 -0.5592 -1.0169  0.0906
  898MOL0     C21136   7.226   0.660   9.247  0.1085 -0.4119  0.0407
  898MOL0     C21137   7.259   0.807   9.242 -0.4539 -1.8824  0.2814
  898MOL0     C21138   7.383   0.840   9.160 -0.1031  0.0454 -0.0755
  898MOL0    Cl21139   7.348   0.856   8.973 -0.1461 -0.0535 -0.0340
  898MOL0     C21140   6.549   0.788   9.826  0.8880 -0.3180 -0.6257
  898MOL0     C21141   6.474   0.819   9.942 -0.1492  0.0768 -0.7872
  898MOL0     O21142   6.449   1.129  10.138  0.2023  0.3357 -0.2665
  898MOL0     C21143   6.312   1.164  10.377  0.0136  0.5039 -0.2639
  898MOL0     C21144   6.263   1.159  10.512  0.5857 -0.8867 -0.3446
  898MOL0     N21145   5.891   1.593  10.951 -0.2266 -0.5825  0.7787
  898MOL0     N21146   5.890   1.702  11.028  1.1350  0.1575  1.1550
  898MOL0     C21147   6.944   2.264  11.617  0.4183  0.3162 -0.9479
  898MOL0     C21148   7.024   2.373  11.641  0.2159 -0.3444  0.2302
  898MOL0     C21149   7.188   2.794  11.580  1.1248  0.6961 -0.9329
  898MOL0     C21150   7.115   2.913  11.603 -0.2861 -0.3687  0.6726
  898MOL0     C21151   7.171   3.024  11.661  0.1157  0.2679  0.9210
  898MOL0     C21152   7.302   3.018  11.700  0.1449 -0.4029 -0.0302
  898MOL0     O21153   7.362   3.139  11.759  0.6418  1.6132  0.5201
  898MOL0     C21154   7.459   3.198  11.666  0.5634  0.5467 -1.0595
  898MOL0     C21155   7.549   3.293  11.733 -1.8469  0.1760  0.4849
  898MOL0     C21156   7.478   3.400  11.819 -0.1734  0.2979 -0.1073
  898MOL0     C21157   7.425   3.528  11.747 -0.5874 -0.7459 -0.8832
  898MOL0     C21158   7.314   3.492  11.664  0.3013 -0.0998 -0.5622
  898MOL0     C21159   7.242   3.433  11.597  0.7658 -0.0364  0.0522
  898MOL0     C21160   7.382   2.905  11.683 -1.1768  0.8958 -0.0112
  898MOL0     C21161   7.323   2.790  11.624 -0.3570 -0.3014  0.4959
  898MOL0     C21162   7.424   2.684  11.592  0.1711 -0.3840 -0.3878
  898MOL0     H21163   7.081   2.483  11.336  0.8512 -0.6123 -0.0033
  898MOL0     H21164   6.907   2.287  11.284 -1.2030 -2.2016  0.9886
  898MOL0     H21165   6.730   2.167  11.303 -3.5961 -1.9233 -0.3901
  898MOL0     H21166   6.862   2.034  11.296  0.8529  1.5008 -1.1435
  898MOL0     H21167   6.618   1.988  11.465 -1.8525  2.1384 -2.0523
  898MOL0     H21168   6.728   1.868  11.386 -1.2734 -0.2318  2.1554
  898MOL0     H21169   6.644   1.904  11.171  4.9174  3.9086  0.4234
  898MOL0     H21170   6.529   2.027  11.227 -0.8744 -1.1346  0.0521
  898MOL0     H21171   6.500   1.748  11.303 -2.8903 -0.2814  1.3314
  898MOL0     H21172   6.413   1.875  11.391 -0.0695  1.2271  0.9105
  898MOL0     H21173   6.329   1.962  11.179  5.0990  0.4883 -1.8557
  898MOL0     H21174   6.382   1.816  11.100 -0.2421  0.6274 -0.6002
  898MOL0     H21175   6.241   1.671  11.205 -2.9580  0.2843 -2.1976
  898MOL0     H21176   6.241   1.769  11.359  1.4099  2.4047 -0.3846
  898MOL0     H21177   6.089   1.843  11.108  1.6939 -0.2676  0.2748
  898MOL0     H21178   6.083   1.924  11.257  1.7965 -0.4870  0.5418
  898MOL0     H21179   5.993   1.684  11.352  5.3525 -2.4567 -2.8148
  898MOL0     H21180   5.896   1.817  11.278 -0.1621  0.2026 -4.4655
  898MOL0     H21181   6.023   1.471  11.223  1.2284 -0.6113 -0.1233
  898MOL0     H21182   6.091   1.338  11.003 -0.4744  0.2836  2.7150
  898MOL0     H21183   5.935   1.267  11.007  3.9915 -2.0889 -1.8939
  898MOL0     H21184   5.876   1.383  10.788 -0.8061 -3.7303 -0.2142
  898MOL0     H21185   6.045   1.436  10.779 -1.2025  0.0241 -0.9417
  898MOL0     H21186   5.990   1.230  10.631  2.1919  2.1746 -0.0307
  898MOL0     H21187   5.927   1.145  10.772 -3.2806  2.5528  0.2395
  898MOL0     H21188   6.132   1.125  10.872  2.4741 -0.8889 -0.9804
  898MOL0     H21189   6.205   1.245  10.745 -1.0892  0.5464 -1.6739
  898MOL0     H21190   6.121   0.857  10.488 -2.1180 -0.1776 -5.1123
  898MOL0     H21191   6.153   0.883  10.262 -2.8977  1.8630 -0.2486
  898MOL0     H21192   6.354   1.127   9.849  0.8236 -0.8341 -1.6140
  898MOL0     H21193   6.490   1.070   9.659  3.0061  0.7555  1.1666
  898MOL0     H21194   6.787   0.793   9.679  4.1429 -1.2832 -2.5944
  898MOL0     H21195   6.678   0.668   9.614  2.1319 -0.1816 -0.4604
  898MOL0     H21196   6.721   0.730   9.396 -0.4766  3.8452 -2.0424
  898MOL0     H21197   6.830   0.868   9.437  1.8728 -0.0129  2.1441
  898MOL0     H21198   6.969   0.706   9.561  1.6430 -1.2529 -0.3889
  898MOL0     H21199   6.885   0.569   9.474  1.6177 -0.6397  1.9773
  898MOL0     H21200   7.019   0.804   9.342 -2.3848  0.2424  2.9424
  898MOL0     H21201   6.943   0.665   9.261  0.9883 -2.3934 -0.2022
  898MOL0     H21202   7.122   0.518   9.363 -2.1172 -0.9144 -0.8025
  898MOL0     H21203   7.181   0.666   9.449 -0.5828 -1.4529  0.2952
  898MOL0     H21204   7.316   0.598   9.257 -0.6077 -1.6165 -0.7438
  898MOL0     H21205   7.170   0.630   9.158 -0.0848  2.4780 -0.9497
  898MOL0     H21206   7.254   0.855   9.340  3.2719 -1.5230  0.4298
  898MOL0     H21207   7.172   0.855   9.195 -1.4253 -1.3007  2.5520
  898MOL0     H21208   7.433   0.933   9.189  0.8322  0.1988 -2.0235
  898MOL0     H21209   7.444   0.751   9.174 -1.4809 -1.0976 -1.0303
  898MOL0     H21210   6.598   0.691   9.819 -0.3637 -1.0736  0.5879
  898MOL0     H21211   6.461   0.749  10.023 -3.3878 -0.3071 -1.4856
  898MOL0     H21212   6.383   1.244  10.361  4.0252 -2.1845  2.4034
  898MOL0     H21213   6.296   1.245  10.569 -0.1656  0.7230 -2.2075
  898MOL0     H21214   6.899   2.207  11.698  3.8547 -0.0455  0.8734
  898MOL0     H21215   7.053   2.394  11.743 -0.9131 -1.4055  0.7942
  898MOL0     H21216   7.010   2.930  11.579  0.7066  2.8574 -2.2401
  898MOL0     H21217   7.102   3.104  11.689  0.3537  0.7103  0.2402
  898MOL0     H21218   7.405   3.249  11.585 -1.5793 -3.0522 -2.1212
  898MOL0     H21219   7.516   3.117  11.620  0.7293 -1.7927  2.8677
  898MOL0     H21220   7.616   3.337  11.658 -1.5883  1.6152  1.5212
  898MOL0     H21221   7.618   3.235  11.794 -1.2851 -0.4651 -0.7204
  898MOL0     H21222   7.555   3.435  11.888 -0.4302 -0.0289  0.3418
  898MOL0     H21223   7.393   3.364  11.876 -0.5953  2.2407  0.5729
  898MOL0     H21224   7.403   3.614  11.811 -0.4415 -1.1108 -0.3362
  898MOL0     H21225   7.503   3.565  11.680 -0.6885 -0.4152 -0.8173
  898MOL0     H21226   7.182   3.371  11.534  1.0563  0.9352 -1.2297
  898MOL0     H21227   7.486   2.910  11.714 -1.2158  0.1827  0.2733
  898MOL0     H21228   7.517   2.723  11.550 -0.7792  5.2141  1.8049
  898MOL0     H21229   7.450   2.630  11.684  1.2216 -1.1029 -1.0885
  898MOL0     H21230   7.375   2.617  11.520 -1.1481  2.3869 -2.2736
  899MOL0     O21231   5.513   1.114   6.055  0.2241  0.1139  0.8803
  899MOL0     C21232   5.589   1.010   6.055 -0.3468 -0.5609  0.3904
  899MOL0     O21233   5.672   0.979   5.945  0.1028  0.1876  0.0576
  899MOL0     C21234   5.681   1.061   5.834 -0.4005  0.7990 -0.3061
  899MOL0     C21235   5.575   1.140   5.777 -0.5130 -0.5232 -0.2186
  899MOL0     C21236   5.592   1.219   5.662 -0.6451  0.1259 -0.0283
  899MOL0     C21237   5.718   1.210   5.598  0.7128  0.1915 -0.0554
  899MOL0     O21238   5.748   1.289   5.489  0.3756  0.4123  0.3052
  899MOL0     C21239   5.751   1.432   5.502  0.9239  0.2667  0.2454
  899MOL0     C21240   5.900   1.486   5.497  0.4432 -0.2658  0.6766
  899MOL0     C21241   5.902   1.626   5.578 -0.1311 -0.2751 -0.1373
  899MOL0     C21242   5.857   1.741   5.485  0.4655 -0.1315 -0.7791
  899MOL0     C21243   5.815   1.857   5.582 -0.5042 -0.0092  0.9644
  899MOL0     C21244   5.937   1.940   5.620 -0.2662  0.4527  0.0007
  899MOL0     C21245   5.905   2.051   5.726 -0.4398 -0.5822 -0.8931
  899MOL0     C21246   5.932   2.005   5.872 -0.0144 -0.9236 -0.4210
  899MOL0     N21247   5.900   1.864   5.913 -0.2086 -0.8785 -0.6630
  899MOL0     C21248   5.992   1.763   5.898  0.2739  0.7930 -0.0573
  899MOL0     C21249   5.956   1.678   5.999  0.3801  0.4278  0.1399
  899MOL0     C21250   6.033   1.554   6.048  0.2453 -0.5055  0.9382
  899MOL0     C21251   5.981   1.432   5.961  1.3483  0.7266 -0.3744
  899MOL0     C21252   5.828   1.414   5.975  0.4676  0.4987  0.4959
  899MOL0     C21253   5.770   1.415   6.114  0.4736 -0.1217 -0.6460
  899MOL0     O21254   5.853   1.325   6.192 -0.5843  0.6142 -0.4751
  899MOL0     C21255   5.793   1.249   6.289  0.4731  0.4409  0.6179
  899MOL0     C21256   5.678   1.276   6.357  0.5126 -0.3161  0.7644
  899MOL0     C21257   5.619   1.197   6.446  0.2205  0.6850  0.9266
  899MOL0     C21258   5.670   1.076   6.479 -0.0609  0.8712  0.7907
  899MOL0     C21259   5.607   0.995   6.584  0.2276 -0.8369  0.1117
  899MOL0     O21260   5.498   1.047   6.640  0.6102 -0.3015 -0.3789
  899MOL0     C21261   5.458   1.013   6.768 -0.9214  1.0282  0.8767
  899MOL0     C21262   5.442   1.118   6.853  0.1204  0.4813 -0.3880
  899MOL0     C21263   5.397   1.100   6.990 -0.2959  0.5485 -0.2347
  899MOL0     C21264   5.388   0.972   7.039 -1.0807  0.0814  0.5011
  899MOL0     O21265   5.369   0.944   7.171 -0.0740  0.2317  0.1185
  899MOL0     C21266   5.454   0.844   7.221 -0.2050 -0.4697 -0.3780
  899MOL0     C21267   5.373   0.768   7.326  0.9039  0.9660  0.5787
  899MOL0     C21268   5.443   0.648   7.397  0.5223  0.0824  0.5272
  899MOL0     C21269   5.503   0.536   7.310  0.2202  0.9890  0.1102
  899MOL0     C21270   5.526   0.411   7.390 -0.2450  0.3093  0.0697
  899MOL0     C21271   5.634   0.434   7.496 -0.6673 -0.7087  0.0859
  899MOL0     C21272   5.688   0.295   7.550 -0.3494 -0.2013 -0.7061
  899MOL0     C21273   5.822   0.302   7.631 -0.4926 -0.1209 -0.6232
  899MOL0    Cl21274   5.802   0.420   7.751  0.2202 -0.1899  0.1769
  899MOL0     C21275   5.401   0.862   6.942  0.0221 -0.6880  0.4126
  899MOL0     C21276   5.434   0.882   6.809 -0.3571 -0.5525  0.2382
  899MOL0     O21277   5.669   0.895   6.625  0.5940 -0.3466  0.5421
  899MOL0     C21278   5.790   1.029   6.406 -0.2045 -0.6445  0.1221
  899MOL0     C21279   5.841   1.117   6.310  0.2457 -0.7272  0.1817
  899MOL0     N21280   5.835   1.717   6.051  1.3811  0.8820  1.7682
  899MOL0     N21281   5.803   1.827   5.995  0.0568 -0.8897  0.7453
  899MOL0     C21282   5.823   1.132   5.650  0.3081 -0.2104  0.2038
  899MOL0     C21283   5.803   1.057   5.764  0.0155  0.1184  0.1928
  899MOL0     C21284   5.574   0.909   6.159 -0.0588  0.6038 -1.0501
  899MOL0     C21285   5.470   0.922   6.252  0.2666 -0.0576  0.9926
  899MOL0     C21286   5.445   0.825   6.349 -0.0339 -0.6353 -0.4820
  899MOL0     C21287   5.510   0.703   6.344 -0.7445 -0.0119  0.2844
  899MOL0     O21288   5.466   0.595   6.420 -0.6752  0.1399  0.0995
  899MOL0     C21289   5.455   0.470   6.365  0.3434  0.9716  0.1937
  899MOL0     C21290   5.332   0.401   6.429  0.6725  0.1916 -0.1390
  899MOL0     C21291   5.308   0.255   6.408  0.1549  0.6124 -0.2638
  899MOL0     C21292   5.196   0.204   6.490  0.1036  0.3951 -0.0701
  899MOL0     C21293   5.139   0.072   6.446 -0.8265  0.3767  0.2282
  899MOL0     C21294   5.091  -0.032   6.402 -0.2994 -0.0270 -0.0409
  899MOL0     C21295   5.612   0.690   6.255  0.4141  0.2872 -0.4712
  899MOL0     C21296   5.654   0.787   6.170  0.6886  0.3361  0.3713
  899MOL0     C21297   5.782   0.759   6.082 -0.2424 -0.0949  0.7382
  899MOL0     H21298   5.479   1.158   5.824 -0.4792 -0.3733 -0.2082
  899MOL0     H21299   5.529   1.287   5.605  0.1821 -0.9397 -2.3464
  899MOL0     H21300   5.680   1.478   5.433 -0.0610  0.3474  1.2840
  899MOL0     H21301   5.718   1.455   5.604  0.7802  0.7606  0.0896
  899MOL0     H21302   5.935   1.491   5.394 -0.9404  0.2165  0.2156
  899MOL0     H21303   5.956   1.407   5.549  0.6360 -0.9783 -0.5678
  899MOL0     H21304   6.001   1.641   5.622 -1.3353  0.2967  2.5713
  899MOL0     H21305   5.839   1.619   5.667  1.0168  2.8359  1.0543
  899MOL0     H21306   5.939   1.764   5.416 -0.8772  0.0808 -2.3697
  899MOL0     H21307   5.772   1.710   5.424 -0.0059 -1.9077  0.6949
  899MOL0     H21308   5.740   1.919   5.533 -2.9283 -2.4053  1.3604
  899MOL0     H21309   5.761   1.815   5.667 -1.8197 -1.0127 -0.3043
  899MOL0     H21310   6.022   1.878   5.651  0.7751  1.5502 -0.5752
  899MOL0     H21311   5.971   1.993   5.531  1.3292  0.6410  0.6828
  899MOL0     H21312   5.801   2.082   5.731 -0.0511  0.9918 -1.8537
  899MOL0     H21313   5.963   2.136   5.689 -1.4441 -0.5446 -2.4853
  899MOL0     H21314   6.034   2.025   5.906 -0.7723  2.3615  0.2090
  899MOL0     H21315   5.865   2.065   5.933 -0.4377 -2.1009  0.3170
  899MOL0     H21316   6.082   1.774   5.840  0.1807  1.1931 -0.1300
  899MOL0     H21317   6.139   1.560   6.024  0.6544 -3.5620  1.6277
  899MOL0     H21318   6.033   1.535   6.155 -0.2640 -6.3159  0.2135
  899MOL0     H21319   6.005   1.456   5.857  0.6245  0.3976 -0.6233
  899MOL0     H21320   6.044   1.349   5.995 -0.7078  0.3498  2.9824
  899MOL0     H21321   5.802   1.316   5.933 -1.3008  1.8595 -1.8687
  899MOL0     H21322   5.767   1.483   5.915  0.7478 -1.8886 -2.8175
  899MOL0     H21323   5.668   1.377   6.108  0.5252 -0.8833  2.0831
  899MOL0     H21324   5.768   1.511   6.167 -0.3210 -0.0774 -0.7402
  899MOL0     H21325   5.614   1.360   6.332 -0.3812 -0.9907  0.7359
  899MOL0     H21326   5.528   1.234   6.492  0.0077  1.4908 -0.1086
  899MOL0     H21327   5.466   1.217   6.816  2.0080  0.4408  0.5683
  899MOL0     H21328   5.388   1.179   7.064  1.8389  1.5082 -0.8978
  899MOL0     H21329   5.483   0.773   7.143  1.8054  4.0873 -4.3093
  899MOL0     H21330   5.549   0.879   7.263 -2.4996  2.9413  2.5282
  899MOL0     H21331   5.337   0.837   7.403  2.2810  3.4604 -0.8538
  899MOL0     H21332   5.287   0.725   7.274  3.8804 -0.7646 -3.4750
  899MOL0     H21333   5.520   0.700   7.455 -1.4931  2.0254  1.6194
  899MOL0     H21334   5.379   0.602   7.474 -0.3157 -0.9950 -0.7624
  899MOL0     H21335   5.591   0.577   7.260 -0.1654  0.6574 -0.8837
  899MOL0     H21336   5.429   0.514   7.232 -2.0985  3.8697  1.3115
  899MOL0     H21337   5.559   0.340   7.315  1.2163 -0.1726  1.1217
  899MOL0     H21338   5.438   0.376   7.445 -0.3780  1.9901  1.0210
  899MOL0     H21339   5.716   0.478   7.438 -0.9681  1.7851  1.4156
  899MOL0     H21340   5.595   0.502   7.573 -3.6438 -0.5343 -1.4331
  899MOL0     H21341   5.693   0.222   7.468 -1.5520  2.6064 -3.4957
  899MOL0     H21342   5.607   0.259   7.614 -0.9344 -2.3947 -2.5371
  899MOL0     H21343   5.827   0.206   7.683 -0.9823 -0.8554 -1.8726
  899MOL0     H21344   5.909   0.334   7.574 -0.2646 -1.4880 -1.0762
  899MOL0     H21345   5.367   0.765   6.975  0.6144 -1.2942 -0.7065
  899MOL0     H21346   5.438   0.797   6.743  1.4312  1.1033 -1.9462
  899MOL0     H21347   5.859   0.948   6.428 -1.1499 -0.7404  3.3726
  899MOL0     H21348   5.939   1.096   6.268  1.4495 -0.0674  2.4838
  899MOL0     H21349   5.925   1.133   5.613  0.3225 -1.1531  0.1929
  899MOL0     H21350   5.879   1.008   5.824 -2.4456  0.1279  3.6515
  899MOL0     H21351   5.400   1.005   6.250 -2.0815 -1.9363  0.1682
  899MOL0     H21352   5.372   0.821   6.430  0.0606  0.1206 -0.3609
  899MOL0     H21353   5.545   0.415   6.393  0.7590  1.8544  0.6291
  899MOL0     H21354   5.451   0.473   6.256  0.0398 -0.3441  0.1599
  899MOL0     H21355   5.242   0.454   6.394  1.0189  1.9301  1.4283
  899MOL0     H21356   5.330   0.430   6.534 -2.4135 -1.7248  0.4609
  899MOL0     H21357   5.401   0.203   6.430  0.9668  0.2419 -3.8893
  899MOL0     H21358   5.277   0.242   6.304 -2.9874 -0.9480  0.7298
  899MOL0     H21359   5.233   0.187   6.591  0.9100  1.6828 -0.1292
  899MOL0     H21360   5.118   0.281   6.490 -2.8530 -2.3867  0.2335
  899MOL0     H21361   5.035  -0.117   6.368 -0.5533  0.7321 -1.6383
  899MOL0     H21362   5.646   0.588   6.242  0.3274 -0.0766  1.7899
  899MOL0     H21363   5.749   0.765   5.978  1.1108  1.5914  0.3613
  899MOL0     H21364   5.859   0.835   6.095  2.7548 -2.0972 -2.9708
  899MOL0     H21365   5.825   0.658   6.092  2.6685  1.1544  2.1216
  900MOL0     O21366   2.719  10.527  10.201 -0.2786 -0.1123 -0.2934
  900MOL0     C21367   2.622  10.494  10.123 -1.0500  0.5779 -0.1961
  900MOL0     O21368   2.495  10.477  10.170 -0.8817 -0.0141  0.9597
  900MOL0     C21369   2.441  10.551  10.272  0.7609 -0.4205 -1.4470
  900MOL0     C21370   2.497  10.664  10.331 -0.3352 -0.3185  0.1644
  900MOL0     C21371   2.437  10.729  10.437 -0.7491  0.8162  0.7977
  900MOL0     C21372   2.324  10.685  10.489 -0.0925  0.7922  0.3551
  900MOL0     O21373   2.283  10.733  10.609  0.1007 -0.6685 -0.1049
  900MOL0     C21374   2.172  10.817  10.587 -0.9333 -0.0870  0.7244
  900MOL0     C21375   2.194  10.951  10.524  0.2901  0.6085 -0.0708
  900MOL0     C21376   2.064  11.009  10.476 -0.3825 -0.6707 -0.3616
  900MOL0     C21377   1.981  11.083  10.583 -0.1198  0.5109  0.3111
  900MOL0     C21378   1.835  11.122  10.540  0.3208  0.7810 -0.1875
  900MOL0     C21379   1.849  11.215  10.417  0.7605 -0.2273 -0.4024
  900MOL0     C21380   1.709  11.257  10.369  0.2511 -0.3095 -0.1607
  900MOL0     C21381   1.612  11.143  10.350 -0.3145 -0.6106 -0.0845
  900MOL0     N21382   1.476  11.181  10.313 -0.3311  0.1211 -0.8207
  900MOL0     C21383   1.384  11.088  10.312  0.8510  0.7489 -1.0322
  900MOL0     C21384   1.271  11.158  10.341 -0.4103  0.1009  0.5634
  900MOL0     C21385   1.142  11.104  10.366 -0.3148 -0.3358 -0.4857
  900MOL0     C21386   1.158  11.011  10.497 -0.2694 -0.3730  0.2895
  900MOL0     C21387   1.036  10.942  10.563 -0.4141  0.7157  0.3799
  900MOL0     C21388   1.064  10.878  10.702 -0.5371  0.7048 -0.3168
  900MOL0     O21389   1.167  10.780  10.705 -0.6905  0.1491 -0.0070
  900MOL0     C21390   1.151  10.654  10.650  0.3107 -0.5457 -0.1946
  900MOL0     C21391   1.028  10.603  10.598  0.6701  0.1104 -0.0825
  900MOL0     C21392   1.029  10.484  10.527 -0.2546 -0.1916 -0.1558
  900MOL0     C21393   1.153  10.403  10.517  0.9503 -0.6957 -0.5439
  900MOL0     C21394   1.142  10.277  10.439 -0.6508 -1.0569 -0.4399
  900MOL0     O21395   1.031  10.253  10.362 -0.9019 -0.0320 -0.0152
  900MOL0     C21396   1.020  10.124  10.307  0.1059  0.1847 -0.0140
  900MOL0     C21397   1.121  10.064  10.225  0.3937  0.0010 -0.3835
  900MOL0     C21398   1.102   9.946  10.151  0.6858 -0.7375 -1.1758
  900MOL0     C21399   0.986   9.872  10.168  0.8153  0.5316  0.3883
  900MOL0     O21400   0.968   9.764  10.081  0.4242 -0.2733 -0.7540
  900MOL0     C21401   0.972   9.649  10.165  1.4129  0.4571  0.7567
  900MOL0     C21402   0.904   9.530  10.101 -0.6958 -0.3977 -0.4932
  900MOL0     C21403   0.896   9.410  10.182 -0.2556 -0.4717  0.6772
  900MOL0     C21404   1.026   9.386  10.260 -0.2388  0.2632  0.6207
  900MOL0     C21405   1.015   9.252  10.333  0.4759 -0.3526 -0.0966
  900MOL0     C21406   0.895   9.248  10.437 -0.6124  0.1592 -0.0076
  900MOL0     C21407   0.906   9.128  10.547  0.3987  0.7646  0.0369
  900MOL0     C21408   0.800   9.163  10.656  0.5581  0.1051 -0.4890
  900MOL0    Cl21409   0.844   9.055  10.792 -0.0494  0.0505  0.1314
  900MOL0     C21410   0.888   9.927  10.250 -0.0881  0.0571  0.1234
  900MOL0     C21411   0.900  10.052  10.316  0.1811 -0.0991 -0.4243
  900MOL0     O21412   1.230  10.193  10.461  0.0971  0.3657  0.6927
  900MOL0     C21413   1.266  10.449  10.571 -0.1863  0.3671  1.1629
  900MOL0     C21414   1.263  10.557  10.640  0.7648 -0.2352 -1.1186
  900MOL0     N21415   1.303  11.295  10.347  0.7120 -0.4279  0.2481
  900MOL0     N21416   1.427  11.298  10.342  0.1578 -0.7728 -0.4821
  900MOL0     C21417   2.266  10.572  10.436 -0.3015 -0.8767 -0.4614
  900MOL0     C21418   2.324  10.502  10.328 -0.1569 -0.0202  0.3292
  900MOL0     C21419   2.656  10.432   9.993 -0.8696 -0.1739  0.4448
  900MOL0     C21420   2.744  10.319   9.994  0.9855 -0.1816 -0.7921
  900MOL0     C21421   2.770  10.263   9.869 -0.1196  1.2233  0.8090
  900MOL0     C21422   2.724  10.321   9.753 -1.0116 -0.7897  0.4266
  900MOL0     O21423   2.751  10.263   9.633  0.0637  0.0726  0.7286
  900MOL0     C21424   2.879  10.310   9.584 -0.1782  0.4743  0.4914
  900MOL0     C21425   2.971  10.211   9.515  0.3559  0.3824 -0.7820
  900MOL0     C21426   2.986  10.090   9.614  0.5881 -0.3620 -0.5481
  900MOL0     C21427   3.100   9.996   9.577 -0.2153  0.1961  1.1519
  900MOL0     C21428   3.071   9.963   9.432  0.3292 -0.3900 -0.1584
  900MOL0     C21429   3.073   9.945   9.313  0.4287 -0.1405 -0.3726
  900MOL0     C21430   2.635  10.424   9.762 -0.4124 -0.1659 -0.1611
  900MOL0     C21431   2.601  10.485   9.880  0.3248 -0.3495 -0.6490
  900MOL0     C21432   2.496  10.589   9.877  0.3479 -0.7608 -0.3940
  900MOL0     H21433   2.580  10.713  10.279 -2.0865  0.5234 -2.0056
  900MOL0     H21434   2.489  10.814  10.479  0.5222  0.9729 -0.9787
  900MOL0     H21435   2.097  10.764  10.527 -1.8473  3.2294 -1.3373
  900MOL0     H21436   2.114  10.834  10.678  0.3651  0.1548  1.5345
  900MOL0     H21437   2.273  10.946  10.448  0.9225 -1.3097  0.6358
  900MOL0     H21438   2.234  11.017  10.602 -0.2651 -0.7218  1.3729
  900MOL0     H21439   1.996  10.928  10.449 -0.1459 -1.1118  0.3519
  900MOL0     H21440   2.080  11.070  10.387 -1.3676 -0.9334 -0.7357
  900MOL0     H21441   1.956  11.024  10.672 -1.4086 -0.4838 -0.6733
  900MOL0     H21442   2.036  11.174  10.608 -2.0741  1.1972  2.4292
  900MOL0     H21443   1.793  11.022  10.527  5.1482 -2.0359  2.6033
  900MOL0     H21444   1.771  11.166  10.617 -2.3642  1.6990 -2.7533
  900MOL0     H21445   1.912  11.304  10.429  0.6375 -0.2936  0.7861
  900MOL0     H21446   1.898  11.161  10.336  1.3623  0.6858 -0.6712
  900MOL0     H21447   1.723  11.298  10.268  0.8134 -3.4880 -1.4835
  900MOL0     H21448   1.663  11.339  10.425  1.3911  1.9395 -2.2910
  900MOL0     H21449   1.656  11.073  10.278 -0.9434 -1.7487  0.6191
  900MOL0     H21450   1.601  11.090  10.445 -1.2380  1.2766  0.9093
  900MOL0     H21451   1.406  10.985  10.284  2.1066  0.9153 -0.7572
  900MOL0     H21452   1.069  11.184  10.380  3.1135  2.6103  2.2242
  900MOL0     H21453   1.109  11.039  10.284 -1.1134  1.3315 -1.5356
  900MOL0     H21454   1.225  10.930  10.468 -0.7988 -1.1932  1.3002
  900MOL0     H21455   1.206  11.075  10.571  1.4755 -1.1382 -0.1382
  900MOL0     H21456   0.998  10.866  10.494  1.4014 -0.9554  1.1238
  900MOL0     H21457   0.962  11.021  10.579 -0.3584  0.5946  1.2880
  900MOL0     H21458   0.969  10.829  10.727 -1.1125  1.1027 -1.5932
  900MOL0     H21459   1.093  10.947  10.782  0.0845 -1.5654  1.5112
  900MOL0     H21460   0.932  10.648  10.619  1.5950  0.7030  3.5061
  900MOL0     H21461   0.944  10.457  10.464  0.9862  0.3493 -2.1774
  900MOL0     H21462   1.211  10.123  10.207  0.8090 -0.4983  0.0192
  900MOL0     H21463   1.174   9.913  10.077  0.4770  3.5294 -3.5730
  900MOL0     H21464   1.076   9.634  10.197  1.5975 -3.2925 -1.0705
  900MOL0     H21465   0.910   9.658  10.255 -0.7044  1.8858 -0.7649
  900MOL0     H21466   0.803   9.556  10.069 -0.0242 -0.6221 -2.9892
  900MOL0     H21467   0.957   9.511  10.007  1.0419 -0.4228  0.4436
  900MOL0     H21468   0.826   9.438  10.261 -0.1400  2.1135 -0.0347
  900MOL0     H21469   0.856   9.323  10.129 -0.9413 -1.0099  2.0458
  900MOL0     H21470   1.046   9.466  10.331 -1.7418  0.8980  0.3525
  900MOL0     H21471   1.108   9.378  10.187 -2.3701 -1.8342 -1.7794
  900MOL0     H21472   1.108   9.236  10.390  1.9706  2.3968 -1.5455
  900MOL0     H21473   1.004   9.168  10.263  1.8639 -0.4151 -0.2857
  900MOL0     H21474   0.894   9.343  10.492  1.2697 -0.1888  0.7076
  900MOL0     H21475   0.795   9.244  10.391 -0.9807  3.7840  0.1859
  900MOL0     H21476   1.003   9.137  10.596  1.5494  0.8021 -2.1248
  900MOL0     H21477   0.896   9.029  10.503 -1.9121  0.7396  0.5100
  900MOL0     H21478   0.797   9.264  10.697  0.0761  0.5129 -1.4939
  900MOL0     H21479   0.699   9.132  10.628  0.4295 -0.2039  0.2869
  900MOL0     H21480   0.791   9.879  10.254 -0.6980  0.8777 -2.5471
  900MOL0     H21481   0.827  10.092  10.385  2.2828 -0.0642  1.9286
  900MOL0     H21482   1.361  10.396  10.564 -1.4426 -2.0173  1.2252
  900MOL0     H21483   1.348  10.603  10.690  0.4669 -4.4712  4.2444
  900MOL0     H21484   2.186  10.546  10.504  0.9002 -1.2702  0.8369
  900MOL0     H21485   2.281  10.408  10.293 -0.1021 -0.6770  1.9309
  900MOL0     H21486   2.785  10.279  10.086  1.7802  0.7405 -0.7319
  900MOL0     H21487   2.822  10.168   9.854 -2.7211  0.0649 -2.0948
  900MOL0     H21488   2.929  10.360   9.667 -0.8041  2.1378 -0.0854
  900MOL0     H21489   2.864  10.397   9.520 -0.4060 -1.9583 -3.0592
  900MOL0     H21490   3.072  10.247   9.494  0.2384  1.4709  0.4067
  900MOL0     H21491   2.911  10.190   9.426 -2.7595  1.2376  0.9412
  900MOL0     H21492   2.899  10.025   9.610  1.0987 -1.0084 -1.4152
  900MOL0     H21493   3.010  10.118   9.717  0.6371  3.3276 -1.4116
  900MOL0     H21494   3.202  10.036   9.577 -0.4576  0.8821 -0.4877
  900MOL0     H21495   3.078   9.908   9.638 -5.6281  1.5407  1.6255
  900MOL0     H21496   3.063   9.904   9.214 -0.1364  1.3812 -0.9836
  900MOL0     H21497   2.572  10.450   9.678  0.6390 -1.0023 -1.2449
  900MOL0     H21498   2.474  10.618   9.774  1.4961  1.7856  0.0023
  900MOL0     H21499   2.414  10.545   9.935  0.5209 -1.2022 -0.4809
  900MOL0     H21500   2.544  10.676   9.921 -3.2346  1.4308 -0.3860
  901MOL0     O21501   0.549   6.903   1.661  0.4637  0.5248 -0.2691
  901MOL0     C21502   0.447   6.938   1.598 -0.3845 -0.4773 -0.2920
  901MOL0     O21503   0.447   7.025   1.495 -0.3934  0.0465 -0.0299
  901MOL0     C21504   0.578   7.055   1.447  0.3019 -0.2392 -0.3094
  901MOL0     C21505   0.654   7.139   1.515  0.1800  0.5334  0.0557
  901MOL0     C21506   0.772   7.174   1.460 -1.1019  0.0721  0.4625
  901MOL0     C21507   0.810   7.138   1.325 -0.4677 -1.0992 -0.8594
  901MOL0     O21508   0.928   7.182   1.271 -1.0988 -0.2572 -0.0544
  901MOL0     C21509   1.019   7.270   1.337  0.4274  0.4468  0.1774
  901MOL0     C21510   1.134   7.289   1.248 -0.0933  0.3796  0.0114
  901MOL0     C21511   1.094   7.391   1.139  0.1485 -0.1514  0.3546
  901MOL0     C21512   1.198   7.404   1.031  0.2275 -0.0716  0.2048
  901MOL0     C21513   1.140   7.506   0.929 -0.0192 -0.3376  0.7244
  901MOL0     C21514   1.232   7.500   0.805  0.2124 -0.8467 -0.0376
  901MOL0     C21515   1.162   7.582   0.688  0.2867  0.6497 -0.3491
  901MOL0     C21516   1.178   7.733   0.694 -0.9220  0.8230  0.0265
  901MOL0     N21517   1.076   7.809   0.627 -0.4081  0.4516  0.5723
  901MOL0     C21518   1.051   7.828   0.492 -0.4789 -0.3152  0.0615
  901MOL0     C21519   0.928   7.876   0.494  0.9349  0.2614  0.9488
  901MOL0     C21520   0.839   7.909   0.376  0.0291  0.5160  0.3167
  901MOL0     C21521   0.787   7.777   0.308 -0.2660 -0.0200 -0.0405
  901MOL0     C21522   0.704   7.796   0.184  0.8039  0.0410  0.7652
  901MOL0     C21523   0.572   7.870   0.211 -0.1616  0.7114 -0.9370
  901MOL0     O21524   0.607   8.009   0.202  0.3595  0.0815 -0.1944
  901MOL0     C21525   0.528   8.086   0.120  0.5978 -0.6218  0.8865
  901MOL0     C21526   0.496   8.221   0.155 -0.2307  0.8890 -0.1876
  901MOL0     C21527   0.424   8.301   0.071 -0.9642  0.0978  0.7022
  901MOL0     C21528   0.364   8.251  -0.044  0.0325  0.6310 -0.3951
  901MOL0     C21529   0.278   8.345  -0.121  0.1601  0.0824 -0.6351
  901MOL0     O21530   0.291   8.481  -0.100 -0.4701 -0.2545  0.0131
  901MOL0     C21531   0.218   8.569  -0.176  1.3158  0.3254  0.5755
  901MOL0     C21532   0.169   8.546  -0.308  0.1030  0.2388 -0.6425
  901MOL0     C21533   0.078   8.629  -0.381 -0.3557  0.8133 -0.0166
  901MOL0     C21534   0.026   8.736  -0.310 -0.3380  0.3325 -0.5431
  901MOL0     O21535  -0.074   8.809  -0.361 -0.2558  0.4972 -0.2020
  901MOL0     C21536  -0.197   8.840  -0.287 -0.4457  0.1561  0.7874
  901MOL0     C21537  -0.209   8.991  -0.247 -0.1009  1.3032  0.0518
  901MOL0     C21538  -0.199   9.095  -0.356  0.6724  0.3816  0.0300
  901MOL0     C21539  -0.052   9.131  -0.395 -0.1925  0.5275 -0.1235
  901MOL0     C21540  -0.048   9.166  -0.541 -0.2293  0.2742 -0.3470
  901MOL0     C21541  -0.116   9.302  -0.570 -0.3426  0.1830 -0.7970
  901MOL0     C21542  -0.104   9.323  -0.722  0.7168 -0.1861  0.3430
  901MOL0     C21543  -0.124   9.467  -0.764  0.3071 -0.6553  0.3565
  901MOL0    Cl21544  -0.277   9.535  -0.708 -0.3783  0.5944 -0.4258
  901MOL0     C21545   0.076   8.766  -0.183  0.0778  0.0390  0.6171
  901MOL0     C21546   0.163   8.685  -0.115 -1.5357  0.5178 -0.2821
  901MOL0     O21547   0.201   8.284  -0.191 -0.2283 -0.3504  0.7091
  901MOL0     C21548   0.387   8.112  -0.084 -0.0808  0.1099 -0.2120
  901MOL0     C21549   0.469   8.037  -0.004 -0.5499  0.0824 -0.5070
  901MOL0     N21550   0.885   7.895   0.623  0.5303 -0.4273 -0.1455
  901MOL0     N21551   0.966   7.847   0.702 -0.1501  0.3456  0.0984
  901MOL0     C21552   0.727   7.054   1.257  0.7151 -0.2414  0.5916
  901MOL0     C21553   0.608   7.014   1.317  0.3315 -0.1367  0.9736
  901MOL0     C21554   0.318   6.876   1.641 -0.8448  0.4755 -0.0392
  901MOL0     C21555   0.304   6.836   1.778  0.3860 -0.3045  0.1461
  901MOL0     C21556   0.177   6.789   1.831 -0.0152 -0.6284  0.4313
  901MOL0     C21557   0.074   6.757   1.741  0.8593 -0.3934  0.0786
  901MOL0     O21558  -0.054   6.706   1.763 -0.0100  0.2993 -0.0428
  901MOL0     C21559  -0.112   6.718   1.896  0.3417 -0.5452 -0.2627
  901MOL0     C21560  -0.102   6.582   1.977  0.2319  1.1559 -1.2084
  901MOL0     C21561  -0.196   6.475   1.904  0.0865  0.0565  0.5300
  901MOL0     C21562  -0.206   6.336   1.978  1.1961 -0.0179  0.2505
  901MOL0     C21563  -0.089   6.259   1.970 -0.9612 -0.4540  0.7484
  901MOL0     C21564   0.005   6.177   1.964  0.2336 -0.5289 -0.5463
  901MOL0     C21565   0.083   6.791   1.612  0.1374 -0.3459  0.6403
  901MOL0     C21566   0.207   6.850   1.558  0.1496  0.8922  0.1117
  901MOL0     C21567   0.218   6.889   1.412  0.0068  0.5100 -0.7960
  901MOL0     H21568   0.640   7.185   1.613  0.9691  2.7883 -0.8322
  901MOL0     H21569   0.843   7.232   1.518  0.5702 -1.0138 -0.3939
  901MOL0     H21570   0.968   7.364   1.362 -1.1666  0.2090 -1.9843
  901MOL0     H21571   1.059   7.230   1.431  1.2344 -3.7006 -1.7359
  901MOL0     H21572   1.148   7.198   1.190 -3.5926 -1.1801  1.3210
  901MOL0     H21573   1.225   7.312   1.303  0.4439  0.4547 -0.8988
  901MOL0     H21574   1.075   7.490   1.183 -0.8291  0.1781 -0.7521
  901MOL0     H21575   1.004   7.352   1.090  1.2112 -0.3224 -1.5118
  901MOL0     H21576   1.293   7.439   1.073 -0.3312  3.3820 -1.0812
  901MOL0     H21577   1.213   7.307   0.983 -0.0988  1.1116 -2.4727
  901MOL0     H21578   1.038   7.478   0.903 -0.2057  1.9271 -1.3485
  901MOL0     H21579   1.141   7.607   0.972  0.5016 -1.2173  2.9556
  901MOL0     H21580   1.331   7.540   0.829 -0.4177  0.2500  0.8226
  901MOL0     H21581   1.239   7.397   0.770  1.2047  0.3162 -3.6923
  901MOL0     H21582   1.056   7.562   0.704  0.7727 -0.7082  1.4820
  901MOL0     H21583   1.181   7.538   0.590 -6.6858  1.4389 -2.6027
  901MOL0     H21584   1.181   7.764   0.799  1.2910 -0.9092  0.5580
  901MOL0     H21585   1.278   7.753   0.653 -1.9342  0.9482 -2.5764
  901MOL0     H21586   1.110   7.790   0.410  1.3767  2.1000  0.1745
  901MOL0     H21587   0.757   7.970   0.416 -2.0223 -1.1121 -1.2150
  901MOL0     H21588   0.888   7.966   0.296 -1.6101 -1.6589 -2.3846
  901MOL0     H21589   0.874   7.724   0.266  0.7576  1.7668 -0.2897
  901MOL0     H21590   0.737   7.714   0.381  1.0552 -1.4652 -0.3191
  901MOL0     H21591   0.676   7.697   0.148  2.7199 -0.5140  0.7109
  901MOL0     H21592   0.768   7.840   0.108 -0.5250 -0.2020 -0.5480
  901MOL0     H21593   0.541   7.854   0.314  1.3457  2.4255 -0.1425
  901MOL0     H21594   0.511   7.823   0.134 -2.0830 -2.1890  2.1101
  901MOL0     H21595   0.533   8.260   0.249  0.3120 -0.1094  0.0345
  901MOL0     H21596   0.403   8.400   0.113  1.4647  1.1275 -0.3526
  901MOL0     H21597   0.218   8.468  -0.365  1.1670  0.8287 -0.5568
  901MOL0     H21598   0.053   8.616  -0.485  1.3127  1.0786 -0.4693
  901MOL0     H21599  -0.284   8.820  -0.349  0.4490 -1.2902 -0.0605
  901MOL0     H21600  -0.192   8.789  -0.190  0.3313  1.3310  1.3838
  901MOL0     H21601  -0.304   9.006  -0.196 -1.1795 -1.5766 -0.9127
  901MOL0     H21602  -0.125   9.003  -0.178 -2.5165  0.1827  3.4418
  901MOL0     H21603  -0.261   9.063  -0.440  0.3342  1.5492 -0.1852
  901MOL0     H21604  -0.246   9.188  -0.323 -0.5718 -0.5725  1.0361
  901MOL0     H21605   0.012   9.047  -0.369 -3.3080 -1.3990  2.0271
  901MOL0     H21606  -0.014   9.215  -0.335  0.5110  3.6585 -4.4430
  901MOL0     H21607  -0.105   9.086  -0.591 -3.0612  3.1263 -2.0831
  901MOL0     H21608   0.057   9.165  -0.571  0.1873  1.6634  0.9910
  901MOL0     H21609  -0.216   9.311  -0.526  0.0155 -4.2972  1.5841
  901MOL0     H21610  -0.054   9.375  -0.517  0.7164 -1.9758  1.1512
  901MOL0     H21611  -0.199   9.278  -0.753 -0.0462 -1.3542  3.9590
  901MOL0     H21612  -0.010   9.287  -0.763  2.1084  1.7490  1.6762
  901MOL0     H21613  -0.035   9.520  -0.728  1.0272 -0.3746 -1.7412
  901MOL0     H21614  -0.122   9.455  -0.872  1.8584 -4.8606  0.6527
  901MOL0     H21615   0.028   8.846  -0.128 -1.9709 -0.3664 -0.4545
  901MOL0     H21616   0.188   8.719  -0.014  2.6615 -2.4932 -0.0754
  901MOL0     H21617   0.358   8.078  -0.183  1.1923  3.0643 -1.7284
  901MOL0     H21618   0.492   7.939  -0.042  2.6358  0.9003 -0.9549
  901MOL0     H21619   0.758   7.043   1.153  1.9521  0.0655  0.9038
  901MOL0     H21620   0.539   6.962   1.252  0.4998  2.4859 -1.4983
  901MOL0     H21621   0.377   6.842   1.858  1.8996 -1.2429 -1.1185
  901MOL0     H21622   0.156   6.764   1.935 -5.0141  0.7938  0.0446
  901MOL0     H21623  -0.220   6.733   1.893 -0.3290 -3.2991  3.1123
  901MOL0     H21624  -0.065   6.800   1.951  0.8628  0.2560 -1.8341
  901MOL0     H21625  -0.145   6.610   2.074 -1.4423 -1.5843 -1.0618
  901MOL0     H21626  -0.002   6.540   1.989  0.4495  2.0168  0.3637
  901MOL0     H21627  -0.175   6.463   1.798  0.4363 -2.8705  0.8656
  901MOL0     H21628  -0.300   6.510   1.896 -0.0916 -0.4710  0.4799
  901MOL0     H21629  -0.245   6.343   2.080 -1.2806 -0.4319 -0.6163
  901MOL0     H21630  -0.283   6.279   1.926  0.9452  1.3551 -0.9136
  901MOL0     H21631   0.067   6.090   1.958  1.2821  0.1645 -0.0652
  901MOL0     H21632   0.004   6.769   1.541  0.3435  4.1000 -1.3341
  901MOL0     H21633   0.228   6.998   1.408 -1.4946  0.6282 -2.3726
  901MOL0     H21634   0.304   6.838   1.366  0.2790 -1.4674  1.6802
  901MOL0     H21635   0.131   6.849   1.360 -0.6646 -0.4663  0.9846
  902MOL0     O21636   0.114   8.541   3.126  0.4097  0.1676  0.9284
  902MOL0     C21637   0.179   8.640   3.095  0.8146  0.4162 -0.5127
  902MOL0     O21638   0.171   8.758   3.173 -0.5672  0.2362  0.0109
  902MOL0     C21639   0.055   8.795   3.240 -0.7500 -0.2407  0.1947
  902MOL0     C21640   0.075   8.869   3.356  0.2939 -0.6948  0.6007
  902MOL0     C21641  -0.031   8.889   3.442 -1.0932 -0.1221 -0.1447
  902MOL0     C21642  -0.156   8.861   3.408 -0.5894  0.4102  0.0857
  902MOL0     O21643  -0.264   8.877   3.485  0.6196 -0.2138  0.3277
  902MOL0     C21644  -0.236   8.883   3.627  0.4171 -0.4364 -0.2604
  902MOL0     C21645  -0.361   8.875   3.709 -0.3401 -0.5103  0.7297
  902MOL0     C21646  -0.440   9.009   3.696 -0.2886  0.1185 -1.3175
  902MOL0     C21647  -0.586   8.999   3.732 -0.2696 -0.2472 -0.9166
  902MOL0     C21648  -0.660   9.134   3.724 -0.2190  0.2030 -0.8788
  902MOL0     C21649  -0.801   9.122   3.781 -0.2121  0.1757  0.9886
  902MOL0     C21650  -0.887   9.025   3.695 -0.8025 -0.2587 -1.3499
  902MOL0     C21651  -1.036   9.018   3.750 -0.9099  0.0789 -0.5143
  902MOL0     N21652  -1.132   8.939   3.674 -0.0175 -0.3775  0.0652
  902MOL0     C21653  -1.105   8.872   3.556 -0.0035  0.3039 -0.0472
  902MOL0     C21654  -1.225   8.854   3.497  0.0411  0.3480  0.0866
  902MOL0     C21655  -1.229   8.778   3.365 -0.6976 -0.5839 -0.0733
  902MOL0     C21656  -1.203   8.880   3.253 -0.2158 -1.8921  0.2377
  902MOL0     C21657  -1.203   8.819   3.111  0.0295  0.7997 -0.3611
  902MOL0     C21658  -1.073   8.758   3.072 -0.2677  0.1408 -1.0967
  902MOL0     O21659  -1.053   8.644   3.154 -0.1733  0.0786 -0.7485
  902MOL0     C21660  -0.953   8.553   3.112  0.3181  0.3326 -0.2730
  902MOL0     C21661  -0.960   8.415   3.159 -0.6711 -0.6517 -0.3522
  902MOL0     C21662  -0.860   8.325   3.131  0.2800  0.2168 -0.9661
  902MOL0     C21663  -0.752   8.368   3.052  0.3417 -0.7532  0.1246
  902MOL0     C21664  -0.657   8.264   2.989  0.0780  0.1097  0.1426
  902MOL0     O21665  -0.633   8.161   3.072  0.4481 -0.3277  0.3761
  902MOL0     C21666  -0.557   8.053   3.034  0.2037 -0.6377 -0.3603
  902MOL0     C21667  -0.583   7.980   2.926 -0.1165 -0.0811 -0.0332
  902MOL0     C21668  -0.510   7.866   2.892  0.1373 -0.3480 -0.4040
  902MOL0     C21669  -0.404   7.823   2.972  0.4626  0.0357  0.5326
  902MOL0     O21670  -0.325   7.722   2.921 -0.7629 -0.5752  0.7876
  902MOL0     C21671  -0.177   7.723   2.940 -0.5972 -0.4140 -0.3329
  902MOL0     C21672  -0.097   7.830   2.852  0.8892 -0.9245 -0.1392
  902MOL0     C21673  -0.122   7.797   2.706  0.3073  0.1961  0.3589
  902MOL0     C21674  -0.249   7.864   2.640 -1.2389 -0.2333 -0.4409
  902MOL0     C21675  -0.240   7.855   2.492 -0.6240 -0.0878  0.0303
  902MOL0     C21676  -0.149   7.965   2.435 -0.1173  0.2017 -1.0266
  902MOL0     C21677  -0.148   7.960   2.280  0.4580  0.3060  0.7530
  902MOL0     C21678  -0.063   8.067   2.204  0.3915  1.2793 -0.5119
  902MOL0    Cl21679  -0.020   8.016   2.031 -0.3546  0.0951  0.2219
  902MOL0     C21680  -0.372   7.897   3.080  0.9278 -0.1214  0.0999
  902MOL0     C21681  -0.447   8.012   3.113  0.9535 -0.4664 -1.0181
  902MOL0     O21682  -0.608   8.280   2.877 -0.9596 -0.3964  0.6837
  902MOL0     C21683  -0.741   8.497   3.004  1.2442 -0.2933 -0.6165
  902MOL0     C21684  -0.838   8.593   3.041 -0.6122 -0.8789 -1.1034
  902MOL0     N21685  -1.319   8.924   3.562 -0.2096  0.9832  0.5515
  902MOL0     N21686  -1.260   8.975   3.670 -1.6040  0.5481 -0.0147
  902MOL0     C21687  -0.190   8.788   3.288  0.0211  0.2583 -1.1902
  902MOL0     C21688  -0.075   8.757   3.207  0.5011  0.4084  0.5890
  902MOL0     C21689   0.306   8.631   3.020 -0.3573  0.3203 -0.4264
  902MOL0     C21690   0.421   8.646   3.093  0.7497 -0.2970 -0.4797
  902MOL0     C21691   0.547   8.628   3.035 -0.8014 -0.6113  0.2498
  902MOL0     C21692   0.564   8.613   2.894  0.2262 -0.1074 -0.4774
  902MOL0     O21693   0.693   8.609   2.842 -0.0149 -0.5800 -0.0410
  902MOL0     C21694   0.714   8.702   2.733  0.2842 -1.0345 -0.4139
  902MOL0     C21695   0.768   8.649   2.600  0.5000 -0.6776  0.3068
  902MOL0     C21696   0.919   8.621   2.599  0.1788  0.9471  0.0463
  902MOL0     C21697   1.001   8.754   2.584 -0.5112  0.1077  0.5784
  902MOL0     C21698   1.138   8.726   2.535  0.7304 -0.1189  0.4383
  902MOL0     C21699   1.253   8.710   2.499 -0.6010  0.5566 -0.6300
  902MOL0     C21700   0.447   8.593   2.821  0.6335  1.1160 -0.5740
  902MOL0     C21701   0.316   8.605   2.880 -0.0927 -0.2245 -0.6524
  902MOL0     C21702   0.198   8.588   2.790 -0.0647  0.0057 -0.9302
  902MOL0     H21703   0.170   8.895   3.403  1.1098 -1.4844 -0.5519
  902MOL0     H21704  -0.018   8.945   3.534 -0.2351 -1.0886  0.3565
  902MOL0     H21705  -0.184   8.791   3.656 -2.4345 -1.6879  1.2557
  902MOL0     H21706  -0.188   8.975   3.660 -0.7116  0.9884 -2.4029
  902MOL0     H21707  -0.344   8.866   3.817 -0.2109 -0.4948  0.7105
  902MOL0     H21708  -0.434   8.801   3.673 -2.1994  1.9283 -0.7984
  902MOL0     H21709  -0.436   9.046   3.593 -0.8476  1.8287 -0.7449
  902MOL0     H21710  -0.389   9.091   3.747 -0.5718  0.1450 -1.0799
  902MOL0     H21711  -0.640   8.923   3.676 -2.8086  1.4970 -0.9988
  902MOL0     H21712  -0.586   8.958   3.833 -1.2503 -0.1191 -0.8526
  902MOL0     H21713  -0.599   9.204   3.781 -0.0845  0.1068 -0.9041
  902MOL0     H21714  -0.676   9.173   3.623 -1.0080  1.1493 -0.4079
  902MOL0     H21715  -0.791   9.071   3.877  0.2799  0.6235  1.1835
  902MOL0     H21716  -0.853   9.218   3.787  3.0809  2.1330  1.1965
  902MOL0     H21717  -0.845   8.925   3.679 -0.0388 -0.1023 -0.3720
  902MOL0     H21718  -0.895   9.071   3.596  0.1784 -0.1533 -1.3878
  902MOL0     H21719  -1.023   8.972   3.849 -2.2414  0.7490 -0.0090
  902MOL0     H21720  -1.077   9.118   3.764  1.2979  0.7041  2.5667
  902MOL0     H21721  -1.004   8.844   3.527  0.4596  2.7132 -1.0162
  902MOL0     H21722  -1.161   8.693   3.378 -1.4890 -1.2953 -0.4818
  902MOL0     H21723  -1.331   8.742   3.351 -1.0269 -1.0521  2.9007
  902MOL0     H21724  -1.284   8.953   3.248  0.2005 -1.5217 -3.4158
  902MOL0     H21725  -1.107   8.924   3.280  0.6577 -3.9398  0.6830
  902MOL0     H21726  -1.233   8.891   3.034 -0.2136  0.3724 -0.6710
  902MOL0     H21727  -1.278   8.739   3.104 -1.0547  1.7508 -0.0599
  902MOL0     H21728  -0.987   8.825   3.082  1.8245 -1.9993 -3.3197
  902MOL0     H21729  -1.085   8.725   2.968  0.5360 -0.0264 -1.1461
  902MOL0     H21730  -1.048   8.388   3.218  0.6354  2.1336  3.1920
  902MOL0     H21731  -0.868   8.223   3.167 -1.0453  0.2888 -0.9837
  902MOL0     H21732  -0.665   8.008   2.860  1.7270  3.0108 -1.2428
  902MOL0     H21733  -0.546   7.806   2.809 -1.1963 -0.4420  0.2098
  902MOL0     H21734  -0.140   7.742   3.042  2.3718  1.9924 -1.7064
  902MOL0     H21735  -0.137   7.627   2.906 -2.9682 -0.6997 -2.5869
  902MOL0     H21736  -0.142   7.928   2.871 -1.8144 -1.7840 -1.5785
  902MOL0     H21737   0.006   7.827   2.888  1.5587  0.8738 -1.7491
  902MOL0     H21738  -0.035   7.850   2.667 -0.7398  2.3330  0.8264
  902MOL0     H21739  -0.109   7.689   2.692  6.2191  0.8439 -2.2346
  902MOL0     H21740  -0.251   7.971   2.663  2.3458 -0.6418  2.7464
  902MOL0     H21741  -0.344   7.833   2.684 -1.2889 -1.7781 -1.5599
  902MOL0     H21742  -0.347   7.864   2.469 -0.1464  0.2294 -2.2991
  902MOL0     H21743  -0.204   7.756   2.462 -1.5623 -0.1802 -0.8535
  902MOL0     H21744  -0.190   8.058   2.477  0.9280  0.8081 -1.3179
  902MOL0     H21745  -0.047   7.948   2.472 -0.9759 -1.8423  0.5918
  902MOL0     H21746  -0.253   7.961   2.250  0.6858 -2.3917 -0.3632
  902MOL0     H21747  -0.106   7.864   2.250 -0.4609  0.1814 -0.2227
  902MOL0     H21748  -0.123   8.159   2.207 -1.3047  0.1984  0.9100
  902MOL0     H21749   0.028   8.080   2.264 -0.2811 -0.0243  0.8538
  902MOL0     H21750  -0.281   7.880   3.138  1.8802  1.7724 -0.7499
  902MOL0     H21751  -0.418   8.045   3.212 -0.4331 -0.1484 -0.6957
  902MOL0     H21752  -0.651   8.515   2.946  1.7244 -2.0666 -0.4625
  902MOL0     H21753  -0.831   8.696   3.010  1.6562  0.0625  2.0426
  902MOL0     H21754  -0.291   8.748   3.281 -0.1974  0.4103  0.6580
  902MOL0     H21755  -0.098   8.712   3.111 -2.5075 -0.3298  1.5456
  902MOL0     H21756   0.406   8.667   3.198 -2.5004  0.5045 -0.9942
  902MOL0     H21757   0.640   8.630   3.093 -0.5959  4.2946  0.1698
  902MOL0     H21758   0.786   8.778   2.766  2.2148 -2.2699 -1.6047
  902MOL0     H21759   0.618   8.746   2.704  1.5937 -0.0364 -3.7644
  902MOL0     H21760   0.746   8.718   2.518 -0.6759 -1.6640 -0.2421
  902MOL0     H21761   0.708   8.561   2.574  0.0274 -0.9640  2.2428
  902MOL0     H21762   0.960   8.552   2.524  0.5135  1.1807  0.0116
  902MOL0     H21763   0.935   8.577   2.697 -1.0010  1.0083  0.2746
  902MOL0     H21764   0.950   8.820   2.514  1.5281  0.4531 -0.6556
  902MOL0     H21765   1.012   8.813   2.676  0.8951  0.9652 -0.1134
  902MOL0     H21766   1.357   8.694   2.476 -1.2975 -0.1484 -3.9179
  902MOL0     H21767   0.441   8.575   2.714 -0.9194 -0.6305 -0.2271
  902MOL0     H21768   0.116   8.558   2.855  2.2323  1.5289  3.0373
  902MOL0     H21769   0.169   8.683   2.742 -4.6757 -1.6319 -1.8886
  902MOL0     H21770   0.206   8.520   2.705 -2.9259 -0.5111 -0.8875
  903MOL0     O21771   1.327  11.466   3.853  0.6577 -0.7549  0.2650
  903MOL0     C21772   1.330  11.534   3.752 -0.5853 -0.1095  1.4357
  903MOL0     O21773   1.281  11.666   3.732 -0.4391  0.6245  0.7038
  903MOL0     C21774   1.228  11.735   3.836 -0.5497 -0.1791 -0.2109
  903MOL0     C21775   1.138  11.682   3.934 -0.1714  0.6216  0.4322
  903MOL0     C21776   1.093  11.756   4.036  0.5209 -0.0214  0.3385
  903MOL0     C21777   1.133  11.889   4.052  0.6292  0.4001  0.0726
  903MOL0     O21778   1.074  11.973   4.137 -0.5624  0.4323  0.4202
  903MOL0     C21779   1.068  11.933   4.275 -0.2219  0.7017 -0.1371
  903MOL0     C21780   1.036  12.063   4.356  0.0203  0.0655 -0.6438
  903MOL0     C21781   1.007  12.029   4.501 -0.2071  0.3131 -0.3109
  903MOL0     C21782   0.889  11.940   4.513  0.0427 -0.0859 -0.5071
  903MOL0     C21783   0.836  11.927   4.657  0.9085  0.8547  0.7876
  903MOL0     C21784   0.903  11.819   4.743 -0.3364  0.6767 -0.2907
  903MOL0     C21785   0.832  11.792   4.880  0.7136 -0.0500 -0.0467
  903MOL0     C21786   0.831  11.922   4.973  0.1445  0.0558 -0.6062
  903MOL0     N21787   0.715  11.919   5.057  0.0303 -0.7572 -0.4375
  903MOL0     C21788   0.711  11.860   5.177 -0.4450 -0.3674 -0.9629
  903MOL0     C21789   0.582  11.839   5.212 -0.3801  0.0324 -0.2908
  903MOL0     C21790   0.534  11.783   5.349 -1.0045  0.5549  0.1315
  903MOL0     C21791   0.543  11.895   5.457  0.3158  0.4109  0.3930
  903MOL0     C21792   0.490  11.844   5.588  0.8862  0.3332 -0.4824
  903MOL0     C21793   0.486  11.949   5.687 -0.7125 -0.1664 -1.4989
  903MOL0     O21794   0.408  11.906   5.800 -0.4098 -0.1626 -0.5311
  903MOL0     C21795   0.452  11.922   5.922  0.1015 -0.6090 -1.0928
  903MOL0     C21796   0.534  11.829   5.987  0.2478  0.2770  0.2471
  903MOL0     C21797   0.579  11.851   6.118  0.4696  0.8376 -0.3331
  903MOL0     C21798   0.553  11.965   6.187  0.2952  0.2911  0.0964
  903MOL0     C21799   0.600  11.977   6.324  0.5923  0.5159  0.1671
  903MOL0     O21800   0.552  12.087   6.392 -0.2515 -0.6943 -0.1482
  903MOL0     C21801   0.606  12.105   6.513 -0.1993 -0.1918 -1.4662
  903MOL0     C21802   0.513  12.129   6.615  0.0576  0.4593  0.4627
  903MOL0     C21803   0.559  12.143   6.745  0.6144 -0.3379 -0.0856
  903MOL0     C21804   0.696  12.163   6.768 -0.3793  0.3862 -0.2463
  903MOL0     O21805   0.740  12.200   6.891  0.8229 -0.4670 -0.5098
  903MOL0     C21806   0.874  12.249   6.906 -0.4488 -1.4126 -0.4555
  903MOL0     C21807   0.908  12.293   7.047  0.0743  1.0787 -0.2279
  903MOL0     C21808   0.937  12.166   7.136  0.0642  0.4115 -0.2114
  903MOL0     C21809   0.941  12.207   7.288 -0.0619  0.6265  0.4184
  903MOL0     C21810   0.949  12.085   7.384 -0.0678 -0.4330 -0.4564
  903MOL0     C21811   1.077  12.004   7.375 -0.2646  0.9245  0.2184
  903MOL0     C21812   1.215  12.079   7.364  0.6302  0.0307 -0.9466
  903MOL0     C21813   1.323  11.981   7.336 -0.2854  0.9345 -0.2476
  903MOL0    Cl21814   1.480  12.059   7.351 -0.3247  0.3779 -0.0899
  903MOL0     C21815   0.791  12.128   6.667  0.9340 -0.4986  0.4848
  903MOL0     C21816   0.746  12.095   6.539  0.0285 -0.5330 -0.1655
  903MOL0     O21817   0.666  11.879   6.371  0.8406  0.7074  0.6413
  903MOL0     C21818   0.484  12.063   6.117 -0.1685 -0.4359  0.1971
  903MOL0     C21819   0.434  12.047   5.987 -0.2504  0.3589 -1.2446
  903MOL0     N21820   0.501  11.879   5.118 -0.3151 -0.5607  1.0064
  903MOL0     N21821   0.583  11.919   5.029  0.3157  0.2994 -0.3741
  903MOL0     C21822   1.222  11.942   3.960 -0.2757 -0.0182  0.0469
  903MOL0     C21823   1.263  11.868   3.843  0.2913  0.0116 -0.5786
  903MOL0     C21824   1.361  11.472   3.622 -0.0876 -0.0951  0.1462
  903MOL0     C21825   1.388  11.557   3.512  0.5950 -0.8049 -0.1183
  903MOL0     C21826   1.435  11.507   3.392 -0.6441 -0.4831  0.8162
  903MOL0     C21827   1.452  11.364   3.361 -0.4747 -0.3570  0.6935
  903MOL0     O21828   1.491  11.311   3.237  0.4785 -0.0500  0.1324
  903MOL0     C21829   1.508  11.398   3.124  0.3665  0.4567  0.0373
  903MOL0     C21830   1.659  11.417   3.105 -0.3032 -0.0948  0.2543
  903MOL0     C21831   1.677  11.532   3.011 -0.6974 -0.1187 -0.1615
  903MOL0     C21832   1.613  11.510   2.863  1.0730  0.4417  0.0038
  903MOL0     C21833   1.470  11.533   2.854 -0.6347  0.5898 -0.1873
  903MOL0     C21834   1.353  11.572   2.855 -0.3298 -0.4800 -0.0977
  903MOL0     C21835   1.438  11.284   3.467  0.2415  0.0608  0.1524
  903MOL0     C21836   1.385  11.332   3.599 -0.3896 -0.0157 -0.5448
  903MOL0     C21837   1.371  11.222   3.702  0.3694 -0.1620  0.8118
  903MOL0     H21838   1.112  11.577   3.921  1.0159  0.2774  0.6781
  903MOL0     H21839   1.013  11.721   4.101 -1.2442  0.4937 -1.4523
  903MOL0     H21840   0.980  11.868   4.281  0.7545 -0.6222  0.3740
  903MOL0     H21841   1.154  11.876   4.313 -1.5370  2.0038  5.7296
  903MOL0     H21842   0.948  12.116   4.318  0.0742 -0.3325 -1.3540
  903MOL0     H21843   1.113  12.141   4.355 -1.0605  1.1663 -1.4866
  903MOL0     H21844   0.999  12.112   4.571 -2.0494  1.2305 -1.5273
  903MOL0     H21845   1.088  11.964   4.535  0.9010  2.0466  0.4884
  903MOL0     H21846   0.805  11.978   4.455 -0.5739  0.7534  0.8948
  903MOL0     H21847   0.901  11.837   4.476 -1.1260 -0.8712  1.1629
  903MOL0     H21848   0.820  12.021   4.712 -3.5226  0.7058  0.1249
  903MOL0     H21849   0.737  11.884   4.641  1.3360 -0.7799  2.2968
  903MOL0     H21850   0.911  11.734   4.674  2.5929 -1.1090  1.9847
  903MOL0     H21851   1.006  11.845   4.772 -0.6196  0.1009  1.3349
  903MOL0     H21852   0.882  11.706   4.925  1.3508 -0.7049 -1.8901
  903MOL0     H21853   0.729  11.758   4.862  1.0974 -2.1469  1.3589
  903MOL0     H21854   0.928  11.921   5.023  0.8910  1.1519 -1.9739
  903MOL0     H21855   0.830  12.011   4.911 -0.6356 -1.2154 -2.5267
  903MOL0     H21856   0.795  11.838   5.242 -0.9066 -1.4133 -0.6863
  903MOL0     H21857   0.429  11.752   5.339 -1.2740  0.7072  2.1248
  903MOL0     H21858   0.605  11.702   5.364 -1.2450  0.0301 -1.3815
  903MOL0     H21859   0.648  11.926   5.464  0.7256 -0.6359 -0.7968
  903MOL0     H21860   0.483  11.981   5.428  1.4308  1.1008  0.0996
  903MOL0     H21861   0.570  11.774   5.613  1.0094 -0.0708 -1.9251
  903MOL0     H21862   0.398  11.785   5.584  1.9300 -1.5030  0.7992
  903MOL0     H21863   0.431  12.031   5.640  0.8849  1.5558 -0.4594
  903MOL0     H21864   0.587  11.977   5.717 -0.9982 -0.7316  0.1196
  903MOL0     H21865   0.542  11.728   5.947  0.0832  0.7937 -1.1754
  903MOL0     H21866   0.633  11.779   6.177 -1.3008 -0.2815  0.0035
  903MOL0     H21867   0.406  12.146   6.620 -0.0853 -0.4935  4.0981
  903MOL0     H21868   0.497  12.164   6.832  0.7429  1.5687 -0.3977
  903MOL0     H21869   0.946  12.171   6.877  0.3986 -1.4552  1.6114
  903MOL0     H21870   0.882  12.335   6.839  1.6279 -1.3463 -0.1947
  903MOL0     H21871   0.997  12.358   7.050  0.6236  0.6979 -3.7527
  903MOL0     H21872   0.820  12.344   7.087 -1.0167  0.5811 -1.8658
  903MOL0     H21873   0.859  12.090   7.125 -2.6899  3.2202 -1.7065
  903MOL0     H21874   1.036  12.122   7.121 -1.3947 -2.6055 -1.9141
  903MOL0     H21875   0.850  12.262   7.314  0.1715  1.4705 -0.4901
  903MOL0     H21876   1.023  12.278   7.300 -1.9916  3.4284 -1.5775
  903MOL0     H21877   0.867  12.018   7.359  1.5434 -2.2916 -1.0287
  903MOL0     H21878   0.940  12.121   7.487 -1.3300 -0.1181 -0.6692
  903MOL0     H21879   1.092  11.949   7.468  0.2594 -0.3032 -0.5635
  903MOL0     H21880   1.070  11.933   7.292  0.4415 -0.5696  1.3918
  903MOL0     H21881   1.248  12.132   7.454  0.5737  0.8348 -1.3880
  903MOL0     H21882   1.218  12.152   7.283 -1.2442 -1.3387 -2.3615
  903MOL0     H21883   1.322  11.889   7.396 -0.8948  1.6865  0.9441
  903MOL0     H21884   1.297  11.957   7.233  1.1466 -2.0150 -0.0173
  903MOL0     H21885   0.899  12.129   6.685  0.9812  1.2077  0.2696
  903MOL0     H21886   0.817  12.079   6.459  1.4524 -1.4037  1.2060
  903MOL0     H21887   0.461  12.159   6.161  0.9101  0.9742 -2.1753
  903MOL0     H21888   0.374  12.117   5.930  0.7729  1.2955 -1.2029
  903MOL0     H21889   1.250  12.046   3.973  1.7228 -0.1894 -2.1680
  903MOL0     H21890   1.318  11.923   3.768  0.5646 -0.8547 -1.0217
  903MOL0     H21891   1.394  11.665   3.520  0.8854 -0.9297  1.5428
  903MOL0     H21892   1.462  11.575   3.311  0.1162 -1.2739  0.3892
  903MOL0     H21893   1.454  11.493   3.128 -0.0865  0.3914 -2.8022
  903MOL0     H21894   1.458  11.352   3.039 -2.1296  0.8429  1.2131
  903MOL0     H21895   1.710  11.328   3.068 -2.2691 -1.6526  1.1418
  903MOL0     H21896   1.709  11.450   3.196 -0.6578 -0.8960  0.7496
  903MOL0     H21897   1.783  11.547   2.989 -0.9381  1.5145 -0.2777
  903MOL0     H21898   1.643  11.626   3.053 -2.1429  0.0954 -1.7142
  903MOL0     H21899   1.649  11.573   2.781 -4.6971  1.8002 -1.9983
  903MOL0     H21900   1.633  11.409   2.828  2.5959  1.2999 -1.7333
  903MOL0     H21901   1.257  11.617   2.869 -1.5363 -0.2900 -6.3563
  903MOL0     H21902   1.449  11.179   3.442 -3.1395  0.3043 -3.3223
  903MOL0     H21903   1.398  11.128   3.653  0.1627  0.9527 -1.5682
  903MOL0     H21904   1.429  11.219   3.794  2.3322 -4.1910 -0.3309
  903MOL0     H21905   1.267  11.210   3.733  0.0955 -2.6791 -0.7685
  904MOL0     O21906   3.420   9.004   3.593 -0.4758  0.1675 -0.7169
  904MOL0     C21907   3.328   8.943   3.536 -0.1164 -0.3179  0.6098
  904MOL0     O21908   3.200   8.985   3.530  0.1957 -0.2987  0.4750
  904MOL0     C21909   3.156   9.085   3.620  0.1560  1.4318  0.3134
  904MOL0     C21910   3.081   9.042   3.722 -1.3452 -0.1847  0.3622
  904MOL0     C21911   3.051   9.131   3.824  0.2437 -1.0135  0.2072
  904MOL0     C21912   3.082   9.266   3.812 -0.0143 -0.8486 -0.3251
  904MOL0     O21913   3.058   9.351   3.920 -0.3936 -0.1278  0.3654
  904MOL0     C21914   3.159   9.449   3.974 -0.4220 -0.0012  0.5571
  904MOL0     C21915   3.106   9.497   4.104  0.2584 -0.0800 -0.1129
  904MOL0     C21916   3.190   9.586   4.187 -0.7710 -0.0751 -0.5368
  904MOL0     C21917   3.142   9.606   4.331  0.2658  0.0563 -0.0331
  904MOL0     C21918   3.036   9.715   4.331  0.4018 -0.4156  0.0158
  904MOL0     C21919   2.953   9.704   4.463 -0.1842 -0.2359 -1.0049
  904MOL0     C21920   2.871   9.827   4.493 -0.6320 -0.3911  0.1259
  904MOL0     C21921   2.809   9.833   4.629  1.2984  0.1460  0.0451
  904MOL0     N21922   2.769   9.966   4.687 -0.1916  0.2551  0.3726
  904MOL0     C21923   2.656  10.036   4.646  0.0529  0.1654 -0.0718
  904MOL0     C21924   2.656  10.146   4.724  0.4482 -0.4149  0.9264
  904MOL0     C21925   2.551  10.254   4.713 -0.0802  0.5146 -0.1959
  904MOL0     C21926   2.446  10.240   4.595  0.4909  0.8310 -0.4695
  904MOL0     C21927   2.348  10.354   4.606  0.2949  0.1321 -1.0585
  904MOL0     C21928   2.241  10.365   4.497 -0.3397 -0.2627  0.6616
  904MOL0     O21929   2.149  10.253   4.509 -0.4426 -0.1632  1.0503
  904MOL0     C21930   2.028  10.267   4.568  0.5043  0.0673  0.1082
  904MOL0     C21931   1.977  10.162   4.639  0.4872  0.1114  0.4825
  904MOL0     C21932   1.853  10.168   4.706 -0.4519  0.7378  0.7822
  904MOL0     C21933   1.776  10.284   4.695 -0.5593 -0.1628  0.2256
  904MOL0     C21934   1.651  10.294   4.776 -0.6421  1.1765 -0.2060
  904MOL0     O21935   1.608  10.419   4.783 -0.5420  0.3039 -0.1557
  904MOL0     C21936   1.486  10.434   4.831  0.6671 -0.7353 -0.4528
  904MOL0     C21937   1.477  10.439   4.972 -0.1589  0.1644  0.1604
  904MOL0     C21938   1.351  10.473   5.035 -0.6106  0.2968  0.4134
  904MOL0     C21939   1.238  10.506   4.957  0.6291  0.8448  0.5604
  904MOL0     O21940   1.120  10.562   5.014 -0.4399  0.5166 -0.0945
  904MOL0     C21941   1.099  10.541   5.157  0.4218  0.2690  0.0738
  904MOL0     C21942   0.953  10.584   5.187  0.6716  0.0727 -0.7513
  904MOL0     C21943   0.959  10.676   5.311 -1.0334 -0.4900  0.1397
  904MOL0     C21944   0.822  10.715   5.368  0.1727 -0.2712  0.4824
  904MOL0     C21945   0.827  10.789   5.505 -0.2407 -0.5104  0.0377
  904MOL0     C21946   0.684  10.839   5.548 -0.5053  0.6481 -0.2599
  904MOL0     C21947   0.707  10.940   5.658  0.1662  0.4161  0.0502
  904MOL0     C21948   0.576  11.004   5.706 -0.2485 -0.0847 -0.4591
  904MOL0    Cl21949   0.480  10.879   5.798 -0.1853 -0.5691 -0.1858
  904MOL0     C21950   1.251  10.495   4.817  0.0957  0.4022 -0.2713
  904MOL0     C21951   1.370  10.459   4.751  0.1670  0.0233  0.2922
  904MOL0     O21952   1.595  10.188   4.814  0.4889 -0.7347  0.2494
  904MOL0     C21953   1.818  10.386   4.616  0.1685  0.0408  1.1201
  904MOL0     C21954   1.950  10.378   4.559  0.1566  0.4770 -0.3133
  904MOL0     N21955   2.769  10.135   4.804 -0.1274 -0.1735 -1.3973
  904MOL0     N21956   2.837  10.021   4.787 -0.1818 -0.2977 -0.0707
  904MOL0     C21957   3.136   9.314   3.696  0.0558  0.5660 -0.2919
  904MOL0     C21958   3.179   9.220   3.609  0.2261  0.5706 -0.1077
  904MOL0     C21959   3.356   8.798   3.504 -0.3781 -0.7966  1.0312
  904MOL0     C21960   3.251   8.712   3.503  0.4124 -0.3199 -0.7376
  904MOL0     C21961   3.264   8.582   3.462 -0.2980  0.0286 -0.3154
  904MOL0     C21962   3.380   8.534   3.415  0.0541  0.1035  0.1522
  904MOL0     O21963   3.385   8.395   3.373  0.0818 -0.0299 -0.1856
  904MOL0     C21964   3.501   8.337   3.316 -0.3543  0.0851  0.2718
  904MOL0     C21965   3.626   8.329   3.425 -0.6232 -0.2935 -0.0831
  904MOL0     C21966   3.757   8.324   3.348  0.4039  0.0756 -0.1644
  904MOL0     C21967   3.869   8.278   3.443  0.2551 -0.3833 -0.1256
  904MOL0     C21968   4.000   8.326   3.401  0.2463 -0.8274  0.2682
  904MOL0     C21969   4.110   8.369   3.365  1.1830  0.5061  0.0659
  904MOL0     C21970   3.484   8.623   3.381  0.3964  1.1320 -0.6284
  904MOL0     C21971   3.476   8.759   3.430  1.1587 -0.1252  0.1531
  904MOL0     C21972   3.597   8.837   3.419 -0.3774  0.2239  0.7489
  904MOL0     H21973   3.052   8.937   3.726 -0.2819 -0.4587  1.4675
  904MOL0     H21974   3.015   9.086   3.916  1.9544  1.6002  2.2942
  904MOL0     H21975   3.257   9.404   3.992 -0.7941 -0.8609  0.4870
  904MOL0     H21976   3.173   9.541   3.916 -0.7685 -0.7695 -0.7844
  904MOL0     H21977   3.061   9.416   4.162 -4.5786  0.8787 -1.9954
  904MOL0     H21978   3.013   9.550   4.083 -0.2358 -1.2803 -1.1368
  904MOL0     H21979   3.203   9.683   4.139  3.0200  0.4154  1.1634
  904MOL0     H21980   3.289   9.540   4.189 -1.3470 -1.4207 -1.2476
  904MOL0     H21981   3.120   9.515   4.388  0.0261  0.7590  1.0123
  904MOL0     H21982   3.226   9.653   4.383 -0.2757  0.6857  0.2810
  904MOL0     H21983   3.078   9.816   4.322  0.3411 -0.4264 -0.4115
  904MOL0     H21984   2.986   9.714   4.234  2.0926 -0.0037 -0.8992
  904MOL0     H21985   2.882   9.623   4.444  0.9554 -0.9260 -2.6767
  904MOL0     H21986   3.020   9.679   4.546 -0.5756 -1.2260 -0.9653
  904MOL0     H21987   2.792   9.838   4.418 -0.7373  0.5675  0.3708
  904MOL0     H21988   2.940   9.911   4.479 -1.0224  0.1673  1.4024
  904MOL0     H21989   2.732   9.755   4.630  1.2874  0.1375  1.5534
  904MOL0     H21990   2.895   9.796   4.686  0.7843 -2.3392 -0.6642
  904MOL0     H21991   2.574   9.995   4.588 -0.1585  1.4834 -0.7557
  904MOL0     H21992   2.507  10.266   4.812 -0.6194  0.8486 -0.4742
  904MOL0     H21993   2.612  10.344   4.699  0.3722  0.3310  0.5184
  904MOL0     H21994   2.488  10.224   4.495  0.6621  0.2136 -0.3022
  904MOL0     H21995   2.391  10.147   4.611  0.9184  0.5254 -0.7523
  904MOL0     H21996   2.406  10.447   4.604  0.8237 -0.1375  0.2182
  904MOL0     H21997   2.292  10.336   4.699  0.7676 -1.9445 -1.1258
  904MOL0     H21998   2.293  10.374   4.401 -3.3603 -0.4274 -1.0925
  904MOL0     H21999   2.199  10.466   4.505  0.1308 -0.1449  1.8699
  904MOL0     H22000   2.039  10.074   4.652  2.9095  1.7025  0.4041
  904MOL0     H22001   1.825  10.092   4.778  0.7936  1.0151  1.5861
  904MOL0     H22002   1.565  10.422   5.032 -0.3210 -0.8070  0.1311
  904MOL0     H22003   1.346  10.487   5.142  1.5100  0.6460  0.5180
  904MOL0     H22004   1.110  10.436   5.187  2.1756  0.6214  0.7791
  904MOL0     H22005   1.168  10.583   5.230 -1.1884  0.1108  1.7728
  904MOL0     H22006   0.910  10.642   5.104  1.1823  1.9366  0.2116
  904MOL0     H22007   0.885  10.502   5.211 -0.3495  1.3531  1.0170
  904MOL0     H22008   1.007  10.629   5.398 -1.4772 -2.2937 -0.5517
  904MOL0     H22009   1.009  10.766   5.275 -1.2566 -0.7871 -0.9259
  904MOL0     H22010   0.756  10.630   5.388 -1.7550  1.4305  1.7531
  904MOL0     H22011   0.773  10.781   5.296  0.2076 -0.2928  0.4392
  904MOL0     H22012   0.886  10.881   5.496 -0.1629 -0.4387  1.1253
  904MOL0     H22013   0.880  10.729   5.579  1.2543  1.5757  0.7692
  904MOL0     H22014   0.630  10.877   5.460 -4.4950 -3.7889 -0.1220
  904MOL0     H22015   0.633  10.749   5.584 -0.2583  0.8897  0.7061
  904MOL0     H22016   0.767  11.020   5.613 -0.4303  0.7405 -0.1942
  904MOL0     H22017   0.765  10.900   5.741 -1.4038 -2.4856 -0.1102
  904MOL0     H22018   0.604  11.093   5.762 -0.3473  0.6106 -1.4841
  904MOL0     H22019   0.516  11.037   5.621  0.1184  4.2126  0.7295
  904MOL0     H22020   1.168  10.508   4.749  0.5126  1.8037 -0.5472
  904MOL0     H22021   1.371  10.455   4.643  2.4093 -3.2128  0.2835
  904MOL0     H22022   1.772  10.484   4.626  0.2273 -0.0131  1.9774
  904MOL0     H22023   1.974  10.466   4.500  1.7627  0.3001  0.0233
  904MOL0     H22024   3.148   9.421   3.681 -0.2534  0.7898  0.9869
  904MOL0     H22025   3.233   9.265   3.526  1.1028 -1.8836 -0.9425
  904MOL0     H22026   3.154   8.748   3.535  0.8793  1.0980 -0.8318
  904MOL0     H22027   3.179   8.515   3.469 -0.0663 -0.3812 -1.1980
  904MOL0     H22028   3.529   8.385   3.222  2.9651 -2.2233 -0.0923
  904MOL0     H22029   3.481   8.233   3.289  1.9855  0.1087 -1.9898
  904MOL0     H22030   3.610   8.239   3.486  1.3102  0.7274  2.0730
  904MOL0     H22031   3.616   8.416   3.490 -4.7128  0.0534 -0.9031
  904MOL0     H22032   3.778   8.427   3.318  2.5911 -0.0697  0.6832
  904MOL0     H22033   3.760   8.265   3.255  0.7135 -0.0036 -0.1056
  904MOL0     H22034   3.847   8.311   3.545 -2.1604  0.2170 -0.7671
  904MOL0     H22035   3.858   8.169   3.448 -0.5899 -0.2479  1.8144
  904MOL0     H22036   4.207   8.407   3.342  0.6331  1.6506 -0.4756
  904MOL0     H22037   3.579   8.595   3.337  0.1513 -0.7279 -0.0736
  904MOL0     H22038   3.640   8.844   3.520  1.9277 -2.7255  0.1162
  904MOL0     H22039   3.667   8.788   3.350 -2.2011 -0.6471 -0.5600
  904MOL0     H22040   3.567   8.935   3.381 -1.9555 -0.2149  0.8174
  905MOL0     O22041   4.954  10.947   9.811 -0.1010 -0.6655 -0.0448
  905MOL0     C22042   4.902  11.049   9.773  0.2014 -0.5797 -0.2354
  905MOL0     O22043   4.786  11.069   9.702 -0.1901  0.4274  0.7295
  905MOL0     C22044   4.707  10.971   9.639 -0.2314  0.3804 -1.0390
  905MOL0     C22045   4.575  11.008   9.599  0.6124  0.8240 -0.2525
  905MOL0     C22046   4.485  10.906   9.560 -0.1633 -0.6996 -0.4309
  905MOL0     C22047   4.517  10.771   9.567 -0.7936  0.3993 -0.3878
  905MOL0     O22048   4.433  10.665   9.570 -0.4178  0.3787  0.0185
  905MOL0     C22049   4.307  10.696   9.626  0.2056  0.2499 -0.4588
  905MOL0     C22050   4.219  10.568   9.612 -0.8384 -0.6378 -0.6115
  905MOL0     C22051   4.258  10.460   9.710  0.2113 -0.2027  1.1888
  905MOL0     C22052   4.216  10.318   9.676  0.3095 -0.1237 -0.3805
  905MOL0     C22053   4.284  10.217   9.766 -0.7126  0.4296  0.2734
  905MOL0     C22054   4.215  10.080   9.760  0.4942  0.5151 -0.1575
  905MOL0     C22055   4.312   9.972   9.810  1.2371  0.9126 -0.4338
  905MOL0     C22056   4.242   9.833   9.813  0.7535  0.1345  0.8091
  905MOL0     N22057   4.179   9.810   9.947 -1.0388  0.1263  0.5740
  905MOL0     C22058   4.048   9.796   9.989  0.2339  1.0844 -0.1763
  905MOL0     C22059   4.050   9.756  10.120 -0.0004  0.0307 -0.3312
  905MOL0     C22060   3.940   9.698  10.202  0.1954 -0.2565  0.2689
  905MOL0     C22061   3.869   9.808  10.286  1.4068  0.3769  0.5035
  905MOL0     C22062   3.823   9.921  10.208 -0.1171 -0.1324  0.6314
  905MOL0     C22063   3.729  10.015  10.292 -0.9166  0.7161 -0.4029
  905MOL0     O22064   3.710  10.140  10.231 -0.1944 -0.1490 -0.7994
  905MOL0     C22065   3.647  10.236  10.316 -0.4373  0.6264 -0.1237
  905MOL0     C22066   3.643  10.361  10.261  0.5975 -1.2656  0.2722
  905MOL0     C22067   3.582  10.473  10.334 -0.0666 -0.7081  0.5548
  905MOL0     C22068   3.529  10.451  10.466  0.0266  0.0331  0.0113
  905MOL0     C22069   3.469  10.559  10.549  0.3512  0.3230 -0.4777
  905MOL0     O22070   3.477  10.547  10.685 -0.2270 -0.4351 -0.1179
  905MOL0     C22071   3.412  10.620  10.781 -0.2209  0.0565  1.3735
  905MOL0     C22072   3.423  10.569  10.907 -0.1483  0.2208 -1.0198
  905MOL0     C22073   3.343  10.618  11.005  1.0335  0.3117  0.8255
  905MOL0     C22074   3.243  10.716  10.982 -0.5348  0.8882  0.0188
  905MOL0     O22075   3.178  10.781  11.077  0.7312 -0.4394 -1.1889
  905MOL0     C22076   3.177  10.722  11.218  0.4868  0.5748  0.6227
  905MOL0     C22077   3.075  10.798  11.301  0.0481  0.1574  0.6455
  905MOL0     C22078   2.943  10.797  11.230  0.6665 -0.6609 -0.8478
  905MOL0     C22079   2.870  10.661  11.230  0.0984 -0.6237 -0.0905
  905MOL0     C22080   2.719  10.679  11.217 -0.0323  0.0313 -0.1559
  905MOL0     C22081   2.688  10.756  11.090 -1.1860  0.5251  0.3727
  905MOL0     C22082   2.541  10.734  11.066  0.1596  0.3621 -0.3275
  905MOL0     C22083   2.493  10.815  10.946  0.5806  0.6555  0.2356
  905MOL0    Cl22084   2.311  10.822  10.930  0.1543 -0.2998 -0.2041
  905MOL0     C22085   3.237  10.763  10.855  0.3288 -0.3159 -0.0112
  905MOL0     C22086   3.324  10.721  10.754 -0.0996 -0.8749  0.2307
  905MOL0     O22087   3.417  10.647  10.484  0.0654 -0.2994  0.4946
  905MOL0     C22088   3.542  10.318  10.518 -0.3537  0.1390 -0.0671
  905MOL0     C22089   3.593  10.207  10.450 -0.4026 -0.3837  0.9801
  905MOL0     N22090   4.187   9.744  10.156  0.6810  0.6648  0.7716
  905MOL0     N22091   4.258   9.763  10.048 -0.0870  0.1131  0.1153
  905MOL0     C22092   4.649  10.738   9.583  0.4853  0.7750  0.0946
  905MOL0     C22093   4.744  10.833   9.622 -0.0514 -0.1467  0.6460
  905MOL0     C22094   4.956  11.187   9.825  0.2363  1.3532  0.0698
  905MOL0     C22095   4.883  11.301   9.804  0.8004 -0.3748 -0.0596
  905MOL0     C22096   4.909  11.420   9.874  0.5372 -0.2228  0.1620
  905MOL0     C22097   5.023  11.439   9.951 -0.1227 -0.0386 -0.8031
  905MOL0     O22098   5.042  11.568  10.001  0.1932  0.8198 -0.3848
  905MOL0     C22099   5.178  11.611   9.994 -0.4825  0.1352 -0.2363
  905MOL0     C22100   5.179  11.759  10.019 -0.6437 -0.0040 -0.4543
  905MOL0     C22101   5.127  11.799  10.165  0.3574  0.2687 -0.1597
  905MOL0     C22102   5.163  11.950  10.197 -0.6900 -0.2097  0.5145
  905MOL0     C22103   5.095  12.032  10.098  0.1626  0.2611 -0.1009
  905MOL0     C22104   5.039  12.093  10.005 -1.0835  0.5217  0.1739
  905MOL0     C22105   5.109  11.331   9.959  0.2835 -0.2134  0.0480
  905MOL0     C22106   5.077  11.206   9.887 -0.6803 -1.0748 -0.1098
  905MOL0     C22107   5.191  11.106   9.900 -0.1144  0.5847  0.0684
  905MOL0     H22108   4.556  11.115   9.607  0.6441  0.7525  1.0199
  905MOL0     H22109   4.384  10.946   9.549  1.1032  3.1322  0.4151
  905MOL0     H22110   4.312  10.731   9.729  0.6833 -1.8161  0.2543
  905MOL0     H22111   4.246  10.768   9.570 -1.8304 -0.0820  1.2181
  905MOL0     H22112   4.230  10.528   9.511 -1.2396 -3.0457  0.2214
  905MOL0     H22113   4.116  10.604   9.626 -1.2596 -1.4153 -1.5720
  905MOL0     H22114   4.232  10.481   9.814 -0.6998  1.6900  0.6166
  905MOL0     H22115   4.367  10.466   9.716  0.3660 -0.2766 -0.9790
  905MOL0     H22116   4.107  10.319   9.675  0.1511  2.8108  2.6008
  905MOL0     H22117   4.248  10.306   9.573  2.0621 -3.4256  0.4220
  905MOL0     H22118   4.389  10.209   9.739 -1.2864  0.1248 -2.0434
  905MOL0     H22119   4.270  10.238   9.873  1.8825 -1.1998  1.0084
  905MOL0     H22120   4.121  10.084   9.816  0.7274 -1.2786  0.4194
  905MOL0     H22121   4.190  10.052   9.657 -0.7651  0.0380  0.2579
  905MOL0     H22122   4.353   9.976   9.911 -2.8527 -0.6361  1.5054
  905MOL0     H22123   4.389   9.969   9.732  0.7653 -1.0086 -0.8763
  905MOL0     H22124   4.173   9.826   9.729  2.1822  1.8736 -0.5959
  905MOL0     H22125   4.322   9.758   9.803  1.2568  0.3202  2.8700
  905MOL0     H22126   3.957   9.795   9.929  0.0672 -1.3879  0.0208
  905MOL0     H22127   3.863   9.652  10.139 -0.8012  0.7483  0.7300
  905MOL0     H22128   3.977   9.621  10.270 -1.1797 -0.3928  0.8903
  905MOL0     H22129   3.779   9.771  10.337  0.3807  3.3112  1.0561
  905MOL0     H22130   3.945   9.849  10.354  2.4251  0.6512 -0.7750
  905MOL0     H22131   3.764   9.880  10.126  2.8912 -2.0664 -0.7505
  905MOL0     H22132   3.911   9.967  10.163 -0.4644  1.1004  1.1770
  905MOL0     H22133   3.782  10.031  10.386 -2.1733 -1.4378  0.7561
  905MOL0     H22134   3.636   9.965  10.321 -0.3936 -0.5823 -0.8925
  905MOL0     H22135   3.691  10.371  10.164 -0.8665 -2.2594 -0.5977
  905MOL0     H22136   3.592  10.570  10.286  2.5632  0.3520  2.9650
  905MOL0     H22137   3.496  10.492  10.929 -1.8695 -0.8875  1.2602
  905MOL0     H22138   3.355  10.568  11.100 -1.7585  0.9827  1.5926
  905MOL0     H22139   3.149  10.617  11.210 -0.6208  0.8101  1.1876
  905MOL0     H22140   3.279  10.724  11.257  0.8186 -0.2715 -0.1600
  905MOL0     H22141   3.051  10.741  11.391  0.7322  0.4921  1.0471
  905MOL0     H22142   3.102  10.902  11.320 -2.2096  1.1334 -1.0488
  905MOL0     H22143   2.881  10.859  11.295  1.1540 -1.5649  0.5062
  905MOL0     H22144   2.953  10.833  11.127  1.8553  0.9617 -0.2163
  905MOL0     H22145   2.895  10.612  11.325  0.2627  1.7010  1.1228
  905MOL0     H22146   2.908  10.600  11.147  0.2608 -1.6354  0.7044
  905MOL0     H22147   2.674  10.725  11.306 -2.3158 -0.9372 -0.7276
  905MOL0     H22148   2.668  10.583  11.229 -0.2729  0.4222  2.8433
  905MOL0     H22149   2.710  10.862  11.104 -0.2349  0.7077 -1.9385
  905MOL0     H22150   2.736  10.701  11.008 -2.1628 -2.4092  1.6523
  905MOL0     H22151   2.479  10.771  11.148  1.2178 -1.3047  1.3151
  905MOL0     H22152   2.507  10.631  11.049 -0.6750  0.7234 -0.8830
  905MOL0     H22153   2.526  10.918  10.961  0.4876  0.8878 -1.0456
  905MOL0     H22154   2.542  10.784  10.853 -0.3175 -1.9504  0.5662
  905MOL0     H22155   3.168  10.843  10.832 -0.7471 -0.7651  1.5561
  905MOL0     H22156   3.328  10.779  10.662  1.9752  0.6199  1.1890
  905MOL0     H22157   3.504  10.294  10.617 -2.6938  1.3783 -0.6055
  905MOL0     H22158   3.587  10.105  10.487 -4.1428 -1.4515 -1.9205
  905MOL0     H22159   4.682  10.636   9.599  0.2377  0.7916  0.7092
  905MOL0     H22160   4.844  10.799   9.647  0.1191 -0.5621 -0.5471
  905MOL0     H22161   4.783  11.302   9.762 -1.2849  2.8684  4.2234
  905MOL0     H22162   4.834  11.498   9.864  1.7008  0.9573  0.2929
  905MOL0     H22163   5.214  11.592   9.892 -2.1251  3.5849 -1.6155
  905MOL0     H22164   5.239  11.552  10.062  1.1050 -0.4173 -2.0503
  905MOL0     H22165   5.114  11.805   9.944 -3.9074 -0.4727  1.8605
  905MOL0     H22166   5.283  11.793  10.015 -0.6412  0.5022  2.1202
  905MOL0     H22167   5.164  11.726  10.238  0.2012  0.0459 -0.3010
  905MOL0     H22168   5.018  11.793  10.164 -0.1166  4.5621  2.7073
  905MOL0     H22169   5.130  11.994  10.292  0.8755 -2.8980  2.4469
  905MOL0     H22170   5.270  11.970  10.195 -0.4061 -1.6500  0.7065
  905MOL0     H22171   4.986  12.148   9.930  0.0468 -3.3525 -3.8605
  905MOL0     H22172   5.209  11.340  10.001  0.6561 -1.3161 -0.5583
  905MOL0     H22173   5.230  11.081   9.801  0.6228  1.7110  0.0548
  905MOL0     H22174   5.279  11.138   9.956  1.0625 -2.1635 -0.0229
  905MOL0     H22175   5.166  11.016   9.956  1.0136  1.4422  2.0321
  906MOL0     O22176   2.895   7.545  11.090 -0.7405  0.7987  0.4635
  906MOL0     C22177   2.824   7.479  11.021  0.5743  0.4433  1.0367
  906MOL0     O22178   2.849   7.357  10.962  0.1309 -0.4644 -0.1204
  906MOL0     C22179   2.966   7.294  10.963  0.0194  0.0600 -0.2252
  906MOL0     C22180   2.974   7.156  10.987 -0.2247  0.1448  0.7264
  906MOL0     C22181   3.099   7.085  10.961  0.1565 -0.5247 -0.2056
  906MOL0     C22182   3.206   7.156  10.906 -0.1856  0.7063  0.5385
  906MOL0     O22183   3.324   7.090  10.882 -0.4120  0.2399 -0.5267
  906MOL0     C22184   3.401   7.148  10.777 -0.0686  0.7097  0.1343
  906MOL0     C22185   3.519   7.045  10.745  0.4355  0.3873 -0.6589
  906MOL0     C22186   3.492   6.934  10.639 -1.2108  0.3071 -0.1263
  906MOL0     C22187   3.626   6.858  10.615 -0.1217 -0.5782 -0.3392
  906MOL0     C22188   3.597   6.727  10.544 -0.3159  0.7633  1.0379
  906MOL0     C22189   3.721   6.625  10.532  0.9071 -0.6678 -0.1509
  906MOL0     C22190   3.677   6.499  10.461 -0.0405  0.3274  0.5011
  906MOL0     C22191   3.573   6.408  10.521 -0.5465 -1.7214 -0.1975
  906MOL0     N22192   3.573   6.270  10.463  0.0492 -0.3934  0.0303
  906MOL0     C22193   3.499   6.241  10.353 -0.0732  1.4543 -0.0799
  906MOL0     C22194   3.491   6.109  10.361  0.8737  0.9505 -0.1315
  906MOL0     C22195   3.421   6.017  10.258  0.7236  0.3775 -0.4075
  906MOL0     C22196   3.467   5.874  10.257  0.4076  1.2119  0.3559
  906MOL0     C22197   3.621   5.858  10.244  0.3321  0.0590  0.7269
  906MOL0     C22198   3.658   5.731  10.153 -0.1114 -0.1203  0.0399
  906MOL0     O22199   3.631   5.753  10.017 -0.2890  0.6763  0.2583
  906MOL0     C22200   3.622   5.640   9.931  1.3406  0.4186  0.1283
  906MOL0     C22201   3.627   5.514   9.971  0.3402  0.3519  1.3127
  906MOL0     C22202   3.581   5.400   9.889 -0.5885 -0.0389  0.3473
  906MOL0     C22203   3.533   5.419   9.761  0.5210 -0.3938  0.1669
  906MOL0     C22204   3.475   5.312   9.676 -0.9252  0.5268 -0.2979
  906MOL0     O22205   3.438   5.336   9.545 -0.3519 -0.4248  0.1838
  906MOL0     C22206   3.375   5.239   9.470 -0.5927 -0.4401 -0.1796
  906MOL0     C22207   3.420   5.106   9.472 -0.5877  0.2782 -0.3934
  906MOL0     C22208   3.369   5.013   9.384 -0.4634 -0.1571  0.7257
  906MOL0     C22209   3.280   5.054   9.280 -1.4881  0.5318  0.2986
  906MOL0     O22210   3.238   4.971   9.184  0.2353  0.1239 -0.4290
  906MOL0     C22211   3.131   5.011   9.097 -0.6486  0.7197  1.0973
  906MOL0     C22212   2.994   5.010   9.160  0.0559 -0.1012  0.1113
  906MOL0     C22213   2.878   5.045   9.069  0.5328  0.8290  0.9547
  906MOL0     C22214   2.746   5.038   9.155 -0.6366 -0.3504  0.5376
  906MOL0     C22215   2.718   5.130   9.273 -0.9082 -0.5087  0.2459
  906MOL0     C22216   2.600   5.066   9.357  0.6133 -0.0309  0.3664
  906MOL0     C22217   2.622   5.085   9.507  0.5075  0.2771  0.1123
  906MOL0     C22218   2.519   5.031   9.595  0.1807 -0.2308  0.6156
  906MOL0    Cl22219   2.445   4.880   9.543  0.2538 -0.0039  0.1579
  906MOL0     C22220   3.236   5.185   9.282 -0.1227  0.3055 -0.3835
  906MOL0     C22221   3.289   5.278   9.372  0.1292  0.4067  0.2546
  906MOL0     O22222   3.462   5.205   9.740  0.1961  0.6740  0.8102
  906MOL0     C22223   3.533   5.554   9.724 -1.1155  0.5541 -0.4184
  906MOL0     C22224   3.581   5.665   9.798 -0.1564  1.1469  0.2147
  906MOL0     N22225   3.569   6.065  10.470 -0.9011 -0.4122  0.3198
  906MOL0     N22226   3.620   6.159  10.537 -0.2485 -0.0265  0.2195
  906MOL0     C22227   3.198   7.294  10.900 -0.3316  0.2734  0.2585
  906MOL0     C22228   3.081   7.358  10.929 -0.4698 -0.6292  0.6575
  906MOL0     C22229   2.692   7.522  10.997  1.5093  0.1519 -0.5032
  906MOL0     C22230   2.590   7.425  11.014 -0.4366  1.0274 -0.2575
  906MOL0     C22231   2.456   7.453  11.004 -0.5663 -0.2043  0.2500
  906MOL0     C22232   2.417   7.583  10.980 -0.1368 -0.8721 -0.1333
  906MOL0     O22233   2.291   7.618  10.973  0.7876 -0.9107  0.7191
  906MOL0     C22234   2.230   7.688  11.085  0.7019  0.1210  0.1588
  906MOL0     C22235   2.083   7.731  11.061  0.9407  0.3120  0.5235
  906MOL0     C22236   2.051   7.822  10.944  0.5892 -0.1188  0.0228
  906MOL0     C22237   2.123   7.957  10.948 -0.0250  0.0873  0.0011
  906MOL0     C22238   2.021   8.042  11.025 -0.4095 -0.7591 -0.1737
  906MOL0     C22239   1.942   8.122  11.067 -0.8415  0.3382 -0.2510
  906MOL0     C22240   2.513   7.687  10.968 -0.0955  0.6382  1.4263
  906MOL0     C22241   2.649   7.658  10.983 -0.5805  0.0346 -0.1255
  906MOL0     C22242   2.742   7.774  10.976  0.2206 -0.4250  0.7343
  906MOL0     H22243   2.902   7.103  11.048 -0.8330 -0.6303 -0.6376
  906MOL0     H22244   3.096   6.978  10.980 -1.0476 -0.5413 -0.4140
  906MOL0     H22245   3.349   7.154  10.681  1.0360  0.9393 -0.4660
  906MOL0     H22246   3.449   7.243  10.800  0.6419  0.9522 -2.0653
  906MOL0     H22247   3.552   7.007  10.842 -1.0052  0.6586 -0.0271
  906MOL0     H22248   3.608   7.102  10.719 -0.4172  1.6629 -0.8958
  906MOL0     H22249   3.454   6.976  10.545  0.0421 -1.8025 -1.6544
  906MOL0     H22250   3.420   6.864  10.682  0.2394 -0.0533  1.8945
  906MOL0     H22251   3.699   6.917  10.559  2.4451 -2.4697  0.8384
  906MOL0     H22252   3.667   6.839  10.714 -1.2835  0.4128  0.3588
  906MOL0     H22253   3.519   6.683  10.607  0.1429  1.9312  2.4726
  906MOL0     H22254   3.569   6.729  10.438  0.6704 -0.1989  0.7448
  906MOL0     H22255   3.802   6.679  10.483 -1.0088  1.9592 -0.6175
  906MOL0     H22256   3.743   6.602  10.637 -0.2166 -3.3477 -0.4070
  906MOL0     H22257   3.770   6.442  10.453 -0.3507 -0.1223 -0.0299
  906MOL0     H22258   3.668   6.520  10.354 -0.7317  0.0264  0.4967
  906MOL0     H22259   3.593   6.398  10.629 -2.0123 -1.3933  0.1263
  906MOL0     H22260   3.477   6.457  10.502 -0.3619 -1.8842 -1.6439
  906MOL0     H22261   3.460   6.295  10.267  3.0739 -2.3237 -4.4117
  906MOL0     H22262   3.317   6.015  10.290  1.4950  1.3217  2.5142
  906MOL0     H22263   3.433   6.065  10.160  0.0886  4.3324  1.2700
  906MOL0     H22264   3.429   5.812  10.339 -0.0484 -0.6802 -1.2316
  906MOL0     H22265   3.415   5.834  10.170  0.2235  4.4865 -1.1916
  906MOL0     H22266   3.667   5.844  10.342 -0.6195  2.4194  1.5946
  906MOL0     H22267   3.660   5.951  10.202  0.0435 -0.6190 -1.1409
  906MOL0     H22268   3.613   5.641  10.196  3.5766 -1.6255  1.2262
  906MOL0     H22269   3.766   5.722  10.172 -0.0408 -0.0385 -0.3070
  906MOL0     H22270   3.674   5.495  10.067 -1.6309  0.2935  2.3174
  906MOL0     H22271   3.597   5.304   9.937 -0.5398  0.9602  2.4422
  906MOL0     H22272   3.487   5.069   9.550 -0.2278  2.9616  0.6911
  906MOL0     H22273   3.403   4.911   9.401  1.2715  0.3735  0.6229
  906MOL0     H22274   3.147   5.109   9.051  0.3186 -0.5226 -1.4087
  906MOL0     H22275   3.138   4.951   9.006  1.3043  2.4375  0.0258
  906MOL0     H22276   2.977   4.911   9.204 -1.4004  0.7203  1.5095
  906MOL0     H22277   2.997   5.080   9.243 -1.6329 -0.0945  0.1998
  906MOL0     H22278   2.894   5.142   9.021  1.5079  0.3594  0.2916
  906MOL0     H22279   2.868   4.980   8.982 -0.3363  2.7652 -0.4637
  906MOL0     H22280   2.752   4.936   9.195  1.2792 -0.4537  0.0821
  906MOL0     H22281   2.666   5.036   9.081 -1.3034 -1.1029  1.2491
  906MOL0     H22282   2.691   5.232   9.245 -2.2385 -0.1566  2.5219
  906MOL0     H22283   2.808   5.151   9.332 -2.1703  3.4381  1.0756
  906MOL0     H22284   2.503   5.106   9.329  2.0363  2.8115 -0.9273
  906MOL0     H22285   2.608   4.958   9.342  2.2452 -0.2026  2.0450
  906MOL0     H22286   2.644   5.187   9.539 -1.5956  1.1100 -0.9318
  906MOL0     H22287   2.713   5.030   9.534  1.2246  1.5718  0.3764
  906MOL0     H22288   2.556   5.010   9.696 -0.4149 -2.0834  0.4925
  906MOL0     H22289   2.447   5.111   9.617 -1.6971 -1.8772  0.8257
  906MOL0     H22290   3.158   5.221   9.217 -0.8012  1.3102  0.9360
  906MOL0     H22291   3.240   5.375   9.372 -1.7864 -0.4426  2.9261
  906MOL0     H22292   3.486   5.588   9.633  1.7325  1.2832 -1.7376
  906MOL0     H22293   3.579   5.766   9.760 -0.2971  0.8276 -0.6434
  906MOL0     H22294   3.287   7.356  10.893  0.6217 -1.0773  0.0019
  906MOL0     H22295   3.069   7.461  10.899 -0.3068 -1.5685 -3.1575
  906MOL0     H22296   2.627   7.327  11.039  0.6955  0.8413 -2.3743
  906MOL0     H22297   2.380   7.377  11.023 -0.8801 -0.3468 -1.4512
  906MOL0     H22298   2.282   7.780  11.115  0.5552  0.0220  0.7217
  906MOL0     H22299   2.236   7.619  11.169 -1.1697 -0.1108  0.1457
  906MOL0     H22300   2.033   7.769  11.151 -2.7947 -2.9470  0.1236
  906MOL0     H22301   2.033   7.636  11.038 -2.4682  1.9558  0.4492
  906MOL0     H22302   1.944   7.838  10.928  0.9385  0.9213 -1.4016
  906MOL0     H22303   2.085   7.773  10.853 -2.4609 -0.0606 -1.2626
  906MOL0     H22304   2.223   7.942  10.988 -0.2122  2.1929  1.4411
  906MOL0     H22305   2.135   8.002  10.849  0.4477  0.3373  0.1710
  906MOL0     H22306   1.869   8.188  11.110  0.3272  0.1306  2.2489
  906MOL0     H22307   2.486   7.789  10.945  0.3912  0.6529  0.9030
  906MOL0     H22308   2.704   7.849  10.906  1.2918  2.6906  3.2451
  906MOL0     H22309   2.732   7.825  11.072 -1.4465  1.7992 -0.5532
  906MOL0     H22310   2.849   7.754  10.963  0.6745  0.5747  2.5705
  907MOL0     O22311   2.922   6.805   9.653 -0.3405 -0.3010  0.1695
  907MOL0     C22312   3.014   6.777   9.733 -0.3562  0.3138 -0.5289
  907MOL0     O22313   3.103   6.667   9.725  0.3428  0.2349  0.0569
  907MOL0     C22314   3.104   6.571   9.628  1.0511  1.1262  0.3000
  907MOL0     C22315   3.232   6.538   9.579 -0.6632  0.4857  0.2211
  907MOL0     C22316   3.250   6.437   9.476  0.7640  0.6721 -0.3977
  907MOL0     C22317   3.135   6.375   9.425 -0.1270 -0.4210 -0.4311
  907MOL0     O22318   3.169   6.279   9.341 -0.0797  0.5941 -0.1919
  907MOL0     C22319   3.054   6.211   9.276  0.1727 -0.0029  0.3271
  907MOL0     C22320   3.109   6.105   9.171 -0.1198  0.0376 -0.3983
  907MOL0     C22321   3.193   6.158   9.061 -0.9151  0.9782  0.0568
  907MOL0     C22322   3.289   6.040   9.024 -0.0590  0.0335  0.1730
  907MOL0     C22323   3.387   6.000   9.148  1.0278  0.2606  0.7123
  907MOL0     C22324   3.501   5.915   9.096  0.5497  0.2997  0.4978
  907MOL0     C22325   3.603   5.892   9.207  0.1017 -0.0594 -0.6183
  907MOL0     C22326   3.695   6.016   9.222  0.9085  0.7643 -0.0783
  907MOL0     N22327   3.743   6.023   9.359 -0.4951 -0.1400 -0.0338
  907MOL0     C22328   3.848   5.962   9.418 -0.8519  1.0510 -0.7263
  907MOL0     C22329   3.850   5.988   9.549  0.8169  0.0975  0.4914
  907MOL0     C22330   3.948   5.925   9.638  0.9275  0.5357  0.2094
  907MOL0     C22331   3.894   5.867   9.772  0.7139  0.2256  0.4324
  907MOL0     C22332   3.993   5.830   9.880  0.8310  0.7011 -0.0615
  907MOL0     C22333   4.000   5.679   9.909 -0.0029  0.6193  0.5801
  907MOL0     O22334   4.086   5.645  10.023 -1.0018 -0.3758  0.4738
  907MOL0     C22335   4.029   5.663  10.148  0.5050 -0.2104  1.0463
  907MOL0     C22336   4.045   5.789  10.212 -1.1073 -0.4141  0.4261
  907MOL0     C22337   4.002   5.814  10.341 -0.2049  0.1768  0.4981
  907MOL0     C22338   3.935   5.713  10.411  0.1821  0.6371  0.5664
  907MOL0     C22339   3.923   5.729  10.555  0.0200 -0.3945 -1.2516
  907MOL0     O22340   3.922   5.852  10.617  0.2499 -0.1490  0.3878
  907MOL0     C22341   3.906   5.865  10.752  1.2339  0.4412  0.6515
  907MOL0     C22342   3.972   5.782  10.847  0.4183  0.2506  0.4615
  907MOL0     C22343   3.953   5.801  10.979  0.1114 -0.3082 -0.0913
  907MOL0     C22344   3.862   5.896  11.024 -0.2917  0.5921 -1.2121
  907MOL0     O22345   3.849   5.910  11.155 -0.4417  0.4292 -0.2410
  907MOL0     C22346   3.762   5.999  11.215  0.4400  0.4629  0.3026
  907MOL0     C22347   3.768   6.004  11.372 -0.3671 -0.0503  0.5734
  907MOL0     C22348   3.717   5.881  11.445  0.5714 -1.0824 -1.0192
  907MOL0     C22349   3.716   5.890  11.603  0.2027  0.1780  0.6193
  907MOL0     C22350   3.654   5.762  11.669 -0.3782 -0.5602 -0.2173
  907MOL0     C22351   3.651   5.776  11.823  0.6560  0.5148  0.3511
  907MOL0     C22352   3.788   5.728  11.878  0.1892  0.3090 -1.0303
  907MOL0     C22353   3.775   5.643  12.017  0.2751  0.5169  1.3689
  907MOL0    Cl22354   3.942   5.614  12.078  0.0900  0.0851  0.9890
  907MOL0     C22355   3.811   5.987  10.932  0.7650  0.8290 -0.5005
  907MOL0     C22356   3.825   5.969  10.801 -0.2289 -0.2986  0.1355
  907MOL0     O22357   3.899   5.624  10.612  0.2247  0.3872 -0.0236
  907MOL0     C22358   3.906   5.591  10.345 -0.5193 -0.3379  0.4439
  907MOL0     C22359   3.957   5.571  10.221 -0.6330 -0.7631  0.5158
  907MOL0     N22360   3.724   6.043   9.570  0.1587  0.2716 -1.1373
  907MOL0     N22361   3.665   6.075   9.461 -1.3156 -0.4606 -0.2077
  907MOL0     C22362   3.010   6.408   9.465  0.0057 -0.1519  0.1321
  907MOL0     C22363   2.994   6.491   9.570 -1.1717 -0.5809  0.0908
  907MOL0     C22364   3.018   6.859   9.850  0.1833 -0.2188 -0.6902
  907MOL0     C22365   3.098   6.813   9.962 -0.0652  0.2468 -0.2953
  907MOL0     C22366   3.113   6.893  10.080  0.6445  0.1939 -0.0388
  907MOL0     C22367   3.053   7.008  10.096 -0.1840 -0.4532 -0.0161
  907MOL0     O22368   3.049   7.067  10.214 -0.1188  0.0101  0.1194
  907MOL0     C22369   3.102   7.198  10.227  0.6088  0.0041 -0.2828
  907MOL0     C22370   3.251   7.200  10.188 -0.1880 -1.4441 -0.5171
  907MOL0     C22371   3.337   7.133  10.293 -0.2520  0.2584  0.4710
  907MOL0     C22372   3.487   7.151  10.271  0.0245  1.1618 -0.6268
  907MOL0     C22373   3.564   7.213  10.380  0.2547  0.5548 -0.2344
  907MOL0     C22374   3.619   7.268  10.474 -0.2532  0.1209  0.2172
  907MOL0     C22375   2.976   7.063   9.991 -0.3718  0.3214 -0.4671
  907MOL0     C22376   2.964   6.996   9.866  0.4708 -0.2747 -0.7335
  907MOL0     C22377   2.902   7.080   9.751  0.8035  0.5651  0.7165
  907MOL0     H22378   3.315   6.597   9.617 -1.4124  1.2902  0.6214
  907MOL0     H22379   3.350   6.411   9.443  0.4793  1.3410 -1.8748
  907MOL0     H22380   3.001   6.149   9.349  1.2532 -0.0122  1.1217
  907MOL0     H22381   2.986   6.279   9.223 -0.8892 -3.4798 -3.2012
  907MOL0     H22382   3.027   6.055   9.119  0.7419 -0.1693 -1.6028
  907MOL0     H22383   3.165   6.030   9.228  2.1379  2.2403  0.4951
  907MOL0     H22384   3.253   6.243   9.095  0.7526  0.3310 -1.1320
  907MOL0     H22385   3.129   6.189   8.978  0.3997 -0.0438 -1.3980
  907MOL0     H22386   3.244   5.948   8.985  0.2608 -0.8083  1.6789
  907MOL0     H22387   3.362   6.083   8.955 -0.1165 -0.5950 -0.2905
  907MOL0     H22388   3.416   6.089   9.204  2.1057  0.7668 -0.6044
  907MOL0     H22389   3.337   5.933   9.220  0.8778  0.6202  0.9447
  907MOL0     H22390   3.469   5.817   9.060  1.6315  0.2824 -0.5187
  907MOL0     H22391   3.550   5.952   9.005 -2.3958 -2.4017 -2.4093
  907MOL0     H22392   3.669   5.809   9.180  0.8353  0.8335 -1.6695
  907MOL0     H22393   3.550   5.874   9.301  0.0580  3.4199  0.1612
  907MOL0     H22394   3.773   5.988   9.151  2.0429 -0.6444  1.6510
  907MOL0     H22395   3.649   6.107   9.182  0.9059  0.2735 -1.2486
  907MOL0     H22396   3.928   5.905   9.373 -0.3299  3.0244 -2.4372
  907MOL0     H22397   3.987   5.846   9.573 -0.3748  0.6289 -0.7358
  907MOL0     H22398   4.026   5.998   9.662  2.2725 -0.6382 -0.4154
  907MOL0     H22399   3.827   5.942   9.817 -2.5706 -2.9492  1.2893
  907MOL0     H22400   3.828   5.782   9.750  0.0686  0.9852 -0.6645
  907MOL0     H22401   3.960   5.880   9.972  0.7097 -0.5390  0.5828
  907MOL0     H22402   4.098   5.856   9.861  1.6418 -1.7466  0.6578
  907MOL0     H22403   4.059   5.647   9.823 -1.3483  0.7597 -0.4256
  907MOL0     H22404   3.900   5.636   9.914 -0.4681  1.1611 -2.3780
  907MOL0     H22405   4.104   5.863  10.159 -0.8615 -0.1293  1.0853
  907MOL0     H22406   4.018   5.914  10.382  0.2949  0.9922 -1.5683
  907MOL0     H22407   4.038   5.704  10.813  1.1544  2.1751 -3.0016
  907MOL0     H22408   3.996   5.743  11.060  5.7748  3.0141 -0.1695
  907MOL0     H22409   3.785   6.100  11.179  0.4726  0.2154 -0.3889
  907MOL0     H22410   3.657   5.977  11.196  0.4243  2.7995 -3.3243
  907MOL0     H22411   3.875   6.013  11.395  0.1197 -1.0430 -1.1319
  907MOL0     H22412   3.712   6.087  11.415 -0.1817 -0.5499  1.8169
  907MOL0     H22413   3.619   5.867  11.400 -0.7805  1.2948  0.9103
  907MOL0     H22414   3.786   5.798  11.428  0.1903 -1.2686 -1.6799
  907MOL0     H22415   3.658   5.981  11.623 -2.2708 -0.9145 -1.1831
  907MOL0     H22416   3.821   5.907  11.631  0.7252 -2.3721  0.4364
  907MOL0     H22417   3.703   5.670  11.634 -3.2716 -1.6529 -1.6797
  907MOL0     H22418   3.551   5.753  11.635 -0.3687  1.3137 -0.8154
  907MOL0     H22419   3.638   5.883  11.842  3.8640  0.7663  1.7202
  907MOL0     H22420   3.563   5.726  11.865  0.9739 -1.2831 -1.0158
  907MOL0     H22421   3.865   5.804  11.895  1.3540 -1.1445  0.4024
  907MOL0     H22422   3.842   5.679  11.797  2.6406  0.2543  0.5512
  907MOL0     H22423   3.718   5.701  12.091 -3.7835 -1.6000  0.2370
  907MOL0     H22424   3.722   5.551  11.990  2.6343 -0.5049 -0.1258
  907MOL0     H22425   3.747   6.069  10.964 -0.2974  0.9429 -2.7151
  907MOL0     H22426   3.770   6.040  10.739 -0.0337  1.4684  1.8984
  907MOL0     H22427   3.875   5.518  10.419 -0.1098  0.2220  1.1861
  907MOL0     H22428   3.948   5.476  10.168 -3.8770 -0.5320  0.4825
  907MOL0     H22429   2.926   6.359   9.416 -1.0709  1.7067  0.0250
  907MOL0     H22430   2.900   6.512   9.620 -0.9645 -4.0779  2.2874
  907MOL0     H22431   3.155   6.720   9.962 -0.1070  0.2023  0.9464
  907MOL0     H22432   3.158   6.859  10.173 -0.8392  0.4105  0.7961
  907MOL0     H22433   3.090   7.242  10.327  4.0107 -0.2642  0.3624
  907MOL0     H22434   3.042   7.269  10.170  2.7979  3.1595  1.0792
  907MOL0     H22435   3.279   7.305  10.196  2.8102 -2.3272  3.4298
  907MOL0     H22436   3.250   7.150  10.090 -0.0970 -2.7396  0.1217
  907MOL0     H22437   3.313   7.028  10.314  2.1165 -0.2776  0.7428
  907MOL0     H22438   3.311   7.201  10.374 -0.6998  0.2534  0.3343
  907MOL0     H22439   3.535   7.057  10.242 -0.7705  1.1132 -1.8649
  907MOL0     H22440   3.503   7.222  10.190  0.8320  0.3939 -1.1554
  907MOL0     H22441   3.659   7.337  10.546 -1.8570  0.7510  0.5373
  907MOL0     H22442   2.924   7.156  10.010 -0.6127  0.0850  0.0444
  907MOL0     H22443   2.802   7.049   9.720 -0.0713  3.6895  0.0905
  907MOL0     H22444   2.891   7.187   9.773 -2.4551  0.6673 -0.9120
  907MOL0     H22445   2.964   7.062   9.663 -3.1644 -1.4129 -1.9630
  908MOL0     O22446   0.639  11.024   4.959  0.9583  0.0632 -0.0319
  908MOL0     C22447   0.738  10.962   5.001  1.2882 -0.0401  0.5821
  908MOL0     O22448   0.792  10.985   5.124  0.1222  0.5318 -0.1453
  908MOL0     C22449   0.745  11.081   5.217  0.4710 -0.3202  0.5661
  908MOL0     C22450   0.830  11.159   5.296 -0.3151 -0.0966  0.0259
  908MOL0     C22451   0.788  11.247   5.396 -0.3598 -0.2173 -0.2252
  908MOL0     C22452   0.654  11.266   5.432 -0.5195  0.1849 -0.5934
  908MOL0     O22453   0.622  11.373   5.515 -0.3280  0.6472 -0.1460
  908MOL0     C22454   0.492  11.424   5.504 -0.0245 -0.8446 -0.5807
  908MOL0     C22455   0.422  11.379   5.630  0.0679 -0.6794 -0.7801
  908MOL0     C22456   0.277  11.432   5.644  0.7402 -0.3278 -0.6246
  908MOL0     C22457   0.217  11.448   5.786 -0.1846  0.2223 -0.2788
  908MOL0     C22458   0.271  11.568   5.852  0.3820 -0.4841 -0.1076
  908MOL0     C22459   0.193  11.598   5.984  0.0095  0.4732  0.0266
  908MOL0     C22460   0.193  11.485   6.088 -1.3924  0.7461  1.1851
  908MOL0     C22461   0.119  11.531   6.214 -0.1748  0.6736 -0.3582
  908MOL0     N22462   0.048  11.411   6.272  0.4628 -0.0353 -0.3093
  908MOL0     C22463   0.108  11.310   6.352  0.3271 -0.0694  0.5958
  908MOL0     C22464   0.003  11.233   6.374 -0.4633  0.6301 -0.8378
  908MOL0     C22465   0.020  11.109   6.455 -0.4525 -0.4451 -0.2898
  908MOL0     C22466  -0.092  11.001   6.448  0.9061  0.3165 -0.2067
  908MOL0     C22467  -0.086  10.901   6.569  0.1266  0.7996 -0.2201
  908MOL0     C22468  -0.185  10.792   6.546 -0.2150  0.5945  0.0240
  908MOL0     O22469  -0.209  10.774   6.692  0.1259  0.4795  0.0770
  908MOL0     C22470  -0.303  10.683   6.729  0.4066 -1.0609  0.0220
  908MOL0     C22471  -0.298  10.657   6.870 -0.3748 -0.4310  0.4606
  908MOL0     C22472  -0.400  10.565   6.914  0.0984 -0.2796  0.9421
  908MOL0     C22473  -0.489  10.500   6.820 -0.0571 -0.7136  0.4097
  908MOL0     C22474  -0.587  10.403   6.878  0.3593  0.4042 -0.0143
  908MOL0     O22475  -0.705  10.371   6.810  0.9735 -0.6732 -0.7019
  908MOL0     C22476  -0.803  10.286   6.870  0.6258 -0.4176 -0.0423
  908MOL0     C22477  -0.830  10.283   7.009 -0.2350 -0.1967  0.8093
  908MOL0     C22478  -0.923  10.195   7.067  0.6351 -0.4464  0.6824
  908MOL0     C22479  -0.996  10.110   6.977 -0.0811  0.4919 -0.0850
  908MOL0     O22480  -1.087  10.033   7.038  0.9209 -0.3825  0.1591
  908MOL0     C22481  -1.090   9.887   6.998 -0.0443  0.1726  1.1816
  908MOL0     C22482  -1.185   9.810   7.088  0.2104  0.3542 -0.9055
  908MOL0     C22483  -1.326   9.826   7.035 -0.8457  0.3232 -0.3801
  908MOL0     C22484  -1.419   9.760   7.133 -0.5594  0.8113  0.1746
  908MOL0     C22485  -1.561   9.734   7.095 -0.2711  0.6135  0.3074
  908MOL0     C22486  -1.629   9.859   7.042 -1.4637 -0.1197 -0.0401
  908MOL0     C22487  -1.785   9.843   7.014  0.2560 -0.7337 -0.5756
  908MOL0     C22488  -1.834   9.972   6.960 -0.4309  0.2612  0.0279
  908MOL0    Cl22489  -1.789   9.969   6.779  0.7185  0.2217 -0.1393
  908MOL0     C22490  -0.983  10.124   6.833 -0.0570 -0.2778  0.8453
  908MOL0     C22491  -0.877  10.204   6.787 -0.2316  0.3056  0.8964
  908MOL0     O22492  -0.538  10.340   6.968  1.2755  1.4063  0.2402
  908MOL0     C22493  -0.488  10.533   6.692 -0.0554 -0.3734  0.5628
  908MOL0     C22494  -0.390  10.617   6.639 -0.4730 -0.3420 -0.3322
  908MOL0     N22495  -0.115  11.278   6.313 -0.5896  0.1341 -0.2521
  908MOL0     N22496  -0.077  11.387   6.251  0.2848  0.7033 -0.4336
  908MOL0     C22497   0.565  11.192   5.346 -0.2900 -0.5607  0.4620
  908MOL0     C22498   0.604  11.098   5.250 -0.1241  0.6020 -0.0705
  908MOL0     C22499   0.802  10.894   4.889 -0.0011  0.0981  0.0181
  908MOL0     C22500   0.945  10.892   4.899  0.0646  0.3474  0.5663
  908MOL0     C22501   1.021  10.853   4.785  0.2601  0.2305 -1.5737
  908MOL0     C22502   0.957  10.793   4.676  0.6768  0.4694 -0.1619
  908MOL0     O22503   1.047  10.753   4.583 -0.1308  0.5269 -0.1171
  908MOL0     C22504   1.048  10.854   4.479 -0.2502 -0.1708  0.9722
  908MOL0     C22505   1.191  10.842   4.419 -0.2266  0.7029  0.4427
  908MOL0     C22506   1.209  10.702   4.338  0.2386  0.8943  0.0478
  908MOL0     C22507   1.344  10.677   4.262  0.5617  0.2825 -0.4128
  908MOL0     C22508   1.350  10.756   4.137 -0.8397 -0.0355  0.0524
  908MOL0     C22509   1.354  10.816   4.028 -0.1948  0.0814 -0.6951
  908MOL0     C22510   0.815  10.793   4.666 -0.1652 -1.0952  0.1810
  908MOL0     C22511   0.738  10.831   4.776 -0.3591 -1.3914  0.6760
  908MOL0     C22512   0.591  10.819   4.749 -0.6698 -0.5595 -0.0619
  908MOL0     H22513   0.938  11.149   5.303  0.0310  2.9662  0.2713
  908MOL0     H22514   0.871  11.305   5.436  1.1147 -2.2271 -0.2247
  908MOL0     H22515   0.480  11.533   5.513 -1.9261 -1.0128 -0.5089
  908MOL0     H22516   0.435  11.411   5.411 -0.5559 -0.3124 -0.3432
  908MOL0     H22517   0.489  11.420   5.706  0.5805  1.2670 -2.2149
  908MOL0     H22518   0.428  11.270   5.642  0.6748 -0.7633 -1.7064
  908MOL0     H22519   0.213  11.368   5.583  0.9404 -1.5587  0.4155
  908MOL0     H22520   0.272  11.534   5.605  4.7607  0.6767  1.0358
  908MOL0     H22521   0.111  11.471   5.779 -0.0833  2.5480  3.0896
  908MOL0     H22522   0.249  11.358   5.840  2.4207  2.0478  1.4685
  908MOL0     H22523   0.375  11.559   5.883 -0.0078  0.1728  1.4487
  908MOL0     H22524   0.262  11.643   5.773 -1.2393 -2.5271 -2.0270
  908MOL0     H22525   0.236  11.683   6.038 -1.1094  2.7017 -2.3665
  908MOL0     H22526   0.093  11.638   5.965  0.7672  2.0919 -0.7847
  908MOL0     H22527   0.298  11.458   6.105  0.0776  2.4118 -3.6875
  908MOL0     H22528   0.138  11.404   6.040  1.1034 -1.3342  1.6094
  908MOL0     H22529   0.182  11.572   6.294 -1.5678  1.7176  0.2421
  908MOL0     H22530   0.053  11.613   6.188 -0.4233  1.4593  2.3729
  908MOL0     H22531   0.202  11.312   6.407  0.7102  0.9151 -0.0572
  908MOL0     H22532   0.120  11.070   6.434 -0.0992  0.8505 -1.1747
  908MOL0     H22533   0.029  11.143   6.559  0.5498  0.3191 -0.6094
  908MOL0     H22534  -0.188  11.052   6.458  0.2085  0.6081 -5.4864
  908MOL0     H22535  -0.089  10.949   6.352  3.6018 -0.9057  0.4256
  908MOL0     H22536  -0.095  10.962   6.660  1.1781 -2.4520  2.2558
  908MOL0     H22537   0.016  10.863   6.582  0.2217  1.6179  1.9616
  908MOL0     H22538  -0.153  10.709   6.482  0.6260  2.5008 -2.1581
  908MOL0     H22539  -0.278  10.827   6.499  0.0295 -0.3268 -1.1872
  908MOL0     H22540  -0.235  10.707   6.942 -0.2139 -0.6777  0.4900
  908MOL0     H22541  -0.396  10.533   7.018 -0.1221  0.3076  1.1332
  908MOL0     H22542  -0.779  10.349   7.079  0.1653 -1.0561  1.3479
  908MOL0     H22543  -0.941  10.203   7.174 -2.7305  2.3191  0.0905
  908MOL0     H22544  -1.129   9.890   6.896  1.0626  4.5405  0.6809
  908MOL0     H22545  -0.986   9.852   7.004 -0.0666 -0.6100 -1.8462
  908MOL0     H22546  -1.168   9.703   7.071 -3.5538  0.0321 -3.9270
  908MOL0     H22547  -1.172   9.843   7.192  3.7041 -2.0889 -0.3660
  908MOL0     H22548  -1.361   9.929   7.024 -1.3534  0.2780  0.6786
  908MOL0     H22549  -1.330   9.776   6.938  1.6070 -1.1921  0.2150
  908MOL0     H22550  -1.423   9.818   7.226  0.4491 -0.8519  1.3072
  908MOL0     H22551  -1.368   9.666   7.155 -3.1101 -0.2734  1.9352
  908MOL0     H22552  -1.614   9.694   7.182 -0.8849 -0.1261 -0.3861
  908MOL0     H22553  -1.563   9.663   7.012 -2.0932 -0.1492  0.9477
  908MOL0     H22554  -1.620   9.949   7.104 -0.7466  0.1007 -0.4509
  908MOL0     H22555  -1.575   9.893   6.953  0.3820  0.4512  1.2305
  908MOL0     H22556  -1.836   9.819   7.107  1.3969  0.7971  0.4931
  908MOL0     H22557  -1.808   9.774   6.932 -1.6346 -0.5426 -0.2498
  908MOL0     H22558  -1.941   9.977   6.985 -1.1797  1.5395 -2.9285
  908MOL0     H22559  -1.787  10.059   7.007 -0.7084  0.3027  0.2337
  908MOL0     H22560  -1.038  10.072   6.755 -0.6208  1.4279  0.0509
  908MOL0     H22561  -0.851  10.203   6.682 -1.4549 -2.2259  0.5426
  908MOL0     H22562  -0.559  10.484   6.626 -2.3197 -0.0378  2.6072
  908MOL0     H22563  -0.374  10.622   6.531  1.5634  1.1781 -0.0226
  908MOL0     H22564   0.459  11.190   5.369 -0.5768  1.2942 -0.4917
  908MOL0     H22565   0.522  11.041   5.206  0.0522  0.0404  0.3108
  908MOL0     H22566   0.997  10.955   4.971  0.0845  1.7742 -0.6300
  908MOL0     H22567   1.129  10.850   4.782  0.2372 -0.6291 -3.5793
  908MOL0     H22568   1.047  10.956   4.518 -3.5251  1.6242 -3.0177
  908MOL0     H22569   0.968  10.851   4.404 -0.3957 -1.0887  1.1513
  908MOL0     H22570   1.262  10.850   4.502  1.5285 -3.0251 -0.4576
  908MOL0     H22571   1.214  10.922   4.348 -2.4497 -0.3144 -1.5971
  908MOL0     H22572   1.130  10.713   4.263 -0.9402 -0.4913  1.0274
  908MOL0     H22573   1.182  10.614   4.397  2.8829 -0.4755 -0.6395
  908MOL0     H22574   1.421  10.695   4.338  0.7048 -0.6645 -0.3139
  908MOL0     H22575   1.350  10.571   4.237  0.8018  0.5953 -1.7565
  908MOL0     H22576   1.356  10.874   3.938 -2.6333  0.0046 -0.8643
  908MOL0     H22577   0.777  10.751   4.573  0.9850 -2.3440  0.2344
  908MOL0     H22578   0.537  10.910   4.774 -0.1902  0.4857 -2.5639
  908MOL0     H22579   0.573  10.803   4.642  2.8578  1.3671 -1.1082
  908MOL0     H22580   0.558  10.731   4.805  0.8915 -2.2261 -1.6074
  909MOL0     O22581   5.882   8.928   5.385 -0.0711 -0.2363 -0.5489
  909MOL0     C22582   5.854   8.949   5.499 -0.1624 -0.8724 -0.3099
  909MOL0     O22583   5.778   8.868   5.582 -0.3105 -0.0124 -0.4854
  909MOL0     C22584   5.707   8.758   5.530 -0.2952 -0.9033 -0.4342
  909MOL0     C22585   5.770   8.671   5.439  0.4038  0.6480  0.8360
  909MOL0     C22586   5.702   8.558   5.393 -0.1997  0.0575 -0.7638
  909MOL0     C22587   5.571   8.537   5.437 -0.3426 -0.3535 -0.1485
  909MOL0     O22588   5.500   8.427   5.386  0.3056 -0.1600 -0.0135
  909MOL0     C22589   5.368   8.447   5.343  0.0127 -0.4135  0.0006
  909MOL0     C22590   5.363   8.533   5.221  0.1661 -1.1800 -0.0219
  909MOL0     C22591   5.232   8.521   5.142 -0.1770 -0.1443 -0.2618
  909MOL0     C22592   5.230   8.570   4.999  1.3229 -0.8299  0.7338
  909MOL0     C22593   5.085   8.582   4.954  1.5217  0.2166 -0.3067
  909MOL0     C22594   5.034   8.438   4.920  0.7653 -0.5344  0.1546
  909MOL0     C22595   4.897   8.427   4.845 -0.6451 -0.5024  0.0127
  909MOL0     C22596   4.891   8.498   4.708 -0.3347 -0.1285  0.7052
  909MOL0     N22597   4.754   8.478   4.652 -0.0222  0.4144  0.3971
  909MOL0     C22598   4.701   8.364   4.597  0.6501 -0.5191  0.0136
  909MOL0     C22599   4.566   8.377   4.610 -1.3752 -1.2724 -0.1829
  909MOL0     C22600   4.462   8.279   4.570  0.1503  0.1986  0.3513
  909MOL0     C22601   4.468   8.135   4.623 -1.0227 -0.4638  0.9374
  909MOL0     C22602   4.487   8.152   4.771 -0.2020  0.0540  0.2050
  909MOL0     C22603   4.498   8.019   4.852 -0.2352 -0.4209 -0.1925
  909MOL0     O22604   4.608   7.936   4.801 -0.3463 -0.0790  0.2701
  909MOL0     C22605   4.613   7.807   4.854 -0.1367  0.4476  0.0731
  909MOL0     C22606   4.734   7.747   4.835 -0.1911 -0.9908 -0.4525
  909MOL0     C22607   4.756   7.615   4.846  0.5437  0.8781 -1.0620
  909MOL0     C22608   4.655   7.538   4.903  0.0878  0.6178 -0.1597
  909MOL0     C22609   4.683   7.390   4.920  0.0957 -0.7320 -0.8705
  909MOL0     O22610   4.590   7.317   4.996  0.5650 -0.1119  0.8368
  909MOL0     C22611   4.586   7.184   4.984 -0.2580  0.4413 -1.1357
  909MOL0     C22612   4.504   7.109   5.068 -0.5468 -0.1429 -0.1156
  909MOL0     C22613   4.474   6.970   5.057 -0.8988 -0.1593  0.5028
  909MOL0     C22614   4.534   6.896   4.958  0.3554 -0.8623 -0.2626
  909MOL0     O22615   4.501   6.762   4.959 -1.0481  0.9428  0.3117
  909MOL0     C22616   4.373   6.724   4.897  0.0484  0.7665  0.1210
  909MOL0     C22617   4.270   6.715   5.005 -0.1113 -0.2241 -0.4416
  909MOL0     C22618   4.144   6.632   4.960  0.2894 -0.0678 -0.3625
  909MOL0     C22619   4.028   6.679   5.051 -0.0922 -0.9335 -0.4082
  909MOL0     C22620   3.892   6.633   5.002  0.2351  0.2716  0.6666
  909MOL0     C22621   3.768   6.651   5.100  0.0342  0.6496  0.0526
  909MOL0     C22622   3.759   6.533   5.198  0.2712 -0.6893  0.1988
  909MOL0     C22623   3.651   6.551   5.299 -1.3571  0.6222 -0.3981
  909MOL0    Cl22624   3.690   6.691   5.401 -0.1117  0.3503 -0.8736
  909MOL0     C22625   4.633   6.956   4.879 -0.3496  0.2428  0.5663
  909MOL0     C22626   4.652   7.099   4.895  0.2029  0.5728 -0.1612
  909MOL0     O22627   4.787   7.346   4.874  0.2314 -0.3596 -0.5287
  909MOL0     C22628   4.533   7.603   4.955 -0.5733  0.1781  0.6372
  909MOL0     C22629   4.512   7.740   4.926 -0.5550  0.4211 -0.0964
  909MOL0     N22630   4.538   8.508   4.654 -0.6789  0.5210  0.5438
  909MOL0     N22631   4.649   8.557   4.688 -0.3234 -0.5584 -0.1574
  909MOL0     C22632   5.506   8.632   5.525 -0.3199  0.2645  0.2843
  909MOL0     C22633   5.582   8.734   5.580  0.6799 -0.6639  0.5026
  909MOL0     C22634   5.916   9.074   5.554 -0.7192  0.9420 -0.4072
  909MOL0     C22635   5.915   9.088   5.696  0.1459  0.1471 -0.2774
  909MOL0     C22636   5.970   9.202   5.765  0.0350  0.2306  0.5650
  909MOL0     C22637   6.026   9.315   5.706 -0.4524 -0.5336 -0.5703
  909MOL0     O22638   6.085   9.424   5.760 -0.4565 -0.8872  0.0372
  909MOL0     C22639   6.096   9.442   5.897  0.4643  0.5442  0.4987
  909MOL0     C22640   6.233   9.400   5.944  0.5793 -0.4749  0.1964
  909MOL0     C22641   6.252   9.252   5.971 -0.6683 -0.4018 -0.1061
  909MOL0     C22642   6.367   9.234   6.072 -0.2361  0.7451 -0.2187
  909MOL0     C22643   6.427   9.098   6.057  0.4684 -0.6475  1.0117
  909MOL0     C22644   6.481   8.988   6.056 -0.0578 -0.2403 -0.0200
  909MOL0     C22645   6.018   9.306   5.566 -0.1175  0.2118 -0.2527
  909MOL0     C22646   5.967   9.194   5.492  0.0157  0.0745 -0.6410
  909MOL0     C22647   5.952   9.213   5.350 -0.1562 -0.5320  0.3552
  909MOL0     H22648   5.870   8.696   5.406 -0.1382  2.0605  0.1612
  909MOL0     H22649   5.752   8.486   5.329 -1.2717  0.1425 -1.7154
  909MOL0     H22650   5.328   8.348   5.323  1.0440 -0.6050 -1.2130
  909MOL0     H22651   5.306   8.487   5.424 -0.1315 -2.3411  0.8985
  909MOL0     H22652   5.446   8.510   5.153  0.7641  3.0617 -1.0112
  909MOL0     H22653   5.376   8.637   5.252 -1.8981 -1.2819  1.3748
  909MOL0     H22654   5.158   8.556   5.214  1.1669  0.4617  0.8845
  909MOL0     H22655   5.213   8.416   5.118 -3.8214  0.8356 -2.3497
  909MOL0     H22656   5.284   8.664   4.987 -1.0012  0.2462 -2.6071
  909MOL0     H22657   5.292   8.505   4.937  1.4849 -0.1363  0.1555
  909MOL0     H22658   5.021   8.632   5.026  1.7257 -3.4554  2.7146
  909MOL0     H22659   5.091   8.648   4.867  3.2683 -0.1424 -0.5099
  909MOL0     H22660   5.100   8.383   4.853 -1.9349 -0.2530 -2.9678
  909MOL0     H22661   5.018   8.374   5.008 -0.0552 -1.7428 -0.8379
  909MOL0     H22662   4.817   8.467   4.907 -1.1472  0.0367 -0.9445
  909MOL0     H22663   4.881   8.321   4.826  4.0433 -0.9897 -2.9739
  909MOL0     H22664   4.908   8.606   4.717  2.9671 -0.2053 -2.5847
  909MOL0     H22665   4.975   8.457   4.651  1.9353  4.7876  0.0197
  909MOL0     H22666   4.748   8.275   4.555 -1.0935 -1.6912  0.4580
  909MOL0     H22667   4.358   8.313   4.571  0.0635 -0.0118 -0.4855
  909MOL0     H22668   4.470   8.272   4.461  0.0521 -3.4617  0.4560
  909MOL0     H22669   4.382   8.074   4.595 -0.0875 -1.2017 -0.5025
  909MOL0     H22670   4.554   8.080   4.583  0.0863  2.0780 -0.4275
  909MOL0     H22671   4.409   8.222   4.803 -1.2894 -0.0554 -2.0078
  909MOL0     H22672   4.580   8.200   4.800  0.4553 -1.8400  1.4574
  909MOL0     H22673   4.402   7.967   4.851 -0.4225 -0.1481  1.1895
  909MOL0     H22674   4.510   8.047   4.958  0.7964  3.7348 -1.2296
  909MOL0     H22675   4.815   7.803   4.792 -2.8471  3.4705 -0.2322
  909MOL0     H22676   4.854   7.585   4.810  0.3827  0.4979 -1.1902
  909MOL0     H22677   4.455   7.166   5.147 -4.7711 -1.7233 -1.3367
  909MOL0     H22678   4.403   6.910   5.112  0.8879 -0.4764  2.6128
  909MOL0     H22679   4.340   6.793   4.819  0.3734  0.1024 -0.6137
  909MOL0     H22680   4.400   6.629   4.850  3.7178  0.7841  1.8130
  909MOL0     H22681   4.323   6.663   5.085  1.9941  1.7621 -0.4599
  909MOL0     H22682   4.241   6.808   5.053  3.0872  0.6350  0.0378
  909MOL0     H22683   4.119   6.647   4.855  0.8216 -2.4529 -0.8840
  909MOL0     H22684   4.154   6.523   4.966 -0.0876 -0.1919 -1.6696
  909MOL0     H22685   4.023   6.788   5.057 -1.2419 -1.0121  0.1243
  909MOL0     H22686   4.048   6.640   5.151  1.5477 -2.9544 -1.4411
  909MOL0     H22687   3.900   6.528   4.974 -0.8775  0.5306 -0.7489
  909MOL0     H22688   3.862   6.689   4.913  0.7978  1.8050  1.3865
  909MOL0     H22689   3.769   6.745   5.156 -0.7916 -0.0250  1.2477
  909MOL0     H22690   3.679   6.655   5.036 -0.4105  2.2039  0.7074
  909MOL0     H22691   3.851   6.533   5.258 -2.1620 -3.3398  4.4659
  909MOL0     H22692   3.750   6.444   5.135 -4.4981  1.2239 -2.2873
  909MOL0     H22693   3.553   6.553   5.251 -2.6056 -0.9283  1.8593
  909MOL0     H22694   3.648   6.459   5.358 -0.5058  0.4673 -0.5821
  909MOL0     H22695   4.682   6.896   4.803 -0.8052  2.0870 -1.2546
  909MOL0     H22696   4.723   7.141   4.824  1.6984  1.1714  1.5880
  909MOL0     H22697   4.457   7.534   4.991 -0.8492 -1.7615 -3.1544
  909MOL0     H22698   4.421   7.791   4.958 -0.9316 -0.9998  1.2039
  909MOL0     H22699   5.402   8.626   5.556 -0.4135  2.6461  0.5848
  909MOL0     H22700   5.542   8.812   5.644  1.6065 -0.4379  0.8212
  909MOL0     H22701   5.860   9.018   5.758 -1.7401 -0.9317 -2.9789
  909MOL0     H22702   5.949   9.203   5.872 -0.0827  0.0051  0.5433
  909MOL0     H22703   6.013   9.390   5.946 -1.5106 -0.3426 -3.3935
  909MOL0     H22704   6.064   9.545   5.914 -1.0798 -0.0211  1.2592
  909MOL0     H22705   6.262   9.449   6.037  3.3824 -2.2229  0.3808
  909MOL0     H22706   6.302   9.428   5.864  0.5897 -1.2173 -0.0689
  909MOL0     H22707   6.262   9.196   5.877 -0.8538  0.5675 -0.7177
  909MOL0     H22708   6.156   9.223   6.016 -1.2037  0.3224 -0.7525
  909MOL0     H22709   6.447   9.308   6.070  1.6304 -1.0102  2.4850
  909MOL0     H22710   6.331   9.229   6.175 -2.7146 -1.4791 -1.0702
  909MOL0     H22711   6.538   8.898   6.060 -0.3903 -0.4398  3.4491
  909MOL0     H22712   6.039   9.394   5.507  1.8849  0.8895  1.3342
  909MOL0     H22713   6.008   9.300   5.314 -1.2288  0.0476  0.0251
  909MOL0     H22714   5.982   9.126   5.290 -0.6646  0.0581 -0.7970
  909MOL0     H22715   5.845   9.225   5.328  0.0682 -1.0210 -1.1017
  910MOL0     O22716   7.269   9.215   6.415  0.6694  0.3594  0.2212
  910MOL0     C22717   7.287   9.271   6.303 -0.1228  0.5136 -0.6768
  910MOL0     O22718   7.403   9.251   6.228  0.2290 -0.1382  0.0928
  910MOL0     C22719   7.514   9.196   6.288 -0.1404  0.1796 -0.3152
  910MOL0     C22720   7.565   9.267   6.402  1.1255  0.2864  0.5457
  910MOL0     C22721   7.656   9.205   6.500  0.7943  0.5239  0.0075
  910MOL0     C22722   7.700   9.077   6.475  0.3451  0.3147  0.1055
  910MOL0     O22723   7.785   8.998   6.554 -0.0983 -0.6460  0.5141
  910MOL0     C22724   7.732   8.960   6.682  0.3094 -0.2011  0.3218
  910MOL0     C22725   7.823   8.861   6.752 -0.9533  0.3150 -0.0468
  910MOL0     C22726   7.859   8.733   6.670  0.0292  0.1064 -0.5116
  910MOL0     C22727   8.008   8.745   6.629 -0.1489 -1.1114  0.9545
  910MOL0     C22728   8.070   8.623   6.557 -0.4531  0.2995  0.4983
  910MOL0     C22729   8.082   8.504   6.652 -0.1734 -0.1133  0.6323
  910MOL0     C22730   8.182   8.411   6.591 -0.3215  0.4687 -0.9882
  910MOL0     C22731   8.188   8.281   6.680  0.8573  0.0208  0.1468
  910MOL0     N22732   8.258   8.170   6.609  0.0423 -0.2759  0.4464
  910MOL0     C22733   8.397   8.164   6.577  0.1607  0.5767  0.1366
  910MOL0     C22734   8.409   8.055   6.494 -0.2887 -0.0609  1.0542
  910MOL0     C22735   8.529   8.017   6.425  0.0174 -0.0363  0.0918
  910MOL0     C22736   8.615   7.927   6.499 -0.4376  0.6477  0.6990
  910MOL0     C22737   8.545   7.795   6.533  0.2125  0.0424  0.6691
  910MOL0     C22738   8.492   7.721   6.406 -0.2480  0.1869  1.0179
  910MOL0     O22739   8.445   7.595   6.443  0.4636 -0.4791  0.6713
  910MOL0     C22740   8.526   7.486   6.433 -0.1799 -0.0722 -0.4027
  910MOL0     C22741   8.465   7.357   6.439 -0.3248  0.3344 -0.0140
  910MOL0     C22742   8.539   7.237   6.435 -0.2307 -0.2342  0.0646
  910MOL0     C22743   8.687   7.252   6.425  0.4328  0.2820  0.6350
  910MOL0     C22744   8.772   7.127   6.423 -0.3855  0.3742  1.0379
  910MOL0     O22745   8.894   7.125   6.498 -0.6753 -0.5890 -0.1011
  910MOL0     C22746   8.962   7.008   6.488  0.2956  0.2833 -0.0575
  910MOL0     C22747   9.098   7.031   6.445 -0.1644  0.3616 -0.8070
  910MOL0     C22748   9.186   6.920   6.429  0.0374  0.1604 -0.7387
  910MOL0     C22749   9.135   6.791   6.473  0.5100 -0.6577 -0.2713
  910MOL0     O22750   9.221   6.684   6.473  0.3437 -0.5037  0.5978
  910MOL0     C22751   9.162   6.565   6.420 -0.2099  0.1517  0.0125
  910MOL0     C22752   9.199   6.566   6.275  0.7261 -0.7630  0.4060
  910MOL0     C22753   9.334   6.617   6.242  0.1144  0.1403 -0.5356
  910MOL0     C22754   9.363   6.589   6.103 -1.4223 -0.8950  0.4539
  910MOL0     C22755   9.488   6.683   6.060 -0.0970  0.3655  1.1894
  910MOL0     C22756   9.542   6.641   5.920 -0.0006  0.2408 -0.4901
  910MOL0     C22757   9.669   6.720   5.880  0.4599 -0.5066  0.3586
  910MOL0     C22758   9.730   6.682   5.752 -0.6643 -0.2846  0.5978
  910MOL0    Cl22759   9.794   6.821   5.658 -0.3276 -0.1623 -0.1547
  910MOL0     C22760   8.999   6.773   6.519 -0.4196 -1.0721 -0.7494
  910MOL0     C22761   8.910   6.880   6.526  0.5180  0.0775 -0.3772
  910MOL0     O22762   8.734   7.038   6.345  0.2594  0.2000 -0.2355
  910MOL0     C22763   8.756   7.379   6.431  0.3129 -0.1358 -0.9308
  910MOL0     C22764   8.670   7.496   6.436 -0.9661 -0.2787 -0.7673
  910MOL0     N22765   8.287   7.993   6.486 -0.0645  0.7002 -0.6611
  910MOL0     N22766   8.205   8.055   6.559  0.1947  0.1801 -0.8524
  910MOL0     C22767   7.647   9.007   6.369  0.7681  1.1368 -1.0506
  910MOL0     C22768   7.555   9.059   6.272  0.0787  0.3914 -0.0060
  910MOL0     C22769   7.180   9.344   6.226 -0.3183 -0.5304 -0.7843
  910MOL0     C22770   7.201   9.359   6.086 -0.5131 -0.8851  0.0752
  910MOL0     C22771   7.117   9.448   6.011  0.1579  0.0786 -0.3664
  910MOL0     C22772   7.002   9.504   6.071  0.7349 -0.2714  0.2622
  910MOL0     O22773   6.901   9.566   6.004  0.0745 -0.3704  0.2324
  910MOL0     C22774   6.910   9.631   5.882 -0.6898 -0.4301  0.1582
  910MOL0     C22775   6.974   9.767   5.894 -0.9538 -0.9646  0.4216
  910MOL0     C22776   6.885   9.886   5.952 -1.1039  0.5963  0.0728
  910MOL0     C22777   6.970  10.017   5.953 -0.0635 -0.5742 -0.8250
  910MOL0     C22778   7.081  10.033   6.048 -0.9713  0.2501  0.6414
  910MOL0     C22779   7.179  10.056   6.120  0.3492 -0.1404  0.4589
  910MOL0     C22780   6.983   9.484   6.213  0.8162  0.3721  1.0128
  910MOL0     C22781   7.069   9.408   6.290  0.2815 -0.0543  0.0438
  910MOL0     C22782   7.042   9.386   6.437  0.4980  0.2255  0.3271
  910MOL0     H22783   7.523   9.365   6.425 -0.4628  0.1315 -1.4030
  910MOL0     H22784   7.696   9.254   6.587 -0.4259  2.2066 -0.3216
  910MOL0     H22785   7.729   9.056   6.735 -0.6525 -0.5105  0.8476
  910MOL0     H22786   7.626   8.935   6.677 -0.5128  2.9792 -0.4898
  910MOL0     H22787   7.780   8.849   6.852 -0.0798  0.2483  0.3354
  910MOL0     H22788   7.922   8.898   6.782  0.1801 -2.9105  0.5281
  910MOL0     H22789   7.806   8.731   6.574  0.7394  0.0326 -0.9140
  910MOL0     H22790   7.853   8.645   6.734  5.1354  0.5056  0.9671
  910MOL0     H22791   8.016   8.836   6.569 -1.5502  1.2334  4.0367
  910MOL0     H22792   8.077   8.772   6.709 -0.0088 -0.1654  0.5228
  910MOL0     H22793   8.015   8.586   6.470  0.6763  1.2142 -0.6420
  910MOL0     H22794   8.169   8.642   6.515  0.0757 -1.3281  0.9450
  910MOL0     H22795   8.117   8.530   6.752  0.5055  1.3140  0.0545
  910MOL0     H22796   7.980   8.466   6.657 -0.2699 -0.5150 -2.3576
  910MOL0     H22797   8.283   8.449   6.571 -0.2112 -0.1911 -1.7076
  910MOL0     H22798   8.140   8.373   6.498  0.8347 -2.3935 -0.4505
  910MOL0     H22799   8.244   8.303   6.771  0.4320 -0.6288  0.5790
  910MOL0     H22800   8.086   8.243   6.698 -0.2724  1.8618 -1.9245
  910MOL0     H22801   8.474   8.234   6.605  0.5215  1.1312 -2.0778
  910MOL0     H22802   8.507   7.972   6.328 -2.9882 -0.0628  0.7154
  910MOL0     H22803   8.583   8.107   6.394  1.8078 -1.0887 -0.0274
  910MOL0     H22804   8.698   7.913   6.429 -2.0251 -1.2831 -0.9309
  910MOL0     H22805   8.638   7.968   6.598 -1.4995 -1.5024  1.9254
  910MOL0     H22806   8.468   7.822   6.605 -0.9500  0.6606 -0.7542
  910MOL0     H22807   8.616   7.727   6.581  1.3932 -0.6362 -1.8691
  910MOL0     H22808   8.568   7.707   6.329 -2.9865 -0.5509 -1.7180
  910MOL0     H22809   8.415   7.780   6.355 -0.3102  0.8271  1.8192
  910MOL0     H22810   8.359   7.345   6.460 -0.5451 -0.3341 -1.4034
  910MOL0     H22811   8.492   7.139   6.438 -0.1548 -0.3620 -1.7643
  910MOL0     H22812   9.137   7.130   6.423  1.5238 -0.6195 -2.4801
  910MOL0     H22813   9.293   6.922   6.408  0.0443 -0.7368 -0.8288
  910MOL0     H22814   9.211   6.476   6.463 -2.3781 -0.5845  1.1160
  910MOL0     H22815   9.057   6.545   6.444  0.2691  1.1112  3.4211
  910MOL0     H22816   9.191   6.469   6.225 -0.7254 -1.4803  1.9489
  910MOL0     H22817   9.124   6.621   6.217  0.2483 -4.3796 -2.7601
  910MOL0     H22818   9.330   6.726   6.250 -1.1047  0.1199 -0.7306
  910MOL0     H22819   9.418   6.585   6.305 -1.9379 -1.4040  1.5881
  910MOL0     H22820   9.282   6.599   6.030 -0.1255  0.4275 -0.8911
  910MOL0     H22821   9.390   6.483   6.110 -3.1781 -1.4961 -1.1450
  910MOL0     H22822   9.570   6.698   6.131  0.0332 -0.3606  1.2012
  910MOL0     H22823   9.440   6.779   6.041 -3.9824 -1.3387  1.3992
  910MOL0     H22824   9.573   6.536   5.908  0.9058  0.5572 -1.0044
  910MOL0     H22825   9.469   6.671   5.845 -1.6905  3.2640  2.1415
  910MOL0     H22826   9.753   6.706   5.949  2.3958  1.4719 -1.4185
  910MOL0     H22827   9.630   6.823   5.878  0.0326 -0.6798 -0.4831
  910MOL0     H22828   9.819   6.618   5.762 -1.1671 -1.0279  0.4344
  910MOL0     H22829   9.661   6.625   5.689  0.2221 -2.9164  1.8582
  910MOL0     H22830   8.953   6.678   6.544 -1.6053 -0.6518 -1.2515
  910MOL0     H22831   8.818   6.862   6.580  1.7436  0.8184  2.1227
  910MOL0     H22832   8.863   7.391   6.423  0.2911  2.1825  0.9788
  910MOL0     H22833   8.727   7.588   6.448  2.1700 -1.8420 -2.4286
  910MOL0     H22834   7.658   8.899   6.357  1.0723  1.3047 -2.5016
  910MOL0     H22835   7.516   8.997   6.193  1.5428  0.1656 -0.5823
  910MOL0     H22836   7.283   9.311   6.033 -3.0878 -2.7543 -2.5412
  910MOL0     H22837   7.146   9.458   5.907  4.0538 -0.1863  0.5130
  910MOL0     H22838   6.812   9.651   5.839  1.0939  6.3707 -1.9330
  910MOL0     H22839   6.967   9.572   5.810 -2.2656 -3.1671  0.9988
  910MOL0     H22840   7.010   9.788   5.793 -2.4101  2.7769  0.5161
  910MOL0     H22841   7.053   9.755   5.969  0.9054  0.7486 -1.1538
  910MOL0     H22842   6.851   9.856   6.051  1.6122 -1.4122  0.4805
  910MOL0     H22843   6.798   9.889   5.886 -1.9982  0.9968  1.2426
  910MOL0     H22844   7.017  10.030   5.855  0.4843 -3.2030 -0.9909
  910MOL0     H22845   6.903  10.101   5.973  0.8174 -0.8359  5.4606
  910MOL0     H22846   7.266  10.090   6.172 -0.0388  0.8610  0.4748
  910MOL0     H22847   6.893   9.513   6.266  0.8881 -1.6154  2.2947
  910MOL0     H22848   7.015   9.282   6.453  0.3298  0.0341 -1.0950
  910MOL0     H22849   7.137   9.413   6.484  1.5917  2.5587 -2.8699
  910MOL0     H22850   6.963   9.450   6.478  1.3075  1.2440  0.3619
  911MOL0     O22851   4.820   2.012   1.752  0.2790  0.2525 -0.3733
  911MOL0     C22852   4.770   2.121   1.795 -1.9518  0.6559  0.6868
  911MOL0     O22853   4.842   2.208   1.880 -0.3526 -0.7017  0.1166
  911MOL0     C22854   4.976   2.188   1.884  0.1386 -0.0378  0.6783
  911MOL0     C22855   5.022   2.129   2.000 -0.2986 -0.0943 -0.2230
  911MOL0     C22856   5.162   2.118   2.034 -0.3370 -0.2124 -0.0124
  911MOL0     C22857   5.258   2.181   1.954 -0.5922 -0.2610  0.7462
  911MOL0     O22858   5.392   2.176   1.992 -0.2803 -0.2191 -0.3548
  911MOL0     C22859   5.496   2.257   1.936 -0.5767  0.8117 -0.5779
  911MOL0     C22860   5.456   2.406   1.967  0.1156 -0.9392 -0.5012
  911MOL0     C22861   5.559   2.516   1.938  0.2346  0.7878  0.1732
  911MOL0     C22862   5.634   2.565   2.055  0.8366 -0.3039 -0.2119
  911MOL0     C22863   5.709   2.704   2.034  0.2717  0.8530 -0.2491
  911MOL0     C22864   5.786   2.750   2.158  0.5768  0.1583  0.1832
  911MOL0     C22865   5.850   2.893   2.131  0.7890 -0.7526 -0.4325
  911MOL0     C22866   5.910   2.914   1.990 -1.2403  0.4489 -0.9119
  911MOL0     N22867   6.017   2.816   1.965  0.0573 -0.3321 -0.0226
  911MOL0     C22868   6.082   2.730   2.052 -0.0929  0.0486  0.0700
  911MOL0     C22869   6.147   2.635   1.989 -0.1217  0.2794 -0.0374
  911MOL0     C22870   6.209   2.511   2.047 -0.3917  1.1738  0.7470
  911MOL0     C22871   6.094   2.414   2.079  0.1545 -0.1805 -0.6868
  911MOL0     C22872   6.062   2.328   1.949 -1.1677  0.6755 -0.6813
  911MOL0     C22873   5.921   2.327   1.911 -0.1776 -0.2629  0.2296
  911MOL0     O22874   5.894   2.224   1.817  0.2394  0.8452  0.7958
  911MOL0     C22875   5.878   2.096   1.865 -0.4136 -0.6144  0.1426
  911MOL0     C22876   5.887   2.061   1.998 -0.1756 -0.2382 -0.4602
  911MOL0     C22877   5.867   1.928   2.038  0.4111  0.0524 -0.1618
  911MOL0     C22878   5.843   1.833   1.941 -0.3585 -0.1877 -0.1408
  911MOL0     C22879   5.815   1.691   1.991 -0.2467 -0.3960  0.5459
  911MOL0     O22880   5.831   1.591   1.900 -0.7989  0.8342 -0.1155
  911MOL0     C22881   5.802   1.456   1.916  0.0288 -0.4288 -0.3176
  911MOL0     C22882   5.711   1.394   1.835  0.4120 -0.0531  0.5324
  911MOL0     C22883   5.688   1.258   1.850  0.2018 -0.3645  0.3664
  911MOL0     C22884   5.758   1.182   1.939 -0.2131 -0.1774 -0.2075
  911MOL0     O22885   5.747   1.045   1.926 -0.0338 -0.1588 -0.1816
  911MOL0     C22886   5.802   0.986   1.802  0.0516 -0.3202  0.2576
  911MOL0     C22887   5.813   0.831   1.810  1.5022 -0.6535 -0.6442
  911MOL0     C22888   5.917   0.787   1.915  0.2024 -0.2765  0.6517
  911MOL0     C22889   5.919   0.633   1.917 -0.2771  0.7156 -0.0712
  911MOL0     C22890   5.958   0.564   1.787  0.6698  0.4057  0.0204
  911MOL0     C22891   5.960   0.409   1.806  0.1261 -0.1058 -0.8568
  911MOL0     C22892   5.956   0.342   1.672 -0.2426  0.1244 -0.0826
  911MOL0     C22893   5.994   0.194   1.692  0.3205 -0.2851 -0.1003
  911MOL0    Cl22894   6.002   0.125   1.532  0.1226  0.0683  0.3397
  911MOL0     C22895   5.835   1.246   2.038 -0.6525 -0.2646 -0.7508
  911MOL0     C22896   5.860   1.388   2.022 -0.9618  0.1072 -0.1365
  911MOL0     O22897   5.784   1.677   2.108  0.2072 -0.6332 -0.3191
  911MOL0     C22898   5.839   1.860   1.808  0.1398  0.2161 -0.1657
  911MOL0     C22899   5.862   1.999   1.768 -0.1574 -0.2990 -0.0255
  911MOL0     N22900   6.124   2.662   1.857 -0.1429  0.5452  0.5433
  911MOL0     N22901   6.046   2.763   1.845 -0.2002 -0.2945  0.4670
  911MOL0     C22902   5.207   2.248   1.830  0.4047 -0.1828  0.1319
  911MOL0     C22903   5.071   2.248   1.794  0.6515 -0.1262  0.3876
  911MOL0     C22904   4.647   2.169   1.749 -0.0805  0.6837 -0.2128
  911MOL0     C22905   4.607   2.294   1.796 -0.0781  1.1112 -0.7158
  911MOL0     C22906   4.499   2.358   1.742  0.2706  0.7516  0.2444
  911MOL0     C22907   4.415   2.308   1.642 -0.2482  0.6348  0.3234
  911MOL0     O22908   4.308   2.362   1.587 -0.1898 -0.9448 -0.7015
  911MOL0     C22909   4.261   2.487   1.637 -0.5053  0.5266 -0.4201
  911MOL0     C22910   4.150   2.529   1.536 -0.5854 -0.2613  0.2625
  911MOL0     C22911   4.069   2.649   1.576  0.5912 -0.1244 -0.1102
  911MOL0     C22912   4.142   2.772   1.608 -0.2195 -0.6061  0.5802
  911MOL0     C22913   4.167   2.853   1.481 -0.8060  0.0844 -0.2426
  911MOL0     C22914   4.194   2.919   1.385  0.7516 -0.5880  0.5199
  911MOL0     C22915   4.452   2.185   1.592 -0.5333 -0.8382  0.0365
  911MOL0     C22916   4.561   2.112   1.648 -0.9019 -0.4969  0.2776
  911MOL0     C22917   4.606   1.982   1.574 -0.5436 -0.3586 -0.4600
  911MOL0     H22918   4.951   2.110   2.080 -2.7395  0.2147 -2.1943
  911MOL0     H22919   5.207   2.073   2.123  0.2007  0.0996 -0.1244
  911MOL0     H22920   5.589   2.220   1.981 -1.7234 -2.4542 -0.5508
  911MOL0     H22921   5.513   2.230   1.832  0.8668  1.0766 -0.4242
  911MOL0     H22922   5.409   2.418   2.065 -0.4968 -0.0872 -0.8798
  911MOL0     H22923   5.373   2.444   1.906 -1.7612  2.1616  3.4924
  911MOL0     H22924   5.513   2.597   1.880 -0.6475 -1.0707 -1.9124
  911MOL0     H22925   5.634   2.490   1.863 -1.5769  2.8052 -2.5516
  911MOL0     H22926   5.561   2.570   2.137  0.3126  0.9009 -0.7236
  911MOL0     H22927   5.698   2.480   2.079 -1.0333 -2.9021 -3.4922
  911MOL0     H22928   5.779   2.690   1.951 -0.7011 -0.8270 -0.8314
  911MOL0     H22929   5.633   2.782   2.023 -0.3417  0.2101 -0.6327
  911MOL0     H22930   5.720   2.762   2.244  0.0534  1.9736 -0.4211
  911MOL0     H22931   5.855   2.668   2.180  0.2433 -0.5751 -1.3353
  911MOL0     H22932   5.918   2.906   2.216  0.8433 -0.8625 -0.4601
  911MOL0     H22933   5.779   2.976   2.141  3.4112  1.3055  4.4686
  911MOL0     H22934   5.848   2.904   1.901  1.2509 -0.3920 -2.6519
  911MOL0     H22935   5.965   3.009   1.996  0.8525 -0.7671  0.6995
  911MOL0     H22936   6.090   2.738   2.160  1.5204  2.4214 -0.1363
  911MOL0     H22937   6.282   2.474   1.974 -1.5009  2.3076 -1.0054
  911MOL0     H22938   6.272   2.534   2.134  1.0621  0.6938 -0.1339
  911MOL0     H22939   6.125   2.343   2.156 -2.0879 -0.7594 -0.2499
  911MOL0     H22940   6.004   2.461   2.120  1.6345  2.3251 -0.1112
  911MOL0     H22941   6.099   2.227   1.972 -3.1438  0.6244  3.1099
  911MOL0     H22942   6.119   2.351   1.859  0.1633 -2.7742 -0.8715
  911MOL0     H22943   5.889   2.418   1.860  0.9348 -1.6171 -3.1388
  911MOL0     H22944   5.859   2.314   2.000 -0.8832  2.3948  0.2084
  911MOL0     H22945   5.925   2.137   2.066  1.4143  0.1108 -1.6885
  911MOL0     H22946   5.879   1.903   2.143  0.4928 -1.4678 -0.5200
  911MOL0     H22947   5.669   1.458   1.758  4.3419  0.9548 -1.0136
  911MOL0     H22948   5.612   1.217   1.784 -1.2381  0.2736  1.5774
  911MOL0     H22949   5.737   0.985   1.714 -1.1180  0.5669  1.0813
  911MOL0     H22950   5.896   1.039   1.780 -0.8413  0.6722 -1.4329
  911MOL0     H22951   5.720   0.795   1.854  0.5278  0.8712 -1.3958
  911MOL0     H22952   5.823   0.790   1.709 -0.6783  0.0114 -1.1662
  911MOL0     H22953   6.019   0.822   1.900 -0.0886  2.0163  3.0968
  911MOL0     H22954   5.895   0.816   2.019  1.4317 -0.8932  1.1012
  911MOL0     H22955   5.825   0.585   1.948 -0.5296  0.0867 -1.6955
  911MOL0     H22956   5.997   0.598   1.985  0.0631  0.7790 -0.4205
  911MOL0     H22957   6.064   0.582   1.768  1.0897  2.8108  3.7356
  911MOL0     H22958   5.894   0.591   1.702  1.4808 -0.6654 -0.9774
  911MOL0     H22959   6.053   0.381   1.857 -1.9242  0.0453  3.4823
  911MOL0     H22960   5.875   0.368   1.862  0.2910  2.1082  1.2181
  911MOL0     H22961   6.024   0.389   1.601  0.0456  1.2778  0.9084
  911MOL0     H22962   5.852   0.343   1.639 -1.4471 -0.7573  3.2274
  911MOL0     H22963   6.100   0.194   1.722  1.2730  2.5025 -2.8836
  911MOL0     H22964   5.921   0.138   1.750 -1.4840  1.7652 -0.2825
  911MOL0     H22965   5.884   1.175   2.105 -0.8019  0.3064 -0.0291
  911MOL0     H22966   5.912   1.440   2.101  1.2479 -3.0533  0.7119
  911MOL0     H22967   5.823   1.787   1.729 -2.6465 -0.4387  0.9058
  911MOL0     H22968   5.845   2.019   1.662 -1.5053  1.0248  0.4102
  911MOL0     H22969   5.278   2.288   1.758  0.2887 -0.7987 -0.3362
  911MOL0     H22970   5.025   2.310   1.718  0.2802 -0.0844  0.6438
  911MOL0     H22971   4.673   2.359   1.852  0.5313 -0.2569  0.2342
  911MOL0     H22972   4.467   2.443   1.802  1.8472 -1.1337  4.1686
  911MOL0     H22973   4.341   2.561   1.637 -0.0781  0.1069  1.4693
  911MOL0     H22974   4.227   2.473   1.740 -2.8853  2.8850 -0.7917
  911MOL0     H22975   4.076   2.448   1.528 -1.9623  0.8479  1.1877
  911MOL0     H22976   4.199   2.550   1.441  1.8042 -0.6279  1.3616
  911MOL0     H22977   4.006   2.612   1.657  1.3808 -1.3009 -0.0227
  911MOL0     H22978   4.005   2.671   1.489  1.2709 -0.6588 -0.7563
  911MOL0     H22979   4.089   2.839   1.676 -3.4092 -1.2458 -1.1091
  911MOL0     H22980   4.237   2.735   1.649  1.5727  2.3657 -0.5372
  911MOL0     H22981   4.228   2.981   1.304  1.3054  0.0830  1.2571
  911MOL0     H22982   4.406   2.146   1.502 -4.0696  1.4508  0.6442
  911MOL0     H22983   4.532   1.947   1.501 -0.1116 -5.8043  1.2724
  911MOL0     H22984   4.700   1.995   1.519 -0.8015 -0.4570 -0.9278
  911MOL0     H22985   4.605   1.898   1.644  1.7678  0.5444  0.7680
  912MOL0     O22986   4.822   1.733   2.746 -0.8557  0.2883 -0.5610
  912MOL0     C22987   4.725   1.666   2.711 -0.6889 -0.2767 -0.0643
  912MOL0     O22988   4.610   1.707   2.664  0.1336  0.3339  0.3927
  912MOL0     C22989   4.581   1.843   2.652  0.0791 -0.2162 -0.6295
  912MOL0     C22990   4.497   1.887   2.557 -0.0237 -0.2879  0.9776
  912MOL0     C22991   4.446   2.010   2.559  0.5006  0.7936 -0.2852
  912MOL0     C22992   4.479   2.103   2.657  0.5278  0.4801  0.5867
  912MOL0     O22993   4.425   2.221   2.675 -0.0796 -0.7373  0.3568
  912MOL0     C22994   4.327   2.281   2.577 -0.6925  0.4602 -0.3378
  912MOL0     C22995   4.284   2.427   2.619 -0.3689 -0.0622  0.5075
  912MOL0     C22996   4.183   2.474   2.510 -0.5854  0.4274 -0.4036
  912MOL0     C22997   4.143   2.620   2.553  0.0366 -0.3257 -0.2962
  912MOL0     C22998   4.040   2.679   2.454  0.2182  0.7079 -0.3078
  912MOL0     C22999   4.042   2.830   2.456 -0.3343 -0.7920  0.1018
  912MOL0     C23000   4.152   2.891   2.378 -0.3831 -0.7215 -0.0313
  912MOL0     C23001   4.138   3.042   2.356 -0.3473 -0.4449 -0.6871
  912MOL0     N23002   4.166   3.130   2.474 -0.3539  0.7665  0.1579
  912MOL0     C23003   4.257   3.232   2.482  0.2098 -0.6910 -0.7861
  912MOL0     C23004   4.213   3.302   2.588 -0.1617 -0.5516 -0.0149
  912MOL0     C23005   4.257   3.428   2.643  0.7542 -1.1557  0.6892
  912MOL0     C23006   4.290   3.528   2.534 -0.9163 -0.4069 -0.5914
  912MOL0     C23007   4.164   3.580   2.455  0.4228 -0.5182  0.1932
  912MOL0     C23008   4.179   3.720   2.386 -0.0395 -0.5776 -0.0107
  912MOL0     O23009   4.041   3.775   2.372 -0.9335  0.2420  0.1482
  912MOL0     C23010   4.037   3.911   2.340 -0.5353  0.9059 -0.6273
  912MOL0     C23011   3.910   3.977   2.336  0.0151  0.2728 -0.6422
  912MOL0     C23012   3.891   4.103   2.266 -0.4762 -0.3042 -0.4648
  912MOL0     C23013   3.999   4.159   2.198  0.8915  0.0353 -0.5284
  912MOL0     C23014   3.978   4.294   2.141 -0.0198  0.7648  0.2957
  912MOL0     O23015   3.858   4.339   2.119  0.0074 -0.3923  0.1158
  912MOL0     C23016   3.848   4.459   2.042  0.4881  0.5492 -0.6636
  912MOL0     C23017   3.850   4.592   2.098  0.5565 -0.0832  0.3579
  912MOL0     C23018   3.848   4.711   2.020 -0.2099 -0.3996  0.8277
  912MOL0     C23019   3.832   4.709   1.885  0.1352 -0.1204  0.1660
  912MOL0     O23020   3.832   4.821   1.801  0.1090  0.0351 -0.3563
  912MOL0     C23021   3.835   4.951   1.865 -0.0069 -0.2533  0.0720
  912MOL0     C23022   3.771   5.065   1.786 -0.0983  0.9690  0.3600
  912MOL0     C23023   3.621   5.073   1.774 -0.8593  0.0093 -0.7948
  912MOL0     C23024   3.544   5.095   1.911 -0.0318  0.4336  0.6692
  912MOL0     C23025   3.504   5.239   1.953  0.5137  0.2910  0.1217
  912MOL0     C23026   3.543   5.288   2.097  0.7062 -0.2659  0.8181
  912MOL0     C23027   3.511   5.440   2.132  0.7536  0.2168 -0.3738
  912MOL0     C23028   3.363   5.456   2.171  0.2593 -0.4630  0.2559
  912MOL0    Cl23029   3.264   5.457   2.021  0.2889 -0.3608  0.1031
  912MOL0     C23030   3.811   4.581   1.831  1.2837  0.1496  0.4546
  912MOL0     C23031   3.834   4.454   1.901  0.3497 -0.7610  0.2302
  912MOL0     O23032   4.077   4.362   2.116 -0.3924  0.3788 -0.6523
  912MOL0     C23033   4.123   4.104   2.223 -0.1071  0.0783 -0.4884
  912MOL0     C23034   4.150   3.981   2.293 -0.2560 -0.4990  0.3791
  912MOL0     N23035   4.111   3.230   2.649  1.3443  0.2201 -0.5111
  912MOL0     N23036   4.089   3.123   2.587 -0.2591  0.5772  0.1289
  912MOL0     C23037   4.561   2.062   2.759  0.4086  0.3656 -0.7835
  912MOL0     C23038   4.613   1.931   2.758 -0.0641 -0.1168  0.2098
  912MOL0     C23039   4.749   1.525   2.702  0.1585 -0.0133  0.8152
  912MOL0     C23040   4.870   1.477   2.650  0.7798 -0.4562  0.8072
  912MOL0     C23041   4.903   1.344   2.658  0.2558  0.8257 -0.8653
  912MOL0     C23042   4.811   1.251   2.717 -0.8259 -0.2478 -0.3594
  912MOL0     O23043   4.851   1.120   2.718  0.5180 -0.1705 -0.0563
  912MOL0     C23044   4.761   1.019   2.777 -0.4041 -0.1221  0.2994
  912MOL0     C23045   4.790   0.885   2.728  0.3390 -0.0718 -1.3995
  912MOL0     C23046   4.713   0.779   2.812 -0.0062 -0.5972 -0.1777
  912MOL0     C23047   4.715   0.645   2.732 -0.0534  0.5290 -0.2817
  912MOL0     C23048   4.676   0.530   2.809  0.4546  0.2428 -0.2492
  912MOL0     C23049   4.637   0.444   2.887 -1.4795 -0.9486  0.5776
  912MOL0     C23050   4.686   1.298   2.758  0.2773 -0.6271  0.1539
  912MOL0     C23051   4.657   1.432   2.762 -1.2942 -0.7758  0.1692
  912MOL0     C23052   4.523   1.468   2.814 -0.0262 -0.3894 -0.9336
  912MOL0     H23053   4.451   1.817   2.488  0.6339  0.9798 -0.8407
  912MOL0     H23054   4.364   2.036   2.493 -0.1471 -1.8129 -0.6307
  912MOL0     H23055   4.373   2.294   2.479  1.5147  1.3428  0.7451
  912MOL0     H23056   4.230   2.231   2.583 -0.4948  0.1556  0.4849
  912MOL0     H23057   4.376   2.486   2.622  0.2542 -1.0316  1.1615
  912MOL0     H23058   4.233   2.440   2.715 -0.8516  0.6734  0.1581
  912MOL0     H23059   4.090   2.417   2.508 -2.1358  2.7794 -2.4977
  912MOL0     H23060   4.234   2.488   2.414  1.0476  0.4245  0.4357
  912MOL0     H23061   4.090   2.624   2.649  0.6445  0.0301  0.0283
  912MOL0     H23062   4.230   2.684   2.561 -0.1722 -0.1733  1.0709
  912MOL0     H23063   4.062   2.652   2.350  1.1604  3.9499 -1.0799
  912MOL0     H23064   3.944   2.645   2.494  0.7812 -1.0134 -0.3692
  912MOL0     H23065   3.954   2.874   2.409 -1.3342 -2.2642  0.5301
  912MOL0     H23066   4.039   2.864   2.561 -1.1626 -1.9889  0.4821
  912MOL0     H23067   4.159   2.839   2.282  0.9909 -3.6388  1.5378
  912MOL0     H23068   4.247   2.888   2.432 -0.3501  0.9462  0.0743
  912MOL0     H23069   4.215   3.071   2.284 -0.3848  3.0513  0.4835
  912MOL0     H23070   4.039   3.068   2.317 -1.2502 -2.6241  0.0199
  912MOL0     H23071   4.319   3.288   2.413  1.4373  1.2238  1.7108
  912MOL0     H23072   4.177   3.460   2.711 -1.8662  0.1919 -2.6934
  912MOL0     H23073   4.347   3.418   2.703  1.1776 -1.7724 -0.0265
  912MOL0     H23074   4.348   3.605   2.585  0.9549 -2.2665  0.2180
  912MOL0     H23075   4.356   3.486   2.458  0.5334  0.3903  0.1973
  912MOL0     H23076   4.078   3.591   2.522  0.2502  1.6538 -0.3014
  912MOL0     H23077   4.133   3.514   2.373  1.2773  0.2501 -0.7775
  912MOL0     H23078   4.228   3.705   2.289 -1.1858  3.3272 -1.3813
  912MOL0     H23079   4.250   3.787   2.434  1.1553 -0.7269 -1.4724
  912MOL0     H23080   3.818   3.925   2.361  0.6397  0.7806  3.4278
  912MOL0     H23081   3.790   4.142   2.273 -0.6910 -1.0533  0.9741
  912MOL0     H23082   3.867   4.592   2.205  2.7215  0.6576  0.0778
  912MOL0     H23083   3.883   4.801   2.070  1.5412  0.6947 -2.1105
  912MOL0     H23084   3.789   4.946   1.964  3.0562 -1.4114  1.5833
  912MOL0     H23085   3.937   4.985   1.888 -0.0560 -0.6062  0.8557
  912MOL0     H23086   3.802   5.160   1.832  0.0244  2.3890 -2.4333
  912MOL0     H23087   3.805   5.070   1.682 -0.3019  0.8476  0.2866
  912MOL0     H23088   3.591   5.145   1.697 -2.3383 -2.7072 -2.9363
  912MOL0     H23089   3.589   4.976   1.735 -2.2641  0.1480 -0.0377
  912MOL0     H23090   3.604   5.062   1.996  0.0063  3.1037  1.7828
  912MOL0     H23091   3.463   5.021   1.912  0.6861 -0.3556  1.4279
  912MOL0     H23092   3.394   5.234   1.951  0.5402 -0.7145  0.3713
  912MOL0     H23093   3.540   5.310   1.878 -1.0037 -1.3049 -2.2768
  912MOL0     H23094   3.491   5.218   2.163  1.7388 -1.7268  0.1027
  912MOL0     H23095   3.651   5.285   2.112  0.7251 -2.3016  0.5046
  912MOL0     H23096   3.542   5.514   2.057 -1.0421 -0.7912 -2.1897
  912MOL0     H23097   3.573   5.459   2.221 -0.5353  0.9694  0.3994
  912MOL0     H23098   3.313   5.373   2.222 -0.1145 -2.7110 -3.3876
  912MOL0     H23099   3.349   5.550   2.225  2.3202  0.6869 -1.0883
  912MOL0     H23100   3.810   4.573   1.723  1.5070 -0.6116  0.5060
  912MOL0     H23101   3.836   4.370   1.832 -0.1157 -2.4995  2.2343
  912MOL0     H23102   4.201   4.164   2.177 -0.6249  0.4937 -0.8330
  912MOL0     H23103   4.250   3.938   2.297  0.4514  1.1124  3.1515
  912MOL0     H23104   4.574   2.128   2.845 -3.4179 -0.0611  0.3488
  912MOL0     H23105   4.675   1.907   2.844 -2.3180  1.6091  2.5099
  912MOL0     H23106   4.934   1.538   2.588 -1.4813  0.2153 -1.0243
  912MOL0     H23107   4.987   1.302   2.603 -0.2712  0.6184 -1.5156
  912MOL0     H23108   4.660   1.035   2.739 -0.1107 -0.1143 -0.4926
  912MOL0     H23109   4.765   1.030   2.886 -0.7024 -0.5170  0.3525
  912MOL0     H23110   4.898   0.863   2.733  0.3280  0.0933 -0.2399
  912MOL0     H23111   4.747   0.877   2.628  1.8450 -0.0269 -2.0792
  912MOL0     H23112   4.611   0.809   2.836 -0.9856 -4.6228  1.4436
  912MOL0     H23113   4.763   0.768   2.909  0.4437 -1.0673 -0.4569
  912MOL0     H23114   4.659   0.640   2.638 -1.1407 -0.3462  0.3886
  912MOL0     H23115   4.817   0.628   2.695 -0.9972  1.1125 -3.4144
  912MOL0     H23116   4.596   0.378   2.960 -2.3094  0.9351  1.8866
  912MOL0     H23117   4.618   1.228   2.804  1.7288 -0.5392  2.6519
  912MOL0     H23118   4.462   1.492   2.726  2.4556  1.9030 -2.1879
  912MOL0     H23119   4.478   1.379   2.859 -0.0576  1.2393  2.5800
  912MOL0     H23120   4.518   1.552   2.884 -2.5187 -2.2414  1.3098
  913MOL0     O23121   7.888   6.834   1.396 -0.2801  0.6392  0.2031
  913MOL0     C23122   8.001   6.807   1.430  0.2934  1.3045 -0.9177
  913MOL0     O23123   8.042   6.784   1.561  0.7106 -0.6352  0.0672
  913MOL0     C23124   7.949   6.735   1.650 -0.6549  0.7420 -0.4132
  913MOL0     C23125   7.995   6.628   1.730 -0.2013 -0.5205  0.4192
  913MOL0     C23126   7.926   6.568   1.832  0.0903 -0.0640  0.0956
  913MOL0     C23127   7.791   6.594   1.837 -0.2876  0.2464 -0.0683
  913MOL0     O23128   7.723   6.537   1.942 -0.4037 -0.2823  0.0880
  913MOL0     C23129   7.623   6.622   2.008  0.3781  0.7874 -0.4752
  913MOL0     C23130   7.483   6.585   1.963  0.2024 -0.5392  1.0686
  913MOL0     C23131   7.451   6.433   1.981 -0.4616  0.3626  0.2921
  913MOL0     C23132   7.309   6.407   1.949  0.2393  0.4149 -1.0245
  913MOL0     C23133   7.294   6.256   1.949  0.2967 -0.4711 -0.0669
  913MOL0     C23134   7.142   6.220   1.951  0.5158  0.5946 -0.4170
  913MOL0     C23135   7.132   6.072   1.897  0.2667  0.4716  0.2761
  913MOL0     C23136   7.036   6.056   1.780  0.3152 -0.5015  0.0908
  913MOL0     N23137   6.896   6.090   1.817 -0.6293  0.8367  0.2759
  913MOL0     C23138   6.829   5.999   1.905  0.2862 -0.2953 -0.3053
  913MOL0     C23139   6.702   6.027   1.894  1.4050  0.2605 -0.2731
  913MOL0     C23140   6.580   5.973   1.963  0.4200  0.4689 -0.5087
  913MOL0     C23141   6.503   6.078   2.051  1.0532  0.8643 -1.1050
  913MOL0     C23142   6.402   6.177   1.997 -0.1684 -0.6451 -0.2259
  913MOL0     C23143   6.334   6.138   1.863 -0.4144 -1.5098  0.4797
  913MOL0     O23144   6.273   6.001   1.853 -0.0382 -0.4171  0.3568
  913MOL0     C23145   6.145   5.976   1.889 -0.6913  0.1751 -0.2492
  913MOL0     C23146   6.095   5.857   1.851  0.1485 -0.0260  0.7307
  913MOL0     C23147   5.970   5.817   1.893 -0.0440 -1.3662  0.4661
  913MOL0     C23148   5.889   5.899   1.975 -0.5014  0.5011 -0.6457
  913MOL0     C23149   5.763   5.846   2.038 -0.0338 -0.8776  0.9804
  913MOL0     O23150   5.718   5.915   2.147 -0.6165 -0.3959 -0.3082
  913MOL0     C23151   5.622   5.856   2.218  0.6175 -0.3755 -0.3771
  913MOL0     C23152   5.498   5.842   2.152 -0.5272  0.8479  0.1280
  913MOL0     C23153   5.394   5.790   2.230 -0.2960 -0.4562 -0.1728
  913MOL0     C23154   5.392   5.771   2.366  0.2769 -0.1717 -0.2717
  913MOL0     O23155   5.275   5.729   2.436 -0.8604 -0.1593 -0.3138
  913MOL0     C23156   5.283   5.673   2.569 -0.3838 -0.9525  0.6260
  913MOL0     C23157   5.344   5.543   2.583  0.4017 -0.2802  0.7604
  913MOL0     C23158   5.284   5.430   2.497 -0.0359 -0.5195 -0.3026
  913MOL0     C23159   5.385   5.316   2.479 -0.6151  1.4243  0.3963
  913MOL0     C23160   5.487   5.330   2.364  0.6094 -0.2733  0.1884
  913MOL0     C23161   5.419   5.291   2.234  0.6296  0.7488 -0.1879
  913MOL0     C23162   5.464   5.359   2.098 -0.3399 -1.0249 -0.3551
  913MOL0     C23163   5.423   5.506   2.103 -1.0611 -0.2138  0.7455
  913MOL0    Cl23164   5.468   5.576   1.958  0.1668  0.2902 -0.0966
  913MOL0     C23165   5.520   5.806   2.424 -0.1383 -0.6262 -0.3256
  913MOL0     C23166   5.633   5.839   2.351  0.3516  0.1010 -0.6146
  913MOL0     O23167   5.720   5.747   1.990  0.0968  0.1722 -1.0482
  913MOL0     C23168   5.935   6.021   2.025 -0.2898 -0.7462  0.5685
  913MOL0     C23169   6.059   6.064   1.965  0.3007  0.6005  0.3281
  913MOL0     N23170   6.687   6.128   1.803 -0.6133 -0.1338 -0.6788
  913MOL0     N23171   6.804   6.173   1.765  0.2951  0.3816  1.0117
  913MOL0     C23172   7.736   6.697   1.754 -0.4931 -0.4434 -0.1902
  913MOL0     C23173   7.819   6.764   1.662 -0.0544 -1.6713 -0.4095
  913MOL0     C23174   8.115   6.804   1.323  0.3857  0.0396 -0.4397
  913MOL0     C23175   8.244   6.754   1.359  0.4211 -0.3868 -0.2877
  913MOL0     C23176   8.350   6.753   1.270  0.2693  0.3982  0.5621
  913MOL0     C23177   8.335   6.799   1.137  0.2655 -0.1761  1.4634
  913MOL0     O23178   8.437   6.799   1.046 -0.1685  0.0763 -0.6005
  913MOL0     C23179   8.549   6.713   1.069  0.1121  0.4630  0.0315
  913MOL0     C23180   8.529   6.574   1.011  0.0762 -0.4647  0.1015
  913MOL0     C23181   8.494   6.582   0.861 -0.6956  0.2018 -0.0843
  913MOL0     C23182   8.492   6.445   0.798  0.0404  0.1972  0.3033
  913MOL0     C23183   8.403   6.352   0.875 -0.3032  0.8347  0.0314
  913MOL0     C23184   8.327   6.288   0.944  0.9673 -0.6560  0.3470
  913MOL0     C23185   8.212   6.844   1.099  0.2858 -0.7250 -0.8319
  913MOL0     C23186   8.104   6.832   1.188  0.2088  0.1390  0.3818
  913MOL0     C23187   7.964   6.855   1.127 -0.1814 -0.1518  0.3427
  913MOL0     H23188   8.091   6.587   1.703 -0.2333 -0.1315 -0.3195
  913MOL0     H23189   7.962   6.492   1.901 -1.2925 -0.7146  0.1236
  913MOL0     H23190   7.625   6.592   2.113 -0.4132  2.3984  0.0402
  913MOL0     H23191   7.653   6.727   2.013  1.1673  0.5207  1.4827
  913MOL0     H23192   7.476   6.591   1.854 -0.0507 -0.5910  1.0834
  913MOL0     H23193   7.414   6.657   2.006 -1.5698  0.9530 -3.6727
  913MOL0     H23194   7.486   6.400   2.079 -0.5989  2.4823  1.1107
  913MOL0     H23195   7.499   6.362   1.913 -2.8625  0.5963 -1.8115
  913MOL0     H23196   7.241   6.444   2.026 -1.9383 -1.6671 -1.8206
  913MOL0     H23197   7.270   6.455   1.858  0.0541  4.6486  1.0376
  913MOL0     H23198   7.349   6.227   1.859 -0.1326 -0.5130 -0.3186
  913MOL0     H23199   7.341   6.207   2.035  3.0347 -1.5826 -2.0509
  913MOL0     H23200   7.093   6.239   2.047  1.9349  2.3826  0.0151
  913MOL0     H23201   7.099   6.282   1.871 -0.1528 -0.2694 -0.7382
  913MOL0     H23202   7.091   6.003   1.972 -4.7132  3.0414  0.3660
  913MOL0     H23203   7.226   6.029   1.863 -0.6338 -0.8542 -0.6174
  913MOL0     H23204   7.059   6.121   1.695  0.9972  0.1560  0.7590
  913MOL0     H23205   7.037   5.956   1.737 -0.9150 -0.5574  0.1510
  913MOL0     H23206   6.874   5.930   1.975 -3.2504 -2.4607  0.0700
  913MOL0     H23207   6.523   5.931   1.879  2.1422 -2.7429 -0.2623
  913MOL0     H23208   6.608   5.892   2.031  0.1327 -0.1845 -1.1484
  913MOL0     H23209   6.440   6.022   2.121  2.1811 -0.0663 -0.7845
  913MOL0     H23210   6.581   6.115   2.118  2.0739 -2.1017 -0.4845
  913MOL0     H23211   6.452   6.273   1.984 -4.1676  1.7094 -0.0326
  913MOL0     H23212   6.329   6.179   2.078 -1.3868  1.6027 -1.2916
  913MOL0     H23213   6.411   6.141   1.786 -4.1265  3.1416 -3.7223
  913MOL0     H23214   6.256   6.213   1.847  1.0711 -0.1454 -0.7324
  913MOL0     H23215   6.156   5.801   1.781  1.6193  2.4712 -0.0918
  913MOL0     H23216   5.934   5.721   1.858 -3.3173 -0.4352  0.9151
  913MOL0     H23217   5.492   5.880   2.051 -0.2403  2.0618  0.5477
  913MOL0     H23218   5.310   5.752   2.173 -2.4513  2.5455  0.7200
  913MOL0     H23219   5.332   5.749   2.630  1.5054 -2.1754  0.7253
  913MOL0     H23220   5.182   5.657   2.606 -1.6021 -0.2511 -2.1374
  913MOL0     H23221   5.451   5.547   2.562  0.2505  1.1204  0.1052
  913MOL0     H23222   5.337   5.504   2.685 -1.1055 -3.5279 -0.4706
  913MOL0     H23223   5.198   5.385   2.546 -1.1825  1.9263  0.0737
  913MOL0     H23224   5.249   5.474   2.403  1.7247  1.5480 -0.0958
  913MOL0     H23225   5.330   5.222   2.467 -0.6012  1.2672  1.4102
  913MOL0     H23226   5.445   5.303   2.570  0.0508 -1.4586 -0.3445
  913MOL0     H23227   5.573   5.262   2.369  0.9549 -0.3317 -3.6937
  913MOL0     H23228   5.501   5.438   2.366 -1.2887 -0.0078  1.1394
  913MOL0     H23229   5.439   5.185   2.214 -1.1196  0.7003 -1.9127
  913MOL0     H23230   5.314   5.319   2.246  0.8494  0.5883  2.8121
  913MOL0     H23231   5.409   5.304   2.022 -0.5858 -1.1611 -0.0817
  913MOL0     H23232   5.573   5.350   2.095 -0.2128 -3.3965  3.8167
  913MOL0     H23233   5.320   5.528   2.131 -1.1189  0.4044  0.0689
  913MOL0     H23234   5.487   5.556   2.176  0.1437  1.7128 -1.4928
  913MOL0     H23235   5.536   5.792   2.530 -1.2059  1.0715  0.1111
  913MOL0     H23236   5.730   5.845   2.398  0.5991  2.0049 -1.2808
  913MOL0     H23237   5.877   6.093   2.082  1.3138  0.2298  1.0621
  913MOL0     H23238   6.086   6.160   2.008  2.0540 -0.7157  2.3790
  913MOL0     H23239   7.633   6.728   1.769 -0.8757 -1.1739 -1.1488
  913MOL0     H23240   7.782   6.850   1.608  3.2566 -0.6611 -1.3086
  913MOL0     H23241   8.262   6.715   1.458 -0.6673  1.0174  0.5048
  913MOL0     H23242   8.439   6.704   1.308  2.3879  2.6909 -1.1753
  913MOL0     H23243   8.587   6.709   1.171  1.4037 -2.3846 -0.4495
  913MOL0     H23244   8.629   6.759   1.011 -1.0308  0.9340 -1.2129
  913MOL0     H23245   8.446   6.526   1.063  0.9363 -0.1091  1.8941
  913MOL0     H23246   8.622   6.519   1.030  1.2612  1.8019  1.3969
  913MOL0     H23247   8.578   6.633   0.812  1.9827  0.2114  4.0177
  913MOL0     H23248   8.405   6.642   0.838 -2.1028 -1.7316  0.1201
  913MOL0     H23249   8.455   6.456   0.696  0.1262  3.1714  0.5046
  913MOL0     H23250   8.591   6.399   0.802  0.4944  0.6369 -3.0652
  913MOL0     H23251   8.274   6.207   0.991  2.1796 -0.8307  1.4496
  913MOL0     H23252   8.206   6.885   0.998 -0.2397 -0.2146 -0.6031
  913MOL0     H23253   7.910   6.944   1.161  1.9872  1.1636  0.5689
  913MOL0     H23254   7.979   6.872   1.020 -0.1606 -0.9154  0.2219
  913MOL0     H23255   7.913   6.759   1.140 -1.0153  0.4696  1.9105
  914MOL0     O23256   3.265   8.861   2.627 -0.3044 -0.1334  0.3049
  914MOL0     C23257   3.160   8.814   2.591  0.3949 -0.4486 -0.0701
  914MOL0     O23258   3.034   8.871   2.604 -0.3512  0.2516  0.4054
  914MOL0     C23259   3.013   8.985   2.681  0.7141 -0.2352 -0.0943
  914MOL0     C23260   2.881   9.034   2.679 -0.3322 -0.5969 -0.0578
  914MOL0     C23261   2.822   9.139   2.757  0.6261  0.2253 -0.2427
  914MOL0     C23262   2.909   9.207   2.837 -0.4861 -0.2237 -0.6449
  914MOL0     O23263   2.872   9.315   2.911 -0.3223  1.0723 -0.0017
  914MOL0     C23264   2.765   9.274   2.999  0.2293  0.6819 -0.2485
  914MOL0     C23265   2.771   9.346   3.129 -0.6800 -0.2869 -0.1466
  914MOL0     C23266   2.916   9.338   3.193  0.6236  0.2752 -0.7069
  914MOL0     C23267   2.917   9.300   3.344  0.8140  0.0935  0.2546
  914MOL0     C23268   2.845   9.400   3.432 -0.3880  1.0732 -0.1789
  914MOL0     C23269   2.888   9.546   3.439  0.5734 -0.1271  0.3593
  914MOL0     C23270   2.777   9.637   3.491  0.3400  0.0742 -0.0570
  914MOL0     C23271   2.810   9.785   3.476 -0.2307 -0.7463  0.1627
  914MOL0     N23272   2.709   9.870   3.531 -0.5246 -0.5698  0.4643
  914MOL0     C23273   2.574   9.872   3.503  0.0264  0.5280  0.7642
  914MOL0     C23274   2.523   9.969   3.580  0.0374  0.7207 -0.6023
  914MOL0     C23275   2.386  10.017   3.579  0.2389  0.5335 -0.2331
  914MOL0     C23276   2.279   9.919   3.644  0.0428 -0.0303  0.5992
  914MOL0     C23277   2.138   9.966   3.605  0.0648 -0.2407  0.7070
  914MOL0     C23278   2.109  10.117   3.627 -0.4841  0.3554 -1.7303
  914MOL0     O23279   1.966  10.136   3.633 -0.1288  0.1509  0.3629
  914MOL0     C23280   1.895  10.172   3.520 -1.2796  0.1030 -1.2603
  914MOL0     C23281   1.756  10.188   3.536  0.1257  0.7090 -0.3077
  914MOL0     C23282   1.689  10.240   3.431  0.4683 -0.1048 -0.2884
  914MOL0     C23283   1.748  10.272   3.305  0.5128  0.3470 -0.2153
  914MOL0     C23284   1.665  10.329   3.199 -0.3351  0.2638  0.2251
  914MOL0     O23285   1.716  10.318   3.075  0.3312  0.0195 -0.0425
  914MOL0     C23286   1.626  10.369   2.982 -0.4286  0.3038 -0.5863
  914MOL0     C23287   1.642  10.495   2.920  0.0548  0.1762  0.1801
  914MOL0     C23288   1.568  10.533   2.804  0.5056 -0.1872  0.7216
  914MOL0     C23289   1.474  10.442   2.739 -0.2073  0.0462 -0.6428
  914MOL0     O23290   1.413  10.483   2.617 -0.0776 -0.1184 -0.3502
  914MOL0     C23291   1.326  10.391   2.544 -0.2700 -0.1085  0.1621
  914MOL0     C23292   1.317  10.447   2.397  0.5293 -0.6213 -0.9248
  914MOL0     C23293   1.266  10.589   2.398  0.9350  0.7792 -0.0347
  914MOL0     C23294   1.346  10.694   2.314  0.6279 -0.3306  0.3105
  914MOL0     C23295   1.305  10.673   2.165 -1.0297 -0.0669 -0.4869
  914MOL0     C23296   1.183  10.758   2.139 -0.0336 -0.0447  0.1522
  914MOL0     C23297   1.151  10.753   1.986  0.2339  0.8847  0.6331
  914MOL0     C23298   1.035  10.859   1.967  0.5336  0.1976 -0.0990
  914MOL0    Cl23299   0.887  10.810   2.055  0.4404 -0.2921 -0.1313
  914MOL0     C23300   1.448  10.324   2.808 -0.5497 -0.7153 -0.1514
  914MOL0     C23301   1.528  10.290   2.921  1.0637  0.5414  0.2916
  914MOL0     O23302   1.548  10.366   3.229  0.0158 -0.5360 -0.2457
  914MOL0     C23303   1.882  10.247   3.287 -0.3549  0.1100  0.0919
  914MOL0     C23304   1.959  10.200   3.395 -0.7123  0.6450 -0.7910
  914MOL0     N23305   2.630  10.025   3.654  0.2244  0.9444  0.2380
  914MOL0     N23306   2.737   9.967   3.624  0.2907 -0.9879 -0.2210
  914MOL0     C23307   3.053   9.186   2.829 -0.2278 -0.3471  0.0459
  914MOL0     C23308   3.100   9.078   2.750 -0.0096  0.2900 -0.2447
  914MOL0     C23309   3.166   8.678   2.543  0.7744 -0.5473  0.4307
  914MOL0     C23310   3.043   8.601   2.537  0.8778  0.7963 -1.0531
  914MOL0     C23311   3.061   8.461   2.536  0.7549 -1.0172  0.7637
  914MOL0     C23312   3.174   8.396   2.501  0.3372 -0.5629  0.5384
  914MOL0     O23313   3.160   8.264   2.506  0.5431  0.2412 -0.2323
  914MOL0     C23314   3.273   8.179   2.468 -0.0330  1.2318  0.0608
  914MOL0     C23315   3.231   8.032   2.431  0.4376  0.1243  0.3269
  914MOL0     C23316   3.145   8.027   2.307  1.0268  0.4482 -0.0282
  914MOL0     C23317   3.095   7.889   2.271  0.5706 -0.3535 -1.8000
  914MOL0     C23318   3.186   7.777   2.262 -1.2631 -0.4769 -0.3841
  914MOL0     C23319   3.261   7.688   2.231  0.2010 -0.0934 -0.2038
  914MOL0     C23320   3.282   8.476   2.466 -0.4238 -0.1884  0.0269
  914MOL0     C23321   3.285   8.608   2.497 -0.0087 -0.1704 -0.2698
  914MOL0     C23322   3.418   8.683   2.472 -0.7239  1.2629 -1.2610
  914MOL0     H23323   2.809   8.971   2.627 -2.1462  2.1525 -1.1560
  914MOL0     H23324   2.718   9.168   2.753  0.7064  0.3503 -3.2145
  914MOL0     H23325   2.665   9.294   2.959  0.6179 -0.1000 -1.6860
  914MOL0     H23326   2.779   9.173   3.040 -0.1611  1.0445  0.7997
  914MOL0     H23327   2.698   9.305   3.199 -2.3767  2.0950 -0.3919
  914MOL0     H23328   2.740   9.451   3.119 -0.1958 -0.2934 -2.3379
  914MOL0     H23329   2.963   9.435   3.171 -2.8396  2.4810  0.5953
  914MOL0     H23330   2.966   9.257   3.140 -0.6961 -2.4503  1.9615
  914MOL0     H23331   2.855   9.209   3.349  0.6793  0.0524 -1.6206
  914MOL0     H23332   3.022   9.282   3.370  0.4986  0.2556  1.7355
  914MOL0     H23333   2.737   9.383   3.427 -0.4128  1.5040 -1.8629
  914MOL0     H23334   2.872   9.363   3.531 -0.8370 -1.2159 -0.8591
  914MOL0     H23335   2.986   9.559   3.486  0.6530  2.7059 -0.3961
  914MOL0     H23336   2.910   9.575   3.336 -0.9758 -1.6531 -0.4611
  914MOL0     H23337   2.759   9.617   3.597  0.1234  0.9163  0.0735
  914MOL0     H23338   2.688   9.618   3.430  0.5041  2.1857 -1.0700
  914MOL0     H23339   2.902   9.812   3.529  0.7365 -0.7179 -1.4876
  914MOL0     H23340   2.824   9.810   3.371 -0.7658  0.7399  0.4149
  914MOL0     H23341   2.527   9.811   3.426  1.7502 -2.6226  2.0392
  914MOL0     H23342   2.380  10.104   3.645  3.0501 -1.3768  2.8599
  914MOL0     H23343   2.360  10.043   3.476  1.5402 -2.4901 -1.4603
  914MOL0     H23344   2.289   9.827   3.587  0.2173 -1.3742  2.6787
  914MOL0     H23345   2.307   9.916   3.750 -0.0391  2.3598  0.7599
  914MOL0     H23346   2.063   9.900   3.647 -0.0906 -0.4308  0.1304
  914MOL0     H23347   2.135   9.947   3.498  0.4807 -1.2963  0.8719
  914MOL0     H23348   2.160  10.197   3.573  2.0218  1.3416  1.7142
  914MOL0     H23349   2.139  10.137   3.731 -0.0965 -2.3145 -1.2560
  914MOL0     H23350   1.711  10.171   3.633 -4.0436  1.4371 -1.8956
  914MOL0     H23351   1.584  10.253   3.456 -0.1057 -4.7949  0.6252
  914MOL0     H23352   1.719  10.566   2.950  0.8612  0.1557 -1.6733
  914MOL0     H23353   1.577  10.632   2.759  0.9354 -0.3005  0.5603
  914MOL0     H23354   1.370  10.291   2.542 -0.1105 -0.0318 -0.2470
  914MOL0     H23355   1.227  10.391   2.589  1.5970  0.0481  4.8025
  914MOL0     H23356   1.410  10.442   2.339  2.6636  1.5282  1.9562
  914MOL0     H23357   1.246  10.387   2.340  1.6028 -2.6042 -0.2892
  914MOL0     H23358   1.163  10.584   2.360  1.3109 -1.2543 -0.9159
  914MOL0     H23359   1.266  10.629   2.499 -0.1605 -1.9103  1.1204
  914MOL0     H23360   1.451  10.666   2.323  0.4381 -1.6242 -0.9659
  914MOL0     H23361   1.332  10.801   2.334  1.5994  0.0916 -1.0771
  914MOL0     H23362   1.290  10.567   2.143  2.1278 -1.8484  4.1651
  914MOL0     H23363   1.390  10.697   2.102  0.0602 -0.9286  0.5847
  914MOL0     H23364   1.096  10.728   2.198 -0.6801 -1.7986 -1.5499
  914MOL0     H23365   1.212  10.860   2.165  2.3228 -0.8199  0.8467
  914MOL0     H23366   1.108  10.654   1.965 -1.8008  1.7542  0.3978
  914MOL0     H23367   1.238  10.777   1.924 -0.3986 -1.8092 -1.4740
  914MOL0     H23368   1.071  10.955   2.006  1.5237  0.0350 -0.5816
  914MOL0     H23369   1.008  10.868   1.861 -1.9488 -0.4222  0.4156
  914MOL0     H23370   1.366  10.262   2.775  0.0409 -1.7743  0.3041
  914MOL0     H23371   1.516  10.187   2.954  2.5844 -0.4189 -1.8272
  914MOL0     H23372   1.939  10.250   3.194  1.3320  1.1626  1.1101
  914MOL0     H23373   2.063  10.174   3.377 -0.3168 -0.0097  2.0275
  914MOL0     H23374   3.124   9.251   2.880 -0.6117  0.3675 -0.3101
  914MOL0     H23375   3.208   9.063   2.748 -0.0190 -0.3059  1.4103
  914MOL0     H23376   2.941   8.632   2.559  1.1168  1.4880 -0.8870
  914MOL0     H23377   2.975   8.396   2.551 -0.2123  0.2595  0.8881
  914MOL0     H23378   3.346   8.182   2.549 -0.8471 -0.0271  0.8890
  914MOL0     H23379   3.331   8.217   2.383  5.0018 -0.8313  2.2002
  914MOL0     H23380   3.178   7.985   2.514 -0.1786 -4.0965 -2.1611
  914MOL0     H23381   3.322   7.978   2.405  0.2988 -1.4273  2.7516
  914MOL0     H23382   3.217   8.051   2.228  4.4060 -0.7188  2.4664
  914MOL0     H23383   3.057   8.090   2.319 -0.5539 -1.8659  1.0948
  914MOL0     H23384   3.023   7.864   2.350  2.1024  1.3725  0.2773
  914MOL0     H23385   3.047   7.898   2.174  0.5944  2.1844 -1.6363
  914MOL0     H23386   3.332   7.614   2.200  0.9887  0.2027  0.8401
  914MOL0     H23387   3.371   8.425   2.431  0.6044  0.1570  2.0206
  914MOL0     H23388   3.497   8.622   2.428  0.4045  0.1489  1.9868
  914MOL0     H23389   3.388   8.760   2.400  0.7507  1.4491 -1.7077
  914MOL0     H23390   3.456   8.719   2.568 -1.5003  3.1602 -1.6094
  915MOL0     O23391  10.395   9.226   1.868 -0.5601 -0.1716  0.2801
  915MOL0     C23392  10.454   9.329   1.835 -0.7842  0.4174  0.6345
  915MOL0     O23393  10.557   9.395   1.905  0.6148 -0.6574  0.6871
  915MOL0     C23394  10.589   9.347   2.038  0.1488  0.0612  0.6194
  915MOL0     C23395  10.647   9.218   2.057 -0.2880  0.1107  0.4201
  915MOL0     C23396  10.668   9.173   2.188  1.0449  0.2165  0.4153
  915MOL0     C23397  10.645   9.247   2.304  0.7158  0.1819  0.1433
  915MOL0     O23398  10.688   9.207   2.429 -0.6106 -0.2929 -0.1528
  915MOL0     C23399  10.787   9.106   2.443  0.5780  0.2764 -1.3174
  915MOL0     C23400  10.811   9.087   2.597 -0.4504 -0.4124  0.5409
  915MOL0     C23401  10.690   9.072   2.689 -0.2769 -0.0774  0.1488
  915MOL0     C23402  10.738   9.075   2.843  0.2992 -0.0831 -0.1232
  915MOL0     C23403  10.608   9.058   2.944 -0.0053  0.7243  0.7083
  915MOL0     C23404  10.632   9.092   3.088 -0.3928  0.3359  0.0502
  915MOL0     C23405  10.751   9.009   3.140 -0.1018  0.1408 -0.5553
  915MOL0     C23406  10.771   9.018   3.296  0.5463 -0.0329  0.2271
  915MOL0     N23407  10.793   8.887   3.355 -0.5461 -0.3214 -1.0017
  915MOL0     C23408  10.906   8.805   3.332 -0.6683 -0.0790  0.4117
  915MOL0     C23409  10.867   8.681   3.365 -0.2321  0.2204 -0.1034
  915MOL0     C23410  10.956   8.554   3.357 -0.7983 -0.2891 -0.7222
  915MOL0     C23411  11.085   8.559   3.446 -0.3085 -0.5183 -1.0336
  915MOL0     C23412  11.074   8.470   3.578 -0.1924  0.0846  0.1769
  915MOL0     C23413  11.202   8.476   3.658 -0.2899  0.8188  0.4297
  915MOL0     O23414  11.314   8.414   3.582 -0.3669 -1.0777 -0.1107
  915MOL0     C23415  11.428   8.490   3.578  0.1861 -0.8852 -0.6550
  915MOL0     C23416  11.501   8.485   3.467 -0.1401 -0.4262  0.9711
  915MOL0     C23417  11.627   8.544   3.452 -0.7611 -0.7576 -0.0978
  915MOL0     C23418  11.678   8.623   3.557  0.3181  1.0083 -0.1032
  915MOL0     C23419  11.818   8.688   3.550 -0.4305  0.5051 -0.8789
  915MOL0     O23420  11.873   8.725   3.667  0.1777  0.3377  0.2593
  915MOL0     C23421  12.004   8.753   3.696 -0.1187 -0.0176  0.4271
  915MOL0     C23422  12.028   8.843   3.801 -0.7752  0.8451  0.4093
  915MOL0     C23423  12.156   8.897   3.817 -0.2201 -0.5455 -0.2795
  915MOL0     C23424  12.266   8.864   3.733 -0.4980 -0.2425 -0.2344
  915MOL0     O23425  12.382   8.916   3.760 -0.1188 -1.2033 -0.2963
  915MOL0     C23426  12.445   8.991   3.650 -0.2519  0.4855 -0.7392
  915MOL0     C23427  12.559   9.066   3.725  0.0595 -0.4397  0.1941
  915MOL0     C23428  12.613   9.170   3.628  0.2636  0.1944  0.5510
  915MOL0     C23429  12.713   9.261   3.697  0.2034  0.3117 -0.3466
  915MOL0     C23430  12.691   9.408   3.658  0.8578  1.0942 -0.0703
  915MOL0     C23431  12.779   9.505   3.734  0.4353  0.6699 -0.5397
  915MOL0     C23432  12.742   9.642   3.678 -0.8901 -0.5207 -0.6888
  915MOL0     C23433  12.842   9.737   3.730 -0.8691  0.5563 -0.5858
  915MOL0    Cl23434  13.006   9.703   3.675  0.1391 -0.6961  0.6009
  915MOL0     C23435  12.242   8.771   3.625  0.6086 -0.4046 -0.5915
  915MOL0     C23436  12.118   8.712   3.610  0.2244  0.4435 -0.5610
  915MOL0     O23437  11.876   8.698   3.440 -0.4331 -0.7896  0.1051
  915MOL0     C23438  11.600   8.632   3.678  0.6193 -0.2798 -0.3187
  915MOL0     C23439  11.477   8.563   3.690  0.5652 -0.3025  0.5064
  915MOL0     N23440  10.737   8.682   3.406  0.1618  0.0856 -0.1164
  915MOL0     N23441  10.693   8.800   3.398  0.3748 -0.4780  0.7291
  915MOL0     C23442  10.588   9.376   2.279 -0.7534 -0.6881  0.7341
  915MOL0     C23443  10.562   9.425   2.152  1.4545 -0.6543 -1.0557
  915MOL0     C23444  10.402   9.408   1.711 -0.2045 -0.4504 -1.0431
  915MOL0     C23445  10.446   9.544   1.706  0.0902 -0.1423 -0.0394
  915MOL0     C23446  10.420   9.619   1.589 -0.3244 -0.6609  0.0584
  915MOL0     C23447  10.356   9.570   1.481 -0.0713 -0.3748  0.5032
  915MOL0     O23448  10.344   9.653   1.376 -0.3395  0.0368  0.3176
  915MOL0     C23449  10.324   9.612   1.241 -0.0224  0.8216 -0.5785
  915MOL0     C23450  10.338   9.734   1.150  0.0862 -0.5092  0.0614
  915MOL0     C23451  10.276   9.694   1.012  0.2326 -0.1377  0.9378
  915MOL0     C23452  10.131   9.738   1.003  0.0670  0.4188  0.4670
  915MOL0     C23453  10.087   9.729   0.868 -0.3568 -0.0044 -0.1275
  915MOL0     C23454  10.058   9.728   0.749  0.2727  0.4294  0.4670
  915MOL0     C23455  10.306   9.434   1.487  0.2709  1.5556  0.4102
  915MOL0     C23456  10.322   9.353   1.604  0.7602  0.2039  1.2634
  915MOL0     C23457  10.273   9.212   1.604 -0.2484  0.6284 -0.7959
  915MOL0     H23458  10.671   9.160   1.969 -0.3887 -1.0390  1.1334
  915MOL0     H23459  10.700   9.071   2.211 -2.7711 -0.4301  4.0990
  915MOL0     H23460  10.763   9.003   2.413  2.3499  0.0973 -2.2034
  915MOL0     H23461  10.879   9.142   2.398  0.1282  0.3792 -2.1778
  915MOL0     H23462  10.867   9.177   2.624  1.5500 -0.8039 -1.9595
  915MOL0     H23463  10.880   9.005   2.620  1.2098  0.8993  0.3603
  915MOL0     H23464  10.624   8.987   2.670 -0.3391  0.0149 -0.0548
  915MOL0     H23465  10.629   9.163   2.683  1.0281  0.8054 -0.2709
  915MOL0     H23466  10.806   8.991   2.859  1.1217  0.3911 -1.0352
  915MOL0     H23467  10.792   9.164   2.875 -1.8255  1.3737 -0.4072
  915MOL0     H23468  10.528   9.122   2.904 -0.0024  0.9495  1.0574
  915MOL0     H23469  10.576   8.954   2.936  0.3301  0.7060 -0.6642
  915MOL0     H23470  10.646   9.200   3.090 -1.2713  0.4699 -0.4489
  915MOL0     H23471  10.536   9.070   3.136  0.5962 -0.9989  1.5039
  915MOL0     H23472  10.840   9.060   3.102 -0.1494  0.6029 -0.0617
  915MOL0     H23473  10.747   8.911   3.093  0.7955 -0.8728  1.3494
  915MOL0     H23474  10.853   9.080   3.333  1.4438 -0.9956 -0.0989
  915MOL0     H23475  10.681   9.064   3.340  0.5737  0.7916 -0.5572
  915MOL0     H23476  11.004   8.839   3.300 -1.7034  2.1913 -0.5747
  915MOL0     H23477  10.896   8.476   3.405  0.7570  1.4291  4.7244
  915MOL0     H23478  10.980   8.526   3.254 -0.8202  3.3366 -1.8389
  915MOL0     H23479  11.172   8.533   3.384  1.1240  3.4784 -0.9649
  915MOL0     H23480  11.106   8.661   3.478  0.7847 -1.6467  2.3307
  915MOL0     H23481  11.062   8.366   3.546 -1.4339  0.5003 -0.7815
  915MOL0     H23482  10.988   8.511   3.631 -0.9330 -0.8580 -0.2625
  915MOL0     H23483  11.195   8.422   3.753  4.2334  1.0329  1.0827
  915MOL0     H23484  11.214   8.583   3.679 -0.0360  0.5970  1.4916
  915MOL0     H23485  11.472   8.417   3.388  0.6185  1.1279 -0.7029
  915MOL0     H23486  11.691   8.534   3.364  0.4459 -2.4592  0.9038
  915MOL0     H23487  11.947   8.884   3.860 -0.1049 -0.5991  2.4531
  915MOL0     H23488  12.180   8.974   3.889  1.4542  0.9752 -2.3266
  915MOL0     H23489  12.477   8.923   3.570 -2.4133 -2.9904  1.1112
  915MOL0     H23490  12.367   9.061   3.619  0.7835  2.5875  1.1105
  915MOL0     H23491  12.514   9.117   3.810  1.0072 -0.8967  0.9919
  915MOL0     H23492  12.639   9.001   3.761  2.5266  0.1040 -3.6787
  915MOL0     H23493  12.661   9.126   3.540  2.5858  1.7895  0.9212
  915MOL0     H23494  12.533   9.239   3.601  1.7258  1.5064 -0.6249
  915MOL0     H23495  12.815   9.231   3.671  0.5210 -0.7372  1.8788
  915MOL0     H23496  12.712   9.257   3.807 -0.9037  2.5503 -0.2121
  915MOL0     H23497  12.590   9.441   3.685  0.7987 -1.4804  3.6535
  915MOL0     H23498  12.700   9.414   3.550 -1.2471 -1.2039 -0.4776
  915MOL0     H23499  12.745   9.495   3.838  0.1012 -0.7288 -0.7658
  915MOL0     H23500  12.884   9.477   3.725  0.3066  0.2720 -0.8221
  915MOL0     H23501  12.642   9.671   3.714  0.1724  0.4914  1.6788
  915MOL0     H23502  12.747   9.627   3.570  0.3358 -1.8751 -0.4824
  915MOL0     H23503  12.808   9.833   3.690  0.2912  2.0934  1.8714
  915MOL0     H23504  12.844   9.737   3.840  1.1656 -1.9958 -0.5169
  915MOL0     H23505  12.327   8.747   3.562 -1.0819 -1.8711 -2.4464
  915MOL0     H23506  12.101   8.631   3.540  1.0691 -0.8425  0.6491
  915MOL0     H23507  11.625   8.682   3.771 -1.2691  1.3314 -0.6179
  915MOL0     H23508  11.410   8.547   3.774 -3.3066  3.0557 -1.5942
  915MOL0     H23509  10.586   9.442   2.365  0.9542  2.1452 -1.2320
  915MOL0     H23510  10.509   9.519   2.142 -0.0725 -0.8761  3.2562
  915MOL0     H23511  10.480   9.590   1.798 -2.7495  2.7430 -0.2341
  915MOL0     H23512  10.463   9.715   1.560  1.2127 -1.4956 -0.5455
  915MOL0     H23513  10.220   9.576   1.233 -0.0599  1.1973 -2.1526
  915MOL0     H23514  10.394   9.536   1.205  0.6521  0.9199  0.4793
  915MOL0     H23515  10.444   9.762   1.148 -0.5563  2.1895 -0.1500
  915MOL0     H23516  10.287   9.824   1.185 -0.6624 -1.1283  0.5875
  915MOL0     H23517  10.280   9.587   0.989 -0.4049  0.2083 -1.0495
  915MOL0     H23518  10.345   9.731   0.936 -0.8651  0.2319  0.0844
  915MOL0     H23519  10.068   9.680   1.071  3.2916 -2.1647  1.4787
  915MOL0     H23520  10.138   9.845   1.027  4.2524  0.8237 -1.6592
  915MOL0     H23521  10.038   9.738   0.644 -1.1048  0.6296  0.7241
  915MOL0     H23522  10.253   9.382   1.407  0.1453 -0.5237  1.7614
  915MOL0     H23523  10.260   9.174   1.503 -2.4211 -0.0132 -0.3365
  915MOL0     H23524  10.345   9.145   1.652  0.5169  1.8615 -0.1434
  915MOL0     H23525  10.183   9.203   1.666  1.4445 -1.9171  1.5448
  916MOL0     O23526   3.176   3.090   8.508 -0.1460 -0.2051 -0.3431
  916MOL0     C23527   3.107   2.994   8.542  0.7928 -0.2592  0.7379
  916MOL0     O23528   3.120   2.927   8.657 -0.4186  0.4895  0.5611
  916MOL0     C23529   3.145   3.003   8.769 -0.6407  0.7839  0.4341
  916MOL0     C23530   3.153   3.146   8.779  0.3149  0.3890  0.3503
  916MOL0     C23531   3.166   3.206   8.901 -0.4524 -0.2374  0.4083
  916MOL0     C23532   3.167   3.134   9.017  0.8148  0.2139 -1.2457
  916MOL0     O23533   3.188   3.209   9.137 -0.3870 -0.2802 -0.2227
  916MOL0     C23534   3.123   3.158   9.253  0.0440  1.6879 -0.5413
  916MOL0     C23535   3.061   3.279   9.331  0.0084 -1.2145  0.0454
  916MOL0     C23536   2.984   3.227   9.456  0.0237 -0.2642  0.3610
  916MOL0     C23537   2.937   3.341   9.550 -0.1680 -0.7081  0.6524
  916MOL0     C23538   2.838   3.287   9.651 -0.8092  0.3646  0.0672
  916MOL0     C23539   2.809   3.373   9.772 -0.6141  0.2919 -0.2975
  916MOL0     C23540   2.709   3.302   9.870 -0.3587 -0.5264  0.3522
  916MOL0     C23541   2.678   3.404   9.989 -0.4539  0.1258 -0.4413
  916MOL0     N23542   2.607   3.536   9.948 -0.3493 -0.0423 -0.0208
  916MOL0     C23543   2.473   3.560   9.950 -0.2607  1.1350 -0.2328
  916MOL0     C23544   2.458   3.693   9.929 -0.9329  0.4978  0.1068
  916MOL0     C23545   2.325   3.766   9.923  0.4932  1.1129  0.1236
  916MOL0     C23546   2.241   3.748   9.798  0.0048 -0.2718 -1.1968
  916MOL0     C23547   2.111   3.822   9.807 -0.3951 -0.2584  0.0059
  916MOL0     C23548   2.056   3.838   9.666 -1.2695  0.3501  0.1273
  916MOL0     O23549   2.126   3.949   9.589  0.1336  1.1170 -0.2523
  916MOL0     C23550   2.067   4.074   9.582  0.5860 -0.6571  0.0869
  916MOL0     C23551   1.961   4.117   9.661  0.3072  0.4369 -1.2329
  916MOL0     C23552   1.900   4.243   9.637 -0.4709 -0.4415 -0.2992
  916MOL0     C23553   1.938   4.321   9.531  0.5698 -0.1356 -0.9452
  916MOL0     C23554   1.865   4.447   9.510 -0.5585 -0.0310 -0.0221
  916MOL0     O23555   1.760   4.471   9.583 -0.0211 -0.6539 -0.2908
  916MOL0     C23556   1.689   4.592   9.576  0.2099  0.5784 -0.0622
  916MOL0     C23557   1.554   4.582   9.599  0.2928  0.1772  0.1567
  916MOL0     C23558   1.470   4.700   9.605  0.1062  0.0416  0.4261
  916MOL0     C23559   1.533   4.830   9.600 -0.0693  0.6577 -0.3127
  916MOL0     O23560   1.449   4.937   9.606 -0.6602  0.2183 -0.0115
  916MOL0     C23561   1.458   5.016   9.731 -0.1248  0.3164  0.2017
  916MOL0     C23562   1.398   5.149   9.720 -0.4943  0.1917 -0.1128
  916MOL0     C23563   1.258   5.163   9.662  1.1378  0.0213 -0.6377
  916MOL0     C23564   1.150   5.129   9.771 -0.0609  0.0375  0.0196
  916MOL0     C23565   1.019   5.186   9.730 -0.2664  0.2417  0.8454
  916MOL0     C23566   0.927   5.193   9.853 -0.6330 -0.8045 -0.9802
  916MOL0     C23567   0.777   5.237   9.832  0.0541 -1.4772 -0.2558
  916MOL0     C23568   0.711   5.272   9.964 -0.7776 -0.3002  0.9271
  916MOL0    Cl23569   0.545   5.280   9.933  0.4239 -0.0275  0.2619
  916MOL0     C23570   1.676   4.831   9.576 -0.3616  0.7253 -0.0742
  916MOL0     C23571   1.754   4.717   9.565 -0.3052 -0.1252  0.4173
  916MOL0     O23572   1.907   4.522   9.421 -0.9494  0.4808  0.1116
  916MOL0     C23573   2.031   4.273   9.445 -0.4694 -0.1709  0.0507
  916MOL0     C23574   2.111   4.158   9.480  1.6422  1.1296  0.5458
  916MOL0     N23575   2.580   3.757   9.926  0.0010  0.4847 -0.2593
  916MOL0     N23576   2.666   3.660   9.927  0.7079  0.1608  0.3380
  916MOL0     C23577   3.164   2.990   9.013 -0.1748  0.3029  0.4735
  916MOL0     C23578   3.147   2.924   8.888 -0.0068  0.2315 -0.1739
  916MOL0     C23579   2.996   2.953   8.449 -0.3209  0.5449 -0.8130
  916MOL0     C23580   3.022   2.961   8.313 -0.6488  0.6853  0.5085
  916MOL0     C23581   2.927   2.924   8.221 -0.9091  0.0591  0.5005
  916MOL0     C23582   2.797   2.894   8.260  0.8341 -0.1387  0.9155
  916MOL0     O23583   2.702   2.875   8.164  0.1042  0.6607 -1.0892
  916MOL0     C23584   2.620   2.748   8.169 -0.6902 -0.5940  0.5659
  916MOL0     C23585   2.576   2.711   8.032  0.1705 -0.0310  0.1283
  916MOL0     C23586   2.528   2.565   8.020 -0.5077  0.1923 -0.2545
  916MOL0     C23587   2.511   2.523   7.871 -0.4985  0.7010 -0.2256
  916MOL0     C23588   2.396   2.434   7.864 -0.2017  0.5315 -0.3519
  916MOL0     C23589   2.307   2.353   7.881  0.4899 -0.8159 -0.0529
  916MOL0     C23590   2.771   2.884   8.394  0.4753  0.0814  0.7460
  916MOL0     C23591   2.867   2.914   8.491 -0.9252  0.0445  0.5221
  916MOL0     C23592   2.826   2.921   8.629  0.3376  0.4162 -0.8356
  916MOL0     H23593   3.145   3.204   8.688 -1.5102  0.3917  0.4680
  916MOL0     H23594   3.155   3.313   8.913  0.5734  0.6286 -4.3822
  916MOL0     H23595   3.049   3.082   9.222  1.4869 -0.3765  0.8159
  916MOL0     H23596   3.186   3.107   9.326 -0.2852  2.9739  0.6794
  916MOL0     H23597   2.992   3.339   9.271  0.8538 -0.7766 -0.5181
  916MOL0     H23598   3.148   3.339   9.359 -1.6034  1.3591 -0.1323
  916MOL0     H23599   3.037   3.148   9.509  0.1150 -1.8413 -1.9071
  916MOL0     H23600   2.898   3.170   9.419 -0.2736  0.7620 -0.5796
  916MOL0     H23601   3.024   3.393   9.591 -0.1852  1.2719 -1.6367
  916MOL0     H23602   2.890   3.424   9.496  1.3659 -0.4614 -0.3395
  916MOL0     H23603   2.744   3.272   9.598 -1.0342  3.0622 -0.4287
  916MOL0     H23604   2.881   3.195   9.693 -0.8693 -0.5488 -1.7653
  916MOL0     H23605   2.905   3.390   9.822 -0.2104  1.8186 -1.5086
  916MOL0     H23606   2.763   3.468   9.744  0.3281  0.4726 -1.3323
  916MOL0     H23607   2.756   3.207   9.895  0.4803 -0.1325  0.3489
  916MOL0     H23608   2.620   3.280   9.811  1.2358 -3.4372 -1.2061
  916MOL0     H23609   2.614   3.345  10.054  1.3906 -0.8846  0.5447
  916MOL0     H23610   2.770   3.427  10.044 -1.1853 -1.1104  1.3907
  916MOL0     H23611   2.396   3.489   9.976 -1.5176  2.2534 -0.8017
  916MOL0     H23612   2.283   3.716  10.010  0.3126  1.4238  0.2182
  916MOL0     H23613   2.323   3.867   9.966 -1.7294  1.5360 -0.8584
  916MOL0     H23614   2.306   3.788   9.720  0.5258  2.5047  0.5432
  916MOL0     H23615   2.226   3.640   9.782 -1.2322 -0.1076 -1.2541
  916MOL0     H23616   2.122   3.919   9.856 -0.2323 -0.4907  0.4293
  916MOL0     H23617   2.045   3.763   9.871  1.5381 -2.2387  0.2712
  916MOL0     H23618   1.948   3.851   9.665 -1.2590  0.3832 -0.8040
  916MOL0     H23619   2.082   3.746   9.614 -1.5068 -0.8244  1.9735
  916MOL0     H23620   1.924   4.055   9.742  0.5488  2.5144  0.5413
  916MOL0     H23621   1.828   4.275   9.712  2.5275 -1.7990  3.5021
  916MOL0     H23622   1.500   4.488   9.606  0.7730 -0.0867  0.3686
  916MOL0     H23623   1.363   4.695   9.621 -0.3015  0.8638 -1.7065
  916MOL0     H23624   1.401   4.960   9.806  0.5664  1.1551  1.3816
  916MOL0     H23625   1.559   5.029   9.770  0.3430  2.0309 -1.4289
  916MOL0     H23626   1.409   5.207   9.812 -3.2237  0.9117 -0.1806
  916MOL0     H23627   1.467   5.201   9.653 -0.4981 -0.1936 -0.4206
  916MOL0     H23628   1.262   5.270   9.641 -2.0558  1.1285  3.1780
  916MOL0     H23629   1.248   5.103   9.570  2.2317 -3.8246  1.5360
  916MOL0     H23630   1.172   5.173   9.869  0.5155  1.2007 -0.6085
  916MOL0     H23631   1.154   5.020   9.781  1.7837  0.0238 -0.5645
  916MOL0     H23632   0.972   5.133   9.647  3.6875 -0.7503 -1.0176
  916MOL0     H23633   1.020   5.291   9.698 -2.4148 -0.0259 -0.2997
  916MOL0     H23634   0.927   5.097   9.906 -4.2747 -0.5058 -0.2033
  916MOL0     H23635   0.987   5.241   9.931  2.3538 -1.5298 -2.6604
  916MOL0     H23636   0.731   5.150   9.785  0.1407 -0.9985 -1.2476
  916MOL0     H23637   0.774   5.332   9.777 -0.1362  0.7294  3.2456
  916MOL0     H23638   0.733   5.200  10.043 -1.4124 -0.7339  0.7219
  916MOL0     H23639   0.747   5.372   9.990  0.4812 -0.6047  0.4198
  916MOL0     H23640   1.723   4.929   9.576 -1.1424  1.1088  0.3885
  916MOL0     H23641   1.859   4.718   9.538 -0.3581 -0.6995  0.1820
  916MOL0     H23642   2.057   4.336   9.361 -2.5440 -0.4569 -0.8383
  916MOL0     H23643   2.185   4.117   9.413  1.6681  2.6777 -0.4192
  916MOL0     H23644   3.157   2.946   9.112 -4.4502  0.6532  0.4971
  916MOL0     H23645   3.132   2.818   8.875 -0.3073  0.3509 -0.8627
  916MOL0     H23646   3.118   2.991   8.272 -0.9793 -1.8710 -2.4983
  916MOL0     H23647   2.959   2.928   8.117 -0.7248  1.5539  0.5981
  916MOL0     H23648   2.542   2.771   8.242  1.3153 -1.7988  3.2917
  916MOL0     H23649   2.682   2.667   8.209 -0.5614 -1.3890 -1.1407
  916MOL0     H23650   2.662   2.722   7.966  0.1849  1.4269  0.3532
  916MOL0     H23651   2.506   2.782   7.987  0.7442 -0.2362 -1.1111
  916MOL0     H23652   2.433   2.559   8.073 -0.0145 -0.3062  0.6076
  916MOL0     H23653   2.589   2.493   8.076  0.2540  0.7471 -0.3619
  916MOL0     H23654   2.494   2.611   7.808  0.1559  1.7885  1.0866
  916MOL0     H23655   2.596   2.465   7.835 -0.6454 -0.2297  0.8783
  916MOL0     H23656   2.230   2.279   7.892  0.5405 -0.8891 -0.1922
  916MOL0     H23657   2.669   2.852   8.416  0.5962 -0.9470 -0.1630
  916MOL0     H23658   2.718   2.937   8.641  0.6110  2.8722 -1.1629
  916MOL0     H23659   2.853   2.824   8.673  1.9329  0.7425 -1.0671
  916MOL0     H23660   2.872   3.004   8.682 -0.5407  1.4323 -1.6355
  917MOL0     O23661  10.760   6.331  10.891  0.7033  0.4252  0.1892
  917MOL0     C23662  10.761   6.216  10.940 -1.1220 -0.4127  0.4570
  917MOL0     O23663  10.727   6.190  11.065  0.7130 -0.5396 -0.3043
  917MOL0     C23664  10.706   6.290  11.161 -0.0476  0.4864  0.3219
  917MOL0     C23665  10.731   6.261  11.296 -0.6072  0.2362  0.0491
  917MOL0     C23666  10.725   6.353  11.401 -0.5174  0.5031 -0.0215
  917MOL0     C23667  10.667   6.481  11.378 -0.0588 -0.4778 -0.0305
  917MOL0     O23668  10.653   6.566  11.491 -0.0735  0.1866 -0.0355
  917MOL0     C23669  10.618   6.703  11.459 -0.4262 -1.0332 -0.2570
  917MOL0     C23670  10.582   6.782  11.588  0.3494  0.3680 -0.5876
  917MOL0     C23671  10.492   6.917  11.579  1.0083 -0.3300  0.8124
  917MOL0     C23672  10.485   6.962  11.726 -0.3023  0.0496  0.4306
  917MOL0     C23673  10.411   7.093  11.750 -0.0017  0.3174 -0.6080
  917MOL0     C23674  10.270   7.106  11.686 -0.2379 -0.0569  0.9715
  917MOL0     C23675  10.208   7.234  11.720  0.1978  0.0120 -0.9403
  917MOL0     C23676  10.073   7.265  11.656 -0.4283 -0.4139  0.8164
  917MOL0     N23677   9.951   7.221  11.752 -0.8731 -0.0772  0.3426
  917MOL0     C23678   9.884   7.290  11.854 -0.7725 -0.2492 -0.2641
  917MOL0     C23679   9.815   7.194  11.920  0.4821 -0.2796  0.2159
  917MOL0     C23680   9.731   7.223  12.036 -1.1478  1.0957  0.3401
  917MOL0     C23681   9.585   7.241  11.989  0.4513  0.3619  0.2982
  917MOL0     C23682   9.501   7.297  12.106 -0.0439  0.3567 -0.8124
  917MOL0     C23683   9.364   7.323  12.061 -0.7121  0.0052  0.0420
  917MOL0     O23684   9.312   7.207  12.008  0.5232 -0.6855 -0.7505
  917MOL0     C23685   9.194   7.209  11.945  0.0109  0.7688 -0.1417
  917MOL0     C23686   9.102   7.315  11.928  0.5475  0.0906  0.1503
  917MOL0     C23687   8.970   7.294  11.867  0.8907 -0.1278 -0.7684
  917MOL0     C23688   8.935   7.168  11.815 -0.4373  0.6303  0.3332
  917MOL0     C23689   8.806   7.134  11.740  0.1294 -0.2489 -0.2070
  917MOL0     O23690   8.774   7.003  11.708 -0.3987 -0.0483  0.6652
  917MOL0     C23691   8.671   6.990  11.621  0.9641  0.3843  0.2096
  917MOL0     C23692   8.674   7.022  11.490  0.0956 -1.1868  0.1270
  917MOL0     C23693   8.576   7.009  11.392  0.2808  0.5500 -1.0338
  917MOL0     C23694   8.446   6.969  11.438 -0.2928 -0.3872 -1.0588
  917MOL0     O23695   8.335   6.955  11.359 -1.1571 -0.7478 -0.0731
  917MOL0     C23696   8.357   6.856  11.253 -0.4107 -0.3916  0.1562
  917MOL0     C23697   8.247   6.842  11.147 -0.8570  0.0290 -0.6895
  917MOL0     C23698   8.113   6.822  11.218  0.7325 -0.3730  0.0119
  917MOL0     C23699   8.104   6.733  11.342 -0.0381 -0.4945 -0.3362
  917MOL0     C23700   7.963   6.742  11.417 -0.1980  0.2523  0.2705
  917MOL0     C23701   7.932   6.625  11.511  0.4425  0.7154  0.0038
  917MOL0     C23702   7.819   6.665  11.614  0.8069 -1.2274  0.0509
  917MOL0     C23703   7.775   6.541  11.701 -0.8155  0.6701 -0.9784
  917MOL0    Cl23704   7.906   6.524  11.833 -0.3087 -0.0793 -0.1768
  917MOL0     C23705   8.437   6.942  11.580  0.1670 -0.2761 -0.1796
  917MOL0     C23706   8.544   6.952  11.677 -0.9599  0.2993  0.5475
  917MOL0     O23707   8.726   7.224  11.721  0.6356 -0.1756  0.8892
  917MOL0     C23708   9.035   7.069  11.816  0.7412  0.9302 -0.8293
  917MOL0     C23709   9.159   7.083  11.891 -0.0498  0.1635 -0.3395
  917MOL0     N23710   9.830   7.072  11.856  0.1737 -0.6935 -0.1364
  917MOL0     N23711   9.913   7.093  11.761  0.1005 -0.3321  0.0538
  917MOL0     C23712  10.629   6.510  11.243  0.1832 -0.3480  0.2953
  917MOL0     C23713  10.662   6.425  11.136  0.9823  1.4000  0.0856
  917MOL0     C23714  10.788   6.101  10.850 -0.6331  0.1226  0.5500
  917MOL0     C23715  10.756   5.975  10.899  0.3716  0.0718  0.3432
  917MOL0     C23716  10.760   5.861  10.807  0.6307  0.0593 -1.2278
  917MOL0     C23717  10.812   5.865  10.688  1.0186  0.1395  1.3731
  917MOL0     O23718  10.807   5.751  10.613  0.6773 -0.4979  0.1670
  917MOL0     C23719  10.864   5.741  10.477 -0.0240 -1.0843  0.0210
  917MOL0     C23720  10.871   5.593  10.432 -0.2774 -0.6519  0.9215
  917MOL0     C23721  10.888   5.578  10.270  0.2410  0.3050 -0.5426
  917MOL0     C23722  11.021   5.628  10.217  0.4530  0.5506  0.4548
  917MOL0     C23723  11.003   5.648  10.078  0.4041  0.1296 -0.1377
  917MOL0     C23724  10.976   5.668   9.964  0.6889  0.9159  0.5155
  917MOL0     C23725  10.858   5.990  10.646 -0.5902  0.6058 -0.3706
  917MOL0     C23726  10.837   6.109  10.721  0.2509 -0.0850 -0.9361
  917MOL0     C23727  10.892   6.231  10.657  0.1265 -0.5802 -0.3195
  917MOL0     H23728  10.757   6.157  11.310  0.3209 -0.1312 -3.5281
  917MOL0     H23729  10.754   6.322  11.501  1.1358 -1.8489 -1.1428
  917MOL0     H23730  10.698   6.756  11.405 -1.1737  1.7036  1.0909
  917MOL0     H23731  10.530   6.706  11.395 -2.1398  1.1321  1.9679
  917MOL0     H23732  10.672   6.822  11.637  0.1676 -2.4222  2.4071
  917MOL0     H23733  10.535   6.710  11.656  1.2650 -1.5997 -1.9141
  917MOL0     H23734  10.393   6.887  11.543  0.2038  0.3735  2.3652
  917MOL0     H23735  10.544   6.996  11.524  2.2768 -0.3535  1.9181
  917MOL0     H23736  10.415   6.898  11.781  1.8169  0.3589  3.7737
  917MOL0     H23737  10.580   6.970  11.779 -2.0926  1.8000  3.6883
  917MOL0     H23738  10.417   7.119  11.856 -0.2722  0.5374 -0.6436
  917MOL0     H23739  10.474   7.168  11.702 -0.8325  0.3786 -1.6318
  917MOL0     H23740  10.283   7.086  11.579  3.6085  0.6888  1.1714
  917MOL0     H23741  10.203   7.028  11.724  0.5512  0.5095  3.7441
  917MOL0     H23742  10.282   7.308  11.689 -1.1695  0.7812 -2.4770
  917MOL0     H23743  10.201   7.242  11.829 -1.6047  2.7277 -1.1604
  917MOL0     H23744  10.060   7.373  11.653 -0.6701 -0.2884  3.8185
  917MOL0     H23745  10.073   7.207  11.562  2.0733 -4.9997  3.2671
  917MOL0     H23746   9.898   7.395  11.874  0.1587  0.2328 -3.0231
  917MOL0     H23747   9.761   7.144  12.105  0.8351  0.9751 -0.5721
  917MOL0     H23748   9.763   7.316  12.085 -3.1211  2.3121 -0.5451
  917MOL0     H23749   9.594   7.306  11.902  1.0166 -0.6881 -0.4512
  917MOL0     H23750   9.548   7.144  11.953 -2.9175  1.0636  1.4956
  917MOL0     H23751   9.543   7.389  12.148 -1.5184  0.9590 -0.5759
  917MOL0     H23752   9.500   7.231  12.193  3.7349  1.0811 -0.0647
  917MOL0     H23753   9.364   7.391  11.975 -1.3039  0.6891  0.5661
  917MOL0     H23754   9.308   7.370  12.143  0.8499  0.9634  0.6031
  917MOL0     H23755   9.125   7.407  11.980 -0.5060  1.2387 -1.3547
  917MOL0     H23756   8.900   7.376  11.857  0.5143 -0.2859  0.4390
  917MOL0     H23757   8.770   7.063  11.460  0.2462 -2.5014 -1.3292
  917MOL0     H23758   8.602   7.022  11.287  1.5680  1.6595 -0.6086
  917MOL0     H23759   8.452   6.866  11.199 -1.0105 -0.6286 -0.9819
  917MOL0     H23760   8.363   6.760  11.305  1.0086  0.4380  1.6298
  917MOL0     H23761   8.237   6.920  11.071 -1.1887  0.0058 -0.6694
  917MOL0     H23762   8.263   6.748  11.092  1.5786 -0.2937  0.4171
  917MOL0     H23763   8.070   6.920  11.241 -1.5795 -1.2715 -0.2574
  917MOL0     H23764   8.039   6.778  11.151  1.0979 -0.0753 -0.5979
  917MOL0     H23765   8.179   6.758  11.418 -3.1797  0.9682  2.5784
  917MOL0     H23766   8.126   6.630  11.311  0.1435 -1.1581  1.8221
  917MOL0     H23767   7.883   6.738  11.342 -0.5223  2.1796  0.4816
  917MOL0     H23768   7.950   6.836  11.471 -1.4142  0.5784 -0.5404
  917MOL0     H23769   7.900   6.537  11.454  1.7280 -0.5965  1.2171
  917MOL0     H23770   8.018   6.592  11.570  1.4665  0.1001 -1.7439
  917MOL0     H23771   7.728   6.702  11.567 -0.3149  0.3194  3.1608
  917MOL0     H23772   7.849   6.736  11.691  1.9040 -4.2835  2.6401
  917MOL0     H23773   7.680   6.567  11.749 -0.3406 -2.9256  2.4461
  917MOL0     H23774   7.757   6.450  11.644 -2.0977  0.7875 -0.8073
  917MOL0     H23775   8.341   6.908  11.617 -0.0152  0.3638 -0.0381
  917MOL0     H23776   8.526   6.929  11.781 -2.8200 -1.4025 -0.0875
  917MOL0     H23777   9.016   6.967  11.783  2.3560  0.0947  0.5782
  917MOL0     H23778   9.230   7.002  11.900 -2.9217 -2.3391  2.6560
  917MOL0     H23779  10.593   6.607  11.212  0.6805  0.5760  2.4442
  917MOL0     H23780  10.641   6.473  11.041  0.1267  1.6083  0.3733
  917MOL0     H23781  10.708   5.959  10.995 -2.3965 -4.1926 -1.4366
  917MOL0     H23782  10.738   5.769  10.860  1.8155  1.8937  2.8434
  917MOL0     H23783  10.966   5.777  10.489  0.0226 -1.8862  2.5071
  917MOL0     H23784  10.819   5.807  10.402 -0.7966 -0.7188  0.7843
  917MOL0     H23785  10.776   5.547  10.459 -1.1518 -0.8145 -2.0223
  917MOL0     H23786  10.960   5.555  10.484 -0.2538 -3.0687 -0.7260
  917MOL0     H23787  10.806   5.638  10.230 -2.7565 -0.7734  3.3299
  917MOL0     H23788  10.870   5.473  10.247 -3.6900 -0.1405  3.2362
  917MOL0     H23789  11.058   5.721  10.260  2.6077  1.3106 -2.6931
  917MOL0     H23790  11.094   5.551  10.245 -0.1033  0.1919  0.9343
  917MOL0     H23791  10.953   5.678   9.860 -1.9968  3.9261  1.2662
  917MOL0     H23792  10.895   6.010  10.545  1.2228  2.7192  0.6202
  917MOL0     H23793  10.815   6.286  10.603  0.0666 -0.8641 -0.5243
  917MOL0     H23794  10.952   6.289  10.728  1.0846 -1.3256 -0.5056
  917MOL0     H23795  10.960   6.200  10.577  4.6110  0.0901  2.8573
  918MOL0     O23796   6.617   4.963   4.645  0.7940 -0.5082  0.6596
  918MOL0     C23797   6.685   4.863   4.635 -0.1543  0.4088  1.1624
  918MOL0     O23798   6.658   4.759   4.549  0.4831 -0.4379  0.1849
  918MOL0     C23799   6.533   4.731   4.490  0.0818  0.0567  0.2426
  918MOL0     C23800   6.538   4.608   4.423  0.2958  0.6519  0.4422
  918MOL0     C23801   6.420   4.563   4.356  0.2004  0.2263  1.2223
  918MOL0     C23802   6.313   4.644   4.347 -0.3068  0.3315 -0.3599
  918MOL0     O23803   6.193   4.618   4.275  0.3328 -1.1624 -0.3862
  918MOL0     C23804   6.162   4.487   4.237  0.5871 -0.4010  0.2952
  918MOL0     C23805   6.076   4.487   4.099 -1.2158  0.0929 -0.6742
  918MOL0     C23806   6.062   4.342   4.040  0.5748  0.3656  0.8207
  918MOL0     C23807   5.986   4.364   3.908 -0.3558 -0.8595 -0.0132
  918MOL0     C23808   5.955   4.221   3.849  0.1035  0.6722  0.3387
  918MOL0     C23809   5.853   4.244   3.737  0.5027  0.5611 -0.2842
  918MOL0     C23810   5.873   4.342   3.626  0.9501  0.7920  0.2829
  918MOL0     C23811   5.753   4.363   3.527  0.3165 -0.4522 -0.4736
  918MOL0     N23812   5.714   4.259   3.437 -0.0523 -0.0161 -0.4402
  918MOL0     C23813   5.625   4.274   3.329 -0.8550 -0.0848  0.1434
  918MOL0     C23814   5.658   4.169   3.252 -0.1050  0.0410  0.3920
  918MOL0     C23815   5.601   4.148   3.116  0.1883  0.1430 -0.3824
  918MOL0     C23816   5.510   4.031   3.098 -0.9813 -0.4361 -0.1704
  918MOL0     C23817   5.481   3.998   2.960 -0.6590 -0.1535 -0.9148
  918MOL0     C23818   5.433   4.119   2.871 -0.5000 -0.5044 -0.1179
  918MOL0     O23819   5.394   4.070   2.739 -0.6963 -0.2906 -0.2548
  918MOL0     C23820   5.266   4.029   2.726  0.1275 -0.3885 -0.4607
  918MOL0     C23821   5.157   4.054   2.813  0.1774  0.7127  0.2507
  918MOL0     C23822   5.027   4.050   2.767 -1.2136  0.3153 -0.3540
  918MOL0     C23823   4.997   4.010   2.641 -0.0803  0.1672 -0.0111
  918MOL0     C23824   4.858   3.980   2.593  0.0926  0.0146  0.4094
  918MOL0     O23825   4.760   3.973   2.692 -0.8907  0.4534 -0.3733
  918MOL0     C23826   4.629   3.980   2.678 -0.0109  0.2007  0.1543
  918MOL0     C23827   4.549   4.095   2.647  0.2076 -0.2201 -0.3708
  918MOL0     C23828   4.410   4.085   2.667 -0.0327 -0.6112 -0.1921
  918MOL0     C23829   4.344   3.971   2.717  0.7414  1.3379 -0.1454
  918MOL0     O23830   4.203   3.972   2.702  0.3270 -0.5506  0.2087
  918MOL0     C23831   4.131   3.853   2.739 -0.0203 -0.5120 -0.1152
  918MOL0     C23832   3.982   3.895   2.719 -0.8117  1.0624 -0.1771
  918MOL0     C23833   3.901   3.770   2.752  0.4064 -0.2540  0.7549
  918MOL0     C23834   3.741   3.789   2.736 -0.3110 -1.1763 -0.5026
  918MOL0     C23835   3.692   3.715   2.610  0.0177 -1.0613  0.2781
  918MOL0     C23836   3.634   3.572   2.627  0.3414 -0.0111 -0.0675
  918MOL0     C23837   3.657   3.479   2.502 -0.4042 -0.8314  0.3211
  918MOL0     C23838   3.619   3.339   2.536 -0.0324 -0.0922  0.4892
  918MOL0    Cl23839   3.438   3.333   2.545 -0.1612 -0.3981 -0.1443
  918MOL0     C23840   4.426   3.862   2.750  0.9314  1.2003  0.7687
  918MOL0     C23841   4.563   3.867   2.736 -0.2211 -1.6080 -0.5390
  918MOL0     O23842   4.840   3.961   2.474 -0.4860 -0.0455  0.6324
  918MOL0     C23843   5.100   3.976   2.549  0.5664  0.3041 -1.1480
  918MOL0     C23844   5.230   3.984   2.595 -0.2720 -0.2832 -0.0832
  918MOL0     N23845   5.756   4.094   3.306 -0.2040 -0.4329  0.3676
  918MOL0     N23846   5.795   4.153   3.415 -0.4745 -0.2378 -0.5985
  918MOL0     C23847   6.320   4.775   4.393  0.2763 -0.0161 -0.3148
  918MOL0     C23848   6.427   4.816   4.474 -0.6014 -0.2706 -0.1949
  918MOL0     C23849   6.804   4.851   4.727 -1.1314  0.9624 -0.2649
  918MOL0     C23850   6.852   4.722   4.750  0.6679  0.1206  0.2680
  918MOL0     C23851   6.951   4.686   4.840 -0.9777 -0.1812  1.0213
  918MOL0     C23852   7.012   4.786   4.911 -0.0036  1.0389  0.6492
  918MOL0     O23853   7.103   4.745   4.997 -0.2475 -0.2315  0.2737
  918MOL0     C23854   7.151   4.834   5.095 -0.6645  0.2008 -0.8805
  918MOL0     C23855   7.237   4.753   5.190 -0.7267 -0.4106 -1.0486
  918MOL0     C23856   7.262   4.821   5.322  0.1131 -0.2050 -0.3189
  918MOL0     C23857   7.349   4.727   5.407  0.3501  0.0778  0.4197
  918MOL0     C23858   7.264   4.641   5.496 -0.6815 -0.0178  1.5619
  918MOL0     C23859   7.184   4.561   5.541 -0.8718 -0.5094 -0.3944
  918MOL0     C23860   6.965   4.914   4.895 -0.2645  0.1934 -0.3202
  918MOL0     C23861   6.873   4.945   4.794  0.4656  0.2685  0.5835
  918MOL0     C23862   6.845   5.090   4.765 -0.2713 -0.3875 -0.8658
  918MOL0     H23863   6.622   4.539   4.428 -0.0210  0.0223 -1.7476
  918MOL0     H23864   6.428   4.475   4.292 -1.2399  1.1325 -0.2956
  918MOL0     H23865   6.247   4.419   4.228  0.8017 -0.0679 -0.2769
  918MOL0     H23866   6.092   4.440   4.307 -2.8812 -0.6069 -2.9869
  918MOL0     H23867   6.120   4.552   4.023  0.1963 -1.1978 -1.0178
  918MOL0     H23868   5.983   4.540   4.119  1.7330  5.5566  0.6409
  918MOL0     H23869   5.997   4.276   4.098 -0.3495 -0.9495 -1.5413
  918MOL0     H23870   6.148   4.276   4.029 -0.0951 -0.6679  1.5601
  918MOL0     H23871   5.893   4.419   3.923 -0.2938 -1.0345  1.0765
  918MOL0     H23872   6.055   4.420   3.844 -1.2737 -0.2522 -0.4877
  918MOL0     H23873   6.046   4.180   3.805 -0.0823 -0.7056  1.1932
  918MOL0     H23874   5.917   4.162   3.933 -0.3168  1.3160  0.6139
  918MOL0     H23875   5.866   4.144   3.694  3.2572  0.0141  1.5384
  918MOL0     H23876   5.758   4.254   3.790 -0.4625  1.5667 -2.1280
  918MOL0     H23877   5.953   4.295   3.568 -2.1448 -4.1382 -0.5684
  918MOL0     H23878   5.910   4.442   3.652 -0.4087  1.9319 -1.8502
  918MOL0     H23879   5.669   4.390   3.592  1.1215 -0.1600  0.4688
  918MOL0     H23880   5.781   4.441   3.456  4.1423 -0.4273  0.8466
  918MOL0     H23881   5.557   4.356   3.306  1.3859  1.9423  0.4116
  918MOL0     H23882   5.549   4.237   3.081  1.3493  1.6044  1.4239
  918MOL0     H23883   5.688   4.156   3.050  0.5495  0.8667  0.1661
  918MOL0     H23884   5.553   3.947   3.152 -1.0797 -0.4955 -0.1845
  918MOL0     H23885   5.415   4.068   3.139 -0.4865  2.3864 -1.2979
  918MOL0     H23886   5.400   3.924   2.963 -0.3610 -0.4599  1.9229
  918MOL0     H23887   5.569   3.954   2.912  0.0329 -1.9079  1.7269
  918MOL0     H23888   5.516   4.189   2.864 -0.7453  0.7396  5.2304
  918MOL0     H23889   5.359   4.179   2.925  0.5638  1.9023 -1.1821
  918MOL0     H23890   5.163   4.087   2.917  0.3989 -0.5533  0.6603
  918MOL0     H23891   4.947   4.077   2.834  0.7121 -1.2959  2.8570
  918MOL0     H23892   4.597   4.178   2.597 -2.4679  0.3440 -2.1937
  918MOL0     H23893   4.344   4.167   2.639  1.1125  0.5418  0.3856
  918MOL0     H23894   4.157   3.759   2.688 -2.4469 -2.7145  2.3678
  918MOL0     H23895   4.152   3.831   2.844  1.3081  0.0201 -0.2482
  918MOL0     H23896   3.955   3.980   2.782 -0.9093  2.1834 -1.6773
  918MOL0     H23897   3.977   3.933   2.616  3.0261 -2.8652 -2.1881
  918MOL0     H23898   3.932   3.692   2.683 -1.8076 -0.6711  0.1830
  918MOL0     H23899   3.921   3.745   2.857  1.4111  2.7835  1.3880
  918MOL0     H23900   3.721   3.893   2.708 -0.1307 -1.8938 -3.6331
  918MOL0     H23901   3.685   3.758   2.824 -1.3584  1.2091 -0.2428
  918MOL0     H23902   3.777   3.722   2.542  0.2361  0.7661  0.7052
  918MOL0     H23903   3.625   3.783   2.556  2.0691 -0.2720 -1.4044
  918MOL0     H23904   3.678   3.518   2.711 -0.2679 -2.6174 -1.3144
  918MOL0     H23905   3.525   3.583   2.636  0.2947  1.6448 -1.9893
  918MOL0     H23906   3.761   3.484   2.467 -0.8339 -0.2430 -0.9448
  918MOL0     H23907   3.602   3.513   2.414 -2.1742 -2.5416  0.7070
  918MOL0     H23908   3.663   3.258   2.477 -1.5887 -1.0867  0.6301
  918MOL0     H23909   3.645   3.320   2.640 -0.5023  0.7366  0.7620
  918MOL0     H23910   4.373   3.772   2.781 -0.0460  1.2686 -0.6292
  918MOL0     H23911   4.616   3.774   2.754 -0.0992 -1.2701  1.0459
  918MOL0     H23912   5.086   3.956   2.443  2.5200 -0.3608 -1.3288
  918MOL0     H23913   5.312   3.960   2.528 -0.2645  3.0272 -1.4409
  918MOL0     H23914   6.239   4.846   4.379 -1.0252 -1.7522 -2.1653
  918MOL0     H23915   6.419   4.911   4.525  1.4418 -1.5267  2.7885
  918MOL0     H23916   6.791   4.640   4.712  1.7044 -0.8098  0.5452
  918MOL0     H23917   6.985   4.584   4.851  1.2400  0.7825  4.5226
  918MOL0     H23918   7.062   4.872   5.145 -0.4557  0.5050 -0.7404
  918MOL0     H23919   7.199   4.921   5.051 -0.1803  1.1312  1.3693
  918MOL0     H23920   7.334   4.738   5.142  2.6864  1.1551  4.4803
  918MOL0     H23921   7.196   4.655   5.215  0.2632 -0.8878 -1.2712
  918MOL0     H23922   7.162   4.838   5.362 -0.0891 -1.4271 -0.2713
  918MOL0     H23923   7.322   4.913   5.318  2.1063 -1.2333  2.6470
  918MOL0     H23924   7.404   4.667   5.334  0.6242  1.9327 -0.9895
  918MOL0     H23925   7.420   4.780   5.471  0.5672 -0.0478  0.2852
  918MOL0     H23926   7.113   4.491   5.579  0.9152 -0.8482  2.5654
  918MOL0     H23927   7.005   5.001   4.948  0.2361 -0.3863  0.2840
  918MOL0     H23928   6.941   5.139   4.783 -1.0182  0.6631  0.4335
  918MOL0     H23929   6.828   5.107   4.659 -0.8996 -0.9664 -0.8685
  918MOL0     H23930   6.763   5.124   4.829  0.6420 -0.3777  0.3355
  919MOL0     O23931   3.426   5.983   0.492  0.0901  0.2715 -0.7013
  919MOL0     C23932   3.364   6.084   0.523 -0.0951  0.3246 -0.4541
  919MOL0     O23933   3.245   6.095   0.571  0.0773 -0.0994  0.5428
  919MOL0     C23934   3.181   5.979   0.616  0.0827 -0.5855  0.2836
  919MOL0     C23935   3.240   5.863   0.654 -0.3169  0.7191 -0.0078
  919MOL0     C23936   3.158   5.746   0.691  0.1662 -0.8924  0.2171
  919MOL0     C23937   3.018   5.760   0.702 -0.5618 -0.3900 -0.7242
  919MOL0     O23938   2.950   5.656   0.738 -0.6357  0.3440 -0.2617
  919MOL0     C23939   2.807   5.642   0.732  0.5749 -0.5540 -0.1544
  919MOL0     C23940   2.750   5.510   0.675 -0.3592 -0.8313 -0.1889
  919MOL0     C23941   2.790   5.475   0.539  0.1048  0.8214  0.4301
  919MOL0     C23942   2.701   5.370   0.475 -0.0481  0.1810 -0.5232
  919MOL0     C23943   2.740   5.358   0.333 -0.0465 -0.2471  0.5376
  919MOL0     C23944   2.865   5.263   0.310 -0.1807  0.4386 -0.0999
  919MOL0     C23945   2.823   5.130   0.243  0.4058 -0.4569 -0.2984
  919MOL0     C23946   2.950   5.056   0.181  0.1335  0.9314  0.4455
  919MOL0     N23947   3.002   5.117   0.067  0.1048 -0.0450 -0.2021
  919MOL0     C23948   3.096   5.221   0.061 -0.4417  0.2645 -0.0363
  919MOL0     C23949   3.094   5.234  -0.075 -0.2860  0.2829 -0.7221
  919MOL0     C23950   3.167   5.340  -0.154 -0.5740 -0.2024  0.0368
  919MOL0     C23951   3.312   5.357  -0.124  0.0592  0.1110 -0.1308
  919MOL0     C23952   3.346   5.485  -0.047  0.5105 -0.1902 -0.0638
  919MOL0     C23953   3.353   5.601  -0.137  0.5347 -1.1155  0.2808
  919MOL0     O23954   3.235   5.670  -0.158  0.0811 -0.4116  0.4070
  919MOL0     C23955   3.261   5.806  -0.157  0.1913 -0.1133 -0.0549
  919MOL0     C23956   3.253   5.876  -0.276 -0.8532  0.6830  0.2129
  919MOL0     C23957   3.279   6.008  -0.281  1.4251 -1.5538  0.2028
  919MOL0     C23958   3.303   6.081  -0.158  0.3546  0.0716 -0.8494
  919MOL0     C23959   3.334   6.229  -0.143 -0.5886  0.7022 -0.3154
  919MOL0     O23960   3.342   6.304  -0.256 -0.6184 -0.6139  0.0635
  919MOL0     C23961   3.295   6.429  -0.260 -0.3116 -0.3621 -1.0541
  919MOL0     C23962   3.324   6.500  -0.371 -0.1840  0.2074  0.8990
  919MOL0     C23963   3.295   6.627  -0.391  0.0027 -0.9438  0.2347
  919MOL0     C23964   3.230   6.704  -0.287  0.7985 -0.0790  1.0379
  919MOL0     O23965   3.208   6.838  -0.299 -0.1828  0.1399 -0.6728
  919MOL0     C23966   3.180   6.929  -0.191  1.1902 -0.2455  0.9880
  919MOL0     C23967   3.029   6.945  -0.187 -0.0162  0.5542  0.0369
  919MOL0     C23968   2.989   7.058  -0.096  0.0848 -0.1756 -0.5393
  919MOL0     C23969   3.034   7.199  -0.140  0.3456 -0.3134  0.2276
  919MOL0     C23970   3.023   7.317  -0.039 -0.1006 -0.3357 -0.6596
  919MOL0     C23971   2.890   7.324   0.046 -0.6278 -0.0235  0.3874
  919MOL0     C23972   2.775   7.349  -0.043  0.7388 -0.4295  0.0453
  919MOL0     C23973   2.735   7.497  -0.054  0.9965  0.2098 -0.2362
  919MOL0    Cl23974   2.595   7.508  -0.170 -0.1080  0.3442  0.6223
  919MOL0     C23975   3.193   6.635  -0.172  0.4458 -0.2323 -0.2812
  919MOL0     C23976   3.228   6.498  -0.160  0.9035  0.1451 -0.1696
  919MOL0     O23977   3.368   6.264  -0.032 -0.3821 -0.5748  0.7917
  919MOL0     C23978   3.306   6.003  -0.043 -0.7008 -0.1966 -0.8007
  919MOL0     C23979   3.298   5.865  -0.039  0.0816  0.0499 -0.0088
  919MOL0     N23980   3.041   5.126  -0.141  0.4780  0.5644 -0.1490
  919MOL0     N23981   3.002   5.051  -0.052  0.2772 -0.4457  0.1408
  919MOL0     C23982   2.965   5.888   0.681  0.0128 -0.8175  0.3494
  919MOL0     C23983   3.042   5.995   0.630 -1.4163 -0.3885  0.3033
  919MOL0     C23984   3.431   6.218   0.502 -0.3265  0.7690  1.2565
  919MOL0     C23985   3.412   6.321   0.592 -0.8830 -0.3503 -0.5126
  919MOL0     C23986   3.488   6.444   0.593 -0.5631  0.8767 -0.0458
  919MOL0     C23987   3.567   6.464   0.487  0.9090  0.1185 -0.2120
  919MOL0     O23988   3.648   6.572   0.479 -0.4878 -0.0086 -0.0254
  919MOL0     C23989   3.765   6.555   0.564 -0.3911 -0.1588  0.0679
  919MOL0     C23990   3.893   6.572   0.483 -0.1017 -0.5108 -0.2219
  919MOL0     C23991   4.006   6.572   0.578  0.1778 -0.3831 -0.5232
  919MOL0     C23992   4.143   6.600   0.510 -0.2147  0.6521  0.2404
  919MOL0     C23993   4.249   6.571   0.604  0.4865  1.4739 -0.0847
  919MOL0     C23994   4.340   6.544   0.677  0.8787 -0.6328  0.4450
  919MOL0     C23995   3.561   6.377   0.381  0.5786  0.1006  0.3539
  919MOL0     C23996   3.506   6.248   0.383 -1.1560 -0.5118 -0.0155
  919MOL0     C23997   3.494   6.166   0.259 -0.0263 -0.5673 -0.5565
  919MOL0     H23998   3.347   5.852   0.652 -0.5837 -2.9300 -2.0982
  919MOL0     H23999   3.198   5.647   0.714 -1.6897 -1.3224  1.8872
  919MOL0     H24000   2.777   5.634   0.837 -0.5056  1.5904 -0.2373
  919MOL0     H24001   2.767   5.732   0.684  3.0740  0.1748 -1.0448
  919MOL0     H24002   2.642   5.507   0.690 -0.2182 -1.0913  0.8237
  919MOL0     H24003   2.788   5.432   0.740  2.5904 -0.1950 -1.0033
  919MOL0     H24004   2.891   5.436   0.549  0.0563  1.3638  4.7460
  919MOL0     H24005   2.794   5.564   0.475  1.2523  1.9186  1.9493
  919MOL0     H24006   2.697   5.269   0.517 -0.5916  1.3512  2.4603
  919MOL0     H24007   2.603   5.418   0.467  0.0779  0.5596  0.1331
  919MOL0     H24008   2.656   5.314   0.279  0.0238  1.7793 -1.3553
  919MOL0     H24009   2.749   5.454   0.282 -0.4096 -0.7067 -0.4067
  919MOL0     H24010   2.941   5.313   0.248 -1.7461 -0.6318 -3.0894
  919MOL0     H24011   2.909   5.231   0.405 -1.8185 -2.8049 -0.3065
  919MOL0     H24012   2.755   5.142   0.158  0.6517  1.8666 -0.2430
  919MOL0     H24013   2.779   5.068   0.322 -3.6523  0.7897 -1.3111
  919MOL0     H24014   3.034   5.049   0.251  2.9643 -0.5758 -2.8009
  919MOL0     H24015   2.929   4.951   0.159  0.1639  0.3337  2.9226
  919MOL0     H24016   3.146   5.288   0.130  3.1674 -1.2038 -1.0187
  919MOL0     H24017   3.164   5.310  -0.259  0.6765  1.0406 -0.3736
  919MOL0     H24018   3.117   5.437  -0.151  1.8685  1.2589 -2.5637
  919MOL0     H24019   3.342   5.274  -0.061 -1.7331  0.2828  1.0395
  919MOL0     H24020   3.367   5.361  -0.219 -1.7581 -0.6854 -1.2880
  919MOL0     H24021   3.448   5.477  -0.007  0.4500  4.9067  1.8143
  919MOL0     H24022   3.277   5.502   0.036  2.6745 -1.0435  2.0162
  919MOL0     H24023   3.386   5.573  -0.238  1.2271 -0.9895  0.4676
  919MOL0     H24024   3.431   5.664  -0.094  1.4052 -1.5748 -0.5827
  919MOL0     H24025   3.228   5.824  -0.367  1.3574 -1.9239  0.9507
  919MOL0     H24026   3.273   6.071  -0.369  1.7470 -0.8980  0.6432
  919MOL0     H24027   3.368   6.455  -0.460  0.8336  1.4352  0.7557
  919MOL0     H24028   3.321   6.694  -0.473  1.5672 -0.8237  0.8134
  919MOL0     H24029   3.227   6.906  -0.095 -0.4691  2.9845  2.7725
  919MOL0     H24030   3.221   7.027  -0.217  0.6059  0.0047  0.9795
  919MOL0     H24031   2.985   6.952  -0.286 -2.5114 -0.0320  1.0446
  919MOL0     H24032   2.992   6.849  -0.150  0.4284 -0.3955 -1.8569
  919MOL0     H24033   2.880   7.054  -0.102 -0.4193  1.5684  3.8232
  919MOL0     H24034   3.022   7.042   0.006 -0.8697 -1.7153 -0.4340
  919MOL0     H24035   2.969   7.217  -0.226  1.7117 -1.7827 -1.1776
  919MOL0     H24036   3.139   7.193  -0.170  0.3886  0.9521  0.0795
  919MOL0     H24037   3.046   7.412  -0.087  3.0548  2.4211  5.2038
  919MOL0     H24038   3.111   7.325   0.026  0.5113  1.3216 -1.6323
  919MOL0     H24039   2.872   7.231   0.101 -1.1032 -0.6309 -0.7570
  919MOL0     H24040   2.917   7.408   0.110  1.5962 -0.6930  0.4208
  919MOL0     H24041   2.696   7.286   0.001  0.3625 -0.4077 -0.5904
  919MOL0     H24042   2.790   7.319  -0.147  1.4295 -1.9160  0.5354
  919MOL0     H24043   2.697   7.533   0.042 -0.0829 -0.1984 -0.5041
  919MOL0     H24044   2.818   7.564  -0.080  0.7904  0.7512  0.4589
  919MOL0     H24045   3.140   6.695  -0.099  0.8450 -1.7573  1.3229
  919MOL0     H24046   3.194   6.451  -0.069  3.6274  0.6186  1.1830
  919MOL0     H24047   3.334   6.040   0.055  5.6412  0.3722 -2.3998
  919MOL0     H24048   3.315   5.807   0.052  2.2473  0.6383  0.0073
  919MOL0     H24049   2.861   5.915   0.698  0.4010  0.7390  0.3347
  919MOL0     H24050   2.979   6.080   0.604 -2.1604 -0.6180  1.3023
  919MOL0     H24051   3.349   6.296   0.677 -1.0708  0.1200 -0.5038
  919MOL0     H24052   3.497   6.497   0.686 -1.2843 -1.0746  1.2069
  919MOL0     H24053   3.754   6.454   0.605 -1.1253 -0.6542 -1.2813
  919MOL0     H24054   3.752   6.609   0.658 -2.4461 -2.4868  1.2567
  919MOL0     H24055   3.902   6.661   0.420  1.8176 -2.7538 -3.4318
  919MOL0     H24056   3.908   6.488   0.415  0.9251 -2.1497  1.9198
  919MOL0     H24057   4.009   6.469   0.617  1.6555 -0.9607 -2.0516
  919MOL0     H24058   4.000   6.645   0.659  2.2546  0.3821 -1.0099
  919MOL0     H24059   4.155   6.535   0.423  2.3747  2.7345 -1.1178
  919MOL0     H24060   4.158   6.702   0.474  0.1923  0.7976  0.7990
  919MOL0     H24061   4.428   6.538   0.736  0.0345  1.6147  2.0904
  919MOL0     H24062   3.633   6.398   0.302  1.3991 -0.4681  0.9327
  919MOL0     H24063   3.394   6.178   0.216 -0.2901 -0.9123 -0.0484
  919MOL0     H24064   3.553   6.225   0.188  2.5954 -0.0133  1.8910
  919MOL0     H24065   3.517   6.059   0.267 -3.7254 -1.4173  0.5424
  920MOL0     O24066   6.405   8.523   0.928  0.0361  0.3807  0.0348
  920MOL0     C24067   6.479   8.526   0.833 -1.6523  0.1504 -0.7826
  920MOL0     O24068   6.455   8.570   0.709 -0.0172  0.7324  0.7707
  920MOL0     C24069   6.337   8.636   0.687  0.1352  0.3256  0.3128
  920MOL0     C24070   6.300   8.759   0.737  0.8116 -0.8792  0.9609
  920MOL0     C24071   6.184   8.827   0.698  0.4296 -0.4031  0.9218
  920MOL0     C24072   6.097   8.774   0.601 -0.9059  0.4866 -0.5936
  920MOL0     O24073   5.983   8.849   0.574 -0.4726  0.6821  0.4424
  920MOL0     C24074   5.939   8.848   0.436 -0.5631  1.2721 -0.8861
  920MOL0     C24075   5.814   8.931   0.405 -0.0352  1.5926  0.5656
  920MOL0     C24076   5.677   8.869   0.451  0.0294 -0.7546 -1.1512
  920MOL0     C24077   5.555   8.970   0.419  0.2813  0.6263  0.2285
  920MOL0     C24078   5.494   8.920   0.282  0.2445 -0.0229 -0.8927
  920MOL0     C24079   5.377   9.022   0.251  0.4055  0.7485 -0.5610
  920MOL0     C24080   5.317   8.986   0.115 -0.4178 -0.7045  0.4622
  920MOL0     C24081   5.222   9.096   0.066  0.4163 -0.2976 -0.4670
  920MOL0     N24082   5.291   9.211   0.023  0.4264 -0.0632 -0.0732
  920MOL0     C24083   5.331   9.321   0.095 -0.1554 -0.2349 -0.3232
  920MOL0     C24084   5.403   9.392   0.010 -0.4126 -0.0144 -0.6495
  920MOL0     C24085   5.488   9.513   0.047  0.3137  0.3601  0.2556
  920MOL0     C24086   5.462   9.623  -0.055  0.0852  0.0335  0.2235
  920MOL0     C24087   5.529   9.757  -0.018 -0.2991  0.3358 -0.3442
  920MOL0     C24088   5.681   9.754  -0.013 -0.1408  0.3582  0.6187
  920MOL0     O24089   5.739   9.882  -0.053  0.3778  0.2117 -0.1947
  920MOL0     C24090   5.847   9.887  -0.132 -0.8792 -0.1812 -0.3099
  920MOL0     C24091   5.878  10.009  -0.196  0.6664 -0.4562 -0.2094
  920MOL0     C24092   5.979  10.021  -0.279  0.4993 -0.2047 -0.6053
  920MOL0     C24093   6.070   9.915  -0.302  0.7228  0.3572 -1.1634
  920MOL0     C24094   6.183   9.945  -0.390 -0.6525  0.6906 -0.7895
  920MOL0     O24095   6.288   9.857  -0.372  0.4152 -0.0545 -0.2506
  920MOL0     C24096   6.408   9.896  -0.417 -1.2038 -0.9036 -0.6694
  920MOL0     C24097   6.472  10.009  -0.363  0.6567 -0.0562 -0.3743
  920MOL0     C24098   6.601  10.048  -0.402  0.2763 -0.8358  0.2199
  920MOL0     C24099   6.676   9.950  -0.478 -0.1677 -0.5274  0.5035
  920MOL0     O24100   6.806   9.967  -0.525  0.0081 -0.4692  0.3596
  920MOL0     C24101   6.858  10.104  -0.519 -0.9755  1.2630 -0.3506
  920MOL0     C24102   6.992  10.112  -0.602 -0.2207  0.7345 -0.0856
  920MOL0     C24103   7.046  10.250  -0.655  1.0007 -0.7659 -0.8893
  920MOL0     C24104   7.153  10.222  -0.751 -0.5568  0.2676  0.2470
  920MOL0     C24105   7.243  10.334  -0.793 -0.4261  0.7332  0.8295
  920MOL0     C24106   7.184  10.433  -0.899  0.6422 -0.5468  0.4715
  920MOL0     C24107   7.185  10.369  -1.037  0.5534  0.5537 -0.1154
  920MOL0     C24108   7.118  10.463  -1.132 -0.9407  0.8278  0.4513
  920MOL0    Cl24109   7.100  10.358  -1.283 -0.0627 -0.0571 -0.2497
  920MOL0     C24110   6.607   9.837  -0.535 -0.6181 -0.5010 -1.1100
  920MOL0     C24111   6.477   9.819  -0.513 -0.0917  0.3482  0.4580
  920MOL0     O24112   6.176  10.026  -0.477 -0.0589 -0.3277  0.0861
  920MOL0     C24113   6.055   9.806  -0.222  0.1627 -0.7661 -0.1119
  920MOL0     C24114   5.941   9.791  -0.135 -0.4122  0.4464 -0.0372
  920MOL0     N24115   5.399   9.342  -0.114  0.9685 -0.4955  0.4475
  920MOL0     N24116   5.337   9.227  -0.107 -0.5233  0.7825 -0.2969
  920MOL0     C24117   6.136   8.656   0.541 -0.0697  0.0568  0.2593
  920MOL0     C24118   6.248   8.588   0.588 -0.9378  0.1304  0.5830
  920MOL0     C24119   6.622   8.504   0.857 -0.0678  0.6198 -0.9793
  920MOL0     C24120   6.711   8.587   0.795 -0.6582  0.7702 -0.2945
  920MOL0     C24121   6.852   8.566   0.825 -0.5051 -0.1342  0.0373
  920MOL0     C24122   6.899   8.478   0.916  0.4899  0.0667 -0.2391
  920MOL0     O24123   7.037   8.479   0.925 -0.4587 -0.3295  0.1991
  920MOL0     C24124   7.089   8.356   0.994 -0.5978  0.0517  0.1846
  920MOL0     C24125   7.239   8.337   0.953  0.4951 -0.0431 -1.5456
  920MOL0     C24126   7.314   8.419   1.055 -0.1519  0.1309  0.6970
  920MOL0     C24127   7.466   8.393   1.044 -0.5844 -0.6157  0.2618
  920MOL0     C24128   7.525   8.402   0.908 -0.1565 -0.5785 -0.2011
  920MOL0     C24129   7.565   8.395   0.799 -0.0464  0.4731  0.4146
  920MOL0     C24130   6.807   8.393   0.984  0.1507 -0.7669 -0.3356
  920MOL0     C24131   6.669   8.404   0.952 -0.0371 -0.0749  0.8470
  920MOL0     C24132   6.584   8.306   1.020  0.5853 -0.1304  0.1101
  920MOL0     H24133   6.369   8.805   0.807 -0.6414  1.7674  0.7776
  920MOL0     H24134   6.171   8.924   0.744 -1.4019 -1.2688  2.3914
  920MOL0     H24135   6.023   8.889   0.379  1.8810  2.1741  2.9720
  920MOL0     H24136   5.925   8.744   0.406 -4.0054  0.9543  1.2302
  920MOL0     H24137   5.803   8.935   0.296 -0.9710 -1.0769  0.4774
  920MOL0     H24138   5.821   9.030   0.449 -1.1112  2.8092 -1.7902
  920MOL0     H24139   5.702   8.855   0.556  2.3790  0.3718 -1.5146
  920MOL0     H24140   5.675   8.762   0.428 -0.3097 -1.2203  0.8642
  920MOL0     H24141   5.486   8.960   0.503  0.4089 -3.3670  0.0728
  920MOL0     H24142   5.589   9.074   0.415  0.5885  0.5196  0.0241
  920MOL0     H24143   5.569   8.921   0.203  1.8946 -0.2775  0.6027
  920MOL0     H24144   5.452   8.821   0.299 -2.9131  1.1282 -1.1962
  920MOL0     H24145   5.307   9.004   0.333  1.1153  1.6528  0.2798
  920MOL0     H24146   5.403   9.127   0.265 -1.7660  1.0358  1.9612
  920MOL0     H24147   5.269   8.887   0.116  1.5018 -1.8952 -3.9249
  920MOL0     H24148   5.390   8.975   0.035  0.5878  2.1047  0.9020
  920MOL0     H24149   5.170   9.058  -0.023 -3.1803  0.2022  1.2677
  920MOL0     H24150   5.146   9.112   0.142 -1.7973  2.5311 -3.0183
  920MOL0     H24151   5.296   9.342   0.196 -0.0954 -1.9803  0.1037
  920MOL0     H24152   5.461   9.547   0.147 -3.4210 -0.6850 -0.2684
  920MOL0     H24153   5.593   9.480   0.050 -0.5390 -3.3034 -2.6482
  920MOL0     H24154   5.488   9.587  -0.155  2.7361  3.7406 -0.6576
  920MOL0     H24155   5.356   9.638  -0.076 -0.1124 -2.3938 -0.7794
  920MOL0     H24156   5.504   9.798   0.081 -0.1767  2.0679 -0.9996
  920MOL0     H24157   5.488   9.839  -0.078  1.1238  1.2139 -0.1635
  920MOL0     H24158   5.718   9.670  -0.073  2.2811  1.2088  0.8269
  920MOL0     H24159   5.716   9.723   0.086 -0.2835  1.1492  0.9253
  920MOL0     H24160   5.806  10.089  -0.182  1.2660  0.0689 -0.0610
  920MOL0     H24161   5.980  10.119  -0.327  0.8120  1.9472  3.3542
  920MOL0     H24162   6.417  10.076  -0.297  0.6706 -0.6255  0.2232
  920MOL0     H24163   6.633  10.150  -0.381 -0.2497 -0.6451  0.1154
  920MOL0     H24164   6.791  10.158  -0.587 -0.5098 -1.0653 -2.8158
  920MOL0     H24165   6.861  10.147  -0.419 -1.8120 -1.8834  1.1398
  920MOL0     H24166   7.070  10.072  -0.537  1.0422  3.3808  0.1591
  920MOL0     H24167   6.974  10.044  -0.686  0.8805 -2.8653  2.3554
  920MOL0     H24168   6.963  10.307  -0.696  1.3450 -1.5585 -2.7852
  920MOL0     H24169   7.082  10.314  -0.573  0.1683 -0.6221 -0.6261
  920MOL0     H24170   7.127  10.164  -0.841  1.5126  2.8061 -2.1620
  920MOL0     H24171   7.221  10.154  -0.700  0.2787  1.6100  0.9640
  920MOL0     H24172   7.333  10.291  -0.839 -0.6973  2.8522 -1.9972
  920MOL0     H24173   7.268  10.384  -0.699  0.2759  3.1294 -0.5472
  920MOL0     H24174   7.081  10.456  -0.871  0.4487 -0.5992 -0.1902
  920MOL0     H24175   7.234  10.530  -0.904 -0.1702 -0.2009 -2.8164
  920MOL0     H24176   7.119  10.282  -1.038  2.4687 -1.0312  2.0491
  920MOL0     H24177   7.284  10.338  -1.072  1.2815  2.5610  0.0227
  920MOL0     H24178   7.018  10.489  -1.098 -1.3481  0.1067 -0.1710
  920MOL0     H24179   7.167  10.558  -1.157 -0.4927 -0.3319 -4.0756
  920MOL0     H24180   6.657   9.769  -0.604  2.3025  1.4266 -1.0736
  920MOL0     H24181   6.423   9.734  -0.554 -0.0681  1.3570 -1.8070
  920MOL0     H24182   6.132   9.729  -0.226  0.8275 -0.1083 -0.1162
  920MOL0     H24183   5.925   9.698  -0.080  0.9966 -0.4824 -1.1449
  920MOL0     H24184   6.086   8.625   0.450  0.7643  0.3831 -0.3205
  920MOL0     H24185   6.260   8.493   0.537  0.8954  0.6177  0.0187
  920MOL0     H24186   6.681   8.655   0.716  1.9315  1.9850 -0.3368
  920MOL0     H24187   6.923   8.635   0.780 -1.1177  0.4232 -0.0975
  920MOL0     H24188   7.050   8.258   0.965  1.0558 -0.9838  1.3260
  920MOL0     H24189   7.070   8.362   1.101  1.0352  4.2590  0.4146
  920MOL0     H24190   7.251   8.356   0.845  2.2629  3.2081 -0.9052
  920MOL0     H24191   7.282   8.237   0.963  0.3866 -0.0769 -1.4276
  920MOL0     H24192   7.280   8.381   1.151 -1.5515 -0.1042  0.1334
  920MOL0     H24193   7.296   8.527   1.048  2.4013  0.5450 -0.8224
  920MOL0     H24194   7.521   8.459   1.111 -3.0973 -0.0458  1.8876
  920MOL0     H24195   7.493   8.295   1.083  0.9304 -0.0270  0.7594
  920MOL0     H24196   7.613   8.391   0.703  2.5352  0.5970  1.6173
  920MOL0     H24197   6.835   8.312   1.050  0.4564 -0.3190  0.0919
  920MOL0     H24198   6.629   8.208   1.001 -0.4932 -0.3822 -1.3224
  920MOL0     H24199   6.595   8.318   1.128  0.8796  0.4114  0.0231
  920MOL0     H24200   6.485   8.295   0.975  0.8603 -1.0838 -0.2707
  921MOL0     O24201   7.499  11.249   9.850  0.3655  0.0349  0.0985
  921MOL0     C24202   7.410  11.216   9.925 -0.4578 -0.0923  0.0647
  921MOL0     O24203   7.343  11.104   9.912  0.3799 -0.4100 -0.0918
  921MOL0     C24204   7.391  11.012   9.820 -0.2733 -0.2910 -0.8337
  921MOL0     C24205   7.463  10.902   9.863 -0.3437  0.3180 -0.1772
  921MOL0     C24206   7.517  10.814   9.774  0.2053  0.4688 -0.0820
  921MOL0     C24207   7.500  10.830   9.633  0.5794 -0.1024 -0.0514
  921MOL0     O24208   7.563  10.759   9.541 -0.3262 -0.6620 -0.5753
  921MOL0     C24209   7.544  10.613   9.550 -0.4165  0.1045  0.5367
  921MOL0     C24210   7.394  10.582   9.526 -1.0214  1.0109 -0.4037
  921MOL0     C24211   7.324  10.541   9.656 -0.6061 -0.6005 -0.1105
  921MOL0     C24212   7.271  10.391   9.663 -0.1955 -0.3968  0.1549
  921MOL0     C24213   7.188  10.354   9.783  0.4757  0.1026 -0.1332
  921MOL0     C24214   7.157  10.214   9.811  0.2133 -0.4825 -0.3223
  921MOL0     C24215   7.269  10.109   9.821 -0.0628 -0.3559 -0.1434
  921MOL0     C24216   7.363  10.144   9.928  0.5664 -0.6756  0.2466
  921MOL0     N24217   7.442  10.034   9.962 -0.7510  0.6153  1.8498
  921MOL0     C24218   7.430   9.957  10.072 -1.1619  0.6340 -0.7846
  921MOL0     C24219   7.512   9.846  10.065 -0.2679 -0.1757 -0.3694
  921MOL0     C24220   7.542   9.728  10.157  0.1719  0.2955 -1.0034
  921MOL0     C24221   7.687   9.677  10.163 -0.1661  0.9720 -0.0152
  921MOL0     C24222   7.675   9.530  10.196  0.7808 -0.7345 -0.5898
  921MOL0     C24223   7.598   9.505  10.319 -0.2414  0.8540 -0.4542
  921MOL0     O24224   7.615   9.371  10.379  0.5501 -0.6189 -0.3711
  921MOL0     C24225   7.584   9.373  10.515 -0.2713  0.6943 -0.1761
  921MOL0     C24226   7.496   9.273  10.554 -0.7852 -0.3201 -0.4054
  921MOL0     C24227   7.462   9.249  10.689  0.1463 -0.2506 -0.4617
  921MOL0     C24228   7.519   9.324  10.795  0.1209 -0.4055 -0.4323
  921MOL0     C24229   7.469   9.305  10.930 -0.3786 -0.1215 -1.1358
  921MOL0     O24230   7.381   9.200  10.942 -0.3495  0.3635  0.8743
  921MOL0     C24231   7.314   9.169  11.053 -0.4768 -0.3686 -1.0727
  921MOL0     C24232   7.256   9.257  11.144 -0.3080 -0.4718 -1.2346
  921MOL0     C24233   7.177   9.223  11.247  0.0953  0.3403  0.5176
  921MOL0     C24234   7.147   9.089  11.263 -0.9896 -0.4696  0.1551
  921MOL0     O24235   7.060   9.061  11.365  0.5174  0.7383  1.0273
  921MOL0     C24236   6.931   9.003  11.346  1.0878 -0.0665 -0.2521
  921MOL0     C24237   6.868   9.039  11.212 -0.0644 -0.9666 -0.0551
  921MOL0     C24238   6.708   9.042  11.245  0.0102  0.4504  0.0434
  921MOL0     C24239   6.633   9.079  11.119 -0.4148  0.8781  0.3519
  921MOL0     C24240   6.490   9.032  11.129  0.0571 -0.5532 -0.1125
  921MOL0     C24241   6.455   8.980  10.991 -0.1246 -0.5763 -1.1418
  921MOL0     C24242   6.308   8.941  10.992  0.5629 -0.1638 -0.4795
  921MOL0     C24243   6.270   8.858  10.860  0.2274 -0.1380 -0.1744
  921MOL0    Cl24244   6.310   8.966  10.716 -0.2143  0.1755 -0.3478
  921MOL0     C24245   7.200   8.995  11.176 -0.2416 -0.8904 -0.1890
  921MOL0     C24246   7.279   9.034  11.068 -0.8280  1.1283 -0.1875
  921MOL0     O24247   7.506   9.376  11.022  0.1772 -0.8433  0.7736
  921MOL0     C24248   7.608   9.424  10.753  0.6562  0.1416 -0.5909
  921MOL0     C24249   7.638   9.450  10.613 -1.2835  0.9290  0.9360
  921MOL0     N24250   7.587   9.862   9.944  0.1599 -0.2096 -0.4000
  921MOL0     N24251   7.552   9.981   9.889  0.3281  0.4581  0.3961
  921MOL0     C24252   7.430  10.940   9.590  0.3702  0.3121  0.3460
  921MOL0     C24253   7.376  11.026   9.687  0.3554  0.0966  0.5635
  921MOL0     C24254   7.370  11.305  10.029 -0.4879 -0.3802  0.0524
  921MOL0     C24255   7.312  11.419   9.991  0.2790 -0.8235 -0.0389
  921MOL0     C24256   7.238  11.497  10.084 -0.4473 -0.0998 -0.1437
  921MOL0     C24257   7.245  11.460  10.221  0.7278 -0.0700 -0.3254
  921MOL0     O24258   7.178  11.527  10.324  0.4654 -0.0866 -0.4679
  921MOL0     C24259   7.122  11.658  10.288  0.3946  0.6055 -0.9606
  921MOL0     C24260   6.980  11.638  10.240 -0.5616  0.6533  0.7151
  921MOL0     C24261   6.885  11.604  10.353  0.6434 -0.9493 -0.2620
  921MOL0     C24262   6.746  11.562  10.317  0.8058  0.3193  0.2846
  921MOL0     C24263   6.675  11.672  10.253  0.3268  0.5302  0.6812
  921MOL0     C24264   6.616  11.762  10.199 -0.8423  0.1127  0.9110
  921MOL0     C24265   7.306  11.342  10.261 -0.1363 -0.0977  0.1111
  921MOL0     C24266   7.374  11.260  10.164  0.6341 -0.3996  0.3440
  921MOL0     C24267   7.441  11.125  10.202  0.2249 -0.2593  0.3922
  921MOL0     H24268   7.456  10.877   9.968 -0.8710 -1.0127 -0.5069
  921MOL0     H24269   7.559  10.723   9.814 -1.1112  1.1063  3.0389
  921MOL0     H24270   7.593  10.574   9.460 -2.9174  0.2396 -0.9806
  921MOL0     H24271   7.579  10.573   9.646 -3.0505  1.5266  2.2164
  921MOL0     H24272   7.376  10.493   9.466 -1.2018 -0.5502  1.8538
  921MOL0     H24273   7.335  10.663   9.481 -1.6512  0.0478 -1.3625
  921MOL0     H24274   7.244  10.614   9.671 -0.0473  0.5253 -2.2224
  921MOL0     H24275   7.393  10.554   9.740  1.1206  0.6428 -1.6541
  921MOL0     H24276   7.221  10.375   9.567  0.3500  3.5672 -0.9662
  921MOL0     H24277   7.356  10.322   9.664 -0.2404 -0.4676  1.5048
  921MOL0     H24278   7.235  10.402   9.870 -0.0824  0.1346  0.1556
  921MOL0     H24279   7.090  10.398   9.764 -0.1419 -1.6698 -1.2510
  921MOL0     H24280   7.096  10.215   9.902  1.9826  0.7885  0.9283
  921MOL0     H24281   7.102  10.175   9.725  1.3377 -2.7018 -0.1025
  921MOL0     H24282   7.311  10.097   9.721 -3.8916  1.8095 -2.2344
  921MOL0     H24283   7.221  10.013   9.842 -4.5231  1.6662  0.0076
  921MOL0     H24284   7.421  10.225   9.883  0.0612  0.4896  1.6249
  921MOL0     H24285   7.310  10.177  10.018  1.7461 -0.3494  0.8356
  921MOL0     H24286   7.362   9.980  10.154 -1.7639  1.9108 -1.6129
  921MOL0     H24287   7.498   9.751  10.255  0.7537 -0.5619 -0.5334
  921MOL0     H24288   7.477   9.650  10.116 -1.0291 -0.4946  2.0772
  921MOL0     H24289   7.744   9.675  10.070  0.5663  1.8820  0.4061
  921MOL0     H24290   7.746   9.740  10.230  3.4181  0.2453 -2.2150
  921MOL0     H24291   7.775   9.489  10.215  0.9250 -1.8522 -3.3113
  921MOL0     H24292   7.617   9.490  10.113 -1.3057  0.4976  0.1951
  921MOL0     H24293   7.491   9.524  10.301 -0.3361  1.2763  0.5100
  921MOL0     H24294   7.622   9.587  10.386 -2.2404  0.7949  0.4288
  921MOL0     H24295   7.461   9.199  10.483 -2.0288 -0.2303  0.0919
  921MOL0     H24296   7.403   9.158  10.701  3.1163 -2.7726 -3.0841
  921MOL0     H24297   7.284   9.358  11.117  2.6682 -1.5137 -2.5683
  921MOL0     H24298   7.143   9.302  11.314  0.1425  0.8438 -0.0427
  921MOL0     H24299   6.929   8.896  11.368  0.0424 -0.6602 -2.9011
  921MOL0     H24300   6.876   9.055  11.425  0.9443  1.1495 -1.1187
  921MOL0     H24301   6.907   9.136  11.183 -1.7790  1.0652  3.6181
  921MOL0     H24302   6.898   8.970  11.133  2.9290  2.3804 -2.1256
  921MOL0     H24303   6.677   8.946  11.287 -2.0995  2.3190  3.1993
  921MOL0     H24304   6.686   9.125  11.314 -0.0342 -0.2397  0.8771
  921MOL0     H24305   6.682   9.019  11.041 -3.1341 -3.6520  1.7632
  921MOL0     H24306   6.652   9.181  11.084 -1.4482  0.9535 -0.0382
  921MOL0     H24307   6.433   9.120  11.159  3.1720  1.4549  0.3938
  921MOL0     H24308   6.470   8.948  11.195 -2.6439 -0.2472 -0.4285
  921MOL0     H24309   6.467   9.068  10.926 -2.8944 -0.4315 -1.5740
  921MOL0     H24310   6.529   8.908  10.954 -0.8058 -1.5240 -0.6945
  921MOL0     H24311   6.251   9.032  11.008 -2.5128 -1.9218 -0.6385
  921MOL0     H24312   6.282   8.880  11.079 -2.7753 -0.7767 -1.7483
  921MOL0     H24313   6.331   8.768  10.852  0.5767  0.1811 -1.3705
  921MOL0     H24314   6.166   8.825  10.870  0.1487  0.2506  0.3176
  921MOL0     H24315   7.175   8.890  11.194  1.6299 -1.3617 -0.1659
  921MOL0     H24316   7.299   8.948  11.004  2.4078  2.6310 -1.4709
  921MOL0     H24317   7.651   9.492  10.826 -0.2658 -1.2010  1.2517
  921MOL0     H24318   7.703   9.530  10.580 -2.3116  0.7082 -1.9211
  921MOL0     H24319   7.418  10.974   9.488  1.9860  1.7800  0.5949
  921MOL0     H24320   7.325  11.112   9.644 -0.1635 -0.9457 -0.9912
  921MOL0     H24321   7.313  11.451   9.887  1.1836 -1.3433 -0.2013
  921MOL0     H24322   7.188  11.583  10.041  0.7773 -0.7692 -3.1656
  921MOL0     H24323   7.184  11.713  10.216  0.2512 -1.1053 -2.4672
  921MOL0     H24324   7.124  11.723  10.376 -1.9653 -0.9944  0.3681
  921MOL0     H24325   6.975  11.553  10.171 -0.4801 -0.1895  1.7332
  921MOL0     H24326   6.941  11.726  10.187  1.4971  0.9102 -0.4539
  921MOL0     H24327   6.870  11.691  10.418 -0.1743 -1.4552  0.2445
  921MOL0     H24328   6.930  11.532  10.423 -0.8268  0.2755  2.0630
  921MOL0     H24329   6.741  11.467  10.264 -2.6966  0.8120 -0.5411
  921MOL0     H24330   6.698  11.550  10.415  1.7966 -1.0483  0.6263
  921MOL0     H24331   6.565  11.837  10.142  0.9288 -0.3166 -1.4128
  921MOL0     H24332   7.294  11.316  10.366 -2.6157 -1.0659 -0.3294
  921MOL0     H24333   7.377  11.047  10.160 -2.5088  0.8358  2.2595
  921MOL0     H24334   7.547  11.115  10.176  0.3767  2.8659 -0.5841
  921MOL0     H24335   7.422  11.101  10.307 -1.7821  0.0767  0.1334
  922MOL0     O24336   2.234   9.777  10.620  0.1438 -0.1908 -0.4402
  922MOL0     C24337   2.178   9.837  10.529  0.6287  0.7046  0.1855
  922MOL0     O24338   2.237   9.919  10.443  0.6230  0.5643  0.0493
  922MOL0     C24339   2.361   9.892  10.386  0.6901 -0.7100 -1.1257
  922MOL0     C24340   2.442  10.000  10.340  1.1109 -0.2061 -0.5827
  922MOL0     C24341   2.561   9.976  10.274 -0.2399  0.7243  0.3380
  922MOL0     C24342   2.611   9.844  10.282  0.3320  0.4027  0.4813
  922MOL0     O24343   2.730   9.825  10.219  0.4834 -0.1340 -0.1051
  922MOL0     C24344   2.844   9.792  10.303  0.3970  0.6129 -0.0654
  922MOL0     C24345   2.969   9.837  10.224 -0.6852  0.8168 -0.1966
  922MOL0     C24346   3.005   9.985  10.234  0.6056  0.7897  1.3512
  922MOL0     C24347   3.085  10.006  10.355  0.4202 -0.3615 -1.1155
  922MOL0     C24348   3.153  10.143  10.362  0.2289  0.2405 -0.5705
  922MOL0     C24349   3.051  10.253  10.400 -1.2210 -0.0142  0.5017
  922MOL0     C24350   3.105  10.398  10.424 -0.3654  0.0230  0.0968
  922MOL0     C24351   3.185  10.452  10.304 -0.0723 -0.5409 -0.7768
  922MOL0     N24352   3.099  10.450  10.187  0.7332 -0.0307 -0.5470
  922MOL0     C24353   3.028  10.560  10.134 -0.1458  0.6107 -0.6003
  922MOL0     C24354   2.989  10.516  10.010  0.6488 -0.4553  0.4336
  922MOL0     C24355   2.925  10.599   9.902  0.6709  0.3725  0.7996
  922MOL0     C24356   3.027  10.703   9.846  1.3211  0.0012 -0.0668
  922MOL0     C24357   2.957  10.780   9.737  1.5663 -0.4685  0.2756
  922MOL0     C24358   3.062  10.869   9.688 -0.8583  0.5748 -0.4145
  922MOL0     O24359   3.014  10.930   9.573  0.0676 -0.2689  0.2287
  922MOL0     C24360   3.102  10.991   9.479  0.5242  0.4935  0.4036
  922MOL0     C24361   3.047  11.067   9.378 -0.2864  0.4261 -0.4673
  922MOL0     C24362   3.110  11.124   9.273  0.2372  0.1862  1.1669
  922MOL0     C24363   3.246  11.102   9.259 -0.2266 -0.5898  0.1368
  922MOL0     C24364   3.325  11.167   9.154 -0.0303 -0.3896  0.6842
  922MOL0     O24365   3.263  11.273   9.076  0.1335  0.0530  0.6348
  922MOL0     C24366   3.346  11.329   8.983 -0.0815 -0.1410  0.1240
  922MOL0     C24367   3.348  11.468   8.973  0.1656 -0.1312 -0.4071
  922MOL0     C24368   3.449  11.532   8.887 -0.4138  0.3919  1.9558
  922MOL0     C24369   3.522  11.446   8.801 -0.0325  0.0262 -0.2653
  922MOL0     O24370   3.615  11.504   8.714  0.6784  0.7917 -0.6570
  922MOL0     C24371   3.721  11.423   8.659 -0.0090 -0.4267 -1.1273
  922MOL0     C24372   3.859  11.496   8.653 -0.5825 -0.0656  0.1008
  922MOL0     C24373   3.937  11.521   8.784 -2.0115 -0.0251  0.2325
  922MOL0     C24374   3.865  11.621   8.877  0.1829  0.1625 -0.2078
  922MOL0     C24375   3.954  11.690   8.980  1.1780 -0.0690  0.3564
  922MOL0     C24376   4.045  11.806   8.910 -0.1746 -0.1838 -0.5122
  922MOL0     C24377   4.141  11.889   8.992  0.8309 -0.0000 -0.5110
  922MOL0     C24378   4.205  12.003   8.913 -0.5776  0.4493 -0.1575
  922MOL0    Cl24379   4.087  12.140   8.881  0.7072 -0.3927  0.2432
  922MOL0     C24380   3.486  11.307   8.795 -0.6667  0.5170 -0.2268
  922MOL0     C24381   3.407  11.249   8.889 -0.8681  0.2093 -1.2359
  922MOL0     O24382   3.431  11.113   9.129  0.5434 -0.0518  0.7198
  922MOL0     C24383   3.312  11.023   9.354  0.3881 -0.4340 -0.6115
  922MOL0     C24384   3.236  10.971   9.459 -0.8830 -0.4010  0.3449
  922MOL0     N24385   3.037  10.390   9.978  0.2025 -0.8414 -1.3830
  922MOL0     N24386   3.097  10.347  10.089 -0.2450 -0.2416 -0.5489
  922MOL0     C24387   2.536   9.739  10.336 -1.0517  0.0478 -0.1963
  922MOL0     C24388   2.414   9.768  10.385 -0.8200  1.2838 -0.1668
  922MOL0     C24389   2.030   9.839  10.535  1.0024 -0.8693  0.2524
  922MOL0     C24390   1.964   9.863  10.656 -0.7640 -0.0580  0.1108
  922MOL0     C24391   1.826   9.851  10.671 -0.1541 -0.6880  0.1202
  922MOL0     C24392   1.749   9.823  10.564  0.4865 -1.4421 -0.2706
  922MOL0     O24393   1.615   9.839  10.567 -0.3161  0.5172  0.3504
  922MOL0     C24394   1.566   9.963  10.506 -0.5735  0.4642 -0.2933
  922MOL0     C24395   1.434   9.934  10.438 -0.8747 -0.0684 -0.9687
  922MOL0     C24396   1.324   9.875  10.531  0.0122 -0.1075  1.0697
  922MOL0     C24397   1.294   9.731  10.482 -0.2417 -0.3464  0.9687
  922MOL0     C24398   1.187   9.661  10.552  0.7605  0.1353 -0.1616
  922MOL0     C24399   1.109   9.595  10.614 -0.0431  0.2474 -0.2708
  922MOL0     C24400   1.807   9.811  10.434  0.2957  0.2491  0.3732
  922MOL0     C24401   1.948   9.813  10.420  0.3067  1.6840 -0.7529
  922MOL0     C24402   2.002   9.783  10.283  0.3297  0.5649 -0.3006
  922MOL0     H24403   2.407  10.099  10.364 -0.8373 -1.0008  0.0809
  922MOL0     H24404   2.620  10.051  10.223 -1.6676  1.5110 -0.2168
  922MOL0     H24405   2.842   9.833  10.404 -2.7808 -2.9525  1.5936
  922MOL0     H24406   2.850   9.686  10.331 -0.0982  1.5899  4.5225
  922MOL0     H24407   2.952   9.817  10.117 -1.0643  1.8353 -0.3327
  922MOL0     H24408   3.047   9.772  10.264 -0.1267  2.1791  0.9643
  922MOL0     H24409   2.914  10.045  10.229  0.2179  0.2024  1.2762
  922MOL0     H24410   3.066  10.011  10.147  1.4713  0.5269  1.8695
  922MOL0     H24411   3.024   9.999  10.446  0.1451 -0.9310 -1.3342
  922MOL0     H24412   3.171   9.940  10.339  0.4083 -0.2426 -1.6644
  922MOL0     H24413   3.233  10.141  10.436  0.4222  1.9771 -0.7054
  922MOL0     H24414   3.179  10.169  10.259  0.3386  0.7273 -0.4214
  922MOL0     H24415   2.980  10.277  10.321 -0.5598  2.7215  0.6336
  922MOL0     H24416   2.994  10.224  10.489 -1.3833 -1.3017  0.0047
  922MOL0     H24417   3.169  10.398  10.513 -0.2610 -0.7550  0.0254
  922MOL0     H24418   3.024  10.466  10.451 -1.6780 -0.6391 -1.8992
  922MOL0     H24419   3.233  10.543  10.342 -1.9072 -0.4726  1.5928
  922MOL0     H24420   3.260  10.374  10.283  0.3639 -0.7295  1.2495
  922MOL0     H24421   3.019  10.664  10.161 -0.9018  0.3509  0.1819
  922MOL0     H24422   2.893  10.537   9.818  4.0296  3.0780 -2.8297
  922MOL0     H24423   2.845  10.662   9.944  0.9047  2.7287 -1.9773
  922MOL0     H24424   3.055  10.776   9.922 -2.8944  0.5194  1.2778
  922MOL0     H24425   3.114  10.650   9.805  1.4233  1.7230 -2.2745
  922MOL0     H24426   2.875  10.845   9.769  2.1899  1.7757 -2.2971
  922MOL0     H24427   2.917  10.715   9.658 -0.1847 -1.6739  2.0517
  922MOL0     H24428   3.155  10.814   9.668 -0.5648  1.5590 -1.9303
  922MOL0     H24429   3.092  10.937   9.768 -0.0677 -0.3326  0.0804
  922MOL0     H24430   2.941  11.086   9.387 -1.2285 -4.2280  0.8847
  922MOL0     H24431   3.075  11.184   9.190  1.2239  1.5744  1.7231
  922MOL0     H24432   3.285  11.522   9.043 -0.9454  0.2731 -1.6740
  922MOL0     H24433   3.453  11.640   8.878  1.1177  0.1941 -5.2601
  922MOL0     H24434   3.745  11.336   8.720  0.0144 -2.1441 -3.4579
  922MOL0     H24435   3.697  11.384   8.559  1.6300 -0.2713 -1.6107
  922MOL0     H24436   3.925  11.453   8.577  0.7394  0.4665  0.9097
  922MOL0     H24437   3.833  11.597   8.619  0.2178  0.6740  1.6010
  922MOL0     H24438   3.939  11.424   8.835 -0.8474  0.5181  1.2725
  922MOL0     H24439   4.037  11.555   8.755 -2.5154  0.4442 -1.0233
  922MOL0     H24440   3.786  11.565   8.929 -1.3058  1.0395 -1.4523
  922MOL0     H24441   3.830  11.707   8.820  1.6973  1.3854  0.6477
  922MOL0     H24442   4.016  11.618   9.034  1.7329  0.0389 -0.1204
  922MOL0     H24443   3.892  11.744   9.052  1.7834 -0.4472  1.1715
  922MOL0     H24444   4.099  11.748   8.834 -0.2978  2.6013 -2.8866
  922MOL0     H24445   3.977  11.877   8.862 -0.8112 -0.0324  0.5966
  922MOL0     H24446   4.221  11.827   9.033  1.2257  0.0622 -1.1759
  922MOL0     H24447   4.091  11.925   9.083  3.2682 -0.3170  1.0389
  922MOL0     H24448   4.282  12.043   8.978 -0.5447 -0.2363  0.2321
  922MOL0     H24449   4.252  11.954   8.827 -0.7294 -1.6729  0.8949
  922MOL0     H24450   3.540  11.242   8.727  0.4681  0.5425  0.6155
  922MOL0     H24451   3.380  11.144   8.881  0.8373 -0.4273  0.4670
  922MOL0     H24452   3.420  11.007   9.356  0.2520 -1.4180 -0.6425
  922MOL0     H24453   3.299  10.927   9.536 -0.7726 -0.3605  0.2778
  922MOL0     H24454   2.580   9.640  10.335 -0.5074  0.2630 -2.1244
  922MOL0     H24455   2.358   9.683  10.423 -1.2210  2.5460  2.2311
  922MOL0     H24456   2.033   9.875  10.739 -0.7605  2.6002 -0.1977
  922MOL0     H24457   1.788   9.844  10.772  1.5718  0.7003  0.9279
  922MOL0     H24458   1.628   9.994  10.421 -1.5463 -0.1497 -1.2443
  922MOL0     H24459   1.568  10.041  10.583 -0.4104 -0.2854  0.4751
  922MOL0     H24460   1.443   9.865  10.353 -1.4437  1.2179 -2.1289
  922MOL0     H24461   1.414  10.037  10.406  2.1696 -0.0779 -3.3201
  922MOL0     H24462   1.236   9.940  10.525  1.1038  1.3140 -1.3426
  922MOL0     H24463   1.361   9.883  10.634  0.0555  3.0055  0.9321
  922MOL0     H24464   1.282   9.739  10.374 -0.5180  4.2842  1.1426
  922MOL0     H24465   1.381   9.673  10.514 -1.2672 -2.2493  0.4635
  922MOL0     H24466   1.041   9.529  10.665 -2.3337  1.1555 -2.0098
  922MOL0     H24467   1.739   9.800  10.350  2.5556  0.3490 -1.5787
  922MOL0     H24468   2.093   9.835  10.249  0.4212  0.2148 -0.6029
  922MOL0     H24469   2.004   9.674  10.268 -0.6403  0.4473  0.3608
  922MOL0     H24470   1.935   9.832  10.212  3.2287  2.3050 -2.0801
  923MOL0     O24471   0.727   6.153   0.475 -0.4484 -0.3975 -0.1153
  923MOL0     C24472   0.721   6.223   0.372  1.0102 -0.2135 -0.2291
  923MOL0     O24473   0.704   6.356   0.368 -0.9089 -0.1801 -0.5209
  923MOL0     C24474   0.663   6.416   0.479  1.0428  0.4769 -0.7449
  923MOL0     C24475   0.539   6.399   0.536  0.3895 -0.4819 -1.0032
  923MOL0     C24476   0.490   6.472   0.646  0.1942  0.3392  1.1976
  923MOL0     C24477   0.580   6.555   0.713 -0.0301  0.7456  0.4796
  923MOL0     O24478   0.566   6.616   0.834  0.3664 -0.4985 -0.0651
  923MOL0     C24479   0.469   6.559   0.926 -0.9788  0.5089  0.9467
  923MOL0     C24480   0.458   6.632   1.060  1.0058  0.1707  1.0147
  923MOL0     C24481   0.577   6.605   1.154 -0.3036  1.0857  0.0464
  923MOL0     C24482   0.547   6.610   1.302  0.0596 -0.0637  0.5336
  923MOL0     C24483   0.674   6.585   1.393 -0.3515  0.0680 -0.8313
  923MOL0     C24484   0.780   6.694   1.359  0.4045  0.3502 -0.1150
  923MOL0     C24485   0.898   6.667   1.445  0.2287  1.0752 -1.0035
  923MOL0     C24486   0.983   6.784   1.448 -0.3291  0.7491 -0.0007
  923MOL0     N24487   0.987   6.823   1.589  0.4594 -0.5311  0.6356
  923MOL0     C24488   0.887   6.898   1.650 -0.1224 -0.8072 -0.2622
  923MOL0     C24489   0.948   6.935   1.767 -0.7052  0.1782 -0.3330
  923MOL0     C24490   0.888   7.031   1.863 -0.8838 -0.2267 -0.2269
  923MOL0     C24491   0.830   6.954   1.982  0.1030  0.8955  0.2473
  923MOL0     C24492   0.758   7.037   2.087 -0.2993  1.1618  0.3252
  923MOL0     C24493   0.690   6.960   2.209 -0.2337 -0.8807  0.7081
  923MOL0     O24494   0.620   6.848   2.151  0.3308  0.5132  0.8932
  923MOL0     C24495   0.583   6.731   2.214 -0.2320  0.0473 -0.1276
  923MOL0     C24496   0.588   6.708   2.351  0.6120 -0.0735  0.5696
  923MOL0     C24497   0.585   6.572   2.400 -0.2028  0.5160  0.2147
  923MOL0     C24498   0.549   6.473   2.306  0.0757  0.7681 -0.3756
  923MOL0     C24499   0.571   6.328   2.345  0.3851  0.0122  0.1725
  923MOL0     O24500   0.605   6.297   2.474  0.3188 -0.4199 -0.0681
  923MOL0     C24501   0.653   6.178   2.530 -0.1471 -0.0914  0.2399
  923MOL0     C24502   0.663   6.169   2.673 -0.2869  0.6213  0.2896
  923MOL0     C24503   0.693   6.048   2.736 -0.4215 -0.1345  0.2712
  923MOL0     C24504   0.722   5.935   2.665  0.0895  0.2206 -0.8934
  923MOL0     O24505   0.764   5.821   2.734 -0.4264  0.0108 -0.9137
  923MOL0     C24506   0.678   5.761   2.829 -0.1549 -0.0926  0.5420
  923MOL0     C24507   0.722   5.622   2.849  0.5870  0.4919 -0.1087
  923MOL0     C24508   0.844   5.623   2.938 -0.1080  0.8436 -0.6197
  923MOL0     C24509   0.897   5.474   2.935 -0.4076  0.4760  0.0672
  923MOL0     C24510   0.994   5.454   3.054  0.4853  0.3923 -0.6668
  923MOL0     C24511   0.914   5.439   3.187  0.1375  0.3765 -0.6960
  923MOL0     C24512   0.993   5.456   3.312 -1.8826 -0.2890  0.2756
  923MOL0     C24513   1.085   5.327   3.336 -0.0958 -0.1797 -0.3093
  923MOL0    Cl24514   1.200   5.351   3.469  0.5431 -0.1240  0.3208
  923MOL0     C24515   0.735   5.945   2.532 -0.3660  0.0041  0.3478
  923MOL0     C24516   0.696   6.063   2.465  0.2120 -0.6429  0.0667
  923MOL0     O24517   0.566   6.242   2.260  0.6339  0.3177 -0.3007
  923MOL0     C24518   0.506   6.504   2.173 -0.5348  0.2029 -0.2522
  923MOL0     C24519   0.527   6.635   2.124 -0.2151  1.2804 -0.0233
  923MOL0     N24520   1.081   6.892   1.765  0.0379  0.2940 -1.1314
  923MOL0     N24521   1.110   6.822   1.661 -0.4265 -0.3291 -0.0367
  923MOL0     C24522   0.699   6.580   0.644  0.4279  0.1705  0.4748
  923MOL0     C24523   0.736   6.516   0.528 -0.4687 -0.8815 -0.3975
  923MOL0     C24524   0.743   6.155   0.246 -0.0693  0.3078 -0.5714
  923MOL0     C24525   0.866   6.092   0.236  1.1414  0.4394 -0.3594
  923MOL0     C24526   0.891   6.023   0.117 -0.8670 -1.5963  0.2316
  923MOL0     C24527   0.806   6.024   0.006  0.6624 -0.2204  0.4113
  923MOL0     O24528   0.832   5.959  -0.109 -0.2987 -0.2563  0.7178
  923MOL0     C24529   0.844   5.817  -0.097  0.2388  0.8458 -0.2022
  923MOL0     C24530   0.777   5.758  -0.226  0.3720  1.0385 -0.6486
  923MOL0     C24531   0.775   5.599  -0.208  0.6631  0.4528 -0.4602
  923MOL0     C24532   0.744   5.529  -0.336  0.7795 -0.1826  1.4946
  923MOL0     C24533   0.704   5.384  -0.313 -1.0958 -0.0271 -0.6927
  923MOL0     C24534   0.675   5.261  -0.315 -0.1878 -1.0966 -0.6446
  923MOL0     C24535   0.681   6.076   0.018  0.3265 -0.1466 -0.0194
  923MOL0     C24536   0.647   6.146   0.140 -0.2147  0.7819 -0.1919
  923MOL0     C24537   0.511   6.208   0.158  0.5241 -0.0616 -1.0070
  923MOL0     H24538   0.467   6.332   0.490 -1.3162 -0.6878  1.7523
  923MOL0     H24539   0.386   6.456   0.671 -0.1264  1.3633  0.5687
  923MOL0     H24540   0.372   6.557   0.875 -1.2263  0.9325  1.3843
  923MOL0     H24541   0.500   6.455   0.933  0.0748  0.9181  3.2225
  923MOL0     H24542   0.365   6.604   1.111  0.2013 -1.4754 -1.2046
  923MOL0     H24543   0.451   6.739   1.040  0.3470 -0.3579 -2.1082
  923MOL0     H24544   0.658   6.669   1.119 -0.1472  0.6260 -0.4459
  923MOL0     H24545   0.613   6.503   1.138  0.4847  1.8147 -3.7088
  923MOL0     H24546   0.513   6.712   1.318 -0.6396  0.6588 -4.1413
  923MOL0     H24547   0.464   6.542   1.323 -1.8139  1.8077 -0.4849
  923MOL0     H24548   0.633   6.596   1.494 -2.5602 -2.2564 -1.3811
  923MOL0     H24549   0.723   6.487   1.404 -0.5328  0.0197 -0.4160
  923MOL0     H24550   0.799   6.699   1.251 -2.1424 -0.3160 -0.6444
  923MOL0     H24551   0.728   6.788   1.380 -3.0096 -1.0874 -1.4455
  923MOL0     H24552   0.953   6.581   1.405 -1.4813  1.0117 -3.3838
  923MOL0     H24553   0.865   6.640   1.546  0.6496 -2.2010 -1.6229
  923MOL0     H24554   1.083   6.761   1.409 -0.7604 -3.1043  0.8442
  923MOL0     H24555   0.944   6.864   1.384 -1.2830  0.1140 -0.2345
  923MOL0     H24556   0.781   6.909   1.629  0.3351  0.2960 -2.2566
  923MOL0     H24557   0.971   7.098   1.885  0.6975 -2.6396  1.7079
  923MOL0     H24558   0.813   7.100   1.825  1.6307  3.4048  0.8759
  923MOL0     H24559   0.757   6.879   1.950 -0.1543  0.2340  2.2407
  923MOL0     H24560   0.912   6.923   2.047  2.1691  3.7585 -0.7921
  923MOL0     H24561   0.683   7.089   2.027  0.5840 -0.7093 -2.6132
  923MOL0     H24562   0.826   7.112   2.127 -0.4848  1.7876 -0.4954
  923MOL0     H24563   0.622   7.031   2.258 -1.7424 -1.2699 -0.7120
  923MOL0     H24564   0.760   6.920   2.283 -0.3586 -1.0289  0.7476
  923MOL0     H24565   0.614   6.786   2.422  0.4620 -2.1073  2.9912
  923MOL0     H24566   0.613   6.549   2.502 -3.2715  1.7263  1.4348
  923MOL0     H24567   0.639   6.258   2.731 -0.2627  0.3997  0.6427
  923MOL0     H24568   0.706   6.036   2.843  3.4532 -0.7766 -0.1090
  923MOL0     H24569   0.682   5.815   2.924 -0.8429 -3.3953  2.5891
  923MOL0     H24570   0.579   5.772   2.784  0.6231 -0.2520 -1.3160
  923MOL0     H24571   0.640   5.563   2.890  0.4748 -0.2723 -1.3529
  923MOL0     H24572   0.745   5.583   2.749  0.6031 -0.5307  0.2772
  923MOL0     H24573   0.928   5.686   2.909 -0.7889  1.4856 -1.2110
  923MOL0     H24574   0.803   5.644   3.037  1.5134  4.3227 -0.5482
  923MOL0     H24575   0.956   5.443   2.848 -0.5153  0.4470  0.0043
  923MOL0     H24576   0.815   5.401   2.940 -0.4146  0.5364  1.0100
  923MOL0     H24577   1.084   5.515   3.068 -1.4219  2.8897  2.3326
  923MOL0     H24578   1.034   5.353   3.046 -0.5835 -0.0450 -0.7114
  923MOL0     H24579   0.836   5.514   3.202 -2.2366 -2.3169  1.7439
  923MOL0     H24580   0.857   5.346   3.187 -0.3803  0.6491  1.0533
  923MOL0     H24581   0.927   5.469   3.398  0.6268 -1.9760  2.6133
  923MOL0     H24582   1.061   5.540   3.295 -0.1121 -1.9017 -1.1416
  923MOL0     H24583   1.021   5.242   3.361 -0.4392 -0.6632 -2.6195
  923MOL0     H24584   1.138   5.303   3.243 -2.9274  1.7960 -2.6303
  923MOL0     H24585   0.752   5.862   2.464  0.6693  0.3551  0.1676
  923MOL0     H24586   0.699   6.066   2.357  1.9379  0.9904  0.1059
  923MOL0     H24587   0.467   6.425   2.110  0.6845 -1.2667  0.7447
  923MOL0     H24588   0.504   6.655   2.020  2.7285 -3.8290 -2.0305
  923MOL0     H24589   0.760   6.663   0.678 -2.2686  2.3381  0.3952
  923MOL0     H24590   0.833   6.539   0.485 -1.2928  2.2561 -0.8258
  923MOL0     H24591   0.940   6.090   0.315  0.5349 -2.1576  0.2312
  923MOL0     H24592   0.988   5.979   0.097  0.2519 -0.5038  2.8932
  923MOL0     H24593   0.807   5.773  -0.004  0.8592  1.7331  0.4845
  923MOL0     H24594   0.951   5.797  -0.100  0.0817  0.0214 -0.8965
  923MOL0     H24595   0.830   5.785  -0.318 -0.4756 -1.9304 -2.1771
  923MOL0     H24596   0.671   5.781  -0.238  0.2142 -0.4040 -2.5839
  923MOL0     H24597   0.690   5.579  -0.143  0.5372  0.4537 -0.6242
  923MOL0     H24598   0.869   5.567  -0.162 -0.6847  0.2864  2.3520
  923MOL0     H24599   0.655   5.576  -0.381  1.3880 -0.3096  0.1000
  923MOL0     H24600   0.829   5.529  -0.404  0.0965  2.3773  0.5254
  923MOL0     H24601   0.638   5.161  -0.321 -1.5652 -0.5754 -1.6331
  923MOL0     H24602   0.605   6.057  -0.056 -0.3171  0.3723  0.4890
  923MOL0     H24603   0.443   6.144   0.215  0.7000  2.8639  2.8678
  923MOL0     H24604   0.514   6.308   0.203 -0.0452 -0.2730 -0.4811
  923MOL0     H24605   0.462   6.226   0.062 -0.2945  2.1331 -0.2396
  924MOL0     O24606   5.808   9.482   9.175  0.0653  0.4276 -0.5219
  924MOL0     C24607   5.883   9.562   9.228 -0.3195  0.5946  0.0571
  924MOL0     O24608   5.865   9.607   9.351 -0.7532  0.6137 -0.6043
  924MOL0     C24609   5.748   9.593   9.426  0.0961 -0.3156 -0.3339
  924MOL0     C24610   5.659   9.694   9.422  0.3530  0.1324 -0.4562
  924MOL0     C24611   5.537   9.681   9.486 -0.3373  0.8959  0.9300
  924MOL0     C24612   5.502   9.566   9.560 -0.5761 -0.6123  1.4399
  924MOL0     O24613   5.387   9.558   9.623  0.4718 -0.5956 -1.0191
  924MOL0     C24614   5.310   9.442   9.600  0.1393  0.0023  0.0195
  924MOL0     C24615   5.169   9.457   9.658 -0.5926 -0.4004 -0.0044
  924MOL0     C24616   5.086   9.321   9.646 -0.0427 -0.1246 -0.1333
  924MOL0     C24617   4.946   9.338   9.593 -0.0550 -0.2815 -0.0097
  924MOL0     C24618   4.840   9.225   9.638  0.6163 -0.6907 -0.5066
  924MOL0     C24619   4.796   9.141   9.523  0.5282 -0.4050  0.2450
  924MOL0     C24620   4.648   9.101   9.543 -0.1563 -0.4803 -0.2012
  924MOL0     C24621   4.590   9.040   9.416  0.4705 -0.7272 -0.4542
  924MOL0     N24622   4.451   9.041   9.434  0.8560 -0.0571 -0.3225
  924MOL0     C24623   4.363   9.127   9.371 -0.2034  0.3625 -0.3944
  924MOL0     C24624   4.241   9.090   9.411  0.3895  0.2043 -0.9307
  924MOL0     C24625   4.097   9.144   9.367 -1.0577  0.6544 -0.0100
  924MOL0     C24626   4.008   9.031   9.318  0.8696 -0.1769 -0.9297
  924MOL0     C24627   3.872   9.095   9.267  0.2311  0.5144 -0.1501
  924MOL0     C24628   3.771   8.996   9.204 -0.4746 -0.0761 -0.1048
  924MOL0     O24629   3.655   9.060   9.157  0.6255  0.2191 -0.1952
  924MOL0     C24630   3.541   9.033   9.228 -0.1757  0.8258  0.2724
  924MOL0     C24631   3.511   8.928   9.324  0.1973  0.1944 -0.5758
  924MOL0     C24632   3.381   8.908   9.388 -0.2886  0.0650  0.5337
  924MOL0     C24633   3.282   9.002   9.368 -0.6119 -1.1335  1.0342
  924MOL0     C24634   3.153   8.990   9.440  0.3274  0.7400 -0.5926
  924MOL0     O24635   3.073   9.099   9.441  0.4776  0.3692  0.1965
  924MOL0     C24636   2.945   9.097   9.495 -0.0096 -0.4653  0.2269
  924MOL0     C24637   2.897   9.208   9.564 -0.6408  0.2555  0.0315
  924MOL0     C24638   2.769   9.202   9.622  1.2320  0.4276 -0.4298
  924MOL0     C24639   2.682   9.099   9.596  0.0306 -0.1887  0.4894
  924MOL0     O24640   2.559   9.099   9.655 -0.6171 -0.6071 -0.2143
  924MOL0     C24641   2.549   9.017   9.769 -1.1783 -0.9789 -0.2560
  924MOL0     C24642   2.414   9.034   9.842  0.0486 -0.1597 -0.1417
  924MOL0     C24643   2.311   8.953   9.772  0.6448  0.5210 -0.5786
  924MOL0     C24644   2.213   8.896   9.866  0.3158  0.2144 -0.4846
  924MOL0     C24645   2.095   8.984   9.884  0.5631 -0.2185 -0.0318
  924MOL0     C24646   1.999   8.939   9.988 -0.1671 -0.5524  0.2272
  924MOL0     C24647   1.889   9.042  10.009  0.0460  0.0238 -0.6139
  924MOL0     C24648   1.792   9.013  10.116  0.9159  0.4701 -0.1087
  924MOL0    Cl24649   1.673   9.144  10.138  0.0309  0.0966 -0.3398
  924MOL0     C24650   2.721   8.992   9.516 -0.0627  0.1223 -0.3565
  924MOL0     C24651   2.852   8.994   9.471 -0.4543 -0.0974  0.1004
  924MOL0     O24652   3.128   8.881   9.491  0.8211 -0.2718 -0.8929
  924MOL0     C24653   3.302   9.112   9.281 -0.2707  0.8584 -0.1855
  924MOL0     C24654   3.433   9.122   9.216 -0.0970 -0.2811 -0.3512
  924MOL0     N24655   4.260   8.977   9.490  0.4525 -0.3519 -0.4857
  924MOL0     N24656   4.385   8.947   9.499  0.5748 -0.3962  0.3624
  924MOL0     C24657   5.611   9.466   9.565  0.8968 -0.2860 -1.3239
  924MOL0     C24658   5.732   9.478   9.506  1.0854 -1.3736  0.8450
  924MOL0     C24659   5.996   9.601   9.134 -0.1722 -0.6421 -0.9362
  924MOL0     C24660   6.011   9.566   8.995  0.7454 -0.5855  0.8174
  924MOL0     C24661   6.130   9.584   8.926 -0.1702 -0.3916  0.7221
  924MOL0     C24662   6.231   9.662   8.979  0.2437 -0.6419 -0.0280
  924MOL0     O24663   6.350   9.688   8.901 -0.1766 -0.2383 -0.3897
  924MOL0     C24664   6.468   9.737   8.968 -0.6804  0.4260 -0.2778
  924MOL0     C24665   6.568   9.771   8.862 -0.1272 -0.0600  0.5791
  924MOL0     C24666   6.517   9.885   8.778 -0.8860  0.1753 -0.5148
  924MOL0     C24667   6.494  10.009   8.863  1.1796  0.6032 -0.1387
  924MOL0     C24668   6.357  10.027   8.923 -0.2585  0.3112  0.0221
  924MOL0     C24669   6.245  10.041   8.965 -0.4993 -0.6726  0.0072
  924MOL0     C24670   6.213   9.719   9.103  0.4307 -0.3517 -0.1219
  924MOL0     C24671   6.100   9.689   9.179 -0.2663 -0.5196  0.3076
  924MOL0     C24672   6.075   9.766   9.311 -0.8358  0.2449  0.0696
  924MOL0     H24673   5.669   9.778   9.355 -0.9255 -0.1280 -1.0059
  924MOL0     H24674   5.450   9.744   9.480 -1.4394 -0.5871  0.7275
  924MOL0     H24675   5.294   9.420   9.494 -0.2932 -0.1289  0.1105
  924MOL0     H24676   5.354   9.352   9.643  0.0528 -0.5743 -1.0623
  924MOL0     H24677   5.117   9.539   9.607 -0.8198 -0.3898  0.2439
  924MOL0     H24678   5.185   9.480   9.763 -1.4119 -1.6577  0.4215
  924MOL0     H24679   5.093   9.279   9.747  1.4604 -0.8089 -0.4932
  924MOL0     H24680   5.140   9.249   9.584 -0.4444 -0.7002  0.1636
  924MOL0     H24681   4.921   9.430   9.645  0.2879 -0.2971  0.1847
  924MOL0     H24682   4.945   9.361   9.486  2.9901 -0.9922 -0.2796
  924MOL0     H24683   4.885   9.175   9.723  3.3520  4.5645  1.6100
  924MOL0     H24684   4.754   9.283   9.675  1.0805  0.2270 -0.8265
  924MOL0     H24685   4.797   9.208   9.437 -3.6373  0.2845  0.5449
  924MOL0     H24686   4.870   9.061   9.511 -1.9099 -2.9376  0.8516
  924MOL0     H24687   4.597   9.192   9.575  0.2856 -0.5348  0.7030
  924MOL0     H24688   4.653   9.027   9.624  0.0334 -1.3171 -0.9610
  924MOL0     H24689   4.610   9.095   9.324 -2.7048 -2.3380 -2.2575
  924MOL0     H24690   4.625   8.937   9.408 -1.2771 -1.5608  1.5960
  924MOL0     H24691   4.391   9.208   9.305  1.7920 -1.1809 -1.5409
  924MOL0     H24692   4.058   9.199   9.453  3.0401  1.3360  1.6443
  924MOL0     H24693   4.118   9.202   9.276  4.9943  0.9176  1.1182
  924MOL0     H24694   4.060   8.971   9.243  1.6183 -0.1873 -0.4128
  924MOL0     H24695   3.991   8.967   9.405  1.1484 -0.0023 -0.7432
  924MOL0     H24696   3.895   9.175   9.197  1.2256  1.3393  1.0975
  924MOL0     H24697   3.823   9.154   9.345  1.1731 -2.5369  3.0215
  924MOL0     H24698   3.753   8.911   9.270 -2.8435 -2.7680 -3.7938
  924MOL0     H24699   3.816   8.946   9.117  0.4732 -3.4158  2.0852
  924MOL0     H24700   3.591   8.855   9.335  0.4128  0.3984 -0.7834
  924MOL0     H24701   3.361   8.819   9.447 -0.5770 -0.5185 -0.4250
  924MOL0     H24702   2.961   9.292   9.588 -0.5643 -0.6028  3.2714
  924MOL0     H24703   2.733   9.291   9.674  0.3906  0.3069 -0.7915
  924MOL0     H24704   2.566   8.913   9.741  2.6993  0.2236 -3.2749
  924MOL0     H24705   2.624   9.055   9.839  0.7152  0.9369 -3.0869
  924MOL0     H24706   2.435   8.999   9.944  2.9643 -0.9908 -0.9157
  924MOL0     H24707   2.386   9.138   9.860  0.6977 -0.2553  1.7010
  924MOL0     H24708   2.269   9.012   9.690  1.3798  1.6515 -0.1594
  924MOL0     H24709   2.352   8.863   9.726 -0.8281 -0.7171  0.4408
  924MOL0     H24710   2.261   8.886   9.964  2.7198  1.7135 -1.4079
  924MOL0     H24711   2.174   8.801   9.827 -2.2668  1.4336 -1.0721
  924MOL0     H24712   2.046   8.994   9.786  1.5696 -0.2814 -0.5586
  924MOL0     H24713   2.128   9.082   9.921  1.0285 -0.4189  0.0941
  924MOL0     H24714   1.950   8.850   9.946 -0.7854  0.7042 -1.8277
  924MOL0     H24715   2.051   8.915  10.081 -1.8627 -1.8877  0.9068
  924MOL0     H24716   1.829   9.042   9.918 -0.9808 -0.9543  0.0294
  924MOL0     H24717   1.916   9.145  10.033  0.6584 -0.6345  1.9110
  924MOL0     H24718   1.731   8.923  10.102 -0.2807  1.0243  1.2918
  924MOL0     H24719   1.855   8.999  10.204  2.2010  3.1863 -0.5033
  924MOL0     H24720   2.650   8.913   9.493 -0.1007  0.5734 -1.8482
  924MOL0     H24721   2.892   8.915   9.408 -2.8512 -1.9422  0.7090
  924MOL0     H24722   3.218   9.178   9.262 -2.0125 -1.5838 -1.5132
  924MOL0     H24723   3.450   9.201   9.143 -1.0865 -0.1894 -0.4976
  924MOL0     H24724   5.610   9.383   9.634  2.3485  1.8060  1.4397
  924MOL0     H24725   5.817   9.411   9.506  0.3259 -2.3427  0.6690
  924MOL0     H24726   5.939   9.501   8.945 -0.8414 -0.0487  2.2736
  924MOL0     H24727   6.137   9.535   8.829  2.7351  0.5904  0.3276
  924MOL0     H24728   6.503   9.655   9.031 -0.2811 -0.0657 -1.1159
  924MOL0     H24729   6.445   9.823   9.031 -2.8397 -0.2504 -0.0519
  924MOL0     H24730   6.583   9.677   8.808 -2.4228 -0.7065  0.9722
  924MOL0     H24731   6.671   9.798   8.886 -0.4947  3.3092 -1.0599
  924MOL0     H24732   6.431   9.843   8.726  2.4137 -5.2584 -2.3661
  924MOL0     H24733   6.595   9.897   8.703 -1.3240  0.3548 -0.9484
  924MOL0     H24734   6.561  10.020   8.949 -0.5172 -2.2955  1.7079
  924MOL0     H24735   6.513  10.088   8.790  2.3049 -0.3206 -0.8905
  924MOL0     H24736   6.144  10.047   8.998 -1.5040 -0.7417 -2.8137
  924MOL0     H24737   6.286   9.782   9.151 -1.4766  0.3730  1.9880
  924MOL0     H24738   5.980   9.819   9.318 -0.4556  1.3952 -2.5181
  924MOL0     H24739   6.096   9.703   9.398  1.2753 -1.7294 -1.7321
  924MOL0     H24740   6.138   9.856   9.317 -2.6100  1.4518  1.5751
  925MOL0     O24741   8.483   0.179   4.843  0.1540  0.2020 -0.3387
  925MOL0     C24742   8.491   0.055   4.830  0.0158 -0.0094  0.4852
  925MOL0     O24743   8.605   0.001   4.815 -0.3769  0.4071  0.6253
  925MOL0     C24744   8.725   0.070   4.835 -0.5288  0.9863  0.8260
  925MOL0     C24745   8.770   0.128   4.714 -1.0670 -0.5146  0.2570
  925MOL0     C24746   8.892   0.197   4.711  0.1884  0.0553 -0.2538
  925MOL0     C24747   8.979   0.196   4.822  0.3904  0.1345  0.3896
  925MOL0     O24748   9.104   0.250   4.804 -0.0768  0.2982  0.4814
  925MOL0     C24749   9.194   0.248   4.915 -0.5827 -1.1810  1.4336
  925MOL0     C24750   9.326   0.322   4.860 -0.9447  1.2278  0.0050
  925MOL0     C24751   9.412   0.244   4.757 -0.3578 -0.3112 -0.0293
  925MOL0     C24752   9.558   0.219   4.797 -0.1704 -0.5701  0.0647
  925MOL0     C24753   9.633   0.157   4.679 -0.9279 -1.2823  0.3025
  925MOL0     C24754   9.751   0.070   4.735 -0.8306  0.4807 -0.2740
  925MOL0     C24755   9.695  -0.058   4.788  0.6321  0.0673  0.9665
  925MOL0     C24756   9.817  -0.156   4.789  0.4743 -0.0112  0.6333
  925MOL0     N24757   9.777  -0.297   4.810  0.5375 -0.6504 -0.4152
  925MOL0     C24758   9.844  -0.411   4.779 -0.3943  0.3024 -0.5187
  925MOL0     C24759   9.776  -0.507   4.845  0.0298  0.4076 -0.0530
  925MOL0     C24760   9.787  -0.653   4.831  0.2671 -0.2055 -0.2482
  925MOL0     C24761   9.884  -0.705   4.947  0.0942  1.2981  0.9229
  925MOL0     C24762   9.895  -0.855   4.945 -0.8919  0.4927 -0.1173
  925MOL0     C24763   9.763  -0.934   4.963 -0.8484  0.0701  0.2398
  925MOL0     O24764   9.718  -0.925   5.099 -0.5382  0.0778 -0.2710
  925MOL0     C24765   9.604  -0.990   5.126 -0.3701 -0.5188  1.4122
  925MOL0     C24766   9.600  -1.075   5.233 -0.2837  0.0197 -0.0490
  925MOL0     C24767   9.486  -1.141   5.265  0.8952 -0.1916  0.2171
  925MOL0     C24768   9.373  -1.130   5.187 -0.0261  0.5348  0.0815
  925MOL0     C24769   9.237  -1.181   5.233  1.1517 -0.4615 -0.1037
  925MOL0     O24770   9.125  -1.191   5.147 -0.2769 -0.8192  0.9081
  925MOL0     C24771   8.997  -1.220   5.187 -0.1222  0.1760 -0.6516
  925MOL0     C24772   8.901  -1.233   5.081  0.0861  0.0556 -0.2389
  925MOL0     C24773   8.769  -1.270   5.106  0.0496  0.2251 -0.5250
  925MOL0     C24774   8.729  -1.299   5.241 -0.0519 -0.7774  0.3362
  925MOL0     O24775   8.597  -1.294   5.256  0.6999 -0.1630 -0.1005
  925MOL0     C24776   8.553  -1.346   5.380 -0.2899 -0.4179  0.6928
  925MOL0     C24777   8.396  -1.364   5.365 -1.0472 -0.2811  0.6524
  925MOL0     C24778   8.343  -1.416   5.495  0.1228  0.2591 -1.1909
  925MOL0     C24779   8.194  -1.438   5.511 -0.4263  0.5452 -0.0109
  925MOL0     C24780   8.182  -1.539   5.631 -0.4381  0.2356  0.2706
  925MOL0     C24781   8.225  -1.471   5.758 -0.5315 -1.3893  0.4457
  925MOL0     C24782   8.156  -1.342   5.793  0.0830  0.3233 -0.1474
  925MOL0     C24783   8.170  -1.308   5.939 -0.1970 -0.6076 -0.3705
  925MOL0    Cl24784   8.336  -1.310   6.007 -0.2097 -0.4582  0.0636
  925MOL0     C24785   8.825  -1.283   5.344 -0.8397  0.3426 -0.8172
  925MOL0     C24786   8.962  -1.254   5.321 -0.1968  0.6035  0.0305
  925MOL0     O24787   9.243  -1.231   5.340  0.3122 -0.7955  0.6588
  925MOL0     C24788   9.382  -1.059   5.070  0.2590  0.2720 -0.2479
  925MOL0     C24789   9.494  -0.989   5.042 -0.5457 -0.8214  0.2213
  925MOL0     N24790   9.672  -0.454   4.920  0.1285 -0.2026 -0.3728
  925MOL0     N24791   9.678  -0.330   4.897  0.8190  0.1440 -0.6594
  925MOL0     C24792   8.929   0.137   4.944  0.8773  0.8153 -0.6629
  925MOL0     C24793   8.802   0.080   4.948  0.1350  0.6054  1.2056
  925MOL0     C24794   8.359  -0.016   4.832  0.3092  0.8829  0.1225
  925MOL0     C24795   8.281  -0.029   4.718  0.3457  0.4896  0.3130
  925MOL0     C24796   8.152  -0.103   4.723 -0.8967 -0.4509  0.2676
  925MOL0     C24797   8.101  -0.147   4.843 -1.2822 -0.1617  0.5792
  925MOL0     O24798   7.980  -0.209   4.844  0.0456  0.7235  0.3301
  925MOL0     C24799   7.912  -0.231   4.973 -0.4721  1.0760  0.5162
  925MOL0     C24800   7.764  -0.239   4.939  0.8497 -1.0612  0.1728
  925MOL0     C24801   7.743  -0.376   4.857  0.2970  0.5974 -0.5548
  925MOL0     C24802   7.604  -0.417   4.826  1.0490  0.2596  0.2941
  925MOL0     C24803   7.530  -0.439   4.955 -0.1571  0.3664  0.1903
  925MOL0     C24804   7.475  -0.445   5.063  1.0866  0.1362  0.5788
  925MOL0     C24805   8.189  -0.140   4.959 -0.0159 -0.6805 -0.0681
  925MOL0     C24806   8.315  -0.087   4.948  0.2818  0.6385 -0.4487
  925MOL0     C24807   8.380  -0.079   5.080 -0.2479  0.1933 -1.0694
  925MOL0     H24808   8.701   0.126   4.631 -2.7279 -0.4329  1.5789
  925MOL0     H24809   8.933   0.234   4.618 -1.5189  3.2672  0.1395
  925MOL0     H24810   9.149   0.307   4.996 -0.4749  0.1369  0.5669
  925MOL0     H24811   9.209   0.141   4.929  3.1287 -1.3599 -2.0205
  925MOL0     H24812   9.396   0.331   4.943  2.5766  1.9514 -2.7979
  925MOL0     H24813   9.304   0.420   4.816 -3.1008  0.9279  0.3091
  925MOL0     H24814   9.406   0.301   4.664  0.3331  0.8559  0.6278
  925MOL0     H24815   9.362   0.146   4.751 -1.9583  0.5497 -1.4894
  925MOL0     H24816   9.600   0.315   4.827  0.2898  0.3412 -3.1279
  925MOL0     H24817   9.549   0.148   4.879  1.3250 -0.4744  0.3291
  925MOL0     H24818   9.566   0.109   4.608 -0.7713  1.7445 -2.1173
  925MOL0     H24819   9.678   0.235   4.617  1.7129 -2.9768 -0.0613
  925MOL0     H24820   9.816   0.056   4.648  1.3787  1.7811  1.0626
  925MOL0     H24821   9.799   0.134   4.810 -5.1718  3.6972  0.1465
  925MOL0     H24822   9.610  -0.097   4.731  0.7490  2.2184 -0.8269
  925MOL0     H24823   9.669  -0.044   4.893 -0.2602  2.1743  0.5194
  925MOL0     H24824   9.867  -0.153   4.692 -2.7408 -0.9014 -1.2200
  925MOL0     H24825   9.879  -0.126   4.874  2.2265  0.2327 -0.6666
  925MOL0     H24826   9.931  -0.411   4.714  1.1529  0.2656  1.4178
  925MOL0     H24827   9.688  -0.693   4.853 -0.7032  0.7978 -2.4552
  925MOL0     H24828   9.815  -0.688   4.731 -0.3552 -1.6080  0.0448
  925MOL0     H24829   9.984  -0.661   4.937  0.8650 -0.5269  0.1529
  925MOL0     H24830   9.839  -0.680   5.043 -1.9375  0.3467  0.2823
  925MOL0     H24831   9.969  -0.881   5.022 -2.5189  2.0273  2.1020
  925MOL0     H24832   9.953  -0.888   4.858  0.3105  1.6635  0.1962
  925MOL0     H24833   9.790  -1.039   4.951  1.2669  0.7287 -1.3755
  925MOL0     H24834   9.697  -0.910   4.880 -3.0195  1.7679  2.2973
  925MOL0     H24835   9.691  -1.082   5.291  1.5157 -1.9676 -2.8913
  925MOL0     H24836   9.491  -1.201   5.355  2.9373 -0.5746 -0.0926
  925MOL0     H24837   8.930  -1.195   4.984  2.8117  2.8623  1.4704
  925MOL0     H24838   8.699  -1.283   5.025 -1.9381 -0.1306  1.1731
  925MOL0     H24839   8.604  -1.441   5.396 -0.1726 -0.2157  1.5885
  925MOL0     H24840   8.567  -1.281   5.467 -0.7920  0.9594 -0.2111
  925MOL0     H24841   8.350  -1.268   5.338 -3.2639 -0.9113  1.9027
  925MOL0     H24842   8.386  -1.440   5.286  2.7540 -1.0589  0.7599
  925MOL0     H24843   8.398  -1.508   5.518  0.4180  0.7694  0.2023
  925MOL0     H24844   8.372  -1.350   5.577 -3.3621 -0.3024  0.6763
  925MOL0     H24845   8.156  -1.490   5.422  0.5983  0.3838 -0.3795
  925MOL0     H24846   8.132  -1.350   5.527 -1.2364  0.4460 -2.2827
  925MOL0     H24847   8.250  -1.624   5.619 -0.9066 -0.0885 -0.1050
  925MOL0     H24848   8.077  -1.568   5.637 -0.7614  0.7444 -2.0065
  925MOL0     H24849   8.192  -1.544   5.833 -0.9483  2.3888  4.3744
  925MOL0     H24850   8.332  -1.449   5.759 -1.2023  2.7587 -0.3615
  925MOL0     H24851   8.050  -1.347   5.767 -0.1409  1.1633  0.5731
  925MOL0     H24852   8.185  -1.253   5.736  0.2143 -0.5179 -1.4366
  925MOL0     H24853   8.130  -1.207   5.950  1.8628  0.2798 -0.5472
  925MOL0     H24854   8.100  -1.376   5.988 -0.8031  0.6099  0.5095
  925MOL0     H24855   8.783  -1.278   5.444  1.0924 -0.0650  0.0625
  925MOL0     H24856   9.021  -1.242   5.411 -0.0166 -1.6290  0.2821
  925MOL0     H24857   9.295  -1.050   5.005  0.8630 -1.4576 -1.3682
  925MOL0     H24858   9.494  -0.923   4.956 -1.1689 -0.5972  0.3893
  925MOL0     H24859   8.994   0.151   5.030  1.7844  2.1061 -1.5315
  925MOL0     H24860   8.760   0.035   5.037  1.9416 -1.4677  1.0893
  925MOL0     H24861   8.311   0.029   4.631  2.2419 -0.6928  0.1350
  925MOL0     H24862   8.114  -0.118   4.623  0.8745 -1.5953 -0.2738
  925MOL0     H24863   7.927  -0.140   5.032  0.2794  3.1462 -2.6008
  925MOL0     H24864   7.946  -0.318   5.029  1.5463  1.8450  0.5679
  925MOL0     H24865   7.739  -0.157   4.871 -0.8707 -1.2736  0.5201
  925MOL0     H24866   7.708  -0.234   5.033 -1.5119  0.4660 -1.2077
  925MOL0     H24867   7.785  -0.461   4.913 -2.4311 -0.5641 -0.1256
  925MOL0     H24868   7.805  -0.363   4.768  0.1253 -0.9211 -0.9200
  925MOL0     H24869   7.545  -0.352   4.760  0.2827  0.0631  0.7730
  925MOL0     H24870   7.618  -0.515   4.781  2.7782  1.2799 -1.5191
  925MOL0     H24871   7.445  -0.446   5.165  1.1743 -2.1092  0.6124
  925MOL0     H24872   8.164  -0.187   5.054 -1.5778 -1.9711 -1.0609
  925MOL0     H24873   8.320  -0.044   5.165  1.2216 -0.7950  0.4432
  925MOL0     H24874   8.403  -0.183   5.104  0.0221  0.4285 -0.3009
  925MOL0     H24875   8.479  -0.032   5.076  1.2124 -2.7550 -3.0592
  926MOL0     O24876   5.593   7.935   2.865  0.4072  1.0235  0.5846
  926MOL0     C24877   5.690   7.998   2.825 -0.0162 -0.6270  0.0914
  926MOL0     O24878   5.803   8.027   2.901 -0.1972 -0.0193 -0.5824
  926MOL0     C24879   5.808   7.981   3.033 -0.3510  0.6589  0.4606
  926MOL0     C24880   5.821   8.060   3.148 -0.9686  0.3430  0.9260
  926MOL0     C24881   5.828   8.012   3.280  0.3928  0.3128 -0.7443
  926MOL0     C24882   5.818   7.876   3.307 -0.5423 -0.0159  1.1418
  926MOL0     O24883   5.837   7.825   3.436 -0.0989 -0.9244  0.5949
  926MOL0     C24884   5.708   7.770   3.491 -1.3655  0.1896  0.3656
  926MOL0     C24885   5.624   7.881   3.523 -0.3624 -0.2913  0.1199
  926MOL0     C24886   5.680   7.964   3.644 -0.2936  0.7604  0.3365
  926MOL0     C24887   5.643   8.110   3.632 -0.0474 -0.2294 -0.0401
  926MOL0     C24888   5.700   8.200   3.732 -0.2620  0.7322 -0.8662
  926MOL0     C24889   5.630   8.200   3.878  0.8874 -0.1980  0.4110
  926MOL0     C24890   5.491   8.269   3.878 -0.7345 -1.4818 -0.4821
  926MOL0     C24891   5.512   8.418   3.901  0.2881 -0.3758  0.4788
  926MOL0     N24892   5.389   8.501   3.873  0.0502  0.1979 -0.2315
  926MOL0     C24893   5.330   8.526   3.752 -0.3868  0.6271 -0.0331
  926MOL0     C24894   5.241   8.613   3.786 -0.7677  0.8391  1.0600
  926MOL0     C24895   5.137   8.679   3.691 -0.5291 -0.3831 -0.7009
  926MOL0     C24896   5.067   8.803   3.744  0.3572  0.2351  0.8726
  926MOL0     C24897   4.997   8.883   3.633 -0.7909 -0.6935  0.2248
  926MOL0     C24898   5.088   8.956   3.529  0.0456 -1.1314  0.2511
  926MOL0     O24899   5.164   9.049   3.612  0.5414  0.3410  0.5932
  926MOL0     C24900   5.268   9.100   3.559  0.1486 -0.2088 -0.8315
  926MOL0     C24901   5.395   9.101   3.625  0.1030 -0.1966 -0.0547
  926MOL0     C24902   5.500   9.176   3.578 -0.3083 -0.8456  0.1009
  926MOL0     C24903   5.496   9.244   3.452 -0.0234  0.7860  1.1383
  926MOL0     C24904   5.617   9.298   3.389  0.4387 -0.6129  0.4515
  926MOL0     O24905   5.734   9.263   3.453 -0.8661 -0.2423  1.0809
  926MOL0     C24906   5.867   9.264   3.391 -0.2082 -0.8562  0.7000
  926MOL0     C24907   5.896   9.309   3.259 -0.6210 -0.4537  0.0786
  926MOL0     C24908   6.024   9.317   3.205  0.3210  0.4979  0.3384
  926MOL0     C24909   6.144   9.280   3.280  0.3567 -0.1136  1.7311
  926MOL0     O24910   6.281   9.291   3.239  0.3991 -0.0154  0.6780
  926MOL0     C24911   6.299   9.360   3.114  0.2897  0.0607  1.1130
  926MOL0     C24912   6.444   9.419   3.118 -0.4015 -0.2655 -0.5876
  926MOL0     C24913   6.448   9.564   3.078  0.6960 -0.4280 -0.4342
  926MOL0     C24914   6.563   9.649   3.129 -0.1489  0.0306  0.3841
  926MOL0     C24915   6.540   9.803   3.105  0.2050 -0.5854 -0.0505
  926MOL0     C24916   6.651   9.889   3.178 -0.7749  0.5493  0.0897
  926MOL0     C24917   6.624  10.041   3.186 -0.1800  0.8190  0.1977
  926MOL0     C24918   6.549  10.056   3.314  0.3624  0.0273  0.1811
  926MOL0    Cl24919   6.476  10.222   3.309 -0.3540 -0.3568  0.0362
  926MOL0     C24920   6.115   9.237   3.412 -0.2538 -0.5718  0.3909
  926MOL0     C24921   5.983   9.234   3.472 -0.3365 -0.4501 -0.5993
  926MOL0     O24922   5.598   9.370   3.289  0.4584  0.2412  0.0736
  926MOL0     C24923   5.370   9.258   3.389 -0.1202  0.7946  0.7194
  926MOL0     C24924   5.261   9.189   3.446  1.0894  0.3862  0.0155
  926MOL0     N24925   5.243   8.641   3.921 -0.2695 -0.5213  0.4529
  926MOL0     N24926   5.334   8.576   3.973 -0.3953  0.9435 -0.1426
  926MOL0     C24927   5.818   7.791   3.201  0.1909  0.8502 -0.8240
  926MOL0     C24928   5.803   7.845   3.067  0.1295  0.6721  0.3666
  926MOL0     C24929   5.684   8.068   2.693  1.1861  0.2053 -0.8589
  926MOL0     C24930   5.753   8.197   2.678 -0.2144  0.5196 -0.4955
  926MOL0     C24931   5.746   8.261   2.558  0.6240 -0.2592  0.3433
  926MOL0     C24932   5.682   8.206   2.450 -0.8460 -0.2725 -0.5637
  926MOL0     O24933   5.670   8.272   2.332  0.2885 -0.0060  0.8125
  926MOL0     C24934   5.715   8.413   2.315  0.1643 -0.4592 -0.6355
  926MOL0     C24935   5.687   8.458   2.170  0.3265 -0.3621 -0.2053
  926MOL0     C24936   5.730   8.600   2.144 -0.4560  0.2047  0.9583
  926MOL0     C24937   5.872   8.604   2.079  0.5297 -0.1739 -0.1585
  926MOL0     C24938   5.921   8.742   2.033  0.4096  0.1851 -0.5486
  926MOL0     C24939   5.953   8.854   2.006  0.1693 -0.6140  0.2096
  926MOL0     C24940   5.615   8.086   2.467 -0.7968 -0.1632  0.1031
  926MOL0     C24941   5.613   8.011   2.587  0.3296 -0.3883 -0.2017
  926MOL0     C24942   5.555   7.872   2.577  0.2220 -1.0308 -0.3336
  926MOL0     H24943   5.829   8.168   3.135  0.4096  0.3571  1.6349
  926MOL0     H24944   5.819   8.068   3.373 -2.4800 -0.5597 -0.3854
  926MOL0     H24945   5.659   7.706   3.417 -2.3508 -0.0769  1.2320
  926MOL0     H24946   5.742   7.706   3.573  4.5798  0.5461 -1.3405
  926MOL0     H24947   5.522   7.851   3.548 -0.1254 -1.0035  0.2527
  926MOL0     H24948   5.618   7.937   3.429  0.8463 -0.4921 -0.1030
  926MOL0     H24949   5.789   7.959   3.641 -0.3055  1.0110 -0.7572
  926MOL0     H24950   5.647   7.909   3.733  0.0454  1.6140  0.9987
  926MOL0     H24951   5.659   8.147   3.530 -1.3226  0.8397  0.1299
  926MOL0     H24952   5.535   8.118   3.642 -0.2916 -2.7415 -0.0264
  926MOL0     H24953   5.808   8.186   3.738  0.1409  3.3484 -0.9206
  926MOL0     H24954   5.684   8.303   3.699  0.2022  1.0417 -0.1419
  926MOL0     H24955   5.629   8.100   3.921  2.8229 -0.1116  0.7341
  926MOL0     H24956   5.692   8.263   3.942 -0.9596 -0.2586  2.3795
  926MOL0     H24957   5.429   8.226   3.957  0.4376 -0.8984  0.7996
  926MOL0     H24958   5.441   8.252   3.782 -3.2151 -1.0053  0.6580
  926MOL0     H24959   5.536   8.430   4.007  0.7517  2.5388  0.1448
  926MOL0     H24960   5.607   8.450   3.858  2.7020  1.2174  6.0897
  926MOL0     H24961   5.351   8.497   3.650  2.3948  5.1151 -1.0369
  926MOL0     H24962   5.197   8.704   3.604  2.9140 -3.2809  0.5766
  926MOL0     H24963   5.056   8.614   3.657 -1.0089 -1.1552  1.6640
  926MOL0     H24964   5.004   8.781   3.831 -0.5465  0.3848  0.2789
  926MOL0     H24965   5.148   8.864   3.784 -0.4689  0.7733  1.7779
  926MOL0     H24966   4.944   8.961   3.688 -0.5848 -0.6471  0.3539
  926MOL0     H24967   4.930   8.817   3.577  2.2389 -4.3893  0.5432
  926MOL0     H24968   5.034   9.007   3.449 -1.7487 -2.0226  0.8361
  926MOL0     H24969   5.158   8.892   3.474 -0.9508  2.1603 -5.7012
  926MOL0     H24970   5.384   9.055   3.723  0.7142  3.4278  1.8922
  926MOL0     H24971   5.596   9.150   3.622  0.3913 -1.1141 -1.4961
  926MOL0     H24972   5.814   9.351   3.202  1.5718 -0.2781 -3.2266
  926MOL0     H24973   6.036   9.347   3.101  0.1599  1.3386  0.5513
  926MOL0     H24974   6.281   9.294   3.029  1.2435  1.6448 -0.3954
  926MOL0     H24975   6.232   9.446   3.113  0.1471  0.1132  4.2000
  926MOL0     H24976   6.487   9.406   3.218 -3.3578 -2.3527  0.5329
  926MOL0     H24977   6.504   9.367   3.041  0.9982 -0.2386  0.4411
  926MOL0     H24978   6.436   9.569   2.970  0.1529 -2.1002 -0.4877
  926MOL0     H24979   6.361   9.614   3.121  0.2750  0.2562 -2.0052
  926MOL0     H24980   6.657   9.621   3.080  0.9260  2.5600  0.8627
  926MOL0     H24981   6.596   9.639   3.233 -1.0462  0.3772  0.7116
  926MOL0     H24982   6.439   9.831   3.138 -1.2799 -5.1059 -0.0441
  926MOL0     H24983   6.551   9.824   2.998  1.2712 -0.8746 -0.0126
  926MOL0     H24984   6.648   9.855   3.281  1.2148 -0.7482 -0.2364
  926MOL0     H24985   6.751   9.877   3.134 -1.2205  3.5087 -2.0716
  926MOL0     H24986   6.573  10.053   3.090  0.6861 -0.2686 -0.4258
  926MOL0     H24987   6.717  10.098   3.187  1.8038 -2.1441  2.5743
  926MOL0     H24988   6.467   9.986   3.329  0.8340 -0.1287  2.3975
  926MOL0     H24989   6.611  10.057   3.404 -2.2287  0.2348  2.1028
  926MOL0     H24990   6.205   9.219   3.470  1.2117  2.7796 -0.6058
  926MOL0     H24991   5.977   9.202   3.576 -3.6517 -3.7624 -1.5761
  926MOL0     H24992   5.364   9.309   3.294 -0.7516 -2.9202 -1.4187
  926MOL0     H24993   5.165   9.212   3.402  0.6107  0.3202  1.0079
  926MOL0     H24994   5.803   7.686   3.223  0.6619  1.2248  1.5765
  926MOL0     H24995   5.775   7.780   2.984 -1.2291  2.3449 -0.5634
  926MOL0     H24996   5.815   8.243   2.755  2.4703  0.1413 -2.2942
  926MOL0     H24997   5.799   8.355   2.545  1.4503 -0.8374 -0.6825
  926MOL0     H24998   5.823   8.411   2.333  0.3216 -0.4276 -1.4915
  926MOL0     H24999   5.674   8.478   2.392  1.6649 -0.8830  0.5571
  926MOL0     H25000   5.580   8.448   2.151  0.4604  2.0450 -3.1655
  926MOL0     H25001   5.751   8.387   2.115 -0.3962 -1.9048  0.8803
  926MOL0     H25002   5.730   8.641   2.246 -0.5230  2.5934  0.0701
  926MOL0     H25003   5.661   8.662   2.087  1.3516  0.4965 -1.0334
  926MOL0     H25004   5.943   8.548   2.141 -0.6981 -4.4540 -2.2245
  926MOL0     H25005   5.864   8.551   1.983  2.1444  0.0556 -0.4520
  926MOL0     H25006   5.987   8.947   1.965  1.5089 -0.2951  1.9242
  926MOL0     H25007   5.578   8.039   2.376 -2.0690  1.3886 -0.2233
  926MOL0     H25008   5.468   7.872   2.643  1.3083 -1.2116  1.1403
  926MOL0     H25009   5.526   7.847   2.474  0.5431 -1.3319 -0.3499
  926MOL0     H25010   5.634   7.808   2.617  2.9797  0.8772 -2.3112
  927MOL0     O25011   3.041  10.026   5.599  0.2333 -0.0580 -0.0450
  927MOL0     C25012   2.972   9.936   5.638 -0.9296  0.0615  0.3707
  927MOL0     O25013   2.999   9.802   5.620 -0.4208 -0.3747  0.4630
  927MOL0     C25014   3.137   9.777   5.590  0.2506  0.6814 -0.9778
  927MOL0     C25015   3.187   9.749   5.464 -0.1735  0.7712  0.1060
  927MOL0     C25016   3.328   9.747   5.444 -0.3375  0.6486  0.0772
  927MOL0     C25017   3.412   9.766   5.548  0.6652 -0.0161 -1.6497
  927MOL0     O25018   3.544   9.743   5.543 -0.1431 -0.8183  0.4537
  927MOL0     C25019   3.592   9.638   5.624  0.5091  0.4934  0.0054
  927MOL0     C25020   3.732   9.581   5.579 -1.0281  0.3840  0.0706
  927MOL0     C25021   3.712   9.462   5.490  0.2670 -0.4068  0.0470
  927MOL0     C25022   3.841   9.428   5.426  1.0937 -0.9516  0.4897
  927MOL0     C25023   3.840   9.351   5.297  0.0082 -0.2390  0.2100
  927MOL0     C25024   3.789   9.440   5.185 -0.6709 -0.4786  0.6603
  927MOL0     C25025   3.781   9.362   5.058 -0.8758  0.3917  0.4525
  927MOL0     C25026   3.694   9.442   4.952  0.1243  1.0809 -0.5534
  927MOL0     N25027   3.763   9.563   4.922  0.2892 -0.3778  0.8131
  927MOL0     C25028   3.730   9.692   4.970 -0.9788  0.0373  0.3610
  927MOL0     C25029   3.817   9.773   4.903  0.0664  0.6026  0.2620
  927MOL0     C25030   3.847   9.915   4.932 -0.1750  0.6888  0.0329
  927MOL0     C25031   3.782  10.017   4.842  0.1315 -0.3022 -0.0395
  927MOL0     C25032   3.845  10.161   4.830 -0.1705  0.5740 -0.1939
  927MOL0     C25033   3.941  10.184   4.716 -0.0826  0.2630 -0.0834
  927MOL0     O25034   4.068  10.129   4.753  0.9047  0.6832  0.8150
  927MOL0     C25035   4.184  10.196   4.731  0.4264 -0.3798 -0.8790
  927MOL0     C25036   4.288  10.154   4.810 -0.7549 -0.2610  0.1934
  927MOL0     C25037   4.422  10.189   4.776  0.1392 -0.5974  0.7109
  927MOL0     C25038   4.443  10.273   4.668 -0.0733 -0.6974  0.4673
  927MOL0     C25039   4.572  10.341   4.634 -0.1743 -0.7350  0.4776
  927MOL0     O25040   4.570  10.406   4.517  0.4218 -0.1039  0.7246
  927MOL0     C25041   4.686  10.470   4.479 -0.2045 -0.7312 -0.4156
  927MOL0     C25042   4.781  10.393   4.411 -0.2131  0.5350  0.1432
  927MOL0     C25043   4.899  10.443   4.365 -0.2254  0.9949  0.3593
  927MOL0     C25044   4.925  10.579   4.380 -0.1748  1.0436  0.8016
  927MOL0     O25045   5.041  10.625   4.319  0.4866 -1.0740 -0.7130
  927MOL0     C25046   5.034  10.640   4.172 -0.5011 -0.1814 -0.3088
  927MOL0     C25047   4.941  10.756   4.127  0.0788  0.2308 -0.3852
  927MOL0     C25048   4.964  10.784   3.978  1.0034 -1.1141 -0.9881
  927MOL0     C25049   4.926  10.664   3.887 -0.0152  0.2391  0.5331
  927MOL0     C25050   4.871  10.705   3.755 -0.4127 -0.5835  0.3315
  927MOL0     C25051   4.982  10.749   3.666 -0.3607  0.3337 -0.5284
  927MOL0     C25052   4.935  10.769   3.525 -0.9243  0.3172  0.5585
  927MOL0     C25053   5.017  10.881   3.462 -0.0554  1.2448 -0.1928
  927MOL0    Cl25054   5.195  10.847   3.461  0.0766 -0.3099 -0.1059
  927MOL0     C25055   4.836  10.661   4.455 -0.9591 -0.3978 -0.1880
  927MOL0     C25056   4.717  10.605   4.500  0.1631  0.1830 -0.1720
  927MOL0     O25057   4.669  10.342   4.708  1.3853 -0.5246 -0.5294
  927MOL0     C25058   4.327  10.306   4.592 -0.1606 -0.0096 -0.4397
  927MOL0     C25059   4.201  10.275   4.622  0.4323  0.4114 -0.0387
  927MOL0     N25060   3.881   9.697   4.808  0.3682 -0.2034 -0.0722
  927MOL0     N25061   3.859   9.577   4.828  0.5700 -0.2984  1.1059
  927MOL0     C25062   3.366   9.785   5.672  0.1002  0.5269 -0.8777
  927MOL0     C25063   3.231   9.790   5.697  0.6154  0.6343  0.3866
  927MOL0     C25064   2.837   9.969   5.689 -0.8927 -0.5311 -0.0430
  927MOL0     C25065   2.827  10.078   5.780 -0.2342  0.3924 -0.9334
  927MOL0     C25066   2.712  10.121   5.849 -0.4042  0.6796 -0.1630
  927MOL0     C25067   2.594  10.053   5.821  0.6155 -0.0469 -0.1757
  927MOL0     O25068   2.477  10.094   5.883  0.3389  0.4545  0.3880
  927MOL0     C25069   2.392   9.985   5.938  0.1265  0.2500 -0.3916
  927MOL0     C25070   2.249  10.005   5.879  0.6465  0.2632  0.0189
  927MOL0     C25071   2.158  10.113   5.951 -0.6278 -0.8558 -0.3106
  927MOL0     C25072   2.006  10.108   5.902 -1.5856  0.2004 -0.3124
  927MOL0     C25073   1.939  10.047   6.011 -0.2447  0.1081 -0.2184
  927MOL0     C25074   1.876  10.011   6.102  0.0538  0.4214 -0.5278
  927MOL0     C25075   2.608   9.941   5.738  0.3484  1.2816  0.5836
  927MOL0     C25076   2.719   9.897   5.663 -0.0271 -0.8124 -0.0740
  927MOL0     C25077   2.706   9.797   5.553  0.1432  0.1635 -1.3244
  927MOL0     H25078   3.115   9.735   5.384  1.8753 -0.6598 -1.6027
  927MOL0     H25079   3.355   9.718   5.343  1.1701 -3.4981  1.4618
  927MOL0     H25080   3.617   9.693   5.715  1.1477 -0.9319  0.7227
  927MOL0     H25081   3.526   9.552   5.638  1.6983 -0.5173 -0.4462
  927MOL0     H25082   3.772   9.538   5.671 -3.0859  0.0793  0.8628
  927MOL0     H25083   3.790   9.663   5.536 -1.6026  2.0286  2.2987
  927MOL0     H25084   3.638   9.491   5.414  0.8343  0.8178 -0.0554
  927MOL0     H25085   3.680   9.378   5.553  2.1805 -0.9925  0.3069
  927MOL0     H25086   3.907   9.513   5.403  1.0565 -1.0230  0.1158
  927MOL0     H25087   3.902   9.367   5.492  0.5667  1.1757  3.1392
  927MOL0     H25088   3.942   9.316   5.279  0.3715  1.5477 -1.5827
  927MOL0     H25089   3.777   9.263   5.311  0.6524 -0.6145  0.8033
  927MOL0     H25090   3.693   9.491   5.197  0.3885  2.7346 -2.7365
  927MOL0     H25091   3.860   9.523   5.175 -1.1297 -0.1748 -0.1336
  927MOL0     H25092   3.751   9.259   5.080  0.8456 -1.0057 -2.9923
  927MOL0     H25093   3.882   9.351   5.017 -0.1625 -0.3541  2.3141
  927MOL0     H25094   3.666   9.368   4.877  0.9293  0.1123  0.0811
  927MOL0     H25095   3.600   9.465   5.002  1.6392  1.6443  2.2809
  927MOL0     H25096   3.670   9.708   5.059 -2.1041 -1.1759 -0.1551
  927MOL0     H25097   3.823   9.919   5.038 -0.3820 -0.5186  0.0470
  927MOL0     H25098   3.956   9.926   4.925 -0.1330 -0.1945 -1.1129
  927MOL0     H25099   3.778   9.973   4.741 -0.6906 -0.8710  0.2283
  927MOL0     H25100   3.678  10.022   4.875  0.1091 -2.2637  0.3174
  927MOL0     H25101   3.896  10.188   4.923  0.7921 -1.1877 -0.1529
  927MOL0     H25102   3.758  10.226   4.823  0.6124  1.7774  0.8729
  927MOL0     H25103   3.934  10.290   4.692 -3.5857  0.1607 -0.0270
  927MOL0     H25104   3.896  10.132   4.631  2.8102 -0.2263 -1.4495
  927MOL0     H25105   4.280  10.090   4.897  1.3780 -1.5803 -0.5066
  927MOL0     H25106   4.511  10.153   4.826  2.5760 -2.7639 -4.4058
  927MOL0     H25107   4.747  10.291   4.398  0.3860  0.4690 -1.0359
  927MOL0     H25108   4.964  10.379   4.305 -2.1435  1.1129 -1.9688
  927MOL0     H25109   5.136  10.651   4.134 -0.4476  0.4710  0.0217
  927MOL0     H25110   5.000  10.544   4.131 -0.9358 -1.2302  2.2895
  927MOL0     H25111   4.838  10.721   4.138  0.4427 -0.5560  0.7544
  927MOL0     H25112   4.973  10.847   4.179 -1.0994  0.8047 -0.6405
  927MOL0     H25113   4.907  10.875   3.958 -1.0622 -1.8519  1.1934
  927MOL0     H25114   5.068  10.814   3.957  1.6444 -1.2293  1.6430
  927MOL0     H25115   4.846  10.610   3.940 -0.0060  0.6774  0.9998
  927MOL0     H25116   5.012  10.598   3.873  0.1420  0.8948 -2.1424
  927MOL0     H25117   4.794  10.780   3.773 -0.8745 -1.1151  0.6161
  927MOL0     H25118   4.822  10.615   3.716 -1.2382  0.0095 -0.0095
  927MOL0     H25119   5.039  10.835   3.702 -0.3980 -0.2279  0.9381
  927MOL0     H25120   5.045  10.660   3.660 -0.6269  0.1310 -0.3456
  927MOL0     H25121   4.831  10.802   3.522 -0.6810  1.6346  3.6028
  927MOL0     H25122   4.949  10.681   3.461  0.5632  0.7646  0.2410
  927MOL0     H25123   4.987  10.883   3.357  0.5722  1.5595 -0.3720
  927MOL0     H25124   4.996  10.971   3.520  0.1069  0.6226  0.8597
  927MOL0     H25125   4.849  10.768   4.464 -1.2569 -0.4492  1.1223
  927MOL0     H25126   4.646  10.670   4.550  2.0035  2.0134  0.1980
  927MOL0     H25127   4.343  10.365   4.502 -2.4447  2.0189  0.3486
  927MOL0     H25128   4.119  10.308   4.559  0.3201  1.9520  0.8471
  927MOL0     H25129   3.430   9.817   5.754 -0.4364 -0.8549  0.1101
  927MOL0     H25130   3.194   9.807   5.798 -0.4399  1.5351 -0.1210
  927MOL0     H25131   2.919  10.134   5.798  0.6867 -1.0713 -0.8775
  927MOL0     H25132   2.705  10.202   5.921 -0.9871  0.4230  0.0764
  927MOL0     H25133   2.400   9.984   6.048 -0.9354  0.1795 -0.2990
  927MOL0     H25134   2.427   9.888   5.901 -1.5847 -0.8175  0.6173
  927MOL0     H25135   2.195   9.911   5.892 -0.6377  0.9288 -0.2841
  927MOL0     H25136   2.262  10.041   5.777  2.6142 -0.4272 -0.0287
  927MOL0     H25137   2.194  10.215   5.933 -3.0610 -0.3960 -3.3618
  927MOL0     H25138   2.164  10.097   6.059  0.2924 -0.4170 -0.2913
  927MOL0     H25139   1.959  10.206   5.904 -2.0918  0.0606 -2.6966
  927MOL0     H25140   1.980  10.049   5.814 -4.9767  1.2147 -0.1415
  927MOL0     H25141   1.814   9.978   6.183  1.5412 -0.1565  0.4088
  927MOL0     H25142   2.512   9.896   5.712  0.9453  1.0389 -1.3243
  927MOL0     H25143   2.801   9.777   5.502  2.0029 -1.6385  2.3824
  927MOL0     H25144   2.680   9.699   5.594 -0.2038  1.5279  2.0096
  927MOL0     H25145   2.631   9.844   5.490 -1.7820  0.2806  0.9171
  928MOL0     O25146   7.276   5.741   9.957  0.2517  0.3095  0.2456
  928MOL0     C25147   7.332   5.768  10.065 -0.1584  0.4381  0.6856
  928MOL0     O25148   7.282   5.842  10.160  0.5914 -0.1729 -0.9472
  928MOL0     C25149   7.145   5.856  10.159 -0.3637  0.3074 -0.3383
  928MOL0     C25150   7.061   5.787  10.240 -0.1566  0.3594  0.6530
  928MOL0     C25151   6.924   5.797  10.239 -0.2198 -0.1404 -0.8189
  928MOL0     C25152   6.862   5.880  10.140  0.7616 -0.8133  0.1831
  928MOL0     O25153   6.726   5.867  10.122  0.1575 -0.5513  0.1431
  928MOL0     C25154   6.643   5.942  10.034 -0.2056 -0.4866 -0.2267
  928MOL0     C25155   6.628   6.086  10.087 -0.6233  0.5241  0.9029
  928MOL0     C25156   6.534   6.156   9.982 -1.2003  0.6209  0.1185
  928MOL0     C25157   6.504   6.302   9.986 -0.3867 -0.1506 -1.7069
  928MOL0     C25158   6.445   6.359  10.127  0.5108  0.2240 -0.2968
  928MOL0     C25159   6.443   6.509  10.135 -0.4092 -0.2134 -1.5803
  928MOL0     C25160   6.346   6.564  10.252  1.0265 -0.5166  0.9452
  928MOL0     C25161   6.210   6.509  10.232  0.7351  0.0063  0.0037
  928MOL0     N25162   6.109   6.591  10.307  0.4409  0.1431  0.3549
  928MOL0     C25163   5.987   6.643  10.256 -0.5552  0.8644 -1.3549
  928MOL0     C25164   5.919   6.678  10.370 -0.3696 -0.3535 -0.6127
  928MOL0     C25165   5.784   6.740  10.365  1.2150  0.4160  1.0079
  928MOL0     C25166   5.678   6.642  10.336  0.0183  1.3303 -0.1301
  928MOL0     C25167   5.655   6.565  10.461  0.1735 -0.3946 -0.4374
  928MOL0     C25168   5.542   6.630  10.541 -0.0203 -0.5119  0.3683
  928MOL0     O25169   5.505   6.534  10.646  0.0516 -0.0874  0.0564
  928MOL0     C25170   5.373   6.537  10.684 -0.6493 -0.8766 -0.4594
  928MOL0     C25171   5.317   6.417  10.723 -0.5834  0.0786  0.6170
  928MOL0     C25172   5.187   6.397  10.759  1.0027 -0.4929 -0.3290
  928MOL0     C25173   5.107   6.514  10.765 -0.7287 -0.3943 -0.7107
  928MOL0     C25174   4.965   6.499  10.811 -0.7027  0.0760 -0.3650
  928MOL0     O25175   4.898   6.380  10.790 -0.0852  0.3891 -0.6734
  928MOL0     C25176   4.772   6.365  10.846  0.2512 -0.2008  0.4655
  928MOL0     C25177   4.751   6.254  10.928  0.0238 -0.3866  0.5457
  928MOL0     C25178   4.619   6.229  10.980 -0.1281  0.0670 -0.3835
  928MOL0     C25179   4.516   6.315  10.952 -0.1288 -0.4018  0.1711
  928MOL0     O25180   4.402   6.291  11.013  0.0851 -0.3468 -0.4287
  928MOL0     C25181   4.302   6.229  10.934  0.5666 -0.4945 -0.0847
  928MOL0     C25182   4.176   6.318  10.950  0.8289  0.5334 -1.0152
  928MOL0     C25183   4.103   6.285  11.095 -0.3721 -0.2871  0.3498
  928MOL0     C25184   3.971   6.364  11.097  0.2604 -0.5713 -0.0939
  928MOL0     C25185   3.915   6.376  11.234 -0.0136 -0.2734 -0.2034
  928MOL0     C25186   3.775   6.435  11.239  0.0028  0.5383 -0.0236
  928MOL0     C25187   3.695   6.389  11.371 -0.5369 -0.4817  0.1483
  928MOL0     C25188   3.591   6.496  11.424  0.1716 -0.0473  0.6335
  928MOL0    Cl25189   3.668   6.645  11.473  0.2417  0.6167 -0.4217
  928MOL0     C25190   4.534   6.423  10.851  0.2931  0.9859  0.0238
  928MOL0     C25191   4.663   6.450  10.807 -0.5304 -0.1507 -0.0684
  928MOL0     O25192   4.924   6.596  10.868 -0.5553 -0.4191  1.1577
  928MOL0     C25193   5.163   6.639  10.736 -0.3624  0.3515 -0.6180
  928MOL0     C25194   5.291   6.646  10.687 -0.1172 -0.2430  0.1200
  928MOL0     N25195   5.994   6.643  10.486  0.3693 -0.7601 -0.1978
  928MOL0     N25196   6.112   6.594  10.445  0.4186  0.5663  0.6957
  928MOL0     C25197   6.940   5.958  10.063 -0.1812 -0.0360 -0.0100
  928MOL0     C25198   7.078   5.948  10.075  0.9703  1.1761 -0.2383
  928MOL0     C25199   7.480   5.738  10.066  0.4233  0.2891 -0.7050
  928MOL0     C25200   7.554   5.808  10.167 -0.6034  0.6551  0.6151
  928MOL0     C25201   7.693   5.789  10.182  0.0652  0.0910 -0.4279
  928MOL0     C25202   7.754   5.687  10.109 -0.2393 -0.6557  0.0212
  928MOL0     O25203   7.887   5.669  10.133  0.4420  0.7222 -0.2074
  928MOL0     C25204   7.948   5.549  10.093 -0.2460 -0.1466 -0.1826
  928MOL0     C25205   8.072   5.532  10.176  0.0008  0.7154  0.1082
  928MOL0     C25206   8.198   5.632  10.155  1.0929  0.1684 -0.1112
  928MOL0     C25207   8.172   5.779  10.187  0.4160  0.4284 -0.4551
  928MOL0     C25208   8.125   5.800  10.322  0.3612  0.0914  0.6989
  928MOL0     C25209   8.095   5.805  10.435  0.8572  0.2915 -0.0500
  928MOL0     C25210   7.680   5.608  10.021 -0.3492  0.2245  0.5190
  928MOL0     C25211   7.543   5.634   9.990  0.2500  0.7230 -0.1930
  928MOL0     C25212   7.481   5.560   9.870 -0.5519  0.7960 -0.1495
  928MOL0     H25213   7.096   5.713  10.310 -1.4508  0.3686  1.3321
  928MOL0     H25214   6.859   5.734  10.299 -0.8883  1.0769 -0.2218
  928MOL0     H25215   6.685   5.928   9.934 -1.9619 -2.7958 -0.7422
  928MOL0     H25216   6.542   5.900  10.033 -0.0847 -0.8453 -2.6356
  928MOL0     H25217   6.722   6.143  10.084 -0.4157  0.1685  0.5424
  928MOL0     H25218   6.598   6.080  10.191 -1.1830 -4.9689  0.7066
  928MOL0     H25219   6.434   6.113   9.989 -0.7054 -0.7634 -0.8739
  928MOL0     H25220   6.566   6.127   9.882  0.5056 -0.1581  0.8413
  928MOL0     H25221   6.595   6.361   9.973 -1.3181  1.7509 -0.1991
  928MOL0     H25222   6.439   6.328   9.902 -0.1561  2.2415 -1.2231
  928MOL0     H25223   6.346   6.313  10.131  0.0959  0.9301 -1.6038
  928MOL0     H25224   6.507   6.315  10.206  1.6355 -0.6766 -1.6219
  928MOL0     H25225   6.544   6.542  10.158 -1.3087  3.0870 -1.8300
  928MOL0     H25226   6.410   6.555  10.041 -0.7213  0.4355 -1.1597
  928MOL0     H25227   6.343   6.672  10.234  0.7267 -0.9372 -1.9299
  928MOL0     H25228   6.373   6.544  10.356 -1.2706 -1.6032  1.3989
  928MOL0     H25229   6.189   6.506  10.125 -3.2300  3.7876  0.3919
  928MOL0     H25230   6.202   6.409  10.276 -1.2830  0.9928  2.1386
  928MOL0     H25231   5.949   6.649  10.155  1.5738  2.5454 -2.1400
  928MOL0     H25232   5.744   6.790  10.454  0.0149 -0.8627  1.2164
  928MOL0     H25233   5.781   6.816  10.286 -1.5084 -1.0569 -0.4300
  928MOL0     H25234   5.585   6.684  10.298 -0.3648  0.6431  0.0470
  928MOL0     H25235   5.720   6.578  10.258 -3.0709  0.8586 -1.5524
  928MOL0     H25236   5.741   6.551  10.527 -0.2367  1.1224  0.4693
  928MOL0     H25237   5.615   6.473  10.417 -1.1355 -1.2127  2.2407
  928MOL0     H25238   5.454   6.655  10.480 -0.2941 -3.5126 -0.6027
  928MOL0     H25239   5.585   6.721  10.585 -0.0489  0.3079 -1.2151
  928MOL0     H25240   5.400   6.348  10.716  0.6878  1.5327  0.5630
  928MOL0     H25241   5.151   6.296  10.772 -2.0310  0.7073  1.9290
  928MOL0     H25242   4.833   6.188  10.954 -0.9992 -1.3101  1.4819
  928MOL0     H25243   4.599   6.144  11.043  1.7792  0.3494  0.6807
  928MOL0     H25244   4.327   6.207  10.830  1.3066 -1.0483  0.1912
  928MOL0     H25245   4.279   6.129  10.972  0.6672 -0.3948  0.2454
  928MOL0     H25246   4.210   6.422  10.951 -0.3276  0.9254  0.6821
  928MOL0     H25247   4.111   6.297  10.864  1.8392  1.0929 -1.9412
  928MOL0     H25248   4.084   6.178  11.107 -0.1775 -0.0774  3.3459
  928MOL0     H25249   4.174   6.316  11.172  2.3757 -0.0769 -2.0983
  928MOL0     H25250   3.902   6.315  11.028 -0.4253  1.7324 -1.1273
  928MOL0     H25251   4.000   6.462  11.056  0.6046 -1.7657 -2.9868
  928MOL0     H25252   3.986   6.437  11.292 -1.2005 -1.6364  2.8621
  928MOL0     H25253   3.915   6.276  11.278 -2.3836  0.3417  1.3433
  928MOL0     H25254   3.781   6.543  11.252 -2.4660  0.6967  0.3867
  928MOL0     H25255   3.706   6.412  11.157 -2.2343 -0.7781  2.0804
  928MOL0     H25256   3.771   6.368  11.447 -0.2108  1.5214  0.4448
  928MOL0     H25257   3.638   6.297  11.354 -0.3103 -0.1985 -2.5952
  928MOL0     H25258   3.512   6.519  11.352 -0.3706 -4.1827 -0.3253
  928MOL0     H25259   3.540   6.453  11.510 -1.8585  1.7061  0.3645
  928MOL0     H25260   4.440   6.476  10.837  0.1886  1.1610  1.3134
  928MOL0     H25261   4.680   6.537  10.745  0.3405 -0.4296 -0.2356
  928MOL0     H25262   5.091   6.719  10.725 -2.3794 -0.8730  2.4044
  928MOL0     H25263   5.330   6.743  10.659 -1.8181  0.9996  1.7782
  928MOL0     H25264   6.904   6.033   9.993  1.1400  1.8395  1.2258
  928MOL0     H25265   7.132   6.010  10.004  2.9864  0.8477  0.9308
  928MOL0     H25266   7.515   5.870  10.247 -1.9457  2.4977 -1.3548
  928MOL0     H25267   7.748   5.827  10.267 -0.6602  0.5004 -0.1362
  928MOL0     H25268   7.980   5.565   9.989  1.9008  3.0548  0.8162
  928MOL0     H25269   7.890   5.457  10.101 -0.7529  0.0764 -1.0929
  928MOL0     H25270   8.126   5.442  10.147  0.8207  1.7973 -1.9583
  928MOL0     H25271   8.042   5.530  10.281 -1.1928 -0.2056 -0.2281
  928MOL0     H25272   8.231   5.622  10.052 -0.6459 -2.4156 -0.5279
  928MOL0     H25273   8.282   5.600  10.218  0.4582  1.2484  1.3493
  928MOL0     H25274   8.261   5.842  10.189 -0.0096  1.0534  1.6728
  928MOL0     H25275   8.101   5.815  10.112  0.5301  2.2655  0.2800
  928MOL0     H25276   8.073   5.804  10.540  1.1833 -0.9697  0.0224
  928MOL0     H25277   7.732   5.533   9.962 -0.4700  0.4589  0.1100
  928MOL0     H25278   7.409   5.487   9.910 -1.2115  0.0499 -2.5751
  928MOL0     H25279   7.429   5.628   9.803 -0.8308 -1.2971 -2.1656
  928MOL0     H25280   7.548   5.507   9.802 -1.0345  1.2009 -0.9533
  929MOL0     O25281   5.163   4.900   7.471 -1.0725 -0.3169 -0.8643
  929MOL0     C25282   5.170   4.779   7.443  0.6258  0.1277 -0.5117
  929MOL0     O25283   5.074   4.709   7.373 -0.3032  0.1266 -0.0484
  929MOL0     C25284   4.956   4.760   7.322  0.7595 -0.1941 -0.6904
  929MOL0     C25285   4.877   4.662   7.253 -0.0314  0.1244  0.0209
  929MOL0     C25286   4.753   4.693   7.188 -0.0807 -0.3007  0.2518
  929MOL0     C25287   4.697   4.827   7.215  0.7486  1.2341 -0.2005
  929MOL0     O25288   4.572   4.846   7.159  0.7247  0.3698 -0.2799
  929MOL0     C25289   4.491   4.961   7.174  0.6997  0.4342  0.0670
  929MOL0     C25290   4.370   4.935   7.093  0.6912 -0.2792  0.3334
  929MOL0     C25291   4.268   4.825   7.143 -1.1457 -0.1962 -0.1598
  929MOL0     C25292   4.193   4.885   7.264 -0.0361 -0.4409 -0.4269
  929MOL0     C25293   4.096   4.804   7.346  0.1730  0.1530 -0.0771
  929MOL0     C25294   3.960   4.796   7.284  0.2331  0.5270  0.8678
  929MOL0     C25295   3.894   4.673   7.339 -0.1124 -0.4836 -0.2663
  929MOL0     C25296   3.746   4.668   7.290 -0.2627  0.6400 -0.4642
  929MOL0     N25297   3.664   4.766   7.358  0.2952  0.6370 -0.1262
  929MOL0     C25298   3.628   4.767   7.489 -1.2495  0.5132 -0.8937
  929MOL0     C25299   3.571   4.893   7.504  0.3178  0.1314  0.1683
  929MOL0     C25300   3.515   4.944   7.637 -0.3463  0.4471 -0.6827
  929MOL0     C25301   3.624   4.936   7.747  0.3805  0.6131 -0.2035
  929MOL0     C25302   3.578   4.930   7.902  0.2427 -0.2319  0.9905
  929MOL0     C25303   3.487   5.056   7.936 -1.1053 -0.5463 -0.1473
  929MOL0     O25304   3.349   5.031   7.907 -0.8255  0.2921  0.3729
  929MOL0     C25305   3.259   5.079   7.994  0.2594 -0.4492 -0.2088
  929MOL0     C25306   3.129   5.012   7.978 -0.0269  0.3803 -0.4168
  929MOL0     C25307   3.020   5.046   8.064 -1.4729 -0.4812 -0.0346
  929MOL0     C25308   3.037   5.147   8.155  0.0437  0.4373 -1.6386
  929MOL0     C25309   2.927   5.170   8.246 -0.2034  0.4706 -0.6507
  929MOL0     O25310   2.935   5.280   8.332  0.1559 -0.5982  0.2901
  929MOL0     C25311   2.835   5.295   8.425  0.4056 -0.2078  1.0734
  929MOL0     C25312   2.821   5.193   8.525  0.2456 -0.0932 -0.2673
  929MOL0     C25313   2.726   5.205   8.626  0.1387 -0.3384 -0.0044
  929MOL0     C25314   2.645   5.322   8.637 -0.7721  0.3732 -0.3090
  929MOL0     O25315   2.562   5.356   8.745 -0.1062 -0.0246  0.7987
  929MOL0     C25316   2.509   5.237   8.823  0.2463 -0.1772  0.5968
  929MOL0     C25317   2.415   5.288   8.938 -0.2501 -0.1348  0.0021
  929MOL0     C25318   2.357   5.175   9.022  0.6486 -0.4190  0.1157
  929MOL0     C25319   2.231   5.214   9.105  0.0544  0.9690  0.1525
  929MOL0     C25320   2.172   5.089   9.181  0.2214 -0.5651 -0.6449
  929MOL0     C25321   2.049   5.134   9.272  0.2231  0.0485 -0.2690
  929MOL0     C25322   1.988   5.006   9.341 -0.0836  0.6065 -0.4717
  929MOL0     C25323   2.087   4.943   9.443 -0.1261  0.9338 -0.7798
  929MOL0    Cl25324   2.025   4.997   9.610  0.2676 -0.1770  0.1188
  929MOL0     C25325   2.655   5.409   8.537  0.2289  1.1982  0.0631
  929MOL0     C25326   2.756   5.410   8.439  1.2204  0.3104  0.2726
  929MOL0     O25327   2.841   5.081   8.261  0.0576  0.0764 -0.3017
  929MOL0     C25328   3.159   5.218   8.171  0.4636  0.3280 -1.2140
  929MOL0     C25329   3.272   5.181   8.093 -0.3426 -0.0236 -0.7818
  929MOL0     N25330   3.534   4.934   7.382 -0.3606  0.5308  0.2276
  929MOL0     N25331   3.602   4.859   7.299  0.8625  0.2390  1.5211
  929MOL0     C25332   4.769   4.914   7.292 -0.2032 -0.4235  0.0131
  929MOL0     C25333   4.900   4.892   7.337  0.2309  0.0417  0.1658
  929MOL0     C25334   5.303   4.707   7.466  0.3646 -0.6816  0.5454
  929MOL0     C25335   5.337   4.695   7.600 -0.3769 -0.4569  0.6381
  929MOL0     C25336   5.449   4.619   7.635 -0.1384 -0.2753  0.4237
  929MOL0     C25337   5.520   4.549   7.533  0.9043  0.4950 -0.6597
  929MOL0     O25338   5.622   4.470   7.571  0.9662  0.0494  0.3090
  929MOL0     C25339   5.747   4.467   7.495 -0.6628  0.2205 -0.6599
  929MOL0     C25340   5.870   4.473   7.592 -0.8358 -0.1398 -0.0508
  929MOL0     C25341   5.880   4.357   7.693  0.5502  0.6585 -0.0387
  929MOL0     C25342   6.009   4.335   7.773 -0.7367 -0.3282  0.8620
  929MOL0     C25343   6.050   4.455   7.855  0.0904  0.4213 -0.6733
  929MOL0     C25344   6.088   4.545   7.924  1.0901 -1.0080 -0.0387
  929MOL0     C25345   5.473   4.554   7.400 -0.1131 -0.0185  0.3941
  929MOL0     C25346   5.377   4.651   7.362 -0.4651  0.3156 -0.5781
  929MOL0     C25347   5.352   4.668   7.216 -0.4994  0.3170 -0.1500
  929MOL0     H25348   4.921   4.564   7.240 -2.1289 -0.8154 -0.4552
  929MOL0     H25349   4.709   4.619   7.122  1.4548 -1.8504  0.8699
  929MOL0     H25350   4.467   4.976   7.280 -3.1135 -1.6283 -0.3345
  929MOL0     H25351   4.545   5.045   7.129  0.2708  0.6297 -0.0854
  929MOL0     H25352   4.406   4.910   6.992  1.2094 -2.0981  0.9281
  929MOL0     H25353   4.302   5.021   7.091  0.9529 -0.0254 -2.7839
  929MOL0     H25354   4.314   4.729   7.168 -0.8867 -0.2860 -0.9373
  929MOL0     H25355   4.201   4.811   7.057  1.6872  4.1300 -3.5452
  929MOL0     H25356   4.278   4.903   7.330  1.2115 -1.4613 -1.7067
  929MOL0     H25357   4.141   4.969   7.217  1.8724  0.0557 -1.7780
  929MOL0     H25358   4.134   4.705   7.375  1.2629  0.3298 -0.8456
  929MOL0     H25359   4.090   4.857   7.441 -2.1513 -0.4779  0.1861
  929MOL0     H25360   3.913   4.889   7.319 -0.1768  0.9936 -0.8522
  929MOL0     H25361   3.960   4.786   7.175 -0.8784 -1.3342  0.9835
  929MOL0     H25362   3.904   4.680   7.448  0.2208  5.5742 -0.3562
  929MOL0     H25363   3.935   4.578   7.305 -1.7876 -0.9672 -0.9977
  929MOL0     H25364   3.743   4.672   7.181 -1.9221  4.8982 -0.4373
  929MOL0     H25365   3.700   4.571   7.309 -0.0307  0.0683 -2.5117
  929MOL0     H25366   3.645   4.701   7.573  3.2052  2.7665  0.2481
  929MOL0     H25367   3.481   5.048   7.630  3.1630  1.7188 -0.7878
  929MOL0     H25368   3.428   4.897   7.683  0.8540 -2.0555 -0.7669
  929MOL0     H25369   3.677   4.840   7.740  0.1989  0.5807 -1.3111
  929MOL0     H25370   3.695   5.017   7.731 -1.9592  2.7112 -0.5263
  929MOL0     H25371   3.669   4.949   7.959 -0.9699  4.2838  1.8787
  929MOL0     H25372   3.532   4.833   7.920 -1.2219  0.1172 -0.5458
  929MOL0     H25373   3.537   5.140   7.887  1.3096 -1.1654  1.0709
  929MOL0     H25374   3.506   5.053   8.043 -3.3421 -0.9692  0.2874
  929MOL0     H25375   3.105   4.932   7.909 -0.9786  1.3083 -1.1989
  929MOL0     H25376   2.937   4.976   8.066 -2.1426  0.1186 -3.0858
  929MOL0     H25377   2.893   5.112   8.526 -0.1941 -0.4757  0.3328
  929MOL0     H25378   2.732   5.126   8.700  0.3999 -0.1740  0.1516
  929MOL0     H25379   2.454   5.183   8.746  0.4252  1.7011 -0.9319
  929MOL0     H25380   2.586   5.163   8.844 -1.6436 -4.2268 -4.7396
  929MOL0     H25381   2.465   5.349   9.013  2.1050 -0.7296 -0.9938
  929MOL0     H25382   2.338   5.352   8.894  0.5274  2.9124  2.7092
  929MOL0     H25383   2.321   5.091   8.962  0.5577 -1.1220  1.1342
  929MOL0     H25384   2.435   5.132   9.086  1.7706  0.5977 -0.5131
  929MOL0     H25385   2.158   5.253   9.034  0.3244 -2.1325 -2.0372
  929MOL0     H25386   2.264   5.292   9.174  1.7712  0.1436  0.3309
  929MOL0     H25387   2.253   5.044   9.240 -0.4775  1.1175  1.7387
  929MOL0     H25388   2.134   5.014   9.111  2.0376 -2.2939  0.1312
  929MOL0     H25389   2.072   5.203   9.354 -0.3451 -1.3770  1.1410
  929MOL0     H25390   1.974   5.191   9.216  0.1176 -1.2068 -1.4521
  929MOL0     H25391   1.952   4.932   9.269  0.4875 -0.8424  0.6921
  929MOL0     H25392   1.900   5.019   9.406  0.4640 -4.1026  1.6488
  929MOL0     H25393   2.091   4.834   9.434  1.4921  1.1026 -3.1463
  929MOL0     H25394   2.187   4.986   9.436  0.0220  0.4904 -1.5013
  929MOL0     H25395   2.584   5.490   8.539  0.8821  1.8456  3.1885
  929MOL0     H25396   2.767   5.498   8.377  1.4303  1.3956  1.8241
  929MOL0     H25397   3.161   5.294   8.248 -0.5715  1.3897 -2.1928
  929MOL0     H25398   3.361   5.240   8.109 -1.5601  0.9804  3.3969
  929MOL0     H25399   4.729   5.014   7.310 -1.4761 -1.2466  2.1882
  929MOL0     H25400   4.955   4.957   7.404  0.1377 -0.9695  1.2472
  929MOL0     H25401   5.289   4.747   7.682 -2.1107  2.2765 -1.8849
  929MOL0     H25402   5.476   4.623   7.740  1.6308  0.1951 -0.0134
  929MOL0     H25403   5.757   4.556   7.432  1.5120  1.1188  0.8506
  929MOL0     H25404   5.732   4.374   7.439 -1.7012  1.2477 -2.1684
  929MOL0     H25405   5.876   4.570   7.642  0.6350 -0.6300  0.7965
  929MOL0     H25406   5.955   4.483   7.523 -1.4646  0.9472 -0.6969
  929MOL0     H25407   5.866   4.268   7.631 -1.3237  2.1125 -1.8398
  929MOL0     H25408   5.800   4.376   7.765 -0.2153  2.3399 -1.2720
  929MOL0     H25409   6.015   4.251   7.843  3.7479  0.4372  1.7113
  929MOL0     H25410   6.085   4.306   7.700  0.9667 -2.8537  3.3877
  929MOL0     H25411   6.126   4.634   7.971 -0.4519 -0.1609 -0.3128
  929MOL0     H25412   5.531   4.507   7.322 -0.0695 -2.4506  1.7981
  929MOL0     H25413   5.358   4.772   7.182  2.1904 -0.7195 -3.3705
  929MOL0     H25414   5.415   4.608   7.151  1.0893 -0.5978  2.1266
  929MOL0     H25415   5.254   4.631   7.184  0.6780 -2.3953 -0.8734
  930MOL0     O25416   2.199   6.951  10.706  0.1827 -0.0877  0.1173
  930MOL0     C25417   2.225   7.070  10.723 -0.5454 -1.1034 -0.2343
  930MOL0     O25418   2.332   7.115  10.793  0.0779  1.0888 -0.4430
  930MOL0     C25419   2.417   7.012  10.827 -0.3207  0.3109 -0.2535
  930MOL0     C25420   2.424   6.957  10.960  0.3389 -0.1773  1.4247
  930MOL0     C25421   2.530   6.881  11.006 -0.5931  0.2784  0.0551
  930MOL0     C25422   2.636   6.849  10.915  0.3474 -0.0271 -0.0030
  930MOL0     O25423   2.748   6.774  10.946 -0.3234  0.4301  0.4529
  930MOL0     C25424   2.766   6.715  11.080  0.6466 -0.2359 -0.0618
  930MOL0     C25425   2.915   6.650  11.082 -0.3010  0.5551  0.8776
  930MOL0     C25426   2.904   6.519  10.998 -0.0907  0.4056  0.5360
  930MOL0     C25427   2.799   6.422  11.039  0.8700  0.4436 -0.3256
  930MOL0     C25428   2.804   6.267  10.999 -0.2734  0.0467  0.3684
  930MOL0     C25429   2.792   6.249  10.847  0.5107 -0.0476  0.1912
  930MOL0     C25430   2.683   6.328  10.772  0.3475 -0.3779 -0.4140
  930MOL0     C25431   2.679   6.292  10.622 -0.3144 -0.7579 -0.4316
  930MOL0     N25432   2.787   6.370  10.562 -0.4354 -0.2255 -0.1167
  930MOL0     C25433   2.774   6.491  10.502 -0.2714 -0.0468 -0.2984
  930MOL0     C25434   2.875   6.499  10.415  0.0808 -1.1595  1.6634
  930MOL0     C25435   2.876   6.625  10.324 -0.0835  0.4102  0.1148
  930MOL0     C25436   2.756   6.634  10.224  1.1415 -0.9781  0.2122
  930MOL0     C25437   2.780   6.741  10.113 -0.8998 -0.7839  0.6732
  930MOL0     C25438   2.651   6.782  10.043 -0.4072  0.1186 -0.9893
  930MOL0     O25439   2.580   6.653  10.020 -0.1061 -0.2074 -0.1196
  930MOL0     C25440   2.584   6.598   9.897 -0.2074  0.6834  0.0159
  930MOL0     C25441   2.490   6.496   9.873 -0.3821  0.0270 -0.2728
  930MOL0     C25442   2.472   6.437   9.749  0.3485  0.0882 -0.5787
  930MOL0     C25443   2.550   6.479   9.642 -0.8130 -0.1797 -0.6380
  930MOL0     C25444   2.518   6.439   9.511 -0.4320  0.8148 -0.0620
  930MOL0     O25445   2.579   6.495   9.412  0.6009  0.2696  0.9776
  930MOL0     C25446   2.568   6.446   9.286  1.1941  0.8670  0.0448
  930MOL0     C25447   2.438   6.444   9.219 -0.8932  1.0058  0.7181
  930MOL0     C25448   2.438   6.398   9.077 -0.4940 -0.0821  0.3024
  930MOL0     C25449   2.549   6.351   9.014  0.7230  0.0178  0.3258
  930MOL0     O25450   2.514   6.300   8.891  0.0039  0.0766 -0.2771
  930MOL0     C25451   2.630   6.270   8.810 -0.0818  0.0913 -0.1295
  930MOL0     C25452   2.587   6.229   8.667  0.5314 -0.2320  0.5883
  930MOL0     C25453   2.512   6.353   8.611  0.4195 -1.1289  0.6243
  930MOL0     C25454   2.437   6.331   8.478 -0.2089 -0.1707  0.2985
  930MOL0     C25455   2.403   6.458   8.398  0.7751  0.4369 -0.4623
  930MOL0     C25456   2.368   6.431   8.249  0.0324 -0.2697  0.3583
  930MOL0     C25457   2.266   6.536   8.194 -1.3419 -0.5718  1.0097
  930MOL0     C25458   2.188   6.473   8.068 -0.0818  0.1480 -0.8909
  930MOL0    Cl25459   2.299   6.435   7.934  0.4771  0.3817  0.2166
  930MOL0     C25460   2.673   6.352   9.082  0.4502 -0.4010 -0.8146
  930MOL0     C25461   2.686   6.408   9.213  0.4936  0.3444  0.0614
  930MOL0     O25462   2.435   6.353   9.497  0.2867  0.5154 -0.4024
  930MOL0     C25463   2.651   6.577   9.671 -0.5977 -0.1322  0.2047
  930MOL0     C25464   2.684   6.620   9.798 -0.1830 -0.0258 -0.3362
  930MOL0     N25465   2.954   6.393  10.417 -0.7755 -0.4755  0.0383
  930MOL0     N25466   2.900   6.315  10.502  0.9249 -0.4892  0.1049
  930MOL0     C25467   2.629   6.890  10.788  0.0927 -1.0046  0.5351
  930MOL0     C25468   2.519   6.974  10.743  0.4189  0.4211  0.4432
  930MOL0     C25469   2.129   7.173  10.671  0.5419 -0.5263 -0.4846
  930MOL0     C25470   2.171   7.311  10.670  1.1290  0.1527 -0.0823
  930MOL0     C25471   2.096   7.408  10.609 -0.1007 -0.0434 -1.0670
  930MOL0     C25472   1.981   7.388  10.543  0.3088  0.3282 -0.6435
  930MOL0     O25473   1.931   7.500  10.489  0.0524  0.1898  0.1176
  930MOL0     C25474   1.832   7.489  10.384  0.5659  0.0499 -0.2712
  930MOL0     C25475   1.773   7.625  10.341  0.5423 -0.3388  0.1459
  930MOL0     C25476   1.663   7.588  10.240  0.4254 -0.2806 -0.0404
  930MOL0     C25477   1.563   7.711  10.234 -0.7688 -0.1075  0.7341
  930MOL0     C25478   1.438   7.669  10.167  0.1921 -0.0781  0.5336
  930MOL0     C25479   1.340   7.650  10.104  0.0748  0.1675  0.4462
  930MOL0     C25480   1.939   7.256  10.538 -0.5700  0.5574 -0.1884
  930MOL0     C25481   2.009   7.149  10.606  0.7050 -0.4369  0.2160
  930MOL0     C25482   1.942   7.016  10.598  0.7207 -0.8606  1.0523
  930MOL0     H25483   2.342   6.979  11.028 -2.8498 -1.7032 -1.5859
  930MOL0     H25484   2.541   6.850  11.109  2.1682  1.6923  0.2788
  930MOL0     H25485   2.753   6.800  11.147 -2.5425 -0.0677 -0.7100
  930MOL0     H25486   2.678   6.653  11.104 -1.0073  2.3748  1.0751
  930MOL0     H25487   2.939   6.616  11.184 -0.9244 -0.7608  0.6091
  930MOL0     H25488   2.984   6.723  11.040 -0.1792 -0.8753 -1.5612
  930MOL0     H25489   2.999   6.464  11.006 -0.1191  0.4607  1.3256
  930MOL0     H25490   2.903   6.553  10.894  4.5134 -1.1342 -0.2468
  930MOL0     H25491   2.785   6.414  11.147 -1.6266 -4.0557 -0.7101
  930MOL0     H25492   2.699   6.456  11.010 -0.3298 -0.6168  2.2249
  930MOL0     H25493   2.895   6.223  11.039  0.4483 -2.3236 -3.3560
  930MOL0     H25494   2.724   6.217  11.055 -0.8567  1.0508  0.4447
  930MOL0     H25495   2.887   6.285  10.806  0.3625  0.8394  0.6106
  930MOL0     H25496   2.793   6.141  10.830  0.7723  0.1966 -1.4592
  930MOL0     H25497   2.688   6.437  10.783  1.3420 -0.5102  0.6855
  930MOL0     H25498   2.583   6.303  10.808  0.4587  2.3122  2.1615
  930MOL0     H25499   2.695   6.184  10.624  0.1123 -0.6805  0.9624
  930MOL0     H25500   2.587   6.314  10.567 -0.9364 -0.6563  0.6347
  930MOL0     H25501   2.693   6.558  10.528  0.7355  0.7989  0.7657
  930MOL0     H25502   2.880   6.714  10.388  1.8494  0.4442 -0.0219
  930MOL0     H25503   2.964   6.632  10.260 -1.4344  1.0822 -1.7965
  930MOL0     H25504   2.733   6.542  10.170 -0.9255  1.0003 -2.5610
  930MOL0     H25505   2.664   6.667  10.275  1.2896  2.6716 -1.5195
  930MOL0     H25506   2.857   6.700  10.047 -1.1685  2.8828 -2.2470
  930MOL0     H25507   2.825   6.830  10.158 -2.4431  1.3739 -1.8190
  930MOL0     H25508   2.665   6.847   9.955 -0.8863  2.9845  0.9214
  930MOL0     H25509   2.591   6.846  10.108  0.8027  0.0371  0.2536
  930MOL0     H25510   2.464   6.449   9.967  1.7106 -1.9875 -0.6289
  930MOL0     H25511   2.406   6.351   9.737  0.9206 -0.2507 -1.3953
  930MOL0     H25512   2.341   6.472   9.259 -0.4247  0.3410  2.3716
  930MOL0     H25513   2.346   6.419   9.023 -1.0441  3.0385  2.1881
  930MOL0     H25514   2.701   6.354   8.810 -2.0935  1.8690  0.4092
  930MOL0     H25515   2.660   6.179   8.863 -0.4884 -1.0496 -1.7857
  930MOL0     H25516   2.678   6.202   8.613  3.2495  2.4809  3.4086
  930MOL0     H25517   2.513   6.149   8.675  0.3147  0.0328  1.2850
  930MOL0     H25518   2.437   6.393   8.680  0.5109  2.2169 -1.0459
  930MOL0     H25519   2.582   6.435   8.594 -2.0379  0.8666 -0.6103
  930MOL0     H25520   2.343   6.276   8.478 -1.6781  2.1807 -0.4718
  930MOL0     H25521   2.506   6.267   8.422 -1.8165 -0.1029 -1.9026
  930MOL0     H25522   2.490   6.525   8.394  2.1115 -1.1827  0.0835
  930MOL0     H25523   2.327   6.507   8.459 -1.9659 -4.0946  0.2448
  930MOL0     H25524   2.456   6.440   8.185  0.0327  0.0913  0.4087
  930MOL0     H25525   2.340   6.326   8.242 -3.4191  0.5450  0.1157
  930MOL0     H25526   2.316   6.627   8.160 -2.7041 -1.1165 -3.0562
  930MOL0     H25527   2.197   6.555   8.277 -1.9802 -1.3204  0.6622
  930MOL0     H25528   2.144   6.383   8.113  0.1292  0.5453  0.1464
  930MOL0     H25529   2.107   6.539   8.036 -2.3173 -1.6040  0.8074
  930MOL0     H25530   2.755   6.331   9.014 -3.0863  0.5136 -5.9585
  930MOL0     H25531   2.787   6.430   9.246 -0.0168 -0.8681  2.7596
  930MOL0     H25532   2.720   6.618   9.598 -2.1700  1.6081 -0.3957
  930MOL0     H25533   2.771   6.682   9.816 -0.1891 -0.6614  2.4029
  930MOL0     H25534   2.702   6.850  10.718 -0.2121 -3.7169  1.6536
  930MOL0     H25535   2.501   6.996  10.639 -0.2753  0.4982  0.5738
  930MOL0     H25536   2.253   7.349  10.730  2.0179 -2.4202  0.4739
  930MOL0     H25537   2.114   7.515  10.617 -4.2659  1.0029 -3.2907
  930MOL0     H25538   1.758   7.413  10.411  1.2297 -0.4220  0.2345
  930MOL0     H25539   1.885   7.447  10.298  0.2771 -2.3688  0.6503
  930MOL0     H25540   1.843   7.699  10.300 -1.0977  0.7955 -0.7205
  930MOL0     H25541   1.718   7.666  10.425  1.4869 -0.3350  0.7764
  930MOL0     H25542   1.603   7.508  10.285 -2.0722  0.3133 -2.1163
  930MOL0     H25543   1.703   7.549  10.146  0.4387 -3.1945  1.0546
  930MOL0     H25544   1.536   7.732  10.338  2.6363  0.7067  1.5805
  930MOL0     H25545   1.608   7.802  10.193  0.5843 -0.5011  1.3026
  930MOL0     H25546   1.253   7.639  10.044  0.9416  1.0225 -1.0188
  930MOL0     H25547   1.848   7.233  10.484 -0.5241  0.1575 -0.0995
  930MOL0     H25548   1.979   6.958  10.513  0.1511  0.5447 -0.2074
  930MOL0     H25549   1.959   6.946  10.680  0.6528 -0.0421  1.7841
  930MOL0     H25550   1.833   7.025  10.591  0.7176  2.0459  3.1825
  931MOL0     O25551   4.205   1.346   1.961  0.5874 -0.1141  0.8279
  931MOL0     C25552   4.317   1.379   1.979  0.6813  0.0873  0.5194
  931MOL0     O25553   4.348   1.498   2.022  0.4271 -0.5581  0.0025
  931MOL0     C25554   4.264   1.580   2.084  0.3490  0.1844  0.1986
  931MOL0     C25555   4.189   1.546   2.193 -0.0111  0.6723 -0.0505
  931MOL0     C25556   4.106   1.645   2.256  0.3361 -0.2570 -0.4549
  931MOL0     C25557   4.110   1.779   2.214  0.6905 -0.2564 -0.5743
  931MOL0     O25558   4.035   1.881   2.275 -0.3345 -1.3084 -0.4083
  931MOL0     C25559   3.959   1.858   2.400 -0.8696  0.3916 -0.7971
  931MOL0     C25560   3.879   1.981   2.446  0.1344  0.6118 -0.1577
  931MOL0     C25561   3.909   2.007   2.591 -0.0518 -0.1441 -0.4519
  931MOL0     C25562   3.799   2.096   2.650  0.1022 -0.3029  0.1419
  931MOL0     C25563   3.818   2.118   2.794  0.1845 -0.5830 -0.9089
  931MOL0     C25564   3.942   2.194   2.844  0.5334 -0.2161 -0.2521
  931MOL0     C25565   3.954   2.195   2.993 -0.4269  0.6427 -1.2345
  931MOL0     C25566   4.082   2.271   3.050  0.1358  0.2048 -0.4931
  931MOL0     N25567   4.050   2.417   3.044  0.2228  0.8194 -0.5360
  931MOL0     C25568   4.040   2.499   3.150 -0.3171 -0.0407  0.1927
  931MOL0     C25569   4.100   2.611   3.106  0.6415  1.1195  0.4034
  931MOL0     C25570   4.128   2.726   3.198  0.4423  0.9730  0.4577
  931MOL0     C25571   4.012   2.827   3.183  0.0657 -0.5416  0.4383
  931MOL0     C25572   4.003   2.886   3.038  0.3831 -0.5852 -0.2027
  931MOL0     C25573   3.913   3.010   3.020 -0.5417 -0.3313 -1.0225
  931MOL0     O25574   3.933   3.098   3.130  0.2747 -0.5521 -0.5686
  931MOL0     C25575   3.980   3.234   3.119 -0.5668  0.3620  0.0929
  931MOL0     C25576   4.035   3.277   3.237 -0.8213 -0.0295 -0.4703
  931MOL0     C25577   4.098   3.404   3.244 -0.2737 -0.6801 -0.4762
  931MOL0     C25578   4.104   3.485   3.127 -0.9471 -0.6129 -0.7241
  931MOL0     C25579   4.172   3.616   3.137 -0.0268  0.8044  0.3130
  931MOL0     O25580   4.224   3.637   3.256  0.9576 -0.0225 -0.1082
  931MOL0     C25581   4.285   3.759   3.281 -0.0223  0.3626 -0.0098
  931MOL0     C25582   4.396   3.800   3.202  0.4817 -0.4215  0.2958
  931MOL0     C25583   4.457   3.922   3.230 -0.5668 -0.4602  1.3138
  931MOL0     C25584   4.404   4.013   3.323  0.9413  0.1128  0.8641
  931MOL0     O25585   4.444   4.143   3.347  1.2412  0.3254  0.3904
  931MOL0     C25586   4.524   4.208   3.248 -0.2627 -0.5592  0.0536
  931MOL0     C25587   4.542   4.357   3.285  0.1392  0.6865  0.3391
  931MOL0     C25588   4.638   4.395   3.396  0.3476 -0.0087 -1.3188
  931MOL0     C25589   4.782   4.347   3.375  0.6266 -0.8977 -0.5604
  931MOL0     C25590   4.864   4.389   3.497 -0.3390  1.1369  0.5359
  931MOL0     C25591   4.885   4.540   3.490  0.3593  0.5913  0.0219
  931MOL0     C25592   5.002   4.586   3.580  0.2652  0.8521  1.0939
  931MOL0     C25593   5.048   4.721   3.530  0.0635 -0.3119 -0.4720
  931MOL0    Cl25594   5.212   4.743   3.591  0.2176 -0.3236 -0.3985
  931MOL0     C25595   4.285   3.972   3.390 -0.0233  0.0618  0.2875
  931MOL0     C25596   4.229   3.847   3.373  0.2058  0.2611 -0.7408
  931MOL0     O25597   4.174   3.691   3.042 -0.2344  0.3243 -0.3370
  931MOL0     C25598   4.057   3.438   3.004 -0.7445 -0.6448  0.3500
  931MOL0     C25599   3.990   3.317   3.001 -1.3842  1.1562 -0.2651
  931MOL0     N25600   4.134   2.599   2.969 -0.3724 -1.0659 -0.2354
  931MOL0     N25601   4.103   2.483   2.940 -0.2272  0.3205  1.1225
  931MOL0     C25602   4.198   1.816   2.106  0.3242  0.5270 -0.1709
  931MOL0     C25603   4.266   1.713   2.037 -0.1002  0.5231  0.3338
  931MOL0     C25604   4.430   1.286   1.931 -0.4210 -0.3458 -1.2706
  931MOL0     C25605   4.557   1.343   1.931  0.2592  0.0562  0.0936
  931MOL0     C25606   4.665   1.285   1.877 -0.2826 -0.7512  0.6426
  931MOL0     C25607   4.659   1.161   1.805 -0.4526  2.0037  0.1141
  931MOL0     O25608   4.770   1.094   1.772 -0.1619 -0.1316  0.2734
  931MOL0     C25609   4.780   1.038   1.636 -0.1596  0.5762  0.2658
  931MOL0     C25610   4.929   1.010   1.595  0.2764 -0.6951 -0.2719
  931MOL0     C25611   4.963   0.876   1.660  0.0152  0.5365  0.2208
  931MOL0     C25612   5.110   0.843   1.667  0.1855 -0.5901 -0.0698
  931MOL0     C25613   5.186   0.879   1.554  0.1239 -0.3326 -0.0961
  931MOL0     C25614   5.268   0.892   1.470  0.5118  0.1451 -0.1918
  931MOL0     C25615   4.533   1.102   1.819  1.0198 -0.7935  1.1803
  931MOL0     C25616   4.416   1.157   1.881 -0.2584 -0.1664  0.1216
  931MOL0     C25617   4.291   1.079   1.884  0.6156 -0.8714  0.6762
  931MOL0     H25618   4.193   1.446   2.235  1.1991 -0.2099 -2.1135
  931MOL0     H25619   4.053   1.623   2.347  1.8753  0.3537  0.6418
  931MOL0     H25620   3.885   1.777   2.393 -2.3472  1.8601 -4.0551
  931MOL0     H25621   4.037   1.834   2.473  1.8224  2.4432 -2.7938
  931MOL0     H25622   3.774   1.956   2.428  1.0904 -3.1302 -1.5434
  931MOL0     H25623   3.916   2.064   2.385  0.4474 -0.1542 -1.0362
  931MOL0     H25624   4.001   2.063   2.611  1.9505 -3.8201  1.7411
  931MOL0     H25625   3.918   1.909   2.640 -0.3655 -1.3279 -2.6312
  931MOL0     H25626   3.808   2.188   2.591  1.9865 -1.0055 -0.7306
  931MOL0     H25627   3.698   2.055   2.635 -1.3298  2.1909  2.0956
  931MOL0     H25628   3.738   2.179   2.837  1.6014 -0.1714  1.3006
  931MOL0     H25629   3.824   2.021   2.844 -1.7133 -1.1615 -1.6979
  931MOL0     H25630   4.035   2.148   2.809  2.2266  0.3806  3.0810
  931MOL0     H25631   3.929   2.297   2.811 -1.1214 -1.2825 -3.3018
  931MOL0     H25632   3.955   2.091   3.027 -1.4373  0.7193 -0.9401
  931MOL0     H25633   3.865   2.237   3.040 -0.2165  1.2407 -1.3602
  931MOL0     H25634   4.121   2.246   3.149 -1.6422  1.0515  0.4693
  931MOL0     H25635   4.168   2.252   2.985  0.9791 -0.9309  0.9025
  931MOL0     H25636   4.016   2.496   3.256  0.8847 -1.1643  0.4446
  931MOL0     H25637   4.141   2.688   3.300 -2.0433 -2.3079 -0.2923
  931MOL0     H25638   4.224   2.761   3.160  1.1191 -1.3403 -0.1325
  931MOL0     H25639   3.922   2.770   3.208 -0.8130  0.1632 -1.0162
  931MOL0     H25640   4.026   2.900   3.264  0.4675 -1.8315  1.5702
  931MOL0     H25641   3.969   2.810   2.968  0.2853  0.1573 -0.9777
  931MOL0     H25642   4.100   2.915   2.996 -1.5263  1.4295 -3.6677
  931MOL0     H25643   3.809   2.978   3.035 -0.2737 -0.0559  1.8440
  931MOL0     H25644   3.932   3.043   2.917 -3.1371 -4.7583 -3.2034
  931MOL0     H25645   4.022   3.218   3.327  2.4037  1.1693  0.9640
  931MOL0     H25646   4.123   3.438   3.344  2.8289 -1.5377 -0.8696
  931MOL0     H25647   4.431   3.725   3.131 -0.8278 -2.4566  1.6679
  931MOL0     H25648   4.538   3.947   3.163 -1.1948  0.0610  0.7349
  931MOL0     H25649   4.623   4.164   3.237  0.3955  1.1678 -1.4445
  931MOL0     H25650   4.472   4.195   3.152  1.6558 -3.5478 -0.7266
  931MOL0     H25651   4.583   4.410   3.198 -0.9784  0.2774 -0.4555
  931MOL0     H25652   4.442   4.394   3.312 -0.1774  0.0629  0.0543
  931MOL0     H25653   4.630   4.503   3.410 -0.3660  0.2077 -3.0998
  931MOL0     H25654   4.604   4.343   3.486  0.1791 -2.8013 -2.8684
  931MOL0     H25655   4.820   4.390   3.282 -0.5908  0.1752 -0.5925
  931MOL0     H25656   4.776   4.238   3.373 -2.0729 -0.8585  0.9553
  931MOL0     H25657   4.955   4.330   3.488 -1.4968 -1.0354  2.0776
  931MOL0     H25658   4.828   4.363   3.597 -1.4089 -1.1908 -0.3917
  931MOL0     H25659   4.903   4.581   3.390  2.1319 -0.1121  0.0232
  931MOL0     H25660   4.795   4.592   3.525  0.3363  1.9534 -1.8876
  931MOL0     H25661   5.095   4.530   3.569 -0.4962 -0.1258 -0.8661
  931MOL0     H25662   4.960   4.584   3.681  0.1006  1.8783  1.0611
  931MOL0     H25663   5.038   4.736   3.422 -0.0866  2.6513 -0.1362
  931MOL0     H25664   4.994   4.800   3.583  0.1883  0.6586 -1.7309
  931MOL0     H25665   4.246   4.035   3.470 -0.1739  1.6512 -0.9837
  931MOL0     H25666   4.139   3.824   3.428 -0.7175  3.7085 -0.5603
  931MOL0     H25667   4.058   3.507   2.920  0.9374  0.4954  1.2357
  931MOL0     H25668   3.950   3.274   2.910 -0.6130  0.9387 -0.5114
  931MOL0     H25669   4.203   1.916   2.065  1.1817  0.4258 -0.3333
  931MOL0     H25670   4.323   1.732   1.947  0.5163 -3.9467 -0.4587
  931MOL0     H25671   4.575   1.441   1.974 -1.3452  0.8796 -1.0052
  931MOL0     H25672   4.761   1.330   1.901 -0.0402 -1.9186  1.9723
  931MOL0     H25673   4.749   1.117   1.568  0.1646  0.5058  0.0331
  931MOL0     H25674   4.716   0.949   1.628 -0.7248  0.8734  1.2270
  931MOL0     H25675   4.982   1.098   1.633 -2.0560  1.6628 -2.1376
  931MOL0     H25676   4.947   1.005   1.487 -1.7006 -1.4047 -0.6195
  931MOL0     H25677   4.915   0.789   1.613  0.1382 -1.0712  2.8469
  931MOL0     H25678   4.925   0.873   1.763 -0.5571 -1.0244  0.0030
  931MOL0     H25679   5.152   0.903   1.748  0.9627 -3.6264  1.9557
  931MOL0     H25680   5.122   0.738   1.697 -0.1499 -1.1276 -1.7068
  931MOL0     H25681   5.351   0.899   1.402  3.3928 -2.2197  2.7369
  931MOL0     H25682   4.521   0.999   1.787  0.4425 -0.0691 -1.1128
  931MOL0     H25683   4.301   0.991   1.818  2.3623  0.0933 -0.4114
  931MOL0     H25684   4.283   1.058   1.991  3.4761 -1.5881  0.8207
  931MOL0     H25685   4.206   1.134   1.842  1.5964  0.2282  0.0728
  932MOL0     O25686  10.870  10.553   8.873  0.2080  0.0936 -0.3062
  932MOL0     C25687  10.890  10.537   8.991 -0.3026  0.3578 -0.0661
  932MOL0     O25688  10.911  10.644   9.072  0.2493 -0.2360  0.4842
  932MOL0     C25689  10.969  10.759   9.029  0.0849  0.0189 -1.7546
  932MOL0     C25690  10.928  10.868   9.107 -0.0037  0.8143  0.0676
  932MOL0     C25691  10.989  10.989   9.069  0.3307 -0.6433  0.0542
  932MOL0     C25692  11.074  11.017   8.965  0.7670  0.7119  0.8719
  932MOL0     O25693  11.141  11.134   8.956 -0.5170 -0.9513 -0.1357
  932MOL0     C25694  11.290  11.115   8.958  0.8966 -0.3694 -0.3799
  932MOL0     C25695  11.337  11.247   9.019 -0.4336 -0.0150  0.0694
  932MOL0     C25696  11.411  11.231   9.153  0.8136  0.5452 -0.0743
  932MOL0     C25697  11.329  11.150   9.259  0.1967  0.6707  0.6980
  932MOL0     C25698  11.350  11.177   9.411  0.1178 -0.4968  0.0489
  932MOL0     C25699  11.257  11.108   9.504  0.5187 -0.2446 -0.0814
  932MOL0     C25700  11.277  11.142   9.649 -0.2636 -0.6292 -0.1329
  932MOL0     C25701  11.226  11.038   9.750 -0.1757 -0.5463 -0.5850
  932MOL0     N25702  11.290  11.055   9.879 -0.5317 -0.1300  0.1652
  932MOL0     C25703  11.271  11.154   9.976  1.4004 -0.3574  0.2163
  932MOL0     C25704  11.343  11.127  10.086 -0.7004  0.2611 -0.2817
  932MOL0     C25705  11.366  11.204  10.208 -1.3378 -0.0988 -0.7386
  932MOL0     C25706  11.294  11.165  10.337  0.4948 -0.0140 -0.3308
  932MOL0     C25707  11.333  11.244  10.469  0.0298 -0.3881 -0.8979
  932MOL0     C25708  11.297  11.397  10.471 -0.4987  0.2281 -0.8958
  932MOL0     O25709  11.391  11.463  10.566  0.5029 -0.1173 -0.8223
  932MOL0     C25710  11.478  11.550  10.520  0.3854 -0.2816 -0.7791
  932MOL0     C25711  11.541  11.526  10.396 -0.2510  0.4485 -0.6424
  932MOL0     C25712  11.624  11.628  10.343 -0.2657  0.4854  0.3076
  932MOL0     C25713  11.656  11.742  10.418  0.0554  0.3481  0.1193
  932MOL0     C25714  11.749  11.846  10.360 -0.3944 -0.5014  0.3589
  932MOL0     O25715  11.747  11.856  10.220 -0.0596 -0.6272  0.0814
  932MOL0     C25716  11.795  11.965  10.152  0.6065 -0.3173  0.8273
  932MOL0     C25717  11.909  12.043  10.191 -0.4051  0.4296  1.2569
  932MOL0     C25718  11.957  12.157  10.115 -1.0929 -1.1200  0.0790
  932MOL0     C25719  11.896  12.188  10.000  0.0938 -0.9524 -0.1567
  932MOL0     O25720  11.946  12.283   9.917  0.0092 -0.4365 -0.2856
  932MOL0     C25721  12.011  12.405   9.963  0.3192  0.6705  0.0224
  932MOL0     C25722  12.159  12.414   9.917 -0.3084 -0.6310  0.0321
  932MOL0     C25723  12.180  12.444   9.768 -0.7365 -0.2988 -0.1223
  932MOL0     C25724  12.327  12.500   9.745 -0.3012  1.0495  0.1789
  932MOL0     C25725  12.341  12.562   9.598  0.6555  0.8527  0.3711
  932MOL0     C25726  12.301  12.710   9.590 -0.6200 -0.1838 -0.8276
  932MOL0     C25727  12.292  12.760   9.444  0.1596  0.4249 -0.1975
  932MOL0     C25728  12.429  12.814   9.384  0.6096  0.2684 -0.4739
  932MOL0    Cl25729  12.562  12.867   9.496 -0.1258 -0.1739  0.0647
  932MOL0     C25730  11.780  12.121   9.959 -0.3433 -0.1734 -0.2709
  932MOL0     C25731  11.737  12.005  10.033 -0.8162 -0.5890  1.1902
  932MOL0     O25732  11.821  11.911  10.434 -0.3974  0.2016  0.0308
  932MOL0     C25733  11.603  11.756  10.546  1.0284 -1.0513  0.2164
  932MOL0     C25734  11.522  11.657  10.601 -0.2200 -0.3014 -0.1544
  932MOL0     N25735  11.396  11.004  10.062  0.0419  0.2534  0.1739
  932MOL0     N25736  11.366  10.954   9.944 -0.3698  0.1422  1.1894
  932MOL0     C25737  11.094  10.912   8.888 -0.0671  1.2849 -0.4334
  932MOL0     C25738  11.051  10.780   8.916  0.5908 -0.1920 -0.1850
  932MOL0     C25739  10.868  10.405   9.055  0.3379  0.3468 -0.1508
  932MOL0     C25740  10.904  10.295   8.978 -0.2674 -0.3714  0.1528
  932MOL0     C25741  10.874  10.171   9.021  0.3502  0.4002 -0.3519
  932MOL0     C25742  10.805  10.151   9.141 -1.1206 -0.6871 -0.2749
  932MOL0     O25743  10.762  10.035   9.185 -0.6623  0.1911 -0.5624
  932MOL0     C25744  10.667   9.962   9.107 -0.0836 -0.7656 -0.3290
  932MOL0     C25745  10.515   9.966   9.158  0.4224 -0.5221  0.1914
  932MOL0     C25746  10.514   9.923   9.306  0.4498  0.8657 -0.1838
  932MOL0     C25747  10.430   9.790   9.325 -0.2293  1.2297  0.3427
  932MOL0     C25748  10.500   9.700   9.417  0.0322  0.2167 -0.0570
  932MOL0     C25749  10.560   9.626   9.483  0.7800 -0.1730  0.4295
  932MOL0     C25750  10.757  10.262   9.211  0.1890 -0.6094 -0.9304
  932MOL0     C25751  10.784  10.389   9.167  0.3529 -0.7530  0.4091
  932MOL0     C25752  10.710  10.500   9.233  0.0190  0.0448 -0.4745
  932MOL0     H25753  10.861  10.856   9.192  0.2613 -0.5561  0.1057
  932MOL0     H25754  10.977  11.068   9.143 -0.4254  1.5334 -2.2699
  932MOL0     H25755  11.317  11.028   9.019  0.9120  0.2284  0.4901
  932MOL0     H25756  11.332  11.096   8.859  1.8447  2.4254 -0.6019
  932MOL0     H25757  11.249  11.308   9.035 -0.7560 -0.5251  0.2687
  932MOL0     H25758  11.392  11.301   8.941  0.0819  1.5626  1.4868
  932MOL0     H25759  11.432  11.330   9.194  1.6733  0.0750  0.6571
  932MOL0     H25760  11.508  11.182   9.139  1.2209  1.4760 -0.5874
  932MOL0     H25761  11.223  11.173   9.242 -0.6449 -3.6374 -1.3178
  932MOL0     H25762  11.340  11.042   9.248 -3.5990  0.3462 -1.7339
  932MOL0     H25763  11.455  11.152   9.429 -0.1865 -1.2850  0.7754
  932MOL0     H25764  11.345  11.286   9.421 -1.4029 -0.6943  2.1008
  932MOL0     H25765  11.154  11.133   9.477  0.0448 -1.3021  0.6857
  932MOL0     H25766  11.252  10.999   9.498 -3.4600 -0.1416 -1.7553
  932MOL0     H25767  11.226  11.238   9.662 -2.7864 -1.8429 -0.4806
  932MOL0     H25768  11.385  11.156   9.664 -0.3515 -0.3431  0.2623
  932MOL0     H25769  11.118  11.041   9.764 -0.0747 -2.2175  0.9783
  932MOL0     H25770  11.264  10.945   9.706 -1.6112 -0.5003 -2.0164
  932MOL0     H25771  11.222  11.250   9.960  1.0633 -0.9122 -2.5521
  932MOL0     H25772  11.475  11.198  10.222 -1.2589  2.2226  0.1040
  932MOL0     H25773  11.346  11.311  10.198 -0.7581 -0.0199 -1.1170
  932MOL0     H25774  11.190  11.185  10.309  0.1896  0.5783  1.1339
  932MOL0     H25775  11.315  11.058  10.346  3.7264  0.1119 -3.6911
  932MOL0     H25776  11.436  11.220  10.494 -0.0102  1.7331  1.8828
  932MOL0     H25777  11.262  11.224  10.550 -0.3919  0.5247 -1.0200
  932MOL0     H25778  11.201  11.418  10.519 -0.7300 -1.2660 -0.6448
  932MOL0     H25779  11.300  11.439  10.370  1.1355 -2.5340 -2.1127
  932MOL0     H25780  11.514  11.433  10.346 -0.1018 -2.2488  3.8035
  932MOL0     H25781  11.668  11.605  10.247 -0.5641 -0.6881  0.4308
  932MOL0     H25782  11.954  12.012  10.285 -2.0699 -4.3157  0.7448
  932MOL0     H25783  12.053  12.205  10.132 -0.4330 -2.0654 -0.8482
  932MOL0     H25784  11.950  12.486   9.924 -2.3933 -0.9073  0.7565
  932MOL0     H25785  12.004  12.415  10.071  2.8068  1.5397  0.1618
  932MOL0     H25786  12.206  12.494   9.974 -0.2974  0.1750 -1.0618
  932MOL0     H25787  12.215  12.323   9.940  3.5743  1.5724  0.0698
  932MOL0     H25788  12.174  12.344   9.724  0.2264 -0.0058 -0.9525
  932MOL0     H25789  12.105  12.502   9.714 -1.8491  0.7330  2.3819
  932MOL0     H25790  12.401  12.420   9.752 -1.0025 -0.0827 -3.5411
  932MOL0     H25791  12.352  12.573   9.823  0.5577  1.6549 -0.6496
  932MOL0     H25792  12.265  12.511   9.538 -1.0197  0.1156  2.9260
  932MOL0     H25793  12.445  12.548   9.566  0.4587  1.5310 -0.6060
  932MOL0     H25794  12.207  12.720   9.645  0.4111  0.4277  0.9125
  932MOL0     H25795  12.372  12.769   9.648 -2.5780  1.3100  0.1667
  932MOL0     H25796  12.218  12.839   9.430 -1.7124 -1.3647 -0.9197
  932MOL0     H25797  12.261  12.676   9.382  2.2286  0.2972 -1.1452
  932MOL0     H25798  12.475  12.734   9.324 -1.5166 -2.3509  1.1424
  932MOL0     H25799  12.419  12.891   9.307 -1.5385 -1.5645 -2.2124
  932MOL0     H25800  11.727  12.150   9.869 -0.7107 -1.1753 -0.3925
  932MOL0     H25801  11.646  11.954  10.003 -1.4272 -0.2782  2.4402
  932MOL0     H25802  11.636  11.845  10.598  0.3840 -1.3640  1.1960
  932MOL0     H25803  11.484  11.675  10.701 -1.5370 -3.0567 -0.0891
  932MOL0     H25804  11.161  10.911   8.803 -1.7193 -1.7340 -1.8513
  932MOL0     H25805  11.085  10.698   8.854  2.7696 -0.6016  1.4247
  932MOL0     H25806  10.962  10.311   8.888  4.6634 -0.6564  2.9315
  932MOL0     H25807  10.896  10.084   8.959  0.5483  1.4802 -1.8594
  932MOL0     H25808  10.698   9.857   9.113  1.7559 -0.2523 -0.4723
  932MOL0     H25809  10.684   9.996   9.005  4.6947  2.1258  1.1652
  932MOL0     H25810  10.455   9.896   9.099 -0.4587  0.5610 -0.2241
  932MOL0     H25811  10.476  10.068   9.148  2.4472  0.0700 -3.6022
  932MOL0     H25812  10.465  10.007   9.356 -0.1950  2.7364 -3.6472
  932MOL0     H25813  10.613   9.918   9.351  0.2467  1.4983  0.3598
  932MOL0     H25814  10.323   9.796   9.346 -0.1067 -0.5205  1.7530
  932MOL0     H25815  10.436   9.737   9.229 -1.1423 -1.0107  1.4480
  932MOL0     H25816  10.593   9.546   9.546 -3.5525 -0.0903  3.1833
  932MOL0     H25817  10.691  10.233   9.292  1.9218 -3.7530 -0.4911
  932MOL0     H25818  10.655  10.551   9.153  2.4921  2.0521 -1.0212
  932MOL0     H25819  10.648  10.460   9.314  1.0395 -0.1744  0.2147
  932MOL0     H25820  10.785  10.565   9.278  0.0717  0.4595 -1.1498
  933MOL0     O25821  11.274   6.851   4.680  0.0801 -0.0453  0.1405
  933MOL0     C25822  11.333   6.890   4.780 -0.2849 -0.6815  0.4766
  933MOL0     O25823  11.306   6.994   4.859 -0.7345  0.2201  0.0800
  933MOL0     C25824  11.210   7.083   4.816 -0.9158 -1.4903 -0.1290
  933MOL0     C25825  11.086   7.094   4.876 -0.6040 -0.2461 -0.5257
  933MOL0     C25826  10.995   7.185   4.822 -0.5009 -0.6597 -0.8254
  933MOL0     C25827  11.027   7.260   4.710  0.4469 -0.0831 -1.5471
  933MOL0     O25828  10.930   7.341   4.659  0.2791  0.3728 -0.0443
  933MOL0     C25829  10.920   7.354   4.509 -1.5443  0.2082  0.0524
  933MOL0     C25830  10.780   7.394   4.457 -0.0162 -0.3312  0.4798
  933MOL0     C25831  10.775   7.425   4.307 -0.0228  0.5503 -0.6192
  933MOL0     C25832  10.832   7.569   4.290 -0.1380  0.2111  0.0879
  933MOL0     C25833  10.827   7.613   4.138 -0.4705 -0.3902  0.5376
  933MOL0     C25834  10.682   7.632   4.087  0.3281 -0.1457  0.5526
  933MOL0     C25835  10.691   7.710   3.957  1.0039 -0.1760  0.5027
  933MOL0     C25836  10.553   7.780   3.927  1.0036  0.1725  0.9344
  933MOL0     N25837  10.527   7.904   4.008 -0.1247  0.3440 -0.2780
  933MOL0     C25838  10.569   8.032   3.981  0.2497  0.0288  0.1012
  933MOL0     C25839  10.539   8.098   4.092  0.0064 -1.5584 -0.3465
  933MOL0     C25840  10.562   8.244   4.105  0.3649 -0.2792  0.2291
  933MOL0     C25841  10.474   8.321   4.198  1.1342  0.6225  0.3949
  933MOL0     C25842  10.552   8.441   4.255  0.3753 -0.3967  1.1195
  933MOL0     C25843  10.460   8.558   4.305 -0.1206 -1.0341  0.0053
  933MOL0     O25844  10.538   8.653   4.382 -0.2761  0.5734  0.3330
  933MOL0     C25845  10.577   8.622   4.505 -0.6573 -0.2057 -0.2105
  933MOL0     C25846  10.539   8.509   4.580 -0.1800  0.1629 -1.1206
  933MOL0     C25847  10.580   8.495   4.716 -0.5181  0.0647 -0.3206
  933MOL0     C25848  10.665   8.593   4.773 -0.0774  1.0673  0.6689
  933MOL0     C25849  10.686   8.586   4.923  0.2210 -0.0601  0.4900
  933MOL0     O25850  10.679   8.464   4.980  0.2046  0.6708  0.8750
  933MOL0     C25851  10.719   8.433   5.104  0.0319 -0.4364 -0.1648
  933MOL0     C25852  10.703   8.297   5.146 -0.2159  1.0443 -0.0444
  933MOL0     C25853  10.732   8.251   5.273 -0.6489 -0.4371 -0.1889
  933MOL0     C25854  10.759   8.348   5.378 -0.6214  0.1027 -0.9048
  933MOL0     O25855  10.780   8.319   5.514  0.1302 -0.2730 -0.2612
  933MOL0     C25856  10.699   8.212   5.554 -0.1835 -0.1702  0.1979
  933MOL0     C25857  10.644   8.244   5.692  0.1167  0.9638  0.0754
  933MOL0     C25858  10.763   8.261   5.792 -0.2084  0.3219 -0.0377
  933MOL0     C25859  10.874   8.148   5.778  0.6570  0.2869 -0.0469
  933MOL0     C25860  10.983   8.156   5.881 -0.0001  0.4405  0.2153
  933MOL0     C25861  11.031   8.015   5.929  0.0670 -0.8296  0.2980
  933MOL0     C25862  11.128   8.021   6.042 -0.9697 -0.5403 -0.3550
  933MOL0     C25863  11.089   7.929   6.152 -0.6336 -0.2324  0.8682
  933MOL0    Cl25864  11.187   7.934   6.295 -1.0260  0.0008 -0.6828
  933MOL0     C25865  10.757   8.478   5.340 -0.1195 -0.8769 -0.9705
  933MOL0     C25866  10.744   8.521   5.209 -0.0340  0.8962  0.7424
  933MOL0     O25867  10.717   8.689   4.981  0.6105  0.0231 -0.0532
  933MOL0     C25868  10.705   8.699   4.692  0.0971 -0.5554  0.0327
  933MOL0     C25869  10.656   8.712   4.565 -0.3119 -0.2789 -0.2540
  933MOL0     N25870  10.478   8.013   4.190  0.2653 -0.1698  0.3185
  933MOL0     N25871  10.473   7.898   4.134 -0.6782 -0.0909  0.1668
  933MOL0     C25872  11.156   7.256   4.669 -0.5168  0.3402 -0.5022
  933MOL0     C25873  11.242   7.163   4.714  0.2770 -0.4447  0.3474
  933MOL0     C25874  11.459   6.814   4.803  0.6980 -0.0310 -0.4996
  933MOL0     C25875  11.561   6.814   4.710 -0.2246 -0.5683 -0.2223
  933MOL0     C25876  11.670   6.738   4.724  0.4348  0.3160 -0.6494
  933MOL0     C25877  11.684   6.660   4.839 -0.6892 -0.3399 -0.3872
  933MOL0     O25878  11.804   6.596   4.854 -0.5318  0.2979 -0.7594
  933MOL0     C25879  11.858   6.575   4.984 -0.7131 -0.2047 -0.8330
  933MOL0     C25880  11.893   6.706   5.051 -0.3915  0.4336 -1.2680
  933MOL0     C25881  11.989   6.793   4.973  0.5668 -1.0148 -0.0839
  933MOL0     C25882  12.026   6.918   5.057 -0.2949 -0.1987  0.9657
  933MOL0     C25883  12.124   7.003   4.978  0.3614  0.5063  0.6964
  933MOL0     C25884  12.212   7.066   4.914 -0.5981 -0.3119  0.2459
  933MOL0     C25885  11.589   6.676   4.939 -0.1239  0.3494  0.1936
  933MOL0     C25886  11.473   6.739   4.921  0.9924  0.4241  1.5090
  933MOL0     C25887  11.369   6.734   5.017 -0.0421 -0.5322 -0.1823
  933MOL0     H25888  11.086   7.052   4.976  1.4179  1.3762  0.2201
  933MOL0     H25889  10.892   7.197   4.856 -2.2162 -1.4068 -5.1482
  933MOL0     H25890  10.994   7.430   4.481 -2.4774  0.4530 -1.9077
  933MOL0     H25891  10.951   7.257   4.469  0.2119 -1.2811  4.4532
  933MOL0     H25892  10.753   7.484   4.513  0.0824  0.0460 -0.0748
  933MOL0     H25893  10.717   7.309   4.483 -2.6508  0.9315 -1.3241
  933MOL0     H25894  10.672   7.427   4.270 -0.2514  1.1765  0.0313
  933MOL0     H25895  10.825   7.357   4.238  2.3061 -0.0401  1.5054
  933MOL0     H25896  10.769   7.629   4.357 -1.6055 -2.7678  1.5675
  933MOL0     H25897  10.932   7.589   4.329  0.4736 -1.5731 -0.5028
  933MOL0     H25898  10.881   7.709   4.138 -2.0463  0.5792 -1.7072
  933MOL0     H25899  10.880   7.551   4.065 -1.6606  0.9143 -1.5413
  933MOL0     H25900  10.633   7.538   4.060  0.6458  0.0749 -0.8658
  933MOL0     H25901  10.620   7.693   4.153 -1.6891  1.6715 -2.7553
  933MOL0     H25902  10.727   7.651   3.873  2.6395  2.4883 -0.8097
  933MOL0     H25903  10.773   7.783   3.957  1.5874 -0.8097 -0.6130
  933MOL0     H25904  10.561   7.814   3.823 -3.0106 -0.1670  0.3728
  933MOL0     H25905  10.475   7.704   3.933 -0.0387  1.0643 -0.6396
  933MOL0     H25906  10.609   8.064   3.885  1.0590 -3.4391 -0.8310
  933MOL0     H25907  10.661   8.255   4.149  0.2232  1.5375  0.1999
  933MOL0     H25908  10.564   8.294   4.007 -2.7496  1.6101  0.9843
  933MOL0     H25909  10.397   8.353   4.126  0.5145 -2.6334 -0.5349
  933MOL0     H25910  10.414   8.254   4.259  0.1470  1.1817  0.0720
  933MOL0     H25911  10.617   8.469   4.171 -2.2741  0.4738 -0.7975
  933MOL0     H25912  10.614   8.412   4.340  0.9782  1.5658  1.4066
  933MOL0     H25913  10.379   8.516   4.366  0.5568 -3.4556 -0.6417
  933MOL0     H25914  10.415   8.621   4.228  1.4331 -1.2202 -1.1019
  933MOL0     H25915  10.489   8.430   4.524  0.7434 -1.8572  0.7694
  933MOL0     H25916  10.563   8.405   4.774 -0.2568  2.0110  3.0296
  933MOL0     H25917  10.683   8.238   5.057 -1.8701  3.4665 -1.3969
  933MOL0     H25918  10.730   8.143   5.278  2.3499 -0.5998 -0.7008
  933MOL0     H25919  10.614   8.200   5.486 -1.3325  0.4108  1.4791
  933MOL0     H25920  10.759   8.121   5.559 -3.1961 -2.4913 -2.0056
  933MOL0     H25921  10.591   8.340   5.695  0.4505  1.1381  1.8792
  933MOL0     H25922  10.580   8.161   5.723 -0.9394  1.9249  0.5243
  933MOL0     H25923  10.814   8.355   5.767 -0.5601  0.4630 -0.2252
  933MOL0     H25924  10.733   8.274   5.896  3.5145 -3.6194  1.8414
  933MOL0     H25925  10.915   8.155   5.677 -2.2398 -0.3568 -1.3609
  933MOL0     H25926  10.828   8.049   5.776  0.4704  0.3338 -2.8919
  933MOL0     H25927  10.948   8.218   5.964 -1.6323 -1.3247  0.9199
  933MOL0     H25928  11.068   8.207   5.834  0.5286 -0.1392  0.5171
  933MOL0     H25929  10.943   7.952   5.946  0.3475 -0.8270  1.8411
  933MOL0     H25930  11.087   7.979   5.842  2.5273  0.1429  1.3966
  933MOL0     H25931  11.145   8.122   6.078  0.9016 -0.3704 -1.6122
  933MOL0     H25932  11.226   7.987   6.008  0.3946  1.8545  0.9534
  933MOL0     H25933  10.989   7.964   6.181  0.0911  3.2201 -0.3198
  933MOL0     H25934  11.099   7.827   6.113  1.6035 -0.3695  1.6692
  933MOL0     H25935  10.778   8.559   5.409 -0.9273  0.3738 -2.1415
  933MOL0     H25936  10.750   8.627   5.191  1.0665  0.6681 -0.3224
  933MOL0     H25937  10.762   8.780   4.736 -2.0431  0.5002  1.0337
  933MOL0     H25938  10.663   8.809   4.516 -1.1052 -0.5380 -0.9062
  933MOL0     H25939  11.195   7.320   4.590 -1.9874 -0.5955 -2.0735
  933MOL0     H25940  11.344   7.140   4.685  1.5970  0.3994  3.7979
  933MOL0     H25941  11.557   6.885   4.627  0.4597 -0.5568 -0.2531
  933MOL0     H25942  11.733   6.728   4.637 -0.9864  0.4866 -1.7225
  933MOL0     H25943  11.939   6.503   5.001 -2.3111 -1.3542  2.9092
  933MOL0     H25944  11.777   6.525   5.037 -1.9904  2.2864 -0.2953
  933MOL0     H25945  11.931   6.690   5.152  0.0671  0.3529 -1.4531
  933MOL0     H25946  11.806   6.770   5.068 -1.5887 -1.6259  0.9341
  933MOL0     H25947  11.935   6.838   4.889 -2.6493  3.4321  3.8336
  933MOL0     H25948  12.077   6.740   4.933  0.3161 -1.3141 -0.2465
  933MOL0     H25949  11.942   6.984   5.078  1.4486  2.9636 -1.0886
  933MOL0     H25950  12.069   6.892   5.154 -1.1634 -0.1582  1.3663
  933MOL0     H25951  12.285   7.115   4.853 -2.1362  2.3599  0.4014
  933MOL0     H25952  11.596   6.626   5.035 -0.4352 -0.7140 -0.3249
  933MOL0     H25953  11.345   6.628   5.032 -0.6613 -0.5485 -1.2245
  933MOL0     H25954  11.404   6.787   5.106 -0.0256 -0.5733 -0.1637
  933MOL0     H25955  11.274   6.774   4.980 -0.2891 -1.5255 -0.6587
  934MOL0     O25956   7.355   8.468   8.564 -0.2685  0.5600  0.5467
  934MOL0     C25957   7.262   8.415   8.506  0.2021  0.2879 -0.8889
  934MOL0     O25958   7.223   8.444   8.376  0.3220  0.4465  0.5906
  934MOL0     C25959   7.292   8.520   8.282 -0.2040 -0.7902 -0.6750
  934MOL0     C25960   7.431   8.552   8.297  0.2080  0.8449 -0.2361
  934MOL0     C25961   7.496   8.624   8.186 -0.2556  0.3547 -1.0046
  934MOL0     C25962   7.416   8.658   8.072 -0.0312 -0.2391  0.2069
  934MOL0     O25963   7.469   8.730   7.972 -1.1105  0.3190 -0.1916
  934MOL0     C25964   7.533   8.651   7.875 -0.3605 -0.5247  0.0289
  934MOL0     C25965   7.652   8.728   7.831 -1.0073  0.3747  1.5427
  934MOL0     C25966   7.709   8.684   7.700 -0.4715  0.0754  0.6482
  934MOL0     C25967   7.850   8.734   7.680  0.3326  0.6710  0.1101
  934MOL0     C25968   7.894   8.700   7.539  0.6776  1.2403  0.4324
  934MOL0     C25969   7.842   8.771   7.417  0.1028 -0.0633  0.1441
  934MOL0     C25970   7.865   8.689   7.297 -0.7123 -0.6805  0.3139
  934MOL0     C25971   7.813   8.765   7.172 -0.6423 -0.3590 -0.4930
  934MOL0     N25972   7.918   8.855   7.136  0.4040  0.0380  1.1252
  934MOL0     C25973   8.043   8.828   7.072 -0.2644 -0.8075  0.1570
  934MOL0     C25974   8.087   8.955   7.036  0.9007  0.7970  0.6799
  934MOL0     C25975   8.212   8.995   6.971 -0.5198  0.4339  0.6846
  934MOL0     C25976   8.211   9.133   6.891 -0.3930  0.8719  0.9939
  934MOL0     C25977   8.115   9.144   6.774 -0.2675 -0.5756  0.1446
  934MOL0     C25978   8.137   9.285   6.708 -0.2182 -0.4533  0.3196
  934MOL0     O25979   8.272   9.304   6.658  0.6453 -0.1262 -0.1707
  934MOL0     C25980   8.296   9.416   6.588  0.2001 -0.1031 -0.1122
  934MOL0     C25981   8.197   9.518   6.564  0.3206 -0.4508  0.0495
  934MOL0     C25982   8.234   9.633   6.494 -0.9037 -0.5691 -0.6683
  934MOL0     C25983   8.375   9.642   6.461 -0.0938  0.4596 -0.0059
  934MOL0     C25984   8.430   9.768   6.409  0.4835  0.0663 -0.7035
  934MOL0     O25985   8.560   9.788   6.397 -0.3948  0.2397  1.2293
  934MOL0     C25986   8.609   9.906   6.346 -0.2261  0.2086 -0.4298
  934MOL0     C25987   8.579   9.946   6.215  0.2364  0.0803  0.0742
  934MOL0     C25988   8.621  10.072   6.174  0.5658  0.3976  0.5365
  934MOL0     C25989   8.681  10.158   6.258  0.8937 -0.6011  0.6722
  934MOL0     O25990   8.727  10.288   6.241  0.6546 -0.0406 -0.1255
  934MOL0     C25991   8.788  10.313   6.115 -1.2715 -0.0838 -0.8004
  934MOL0     C25992   8.933  10.267   6.119  0.8871 -0.2660 -0.0707
  934MOL0     C25993   9.026  10.332   6.222 -0.2441  0.5313  0.2874
  934MOL0     C25994   8.991  10.484   6.252  0.2219  0.5380 -0.5928
  934MOL0     C25995   9.030  10.588   6.144 -0.4050  0.4560 -0.1988
  934MOL0     C25996   9.187  10.600   6.150  0.3947  0.1339 -0.1560
  934MOL0     C25997   9.244  10.694   6.048  0.2822 -0.4531  0.1146
  934MOL0     C25998   9.382  10.726   6.090  0.4514  0.4091  0.0545
  934MOL0    Cl25999   9.470  10.579   6.052  0.3603  0.1125 -0.0776
  934MOL0     C26000   8.716  10.106   6.384 -0.1603 -0.5170  0.4109
  934MOL0     C26001   8.687   9.980   6.436  0.4251 -0.6115  0.5921
  934MOL0     O26002   8.341   9.851   6.388  0.6932 -0.3694  0.1131
  934MOL0     C26003   8.462   9.535   6.482  0.3081  0.1698 -0.2863
  934MOL0     C26004   8.420   9.421   6.542 -0.0590 -0.2196 -0.0869
  934MOL0     N26005   7.993   9.056   7.067  0.2331  0.0376  0.7461
  934MOL0     N26006   7.902   8.988   7.126 -0.4809 -0.6874 -0.2393
  934MOL0     C26007   7.285   8.621   8.064  0.2680 -0.0421  0.7073
  934MOL0     C26008   7.223   8.551   8.168 -0.9389 -0.7766  0.4462
  934MOL0     C26009   7.186   8.302   8.571  0.2874  0.3439 -0.1732
  934MOL0     C26010   7.204   8.296   8.711  0.2726  0.3602 -0.5563
  934MOL0     C26011   7.128   8.210   8.791 -1.4831  1.0390 -0.5605
  934MOL0     C26012   7.033   8.133   8.732 -0.3834  1.6586  0.1941
  934MOL0     O26013   6.965   8.040   8.814 -0.1756 -0.8929 -0.4147
  934MOL0     C26014   6.916   7.919   8.765 -0.9845  0.0292  0.5246
  934MOL0     C26015   6.770   7.919   8.731  0.7185  0.5505  0.1588
  934MOL0     C26016   6.669   7.917   8.849  0.0546 -0.2404 -0.1754
  934MOL0     C26017   6.678   7.790   8.935  0.5106  0.5451 -0.0625
  934MOL0     C26018   6.555   7.709   8.907  1.1314  0.0417 -0.6751
  934MOL0     C26019   6.462   7.640   8.871 -0.4587  0.0968 -0.7861
  934MOL0     C26020   7.014   8.132   8.589  0.1518 -0.9994  0.3178
  934MOL0     C26021   7.097   8.217   8.504  0.6001 -1.2241 -0.5180
  934MOL0     C26022   7.081   8.205   8.354  0.9665  0.1625  0.4476
  934MOL0     H26023   7.486   8.527   8.387 -0.3747 -3.8641 -0.9162
  934MOL0     H26024   7.602   8.647   8.191  0.0182 -1.0162  0.1105
  934MOL0     H26025   7.556   8.546   7.897  0.6497 -0.0781  1.1798
  934MOL0     H26026   7.461   8.646   7.793 -1.2656  1.4345  0.6611
  934MOL0     H26027   7.739   8.718   7.896  1.4981 -0.8015 -1.6835
  934MOL0     H26028   7.625   8.834   7.828 -2.0099  0.1347 -1.6375
  934MOL0     H26029   7.649   8.717   7.614  0.4248 -0.5753 -0.2513
  934MOL0     H26030   7.708   8.574   7.706  2.9041 -0.1959 -1.1299
  934MOL0     H26031   7.856   8.843   7.686 -3.6956  1.2034 -1.7716
  934MOL0     H26032   7.920   8.690   7.751  1.4458  2.8088  0.4206
  934MOL0     H26033   8.003   8.711   7.548  1.3525 -2.1348 -1.6706
  934MOL0     H26034   7.879   8.593   7.525  2.0189  1.0464  0.3525
  934MOL0     H26035   7.736   8.800   7.421 -0.6112 -2.2503 -1.0522
  934MOL0     H26036   7.911   8.853   7.398  0.1938  0.2654  1.7492
  934MOL0     H26037   7.816   8.592   7.310 -2.3343 -0.4312 -2.9844
  934MOL0     H26038   7.970   8.660   7.286 -0.6913 -1.3509  1.9858
  934MOL0     H26039   7.799   8.698   7.087 -1.9282 -0.2250 -0.4099
  934MOL0     H26040   7.719   8.816   7.196 -1.0726 -0.3975 -1.9715
  934MOL0     H26041   8.094   8.733   7.060  0.1674 -0.3531 -1.9609
  934MOL0     H26042   8.300   8.998   7.036 -1.2661  2.9735  1.6919
  934MOL0     H26043   8.227   8.909   6.905  1.9126  0.2408  1.3828
  934MOL0     H26044   8.172   9.218   6.948  1.2405  2.0488  0.4289
  934MOL0     H26045   8.311   9.152   6.851  0.4827 -0.3927  2.4953
  934MOL0     H26046   8.011   9.130   6.807 -0.3316 -1.8419 -0.5475
  934MOL0     H26047   8.129   9.062   6.704  0.7115  0.5827 -1.0618
  934MOL0     H26048   8.121   9.363   6.783  0.6588  1.1663 -1.1044
  934MOL0     H26049   8.066   9.298   6.626 -0.9303  2.1116  1.2352
  934MOL0     H26050   8.103   9.507   6.616 -0.5804 -0.7616 -1.5747
  934MOL0     H26051   8.167   9.717   6.480  0.2429  0.5785  0.4808
  934MOL0     H26052   8.517   9.891   6.144  0.3058  2.2265 -1.7575
  934MOL0     H26053   8.600  10.100   6.071 -2.1488 -2.6767  0.0794
  934MOL0     H26054   8.736  10.257   6.037 -0.1133 -1.7956 -0.4252
  934MOL0     H26055   8.781  10.418   6.087 -0.8922 -0.4857 -2.5233
  934MOL0     H26056   8.942  10.159   6.136  0.2530  0.0158  2.4806
  934MOL0     H26057   8.970  10.267   6.016  2.3985  0.6627  0.4476
  934MOL0     H26058   9.028  10.275   6.315  1.2683 -0.3556 -0.2491
  934MOL0     H26059   9.129  10.317   6.187 -0.2490  3.0508 -1.0734
  934MOL0     H26060   9.053  10.520   6.335  3.2970 -0.8794 -2.0923
  934MOL0     H26061   8.886  10.491   6.282 -0.1912 -1.2590 -1.4882
  934MOL0     H26062   8.978  10.681   6.169 -1.0103  0.2711 -0.7418
  934MOL0     H26063   9.006  10.545   6.046  2.1384  0.9424 -1.1180
  934MOL0     H26064   9.214  10.630   6.252  0.3421  1.7567 -0.5874
  934MOL0     H26065   9.230  10.501   6.136 -0.9885 -0.4933 -0.1252
  934MOL0     H26066   9.193  10.791   6.045 -3.2623 -2.1541 -1.4994
  934MOL0     H26067   9.234  10.656   5.946 -0.1492  1.0438 -0.4261
  934MOL0     H26068   9.416  10.812   6.032  2.1933  0.2290  0.7230
  934MOL0     H26069   9.402  10.740   6.197  1.9619 -0.9487 -0.0061
  934MOL0     H26070   8.769  10.180   6.443 -0.6757  0.0036  0.2296
  934MOL0     H26071   8.710   9.935   6.532  0.6195 -1.7520  0.0217
  934MOL0     H26072   8.568   9.543   6.457 -0.3553  0.8363 -3.2612
  934MOL0     H26073   8.486   9.336   6.558  2.3917  1.8440  1.4081
  934MOL0     H26074   7.228   8.646   7.975 -0.5296  2.0573  1.7433
  934MOL0     H26075   7.117   8.534   8.155 -0.7914 -1.4001 -0.0339
  934MOL0     H26076   7.263   8.370   8.765  0.8735  0.5335 -1.4222
  934MOL0     H26077   7.153   8.207   8.897  0.3904  1.0376 -0.9579
  934MOL0     H26078   6.932   7.839   8.837 -0.5763 -1.0270 -0.7072
  934MOL0     H26079   6.971   7.884   8.677  1.5958  1.9661  1.2306
  934MOL0     H26080   6.770   7.824   8.676  4.4458 -0.4848  1.6739
  934MOL0     H26081   6.743   7.998   8.660  0.2094 -1.0452 -1.4994
  934MOL0     H26082   6.566   7.933   8.814 -0.1529  4.4158  1.8728
  934MOL0     H26083   6.680   8.008   8.908 -2.6037 -1.7969  3.0402
  934MOL0     H26084   6.772   7.738   8.918 -0.7067 -1.1518 -1.9858
  934MOL0     H26085   6.667   7.809   9.042  1.8867  3.6991 -0.3665
  934MOL0     H26086   6.387   7.582   8.819 -1.1727  0.2657  0.0382
  934MOL0     H26087   6.927   8.074   8.560  0.7735 -1.2093 -1.2052
  934MOL0     H26088   7.017   8.285   8.316  0.6050 -0.0531  0.5987
  934MOL0     H26089   7.172   8.197   8.294  1.4202 -0.8822  1.2475
  934MOL0     H26090   7.028   8.110   8.337  0.4471  0.7130 -1.3037
  935MOL0     O26091   2.910   8.959   4.160  0.5862 -0.0607 -0.2016
  935MOL0     C26092   2.816   8.883   4.183  0.0270 -0.6441 -0.5147
  935MOL0     O26093   2.811   8.750   4.138 -0.0446 -0.2304  0.3407
  935MOL0     C26094   2.926   8.685   4.101 -0.4006 -0.0009  0.9943
  935MOL0     C26095   2.920   8.603   3.986  0.0942 -0.7007  1.0614
  935MOL0     C26096   3.028   8.539   3.928 -0.3983  0.5162  0.7587
  935MOL0     C26097   3.154   8.549   3.997 -0.0557  0.2780  0.1896
  935MOL0     O26098   3.251   8.468   3.962 -0.1860 -0.0610 -0.3274
  935MOL0     C26099   3.301   8.460   3.825 -0.5883  0.5202  0.4918
  935MOL0     C26100   3.400   8.345   3.812  0.4400  0.0179 -0.3829
  935MOL0     C26101   3.518   8.319   3.899 -0.4506  0.1754  0.1150
  935MOL0     C26102   3.475   8.266   4.033  0.0382  0.0046 -0.5489
  935MOL0     C26103   3.594   8.216   4.114 -0.6221  0.4870 -0.2780
  935MOL0     C26104   3.541   8.142   4.241 -0.1633 -0.0395  0.2414
  935MOL0     C26105   3.470   8.234   4.341 -0.9833 -0.0003 -0.0720
  935MOL0     C26106   3.572   8.328   4.407 -0.2010 -0.4946 -0.5115
  935MOL0     N26107   3.541   8.469   4.392 -0.3714 -0.4709  0.6912
  935MOL0     C26108   3.596   8.559   4.303 -0.3490  0.5307  0.4036
  935MOL0     C26109   3.513   8.666   4.289  0.0061  0.6271 -0.7844
  935MOL0     C26110   3.527   8.771   4.188  0.0186 -0.1523 -0.7049
  935MOL0     C26111   3.544   8.715   4.045  0.1021  0.1400 -0.1005
  935MOL0     C26112   3.575   8.828   3.937  0.1578  0.7454  0.8231
  935MOL0     C26113   3.552   8.770   3.795 -0.0174 -0.5734 -0.2596
  935MOL0     O26114   3.611   8.649   3.768  0.2712  0.1625 -0.7600
  935MOL0     C26115   3.752   8.637   3.751  0.4230  0.0389 -0.8849
  935MOL0     C26116   3.815   8.509   3.750 -0.5279 -0.0726 -0.0192
  935MOL0     C26117   3.952   8.500   3.731  0.1184 -0.2357  0.5918
  935MOL0     C26118   4.031   8.620   3.709 -0.1726  0.9694 -0.5647
  935MOL0     C26119   4.185   8.616   3.678  0.1625 -0.4626 -0.1276
  935MOL0     O26120   4.256   8.739   3.707  0.3071  0.0388  0.3544
  935MOL0     C26121   4.369   8.777   3.650 -0.3772  0.5834 -0.2980
  935MOL0     C26122   4.400   8.777   3.514 -0.2177 -0.4683  0.9169
  935MOL0     C26123   4.516   8.848   3.468 -0.0114 -0.3876  0.1094
  935MOL0     C26124   4.598   8.920   3.558  0.0018  0.6569 -0.7577
  935MOL0     O26125   4.719   8.975   3.526  0.2419  0.3027  0.3593
  935MOL0     C26126   4.746   9.112   3.560  0.6112  0.3637 -0.5196
  935MOL0     C26127   4.724   9.206   3.437  0.0445 -0.0937 -0.5143
  935MOL0     C26128   4.812   9.325   3.438  0.2035 -0.0942 -0.3245
  935MOL0     C26129   4.786   9.404   3.311  0.2383  0.6960  0.4294
  935MOL0     C26130   4.892   9.507   3.277  0.0679 -0.2065 -0.0140
  935MOL0     C26131   4.899   9.634   3.362 -0.0620 -0.0270  0.3664
  935MOL0     C26132   4.764   9.709   3.338 -0.7134 -0.0180  0.1625
  935MOL0     C26133   4.755   9.831   3.426 -0.2549  1.5690 -0.2743
  935MOL0    Cl26134   4.612   9.922   3.396  0.2194 -0.2560  0.1056
  935MOL0     C26135   4.555   8.918   3.691  0.5036 -0.3413 -0.3920
  935MOL0     C26136   4.445   8.850   3.743 -0.1682  0.9775 -0.1587
  935MOL0     O26137   4.238   8.518   3.626  0.4568 -0.0330 -0.0077
  935MOL0     C26138   3.972   8.740   3.708  0.4781 -0.2101  0.3832
  935MOL0     C26139   3.834   8.748   3.721 -0.2741  0.0600 -0.6400
  935MOL0     N26140   3.408   8.646   4.378  0.1107 -0.3468 -0.5446
  935MOL0     N26141   3.426   8.535   4.429 -0.0472  1.0164  0.9330
  935MOL0     C26142   3.157   8.613   4.115  0.9050  0.3631  0.1698
  935MOL0     C26143   3.046   8.684   4.169 -0.3247 -0.9073 -0.7643
  935MOL0     C26144   2.699   8.936   4.257 -0.3158  0.2639 -0.6220
  935MOL0     C26145   2.622   8.839   4.325 -0.5082 -0.1969  0.1509
  935MOL0     C26146   2.501   8.870   4.396  0.0969 -0.2242  1.0695
  935MOL0     C26147   2.467   9.005   4.402  0.1630  0.5574 -0.2612
  935MOL0     O26148   2.354   9.035   4.477  0.1473  0.0142  0.1412
  935MOL0     C26149   2.322   9.175   4.510 -0.3026 -0.2689 -0.1013
  935MOL0     C26150   2.182   9.156   4.586  0.6633 -0.4130 -0.5989
  935MOL0     C26151   2.126   9.301   4.624  0.7813 -0.4141 -0.3587
  935MOL0     C26152   2.014   9.342   4.521 -0.5476  0.4669  0.5395
  935MOL0     C26153   1.885   9.284   4.563 -0.3660  0.0427  0.5630
  935MOL0     C26154   1.783   9.221   4.565  0.0570  0.4292  0.4521
  935MOL0     C26155   2.547   9.102   4.331 -0.4908  0.5496 -0.3691
  935MOL0     C26156   2.656   9.067   4.254 -0.7463 -0.7097  0.6142
  935MOL0     C26157   2.698   9.172   4.157  0.2722 -0.0930 -0.2114
  935MOL0     H26158   2.837   8.599   3.915 -0.6111 -1.9246  1.9085
  935MOL0     H26159   3.020   8.478   3.838 -1.3320  0.5912  0.7780
  935MOL0     H26160   3.226   8.449   3.746  1.6843 -4.6658 -1.3755
  935MOL0     H26161   3.349   8.553   3.793  0.9157 -0.8938 -1.6094
  935MOL0     H26162   3.447   8.364   3.715  1.3628 -0.1215  0.0342
  935MOL0     H26163   3.344   8.251   3.802 -2.9203  2.0611 -3.2513
  935MOL0     H26164   3.562   8.418   3.915  0.6503 -0.3712  0.6107
  935MOL0     H26165   3.588   8.253   3.847 -1.0554  0.3693 -0.9800
  935MOL0     H26166   3.433   8.349   4.090  0.5952  0.2717 -0.5260
  935MOL0     H26167   3.395   8.191   4.028 -2.0672  2.1095 -0.2108
  935MOL0     H26168   3.648   8.144   4.052  0.0374 -0.3224  1.2008
  935MOL0     H26169   3.659   8.298   4.146  0.7676 -2.0789  4.2976
  935MOL0     H26170   3.482   8.054   4.215  2.2325 -1.5658 -0.4225
  935MOL0     H26171   3.630   8.102   4.292  1.5727  1.9130 -1.1178
  935MOL0     H26172   3.429   8.172   4.421  2.9091  0.6729  2.7707
  935MOL0     H26173   3.395   8.299   4.295  3.4385  3.6808 -3.0971
  935MOL0     H26174   3.559   8.311   4.514  3.0074  2.5023  0.5403
  935MOL0     H26175   3.676   8.303   4.381 -1.2523 -1.6025 -4.2677
  935MOL0     H26176   3.676   8.532   4.235 -0.5169 -0.4084  0.5731
  935MOL0     H26177   3.430   8.822   4.188 -0.9903 -1.9796 -0.0937
  935MOL0     H26178   3.620   8.820   4.219  0.5105 -1.6306  0.2233
  935MOL0     H26179   3.623   8.640   4.035 -0.5871 -0.8591  1.4991
  935MOL0     H26180   3.448   8.671   4.018 -0.9316  1.3921  1.3726
  935MOL0     H26181   3.680   8.855   3.948 -0.0816  2.4003 -0.4898
  935MOL0     H26182   3.511   8.913   3.961 -3.6449 -1.4606 -0.6327
  935MOL0     H26183   3.581   8.844   3.720 -2.3738  1.1112  0.3682
  935MOL0     H26184   3.444   8.763   3.779 -0.0790 -0.1281 -0.0718
  935MOL0     H26185   3.764   8.415   3.769 -0.8515 -0.0155 -0.6022
  935MOL0     H26186   4.006   8.407   3.742  1.2647  0.5484  1.9255
  935MOL0     H26187   4.326   8.732   3.449  1.1846  0.3282 -1.3670
  935MOL0     H26188   4.549   8.849   3.364  1.6066  0.8675  0.5945
  935MOL0     H26189   4.690   9.153   3.645 -2.2274 -1.6859 -1.2506
  935MOL0     H26190   4.855   9.110   3.566  0.6079 -2.4103 -0.2247
  935MOL0     H26191   4.731   9.139   3.351 -2.6637 -2.1423  0.7180
  935MOL0     H26192   4.620   9.240   3.436 -0.8339 -2.0439  3.6275
  935MOL0     H26193   4.798   9.396   3.520 -0.7298 -0.4924 -0.1301
  935MOL0     H26194   4.917   9.297   3.429  0.1805  0.4020 -2.9465
  935MOL0     H26195   4.685   9.444   3.304 -1.1553 -2.3800  1.4353
  935MOL0     H26196   4.787   9.330   3.230 -0.2052  2.7833 -1.6191
  935MOL0     H26197   4.863   9.539   3.177  0.5164  2.2513  0.5761
  935MOL0     H26198   4.987   9.453   3.281  0.1592  0.0127  1.9768
  935MOL0     H26199   4.913   9.614   3.469  2.0933  3.2616  0.8259
  935MOL0     H26200   4.976   9.703   3.327  0.2461  0.0081  1.1038
  935MOL0     H26201   4.685   9.643   3.376 -0.8403  1.6967  3.2024
  935MOL0     H26202   4.747   9.732   3.232 -1.3408 -0.7800  0.0861
  935MOL0     H26203   4.751   9.795   3.529 -1.6505 -2.9221 -1.6817
  935MOL0     H26204   4.831   9.906   3.402  2.9641 -0.8946  1.5219
  935MOL0     H26205   4.611   8.966   3.772  1.5783 -1.4187 -0.4594
  935MOL0     H26206   4.419   8.858   3.848 -4.9088 -1.3991 -0.8844
  935MOL0     H26207   4.031   8.831   3.709  0.7094 -0.3621  0.6155
  935MOL0     H26208   3.787   8.843   3.702 -0.8899 -0.4172 -1.5443
  935MOL0     H26209   3.250   8.623   4.171 -0.1247 -2.5834  2.7110
  935MOL0     H26210   3.068   8.740   4.259 -0.1639 -4.2618  1.4553
  935MOL0     H26211   2.652   8.736   4.340 -0.1533 -0.3873 -1.6348
  935MOL0     H26212   2.464   8.784   4.451 -2.9535 -1.2179 -2.1252
  935MOL0     H26213   2.300   9.236   4.421  0.3639 -1.4342 -1.0949
  935MOL0     H26214   2.400   9.218   4.573  0.4230  1.9835 -2.3603
  935MOL0     H26215   2.189   9.086   4.670  1.0347 -1.1168 -1.2067
  935MOL0     H26216   2.115   9.111   4.512 -1.4637 -1.0267  1.5571
  935MOL0     H26217   2.204   9.377   4.617  0.7787  0.4370  4.9865
  935MOL0     H26218   2.085   9.304   4.726 -2.1875  1.1440 -1.4694
  935MOL0     H26219   2.024   9.451   4.522  2.4991  0.2742  0.7842
  935MOL0     H26220   2.035   9.302   4.421  1.3631  2.3837  0.0939
  935MOL0     H26221   1.686   9.175   4.562  0.3792 -0.3742 -3.7493
  935MOL0     H26222   2.509   9.202   4.319  3.2509  2.0916 -0.7092
  935MOL0     H26223   2.745   9.121   4.073  0.6908 -3.1465  1.7248
  935MOL0     H26224   2.611   9.226   4.117  0.8758 -0.3629 -1.9684
  935MOL0     H26225   2.771   9.233   4.212  0.9651 -1.0516 -0.0483
  936MOL0     O26226   6.084   2.555   2.464  0.7337 -0.7176 -0.7324
  936MOL0     C26227   6.086   2.437   2.492  1.0292  0.3160 -0.7260
  936MOL0     O26228   6.192   2.368   2.541  0.3852  0.0421  0.3270
  936MOL0     C26229   6.306   2.440   2.556 -0.0303  0.8475 -0.4307
  936MOL0     C26230   6.412   2.432   2.464  0.7189  0.5122  0.0967
  936MOL0     C26231   6.531   2.498   2.487  0.4868  0.0016 -0.1549
  936MOL0     C26232   6.549   2.569   2.605  0.1300  0.1502  0.4956
  936MOL0     O26233   6.665   2.636   2.633  0.1526 -0.9490 -0.6215
  936MOL0     C26234   6.668   2.734   2.738  0.6958 -0.2990 -0.1777
  936MOL0     C26235   6.799   2.805   2.735  0.9905  0.1619 -0.1464
  936MOL0     C26236   6.912   2.730   2.805  0.3431  0.4542 -0.5412
  936MOL0     C26237   7.042   2.809   2.796  0.5087  0.1602  0.5279
  936MOL0     C26238   7.162   2.714   2.842 -0.0781  1.5660  0.3201
  936MOL0     C26239   7.184   2.711   2.995  0.5799 -0.2802 -0.2811
  936MOL0     C26240   7.158   2.573   3.065 -1.3589  0.0852 -0.3133
  936MOL0     C26241   7.272   2.463   3.057  0.4578  0.0987 -0.3924
  936MOL0     N26242   7.376   2.505   3.156  0.4941 -0.0281 -0.0459
  936MOL0     C26243   7.400   2.449   3.288 -0.2233 -1.3354  0.3795
  936MOL0     C26244   7.523   2.493   3.324  0.0774  0.6140 -0.1961
  936MOL0     C26245   7.594   2.459   3.456  0.0327  0.5033 -0.6788
  936MOL0     C26246   7.501   2.462   3.569  0.0165 -0.1574  0.3227
  936MOL0     C26247   7.562   2.432   3.710  0.2860 -0.1665  0.3066
  936MOL0     C26248   7.454   2.439   3.830  0.4022  1.1684  0.6825
  936MOL0     O26249   7.350   2.342   3.804  0.5720 -0.7384  0.3787
  936MOL0     C26250   7.232   2.354   3.873 -0.1233 -0.5148  0.0736
  936MOL0     C26251   7.119   2.268   3.847  0.5585 -0.4117  1.0437
  936MOL0     C26252   6.989   2.293   3.903 -0.4564 -0.3166  0.0828
  936MOL0     C26253   6.965   2.397   3.993  0.1893 -0.3234  0.5226
  936MOL0     C26254   6.837   2.405   4.070  0.4360  0.2357  0.0374
  936MOL0     O26255   6.794   2.511   4.154 -0.6610 -0.9127 -0.9713
  936MOL0     C26256   6.689   2.501   4.239 -0.2365  0.8605 -0.6088
  936MOL0     C26257   6.559   2.547   4.212 -0.5453  1.0514  0.0003
  936MOL0     C26258   6.461   2.522   4.302  0.2518  0.6646 -0.0033
  936MOL0     C26259   6.485   2.444   4.424 -0.5294  0.1689 -0.4844
  936MOL0     O26260   6.395   2.408   4.516 -0.3262 -0.0338  0.0117
  936MOL0     C26261   6.262   2.466   4.491  0.8039  0.7613  0.5306
  936MOL0     C26262   6.174   2.447   4.613  0.2559 -0.4494 -0.5268
  936MOL0     C26263   6.160   2.302   4.664  0.2388  0.9330  0.2546
  936MOL0     C26264   6.065   2.295   4.787 -0.7649  0.0370  0.5017
  936MOL0     C26265   6.056   2.163   4.857 -0.3971 -0.4149 -0.5423
  936MOL0     C26266   5.978   2.180   4.987  0.5745  0.2380  0.1426
  936MOL0     C26267   5.988   2.048   5.074  1.0339 -0.1373 -1.5744
  936MOL0     C26268   5.874   2.046   5.179  0.3891 -0.3069 -0.4044
  936MOL0    Cl26269   5.854   2.205   5.265  0.0636 -0.3583 -0.2123
  936MOL0     C26270   6.618   2.404   4.441  0.0835  0.5830  0.3280
  936MOL0     C26271   6.716   2.417   4.346  0.8891  0.0955  0.1185
  936MOL0     O26272   6.757   2.311   4.044 -0.1024  0.0204  0.3900
  936MOL0     C26273   7.069   2.497   4.010  0.1925  0.6620  0.2407
  936MOL0     C26274   7.195   2.471   3.951 -0.0410 -0.1093  0.2703
  936MOL0     N26275   7.582   2.559   3.220 -0.3240 -0.1974  0.6748
  936MOL0     N26276   7.497   2.574   3.128 -0.4491 -0.1801  0.0164
  936MOL0     C26277   6.443   2.571   2.702  0.6399 -0.1575  0.0736
  936MOL0     C26278   6.328   2.502   2.679  0.2596 -0.6459 -0.0590
  936MOL0     C26279   5.960   2.364   2.449 -0.5723 -0.4520 -0.0053
  936MOL0     C26280   5.958   2.229   2.416 -0.0346  0.1194  0.1658
  936MOL0     C26281   5.850   2.162   2.367 -0.2417 -0.1888  0.3818
  936MOL0     C26282   5.724   2.232   2.349  0.2236 -0.1581 -0.1756
  936MOL0     O26283   5.619   2.161   2.299  1.5812 -0.8008  0.2694
  936MOL0     C26284   5.493   2.200   2.365  0.1203 -0.4170  0.5083
  936MOL0     C26285   5.406   2.074   2.357 -0.8207 -0.6183 -0.2494
  936MOL0     C26286   5.442   1.970   2.466  0.8635 -0.3155  0.3184
  936MOL0     C26287   5.317   1.865   2.476  0.1854  0.7189 -0.5321
  936MOL0     C26288   5.188   1.905   2.530 -0.7961  0.4798  0.1731
  936MOL0     C26289   5.079   1.926   2.569 -0.8550  0.3338  0.0580
  936MOL0     C26290   5.721   2.362   2.392 -0.2998 -0.7744  0.2544
  936MOL0     C26291   5.835   2.437   2.435 -1.1721  0.1634 -0.6962
  936MOL0     C26292   5.811   2.584   2.471 -0.6479 -0.1958  0.6474
  936MOL0     H26293   6.385   2.379   2.373  1.8351 -0.9226  0.5523
  936MOL0     H26294   6.613   2.495   2.415  0.8390  1.1115  0.1874
  936MOL0     H26295   6.594   2.811   2.715  0.1641  0.2490  2.8588
  936MOL0     H26296   6.645   2.686   2.834 -1.5725 -2.2219 -1.5619
  936MOL0     H26297   6.791   2.909   2.769  0.4765 -0.3540  1.3915
  936MOL0     H26298   6.821   2.817   2.628 -1.3193 -3.2025 -1.1854
  936MOL0     H26299   6.925   2.633   2.757 -1.4634 -0.4184  0.6065
  936MOL0     H26300   6.871   2.720   2.906 -1.7659 -1.0262 -1.4735
  936MOL0     H26301   7.062   2.843   2.694  2.0737 -3.1802 -0.4298
  936MOL0     H26302   7.041   2.904   2.851  0.1464  1.7015 -1.9955
  936MOL0     H26303   7.150   2.610   2.810 -5.0458  2.2049 -0.6838
  936MOL0     H26304   7.251   2.752   2.791  1.1772 -0.3314  1.0058
  936MOL0     H26305   7.279   2.759   3.022 -0.2998  0.6023  1.3984
  936MOL0     H26306   7.102   2.773   3.033  1.0923  1.6862 -2.1262
  936MOL0     H26307   7.074   2.520   3.020 -2.4310 -1.1592  2.8093
  936MOL0     H26308   7.147   2.582   3.174  1.6951  0.9803  0.0104
  936MOL0     H26309   7.225   2.370   3.091 -0.5921  0.4067 -0.9529
  936MOL0     H26310   7.315   2.429   2.962  0.3942  0.4619 -0.5534
  936MOL0     H26311   7.329   2.395   3.348 -0.1379 -0.4090  1.3335
  936MOL0     H26312   7.626   2.354   3.460  1.4884  0.9593  0.5360
  936MOL0     H26313   7.682   2.522   3.471  0.4847  0.3158 -2.4135
  936MOL0     H26314   7.449   2.558   3.568 -2.8934 -1.6272  1.0274
  936MOL0     H26315   7.420   2.391   3.556 -0.4916  0.2532  1.1766
  936MOL0     H26316   7.624   2.518   3.737  0.8429 -0.5697  0.3287
  936MOL0     H26317   7.613   2.335   3.712 -3.2601 -2.2874 -1.9359
  936MOL0     H26318   7.409   2.539   3.829  3.4652  2.6598  0.5574
  936MOL0     H26319   7.500   2.415   3.926  0.5951 -0.0198  0.3023
  936MOL0     H26320   7.128   2.173   3.794  1.0094 -0.4015  1.0936
  936MOL0     H26321   6.919   2.211   3.889  0.1671 -0.4895 -2.4052
  936MOL0     H26322   6.549   2.581   4.110 -0.1373 -1.5677 -0.9798
  936MOL0     H26323   6.360   2.556   4.281 -0.2174 -0.0312  1.0013
  936MOL0     H26324   6.266   2.573   4.471 -1.0939  0.8667  0.4601
  936MOL0     H26325   6.216   2.414   4.405  1.0625  2.0377 -0.4012
  936MOL0     H26326   6.217   2.504   4.696  0.4300 -0.6673 -0.4647
  936MOL0     H26327   6.083   2.502   4.588 -0.7626 -0.9231  1.7812
  936MOL0     H26328   6.115   2.242   4.585  0.6019  1.4285 -0.3389
  936MOL0     H26329   6.256   2.264   4.697  0.0548  0.5597  0.3649
  936MOL0     H26330   5.968   2.315   4.740 -0.3223  1.6527  0.2295
  936MOL0     H26331   6.088   2.371   4.861 -1.2525 -0.0740  0.7709
  936MOL0     H26332   6.155   2.130   4.890 -0.3585  2.8133  3.3905
  936MOL0     H26333   6.027   2.086   4.785 -2.2793 -0.0099 -0.2667
  936MOL0     H26334   6.021   2.262   5.044  1.4105  0.4607 -0.7946
  936MOL0     H26335   5.877   2.204   4.951  0.7751  0.4396 -0.2891
  936MOL0     H26336   6.083   2.034   5.126 -0.1143  0.6207  0.9041
  936MOL0     H26337   5.967   1.956   5.019  0.0963 -0.4854 -0.6660
  936MOL0     H26338   5.782   2.026   5.123 -0.8411  0.6753  1.1541
  936MOL0     H26339   5.886   1.969   5.255 -1.1451  1.5164  1.8457
  936MOL0     H26340   6.643   2.343   4.527  1.2848 -0.9009 -0.9957
  936MOL0     H26341   6.816   2.380   4.362  1.2097 -1.3882 -4.1937
  936MOL0     H26342   7.053   2.589   4.064 -1.0047  1.0374 -0.7119
  936MOL0     H26343   7.262   2.548   3.987 -0.5825 -0.2614  1.6833
  936MOL0     H26344   6.444   2.632   2.791 -3.4780  0.8832 -0.3671
  936MOL0     H26345   6.245   2.512   2.748  1.4857  1.9897  1.1551
  936MOL0     H26346   6.050   2.171   2.414  1.0696  1.7492 -2.8780
  936MOL0     H26347   5.856   2.060   2.330 -1.4244  0.4271 -1.6479
  936MOL0     H26348   5.446   2.284   2.311  1.0349  0.6359  1.3063
  936MOL0     H26349   5.516   2.248   2.460  2.1193  3.3201 -1.5985
  936MOL0     H26350   5.415   2.023   2.260 -0.9199 -1.6876  0.2931
  936MOL0     H26351   5.303   2.111   2.362 -0.6045  0.2753 -1.6615
  936MOL0     H26352   5.461   2.016   2.563 -2.0646 -1.0155  1.3196
  936MOL0     H26353   5.532   1.912   2.443  0.4358 -1.6851  1.9514
  936MOL0     H26354   5.292   1.824   2.378  2.6754  0.6406 -1.1960
  936MOL0     H26355   5.346   1.784   2.544  1.0017  2.1990  0.9700
  936MOL0     H26356   4.978   1.947   2.600 -1.4700  0.4074 -1.8585
  936MOL0     H26357   5.624   2.411   2.399  0.5234  0.5973  3.2792
  936MOL0     H26358   5.855   2.658   2.403 -4.2155 -0.4611 -2.2811
  936MOL0     H26359   5.702   2.596   2.470 -0.7238 -0.4883 -1.7501
  936MOL0     H26360   5.860   2.602   2.567  1.4213 -1.6066 -0.0733
  937MOL0     O26361   4.213   1.424   5.910 -0.3988 -0.6270 -1.0068
  937MOL0     C26362   4.228   1.301   5.890  0.4548 -0.5111 -0.1730
  937MOL0     O26363   4.225   1.249   5.763  0.5007 -0.3223 -0.9292
  937MOL0     C26364   4.189   1.326   5.657 -0.1169 -0.4381  0.0081
  937MOL0     C26365   4.075   1.404   5.649  0.4300  0.0120 -0.9866
  937MOL0     C26366   4.068   1.493   5.540  0.4109 -0.5265 -0.1467
  937MOL0     C26367   4.161   1.495   5.431 -0.0576 -0.3009  0.1024
  937MOL0     O26368   4.138   1.578   5.322 -0.2232 -0.4971 -0.0628
  937MOL0     C26369   4.153   1.514   5.191 -0.0602  0.7768 -0.0058
  937MOL0     C26370   4.054   1.601   5.099  0.3181  0.6881  0.0372
  937MOL0     C26371   4.095   1.589   4.948  0.3715  0.4754 -0.4724
  937MOL0     C26372   3.988   1.671   4.872 -0.3715  0.0072 -0.4463
  937MOL0     C26373   3.997   1.670   4.714 -0.2576 -0.3197 -0.4771
  937MOL0     C26374   4.004   1.535   4.661  0.0703  0.6657  0.4167
  937MOL0     C26375   4.012   1.525   4.501  1.4704  0.1642  0.3133
  937MOL0     C26376   3.885   1.456   4.443 -0.3660  0.2673  0.2027
  937MOL0     N26377   3.851   1.532   4.321  0.2789 -0.1449 -0.0073
  937MOL0     C26378   3.773   1.647   4.318 -0.4068 -1.2661 -0.0439
  937MOL0     C26379   3.774   1.681   4.187  0.0492 -0.4676 -0.7320
  937MOL0     C26380   3.708   1.815   4.143 -1.1255  0.6532 -0.3581
  937MOL0     C26381   3.592   1.862   4.237 -0.0142 -0.5347  0.0010
  937MOL0     C26382   3.513   1.990   4.184 -0.1787  0.5837  0.8199
  937MOL0     C26383   3.373   1.991   4.251  0.5859 -0.2288 -0.7378
  937MOL0     O26384   3.379   2.061   4.379  0.6853  0.5265 -0.2706
  937MOL0     C26385   3.267   2.146   4.399 -0.0645 -0.1339 -0.6859
  937MOL0     C26386   3.132   2.100   4.389 -1.6856  0.0030 -0.5616
  937MOL0     C26387   3.028   2.187   4.423  1.1333  0.8342 -0.0547
  937MOL0     C26388   3.057   2.319   4.478  0.4991 -0.3298  0.7559
  937MOL0     C26389   2.963   2.433   4.511  0.2398  0.6189  0.2802
  937MOL0     O26390   2.841   2.389   4.530  0.1812  0.0809 -0.1026
  937MOL0     C26391   2.736   2.472   4.500  0.3544  0.0717 -0.8075
  937MOL0     C26392   2.621   2.461   4.584 -0.7861  0.1557 -0.0681
  937MOL0     C26393   2.500   2.534   4.566  0.4530  1.0550  0.7222
  937MOL0     C26394   2.489   2.613   4.448  0.3146 -0.1124 -0.2975
  937MOL0     O26395   2.371   2.688   4.424 -0.0555  0.4003 -0.4375
  937MOL0     C26396   2.273   2.702   4.527 -0.0912 -0.5701  0.8575
  937MOL0     C26397   2.167   2.793   4.466  1.2410 -0.7058 -0.0705
  937MOL0     C26398   2.045   2.794   4.566 -0.0787  0.7267  0.5461
  937MOL0     C26399   1.910   2.843   4.506  0.3236  0.9266 -0.4503
  937MOL0     C26400   1.804   2.854   4.615  0.6611 -0.6028 -0.1846
  937MOL0     C26401   1.676   2.917   4.558 -0.1394 -0.0854  0.5865
  937MOL0     C26402   1.571   2.912   4.667  0.0804 -0.6225  0.5944
  937MOL0     C26403   1.438   2.968   4.621  0.5642  0.9077  1.0207
  937MOL0    Cl26404   1.352   2.854   4.496 -0.3351  0.1951  0.3130
  937MOL0     C26405   2.608   2.638   4.375  0.5691 -0.4754  0.2476
  937MOL0     C26406   2.722   2.570   4.404  0.3564  0.4873  1.0273
  937MOL0     O26407   3.009   2.544   4.508 -0.2322 -0.2551  0.0196
  937MOL0     C26408   3.200   2.353   4.490 -0.4332  0.2890 -0.1133
  937MOL0     C26409   3.303   2.263   4.456 -0.4670  0.9506  0.3059
  937MOL0     N26410   3.814   1.573   4.115  0.2305  0.8882 -0.0740
  937MOL0     N26411   3.870   1.491   4.191  0.4702  0.5418  0.3703
  937MOL0     C26412   4.271   1.405   5.435  0.7544 -1.2448  0.4755
  937MOL0     C26413   4.286   1.336   5.555  0.0595  0.4948 -0.1615
  937MOL0     C26414   4.281   1.219   6.005 -0.6268 -0.9304 -0.1032
  937MOL0     C26415   4.294   1.081   5.994 -0.0849 -0.7832  0.4758
  937MOL0     C26416   4.356   0.999   6.090  0.3947 -0.3860 -0.6868
  937MOL0     C26417   4.396   1.057   6.214  0.4942  0.6323  0.2176
  937MOL0     O26418   4.431   0.971   6.314 -0.6087 -0.4625 -0.1045
  937MOL0     C26419   4.448   1.022   6.448  0.4424 -0.2031  0.5164
  937MOL0     C26420   4.532   0.926   6.526  0.0755  0.5977 -0.2221
  937MOL0     C26421   4.461   0.798   6.584  0.6442 -0.1284  0.5024
  937MOL0     C26422   4.369   0.806   6.714  0.1937  0.3423  0.9690
  937MOL0     C26423   4.443   0.844   6.837  1.3840 -0.3587  0.6465
  937MOL0     C26424   4.499   0.877   6.939 -0.3891 -0.1721  0.4254
  937MOL0     C26425   4.388   1.192   6.229  0.0737 -0.6657 -0.0056
  937MOL0     C26426   4.330   1.276   6.132 -0.0601 -0.1253  0.4868
  937MOL0     C26427   4.303   1.419   6.174 -0.3029 -0.0067 -0.1429
  937MOL0     H26428   3.989   1.403   5.715  1.1571 -1.2720  0.0102
  937MOL0     H26429   3.981   1.557   5.528 -0.2327 -1.6679 -1.8344
  937MOL0     H26430   4.256   1.537   5.160 -0.4441  2.3043 -0.2491
  937MOL0     H26431   4.133   1.408   5.180  1.3661  0.5131 -0.2957
  937MOL0     H26432   4.077   1.706   5.117  0.6915  0.2014  2.9439
  937MOL0     H26433   3.951   1.570   5.122 -0.0921 -0.3296 -2.7622
  937MOL0     H26434   4.097   1.489   4.905 -2.2857 -0.4800  1.3500
  937MOL0     H26435   4.195   1.627   4.927  0.1582  0.1004 -2.2590
  937MOL0     H26436   3.896   1.616   4.893 -0.2906 -0.8147 -2.1343
  937MOL0     H26437   3.980   1.772   4.915  1.3181 -0.3267  0.7851
  937MOL0     H26438   3.914   1.731   4.677 -2.0313 -2.2059  0.2204
  937MOL0     H26439   4.077   1.737   4.681  0.2185  0.5280  2.1487
  937MOL0     H26440   4.097   1.480   4.679 -0.0321  0.3344 -0.0696
  937MOL0     H26441   3.930   1.473   4.712  1.1522 -2.1694 -1.2386
  937MOL0     H26442   4.090   1.452   4.476 -0.1335 -1.0722 -1.2996
  937MOL0     H26443   4.028   1.623   4.454  2.5619 -1.0200 -1.9364
  937MOL0     H26444   3.905   1.359   4.397 -0.0958  1.0796 -1.4603
  937MOL0     H26445   3.807   1.442   4.519 -0.3020 -0.5276  0.1270
  937MOL0     H26446   3.729   1.694   4.406 -0.5787 -1.8153  0.1646
  937MOL0     H26447   3.783   1.894   4.131  1.9859 -2.4180 -3.5240
  937MOL0     H26448   3.673   1.794   4.041  3.3110 -1.1252 -1.7608
  937MOL0     H26449   3.523   1.777   4.248 -2.1041  0.6914 -2.5603
  937MOL0     H26450   3.632   1.886   4.336  1.4372 -0.3758 -0.5933
  937MOL0     H26451   3.498   1.966   4.078  0.8316  2.4693  0.2177
  937MOL0     H26452   3.570   2.082   4.198 -1.6348  2.1592 -2.4201
  937MOL0     H26453   3.322   1.896   4.273 -0.2895  0.3497 -0.1996
  937MOL0     H26454   3.302   2.046   4.189 -2.8481  1.2053  3.8746
  937MOL0     H26455   3.123   2.000   4.350  0.7370 -0.2114 -0.7337
  937MOL0     H26456   2.928   2.151   4.400  0.9649  0.0726  1.6504
  937MOL0     H26457   2.635   2.382   4.656  2.1295  1.4819  0.9651
  937MOL0     H26458   2.416   2.526   4.633  0.4022  3.4875  1.0298
  937MOL0     H26459   2.224   2.611   4.562 -2.8434  1.2701  2.1248
  937MOL0     H26460   2.317   2.755   4.612  0.5372  0.3280  0.0104
  937MOL0     H26461   2.200   2.895   4.443 -0.7671 -0.1819 -0.9044
  937MOL0     H26462   2.137   2.746   4.372 -1.5492 -0.6904  0.7262
  937MOL0     H26463   2.031   2.691   4.600 -0.7955  0.1644 -1.3184
  937MOL0     H26464   2.074   2.861   4.647  1.7494  1.3007 -0.5190
  937MOL0     H26465   1.886   2.763   4.435  0.6029  1.4549 -1.1528
  937MOL0     H26466   1.914   2.942   4.460  1.4072 -0.1968 -2.9438
  937MOL0     H26467   1.844   2.916   4.696  0.1640 -0.4467 -0.0549
  937MOL0     H26468   1.772   2.755   4.650 -3.5652  0.5634 -0.1926
  937MOL0     H26469   1.698   3.017   4.522  2.2112 -1.1099 -1.0932
  937MOL0     H26470   1.647   2.858   4.470 -1.0376  1.1758  0.0115
  937MOL0     H26471   1.612   2.985   4.737  1.4252 -2.0362  1.3351
  937MOL0     H26472   1.561   2.812   4.711 -1.6169 -0.7693 -0.0302
  937MOL0     H26473   1.367   2.978   4.704 -2.9133 -0.0325 -1.6176
  937MOL0     H26474   1.447   3.065   4.572 -0.5225 -0.2628 -1.6726
  937MOL0     H26475   2.606   2.711   4.295 -1.2494 -0.6505  0.0733
  937MOL0     H26476   2.802   2.587   4.333 -0.4945  0.2176 -0.0427
  937MOL0     H26477   3.238   2.450   4.520 -1.2294  1.6593 -3.1272
  937MOL0     H26478   3.401   2.310   4.451  0.1088 -0.1166  1.1246
  937MOL0     H26479   4.344   1.390   5.356 -0.9080  1.2216 -1.6654
  937MOL0     H26480   4.368   1.266   5.555 -1.2076 -1.0374  0.4148
  937MOL0     H26481   4.255   1.041   5.901 -2.3982  0.0429  1.0257
  937MOL0     H26482   4.368   0.896   6.057 -0.3670 -1.2838  1.6292
  937MOL0     H26483   4.353   1.049   6.495  0.9780  0.3161  1.3233
  937MOL0     H26484   4.505   1.114   6.461  3.1985 -2.0800  3.1004
  937MOL0     H26485   4.570   0.974   6.616  1.6142  1.4882 -1.2930
  937MOL0     H26486   4.616   0.893   6.464 -1.3393  2.0797 -3.1140
  937MOL0     H26487   4.536   0.720   6.597 -0.3211 -2.1942 -4.2562
  937MOL0     H26488   4.395   0.760   6.505 -1.4043  3.6379  0.1567
  937MOL0     H26489   4.282   0.870   6.701 -1.3146 -1.0367  3.5091
  937MOL0     H26490   4.328   0.707   6.735  0.7825 -0.4224 -1.2257
  937MOL0     H26491   4.548   0.898   7.031 -1.2162 -0.8202  1.0253
  937MOL0     H26492   4.422   1.241   6.320  0.5501 -0.2353 -0.4065
  937MOL0     H26493   4.198   1.442   6.153 -0.0426 -0.0696 -1.5732
  937MOL0     H26494   4.316   1.418   6.283 -0.2671 -2.3487 -0.1193
  937MOL0     H26495   4.364   1.498   6.128 -1.4908  1.5226  0.7825
  938MOL0     O26496   9.096   5.281   3.568 -0.2250 -0.3318 -0.6092
  938MOL0     C26497   9.190   5.204   3.569 -0.0081 -0.1758 -0.2468
  938MOL0     O26498   9.193   5.092   3.639  0.0756 -0.4215 -0.4603
  938MOL0     C26499   9.103   5.051   3.731 -0.2357 -0.4163  0.5237
  938MOL0     C26500   9.044   4.925   3.725 -0.4520 -0.0586 -0.2779
  938MOL0     C26501   8.971   4.875   3.832 -0.0760  0.4765 -0.4523
  938MOL0     C26502   8.953   4.941   3.955 -0.4424 -0.1405 -0.1818
  938MOL0     O26503   8.884   4.884   4.061 -0.2645  0.1013  0.1002
  938MOL0     C26504   8.737   4.898   4.056 -0.7665 -0.8241 -0.0243
  938MOL0     C26505   8.667   4.805   3.959  0.2654 -0.9929 -0.5211
  938MOL0     C26506   8.519   4.822   3.957  0.4902  0.0993 -0.1751
  938MOL0     C26507   8.475   4.737   3.828  0.1927 -0.3936 -0.1001
  938MOL0     C26508   8.331   4.749   3.812  0.2761 -0.1473 -0.1514
  938MOL0     C26509   8.265   4.628   3.735  0.3086 -0.2779  0.0586
  938MOL0     C26510   8.114   4.654   3.724 -1.5275 -0.8293 -0.1689
  938MOL0     C26511   8.025   4.540   3.672 -0.0970  0.2070  0.0996
  938MOL0     N26512   8.036   4.406   3.739  0.3820 -0.2926 -0.1479
  938MOL0     C26513   8.050   4.387   3.874  0.3258 -0.3635 -0.4521
  938MOL0     C26514   8.080   4.264   3.903  0.2961  0.3029  0.6217
  938MOL0     C26515   8.131   4.187   4.017  0.1074  0.6759  0.2688
  938MOL0     C26516   8.204   4.052   3.995 -0.5021 -0.2120 -0.0777
  938MOL0     C26517   8.363   4.048   4.003  0.0299 -0.6428  0.7334
  938MOL0     C26518   8.430   4.146   3.897  0.4985 -0.3706  0.0830
  938MOL0     O26519   8.567   4.169   3.932 -1.1221  0.3665  0.5252
  938MOL0     C26520   8.634   4.254   3.847  0.0947  0.0188 -0.8502
  938MOL0     C26521   8.774   4.257   3.869 -0.4664 -0.0832 -0.0274
  938MOL0     C26522   8.857   4.355   3.812 -0.3626 -0.0854  0.8934
  938MOL0     C26523   8.801   4.451   3.721 -0.3093 -0.2568  0.7644
  938MOL0     C26524   8.888   4.542   3.635 -0.0052  0.9805 -0.2247
  938MOL0     O26525   9.024   4.540   3.656 -0.8780 -0.0574 -0.0428
  938MOL0     C26526   9.110   4.586   3.559  0.4308  0.2165 -1.2645
  938MOL0     C26527   9.089   4.591   3.423  0.0973 -0.4098  0.2879
  938MOL0     C26528   9.189   4.643   3.337 -0.0461  0.1517  0.3701
  938MOL0     C26529   9.308   4.696   3.390  0.0267 -0.7573 -0.1697
  938MOL0     O26530   9.414   4.732   3.317  0.7632 -0.7923  0.2020
  938MOL0     C26531   9.401   4.747   3.173  0.8552 -0.3033  0.2972
  938MOL0     C26532   9.543   4.763   3.114  0.5469  0.5899  0.4035
  938MOL0     C26533   9.543   4.801   2.975  0.2824 -0.2195 -0.5685
  938MOL0     C26534   9.675   4.806   2.886  0.9429 -0.1792  0.2147
  938MOL0     C26535   9.634   4.820   2.731 -0.5042  0.1027  0.4625
  938MOL0     C26536   9.757   4.873   2.641  0.0823 -0.4101 -0.6722
  938MOL0     C26537   9.872   4.772   2.622  0.6514  0.0889  0.0149
  938MOL0     C26538   9.966   4.810   2.511  0.2120  0.0827  0.2053
  938MOL0    Cl26539  10.090   4.681   2.489 -0.1310 -0.0197 -0.3861
  938MOL0     C26540   9.329   4.697   3.522  0.6682 -0.3344 -0.2235
  938MOL0     C26541   9.236   4.633   3.612 -0.0094  0.2968 -0.4575
  938MOL0     O26542   8.833   4.612   3.551  0.0550 -0.3462  0.1212
  938MOL0     C26543   8.669   4.443   3.694  0.4588  0.5743 -0.5518
  938MOL0     C26544   8.590   4.340   3.749 -0.4477 -0.1898 -0.4018
  938MOL0     N26545   8.067   4.195   3.779  0.5123 -0.0522 -0.6982
  938MOL0     N26546   8.032   4.281   3.680  0.0187  1.3348  0.3130
  938MOL0     C26547   9.009   5.068   3.960 -0.0320 -0.6748  0.2914
  938MOL0     C26548   9.082   5.123   3.850  0.6382 -0.5577 -0.3698
  938MOL0     C26549   9.304   5.232   3.476  0.9396  0.2553  0.0139
  938MOL0     C26550   9.386   5.123   3.454 -0.0530 -0.2043  0.4963
  938MOL0     C26551   9.491   5.129   3.360  0.1034  0.4897 -0.2366
  938MOL0     C26552   9.521   5.243   3.295 -1.1380 -0.9388  0.5030
  938MOL0     O26553   9.621   5.257   3.214  0.0300  0.4621 -0.2891
  938MOL0     C26554   9.598   5.256   3.072 -0.3540  0.0038  0.3985
  938MOL0     C26555   9.725   5.286   2.992 -0.2441  0.0666  0.1925
  938MOL0     C26556   9.691   5.270   2.845  0.3842 -0.1553  0.9657
  938MOL0     C26557   9.810   5.286   2.759  0.6025 -0.0270  0.9590
  938MOL0     C26558   9.858   5.418   2.761 -0.0299 -0.3487  0.1468
  938MOL0     C26559   9.899   5.536   2.780  0.1959  0.7051  0.3025
  938MOL0     C26560   9.444   5.363   3.326 -1.0302 -0.1830  0.0498
  938MOL0     C26561   9.339   5.361   3.422  0.3038  0.7647  0.4806
  938MOL0     C26562   9.271   5.478   3.464  0.2453 -0.1691 -0.5799
  938MOL0     H26563   9.063   4.861   3.640  1.6133  1.8564 -1.3515
  938MOL0     H26564   8.921   4.779   3.823 -0.7815  0.8234 -0.3340
  938MOL0     H26565   8.685   4.886   4.151 -1.9425  0.8910 -0.3973
  938MOL0     H26566   8.710   5.000   4.024 -1.4462 -2.4161 -5.6392
  938MOL0     H26567   8.696   4.704   3.989 -0.8921 -0.8613  1.1792
  938MOL0     H26568   8.715   4.826   3.863  4.9908  0.0580  1.7977
  938MOL0     H26569   8.505   4.931   3.952  3.2666  0.5512 -0.0289
  938MOL0     H26570   8.472   4.772   4.042 -0.1102 -0.0237 -0.5841
  938MOL0     H26571   8.522   4.786   3.743  0.3927  2.8907  1.7165
  938MOL0     H26572   8.511   4.635   3.842  0.2139 -0.2258  1.1989
  938MOL0     H26573   8.287   4.759   3.912  1.8278 -1.1431  0.6734
  938MOL0     H26574   8.296   4.842   3.765  1.9015  0.0201 -1.1054
  938MOL0     H26575   8.317   4.625   3.639  2.3653  4.3368  0.7335
  938MOL0     H26576   8.282   4.541   3.799 -3.9193  1.2818  3.8738
  938MOL0     H26577   8.091   4.741   3.662  1.5760 -0.1033 -0.4818
  938MOL0     H26578   8.084   4.677   3.827  0.0157 -3.3305  0.9489
  938MOL0     H26579   7.922   4.570   3.694  0.6947  2.0264  1.6133
  938MOL0     H26580   8.034   4.537   3.563  2.8012 -0.5234  0.2669
  938MOL0     H26581   8.057   4.462   3.952 -2.5125 -0.8500  0.3911
  938MOL0     H26582   8.200   4.257   4.065 -3.0257  1.7970  3.5668
  938MOL0     H26583   8.049   4.171   4.088  0.7720  0.0089  0.8996
  938MOL0     H26584   8.169   3.986   4.075 -4.0187 -0.4595 -1.6356
  938MOL0     H26585   8.160   4.006   3.906 -2.6502  1.0943  0.2394
  938MOL0     H26586   8.402   3.953   3.967 -0.2648 -0.0752 -1.2024
  938MOL0     H26587   8.395   4.067   4.106 -0.0986  0.2792  0.6115
  938MOL0     H26588   8.380   4.244   3.899 -0.5919 -0.7000 -3.9495
  938MOL0     H26589   8.421   4.097   3.800  2.5653 -2.2691  0.7710
  938MOL0     H26590   8.821   4.193   3.943 -2.5057 -1.3578  0.2284
  938MOL0     H26591   8.961   4.355   3.842 -0.5781 -0.4495  1.6787
  938MOL0     H26592   9.007   4.543   3.371  2.5782 -3.4054 -1.1829
  938MOL0     H26593   9.165   4.664   3.233 -2.2838  2.6966  1.2844
  938MOL0     H26594   9.353   4.661   3.125 -1.2098  1.0593 -0.2038
  938MOL0     H26595   9.334   4.831   3.150  0.7790 -0.2874  0.5779
  938MOL0     H26596   9.601   4.844   3.160  0.2047  3.0761 -3.1421
  938MOL0     H26597   9.586   4.663   3.121 -1.8962 -0.5053  0.7299
  938MOL0     H26598   9.477   4.732   2.920 -3.8663  4.6270 -2.5336
  938MOL0     H26599   9.502   4.902   2.973  1.3346  0.3853  3.0105
  938MOL0     H26600   9.738   4.718   2.901  1.3083  0.6034  4.6901
  938MOL0     H26601   9.728   4.899   2.908 -1.0003  1.8500 -2.8908
  938MOL0     H26602   9.559   4.898   2.720 -2.1664 -1.6099 -1.2926
  938MOL0     H26603   9.587   4.731   2.686 -1.7232 -0.0647  1.9807
  938MOL0     H26604   9.728   4.914   2.544 -1.9312 -1.7090 -0.6762
  938MOL0     H26605   9.797   4.957   2.699  4.2981 -2.0731 -0.7990
  938MOL0     H26606   9.834   4.671   2.606  2.5345 -0.6883  0.2410
  938MOL0     H26607   9.931   4.767   2.714  0.2490 -0.8381  0.2282
  938MOL0     H26608   9.896   4.814   2.427  0.3207  2.6117  0.1860
  938MOL0     H26609  10.019   4.905   2.520  1.0729 -0.3458 -0.1770
  938MOL0     H26610   9.418   4.749   3.556  1.0204 -0.3816 -1.0491
  938MOL0     H26611   9.244   4.626   3.720 -0.7442 -1.2145 -0.4733
  938MOL0     H26612   8.630   4.507   3.616  0.7106  3.0329  1.2339
  938MOL0     H26613   8.484   4.342   3.727 -0.8052 -0.5429  1.1340
  938MOL0     H26614   8.981   5.141   4.035  2.6050  1.9177 -1.0033
  938MOL0     H26615   9.115   5.226   3.846 -3.2750  0.8157 -0.5611
  938MOL0     H26616   9.356   5.027   3.495  1.1694 -2.0631 -2.5673
  938MOL0     H26617   9.554   5.040   3.354 -1.4362 -0.5982 -1.0050
  938MOL0     H26618   9.535   5.345   3.056  1.2156  1.0002 -0.5581
  938MOL0     H26619   9.555   5.163   3.034  3.3141 -0.8085 -2.3071
  938MOL0     H26620   9.796   5.205   3.013  1.4359  1.4770  0.1625
  938MOL0     H26621   9.787   5.373   3.017  1.3264 -1.4286  1.8061
  938MOL0     H26622   9.615   5.338   2.806 -0.1767 -0.5289  1.4007
  938MOL0     H26623   9.661   5.168   2.822  2.6966 -0.1942 -2.5218
  938MOL0     H26624   9.888   5.213   2.781 -0.9487 -2.8573 -2.0913
  938MOL0     H26625   9.773   5.258   2.660  0.7927 -2.1033  1.4301
  938MOL0     H26626   9.920   5.639   2.801 -3.4572  1.5382  0.5067
  938MOL0     H26627   9.477   5.458   3.286  2.2981 -0.8369  0.9745
  938MOL0     H26628   9.244   5.479   3.570  1.2733 -0.1757 -0.3060
  938MOL0     H26629   9.326   5.572   3.456 -1.6968  1.3653  2.4829
  938MOL0     H26630   9.183   5.476   3.400  0.7181 -0.3606 -1.2378
  939MOL0     O26631   3.033   7.912   1.134 -0.1002  0.1866  0.5724
  939MOL0     C26632   3.159   7.910   1.158 -0.1888  0.4892 -0.3891
  939MOL0     O26633   3.256   7.873   1.072 -0.1589 -0.1729 -0.3030
  939MOL0     C26634   3.226   7.832   0.945  0.2956  1.0103  0.2725
  939MOL0     C26635   3.285   7.895   0.833 -0.1877  0.8864 -0.7652
  939MOL0     C26636   3.260   7.842   0.697 -0.1476 -0.0707 -0.4912
  939MOL0     C26637   3.170   7.739   0.681  0.7883  0.0988  0.7275
  939MOL0     O26638   3.151   7.700   0.550 -0.2884  0.4990  0.2481
  939MOL0     C26639   3.200   7.568   0.525 -0.0359  0.1474  0.8987
  939MOL0     C26640   3.102   7.487   0.452  0.4881  0.3749 -0.2877
  939MOL0     C26641   3.120   7.334   0.482  0.5576 -0.0455 -0.0178
  939MOL0     C26642   3.032   7.255   0.398  0.1187  0.3199 -0.2627
  939MOL0     C26643   3.032   7.099   0.431  0.1466 -0.5922 -0.2499
  939MOL0     C26644   2.914   7.028   0.378 -0.7585 -0.2231  0.5964
  939MOL0     C26645   2.922   6.879   0.434 -0.0118 -0.3963  0.1747
  939MOL0     C26646   2.811   6.799   0.397 -0.2056 -0.2937  1.1913
  939MOL0     N26647   2.693   6.838   0.469  1.3052  0.0167  0.5897
  939MOL0     C26648   2.643   6.803   0.599 -0.4188 -0.1381 -0.2790
  939MOL0     C26649   2.514   6.851   0.605 -0.7800 -0.5879  1.2803
  939MOL0     C26650   2.427   6.850   0.723 -0.2918  0.2895 -0.2216
  939MOL0     C26651   2.277   6.875   0.700  0.2952  0.1543  0.8198
  939MOL0     C26652   2.218   6.760   0.605 -0.1832  0.4341 -0.6930
  939MOL0     C26653   2.234   6.604   0.642  1.1763  0.1882 -0.1838
  939MOL0     O26654   2.166   6.564   0.770 -0.2225 -0.1946 -0.1770
  939MOL0     C26655   2.180   6.436   0.816  0.7528 -0.8603  0.6626
  939MOL0     C26656   2.079   6.394   0.901  0.1562 -0.7408  0.2926
  939MOL0     C26657   2.087   6.270   0.955  0.1544 -0.4218  0.0831
  939MOL0     C26658   2.187   6.182   0.920  0.3671  0.7330 -0.2903
  939MOL0     C26659   2.188   6.046   0.985  0.0207 -0.0922  0.0429
  939MOL0     O26660   2.073   6.016   1.047  0.4269 -0.2502 -0.5261
  939MOL0     C26661   2.061   5.883   1.070  0.6737  0.2596 -0.3670
  939MOL0     C26662   2.008   5.788   0.982 -0.3102  1.0904 -0.0308
  939MOL0     C26663   2.028   5.647   0.990 -0.0807 -0.0027 -0.3973
  939MOL0     C26664   2.090   5.602   1.113  0.9640  0.7547  0.6498
  939MOL0     O26665   2.134   5.475   1.155  0.0981  0.3370 -0.0243
  939MOL0     C26666   2.059   5.359   1.104  0.6352  0.1485  0.0182
  939MOL0     C26667   1.918   5.342   1.169  0.4529 -0.4017 -0.7606
  939MOL0     C26668   1.933   5.317   1.314 -0.9274 -1.0171  0.2179
  939MOL0     C26669   1.920   5.442   1.405 -0.0562  0.3058 -0.3977
  939MOL0     C26670   1.954   5.425   1.545  0.5080 -0.8572  0.1287
  939MOL0     C26671   1.898   5.294   1.606 -0.3698  0.4573  0.2523
  939MOL0     C26672   1.908   5.307   1.764  0.0526 -0.7492 -0.1526
  939MOL0     C26673   1.861   5.181   1.819 -0.2294  0.5848 -0.5059
  939MOL0    Cl26674   1.830   5.176   1.977 -0.0236 -0.0260  0.0304
  939MOL0     C26675   2.119   5.691   1.216  0.6566  0.5266 -0.3476
  939MOL0     C26676   2.103   5.832   1.199 -0.2717 -0.1106 -0.0614
  939MOL0     O26677   2.285   5.974   0.954 -0.0391  0.2816 -0.0318
  939MOL0     C26678   2.296   6.234   0.841 -0.1328  0.4609 -0.4508
  939MOL0     C26679   2.290   6.356   0.778  0.0548 -0.3006  0.2147
  939MOL0     N26680   2.491   6.921   0.487 -0.9620 -0.9712 -0.1902
  939MOL0     N26681   2.594   6.915   0.416  0.2453 -0.7470 -0.0612
  939MOL0     C26682   3.103   7.675   0.787  0.8527  0.3300 -0.3509
  939MOL0     C26683   3.139   7.720   0.916 -0.2256 -0.0005  0.0131
  939MOL0     C26684   3.211   7.941   1.296  0.1946  1.0704  0.1619
  939MOL0     C26685   3.336   7.882   1.332  0.4524  0.3511 -0.5396
  939MOL0     C26686   3.404   7.899   1.455 -0.2664  0.7827  0.2965
  939MOL0     C26687   3.345   7.985   1.550 -0.2244  0.5387  0.5073
  939MOL0     O26688   3.399   7.978   1.681 -0.7287 -0.2176  0.1287
  939MOL0     C26689   3.367   8.072   1.782  0.6514  0.5502 -0.7812
  939MOL0     C26690   3.298   8.001   1.898  0.1916  0.0064  0.5612
  939MOL0     C26691   3.151   7.965   1.862 -0.4832 -0.3736 -0.4451
  939MOL0     C26692   3.134   7.827   1.801  1.0934  0.8881 -0.3163
  939MOL0     C26693   3.073   7.734   1.903 -0.4636 -0.7386  0.4076
  939MOL0     C26694   3.028   7.660   1.996 -0.5169 -0.3811  0.7340
  939MOL0     C26695   3.231   8.063   1.508  0.9024 -0.3135  0.1431
  939MOL0     C26696   3.155   8.041   1.386 -0.3210  0.5455 -0.2292
  939MOL0     C26697   3.032   8.128   1.373 -1.0635 -0.6170 -0.3351
  939MOL0     H26698   3.366   7.967   0.842  0.8505 -0.3774  0.3355
  939MOL0     H26699   3.309   7.874   0.606 -0.3029  0.7571 -0.2904
  939MOL0     H26700   3.279   7.574   0.450 -1.2152  1.5228 -0.2808
  939MOL0     H26701   3.245   7.518   0.612  4.6538 -0.2593 -1.4212
  939MOL0     H26702   3.108   7.512   0.346  1.3441  2.6699  0.2525
  939MOL0     H26703   3.005   7.514   0.495  0.7305 -0.1456  0.6099
  939MOL0     H26704   3.100   7.320   0.589 -0.6596 -0.0892 -0.2494
  939MOL0     H26705   3.218   7.307   0.441 -0.4382 -0.0144 -2.5405
  939MOL0     H26706   2.932   7.296   0.415  0.2333  1.5260 -2.1598
  939MOL0     H26707   3.054   7.265   0.291 -2.2899  3.9264 -0.5961
  939MOL0     H26708   3.125   7.054   0.394 -0.4924 -1.4414 -0.8340
  939MOL0     H26709   3.029   7.093   0.541  2.4021 -0.4604 -0.1180
  939MOL0     H26710   2.823   7.085   0.398  0.1960  1.5462  0.1118
  939MOL0     H26711   2.924   7.029   0.269  1.1369 -1.2839  0.7103
  939MOL0     H26712   2.935   6.872   0.543  1.1585  0.1324  0.0796
  939MOL0     H26713   3.007   6.829   0.388 -1.9499 -0.6912 -3.4928
  939MOL0     H26714   2.800   6.821   0.291 -1.4478 -4.0236  0.3707
  939MOL0     H26715   2.829   6.691   0.401 -1.1089 -0.9909 -4.6195
  939MOL0     H26716   2.692   6.748   0.678  2.2135  1.8474 -0.4134
  939MOL0     H26717   2.439   6.754   0.775  3.5437  1.6194  1.7920
  939MOL0     H26718   2.456   6.910   0.810 -0.1116 -0.9614  0.6121
  939MOL0     H26719   2.214   6.884   0.789  0.2651 -2.3725  1.1322
  939MOL0     H26720   2.252   6.968   0.649 -3.0612 -0.6539  0.7580
  939MOL0     H26721   2.267   6.773   0.508  1.3420 -3.1059 -0.5491
  939MOL0     H26722   2.112   6.774   0.586 -1.2840 -0.8964  3.3929
  939MOL0     H26723   2.342   6.595   0.654  1.0311  0.5837  1.7445
  939MOL0     H26724   2.198   6.550   0.554  0.9938  1.4641 -0.9128
  939MOL0     H26725   1.995   6.459   0.923 -0.5403 -1.4291 -0.2481
  939MOL0     H26726   2.024   6.262   1.043 -2.0902  5.2566 -0.6161
  939MOL0     H26727   1.995   5.825   0.880 -1.0565 -3.1669 -1.6866
  939MOL0     H26728   2.014   5.586   0.901  1.9340  1.9498 -2.1608
  939MOL0     H26729   2.037   5.364   0.997  1.0124  0.7454 -0.0376
  939MOL0     H26730   2.123   5.273   1.127  1.4556  0.1957 -1.9426
  939MOL0     H26731   1.862   5.433   1.149  2.9762  0.5075 -4.6858
  939MOL0     H26732   1.864   5.263   1.118 -1.0619 -0.5891  1.0194
  939MOL0     H26733   1.869   5.231   1.337 -1.3059 -1.1567 -1.2552
  939MOL0     H26734   2.032   5.275   1.335 -0.5914 -1.3017 -1.7499
  939MOL0     H26735   1.815   5.471   1.398 -0.6356 -1.4260  0.3811
  939MOL0     H26736   1.976   5.526   1.364  0.6951 -0.1685 -0.3745
  939MOL0     H26737   1.911   5.512   1.595  1.9381 -0.4767  0.7372
  939MOL0     H26738   2.063   5.415   1.541  0.5017 -0.9373 -3.0936
  939MOL0     H26739   1.794   5.291   1.573 -0.9662 -3.0882  1.9025
  939MOL0     H26740   1.948   5.206   1.564  1.1331  0.5817  1.6429
  939MOL0     H26741   1.831   5.379   1.793  1.7740  1.1968 -0.1423
  939MOL0     H26742   2.010   5.321   1.801 -0.8963 -2.7630  3.7594
  939MOL0     H26743   1.772   5.142   1.769  0.1333 -0.1597 -0.5837
  939MOL0     H26744   1.939   5.108   1.796  0.0620  0.9497 -0.6913
  939MOL0     H26745   2.159   5.657   1.311 -0.0977  0.6210  0.0069
  939MOL0     H26746   2.142   5.901   1.273 -1.4987  2.3548 -1.6006
  939MOL0     H26747   2.384   6.173   0.824 -0.8048  0.1416 -3.1540
  939MOL0     H26748   2.378   6.389   0.725  1.6613  0.1998  2.9793
  939MOL0     H26749   3.032   7.597   0.761  1.8415  0.1997 -2.9327
  939MOL0     H26750   3.084   7.678   0.999  1.5185 -1.7470  0.3614
  939MOL0     H26751   3.373   7.809   1.260  0.4182  0.4101 -0.6163
  939MOL0     H26752   3.497   7.847   1.474  0.5913  1.9488 -0.5497
  939MOL0     H26753   3.315   8.162   1.748 -1.2680 -1.0886 -2.4300
  939MOL0     H26754   3.460   8.107   1.828  0.5276 -1.8391  1.5608
  939MOL0     H26755   3.299   8.064   1.987  2.4863 -3.4791  3.2924
  939MOL0     H26756   3.342   7.906   1.930 -1.1063 -1.3868 -1.5568
  939MOL0     H26757   3.115   8.048   1.801  1.9385  1.4704  0.4689
  939MOL0     H26758   3.087   7.971   1.950 -2.0059  4.0277 -1.5968
  939MOL0     H26759   3.081   7.819   1.706  3.9557 -0.6634 -1.9398
  939MOL0     H26760   3.234   7.791   1.776  0.4788 -0.3465 -1.1154
  939MOL0     H26761   2.997   7.597   2.077  2.2135 -5.0279 -1.3869
  939MOL0     H26762   3.195   8.142   1.574 -1.0819 -1.6219  0.7037
  939MOL0     H26763   2.961   8.071   1.313 -0.6454 -0.0813 -1.3815
  939MOL0     H26764   2.986   8.138   1.472 -2.0423 -2.7889 -0.5152
  939MOL0     H26765   3.041   8.226   1.324 -3.2111 -0.5340 -0.6389
  940MOL0     O26766   3.962   1.720   1.410  0.6400 -0.0350 -0.5031
  940MOL0     C26767   3.859   1.785   1.410  1.3004  0.7447  0.2843
  940MOL0     O26768   3.849   1.922   1.379  0.6335 -0.3598 -0.3963
  940MOL0     C26769   3.969   1.986   1.334 -0.8344  0.5789 -0.0226
  940MOL0     C26770   4.063   1.922   1.242  0.1824  0.0821 -0.4802
  940MOL0     C26771   4.184   1.989   1.201  0.3802 -0.0307 -0.6885
  940MOL0     C26772   4.207   2.119   1.258  0.0832  0.4332 -0.2853
  940MOL0     O26773   4.314   2.200   1.233  0.1249 -0.1144  1.5335
  940MOL0     C26774   4.418   2.158   1.151 -0.3490 -0.7766  0.4887
  940MOL0     C26775   4.472   2.267   1.066  0.4438 -0.1733  0.4855
  940MOL0     C26776   4.561   2.351   1.158 -0.1373 -0.0052  0.0027
  940MOL0     C26777   4.623   2.465   1.067 -1.1007 -0.6587 -0.5069
  940MOL0     C26778   4.712   2.574   1.132 -0.4835 -0.3466 -0.3839
  940MOL0     C26779   4.638   2.650   1.243  0.8523 -0.4219  0.6991
  940MOL0     C26780   4.747   2.746   1.309 -1.3539  0.7792  0.7260
  940MOL0     C26781   4.681   2.833   1.422 -0.7685  0.1030 -0.6363
  940MOL0     N26782   4.680   2.759   1.557  0.4615  0.1547 -0.0704
  940MOL0     C26783   4.778   2.790   1.654  1.2618 -0.0579  0.4979
  940MOL0     C26784   4.733   2.738   1.765 -0.2205  0.4865  0.2826
  940MOL0     C26785   4.797   2.735   1.897  0.5195  0.8815 -0.1711
  940MOL0     C26786   4.933   2.659   1.883 -0.5335 -0.5645  0.8230
  940MOL0     C26787   5.045   2.673   1.994 -0.8320  0.2488  0.8113
  940MOL0     C26788   4.991   2.621   2.118  0.1744 -0.7068 -0.9732
  940MOL0     O26789   5.086   2.594   2.221 -0.1278  0.8949  0.4047
  940MOL0     C26790   5.145   2.700   2.274 -0.1377 -0.3721 -0.8478
  940MOL0     C26791   5.084   2.766   2.382 -0.0698 -0.0588  0.4624
  940MOL0     C26792   5.133   2.890   2.435 -0.2967  0.4492  0.7791
  940MOL0     C26793   5.250   2.945   2.387  0.8120 -0.6915  0.9018
  940MOL0     C26794   5.301   3.078   2.426  0.5253  0.3920  0.0278
  940MOL0     O26795   5.417   3.124   2.387  0.4936 -0.9867  0.6382
  940MOL0     C26796   5.456   3.248   2.438  0.1263  0.2271  0.1904
  940MOL0     C26797   5.497   3.258   2.576 -0.3777  0.3477  1.0019
  940MOL0     C26798   5.541   3.383   2.624 -0.9218 -0.0568  0.4067
  940MOL0     C26799   5.547   3.495   2.544  0.2691  0.2970 -0.2488
  940MOL0     O26800   5.593   3.610   2.600  0.3240 -0.0441 -0.2543
  940MOL0     C26801   5.623   3.729   2.522  0.4881  0.4021  0.9440
  940MOL0     C26802   5.673   3.841   2.610 -1.0825  0.1468  0.1820
  940MOL0     C26803   5.701   3.975   2.542  0.4836 -0.8791 -0.5525
  940MOL0     C26804   5.787   3.963   2.424 -0.7316  0.1875  0.8142
  940MOL0     C26805   5.840   4.096   2.368 -0.1159 -0.3305 -0.7503
  940MOL0     C26806   5.961   4.151   2.458  0.2047  0.5222 -0.6077
  940MOL0     C26807   6.098   4.078   2.470  0.2043 -0.3532 -0.0208
  940MOL0     C26808   6.185   4.131   2.587 -0.6017 -0.6540  0.4201
  940MOL0    Cl26809   6.116   4.059   2.730  0.0099  0.1990 -0.5070
  940MOL0     C26810   5.494   3.484   2.416  0.4249  0.2055 -0.2267
  940MOL0     C26811   5.455   3.359   2.362 -0.6659 -0.0827 -1.0297
  940MOL0     O26812   5.222   3.148   2.489 -0.3652  0.1452  0.3199
  940MOL0     C26813   5.311   2.878   2.279 -0.2303  0.7209 -1.0866
  940MOL0     C26814   5.264   2.754   2.231  1.0790 -0.6326  0.0784
  940MOL0     N26815   4.605   2.691   1.740 -0.8451 -0.8165 -0.4037
  940MOL0     N26816   4.575   2.691   1.617 -0.3901 -0.2168  0.0357
  940MOL0     C26817   4.126   2.168   1.361  0.0020 -0.0899 -0.3229
  940MOL0     C26818   4.008   2.101   1.398  0.5213  0.3933 -0.7639
  940MOL0     C26819   3.730   1.704   1.421  0.2733  0.6337 -1.8094
  940MOL0     C26820   3.617   1.772   1.405  0.3353 -0.0284  0.5537
  940MOL0     C26821   3.489   1.705   1.410 -0.2280 -0.3913  0.0021
  940MOL0     C26822   3.478   1.567   1.443 -0.1942  0.9950  0.4084
  940MOL0     O26823   3.350   1.513   1.447 -0.4369  0.5178  0.0500
  940MOL0     C26824   3.339   1.469   1.311  0.5208 -0.1839 -0.8097
  940MOL0     C26825   3.223   1.369   1.294  0.1731  0.2678  0.0090
  940MOL0     C26826   3.241   1.224   1.314  0.6500 -0.1880 -0.3134
  940MOL0     C26827   3.233   1.184   1.460 -0.4356 -0.0826 -0.0307
  940MOL0     C26828   3.223   1.042   1.466  0.3170 -0.5308 -0.9234
  940MOL0     C26829   3.196   0.919   1.468 -0.0638  0.0009 -0.1065
  940MOL0     C26830   3.599   1.503   1.463  0.1534  1.1677  0.8290
  940MOL0     C26831   3.721   1.567   1.456 -0.2077  0.3334  0.0185
  940MOL0     C26832   3.836   1.492   1.503  0.5706  0.2887 -0.3105
  940MOL0     H26833   4.037   1.825   1.202 -1.1095 -1.1734  2.9833
  940MOL0     H26834   4.235   1.932   1.123 -2.2563  0.5958 -3.0468
  940MOL0     H26835   4.494   2.107   1.212 -4.1593 -2.4207  4.4083
  940MOL0     H26836   4.372   2.091   1.078 -1.1420  0.7172 -0.4204
  940MOL0     H26837   4.384   2.323   1.036  0.0983 -1.7381 -1.6243
  940MOL0     H26838   4.529   2.225   0.983  3.7471  2.5598  1.1220
  940MOL0     H26839   4.638   2.290   1.206  0.2934 -0.9090 -1.7474
  940MOL0     H26840   4.496   2.391   1.236  1.6894 -2.2255  2.8394
  940MOL0     H26841   4.672   2.411   0.985  1.6693  2.2811 -1.0009
  940MOL0     H26842   4.541   2.522   1.021 -0.4258  0.0607 -0.8346
  940MOL0     H26843   4.809   2.531   1.158  0.7694  2.9265  0.8314
  940MOL0     H26844   4.726   2.643   1.048 -3.1969  1.4532  0.5243
  940MOL0     H26845   4.564   2.712   1.193  0.5100 -1.2275  0.1816
  940MOL0     H26846   4.591   2.588   1.320  3.1576 -1.0236  1.7355
  940MOL0     H26847   4.793   2.812   1.236  2.8729 -2.6933 -0.1535
  940MOL0     H26848   4.822   2.675   1.346 -1.5402  1.0230  1.6143
  940MOL0     H26849   4.754   2.914   1.436  0.9649 -1.0587 -2.3480
  940MOL0     H26850   4.591   2.882   1.385  0.4103  1.4686 -1.8581
  940MOL0     H26851   4.870   2.847   1.646  2.7111 -2.0397  2.0618
  940MOL0     H26852   4.808   2.832   1.948  3.6884 -0.5170  2.1046
  940MOL0     H26853   4.748   2.673   1.973 -0.6236  0.9439 -0.8346
  940MOL0     H26854   4.918   2.551   1.870  0.7327 -0.4504 -2.6626
  940MOL0     H26855   4.973   2.694   1.787  2.3264 -0.3718  1.9808
  940MOL0     H26856   5.086   2.775   1.995  1.3178 -0.5466  0.1679
  940MOL0     H26857   5.132   2.609   1.975 -1.1152  0.2905 -0.7586
  940MOL0     H26858   4.939   2.525   2.111  0.7741 -1.0267 -1.0509
  940MOL0     H26859   4.916   2.695   2.149 -0.6275 -0.9028 -2.3944
  940MOL0     H26860   4.982   2.739   2.409  0.9621 -2.6664  2.0745
  940MOL0     H26861   5.080   2.940   2.516 -1.3124 -0.6631  0.8425
  940MOL0     H26862   5.500   3.177   2.648  0.7685  0.2182  0.8430
  940MOL0     H26863   5.583   3.396   2.723 -2.4032 -0.6240  1.1438
  940MOL0     H26864   5.713   3.706   2.464  1.9155  0.4983  3.0137
  940MOL0     H26865   5.545   3.767   2.456  0.7810  0.1649  0.4542
  940MOL0     H26866   5.617   3.867   2.700  0.1191  0.3998  0.8729
  940MOL0     H26867   5.758   3.787   2.653 -2.1110 -0.8694  0.9829
  940MOL0     H26868   5.606   4.017   2.509  1.1630  2.8900  1.7569
  940MOL0     H26869   5.730   4.043   2.623 -0.5812 -1.7104  0.5732
  940MOL0     H26870   5.743   3.913   2.337  0.2718  2.8574 -1.3824
  940MOL0     H26871   5.870   3.892   2.442 -1.7261 -1.1063  0.4707
  940MOL0     H26872   5.770   4.180   2.366 -0.1420  0.0287  3.8787
  940MOL0     H26873   5.872   4.078   2.265 -1.8551 -0.8546 -1.2368
  940MOL0     H26874   5.972   4.254   2.423  0.0345  0.3845 -1.0779
  940MOL0     H26875   5.918   4.153   2.558  1.3046  0.4923 -0.1229
  940MOL0     H26876   6.147   4.104   2.375 -1.2452  2.0488 -0.1912
  940MOL0     H26877   6.073   3.972   2.466 -1.6505  0.0545 -0.0190
  940MOL0     H26878   6.287   4.106   2.555 -0.4415 -1.4921  1.5387
  940MOL0     H26879   6.173   4.239   2.599 -1.0128 -0.9647  3.3404
  940MOL0     H26880   5.487   3.573   2.353 -2.9747 -0.2571 -0.7076
  940MOL0     H26881   5.426   3.374   2.259  1.4681 -0.8536 -1.8042
  940MOL0     H26882   5.403   2.923   2.242  2.8552 -0.5823  3.9151
  940MOL0     H26883   5.298   2.696   2.146 -0.4968  0.5842 -1.4647
  940MOL0     H26884   4.143   2.263   1.411  2.2611 -0.0077 -1.1229
  940MOL0     H26885   3.956   2.144   1.483 -0.8577 -3.2946  0.4533
  940MOL0     H26886   3.617   1.880   1.397  0.9804  0.2161  2.9666
  940MOL0     H26887   3.405   1.772   1.392  2.3462  2.9950 -0.4953
  940MOL0     H26888   3.431   1.419   1.280  0.4808  0.8756 -2.7826
  940MOL0     H26889   3.320   1.556   1.249  2.3675  1.0324  0.2597
  940MOL0     H26890   3.193   1.388   1.190  1.7705  1.4172 -0.2814
  940MOL0     H26891   3.132   1.395   1.349 -1.5991 -4.0092 -0.5247
  940MOL0     H26892   3.342   1.189   1.291  0.3521 -1.5471  0.3240
  940MOL0     H26893   3.160   1.175   1.259  2.0601 -1.7362 -1.1039
  940MOL0     H26894   3.330   1.216   1.501 -0.2226 -0.8289  0.0747
  940MOL0     H26895   3.142   1.228   1.500 -0.6615  0.2091 -0.8620
  940MOL0     H26896   3.174   0.814   1.462 -0.0676 -0.0627  0.8486
  940MOL0     H26897   3.583   1.402   1.502  1.3303  0.5548 -0.2283
  940MOL0     H26898   3.801   1.395   1.541 -0.1638  0.5949 -0.1945
  940MOL0     H26899   3.916   1.464   1.434  1.5645 -2.3925  1.7521
  940MOL0     H26900   3.888   1.545   1.583  0.6909  1.3118 -1.0563
  941MOL0     O26901   6.732  10.508   3.720  0.2020  0.4885  0.3494
  941MOL0     C26902   6.651  10.513   3.814  0.4784  0.1724  0.3002
  941MOL0     O26903   6.663  10.587   3.932 -0.1541  0.6693  0.3517
  941MOL0     C26904   6.787  10.614   3.980  0.6252 -0.8953  0.1339
  941MOL0     C26905   6.816  10.748   4.023  0.4178  0.7006 -0.5175
  941MOL0     C26906   6.933  10.772   4.084 -1.3047  0.1472  0.0461
  941MOL0     C26907   7.023  10.664   4.115  0.1664 -0.2959 -0.2615
  941MOL0     O26908   7.144  10.696   4.177  0.2926  0.8975  0.7971
  941MOL0     C26909   7.225  10.601   4.244  0.0012  0.5202 -0.6961
  941MOL0     C26910   7.356  10.610   4.182 -0.0952 -0.3098  0.0884
  941MOL0     C26911   7.414  10.752   4.192  0.2085  0.2325 -0.5000
  941MOL0     C26912   7.557  10.755   4.188  0.1942 -0.0213 -0.8496
  941MOL0     C26913   7.610  10.682   4.064  0.3281  0.0339  1.1539
  941MOL0     C26914   7.766  10.700   4.036 -0.5552 -0.4206  0.0920
  941MOL0     C26915   7.795  10.763   3.901  0.4313  0.7259  0.7894
  941MOL0     C26916   7.938  10.792   3.852 -0.2992 -1.1815  0.2867
  941MOL0     N26917   8.003  10.917   3.898  0.3507 -0.3832 -0.7536
  941MOL0     C26918   7.971  11.039   3.852  0.3258 -0.3038  1.5750
  941MOL0     C26919   8.057  11.114   3.913 -0.2778 -0.1496  0.3599
  941MOL0     C26920   8.063  11.267   3.933 -0.1296 -0.1484  0.6492
  941MOL0     C26921   7.998  11.349   3.825  0.4317 -0.2376 -0.5198
  941MOL0     C26922   8.090  11.382   3.701  0.7442 -0.8286  0.1343
  941MOL0     C26923   8.138  11.248   3.635  0.1974  0.0265  0.5052
  941MOL0     O26924   8.247  11.175   3.703 -0.5655  0.4797  0.4107
  941MOL0     C26925   8.315  11.080   3.623 -0.0143  0.0095 -0.7170
  941MOL0     C26926   8.361  11.112   3.500 -0.3711  0.6473  0.6284
  941MOL0     C26927   8.413  11.013   3.422  0.8777  0.0256  0.1093
  941MOL0     C26928   8.431  10.887   3.472 -0.0278  0.1882 -0.1393
  941MOL0     C26929   8.496  10.783   3.387 -0.8877 -0.2938  0.6085
  941MOL0     O26930   8.473  10.649   3.406  0.6563  0.4228  0.0471
  941MOL0     C26931   8.524  10.553   3.315  0.2833 -0.4417  0.1060
  941MOL0     C26932   8.475  10.524   3.185 -1.2779 -0.1955 -0.0857
  941MOL0     C26933   8.524  10.416   3.111  0.1390  0.4900 -0.3889
  941MOL0     C26934   8.627  10.338   3.159  0.7192  0.3124 -0.5673
  941MOL0     O26935   8.673  10.236   3.084  0.0794  0.7873 -0.1775
  941MOL0     C26936   8.774  10.145   3.133  0.2767  0.4420  0.6655
  941MOL0     C26937   8.800  10.019   3.038  0.3817 -0.2499 -0.5194
  941MOL0     C26938   8.938   9.958   3.068  0.1225 -0.3948  0.2316
  941MOL0     C26939   8.961   9.821   3.004  0.9469  0.6736 -1.0759
  941MOL0     C26940   9.081   9.750   3.054 -0.5627  0.2816 -1.2305
  941MOL0     C26941   9.101   9.618   2.972 -0.0975  0.3845 -1.2395
  941MOL0     C26942   9.196   9.641   2.856  1.0287  0.6965  0.7247
  941MOL0     C26943   9.178   9.538   2.757  1.1707  0.5191  0.8621
  941MOL0    Cl26944   9.186   9.376   2.816 -0.2366  0.1704  0.6393
  941MOL0     C26945   8.668  10.360   3.289  0.4143  0.1963 -0.7685
  941MOL0     C26946   8.618  10.468   3.365  0.4558 -0.1857 -0.3633
  941MOL0     O26947   8.556  10.832   3.290  0.0807  0.5032  0.4424
  941MOL0     C26948   8.388  10.858   3.602 -0.7767  0.6174 -0.9674
  941MOL0     C26949   8.321  10.948   3.676 -0.4373 -0.6873  0.3447
  941MOL0     N26950   8.145  11.033   3.978 -1.2458  0.1612  1.2317
  941MOL0     N26951   8.115  10.910   3.975  1.0505 -0.0431 -0.0690
  941MOL0     C26952   6.991  10.535   4.069  0.7123 -0.1239 -0.6114
  941MOL0     C26953   6.870  10.508   4.008 -0.3209 -0.7423 -0.7758
  941MOL0     C26954   6.521  10.457   3.784 -0.1429 -0.2280 -0.5111
  941MOL0     C26955   6.409  10.529   3.827  0.6561 -0.7220 -1.2240
  941MOL0     C26956   6.281  10.472   3.821  0.7467 -0.6838 -0.3701
  941MOL0     C26957   6.267  10.357   3.748  0.5080 -0.6540 -0.5228
  941MOL0     O26958   6.139  10.321   3.714  0.2566 -0.4092 -0.1667
  941MOL0     C26959   6.116  10.181   3.680 -0.3676 -0.1760  0.0405
  941MOL0     C26960   6.110  10.170   3.536  0.2847 -0.0863 -0.1164
  941MOL0     C26961   5.980  10.237   3.474 -0.0268  0.3486 -0.6493
  941MOL0     C26962   5.990  10.296   3.329  0.8056 -0.1119  0.0834
  941MOL0     C26963   6.058  10.211   3.237 -0.3625  0.3059  0.5232
  941MOL0     C26964   6.117  10.148   3.146  0.3236 -0.9018 -0.7356
  941MOL0     C26965   6.380  10.283   3.697  0.1071 -0.1257  0.5090
  941MOL0     C26966   6.502  10.333   3.715  0.1690 -0.2071 -0.2802
  941MOL0     C26967   6.624  10.248   3.674 -0.1554  1.4141 -0.3427
  941MOL0     H26968   6.749  10.824   3.983 -3.3849 -0.9910  2.0614
  941MOL0     H26969   6.963  10.868   4.124 -2.4845  1.4193 -1.9565
  941MOL0     H26970   7.221  10.634   4.349  0.0855 -1.0048 -0.1843
  941MOL0     H26971   7.196  10.495   4.251  2.2298 -0.1040 -0.1285
  941MOL0     H26972   7.340  10.583   4.078 -0.1726 -1.6174  0.4177
  941MOL0     H26973   7.414  10.527   4.223 -2.1030 -0.6316  2.5610
  941MOL0     H26974   7.377  10.790   4.288 -2.8324 -0.5442 -1.2860
  941MOL0     H26975   7.361  10.819   4.125 -0.2303  3.4331  2.7281
  941MOL0     H26976   7.599  10.856   4.197  0.4206 -0.0131 -1.9012
  941MOL0     H26977   7.583  10.709   4.284  1.1680 -0.9139 -1.5238
  941MOL0     H26978   7.595  10.575   4.083  1.0475  0.1735  2.6937
  941MOL0     H26979   7.560  10.715   3.973  2.0581  2.3054  0.9394
  941MOL0     H26980   7.822  10.760   4.109  2.4368 -0.3358 -2.0593
  941MOL0     H26981   7.800  10.597   4.054  0.5400  0.3708  3.2509
  941MOL0     H26982   7.737  10.854   3.887  2.7966  1.8972 -2.2322
  941MOL0     H26983   7.753  10.695   3.826 -1.1306  1.9818  0.4726
  941MOL0     H26984   8.002  10.716   3.901 -0.9734 -1.1869  1.1929
  941MOL0     H26985   7.944  10.784   3.744 -0.1869 -2.0154  0.3448
  941MOL0     H26986   7.901  11.080   3.779 -0.8096 -0.3708  2.5889
  941MOL0     H26987   8.007  11.289   4.024 -1.4743 -1.2685  0.1301
  941MOL0     H26988   8.162  11.311   3.941 -0.5529  0.4680  5.9210
  941MOL0     H26989   7.904  11.304   3.792 -0.1608 -2.0155  3.0632
  941MOL0     H26990   7.968  11.446   3.866  0.8912 -0.9602  1.6681
  941MOL0     H26991   8.180  11.442   3.717  0.2621  0.3192 -1.1512
  941MOL0     H26992   8.038  11.442   3.626  1.6730  0.4222  0.4571
  941MOL0     H26993   8.162  11.277   3.532  0.8996  1.5529  1.0524
  941MOL0     H26994   8.055  11.178   3.633  0.2230 -0.0909  2.0487
  941MOL0     H26995   8.367  11.212   3.458  1.8473 -0.3430 -1.7273
  941MOL0     H26996   8.454  11.036   3.325 -0.0116 -0.5513 -0.4220
  941MOL0     H26997   8.419  10.602   3.135  3.2229  3.0864 -0.6514
  941MOL0     H26998   8.471  10.408   3.017  1.6700 -2.2925 -1.1090
  941MOL0     H26999   8.866  10.204   3.143  0.4500  0.3531 -0.2769
  941MOL0     H27000   8.741  10.108   3.230 -1.7307  0.5416  0.0545
  941MOL0     H27001   8.716   9.957   3.070 -0.5096  0.9176 -0.5636
  941MOL0     H27002   8.771  10.050   2.937 -0.5110  1.9812  0.3712
  941MOL0     H27003   9.007  10.038   3.037 -1.4177  0.5350 -0.9544
  941MOL0     H27004   8.945   9.951   3.177  3.7044  1.2022  0.2553
  941MOL0     H27005   8.972   9.839   2.897 -3.7627 -0.7880 -2.0169
  941MOL0     H27006   8.869   9.764   3.017  0.8451  1.1766  0.7641
  941MOL0     H27007   9.085   9.747   3.164 -1.9683  2.7098 -1.0309
  941MOL0     H27008   9.167   9.813   3.028  0.3680 -0.9341 -1.1549
  941MOL0     H27009   9.155   9.542   3.031 -0.7697 -0.1370 -1.2899
  941MOL0     H27010   9.010   9.567   2.940 -0.7699  0.2294  0.7537
  941MOL0     H27011   9.302   9.636   2.884  1.0948  0.6738  0.4677
  941MOL0     H27012   9.178   9.744   2.823 -2.2444 -0.5103 -1.7236
  941MOL0     H27013   9.074   9.552   2.727  1.5116  3.9172  0.8008
  941MOL0     H27014   9.247   9.549   2.673 -0.6680 -0.5493 -0.8589
  941MOL0     H27015   8.743  10.298   3.336  2.3630  1.4332 -2.0680
  941MOL0     H27016   8.640  10.478   3.471 -2.2510  2.3778  0.0656
  941MOL0     H27017   8.400  10.760   3.648 -1.2674  1.0017  0.0046
  941MOL0     H27018   8.277  10.922   3.771  1.0217 -0.9627  0.9746
  941MOL0     H27019   7.054  10.450   4.092  0.0449 -0.2257  0.9753
  941MOL0     H27020   6.844  10.409   3.971 -1.2854 -1.3506  1.3933
  941MOL0     H27021   6.428  10.632   3.853 -0.8034 -0.8789  0.6867
  941MOL0     H27022   6.193  10.532   3.841  1.6682  0.2832  0.9479
  941MOL0     H27023   6.020  10.157   3.726 -1.0156  3.4349  0.9375
  941MOL0     H27024   6.197  10.114   3.711 -0.6678 -0.8788 -0.6656
  941MOL0     H27025   6.120  10.066   3.505 -1.0472 -0.5596  0.9572
  941MOL0     H27026   6.198  10.227   3.504  0.6198  0.9279  2.3857
  941MOL0     H27027   5.939  10.321   3.531 -1.2235 -0.2632 -0.5854
  941MOL0     H27028   5.904  10.159   3.474  1.8430 -1.5508 -1.0291
  941MOL0     H27029   5.889  10.300   3.287  0.9574 -1.8486 -0.5152
  941MOL0     H27030   6.035  10.395   3.333  0.5373 -0.0291  1.5979
  941MOL0     H27031   6.176  10.121   3.061  4.0428  2.0555  0.6271
  941MOL0     H27032   6.370  10.199   3.628  2.8643 -0.2895  0.1717
  941MOL0     H27033   6.594  10.158   3.620 -1.6063  0.7194  1.4667
  941MOL0     H27034   6.683  10.306   3.604  2.7126  2.4234  2.6464
  941MOL0     H27035   6.687  10.217   3.758 -1.8474 -1.7841 -0.1107
  942MOL0     O27036  11.476   6.663   9.806 -0.1859  0.2417  0.1589
  942MOL0     C27037  11.438   6.717   9.909  0.4034 -0.6029 -0.1095
  942MOL0     O27038  11.354   6.829   9.921 -0.2720 -0.9502  0.5105
  942MOL0     C27039  11.260   6.864   9.826 -0.4452 -0.4947 -0.2859
  942MOL0     C27040  11.254   6.820   9.691  0.1961  0.3726  0.2450
  942MOL0     C27041  11.152   6.856   9.605  0.1659  0.4669  0.0607
  942MOL0     C27042  11.056   6.946   9.661 -0.1027  0.1641  0.3806
  942MOL0     O27043  10.960   6.978   9.569  0.0005  0.3534  0.0495
  942MOL0     C27044  10.839   7.032   9.620  0.0077 -0.6466  0.0537
  942MOL0     C27045  10.724   7.020   9.514  0.5213 -0.2588 -0.2401
  942MOL0     C27046  10.601   7.107   9.553 -0.1800  1.3104  0.1437
  942MOL0     C27047  10.510   7.033   9.644  0.2225  1.0271  0.0007
  942MOL0     C27048  10.427   7.121   9.741 -0.3842 -0.0377  0.2999
  942MOL0     C27049  10.302   7.063   9.789  0.0175  0.0902  0.6650
  942MOL0     C27050  10.219   7.140   9.890 -0.1011 -1.6792  0.1947
  942MOL0     C27051  10.070   7.115   9.864 -0.1215 -0.5730 -0.9698
  942MOL0     N27052   9.981   7.193   9.949  0.0989  0.0082  0.2970
  942MOL0     C27053   9.913   7.306   9.909  0.9674  0.6900  0.1928
  942MOL0     C27054   9.857   7.349  10.023  0.1247 -0.6957  0.1799
  942MOL0     C27055   9.787   7.477  10.037 -0.7024 -0.2434 -0.2731
  942MOL0     C27056   9.643   7.446  10.023 -0.2076 -0.7642 -0.4342
  942MOL0     C27057   9.575   7.389  10.148  0.4670 -0.9641 -0.3571
  942MOL0     C27058   9.437   7.338  10.122 -0.5072  0.1774  0.0017
  942MOL0     O27059   9.365   7.458  10.080  0.0377  0.5725 -0.0788
  942MOL0     C27060   9.265   7.426   9.991  0.0444  0.8428 -0.5323
  942MOL0     C27061   9.144   7.365  10.038  0.2793  0.5475  0.1304
  942MOL0     C27062   9.033   7.348   9.959 -0.3248  0.3137 -0.7233
  942MOL0     C27063   9.048   7.375   9.822 -0.7178  1.0131 -0.0381
  942MOL0     C27064   8.936   7.345   9.730  0.2952  0.1750 -0.8723
  942MOL0     O27065   8.966   7.383   9.603  0.5213  0.9340 -0.5264
  942MOL0     C27066   8.870   7.381   9.510  0.6308  0.0308 -0.8564
  942MOL0     C27067   8.789   7.496   9.489 -0.0522 -0.3289 -0.6263
  942MOL0     C27068   8.713   7.502   9.376  1.0197  0.4693 -0.0383
  942MOL0     C27069   8.697   7.394   9.295  0.2123  0.3760 -0.3829
  942MOL0     O27070   8.632   7.415   9.175  0.4777 -0.0300 -0.1803
  942MOL0     C27071   8.590   7.294   9.111  0.5818  0.6273 -0.4013
  942MOL0     C27072   8.530   7.326   8.980  0.1533  0.4716 -0.2286
  942MOL0     C27073   8.391   7.386   8.996 -0.1021 -0.3536 -0.5078
  942MOL0     C27074   8.382   7.530   9.038  0.7772 -0.4443  1.0382
  942MOL0     C27075   8.334   7.540   9.191  0.1214 -0.1980  0.5947
  942MOL0     C27076   8.283   7.681   9.215  0.1184 -0.1940 -0.9172
  942MOL0     C27077   8.194   7.697   9.337 -0.1759  0.4506 -0.0232
  942MOL0     C27078   8.162   7.839   9.372  0.0116 -0.3028  0.5265
  942MOL0    Cl27079   8.312   7.942   9.389 -0.1821  0.0450  0.5402
  942MOL0     C27080   8.770   7.271   9.321  0.2319 -0.5896 -0.0412
  942MOL0     C27081   8.863   7.270   9.427 -0.3398 -0.8790 -0.0250
  942MOL0     O27082   8.845   7.273   9.761  0.3546 -0.0238  0.3751
  942MOL0     C27083   9.178   7.424   9.775  0.0696 -0.4550  0.3071
  942MOL0     C27084   9.279   7.446   9.862  0.1822 -0.1669  0.6485
  942MOL0     N27085   9.888   7.265  10.129  0.0921 -0.0463 -0.6391
  942MOL0     N27086   9.966   7.175  10.083  0.2223 -0.1834  0.1500
  942MOL0     C27087  11.065   7.008   9.784 -0.8745  0.8593 -0.7958
  942MOL0     C27088  11.160   6.955   9.868 -0.1788  0.5054  0.3632
  942MOL0     C27089  11.494   6.668  10.035 -0.1062  0.0038  0.7121
  942MOL0     C27090  11.529   6.765  10.128  0.2030 -1.0165  0.2388
  942MOL0     C27091  11.581   6.724  10.246 -0.1210  0.2046 -1.0426
  942MOL0     C27092  11.602   6.583  10.282 -0.2413 -0.2951  0.2320
  942MOL0     O27093  11.629   6.541  10.412  0.7931  0.3332 -0.1683
  942MOL0     C27094  11.746   6.456  10.409 -0.2181  0.9596  0.2621
  942MOL0     C27095  11.835   6.469  10.532 -1.0957  0.2944 -0.7919
  942MOL0     C27096  11.930   6.596  10.532  0.1463 -0.0459  0.1064
  942MOL0     C27097  12.034   6.617  10.648  0.0509  0.5942  0.1722
  942MOL0     C27098  11.969   6.627  10.778 -1.0799 -0.1505 -0.1880
  942MOL0     C27099  11.919   6.637  10.888  0.3355 -0.7278 -0.5816
  942MOL0     C27100  11.582   6.496  10.181  0.6389  0.1959  0.3389
  942MOL0     C27101  11.525   6.534  10.060  0.0187 -0.1112 -0.1608
  942MOL0     C27102  11.487   6.422   9.968 -0.4138  0.0960 -0.1520
  942MOL0     H27103  11.327   6.746   9.660 -0.2131 -0.7299  1.8028
  942MOL0     H27104  11.144   6.810   9.507 -1.0005  0.2382  0.2435
  942MOL0     H27105  10.809   6.971   9.705  1.7779 -0.6602  0.7027
  942MOL0     H27106  10.858   7.138   9.641  1.7802 -1.3912  2.6166
  942MOL0     H27107  10.710   6.911   9.504  2.4911 -0.3484 -3.3339
  942MOL0     H27108  10.755   7.053   9.414  1.4833  1.3335  0.5568
  942MOL0     H27109  10.548   7.137   9.462 -0.1363  1.6455  0.2281
  942MOL0     H27110  10.634   7.194   9.611  3.7126 -0.9062  1.6726
  942MOL0     H27111  10.447   6.972   9.579 -0.8387  1.4689  0.5817
  942MOL0     H27112  10.565   6.950   9.689 -0.5200 -1.9777 -4.0623
  942MOL0     H27113  10.497   7.141   9.822  1.5501 -1.3018 -0.9749
  942MOL0     H27114  10.406   7.216   9.691  1.8286  0.3402 -0.0023
  942MOL0     H27115  10.234   7.062   9.703 -1.9859 -0.7732  2.1957
  942MOL0     H27116  10.323   6.962   9.826 -0.2194  0.6178  2.3336
  942MOL0     H27117  10.226   7.247   9.872 -0.0149 -1.7208 -0.0177
  942MOL0     H27118  10.241   7.116   9.995  0.3016 -1.5262  0.1474
  942MOL0     H27119  10.030   7.146   9.767 -0.2601 -0.5197 -0.8951
  942MOL0     H27120  10.041   7.009   9.866 -3.3268  0.1999  2.2673
  942MOL0     H27121   9.903   7.355   9.812  0.7231  1.6823  0.7133
  942MOL0     H27122   9.797   7.530  10.132 -2.0120 -0.0900 -0.2127
  942MOL0     H27123   9.808   7.550   9.957 -3.0030  1.0029  0.1909
  942MOL0     H27124   9.592   7.540  10.000 -1.0759 -1.4203 -1.2928
  942MOL0     H27125   9.630   7.379   9.938  4.2637 -1.1100 -1.0473
  942MOL0     H27126   9.566   7.472  10.220  0.6244  0.7157 -2.1915
  942MOL0     H27127   9.638   7.308  10.184  1.7560 -0.9961 -2.5428
  942MOL0     H27128   9.394   7.286  10.208  2.3281 -1.6386  0.4554
  942MOL0     H27129   9.447   7.260  10.046  1.1717 -3.0139  3.1749
  942MOL0     H27130   9.130   7.339  10.143 -1.2294  1.3590  0.1637
  942MOL0     H27131   8.950   7.301  10.011  0.1727 -0.7948 -0.8885
  942MOL0     H27132   8.795   7.586   9.548  2.5330 -1.9687  1.8772
  942MOL0     H27133   8.651   7.586   9.347 -0.7705 -0.4170  0.9587
  942MOL0     H27134   8.669   7.223   9.086 -2.1301 -3.0059  0.4960
  942MOL0     H27135   8.515   7.244   9.174  0.8250  2.4915  1.4747
  942MOL0     H27136   8.596   7.389   8.921 -0.4289 -0.3124 -1.7785
  942MOL0     H27137   8.526   7.229   8.929  1.6310  0.7654 -0.9455
  942MOL0     H27138   8.347   7.382   8.896  2.2900  0.1921 -1.6573
  942MOL0     H27139   8.332   7.315   9.055  1.2284 -0.0921  1.2007
  942MOL0     H27140   8.303   7.573   8.976 -0.3025 -4.4408 -0.6982
  942MOL0     H27141   8.477   7.580   9.019  0.9988 -0.9935  0.6870
  942MOL0     H27142   8.411   7.510   9.263 -0.4612  2.1469  2.3407
  942MOL0     H27143   8.238   7.487   9.201 -1.1229  1.7758 -0.2572
  942MOL0     H27144   8.370   7.741   9.245  1.1282 -1.3677 -1.3858
  942MOL0     H27145   8.235   7.719   9.124  2.4441 -1.0211 -2.5865
  942MOL0     H27146   8.245   7.636   9.412 -1.2932 -3.9409 -2.5003
  942MOL0     H27147   8.094   7.653   9.329 -0.4541  0.7044  1.6995
  942MOL0     H27148   8.098   7.878   9.293  0.9605  0.5292  0.1540
  942MOL0     H27149   8.106   7.836   9.466 -1.4213  0.1138 -0.2933
  942MOL0     H27150   8.763   7.185   9.256  0.0989 -0.1317 -0.6456
  942MOL0     H27151   8.931   7.189   9.452  0.6282 -0.2195 -0.4676
  942MOL0     H27152   9.188   7.437   9.668  1.4842  0.0604  0.4780
  942MOL0     H27153   9.365   7.496   9.818 -1.3400  1.0514 -1.0902
  942MOL0     H27154  11.005   7.094   9.810  0.9704  2.5851 -1.9637
  942MOL0     H27155  11.157   7.001   9.966 -2.1702  0.9503  0.1430
  942MOL0     H27156  11.499   6.867  10.108 -5.4950 -2.5724 -0.9372
  942MOL0     H27157  11.581   6.793  10.330 -0.8459 -0.5439 -0.4207
  942MOL0     H27158  11.815   6.471  10.325  2.6486 -3.5185  1.4740
  942MOL0     H27159  11.718   6.350  10.403  1.9039  0.2835  1.2731
  942MOL0     H27160  11.895   6.380  10.555 -2.3553 -0.0933  1.3219
  942MOL0     H27161  11.774   6.481  10.622 -0.3405 -0.2600 -0.1971
  942MOL0     H27162  11.874   6.688  10.510 -0.5831 -0.7066 -0.8598
  942MOL0     H27163  11.992   6.568  10.447  2.1756 -1.1707  1.8638
  942MOL0     H27164  12.098   6.529  10.640  0.1102  0.6404  0.1412
  942MOL0     H27165  12.102   6.699  10.623 -0.6250  1.7620  1.9467
  942MOL0     H27166  11.848   6.620  10.967 -0.1560  0.3633 -0.7679
  942MOL0     H27167  11.610   6.394  10.203 -1.5235 -0.0869  2.2733
  942MOL0     H27168  11.404   6.448   9.902 -2.0426 -0.6484  1.5076
  942MOL0     H27169  11.566   6.391   9.899 -0.7851 -2.8971  0.6325
  942MOL0     H27170  11.453   6.331  10.018  0.8554 -0.9608 -1.1616
  943MOL0     O27171  10.478   2.197   9.032 -0.0359  0.9618  0.3432
  943MOL0     C27172  10.532   2.128   9.123  0.2718  1.0983 -0.8190
  943MOL0     O27173  10.663   2.142   9.162 -0.2589 -0.0333 -0.3002
  943MOL0     C27174  10.729   2.258   9.126 -0.3320  0.4336 -0.5358
  943MOL0     C27175  10.718   2.373   9.208 -0.5219 -0.2098  0.0679
  943MOL0     C27176  10.789   2.489   9.184  0.5304 -0.1596 -0.0006
  943MOL0     C27177  10.859   2.498   9.064 -0.0621 -0.5019  0.0843
  943MOL0     O27178  10.925   2.614   9.024 -1.2246 -0.3023 -0.7259
  943MOL0     C27179  10.961   2.720   9.118  0.2545 -0.2429  0.0707
  943MOL0     C27180  11.078   2.668   9.198 -0.5067  0.1380 -0.1414
  943MOL0     C27181  11.127   2.773   9.301 -0.0146  0.0070  0.3076
  943MOL0     C27182  11.051   2.774   9.428 -0.2765  0.1807 -0.3912
  943MOL0     C27183  11.092   2.659   9.530 -0.5419 -0.6036  0.1923
  943MOL0     C27184  11.013   2.690   9.660 -1.6060  0.4009  0.5215
  943MOL0     C27185  11.058   2.596   9.775 -0.9310  0.4634 -0.5067
  943MOL0     C27186  10.960   2.622   9.896 -0.1205 -0.4437 -0.4144
  943MOL0     N27187  10.962   2.765   9.928 -0.0343  0.0164 -0.0662
  943MOL0     C27188  11.078   2.820   9.969  0.4238 -0.5048  1.0156
  943MOL0     C27189  11.054   2.953   9.978 -0.7684 -0.6787  0.3129
  943MOL0     C27190  11.150   3.067  10.012 -0.3660  0.0346 -0.0022
  943MOL0     C27191  11.243   3.118   9.905 -0.3969 -1.2184  0.9311
  943MOL0     C27192  11.179   3.120   9.762  0.4214  0.1636 -0.1595
  943MOL0     C27193  11.253   3.225   9.676  0.1458  0.9484 -0.3301
  943MOL0     O27194  11.390   3.182   9.652  1.0350 -0.6718  0.0825
  943MOL0     C27195  11.493   3.264   9.711 -0.2586 -0.1856 -1.2462
  943MOL0     C27196  11.587   3.214   9.800  0.6644 -0.0361  0.9698
  943MOL0     C27197  11.666   3.301   9.866  0.1780 -0.2305 -0.4286
  943MOL0     C27198  11.661   3.438   9.860  0.1115  0.3828 -0.6009
  943MOL0     C27199  11.753   3.529   9.932  0.4968  0.2012 -0.5507
  943MOL0     O27200  11.743   3.661   9.907 -0.4807  0.6228 -0.7827
  943MOL0     C27201  11.830   3.746   9.966 -1.0219 -0.1065  0.0063
  943MOL0     C27202  11.972   3.753   9.943  0.8766 -0.8140 -0.6102
  943MOL0     C27203  12.045   3.843  10.021 -0.4204  0.0928  0.6498
  943MOL0     C27204  11.986   3.934  10.111 -0.7572  0.4415 -0.6987
  943MOL0     O27205  12.059   4.012  10.198  0.2726 -0.4509  0.7921
  943MOL0     C27206  12.198   3.992  10.211  0.1180 -0.2651 -0.2639
  943MOL0     C27207  12.242   3.879  10.302  0.0482  0.0514  0.2630
  943MOL0     C27208  12.395   3.876  10.291 -0.9568 -0.1576 -1.7541
  943MOL0     C27209  12.456   3.778  10.387 -0.5978  0.5460 -0.9282
  943MOL0     C27210  12.606   3.778  10.383 -0.2775  0.0677 -1.2110
  943MOL0     C27211  12.660   3.651  10.462  0.8012  0.1033 -0.2729
  943MOL0     C27212  12.814   3.646  10.483  0.5821 -0.9823  0.0849
  943MOL0     C27213  12.861   3.523  10.563  0.6066 -0.4402 -0.1676
  943MOL0    Cl27214  12.840   3.383  10.469  0.0956 -0.2511  0.5902
  943MOL0     C27215  11.846   3.935  10.122  0.1806  0.3526 -0.0639
  943MOL0     C27216  11.767   3.842  10.050 -1.1740  0.3161 -0.1303
  943MOL0     O27217  11.838   3.479  10.006  0.2497 -0.4666  0.0621
  943MOL0     C27218  11.562   3.491   9.773 -0.1738 -0.2155 -0.4990
  943MOL0     C27219  11.479   3.408   9.702 -0.6226 -0.3039  0.5373
  943MOL0     N27220  10.929   2.982   9.936 -0.3190 -0.5569  0.3915
  943MOL0     N27221  10.881   2.874   9.898  1.3897  1.1047 -0.1288
  943MOL0     C27222  10.867   2.391   8.983 -0.4354 -0.3774  1.2439
  943MOL0     C27223  10.803   2.260   9.003  0.4131 -0.3591 -0.8605
  943MOL0     C27224  10.446   2.028   9.199  0.1572  0.1225 -0.7783
  943MOL0     C27225  10.500   1.968   9.314  0.6072 -0.3130  0.0575
  943MOL0     C27226  10.439   1.848   9.369  0.8384  0.0815  0.1885
  943MOL0     C27227  10.315   1.806   9.322 -0.3256  0.4534 -0.5750
  943MOL0     O27228  10.263   1.702   9.400 -0.0115  0.1971 -0.2992
  943MOL0     C27229  10.137   1.652   9.341 -1.0990  0.0951 -0.5681
  943MOL0     C27230  10.160   1.562   9.215  0.6828  0.0612 -0.5701
  943MOL0     C27231  10.230   1.427   9.254 -0.5309  0.5741  0.0144
  943MOL0     C27232  10.228   1.327   9.132  0.6150  0.0234  0.2136
  943MOL0     C27233  10.258   1.193   9.181  0.8296 -0.1042 -0.0245
  943MOL0     C27234  10.269   1.087   9.226  0.5366  0.6416  1.1301
  943MOL0     C27235  10.256   1.893   9.224  0.1522 -0.0784  0.2810
  943MOL0     C27236  10.315   2.001   9.160  1.0339 -0.3253 -0.2807
  943MOL0     C27237  10.226   2.084   9.073 -0.3187  0.2239  0.1351
  943MOL0     H27238  10.646   2.368   9.290  1.8799  0.5746  2.3496
  943MOL0     H27239  10.784   2.573   9.253 -0.5749 -1.9648  2.2827
  943MOL0     H27240  10.974   2.814   9.063 -3.2328  0.4142  0.1019
  943MOL0     H27241  10.865   2.742   9.168 -1.3423 -0.0007 -2.8669
  943MOL0     H27242  11.166   2.646   9.135  1.5030 -1.5580  2.9767
  943MOL0     H27243  11.058   2.582   9.262  0.4591  0.0185  0.0108
  943MOL0     H27244  11.119   2.873   9.256  1.8194 -0.5576 -1.3958
  943MOL0     H27245  11.233   2.761   9.324  0.2896  0.3428 -0.8549
  943MOL0     H27246  11.082   2.859   9.491 -1.5341 -0.9624  1.8905
  943MOL0     H27247  10.944   2.779   9.409 -0.1650 -0.0174 -1.1153
  943MOL0     H27248  11.065   2.557   9.499  1.0413 -1.2697  0.8946
  943MOL0     H27249  11.201   2.665   9.544 -0.4058  3.1240 -1.2490
  943MOL0     H27250  11.048   2.792   9.679  1.5320 -0.1950 -1.3664
  943MOL0     H27251  10.906   2.702   9.639 -1.7594 -1.0604  0.3933
  943MOL0     H27252  11.162   2.611   9.804 -0.2165 -2.2008 -1.4143
  943MOL0     H27253  11.041   2.493   9.742  2.7583  0.5114 -3.1844
  943MOL0     H27254  10.860   2.582   9.877  0.0898  0.0146 -2.8665
  943MOL0     H27255  10.999   2.580   9.989  0.5782  1.5202  0.2130
  943MOL0     H27256  11.172   2.767   9.976  0.7154  0.2147  3.5571
  943MOL0     H27257  11.092   3.153  10.046 -0.0219  0.8101 -1.3158
  943MOL0     H27258  11.210   3.041  10.099 -0.6714  3.4055  1.3406
  943MOL0     H27259  11.278   3.212   9.948 -0.0710 -1.0815  0.3852
  943MOL0     H27260  11.325   3.046   9.891 -0.9216 -2.0064  1.7932
  943MOL0     H27261  11.074   3.151   9.768 -0.6898 -3.1630 -0.7076
  943MOL0     H27262  11.190   3.019   9.724  0.8489  0.8723 -2.0213
  943MOL0     H27263  11.234   3.323   9.722 -3.0946  0.4113 -0.3476
  943MOL0     H27264  11.204   3.229   9.578  1.5229 -1.1772 -1.1919
  943MOL0     H27265  11.579   3.107   9.820 -0.0129 -0.1185  0.3244
  943MOL0     H27266  11.726   3.269   9.950 -0.5015  1.1170  0.6148
  943MOL0     H27267  12.000   3.678   9.869 -1.1422 -3.0913  0.7654
  943MOL0     H27268  12.152   3.822  10.014 -0.5875 -1.0509  1.3008
  943MOL0     H27269  12.228   3.981  10.107 -5.4013 -0.5751 -2.1427
  943MOL0     H27270  12.234   4.086  10.255  0.2233  0.0080 -0.9238
  943MOL0     H27271  12.222   3.904  10.406  6.4320  1.3730  1.5817
  943MOL0     H27272  12.192   3.786  10.271 -1.5639  0.5902  1.1524
  943MOL0     H27273  12.437   3.849  10.194  2.4164 -0.1926 -0.4423
  943MOL0     H27274  12.442   3.974  10.302  0.1746 -0.6479 -2.0531
  943MOL0     H27275  12.428   3.682  10.343 -1.1030  0.9111 -1.4172
  943MOL0     H27276  12.417   3.772  10.489 -0.3820 -0.8305 -0.9049
  943MOL0     H27277  12.653   3.867  10.426  2.9862 -1.7417 -0.6159
  943MOL0     H27278  12.640   3.769  10.280  2.2177  1.0542 -0.5614
  943MOL0     H27279  12.611   3.660  10.560 -0.0322  0.4457 -0.7124
  943MOL0     H27280  12.619   3.558  10.420 -0.9299  1.4857 -1.7772
  943MOL0     H27281  12.843   3.721  10.556 -2.2604 -0.3573  0.6918
  943MOL0     H27282  12.867   3.652  10.387  2.6069 -1.3356  1.1446
  943MOL0     H27283  12.966   3.536  10.589  0.3187 -1.1242  1.4265
  943MOL0     H27284  12.814   3.522  10.661  0.6476 -0.3011 -0.1461
  943MOL0     H27285  11.814   4.023  10.178 -2.7051 -0.1618 -0.7574
  943MOL0     H27286  11.659   3.850  10.054 -1.2965 -1.4227  1.1051
  943MOL0     H27287  11.541   3.598   9.770  1.8787  0.3423  1.7160
  943MOL0     H27288  11.403   3.455   9.640 -0.8849 -2.0164 -0.5029
  943MOL0     H27289  10.918   2.414   8.890 -2.0782  3.9289  1.1662
  943MOL0     H27290  10.820   2.177   8.935 -2.4116 -0.9990 -0.9334
  943MOL0     H27291  10.600   1.980   9.356  0.3004 -1.0653  1.0481
  943MOL0     H27292  10.494   1.791   9.443  2.9762  2.7471  0.8525
  943MOL0     H27293  10.063   1.730   9.324  0.4890  2.0191  0.7995
  943MOL0     H27294  10.096   1.581   9.414  1.4667 -2.7806 -1.7212
  943MOL0     H27295  10.207   1.616   9.132  4.0701 -0.3696  0.8799
  943MOL0     H27296  10.060   1.537   9.180 -0.2654  3.0506 -0.2530
  943MOL0     H27297  10.172   1.373   9.329 -0.3638  0.0186 -0.2495
  943MOL0     H27298  10.332   1.449   9.287  0.6233 -2.5754 -1.0913
  943MOL0     H27299  10.128   1.328   9.087  1.5309  0.2236 -1.9496
  943MOL0     H27300  10.288   1.367   9.050 -2.0048 -2.2687 -3.0947
  943MOL0     H27301  10.281   0.981   9.240  2.3142 -0.0089 -3.7163
  943MOL0     H27302  10.150   1.897   9.202 -0.1000  0.1792  1.4600
  943MOL0     H27303  10.256   2.058   8.971 -1.2479  0.4383 -0.2058
  943MOL0     H27304  10.120   2.063   9.091  0.0162 -0.6904  1.1840
  943MOL0     H27305  10.246   2.191   9.074 -0.6764  0.2979 -0.1414
  944MOL0     O27306   1.920   8.629   1.553  0.4423 -0.1071 -0.2270
  944MOL0     C27307   1.950   8.546   1.635  0.0395 -0.9978 -0.2948
  944MOL0     O27308   2.015   8.429   1.612 -0.2921 -0.2125 -0.4790
  944MOL0     C27309   2.036   8.379   1.489 -0.8904 -0.2351 -0.2209
  944MOL0     C27310   2.152   8.292   1.478  0.0409 -0.1766 -0.4336
  944MOL0     C27311   2.188   8.242   1.351 -0.8876 -0.7525  0.2825
  944MOL0     C27312   2.103   8.267   1.245 -0.3176  1.3497  0.8698
  944MOL0     O27313   2.142   8.199   1.131 -0.0649  0.4202  0.1502
  944MOL0     C27314   2.044   8.165   1.031  0.3139 -0.2388  0.3048
  944MOL0     C27315   2.122   8.103   0.909  0.4239  0.5177  0.4185
  944MOL0     C27316   2.200   7.977   0.937 -0.7928 -0.1003  0.1161
  944MOL0     C27317   2.246   7.887   0.818  0.1319  0.1331 -0.7896
  944MOL0     C27318   2.326   7.966   0.708  0.1027 -0.2533  0.6667
  944MOL0     C27319   2.452   8.036   0.761 -0.5707 -0.6273  0.3010
  944MOL0     C27320   2.558   8.046   0.650  0.1130  0.2116 -0.2495
  944MOL0     C27321   2.679   8.128   0.687  0.3627  0.2132  0.1168
  944MOL0     N27322   2.663   8.269   0.662  0.4056 -0.4136 -0.5570
  944MOL0     C27323   2.570   8.351   0.601 -1.2519  1.8153 -0.3189
  944MOL0     C27324   2.606   8.468   0.653  0.1472 -0.8363 -0.1920
  944MOL0     C27325   2.514   8.586   0.613 -0.4533  0.2867 -0.2447
  944MOL0     C27326   2.574   8.720   0.650 -0.2210  0.1688  0.9076
  944MOL0     C27327   2.527   8.756   0.785  0.4887 -0.1827 -0.0609
  944MOL0     C27328   2.645   8.841   0.848 -0.0645  0.2065 -0.9965
  944MOL0     O27329   2.620   8.872   0.987 -0.4953  0.1591 -0.5456
  944MOL0     C27330   2.704   8.965   1.042  0.6205 -0.4703 -0.5306
  944MOL0     C27331   2.825   9.006   1.000 -1.4044 -0.6747 -0.5630
  944MOL0     C27332   2.894   9.113   1.065  0.3052  0.1768  0.2338
  944MOL0     C27333   2.837   9.176   1.178 -0.0964 -0.2825 -0.4648
  944MOL0     C27334   2.908   9.276   1.266 -0.5218  1.6549  0.2993
  944MOL0     O27335   2.856   9.305   1.379  0.5108 -0.7145 -0.5599
  944MOL0     C27336   2.927   9.366   1.476 -0.2518 -0.5173  0.2005
  944MOL0     C27337   3.057   9.337   1.495  0.7643  0.3041 -0.6239
  944MOL0     C27338   3.128   9.406   1.588 -0.8481 -0.2686 -0.6404
  944MOL0     C27339   3.086   9.515   1.662 -0.0742  0.2050  0.1972
  944MOL0     O27340   3.175   9.595   1.745 -0.3697 -0.5997 -0.1769
  944MOL0     C27341   3.112   9.685   1.839 -0.5113 -0.4764  0.2743
  944MOL0     C27342   3.226   9.781   1.878 -0.6053 -0.5755  0.0428
  944MOL0     C27343   3.171   9.909   1.950 -0.7705  0.5389  0.3711
  944MOL0     C27344   3.287  10.005   1.982 -0.5699  0.3754 -0.6932
  944MOL0     C27345   3.235  10.120   2.074 -0.6623 -0.2969 -0.5320
  944MOL0     C27346   3.122  10.200   2.023  0.5743 -0.2293 -1.2052
  944MOL0     C27347   3.094  10.333   2.105  0.7747 -0.0543  0.8476
  944MOL0     C27348   3.097  10.329   2.251  0.4395  0.2588 -0.3799
  944MOL0    Cl27349   3.124  10.491   2.326  0.0296 -0.6950  0.5979
  944MOL0     C27350   2.953   9.550   1.630 -0.5431 -0.9253  0.5231
  944MOL0     C27351   2.874   9.470   1.549  0.0820  1.1438  0.0339
  944MOL0     O27352   3.020   9.303   1.225 -0.2186  0.0605  0.2746
  944MOL0     C27353   2.708   9.134   1.214  0.0256  0.5854  0.1242
  944MOL0     C27354   2.643   9.031   1.151  0.8297 -0.0828  0.1644
  944MOL0     N27355   2.711   8.457   0.738  0.3203 -0.7534 -0.4275
  944MOL0     N27356   2.752   8.338   0.738 -0.3689 -0.2381 -0.1937
  944MOL0     C27357   1.990   8.352   1.260 -0.2374  0.4581 -0.7260
  944MOL0     C27358   1.954   8.401   1.383 -0.6349  0.0792 -0.4136
  944MOL0     C27359   1.929   8.585   1.773 -0.8882  0.3881  1.1875
  944MOL0     C27360   1.999   8.701   1.811  0.2778  0.7719  0.0909
  944MOL0     C27361   1.995   8.739   1.948 -0.0271  0.8209 -0.4916
  944MOL0     C27362   1.939   8.651   2.041  0.3661 -0.1673 -0.5668
  944MOL0     O27363   1.960   8.683   2.174  0.2302 -0.5786 -0.0238
  944MOL0     C27364   2.015   8.575   2.257  0.9854  0.2026  0.0578
  944MOL0     C27365   2.066   8.622   2.398  0.7035 -0.8236 -0.3525
  944MOL0     C27366   1.947   8.641   2.493 -0.0002  0.2638 -0.8871
  944MOL0     C27367   1.855   8.760   2.452  0.3827  0.5490 -0.6627
  944MOL0     C27368   1.912   8.893   2.453  0.2368 -0.1842 -0.3864
  944MOL0     C27369   1.942   9.010   2.445 -0.4219 -0.3534  1.2644
  944MOL0     C27370   1.863   8.538   2.003  0.6626  0.6810  0.0182
  944MOL0     C27371   1.864   8.503   1.869 -1.5183  0.0736 -0.3052
  944MOL0     C27372   1.814   8.371   1.831 -0.0990  1.2489 -1.0428
  944MOL0     H27373   2.216   8.289   1.565  1.1308  1.9124 -1.0861
  944MOL0     H27374   2.283   8.192   1.334  0.9939  2.0874  1.7452
  944MOL0     H27375   1.978   8.087   1.072  0.1014 -0.3077 -0.1635
  944MOL0     H27376   1.985   8.252   1.001 -0.1496 -0.2863  1.0513
  944MOL0     H27377   2.190   8.177   0.865 -0.6532 -0.7846 -3.8863
  944MOL0     H27378   2.047   8.087   0.832 -0.5456  0.7211  1.3051
  944MOL0     H27379   2.129   7.926   1.002 -3.7012  0.7857 -2.1373
  944MOL0     H27380   2.292   8.000   0.992 -1.2593 -1.4719  1.5500
  944MOL0     H27381   2.312   7.814   0.865  0.7596  1.3493  0.2779
  944MOL0     H27382   2.161   7.833   0.775  0.2980 -2.3246  1.6892
  944MOL0     H27383   2.350   7.899   0.624 -3.7710  2.3446 -2.9167
  944MOL0     H27384   2.259   8.043   0.669  1.9703 -0.1241 -2.7391
  944MOL0     H27385   2.437   8.136   0.802  1.9744 -0.3692  0.7721
  944MOL0     H27386   2.499   7.975   0.838  1.4857  1.9127  1.2011
  944MOL0     H27387   2.524   8.097   0.559 -0.4636 -0.3655 -0.3628
  944MOL0     H27388   2.583   7.951   0.602  1.0108 -0.3923  1.3604
  944MOL0     H27389   2.709   8.107   0.789 -1.2903 -1.5986  0.2847
  944MOL0     H27390   2.760   8.096   0.621 -0.9564 -0.1622 -1.3880
  944MOL0     H27391   2.492   8.320   0.533 -0.7681  0.7318 -0.3923
  944MOL0     H27392   2.482   8.576   0.509 -2.3389  3.9621 -0.1898
  944MOL0     H27393   2.418   8.558   0.656  0.3168 -2.5636 -0.1568
  944MOL0     H27394   2.680   8.706   0.628 -1.3976 -2.7678 -4.7435
  944MOL0     H27395   2.541   8.804   0.588 -0.4765 -0.6537 -0.0991
  944MOL0     H27396   2.506   8.669   0.847  0.6713 -0.2258 -0.0581
  944MOL0     H27397   2.446   8.830   0.782 -0.2547 -1.0269 -1.9514
  944MOL0     H27398   2.665   8.934   0.793 -0.2833  0.1547 -1.1649
  944MOL0     H27399   2.738   8.784   0.852 -0.6883 -0.7988  2.7863
  944MOL0     H27400   2.876   8.953   0.921 -1.4142  0.5590 -1.4336
  944MOL0     H27401   2.990   9.149   1.028 -1.4056  2.3400 -2.5546
  944MOL0     H27402   3.111   9.260   1.441  0.4586 -1.4481  1.4275
  944MOL0     H27403   3.229   9.372   1.610 -0.6357  0.5729 -0.2897
  944MOL0     H27404   3.031   9.743   1.792  0.3007 -0.4522 -1.1517
  944MOL0     H27405   3.061   9.649   1.928 -0.3183 -0.2971  0.4586
  944MOL0     H27406   3.301   9.726   1.936 -1.3913 -2.0295 -0.2874
  944MOL0     H27407   3.273   9.816   1.785  1.8109 -2.0494  0.6177
  944MOL0     H27408   3.095   9.961   1.891 -0.7885  2.2702  1.8282
  944MOL0     H27409   3.121   9.883   2.044  0.3216 -1.2503  0.5019
  944MOL0     H27410   3.324  10.049   1.889  0.6482  0.9416  0.0212
  944MOL0     H27411   3.366   9.944   2.027 -2.6192 -2.4501 -0.6921
  944MOL0     H27412   3.321  10.183   2.098 -0.1481 -1.6451  1.4602
  944MOL0     H27413   3.211  10.068   2.167  0.2213 -2.9727 -1.6825
  944MOL0     H27414   3.138  10.233   1.920 -3.6945  1.1956 -1.6237
  944MOL0     H27415   3.034  10.135   2.024  1.5110 -1.7063  2.5902
  944MOL0     H27416   2.990  10.360   2.084 -0.1443 -3.3505  0.6923
  944MOL0     H27417   3.175  10.400   2.075  0.2283  1.0005  1.6779
  944MOL0     H27418   3.005  10.290   2.296 -0.5146  2.0042 -0.6764
  944MOL0     H27419   3.178  10.266   2.287  0.9398  1.5097  0.7602
  944MOL0     H27420   2.928   9.652   1.660  0.7414  1.0666 -4.1498
  944MOL0     H27421   2.774   9.497   1.517 -0.0635 -1.2780 -1.8271
  944MOL0     H27422   2.667   9.187   1.299 -0.9377 -2.1312  1.4668
  944MOL0     H27423   2.545   9.001   1.186 -0.3169 -0.0520 -2.7204
  944MOL0     H27424   1.927   8.347   1.172 -0.6602 -1.9906 -0.3382
  944MOL0     H27425   1.855   8.445   1.381 -0.8904 -0.1757 -5.0521
  944MOL0     H27426   2.053   8.754   1.734 -0.5479 -0.3191 -1.2940
  944MOL0     H27427   2.051   8.820   1.994 -2.3177  2.9425 -1.2165
  944MOL0     H27428   2.105   8.539   2.206 -0.4681 -0.5418 -2.1197
  944MOL0     H27429   1.943   8.492   2.258 -0.0436  1.0189 -1.5574
  944MOL0     H27430   2.112   8.720   2.386 -1.5799  0.6028  1.6294
  944MOL0     H27431   2.145   8.563   2.445 -3.1950 -2.9149  4.5056
  944MOL0     H27432   1.991   8.667   2.589  0.4054  0.0412 -1.0124
  944MOL0     H27433   1.886   8.551   2.506 -2.4234  2.0338  1.0013
  944MOL0     H27434   1.813   8.741   2.353 -2.0879  4.9028 -0.7050
  944MOL0     H27435   1.769   8.764   2.520  0.1111  0.3784 -0.9969
  944MOL0     H27436   1.967   9.107   2.409  1.3588 -1.2154 -0.0002
  944MOL0     H27437   1.817   8.469   2.073 -0.2227  1.1078 -0.1351
  944MOL0     H27438   1.752   8.334   1.913  3.8375 -1.0620  1.2581
  944MOL0     H27439   1.753   8.372   1.741  1.2448 -3.9475 -2.3508
  944MOL0     H27440   1.890   8.296   1.805 -1.0180 -0.4072  0.7691
  945MOL0     O27441   6.927   8.509   3.082 -0.0143  0.5809  0.3551
  945MOL0     C27442   6.838   8.425   3.078  0.5352 -0.7394  0.4432
  945MOL0     O27443   6.855   8.309   3.013  0.0428 -0.3169 -0.4492
  945MOL0     C27444   6.911   8.306   2.894 -0.1142 -0.2945 -0.7998
  945MOL0     C27445   6.901   8.417   2.802  0.1386  0.4623  0.2140
  945MOL0     C27446   6.945   8.402   2.674 -1.1113  0.1889 -0.2939
  945MOL0     C27447   7.003   8.279   2.637  0.5845 -0.4653  0.3813
  945MOL0     O27448   7.019   8.240   2.511 -0.1773 -0.0013 -0.2051
  945MOL0     C27449   7.096   8.337   2.436 -0.0647  1.6026 -0.5150
  945MOL0     C27450   7.151   8.274   2.304 -0.4906  0.6927 -0.5783
  945MOL0     C27451   7.190   8.377   2.205 -0.0412 -0.2590 -1.1370
  945MOL0     C27452   7.158   8.335   2.069  0.4430  0.1270  0.8929
  945MOL0     C27453   7.206   8.422   1.958  0.4793 -0.2485 -0.2869
  945MOL0     C27454   7.157   8.384   1.813 -0.2888  0.2004  0.1388
  945MOL0     C27455   7.196   8.493   1.702 -0.6958  0.8160  0.8663
  945MOL0     C27456   7.343   8.478   1.663 -0.2395  0.1039  1.0047
  945MOL0     N27457   7.373   8.539   1.526 -0.9275 -0.7251  0.6319
  945MOL0     C27458   7.365   8.679   1.499  0.2941  0.6718  0.1002
  945MOL0     C27459   7.400   8.692   1.376 -0.2256 -0.4967  0.4085
  945MOL0     C27460   7.418   8.828   1.300 -0.5005  0.7841  0.0760
  945MOL0     C27461   7.360   8.812   1.161  0.9021  0.1756 -0.1186
  945MOL0     C27462   7.202   8.798   1.155  0.4879 -0.1155  0.1662
  945MOL0     C27463   7.120   8.923   1.205 -1.4260  0.4490  0.1343
  945MOL0     O27464   7.013   8.950   1.108 -1.1338 -0.2361  0.3223
  945MOL0     C27465   6.887   8.974   1.148  0.7057 -0.3295 -0.2732
  945MOL0     C27466   6.781   8.947   1.062  0.1793 -0.0399 -0.5288
  945MOL0     C27467   6.648   8.972   1.107  0.1899  0.3595 -0.0255
  945MOL0     C27468   6.612   9.031   1.230 -0.4906 -0.3858  0.3371
  945MOL0     C27469   6.477   9.050   1.288 -0.9893  0.3504 -0.1091
  945MOL0     O27470   6.380   8.994   1.207  0.8771 -0.4170  0.6415
  945MOL0     C27471   6.245   9.028   1.233  0.3381 -0.0574 -0.2771
  945MOL0     C27472   6.166   8.924   1.265  0.8047  0.3222 -0.6354
  945MOL0     C27473   6.021   8.951   1.266  0.2238 -0.8993  0.0903
  945MOL0     C27474   5.964   9.081   1.232  0.1753  0.4686  0.2485
  945MOL0     O27475   5.832   9.111   1.232 -0.7682 -0.0011 -0.1989
  945MOL0     C27476   5.727   9.012   1.257 -1.7879 -0.0420 -0.5231
  945MOL0     C27477   5.599   9.091   1.284  0.6768 -0.6607  0.2490
  945MOL0     C27478   5.541   9.163   1.164  0.0790  0.0123  0.6947
  945MOL0     C27479   5.403   9.225   1.200  0.0779 -0.6516 -0.1398
  945MOL0     C27480   5.344   9.314   1.095  0.5227  0.3607 -0.1756
  945MOL0     C27481   5.237   9.401   1.137  0.2672 -0.2929 -0.2031
  945MOL0     C27482   5.176   9.478   1.028 -0.0963 -0.3816 -0.3552
  945MOL0     C27483   5.098   9.396   0.915 -0.0086 -0.2427 -0.9718
  945MOL0    Cl27484   4.962   9.492   0.828 -0.3669  0.0291  0.2690
  945MOL0     C27485   6.053   9.183   1.211  0.4244 -0.0926  0.1473
  945MOL0     C27486   6.191   9.154   1.203 -0.2292  0.3957 -0.6455
  945MOL0     O27487   6.455   9.114   1.390  0.4213 -0.5331  0.9794
  945MOL0     C27488   6.723   9.051   1.314 -0.0535 -0.5199 -0.7121
  945MOL0     C27489   6.851   9.029   1.274  0.9839  0.3764  0.1416
  945MOL0     N27490   7.409   8.564   1.320  0.4665  0.3185 -0.1144
  945MOL0     N27491   7.392   8.472   1.412  0.5516 -0.0546 -0.0165
  945MOL0     C27492   7.017   8.176   2.727  0.2720 -0.7009  0.2304
  945MOL0     C27493   6.965   8.185   2.857 -0.5343  0.5156  0.1968
  945MOL0     C27494   6.704   8.448   3.143  0.0393  0.7627  0.4905
  945MOL0     C27495   6.599   8.404   3.056 -0.3059 -0.2916 -1.0464
  945MOL0     C27496   6.467   8.430   3.086 -0.2046 -0.7452 -0.1548
  945MOL0     C27497   6.430   8.477   3.216 -0.8431 -1.3455  0.1692
  945MOL0     O27498   6.293   8.492   3.236 -1.2516 -0.8648 -0.9250
  945MOL0     C27499   6.243   8.496   3.362 -0.3015  0.0462  0.5915
  945MOL0     C27500   6.092   8.511   3.345 -0.6668 -0.6060  0.6411
  945MOL0     C27501   6.025   8.554   3.477  0.2244  0.1232 -0.4592
  945MOL0     C27502   6.007   8.441   3.573 -0.1871 -0.6693  1.1318
  945MOL0     C27503   5.934   8.502   3.686 -0.3126  0.2255  0.4442
  945MOL0     C27504   5.880   8.546   3.788  0.2067 -0.7268  0.7930
  945MOL0     C27505   6.534   8.519   3.307  0.1157  0.1526 -0.1303
  945MOL0     C27506   6.674   8.504   3.274  0.0694 -0.3382 -0.8779
  945MOL0     C27507   6.785   8.539   3.367 -0.5283  0.8923 -0.8886
  945MOL0     H27508   6.854   8.510   2.833 -2.7813  0.7930 -4.2538
  945MOL0     H27509   6.928   8.491   2.615  2.4632  1.3575  0.2064
  945MOL0     H27510   7.030   8.421   2.415 -0.5128  1.2499 -0.5149
  945MOL0     H27511   7.185   8.375   2.487 -0.6924  1.6968  0.5380
  945MOL0     H27512   7.074   8.205   2.269 -0.2629  1.7639 -3.4163
  945MOL0     H27513   7.242   8.215   2.320  0.0996  1.2515 -1.7785
  945MOL0     H27514   7.296   8.403   2.215 -0.2622 -0.2588  4.3812
  945MOL0     H27515   7.137   8.467   2.237  0.4580  0.3590 -1.9879
  945MOL0     H27516   7.195   8.236   2.044  1.0235  0.5434  0.0607
  945MOL0     H27517   7.050   8.327   2.052  0.7988 -2.0218 -0.7317
  945MOL0     H27518   7.174   8.524   1.981 -1.7867 -1.1081  0.6499
  945MOL0     H27519   7.316   8.420   1.961  0.5177 -1.5994 -1.5373
  945MOL0     H27520   7.208   8.294   1.778 -2.1688 -1.1434  0.7151
  945MOL0     H27521   7.050   8.366   1.813 -0.0362 -1.7363  2.2894
  945MOL0     H27522   7.185   8.599   1.729 -0.8146  2.3483 -4.2201
  945MOL0     H27523   7.143   8.468   1.610  1.8428  2.7396 -1.2688
  945MOL0     H27524   7.413   8.507   1.741  0.3921 -1.0224  0.8853
  945MOL0     H27525   7.358   8.370   1.649 -0.9428  0.3017 -2.1301
  945MOL0     H27526   7.352   8.756   1.574  5.2623  0.4566  1.4948
  945MOL0     H27527   7.386   8.910   1.366  0.6299  1.2233  0.0887
  945MOL0     H27528   7.522   8.857   1.290 -0.0098 -0.9777 -0.3507
  945MOL0     H27529   7.388   8.900   1.102 -1.0343 -0.4353 -2.0802
  945MOL0     H27530   7.399   8.720   1.117  0.0971 -1.7933  2.9702
  945MOL0     H27531   7.155   8.716   1.210 -0.8520 -2.3776 -3.9368
  945MOL0     H27532   7.175   8.771   1.053 -0.1689 -0.7707  0.5045
  945MOL0     H27533   7.178   9.014   1.225 -1.7481  0.3746  1.4914
  945MOL0     H27534   7.068   8.884   1.293 -1.3525 -3.8191 -1.4732
  945MOL0     H27535   6.817   8.914   0.965  1.0042  1.4847 -0.7691
  945MOL0     H27536   6.570   8.945   1.037 -1.0127  1.8870  0.6597
  945MOL0     H27537   6.201   8.827   1.298 -4.3083 -1.2378  1.1450
  945MOL0     H27538   5.965   8.861   1.288 -0.5840 -0.2718  0.6151
  945MOL0     H27539   5.708   8.948   1.171 -1.7146  0.6522 -1.0696
  945MOL0     H27540   5.744   8.951   1.346  2.0322 -2.7679 -2.8058
  945MOL0     H27541   5.522   9.014   1.298 -1.0542  0.6057 -1.7286
  945MOL0     H27542   5.626   9.160   1.365  2.4655 -1.0030 -0.0176
  945MOL0     H27543   5.598   9.250   1.129 -0.8633 -0.7608 -3.1884
  945MOL0     H27544   5.537   9.098   1.076  2.3339  2.4666 -1.3911
  945MOL0     H27545   5.418   9.284   1.291  0.2582  0.8649 -1.1310
  945MOL0     H27546   5.351   9.131   1.222  2.2448 -1.7043  0.8362
  945MOL0     H27547   5.315   9.241   1.019  0.1573  0.3023  0.0179
  945MOL0     H27548   5.424   9.375   1.052 -0.9976  1.8647 -0.9910
  945MOL0     H27549   5.158   9.341   1.183  0.0834 -1.7777 -2.3044
  945MOL0     H27550   5.273   9.472   1.213 -0.2552  1.1297 -1.2528
  945MOL0     H27551   5.251   9.533   0.970 -1.1486 -0.1693 -1.5704
  945MOL0     H27552   5.102   9.547   1.069 -0.9582 -0.6399 -1.4322
  945MOL0     H27553   5.173   9.350   0.850  0.1684 -0.6864 -0.4607
  945MOL0     H27554   5.047   9.310   0.959 -0.9469  1.1279  0.7699
  945MOL0     H27555   6.022   9.282   1.179 -0.8246 -0.3782  0.4298
  945MOL0     H27556   6.261   9.237   1.198 -0.0567  0.2268 -1.1273
  945MOL0     H27557   6.710   9.080   1.418 -1.3391  2.5065 -1.5984
  945MOL0     H27558   6.920   9.030   1.357  0.1583 -1.4442  0.9143
  945MOL0     H27559   7.058   8.082   2.692 -2.2699 -1.7558 -0.1344
  945MOL0     H27560   6.966   8.097   2.921  1.0427  0.0193 -0.4498
  945MOL0     H27561   6.621   8.356   2.961 -1.3582  1.4236 -2.2232
  945MOL0     H27562   6.382   8.417   3.019 -2.2357  0.6760  1.9864
  945MOL0     H27563   6.275   8.579   3.425 -0.6729  1.7866 -1.4089
  945MOL0     H27564   6.262   8.392   3.392 -2.2886 -0.7380 -0.6646
  945MOL0     H27565   6.053   8.421   3.297  0.1250 -0.3569 -0.5195
  945MOL0     H27566   6.065   8.588   3.273 -0.2272 -1.0026  0.0458
  945MOL0     H27567   5.923   8.587   3.453  0.4547  0.3773 -1.1028
  945MOL0     H27568   6.070   8.644   3.520  0.4947 -2.0153  4.4382
  945MOL0     H27569   5.943   8.363   3.531 -0.0902  0.9781 -2.4433
  945MOL0     H27570   6.106   8.399   3.593 -1.6025 -3.9854  1.9869
  945MOL0     H27571   5.847   8.600   3.874  3.0482  2.9057 -0.1606
  945MOL0     H27572   6.499   8.537   3.408 -1.4192 -1.7729 -0.2663
  945MOL0     H27573   6.802   8.647   3.367 -0.3263  0.8635 -0.5514
  945MOL0     H27574   6.755   8.508   3.468  0.0573  0.6341 -0.7947
  945MOL0     H27575   6.877   8.490   3.336 -0.1900  1.0203 -0.1190
  946MOL0     O27576   2.413   8.029   7.337  0.3187  0.4427 -0.3978
  946MOL0     C27577   2.396   8.133   7.393  0.1697 -0.3936  0.4800
  946MOL0     O27578   2.497   8.216   7.421 -0.1107 -0.0526  0.0794
  946MOL0     C27579   2.614   8.176   7.377 -0.0585 -0.3972  0.4583
  946MOL0     C27580   2.655   8.213   7.241 -0.4596  0.0418 -1.1958
  946MOL0     C27581   2.777   8.187   7.200 -0.9536 -0.1631  0.0259
  946MOL0     C27582   2.857   8.098   7.276  0.3522 -0.6717  0.6270
  946MOL0     O27583   2.989   8.074   7.246 -0.2294  0.5534  0.0618
  946MOL0     C27584   3.046   8.104   7.117  0.6580 -0.2958  0.3372
  946MOL0     C27585   3.147   8.000   7.078  0.4634 -0.6449 -0.4220
  946MOL0     C27586   3.205   8.027   6.943 -0.6625 -0.3760  1.2356
  946MOL0     C27587   3.273   7.901   6.880 -0.3543 -0.0020 -0.5408
  946MOL0     C27588   3.397   7.859   6.969 -0.3742  0.1389  1.1632
  946MOL0     C27589   3.473   7.752   6.891  0.0611 -0.5208 -0.6385
  946MOL0     C27590   3.608   7.718   6.957  0.2589 -0.3633 -0.2937
  946MOL0     C27591   3.706   7.640   6.871  0.9965 -0.0589 -0.5487
  946MOL0     N27592   3.662   7.507   6.838 -0.3271 -0.4619  0.1902
  946MOL0     C27593   3.657   7.405   6.933  0.3242 -0.2013 -0.0233
  946MOL0     C27594   3.594   7.311   6.864 -0.5305 -0.2818 -0.4589
  946MOL0     C27595   3.550   7.183   6.934 -0.2941  0.4134 -0.3920
  946MOL0     C27596   3.669   7.094   6.959  0.2706  0.2894  1.0861
  946MOL0     C27597   3.721   7.037   6.818 -0.0237  0.4702  0.4361
  946MOL0     C27598   3.608   6.971   6.746  0.4422  0.4040  0.5198
  946MOL0     O27599   3.661   6.884   6.637 -0.7462  0.0992 -0.3235
  946MOL0     C27600   3.581   6.800   6.557 -0.2492 -0.2277  0.3986
  946MOL0     C27601   3.445   6.782   6.577 -0.4510 -0.8226  0.5227
  946MOL0     C27602   3.377   6.695   6.494  0.7257 -0.9904  1.0592
  946MOL0     C27603   3.444   6.630   6.386  0.3403  0.0152  0.1716
  946MOL0     C27604   3.356   6.541   6.291 -0.3315 -0.5560 -0.5327
  946MOL0     O27605   3.223   6.554   6.308 -0.2951 -0.0517 -0.3053
  946MOL0     C27606   3.141   6.444   6.315 -1.2717 -0.1764  0.2805
  946MOL0     C27607   3.022   6.468   6.391  0.6052  0.0366  0.2345
  946MOL0     C27608   2.935   6.364   6.437  0.0958 -1.0845  0.1912
  946MOL0     C27609   2.957   6.238   6.379 -0.6216  1.0647 -0.2644
  946MOL0     O27610   2.880   6.133   6.429 -0.6692  0.1307  0.4243
  946MOL0     C27611   2.747   6.150   6.469  0.0304 -0.6956  0.1246
  946MOL0     C27612   2.679   6.009   6.494 -0.0391 -0.1613 -0.6412
  946MOL0     C27613   2.654   5.959   6.351 -0.5749  0.2562  0.5725
  946MOL0     C27614   2.527   6.034   6.280  0.7816  0.6322 -0.5140
  946MOL0     C27615   2.443   5.942   6.189 -0.0621  0.3105 -1.1240
  946MOL0     C27616   2.375   5.832   6.269 -0.3992 -0.6207  0.1177
  946MOL0     C27617   2.254   5.777   6.189 -0.0906  0.3470 -0.3475
  946MOL0     C27618   2.222   5.625   6.221  0.4186  0.1588 -0.2256
  946MOL0    Cl27619   2.205   5.592   6.389  0.2060  0.0638 -0.4175
  946MOL0     C27620   3.074   6.215   6.297  0.2647  0.5642  0.8327
  946MOL0     C27621   3.168   6.310   6.269  0.5258  0.6988 -1.2109
  946MOL0     O27622   3.407   6.484   6.193  0.1734  0.1265 -0.1838
  946MOL0     C27623   3.577   6.648   6.365  0.5655  0.9739  0.3907
  946MOL0     C27624   3.644   6.739   6.442 -0.7398 -0.4786  0.8302
  946MOL0     N27625   3.573   7.357   6.742 -0.4953  0.5565 -0.1723
  946MOL0     N27626   3.607   7.470   6.723 -0.0249 -0.1046 -0.5733
  946MOL0     C27627   2.824   8.053   7.402  0.4465  0.1118  0.0576
  946MOL0     C27628   2.697   8.094   7.455 -1.1924  0.8603  0.0040
  946MOL0     C27629   2.260   8.151   7.437  1.1564 -0.0935  0.1704
  946MOL0     C27630   2.151   8.115   7.352  0.2236 -0.1107  0.2693
  946MOL0     C27631   2.028   8.173   7.373  0.1644 -1.3381  0.2468
  946MOL0     C27632   2.005   8.244   7.491  0.9223 -1.0178 -0.5166
  946MOL0     O27633   1.879   8.288   7.506  0.4187 -0.3566 -0.0587
  946MOL0     C27634   1.764   8.271   7.414 -0.1935 -0.8211 -0.9977
  946MOL0     C27635   1.782   8.368   7.294  0.2158  0.4001 -0.3275
  946MOL0     C27636   1.751   8.516   7.317 -0.5153  0.5186 -0.4308
  946MOL0     C27637   1.795   8.606   7.201  0.0056 -1.0180 -0.7057
  946MOL0     C27638   1.672   8.644   7.132  0.5064  0.2865  0.0238
  946MOL0     C27639   1.562   8.686   7.082 -0.3497 -0.1703  0.4470
  946MOL0     C27640   2.112   8.273   7.572  0.0326  0.1794 -0.0673
  946MOL0     C27641   2.237   8.228   7.556 -0.0747 -0.5400 -0.2437
  946MOL0     C27642   2.350   8.276   7.646 -0.5416 -0.1052 -0.4326
  946MOL0     H27643   2.586   8.283   7.195 -2.4484  2.3925  4.4467
  946MOL0     H27644   2.817   8.230   7.108 -2.3772 -2.5271 -1.8115
  946MOL0     H27645   2.973   8.115   7.037  3.1314 -1.1103 -2.1675
  946MOL0     H27646   3.105   8.195   7.132  0.2918 -0.2479  1.5738
  946MOL0     H27647   3.092   7.906   7.093  3.2855 -2.2269  0.7523
  946MOL0     H27648   3.227   8.010   7.151  1.2769 -0.1063 -1.3715
  946MOL0     H27649   3.276   8.110   6.949 -3.3105  1.9469  2.6283
  946MOL0     H27650   3.140   8.064   6.863 -0.0736  5.0693  2.8694
  946MOL0     H27651   3.204   7.816   6.876  0.0270 -0.4182  0.9116
  946MOL0     H27652   3.311   7.921   6.780  2.8745  2.2707  0.9552
  946MOL0     H27653   3.471   7.937   6.987  0.6014 -0.3677 -0.4552
  946MOL0     H27654   3.356   7.816   7.061 -2.0955 -2.0268 -0.4883
  946MOL0     H27655   3.420   7.658   6.873 -0.7707  0.1792 -2.0357
  946MOL0     H27656   3.484   7.786   6.788  3.1995 -2.4223 -1.0444
  946MOL0     H27657   3.594   7.654   7.045  1.1988 -2.8507 -1.8576
  946MOL0     H27658   3.659   7.810   6.988 -1.1419  0.3070  0.0759
  946MOL0     H27659   3.734   7.703   6.786 -0.6821  2.5183  0.6740
  946MOL0     H27660   3.793   7.627   6.937 -0.9792 -2.5022  1.8016
  946MOL0     H27661   3.679   7.415   7.039  0.3749 -0.2874 -0.0258
  946MOL0     H27662   3.498   7.215   7.025 -0.9624  1.0390 -0.9806
  946MOL0     H27663   3.470   7.140   6.873 -1.7828  0.0738  1.7052
  946MOL0     H27664   3.754   7.145   7.006  1.5679  0.0046 -0.8307
  946MOL0     H27665   3.637   7.017   7.029 -0.5689  1.9661  2.6488
  946MOL0     H27666   3.796   6.959   6.837 -2.1786 -1.6050  0.9849
  946MOL0     H27667   3.767   7.115   6.757 -0.4902 -2.0592 -3.5178
  946MOL0     H27668   3.547   7.049   6.700 -1.7434 -0.0837  2.4048
  946MOL0     H27669   3.542   6.915   6.812  0.0998  0.3155  0.1074
  946MOL0     H27670   3.392   6.824   6.662 -0.0133  1.4215 -0.2481
  946MOL0     H27671   3.269   6.687   6.507  0.4861 -2.3202 -1.3519
  946MOL0     H27672   3.006   6.564   6.439  1.5637  1.2713 -1.7450
  946MOL0     H27673   2.855   6.384   6.509  3.7623  1.8362  3.9596
  946MOL0     H27674   2.744   6.195   6.569 -1.1357 -0.2810 -0.0832
  946MOL0     H27675   2.683   6.209   6.403  0.4778 -0.0261  0.2887
  946MOL0     H27676   2.747   5.953   6.560  0.6006  3.5141  2.1012
  946MOL0     H27677   2.578   5.999   6.536 -0.3899 -1.8964 -1.8043
  946MOL0     H27678   2.746   5.954   6.291  0.1791  0.6087  1.6788
  946MOL0     H27679   2.620   5.856   6.365  2.7407 -0.8741  1.2937
  946MOL0     H27680   2.555   6.120   6.219 -1.4024  0.9272 -1.1783
  946MOL0     H27681   2.457   6.070   6.356 -0.4482 -0.8281 -0.8985
  946MOL0     H27682   2.512   5.889   6.123  0.1209 -2.5870  1.1551
  946MOL0     H27683   2.372   6.001   6.131 -1.6793  1.6378  1.9648
  946MOL0     H27684   2.441   5.747   6.289  1.4409 -0.5476 -4.3393
  946MOL0     H27685   2.337   5.867   6.365  2.0235 -1.4361  1.4525
  946MOL0     H27686   2.278   5.777   6.083 -1.1973  1.4664 -0.6252
  946MOL0     H27687   2.170   5.842   6.215 -0.2849  0.0534 -0.2397
  946MOL0     H27688   2.136   5.589   6.165  1.6803 -2.6150 -0.5378
  946MOL0     H27689   2.303   5.559   6.189  0.2173 -0.8495  1.2817
  946MOL0     H27690   3.102   6.120   6.253  2.9579  2.4268 -1.9975
  946MOL0     H27691   3.257   6.302   6.207 -0.2198  1.3548 -2.4059
  946MOL0     H27692   3.613   6.592   6.279  0.8975 -0.6497  1.5344
  946MOL0     H27693   3.749   6.748   6.417 -1.0192  2.0873  0.2896
  946MOL0     H27694   2.885   7.976   7.448 -2.7154 -3.3359 -1.0226
  946MOL0     H27695   2.676   8.055   7.554 -0.8720  1.0374  0.1435
  946MOL0     H27696   2.171   8.051   7.266 -0.2777 -2.3460  1.7351
  946MOL0     H27697   1.945   8.134   7.314  0.3218 -0.3570 -0.6417
  946MOL0     H27698   1.677   8.299   7.475  1.7160 -0.2193  1.6174
  946MOL0     H27699   1.736   8.168   7.390 -0.6730 -0.8446 -0.3812
  946MOL0     H27700   1.713   8.332   7.217 -1.2380 -1.2899  1.6647
  946MOL0     H27701   1.883   8.368   7.252 -0.1189  0.6262 -1.1672
  946MOL0     H27702   1.810   8.549   7.403  2.4434  2.2787 -2.8979
  946MOL0     H27703   1.643   8.526   7.328 -0.5649 -1.5604  1.8373
  946MOL0     H27704   1.845   8.694   7.240 -1.0159  0.4254 -2.4675
  946MOL0     H27705   1.869   8.562   7.134  1.8742  0.1977  0.4766
  946MOL0     H27706   1.469   8.715   7.039 -1.2879 -3.3334  0.1247
  946MOL0     H27707   2.079   8.338   7.653 -1.0143 -0.9923  0.4749
  946MOL0     H27708   2.306   8.297   7.744  0.4470 -1.6594  0.3830
  946MOL0     H27709   2.417   8.192   7.666  1.2344  1.8032  2.2689
  946MOL0     H27710   2.402   8.366   7.612 -0.6194  1.1190  2.3998
  947MOL0     O27711   4.195   0.573   8.064  0.4767 -0.4672  0.3068
  947MOL0     C27712   4.224   0.539   8.181  0.1368  0.0687 -0.5577
  947MOL0     O27713   4.209   0.409   8.228 -0.0561 -0.7156 -0.0786
  947MOL0     C27714   4.219   0.310   8.141  0.3656 -0.1703  0.2473
  947MOL0     C27715   4.137   0.289   8.026  0.7841 -0.8749  0.1014
  947MOL0     C27716   4.166   0.189   7.925  0.3674 -0.4970 -0.3191
  947MOL0     C27717   4.278   0.108   7.947  0.2595 -1.2961 -0.6050
  947MOL0     O27718   4.307  -0.005   7.869 -0.1689  0.2608 -0.1631
  947MOL0     C27719   4.236  -0.032   7.745 -0.2446 -0.0470 -0.4767
  947MOL0     C27720   4.280  -0.159   7.683 -0.3541  0.3806 -0.3117
  947MOL0     C27721   4.261  -0.281   7.776  0.3723 -0.7925 -0.1039
  947MOL0     C27722   4.300  -0.421   7.710  0.4194  0.0151  0.8056
  947MOL0     C27723   4.300  -0.523   7.824 -0.1502  0.2682 -0.1641
  947MOL0     C27724   4.275  -0.673   7.792  0.3224 -0.1864 -0.2102
  947MOL0     C27725   4.351  -0.773   7.877  0.0524  0.6476 -0.4071
  947MOL0     C27726   4.344  -0.918   7.817  1.0903 -0.5270 -1.3877
  947MOL0     N27727   4.404  -1.022   7.903  0.3717  0.3964  0.1901
  947MOL0     C27728   4.329  -1.101   7.984 -0.4252  0.5820  0.3103
  947MOL0     C27729   4.423  -1.199   8.020 -0.0034 -0.3718  0.1440
  947MOL0     C27730   4.390  -1.314   8.115 -0.4532  0.2077 -0.4682
  947MOL0     C27731   4.368  -1.448   8.039 -0.0608  0.9120  0.1946
  947MOL0     C27732   4.493  -1.540   8.041 -0.4333 -0.4929  0.8512
  947MOL0     C27733   4.470  -1.673   7.973  0.1970 -0.0996  0.2887
  947MOL0     O27734   4.342  -1.725   8.017 -0.4815  0.0814  0.1510
  947MOL0     C27735   4.318  -1.851   7.971 -0.0504  0.3001  0.3472
  947MOL0     C27736   4.232  -1.871   7.866  0.3331 -0.1654  0.3770
  947MOL0     C27737   4.197  -1.994   7.823  0.5273  0.1609  0.2777
  947MOL0     C27738   4.241  -2.105   7.892  0.1213  0.3526  0.3857
  947MOL0     C27739   4.202  -2.238   7.838  0.6834 -0.2600 -0.2826
  947MOL0     O27740   4.110  -2.235   7.742  0.3527 -0.0793 -0.8002
  947MOL0     C27741   4.047  -2.356   7.714  0.0993 -0.1810 -0.0825
  947MOL0     C27742   3.934  -2.397   7.785 -0.0398 -1.3694  0.4747
  947MOL0     C27743   3.869  -2.517   7.762  0.6746 -0.2157  0.2820
  947MOL0     C27744   3.894  -2.592   7.648 -0.6724  0.4423 -0.3487
  947MOL0     O27745   3.804  -2.694   7.622  0.5495 -1.3560 -0.6138
  947MOL0     C27746   3.839  -2.791   7.517 -0.4019  0.1839  0.1567
  947MOL0     C27747   3.780  -2.928   7.525 -1.0858 -0.3337 -0.1684
  947MOL0     C27748   3.640  -2.938   7.479  0.3546 -0.0015 -0.4379
  947MOL0     C27749   3.642  -2.966   7.326  0.1153 -0.0962  0.3741
  947MOL0     C27750   3.502  -2.968   7.250  0.0741 -0.4831 -0.1648
  947MOL0     C27751   3.410  -2.854   7.286 -0.2146 -0.0280  0.1231
  947MOL0     C27752   3.282  -2.878   7.213  0.2019 -1.4527  0.0117
  947MOL0     C27753   3.213  -2.738   7.187  0.3351 -0.1778  0.4098
  947MOL0    Cl27754   3.320  -2.654   7.062  0.5989  0.1432  0.2491
  947MOL0     C27755   3.995  -2.538   7.558 -2.1741  0.7242  0.0973
  947MOL0     C27756   4.085  -2.430   7.594 -0.1269  0.0188  0.1664
  947MOL0     O27757   4.246  -2.347   7.889 -0.4304 -0.0750 -0.6879
  947MOL0     C27758   4.321  -2.092   8.007  0.2447  0.2974 -0.1808
  947MOL0     C27759   4.363  -1.964   8.050 -0.9756  0.2840  1.0526
  947MOL0     N27760   4.548  -1.170   7.961 -1.0212 -0.7230 -0.7043
  947MOL0     N27761   4.534  -1.061   7.897  0.3051 -0.0460  0.3193
  947MOL0     C27762   4.360   0.138   8.058 -0.2724 -0.1516 -0.4171
  947MOL0     C27763   4.332   0.229   8.155  0.0106 -0.1208  0.0421
  947MOL0     C27764   4.257   0.650   8.279  0.2272  0.8756  0.2854
  947MOL0     C27765   4.306   0.769   8.209  0.3290 -0.4749  1.0207
  947MOL0     C27766   4.317   0.888   8.289 -1.1943 -0.6212  0.6090
  947MOL0     C27767   4.299   0.888   8.433 -0.9406  0.7581 -0.1641
  947MOL0     O27768   4.338   1.003   8.494 -0.4356 -0.1416  0.0345
  947MOL0     C27769   4.332   1.006   8.636  1.0473  0.0709  0.4322
  947MOL0     C27770   4.346   1.146   8.692  0.1420 -0.6458  0.5909
  947MOL0     C27771   4.475   1.221   8.650  0.0746 -0.8376 -0.2766
  947MOL0     C27772   4.501   1.311   8.773 -0.0950 -0.4271  0.0102
  947MOL0     C27773   4.617   1.406   8.739  1.0386  0.2689  0.2368
  947MOL0     C27774   4.711   1.468   8.719  0.1446 -1.7616 -0.5693
  947MOL0     C27775   4.273   0.768   8.496  0.5966 -0.9830 -0.3078
  947MOL0     C27776   4.238   0.655   8.421  0.4602  0.3404  0.3763
  947MOL0     C27777   4.189   0.535   8.497 -0.3022 -0.1007  0.1105
  947MOL0     H27778   4.070   0.370   7.997  0.1589 -1.3143  0.2968
  947MOL0     H27779   4.102   0.177   7.839 -1.3290  2.1721  0.4522
  947MOL0     H27780   4.128  -0.034   7.761 -0.2266 -0.3184 -0.3833
  947MOL0     H27781   4.265   0.041   7.669 -0.2502  1.7487  1.1655
  947MOL0     H27782   4.385  -0.161   7.654 -0.2242  2.5501 -0.1272
  947MOL0     H27783   4.212  -0.168   7.597 -0.2952 -0.6880 -0.2602
  947MOL0     H27784   4.156  -0.283   7.808 -0.2243  1.6692 -1.6562
  947MOL0     H27785   4.325  -0.263   7.863  0.6529  0.9905 -0.6304
  947MOL0     H27786   4.214  -0.448   7.648  1.3109 -1.8512  0.3189
  947MOL0     H27787   4.391  -0.433   7.651 -0.2120 -1.4197  0.0840
  947MOL0     H27788   4.383  -0.501   7.892 -1.7437  2.2867  1.2584
  947MOL0     H27789   4.222  -0.494   7.895  2.0140 -1.7817  3.3442
  947MOL0     H27790   4.171  -0.707   7.796  0.7839 -1.6268  0.3714
  947MOL0     H27791   4.319  -0.696   7.695  2.2244  1.2523  0.2513
  947MOL0     H27792   4.303  -0.782   7.975 -0.8107 -0.5905 -0.9195
  947MOL0     H27793   4.454  -0.741   7.893  0.9473 -3.3503  3.9280
  947MOL0     H27794   4.241  -0.943   7.791  1.0342  0.2401 -1.9262
  947MOL0     H27795   4.397  -0.924   7.722 -1.3181 -1.0735 -2.7793
  947MOL0     H27796   4.233  -1.099   8.033 -0.2274  0.5637  0.7033
  947MOL0     H27797   4.468  -1.318   8.191 -0.8545 -1.3747 -0.1079
  947MOL0     H27798   4.302  -1.279   8.170  0.2062  4.0438 -1.6010
  947MOL0     H27799   4.288  -1.504   8.088  0.8633 -0.0164  0.7016
  947MOL0     H27800   4.326  -1.444   7.938  3.3550 -4.3377 -1.8644
  947MOL0     H27801   4.517  -1.564   8.145  1.6378  1.4586  0.9045
  947MOL0     H27802   4.583  -1.492   8.000  0.2900 -1.7335  0.9594
  947MOL0     H27803   4.552  -1.740   8.000  1.6330  0.8426 -1.5400
  947MOL0     H27804   4.481  -1.671   7.865  1.1707 -2.4020  0.2828
  947MOL0     H27805   4.190  -1.785   7.815 -0.4697 -1.1378 -0.6691
  947MOL0     H27806   4.132  -1.989   7.736 -1.1341  0.4231  1.4887
  947MOL0     H27807   3.905  -2.339   7.873  1.3446 -2.4369  1.6758
  947MOL0     H27808   3.797  -2.549   7.837  0.3165 -2.0298 -0.7955
  947MOL0     H27809   3.808  -2.742   7.424 -0.0214  0.3012  0.0927
  947MOL0     H27810   3.948  -2.794   7.515 -0.3196  1.7282  0.5442
  947MOL0     H27811   3.849  -2.997   7.476 -1.9287  1.0998 -3.7506
  947MOL0     H27812   3.775  -2.958   7.630 -0.2588  1.5241  0.4498
  947MOL0     H27813   3.581  -2.998   7.549  1.9065  0.4237  1.3354
  947MOL0     H27814   3.590  -2.841   7.490 -1.8328 -1.1713  0.6947
  947MOL0     H27815   3.677  -3.069   7.317  3.5241  1.0358 -1.0939
  947MOL0     H27816   3.711  -2.891   7.286 -0.4751 -0.2534 -0.9829
  947MOL0     H27817   3.454  -3.063   7.273  0.0847 -0.0762  1.7548
  947MOL0     H27818   3.521  -2.953   7.143 -4.4223  4.1489 -0.6819
  947MOL0     H27819   3.396  -2.862   7.395  4.0052 -2.3946  0.6777
  947MOL0     H27820   3.454  -2.757   7.260 -1.3731  1.0867  2.0093
  947MOL0     H27821   3.224  -2.939   7.282  0.3192 -0.6359  0.8573
  947MOL0     H27822   3.287  -2.923   7.113  3.9630 -1.7842  0.2209
  947MOL0     H27823   3.118  -2.755   7.136  0.5845 -2.0009  0.4771
  947MOL0     H27824   3.178  -2.688   7.277 -1.1751 -0.7837  0.1794
  947MOL0     H27825   4.027  -2.575   7.461  3.7889  3.2921  0.6547
  947MOL0     H27826   4.164  -2.404   7.524 -0.1543 -4.3223 -1.8327
  947MOL0     H27827   4.346  -2.174   8.073 -1.5998  0.1898  0.4487
  947MOL0     H27828   4.423  -1.958   8.141 -0.2990  3.6502  0.4922
  947MOL0     H27829   4.450   0.082   8.081 -0.9797 -0.6994  1.2098
  947MOL0     H27830   4.407   0.246   8.232  1.5002 -1.6558 -1.0002
  947MOL0     H27831   4.310   0.778   8.101  0.8516  0.0468  1.0740
  947MOL0     H27832   4.355   0.977   8.239  0.7494 -1.5843  0.2776
  947MOL0     H27833   4.410   0.950   8.689 -0.0305 -0.8346  1.1162
  947MOL0     H27834   4.240   0.963   8.677  0.5756 -2.1800 -2.5890
  947MOL0     H27835   4.338   1.144   8.801  0.5807  2.3683  0.7384
  947MOL0     H27836   4.268   1.212   8.654  2.0399  1.5773  0.3224
  947MOL0     H27837   4.450   1.277   8.560 -0.1292  0.2975  0.4681
  947MOL0     H27838   4.557   1.156   8.619  0.6413 -0.0649 -0.4419
  947MOL0     H27839   4.411   1.366   8.803 -3.2178 -5.1373  0.2906
  947MOL0     H27840   4.542   1.265   8.863  0.8549  2.3742  1.1199
  947MOL0     H27841   4.799   1.528   8.716 -0.1452 -1.3653 -1.4806
  947MOL0     H27842   4.274   0.756   8.604  2.2189 -0.7080 -0.2746
  947MOL0     H27843   4.239   0.439   8.479 -3.2095 -1.8653  0.8001
  947MOL0     H27844   4.203   0.556   8.604  1.1058  2.5314 -0.5129
  947MOL0     H27845   4.085   0.507   8.477 -0.7837  2.7927 -2.0048
  948MOL0     O27846  10.538   9.306   0.699 -0.0730  0.0958 -1.1969
  948MOL0     C27847  10.437   9.346   0.760  1.2434  0.2820 -0.1149
  948MOL0     O27848  10.443   9.438   0.868 -0.5999  0.5481  0.4708
  948MOL0     C27849  10.570   9.465   0.909 -1.4551 -1.1439 -0.1869
  948MOL0     C27850  10.656   9.373   0.964  0.4436 -0.5813  0.6125
  948MOL0     C27851  10.795   9.388   0.966  0.3711 -1.0660 -0.3365
  948MOL0     C27852  10.844   9.522   0.948  0.0910 -0.4951 -0.0775
  948MOL0     O27853  10.980   9.538   0.953  0.4776  0.6513  0.2791
  948MOL0     C27854  11.033   9.645   1.035  0.8292  0.3777 -0.3596
  948MOL0     C27855  11.170   9.610   1.101  0.8646  0.4034  0.7117
  948MOL0     C27856  11.165   9.482   1.189  0.5236 -0.4347 -0.1816
  948MOL0     C27857  11.294   9.403   1.190 -0.7361  0.0694 -0.3941
  948MOL0     C27858  11.296   9.268   1.263  0.2478 -0.3659 -0.1753
  948MOL0     C27859  11.221   9.272   1.399 -0.2078  0.2028  0.2991
  948MOL0     C27860  11.219   9.127   1.463 -0.9212  0.5606  0.1225
  948MOL0     C27861  11.349   9.101   1.558  0.1162 -0.1823 -0.4707
  948MOL0     N27862  11.321   9.144   1.697 -0.1110 -0.7103 -0.6357
  948MOL0     C27863  11.344   9.269   1.747  0.5622  0.2788 -0.4201
  948MOL0     C27864  11.277   9.276   1.866  1.0724  0.2976  0.6029
  948MOL0     C27865  11.251   9.397   1.951  1.0074 -0.0407  0.1706
  948MOL0     C27866  11.129   9.371   2.054 -0.2456 -0.0979  0.6878
  948MOL0     C27867  11.105   9.502   2.128  0.6148 -0.7157 -0.2686
  948MOL0     C27868  10.973   9.513   2.188  0.2676 -0.8257 -0.6729
  948MOL0     O27869  10.969   9.624   2.266 -0.3274 -0.3115 -0.1497
  948MOL0     C27870  10.938   9.622   2.403  0.0952  0.5483  0.0034
  948MOL0     C27871  10.963   9.737   2.474 -0.0568 -0.4620 -0.5992
  948MOL0     C27872  10.935   9.747   2.610  0.1665 -0.2959 -0.7499
  948MOL0     C27873  10.894   9.636   2.686  0.2309  0.0965 -0.0631
  948MOL0     C27874  10.879   9.645   2.833 -0.3597 -0.6806  0.3128
  948MOL0     O27875  10.879   9.776   2.891  0.1942 -0.7303  0.7353
  948MOL0     C27876  10.839   9.796   3.021 -0.2465  0.1707  0.4606
  948MOL0     C27877  10.745   9.716   3.080 -0.0750  0.1328 -1.3203
  948MOL0     C27878  10.714   9.735   3.209  0.5954  0.2620 -0.2746
  948MOL0     C27879  10.754   9.837   3.286 -0.0925 -0.7483 -0.1134
  948MOL0     O27880  10.710   9.835   3.409 -0.6154  0.3602 -0.7521
  948MOL0     C27881  10.742   9.944   3.499  0.9287 -0.0931 -0.5945
  948MOL0     C27882  10.665   9.906   3.625 -0.4606 -0.2410 -0.2056
  948MOL0     C27883  10.743   9.962   3.745  0.5452  0.7207 -0.4753
  948MOL0     C27884  10.694   9.914   3.881  0.0640 -0.3017 -0.2710
  948MOL0     C27885  10.741   9.773   3.914  0.0695  0.1908 -0.0110
  948MOL0     C27886  10.688   9.723   4.058  0.7829  0.1478  0.5031
  948MOL0     C27887  10.748   9.584   4.096  0.4200 -0.6649  0.1755
  948MOL0     C27888  10.680   9.468   4.026  0.5477  0.5114 -0.5432
  948MOL0    Cl27889  10.755   9.325   4.088  0.3078  0.9195  0.1738
  948MOL0     C27890  10.852   9.919   3.226 -0.2777 -0.3935  1.0553
  948MOL0     C27891  10.902   9.902   3.093 -0.7169 -0.2368 -0.9905
  948MOL0     O27892  10.862   9.542   2.896  0.3727 -0.2944 -0.3759
  948MOL0     C27893  10.859   9.524   2.612  0.1531  0.5621 -0.8965
  948MOL0     C27894  10.882   9.515   2.474 -0.4522 -0.7046  0.8538
  948MOL0     N27895  11.213   9.151   1.880  0.2407  0.1101 -0.1247
  948MOL0     N27896  11.239   9.074   1.783 -0.3746 -0.5075 -0.1734
  948MOL0     C27897  10.755   9.626   0.927 -2.1063 -0.6444  0.3125
  948MOL0     C27898  10.623   9.600   0.905  0.0331 -0.8908 -0.5481
  948MOL0     C27899  10.302   9.331   0.706 -0.1580 -0.0328 -0.3261
  948MOL0     C27900  10.223   9.449   0.678  0.7516  1.2040 -0.7750
  948MOL0     C27901  10.117   9.431   0.585  0.0432 -0.5188  0.3071
  948MOL0     C27902  10.087   9.304   0.538  0.1686 -0.4828 -0.2017
  948MOL0     O27903   9.994   9.309   0.433 -0.4145 -0.1293  0.2289
  948MOL0     C27904   9.993   9.192   0.345  0.5033 -0.3956 -0.9019
  948MOL0     C27905   9.852   9.197   0.274 -0.7309  0.2293 -0.2066
  948MOL0     C27906   9.835   9.072   0.179 -0.2419  0.4691  0.4581
  948MOL0     C27907   9.723   9.099   0.077 -0.1271  0.0549  0.2716
  948MOL0     C27908   9.695   8.984  -0.014  0.6259 -2.2427  0.0887
  948MOL0     C27909   9.662   8.888  -0.075 -0.1203 -0.1780 -0.0714
  948MOL0     C27910  10.150   9.195   0.591  0.2504  0.0217 -0.1014
  948MOL0     C27911  10.257   9.206   0.671 -0.6375 -0.3530  0.6358
  948MOL0     C27912  10.325   9.074   0.717 -0.4562 -0.3940 -0.5152
  948MOL0     H27913  10.612   9.277   0.988 -1.6406  0.8791  3.0901
  948MOL0     H27914  10.867   9.311   0.991  1.2959  0.2009  1.0927
  948MOL0     H27915  11.038   9.736   0.975 -1.8145 -0.6496 -2.3233
  948MOL0     H27916  10.976   9.666   1.126  4.0537 -1.2027  2.2459
  948MOL0     H27917  11.197   9.694   1.166 -0.3646 -0.3098  2.2091
  948MOL0     H27918  11.242   9.603   1.020 -1.2499  0.6891 -1.3038
  948MOL0     H27919  11.088   9.409   1.163 -1.0008  2.0447 -3.2450
  948MOL0     H27920  11.159   9.517   1.293 -0.5118 -1.1534  0.0063
  948MOL0     H27921  11.321   9.377   1.087  0.2838 -0.8523  0.0798
  948MOL0     H27922  11.369   9.458   1.247 -0.8747  0.0164 -0.1599
  948MOL0     H27923  11.253   9.202   1.187 -1.2131 -0.3444  0.5977
  948MOL0     H27924  11.401   9.238   1.276  0.3275 -2.6959 -4.2974
  948MOL0     H27925  11.267   9.341   1.470 -0.7635 -1.3022  2.1918
  948MOL0     H27926  11.119   9.312   1.398  0.3239  1.6186  0.3683
  948MOL0     H27927  11.219   9.055   1.380 -0.8777 -0.9371  1.3813
  948MOL0     H27928  11.129   9.110   1.523  0.1878  0.7695  1.9086
  948MOL0     H27929  11.380   8.997   1.548  0.9953  0.0280 -0.1137
  948MOL0     H27930  11.437   9.161   1.531  1.0115 -0.5675  1.3933
  948MOL0     H27931  11.385   9.359   1.702 -1.0363  2.9864  2.9565
  948MOL0     H27932  11.339   9.428   2.008 -0.3433  0.9652  1.8098
  948MOL0     H27933  11.225   9.475   1.879  0.1809 -0.8357 -0.4078
  948MOL0     H27934  11.044   9.344   1.989  0.8168  1.1082 -1.3106
  948MOL0     H27935  11.155   9.291   2.124  0.1816 -0.1355  0.4881
  948MOL0     H27936  11.113   9.585   2.058 -0.0550  0.5057  1.0507
  948MOL0     H27937  11.175   9.516   2.211  1.5101 -3.0710 -0.5388
  948MOL0     H27938  10.957   9.420   2.244  4.2477 -2.4713 -1.9096
  948MOL0     H27939  10.896   9.524   2.111  0.6566  1.8033 -0.7797
  948MOL0     H27940  11.008   9.823   2.424  1.5118 -0.7124  0.3244
  948MOL0     H27941  10.965   9.839   2.660  0.7191  0.1136 -1.7894
  948MOL0     H27942  10.689   9.640   3.027  0.3641 -0.9435 -0.2923
  948MOL0     H27943  10.641   9.667   3.253  1.4572 -1.1953 -1.0155
  948MOL0     H27944  10.847   9.968   3.518  0.6856  2.2600 -1.8051
  948MOL0     H27945  10.699  10.039   3.465 -0.0015  0.0759  0.9599
  948MOL0     H27946  10.566   9.953   3.632  0.4866  1.6347  4.5540
  948MOL0     H27947  10.654   9.798   3.636  0.7414 -0.2643  0.9883
  948MOL0     H27948  10.850   9.946   3.732  0.5549  0.9677 -0.7237
  948MOL0     H27949  10.729  10.069   3.730  4.0550  1.3189 -0.2156
  948MOL0     H27950  10.585   9.910   3.876  0.0264  1.4567 -2.0712
  948MOL0     H27951  10.748   9.978   3.952  1.6346 -3.5485  1.7352
  948MOL0     H27952  10.850   9.765   3.924 -0.0023 -2.6346 -0.7915
  948MOL0     H27953  10.710   9.699   3.840  1.9002  0.5326 -1.2053
  948MOL0     H27954  10.703   9.796   4.138 -2.6584  1.6762 -0.0532
  948MOL0     H27955  10.581   9.703   4.044  0.0199  2.6315  2.2393
  948MOL0     H27956  10.751   9.575   4.205 -2.7673 -0.8775  0.3533
  948MOL0     H27957  10.853   9.590   4.067 -0.0938  1.8086 -1.4130
  948MOL0     H27958  10.574   9.473   4.051  0.6098  4.1421 -0.3368
  948MOL0     H27959  10.682   9.476   3.917  1.9686 -0.8330 -0.6422
  948MOL0     H27960  10.889   9.998   3.291  0.7375 -2.1000  2.6573
  948MOL0     H27961  10.970   9.965   3.036  0.8033 -1.4897 -0.6391
  948MOL0     H27962  10.817   9.437   2.660 -0.3044  0.3832 -1.6049
  948MOL0     H27963  10.856   9.415   2.441  0.7109 -2.3237  4.3183
  948MOL0     H27964  10.785   9.728   0.906 -2.1563 -0.6318  0.2986
  948MOL0     H27965  10.567   9.686   0.870  1.7057  1.2340  1.7246
  948MOL0     H27966  10.254   9.552   0.695 -1.4573  1.9053 -0.6999
  948MOL0     H27967  10.076   9.516   0.531  0.8581 -0.7864 -0.7726
  948MOL0     H27968   9.988   9.102   0.407  1.3466 -0.1827 -0.5190
  948MOL0     H27969  10.078   9.188   0.277  0.5191  0.8769 -0.9672
  948MOL0     H27970   9.857   9.282   0.205  1.5063  0.3556  0.0392
  948MOL0     H27971   9.772   9.207   0.347  1.2320  0.3008  2.0308
  948MOL0     H27972   9.809   8.985   0.240  1.1220  0.7799  1.5267
  948MOL0     H27973   9.928   9.052   0.127 -1.1391 -2.8884 -0.0763
  948MOL0     H27974   9.633   9.117   0.136  0.8674  0.7410  1.6371
  948MOL0     H27975   9.754   9.180   0.010 -1.0463 -1.1266 -1.6799
  948MOL0     H27976   9.636   8.808  -0.142 -1.6311  1.4044 -1.4599
  948MOL0     H27977  10.129   9.090   0.577 -0.5596  0.1990 -0.2812
  948MOL0     H27978  10.247   9.007   0.755  0.7695 -1.7539 -0.3382
  948MOL0     H27979  10.387   9.031   0.638  1.9695  0.4042  0.8815
  948MOL0     H27980  10.396   9.097   0.796  0.9534  2.9184 -2.5223
  949MOL0     O27981   8.371   0.637   0.109  0.4803 -0.0863  0.2652
  949MOL0     C27982   8.294   0.565   0.030 -0.2803 -0.0266 -0.8532
  949MOL0     O27983   8.165   0.529   0.067 -0.7720 -0.6224  0.3839
  949MOL0     C27984   8.106   0.586   0.174  0.7079 -0.7939  0.6948
  949MOL0     C27985   8.004   0.520   0.242 -0.4763 -0.5488 -0.8355
  949MOL0     C27986   7.937   0.583   0.345  0.4265 -0.0109  0.3906
  949MOL0     C27987   7.963   0.714   0.385  0.7851 -0.5223  0.4056
  949MOL0     O27988   7.903   0.797   0.479 -0.6470  0.4589 -0.6304
  949MOL0     C27989   7.891   0.735   0.611 -0.2811  0.0257  0.7801
  949MOL0     C27990   7.875   0.847   0.718 -0.3971 -0.2457  0.6405
  949MOL0     C27991   7.976   0.956   0.690  0.3840  0.9033 -0.4342
  949MOL0     C27992   8.124   0.922   0.657  0.4467 -0.2012 -1.0876
  949MOL0     C27993   8.195   1.053   0.624  0.2220  0.1567  0.5909
  949MOL0     C27994   8.302   1.049   0.517 -0.0350  0.0086  0.2674
  949MOL0     C27995   8.373   1.185   0.497  0.5156 -0.5760 -0.3526
  949MOL0     C27996   8.525   1.178   0.459 -0.0781 -0.4230  0.1424
  949MOL0     N27997   8.605   1.300   0.489 -0.1704  0.8087 -0.1612
  949MOL0     C27998   8.653   1.386   0.391 -1.0631 -0.1764  0.2211
  949MOL0     C27999   8.739   1.460   0.464  0.3356 -0.4624  0.2562
  949MOL0     C28000   8.828   1.561   0.403 -0.5514  0.2425  0.1211
  949MOL0     C28001   8.933   1.492   0.332  0.6829 -0.8116 -0.4027
  949MOL0     C28002   9.011   1.399   0.430 -0.5607 -0.0429 -0.6550
  949MOL0     C28003   9.167   1.411   0.407  0.8654  0.9669  0.4225
  949MOL0     O28004   9.229   1.531   0.465 -0.3294  0.5725 -0.5238
  949MOL0     C28005   9.352   1.568   0.426 -0.0839  0.5259  0.2240
  949MOL0     C28006   9.440   1.479   0.365 -0.2961  0.0179 -0.5311
  949MOL0     C28007   9.574   1.522   0.331 -0.2296  0.6348  0.3052
  949MOL0     C28008   9.625   1.647   0.363  0.2518  0.4383  0.5269
  949MOL0     C28009   9.753   1.700   0.298  0.7795 -0.0313 -0.7271
  949MOL0     O28010   9.819   1.615   0.212 -0.1928 -0.0791 -1.1366
  949MOL0     C28011   9.910   1.668   0.126 -0.4091 -0.7099 -1.1275
  949MOL0     C28012   9.872   1.739   0.010  0.3133 -0.6572  0.0764
  949MOL0     C28013   9.973   1.790  -0.079  0.4603 -0.3523  0.6492
  949MOL0     C28014  10.108   1.753  -0.056  0.1874  0.0146  0.2915
  949MOL0     O28015  10.217   1.786  -0.141 -0.1468 -0.6237  0.0685
  949MOL0     C28016  10.183   1.824  -0.282  0.2665 -0.3170  0.9735
  949MOL0     C28017  10.284   1.783  -0.387 -0.6634 -0.1366  0.0690
  949MOL0     C28018  10.260   1.837  -0.528  0.3610  0.9261 -0.5147
  949MOL0     C28019  10.179   1.741  -0.616 -0.1197  0.2847  0.2859
  949MOL0     C28020  10.181   1.781  -0.762 -0.1036 -0.2356 -0.0440
  949MOL0     C28021  10.157   1.665  -0.857 -0.8224  0.1426 -0.4349
  949MOL0     C28022  10.230   1.673  -0.990 -0.4136  0.4752 -0.7391
  949MOL0     C28023  10.238   1.536  -1.070  0.1694  0.1203  0.3782
  949MOL0    Cl28024  10.322   1.562  -1.228  0.0057 -0.2357  0.1975
  949MOL0     C28025  10.136   1.678   0.057 -1.2244 -0.1021 -0.5545
  949MOL0     C28026  10.044   1.639   0.150 -0.3434 -0.5993  0.0928
  949MOL0     O28027   9.786   1.818   0.320  0.0950 -0.5923  0.0845
  949MOL0     C28028   9.540   1.737   0.426  0.1642  0.2229 -0.1493
  949MOL0     C28029   9.404   1.686   0.467 -0.1426  0.2250  0.4555
  949MOL0     N28030   8.747   1.416   0.589 -0.8470  0.2780  0.3932
  949MOL0     N28031   8.671   1.314   0.602 -0.4870  0.3969 -0.4092
  949MOL0     C28032   8.059   0.787   0.307  0.4974  1.0812 -1.3098
  949MOL0     C28033   8.127   0.724   0.201  0.1995  0.5393 -0.4951
  949MOL0     C28034   8.335   0.499  -0.102 -0.0991  0.2664 -0.3690
  949MOL0     C28035   8.246   0.408  -0.176  0.7066  0.3891 -0.3877
  949MOL0     C28036   8.277   0.351  -0.302 -0.1890  0.5168 -0.2421
  949MOL0     C28037   8.407   0.387  -0.349 -0.1207 -0.5521  0.2445
  949MOL0     O28038   8.452   0.342  -0.473  0.3920 -0.3977  0.1906
  949MOL0     C28039   8.372   0.247  -0.557 -0.6346  0.0502  0.9274
  949MOL0     C28040   8.387   0.094  -0.531  0.4011 -0.1303  0.1454
  949MOL0     C28041   8.316  -0.004  -0.634  0.1570 -0.1912  1.3384
  949MOL0     C28042   8.165   0.013  -0.652  0.4332 -0.9221  1.2275
  949MOL0     C28043   8.097   0.016  -0.524 -0.6677 -0.2620  0.2535
  949MOL0     C28044   8.037   0.001  -0.420 -0.1518 -0.2001 -0.4633
  949MOL0     C28045   8.496   0.469  -0.283 -0.3781 -0.2034  0.2018
  949MOL0     C28046   8.471   0.523  -0.158  0.6103  1.2854  0.4539
  949MOL0     C28047   8.570   0.608  -0.089 -0.2421 -0.7924  0.1381
  949MOL0     H28048   7.990   0.416   0.216 -0.3156 -0.2478 -2.1975
  949MOL0     H28049   7.866   0.532   0.409 -2.0595  1.5020 -1.0094
  949MOL0     H28050   7.800   0.674   0.609  0.0881 -0.5473  1.3509
  949MOL0     H28051   7.982   0.681   0.638  0.5726  0.6496 -0.6855
  949MOL0     H28052   7.900   0.793   0.810 -0.1176 -1.9172 -0.3877
  949MOL0     H28053   7.772   0.886   0.724 -0.2983  0.5722 -1.7609
  949MOL0     H28054   7.973   1.031   0.769  2.5350 -0.0819  0.6395
  949MOL0     H28055   7.932   1.013   0.608 -0.1452 -0.4846 -1.1541
  949MOL0     H28056   8.167   0.874   0.746  0.7397  1.9637  0.0033
  949MOL0     H28057   8.114   0.848   0.577 -3.6832 -1.3416  0.2023
  949MOL0     H28058   8.113   1.120   0.599 -3.2927 -2.4797  3.8831
  949MOL0     H28059   8.239   1.089   0.717 -0.3359  0.8382  0.5953
  949MOL0     H28060   8.370   0.966   0.540  0.6938 -0.7520 -3.9663
  949MOL0     H28061   8.256   1.035   0.419  0.7865  1.0982 -0.2973
  949MOL0     H28062   8.358   1.252   0.582  1.3457  1.6426 -1.8807
  949MOL0     H28063   8.317   1.236   0.418  0.1618 -1.0360 -0.4069
  949MOL0     H28064   8.572   1.091   0.506  1.7208  1.4514  1.9684
  949MOL0     H28065   8.528   1.172   0.350 -0.0221 -0.9042  0.1665
  949MOL0     H28066   8.630   1.381   0.285  0.9332  3.2594 -0.5132
  949MOL0     H28067   8.764   1.620   0.336 -0.4100 -1.8611 -2.0090
  949MOL0     H28068   8.865   1.629   0.480  2.4658 -2.6330  1.4305
  949MOL0     H28069   8.883   1.418   0.268  1.4457 -1.6736 -0.0373
  949MOL0     H28070   8.988   1.557   0.263  0.1569 -0.1026 -0.1631
  949MOL0     H28071   8.982   1.294   0.432  2.6802 -1.0580  0.0378
  949MOL0     H28072   8.996   1.430   0.534  3.1018 -1.7318  0.5626
  949MOL0     H28073   9.180   1.408   0.298  3.6867 -0.9838  0.7053
  949MOL0     H28074   9.213   1.318   0.443 -1.7401  0.0020  1.4624
  949MOL0     H28075   9.411   1.377   0.341 -0.0303 -0.0030 -0.7602
  949MOL0     H28076   9.631   1.447   0.277 -0.7450 -0.6846  1.5082
  949MOL0     H28077   9.766   1.740  -0.012 -0.2205 -1.8943  2.3735
  949MOL0     H28078   9.946   1.846  -0.168 -1.9427 -1.4291  0.5997
  949MOL0     H28079  10.093   1.766  -0.306  0.8372 -1.6701  1.9665
  949MOL0     H28080  10.176   1.934  -0.284  3.7874  0.0534 -3.1145
  949MOL0     H28081  10.380   1.820  -0.351 -0.6700  0.7639 -0.8028
  949MOL0     H28082  10.295   1.674  -0.384  0.3051 -0.1068  4.7845
  949MOL0     H28083  10.222   1.940  -0.528 -0.9909  0.4758 -2.1850
  949MOL0     H28084  10.357   1.838  -0.579  0.1456  0.5345 -0.9352
  949MOL0     H28085  10.074   1.740  -0.586 -0.3292 -1.2080 -0.3955
  949MOL0     H28086  10.216   1.639  -0.604  2.4623  0.7424 -2.6000
  949MOL0     H28087  10.286   1.812  -0.776  0.2690 -0.1597  2.5265
  949MOL0     H28088  10.131   1.875  -0.787 -0.7217 -0.7825 -0.9333
  949MOL0     H28089  10.205   1.578  -0.811 -0.6246  0.9233  0.8953
  949MOL0     H28090  10.050   1.654  -0.879 -1.5041 -0.0037  2.4485
  949MOL0     H28091  10.332   1.713  -0.987 -0.5695  0.8713 -0.6618
  949MOL0     H28092  10.173   1.734  -1.061  0.9487  1.0974 -1.3227
  949MOL0     H28093  10.298   1.454  -1.029  1.3317 -0.1226 -1.6905
  949MOL0     H28094  10.135   1.509  -1.093  0.4855  0.0922 -1.0449
  949MOL0     H28095  10.239   1.644   0.067 -1.8330 -2.1809 -0.8085
  949MOL0     H28096  10.078   1.599   0.245 -0.4501 -0.2958  0.2598
  949MOL0     H28097   9.580   1.833   0.459  1.4727 -0.1704 -0.5402
  949MOL0     H28098   9.335   1.745   0.526  0.6627  0.7869  0.8572
  949MOL0     H28099   8.083   0.890   0.331 -0.1719  0.4627  2.8030
  949MOL0     H28100   8.196   0.789   0.148  0.8866 -1.1062 -1.7139
  949MOL0     H28101   8.145   0.386  -0.142  0.9310 -2.0016 -1.0767
  949MOL0     H28102   8.202   0.280  -0.336 -0.1073 -0.8526  2.1853
  949MOL0     H28103   8.406   0.257  -0.661  0.3295 -3.0490  0.8308
  949MOL0     H28104   8.266   0.276  -0.556 -1.4785 -1.6627 -4.3741
  949MOL0     H28105   8.344   0.078  -0.432  1.3366  0.6393  0.6893
  949MOL0     H28106   8.496   0.083  -0.522  0.4877  1.9684  2.7084
  949MOL0     H28107   8.327  -0.105  -0.593  0.0241 -1.6852 -1.9717
  949MOL0     H28108   8.363  -0.014  -0.732 -1.3558  1.6835  0.3655
  949MOL0     H28109   8.166   0.116  -0.689  1.6278 -1.4653 -0.3214
  949MOL0     H28110   8.121  -0.061  -0.719 -0.6106 -0.0224  0.8734
  949MOL0     H28111   7.999   0.001  -0.319 -3.3093 -1.5821 -1.5243
  949MOL0     H28112   8.592   0.494  -0.328 -0.2392 -4.3334 -2.3829
  949MOL0     H28113   8.662   0.606  -0.148 -2.8792 -4.3169 -4.4733
  949MOL0     H28114   8.530   0.709  -0.103 -0.4217 -0.8006  0.5569
  949MOL0     H28115   8.585   0.577   0.015 -1.6469  1.1251  0.9795
  950MOL0     O28116   1.158   2.822   9.859  0.3369 -0.1832  0.8314
  950MOL0     C28117   1.129   2.711   9.900 -0.7325  0.8993  0.5964
  950MOL0     O28118   1.084   2.690  10.026  0.6938  0.3249  0.0593
  950MOL0     C28119   1.073   2.788  10.126  0.3849  0.1489 -0.8679
  950MOL0     C28120   1.073   2.932  10.116  0.4258  0.1580 -0.5712
  950MOL0     C28121   1.059   3.014  10.227  0.7608 -0.5632 -0.0044
  950MOL0     C28122   1.032   2.958  10.355  0.1483  0.1577  0.0828
  950MOL0     O28123   0.998   3.022  10.472  0.2029 -0.2106  1.4566
  950MOL0     C28124   0.991   3.166  10.471  0.4212  1.1072 -0.0467
  950MOL0     C28125   0.954   3.208  10.609  0.5006  0.3414  0.6760
  950MOL0     C28126   0.942   3.365  10.627 -0.3243  0.0606  0.1408
  950MOL0     C28127   0.890   3.411  10.768 -0.0119 -0.2669  1.0884
  950MOL0     C28128   0.932   3.558  10.791  0.3855  0.5132 -0.4684
  950MOL0     C28129   0.914   3.587  10.939  0.2922  0.2709 -0.2862
  950MOL0     C28130   0.978   3.714  10.966 -0.2550 -0.7457  0.7366
  950MOL0     C28131   0.969   3.764  11.120  0.4775  0.2511  0.3797
  950MOL0     N28132   0.836   3.790  11.183  0.0723 -0.3681  0.2073
  950MOL0     C28133   0.737   3.866  11.122 -0.1556 -0.0542  0.5189
  950MOL0     C28134   0.619   3.847  11.184 -0.7098 -0.3139 -0.0745
  950MOL0     C28135   0.489   3.905  11.129 -0.7249  0.0207  1.2908
  950MOL0     C28136   0.369   3.819  11.151  0.5709 -1.0045  0.4893
  950MOL0     C28137   0.233   3.895  11.124  0.2779 -0.5906  0.1113
  950MOL0     C28138   0.107   3.808  11.126 -0.7880 -0.8332  0.0372
  950MOL0     O28139   0.129   3.705  11.026  0.0019  0.7997  1.4248
  950MOL0     C28140   0.097   3.735  10.895  0.0017 -0.3726 -0.3156
  950MOL0     C28141   0.125   3.642  10.792  0.4031  0.5521  1.3571
  950MOL0     C28142   0.084   3.667  10.658  0.2292 -0.0893 -0.6050
  950MOL0     C28143   0.032   3.788  10.612 -0.1703 -0.4585  0.0148
  950MOL0     C28144  -0.000   3.816  10.473  0.5279 -0.0258  0.6244
  950MOL0     O28145  -0.009   3.953  10.429  0.3438  0.5042 -0.5390
  950MOL0     C28146  -0.048   3.984  10.302  0.5448 -0.0121 -0.1712
  950MOL0     C28147  -0.158   3.926  10.236 -1.1605 -0.0212 -0.2924
  950MOL0     C28148  -0.192   3.973  10.105  0.1526  0.6633 -0.7445
  950MOL0     C28149  -0.123   4.079  10.042  0.7532 -0.1079 -0.0796
  950MOL0     O28150  -0.130   4.121   9.917  0.2207 -0.4856  0.1769
  950MOL0     C28151  -0.220   4.066   9.815 -0.2407  0.0963 -0.0629
  950MOL0     C28152  -0.193   3.925   9.753 -0.8771  0.0924 -0.7631
  950MOL0     C28153  -0.303   3.861   9.674  0.2525  1.4354 -0.1511
  950MOL0     C28154  -0.246   3.739   9.591 -0.2799  0.5915 -0.3056
  950MOL0     C28155  -0.362   3.666   9.538  0.3803  0.6869  0.0413
  950MOL0     C28156  -0.333   3.554   9.448 -0.0562 -0.3463 -0.2010
  950MOL0     C28157  -0.464   3.498   9.384  0.2359 -0.8508  0.0957
  950MOL0     C28158  -0.579   3.470   9.479 -0.5419  0.4752  0.1118
  950MOL0    Cl28159  -0.661   3.606   9.548 -0.0076  0.1167  0.0150
  950MOL0     C28160  -0.007   4.131  10.114 -0.0876  0.2206  0.0001
  950MOL0     C28161   0.020   4.097  10.248 -0.2038  0.1999 -0.2204
  950MOL0     O28162  -0.015   3.715  10.403  0.1251 -1.0509 -0.5026
  950MOL0     C28163   0.009   3.883  10.723 -0.0318  1.0290  0.0199
  950MOL0     C28164   0.038   3.864  10.854  0.4490  0.1246  0.4154
  950MOL0     N28165   0.649   3.744  11.275 -0.2219  0.5922  0.5225
  950MOL0     N28166   0.776   3.713  11.277 -0.6145 -0.2373  0.3641
  950MOL0     C28167   1.047   2.817  10.372  0.1512  0.4111  0.4197
  950MOL0     C28168   1.054   2.732  10.254  0.3015 -0.0077 -0.8188
  950MOL0     C28169   1.135   2.594   9.805 -0.1208 -0.2427 -1.0365
  950MOL0     C28170   1.139   2.468   9.855  0.1546  0.6561 -0.4807
  950MOL0     C28171   1.159   2.359   9.765  0.2245  0.0955 -0.0136
  950MOL0     C28172   1.158   2.371   9.630  0.6378  0.5925 -0.0065
  950MOL0     O28173   1.158   2.255   9.562  0.0302  0.7439  0.6001
  950MOL0     C28174   1.215   2.246   9.431  0.1951 -0.4453  1.1718
  950MOL0     C28175   1.191   2.102   9.385 -0.2535 -0.2807  0.2755
  950MOL0     C28176   1.063   2.037   9.422  0.2305  0.7870  1.1631
  950MOL0     C28177   1.028   1.905   9.341  0.5786  0.6498 -0.6275
  950MOL0     C28178   1.127   1.803   9.377  0.3618 -0.8700 -0.2069
  950MOL0     C28179   1.215   1.738   9.427  1.0602  0.1036 -0.1456
  950MOL0     C28180   1.164   2.502   9.579 -0.5823 -0.1864  0.7071
  950MOL0     C28181   1.147   2.612   9.662  0.0441  0.0270  0.1953
  950MOL0     C28182   1.133   2.746   9.592  0.4258  0.4083 -0.6099
  950MOL0     H28183   1.100   2.982  10.023  3.8482 -0.8838 -0.2450
  950MOL0     H28184   1.064   3.122  10.215  1.3836 -0.7111 -1.2889
  950MOL0     H28185   1.082   3.219  10.441  3.0280 -0.5394  4.0712
  950MOL0     H28186   0.914   3.201  10.402  0.6263  0.8576 -0.4030
  950MOL0     H28187   1.028   3.169  10.679  2.0777  2.7496  0.4742
  950MOL0     H28188   0.856   3.168  10.637  0.5934  0.4002  1.0929
  950MOL0     H28189   0.890   3.412  10.543  2.4618  2.8630 -0.2040
  950MOL0     H28190   1.042   3.409  10.623 -0.4422  0.2740 -0.6512
  950MOL0     H28191   0.781   3.411  10.767 -0.1896  1.9906  4.2043
  950MOL0     H28192   0.931   3.348  10.848  1.4588  1.2331  1.5895
  950MOL0     H28193   1.037   3.572  10.764  1.1345  0.8705  2.2788
  950MOL0     H28194   0.877   3.631  10.731  2.6985  1.3804 -1.6444
  950MOL0     H28195   0.809   3.602  10.965  0.3156  2.7916 -1.3847
  950MOL0     H28196   0.968   3.499  10.975 -2.2185 -2.0207 -1.8064
  950MOL0     H28197   0.924   3.792  10.912  4.0041  3.2331  1.5573
  950MOL0     H28198   1.082   3.721  10.932  0.4345 -2.3861  2.2990
  950MOL0     H28199   1.024   3.698  11.187 -2.2053  1.8730  4.5695
  950MOL0     H28200   1.012   3.865  11.124 -0.3012  0.5820  3.7241
  950MOL0     H28201   0.756   3.930  11.036  1.2739 -1.4409 -0.2449
  950MOL0     H28202   0.471   4.008  11.161 -0.6851  2.0431 -4.1316
  950MOL0     H28203   0.509   3.915  11.022  1.5656  2.2892  1.8243
  950MOL0     H28204   0.385   3.730  11.090 -1.3635 -0.1257 -1.4198
  950MOL0     H28205   0.361   3.796  11.258  1.6714  0.9077  1.0265
  950MOL0     H28206   0.239   3.939  11.024  0.5435 -1.9273 -0.4847
  950MOL0     H28207   0.229   3.975  11.198  3.2327  1.1438 -1.4297
  950MOL0     H28208   0.017   3.869  11.113 -0.0949  0.2267  0.0919
  950MOL0     H28209   0.102   3.764  11.225  2.6626 -1.4848  0.0422
  950MOL0     H28210   0.171   3.550  10.827 -4.2995 -2.5515  0.2704
  950MOL0     H28211   0.102   3.588  10.586  1.5634 -0.3631 -0.0045
  950MOL0     H28212  -0.211   3.847  10.287  1.6637 -1.4848  0.6170
  950MOL0     H28213  -0.274   3.926  10.053  1.0376 -1.6447 -0.1904
  950MOL0     H28214  -0.327   4.068   9.839 -0.1856  0.4761  0.1708
  950MOL0     H28215  -0.216   4.139   9.734  1.4879 -0.0158 -0.1144
  950MOL0     H28216  -0.108   3.945   9.687  1.4785  2.9302  2.6901
  950MOL0     H28217  -0.163   3.847   9.824  3.8979  1.6439 -0.7115
  950MOL0     H28218  -0.377   3.840   9.752  2.7307  0.8141  2.1889
  950MOL0     H28219  -0.339   3.935   9.603 -0.9830  2.2985  1.3113
  950MOL0     H28220  -0.186   3.666   9.644 -2.2403 -2.3964 -1.9073
  950MOL0     H28221  -0.191   3.771   9.502 -2.8467 -0.5049 -2.4141
  950MOL0     H28222  -0.429   3.737   9.489  1.9374  0.0911 -3.1652
  950MOL0     H28223  -0.415   3.622   9.624 -0.3382 -0.7392 -1.1062
  950MOL0     H28224  -0.268   3.591   9.369  0.9562 -4.0540 -1.2978
  950MOL0     H28225  -0.287   3.470   9.501 -1.7750 -0.2444  1.5737
  950MOL0     H28226  -0.432   3.401   9.347  2.3368 -0.9812  2.0637
  950MOL0     H28227  -0.505   3.558   9.302 -3.3268 -1.8841  0.9620
  950MOL0     H28228  -0.663   3.432   9.420 -1.1124  1.2285  0.4396
  950MOL0     H28229  -0.555   3.403   9.562  0.9752 -1.9261 -2.1088
  950MOL0     H28230   0.049   4.208  10.061 -0.1928 -1.6740 -3.1445
  950MOL0     H28231   0.100   4.151  10.298 -0.8496  0.8844  0.0865
  950MOL0     H28232  -0.040   3.978  10.706 -2.8215 -0.7932 -3.4366
  950MOL0     H28233   0.024   3.942  10.930  0.3114 -1.3175  1.9280
  950MOL0     H28234   1.030   2.768  10.467 -0.1189 -1.9417 -0.7779
  950MOL0     H28235   1.067   2.624  10.259 -1.7975 -0.3214 -1.2342
  950MOL0     H28236   1.142   2.456   9.963 -2.4130  2.3481 -0.1353
  950MOL0     H28237   1.147   2.260   9.807 -0.7814 -0.1566 -0.8643
  950MOL0     H28238   1.322   2.266   9.426  0.9554 -4.0623 -0.7773
  950MOL0     H28239   1.167   2.316   9.362 -1.8422 -0.0204  2.9090
  950MOL0     H28240   1.276   2.051   9.432  0.5721  1.2010  0.4585
  950MOL0     H28241   1.209   2.075   9.280  1.3905  1.3790  0.0844
  950MOL0     H28242   0.981   2.096   9.379 -0.6275  0.5880  2.4702
  950MOL0     H28243   1.051   2.028   9.530 -0.5031 -0.2930  1.0087
  950MOL0     H28244   0.931   1.865   9.372 -0.6205  2.0777 -2.3757
  950MOL0     H28245   1.034   1.928   9.234 -1.5743  3.1599 -0.2944
  950MOL0     H28246   1.296   1.685   9.472  1.7646  1.8556  0.7121
  950MOL0     H28247   1.159   2.518   9.471 -0.9097 -2.9736  0.2423
  950MOL0     H28248   1.135   2.727   9.485  0.2699 -1.7759 -0.2742
  950MOL0     H28249   1.037   2.790   9.620  0.2815 -1.8157  3.0147
  950MOL0     H28250   1.209   2.821   9.615 -1.1689  2.5165 -1.9139
  951MOL0     O28251   4.328   1.187   4.011 -0.3345  0.3003  0.4877
  951MOL0     C28252   4.284   1.163   4.122  1.0610 -0.0616 -0.0836
  951MOL0     O28253   4.171   1.091   4.144  0.1830 -0.4430 -0.2427
  951MOL0     C28254   4.092   1.038   4.044  0.1690  1.0345  0.2264
  951MOL0     C28255   4.143   0.955   3.952  0.6231 -0.3780 -0.2991
  951MOL0     C28256   4.056   0.894   3.864  0.2266  0.0862 -1.7135
  951MOL0     C28257   3.918   0.923   3.863 -0.5259  0.0126  0.2156
  951MOL0     O28258   3.825   0.850   3.780 -0.4231 -0.1831 -0.7695
  951MOL0     C28259   3.741   0.758   3.856 -0.3271  0.1967  0.1931
  951MOL0     C28260   3.628   0.716   3.768 -0.4854  0.4294 -0.0889
  951MOL0     C28261   3.562   0.595   3.827  0.3768  1.2089  0.5742
  951MOL0     C28262   3.526   0.494   3.712  0.9345  1.4288  0.2331
  951MOL0     C28263   3.644   0.415   3.659  0.7834 -0.5979  0.0748
  951MOL0     C28264   3.630   0.262   3.639 -0.7658  0.0307 -0.0842
  951MOL0     C28265   3.534   0.221   3.538 -0.1078  0.6106  0.3822
  951MOL0     C28266   3.539   0.064   3.528 -0.0155 -0.1596  0.8192
  951MOL0     N28267   3.445   0.025   3.423 -0.3744 -0.4239 -0.2715
  951MOL0     C28268   3.308   0.037   3.407  0.6775 -0.1341  0.2115
  951MOL0     C28269   3.283   0.008   3.280  0.2752  0.2575  0.2126
  951MOL0     C28270   3.154   0.021   3.212 -0.0017 -0.2252  0.6304
  951MOL0     C28271   3.022   0.022   3.301 -0.0642 -0.3573 -0.5377
  951MOL0     C28272   2.901   0.043   3.208 -0.5902 -0.1168  0.3101
  951MOL0     C28273   2.764   0.028   3.282  0.4674 -0.0057  0.0967
  951MOL0     O28274   2.742  -0.111   3.319  0.2676 -0.3812  0.6461
  951MOL0     C28275   2.685  -0.187   3.220  0.5880  1.0893 -0.4399
  951MOL0     C28276   2.652  -0.309   3.285 -0.0631  0.6139  0.3898
  951MOL0     C28277   2.580  -0.406   3.211  0.0493 -0.5098 -0.1279
  951MOL0     C28278   2.536  -0.383   3.077 -0.2165 -0.2733  0.7529
  951MOL0     C28279   2.453  -0.478   3.003 -1.1304 -0.5246  0.2091
  951MOL0     O28280   2.431  -0.604   3.054 -0.4691 -0.1678 -0.0714
  951MOL0     C28281   2.338  -0.682   2.993  0.7842  0.4750 -0.1006
  951MOL0     C28282   2.213  -0.697   3.049  0.2146 -0.3719  0.1138
  951MOL0     C28283   2.125  -0.801   3.023 -0.1550  0.3512  0.5188
  951MOL0     C28284   2.157  -0.886   2.915 -0.0553  0.7116  0.1197
  951MOL0     O28285   2.056  -0.978   2.890 -0.5104  0.2938 -0.4446
  951MOL0     C28286   2.068  -1.051   2.770 -0.4357 -0.7853  0.2006
  951MOL0     C28287   1.934  -1.132   2.749  0.3981  0.2480  0.1590
  951MOL0     C28288   1.933  -1.225   2.627 -0.7787 -0.3617 -0.0814
  951MOL0     C28289   1.806  -1.295   2.625  0.8305  0.1995  1.1837
  951MOL0     C28290   1.800  -1.414   2.530  0.2755 -0.7292  0.3435
  951MOL0     C28291   1.812  -1.368   2.380  0.4363  0.5299  0.4008
  951MOL0     C28292   1.680  -1.392   2.292 -0.0874  0.1458 -0.1448
  951MOL0     C28293   1.721  -1.429   2.145 -0.6416  0.8973 -0.3079
  951MOL0    Cl28294   1.828  -1.312   2.067  0.0532 -0.1005 -0.1464
  951MOL0     C28295   2.287  -0.877   2.854 -0.0940  0.4053  0.1834
  951MOL0     C28296   2.368  -0.767   2.881 -0.4610 -0.8945  0.0931
  951MOL0     O28297   2.419  -0.438   2.889  0.1420  0.2472  0.5457
  951MOL0     C28298   2.571  -0.252   3.020  0.1596  0.2161 -0.2679
  951MOL0     C28299   2.650  -0.168   3.092  0.5326  0.4275 -0.2597
  951MOL0     N28300   3.401  -0.012   3.216 -0.8193 -0.3344 -0.3871
  951MOL0     N28301   3.498   0.001   3.301 -0.6471 -0.0382  0.0326
  951MOL0     C28302   3.868   1.003   3.961  0.0289  0.4470 -0.9903
  951MOL0     C28303   3.956   1.061   4.047 -1.3305  0.6837 -0.7021
  951MOL0     C28304   4.337   1.236   4.242 -0.1433  0.3026  0.1748
  951MOL0     C28305   4.276   1.219   4.366 -0.2079 -0.6614  0.0060
  951MOL0     C28306   4.330   1.262   4.487 -0.3340  0.1508 -0.5413
  951MOL0     C28307   4.444   1.341   4.496 -0.0463  1.1517  0.3601
  951MOL0     O28308   4.504   1.387   4.609  0.0750  0.0759 -0.5237
  951MOL0     C28309   4.428   1.455   4.714  0.0770 -0.4467  0.0605
  951MOL0     C28310   4.450   1.611   4.712  0.8039 -0.3959  0.0276
  951MOL0     C28311   4.582   1.645   4.783  0.1830 -0.0611 -0.6255
  951MOL0     C28312   4.602   1.797   4.837 -0.7186 -0.3717 -0.8039
  951MOL0     C28313   4.602   1.897   4.726 -0.5781  0.7738  0.0585
  951MOL0     C28314   4.622   1.976   4.635 -0.5735 -0.0703 -0.0387
  951MOL0     C28315   4.514   1.350   4.378  0.0659  0.5966  0.8720
  951MOL0     C28316   4.465   1.298   4.251 -0.2847 -0.5678  0.0122
  951MOL0     C28317   4.552   1.316   4.131 -2.0949 -0.3338 -1.0291
  951MOL0     H28318   4.246   0.922   3.943  0.4173 -0.5147 -2.9747
  951MOL0     H28319   4.094   0.814   3.802  2.1466 -1.0290  0.7373
  951MOL0     H28320   3.794   0.668   3.887 -1.9573 -1.0797 -0.5711
  951MOL0     H28321   3.693   0.797   3.947 -3.1523 -2.5487  0.0619
  951MOL0     H28322   3.665   0.703   3.666 -2.1311  1.2402 -0.8424
  951MOL0     H28323   3.559   0.800   3.755 -0.7311  0.3088  0.4170
  951MOL0     H28324   3.471   0.620   3.882 -0.6207 -0.1092 -0.3964
  951MOL0     H28325   3.617   0.545   3.907 -0.1890  1.0343  0.8587
  951MOL0     H28326   3.451   0.427   3.756  1.7396  0.1142 -0.3044
  951MOL0     H28327   3.476   0.544   3.629  0.0990  1.2575  0.6212
  951MOL0     H28328   3.671   0.465   3.565 -3.0204 -1.6146 -1.7486
  951MOL0     H28329   3.733   0.431   3.720  0.5890 -0.6838  0.3833
  951MOL0     H28330   3.727   0.224   3.604  0.0241  0.8774  1.1078
  951MOL0     H28331   3.623   0.203   3.731 -1.5066 -3.0130 -1.9641
  951MOL0     H28332   3.558   0.271   3.444 -0.1159 -0.1099 -0.0101
  951MOL0     H28333   3.436   0.262   3.565  0.9765  4.0155 -0.3128
  951MOL0     H28334   3.643   0.037   3.507  1.3146  0.8930  5.0811
  951MOL0     H28335   3.499   0.014   3.617 -2.7174  1.5823  0.7030
  951MOL0     H28336   3.234   0.073   3.478 -2.5846 -2.5560 -1.6756
  951MOL0     H28337   3.158   0.118   3.160 -1.6358  0.0583  0.9612
  951MOL0     H28338   3.146  -0.064   3.144  1.0643  0.3025 -0.1884
  951MOL0     H28339   3.018  -0.077   3.346  1.1189 -0.9802 -1.7286
  951MOL0     H28340   3.020   0.105   3.373 -2.6137  2.6191 -3.6793
  951MOL0     H28341   2.913  -0.039   3.136  3.7406  0.2396  0.3513
  951MOL0     H28342   2.896   0.142   3.162 -0.8069  0.2135  1.0334
  951MOL0     H28343   2.683   0.056   3.215 -0.3836 -3.5348 -0.5659
  951MOL0     H28344   2.756   0.084   3.376 -0.0849 -1.0352  0.6831
  951MOL0     H28345   2.688  -0.311   3.387  0.0519  2.1018  0.3931
  951MOL0     H28346   2.553  -0.491   3.273  0.9086  0.4949  1.6888
  951MOL0     H28347   2.192  -0.629   3.130  2.3012  1.5365 -0.8177
  951MOL0     H28348   2.028  -0.821   3.068  0.0240 -2.5106 -0.1775
  951MOL0     H28349   2.091  -0.988   2.683  1.5906  0.7725  1.7529
  951MOL0     H28350   2.145  -1.127   2.786  1.7044  0.9897 -1.1364
  951MOL0     H28351   1.923  -1.192   2.840  0.0931  0.6835  0.4118
  951MOL0     H28352   1.856  -1.057   2.730 -2.2298 -3.0820 -4.5862
  951MOL0     H28353   1.950  -1.158   2.543  0.1154 -0.2514  0.1766
  951MOL0     H28354   2.017  -1.294   2.628 -0.6719 -0.2568  1.4736
  951MOL0     H28355   1.729  -1.219   2.609 -1.0819 -1.4210  2.2946
  951MOL0     H28356   1.782  -1.335   2.724 -5.4687  2.9946  1.2708
  951MOL0     H28357   1.707  -1.469   2.549  1.2992 -2.2290  1.2088
  951MOL0     H28358   1.892  -1.470   2.548  0.6100 -1.3085 -2.6654
  951MOL0     H28359   1.837  -1.262   2.376  1.0046  0.4238  0.9012
  951MOL0     H28360   1.898  -1.423   2.340  1.5627 -1.1352  4.5604
  951MOL0     H28361   1.613  -1.307   2.302 -2.3638 -1.0503 -3.5256
  951MOL0     H28362   1.621  -1.479   2.323 -1.6497  1.0237 -0.5658
  951MOL0     H28363   1.773  -1.524   2.158 -4.3428 -1.3151 -0.4091
  951MOL0     H28364   1.638  -1.458   2.081 -0.3132 -1.8847  0.3917
  951MOL0     H28365   2.330  -0.945   2.782 -1.0789 -1.9811  1.7316
  951MOL0     H28366   2.467  -0.780   2.839 -0.6443 -0.9529 -0.3232
  951MOL0     H28367   2.539  -0.216   2.923  0.7214 -0.0760 -0.5658
  951MOL0     H28368   2.667  -0.074   3.042  3.6259 -0.0076 -0.2471
  951MOL0     H28369   3.762   1.026   3.973  0.1167 -0.1719  1.6071
  951MOL0     H28370   3.916   1.128   4.123 -1.4846  0.8308 -0.9117
  951MOL0     H28371   4.173   1.185   4.376 -0.7511  1.0509  0.7073
  951MOL0     H28372   4.272   1.237   4.575  2.5105  3.5977  2.6544
  951MOL0     H28373   4.452   1.409   4.810  0.1728 -0.8486 -0.1513
  951MOL0     H28374   4.320   1.436   4.701  0.4148 -2.4333 -0.2058
  951MOL0     H28375   4.371   1.669   4.759  2.2179  2.2369 -0.6262
  951MOL0     H28376   4.454   1.655   4.611  0.2348 -1.2488 -0.3789
  951MOL0     H28377   4.654   1.622   4.703 -0.4041 -1.3274 -0.8204
  951MOL0     H28378   4.607   1.585   4.871 -2.5500  1.5893  1.3923
  951MOL0     H28379   4.522   1.824   4.907 -0.0629  0.2237 -0.2751
  951MOL0     H28380   4.689   1.794   4.903  0.2771 -2.0702 -2.0834
  951MOL0     H28381   4.653   2.046   4.560 -1.2046 -0.6659 -0.8803
  951MOL0     H28382   4.608   1.404   4.385 -0.7373  2.1335  0.1952
  951MOL0     H28383   4.648   1.359   4.162 -2.0811  1.0781 -2.8056
  951MOL0     H28384   4.568   1.214   4.097  1.0422 -1.5037  3.1117
  951MOL0     H28385   4.507   1.375   4.050  0.1630  1.6380 -0.9707
  952MOL0     O28386   3.692   3.638  10.735 -0.6519 -0.0997 -0.1109
  952MOL0     C28387   3.654   3.628  10.612  0.1950  0.3364 -0.8271
  952MOL0     O28388   3.522   3.631  10.567  0.4067 -0.2769  0.1147
  952MOL0     C28389   3.409   3.597  10.643 -1.4521  0.0776  0.6629
  952MOL0     C28390   3.294   3.625  10.573 -0.1987 -0.1904 -0.1143
  952MOL0     C28391   3.170   3.618  10.639 -1.0857 -0.3588 -0.0119
  952MOL0     C28392   3.159   3.569  10.771  0.6480 -0.7145  0.5782
  952MOL0     O28393   3.048   3.532  10.841 -0.3629 -0.2946 -0.7083
  952MOL0     C28394   2.923   3.585  10.792  1.4749 -0.2820 -0.1307
  952MOL0     C28395   2.802   3.526  10.861 -0.8238  0.2337 -0.4544
  952MOL0     C28396   2.667   3.595  10.833  0.4622 -0.1507 -0.3593
  952MOL0     C28397   2.544   3.516  10.892  0.1600  0.5820  0.6750
  952MOL0     C28398   2.413   3.597  10.871  0.0229 -0.0297  0.6308
  952MOL0     C28399   2.298   3.540  10.940 -0.2685  0.5739  0.0553
  952MOL0     C28400   2.176   3.632  10.954 -0.0118 -0.3183 -0.8464
  952MOL0     C28401   2.131   3.621  11.098  0.7149 -0.2041  0.5466
  952MOL0     N28402   2.026   3.724  11.131 -1.4819  0.8621  0.0177
  952MOL0     C28403   2.061   3.839  11.205  0.2232 -0.5190  0.5777
  952MOL0     C28404   1.946   3.907  11.221  0.5761  0.7733 -1.1287
  952MOL0     C28405   1.911   4.027  11.299 -0.7453 -0.6564 -0.7416
  952MOL0     C28406   1.969   4.029  11.437 -0.0512 -0.8980  0.1026
  952MOL0     C28407   1.944   4.162  11.515 -0.4177 -0.0781  0.3145
  952MOL0     C28408   1.795   4.207  11.527  0.0653 -0.3886 -0.5877
  952MOL0     O28409   1.713   4.106  11.583  0.6660  0.9396  0.3173
  952MOL0     C28410   1.608   4.151  11.665 -0.2274  0.0257 -0.6329
  952MOL0     C28411   1.545   4.279  11.657 -0.1816 -0.3230 -0.5845
  952MOL0     C28412   1.454   4.320  11.751 -0.4035  0.1802 -0.2772
  952MOL0     C28413   1.424   4.241  11.868 -0.2647 -1.0849  0.2573
  952MOL0     C28414   1.308   4.266  11.957 -0.2991 -0.3443 -0.1790
  952MOL0     O28415   1.247   4.391  11.927  0.2028  0.1153  0.3575
  952MOL0     C28416   1.136   4.425  12.014  0.3136  0.3627  0.0620
  952MOL0     C28417   1.148   4.498  12.140  0.9901  0.5616 -0.4165
  952MOL0     C28418   1.039   4.505  12.233  0.1902 -0.6260  0.1962
  952MOL0     C28419   0.915   4.436  12.195 -0.2317  0.6820  0.3614
  952MOL0     O28420   0.801   4.437  12.271 -0.4189 -0.8338 -0.3428
  952MOL0     C28421   0.698   4.533  12.228 -0.8045  0.2243 -0.5749
  952MOL0     C28422   0.554   4.515  12.285 -0.4484  0.2285  0.3070
  952MOL0     C28423   0.490   4.386  12.233 -0.7776 -0.5371 -1.1662
  952MOL0     C28424   0.462   4.373  12.085 -0.4126 -0.6569  0.1638
  952MOL0     C28425   0.371   4.479  12.035 -0.0951 -0.1818  0.9522
  952MOL0     C28426   0.222   4.471  12.085  0.2475  0.0243 -0.2459
  952MOL0     C28427   0.156   4.605  12.051  0.3561 -0.1540  0.6502
  952MOL0     C28428   0.007   4.596  12.073  0.0943  0.6560  0.0832
  952MOL0    Cl28429  -0.065   4.759  12.102  0.4722  0.0444 -0.0045
  952MOL0     C28430   0.906   4.376  12.070 -0.5829 -0.7861  0.4204
  952MOL0     C28431   1.012   4.364  11.981 -0.1060  0.2727  0.6167
  952MOL0     O28432   1.276   4.195  12.050 -0.1205  0.4313 -0.1399
  952MOL0     C28433   1.507   4.128  11.888  0.3290  0.4032  0.5063
  952MOL0     C28434   1.608   4.087  11.788  0.5015  0.1504  0.9234
  952MOL0     N28435   1.848   3.839  11.149  0.1288  0.2940  0.3689
  952MOL0     N28436   1.897   3.733  11.092 -0.0861  0.6309  0.1896
  952MOL0     C28437   3.282   3.529  10.829  1.1836  0.7226 -0.4474
  952MOL0     C28438   3.402   3.549  10.770 -0.0970  0.7144 -0.8819
  952MOL0     C28439   3.754   3.644  10.512 -0.7582 -0.0984 -0.8517
  952MOL0     C28440   3.756   3.754  10.418  0.7086  0.2513 -0.4444
  952MOL0     C28441   3.859   3.776  10.330 -0.7162  0.0449  0.3454
  952MOL0     C28442   3.965   3.685  10.322 -0.5641  0.6585 -0.2364
  952MOL0     O28443   4.065   3.700  10.229  1.2230  0.6543  0.5915
  952MOL0     C28444   4.034   3.759  10.101  0.3505 -0.2819  1.1801
  952MOL0     C28445   4.108   3.695   9.982  0.2395  0.1522  0.2457
  952MOL0     C28446   4.072   3.547   9.948  1.1181  0.6049 -0.1319
  952MOL0     C28447   4.153   3.430  10.024 -0.5847 -1.0987  0.5935
  952MOL0     C28448   4.302   3.456  10.005  0.5402  1.2109 -0.0255
  952MOL0     C28449   4.421   3.474  10.008  0.0766 -0.4965  0.5294
  952MOL0     C28450   3.968   3.578  10.412  0.1778  0.3422 -0.5164
  952MOL0     C28451   3.865   3.556  10.507  0.6826 -0.1806 -0.1696
  952MOL0     C28452   3.875   3.432  10.589  0.8557  0.7632  0.0823
  952MOL0     H28453   3.295   3.660  10.471  2.0810 -1.3888 -0.5854
  952MOL0     H28454   3.089   3.645  10.572  0.5310  3.4768 -0.6593
  952MOL0     H28455   2.929   3.692  10.814 -1.2243 -0.4460  2.0728
  952MOL0     H28456   2.912   3.578  10.683  0.3692 -0.6025 -0.0142
  952MOL0     H28457   2.815   3.532  10.969 -2.6166  0.5831 -0.2228
  952MOL0     H28458   2.780   3.423  10.830 -1.5466 -0.1464  1.2071
  952MOL0     H28459   2.651   3.613  10.726  3.1021 -0.4163 -0.8692
  952MOL0     H28460   2.667   3.691  10.884  1.7161  1.0717 -2.5305
  952MOL0     H28461   2.535   3.410  10.865  1.3684  0.7049 -0.2899
  952MOL0     H28462   2.564   3.511  10.999  1.0283 -1.2635  0.4754
  952MOL0     H28463   2.423   3.699  10.909  0.2828  0.3411 -0.4031
  952MOL0     H28464   2.391   3.599  10.764 -1.0978  0.7563  0.8597
  952MOL0     H28465   2.262   3.455  10.882  0.0948  0.2498  0.3064
  952MOL0     H28466   2.326   3.504  11.040  1.8216  2.5597  0.2652
  952MOL0     H28467   2.095   3.607  10.885  1.6972 -4.5036 -1.5785
  952MOL0     H28468   2.200   3.735  10.927 -0.4179 -0.4059 -1.5627
  952MOL0     H28469   2.086   3.521  11.087 -4.0996  1.9172 -2.1399
  952MOL0     H28470   2.211   3.632  11.171  1.5418 -1.2096 -0.1703
  952MOL0     H28471   2.158   3.862  11.248  0.0869  0.2171  0.5146
  952MOL0     H28472   1.943   4.116  11.245  2.2158 -1.0838  0.1332
  952MOL0     H28473   1.804   4.035  11.320 -0.7497  1.8808 -1.3942
  952MOL0     H28474   1.914   3.951  11.491 -1.0577  0.1507  0.6390
  952MOL0     H28475   2.077   4.011  11.430  0.5543  2.2528 -0.3138
  952MOL0     H28476   1.992   4.243  11.459 -1.6151 -0.1353 -0.8573
  952MOL0     H28477   1.984   4.159  11.616 -0.9339 -3.5653  0.5450
  952MOL0     H28478   1.753   4.244  11.433  1.2916 -0.6482 -1.2581
  952MOL0     H28479   1.796   4.294  11.593 -1.3556  1.3421 -2.7101
  952MOL0     H28480   1.569   4.358  11.587  0.4196  0.7153  0.7500
  952MOL0     H28481   1.399   4.408  11.718  0.6943  1.3228  0.8139
  952MOL0     H28482   1.242   4.547  12.164  0.9626  0.6797 -0.5534
  952MOL0     H28483   1.036   4.570  12.320 -3.3194 -1.3175  0.7601
  952MOL0     H28484   0.746   4.629  12.251  0.8748 -0.5544 -0.7035
  952MOL0     H28485   0.692   4.535  12.119  1.5469 -1.5945 -0.8241
  952MOL0     H28486   0.557   4.510  12.394 -0.5047 -0.1502  0.2922
  952MOL0     H28487   0.501   4.604  12.249  2.6482  1.8490 -0.7050
  952MOL0     H28488   0.558   4.307  12.266  0.4971  1.2801  0.8280
  952MOL0     H28489   0.395   4.381  12.286  0.2872 -1.1317  0.7514
  952MOL0     H28490   0.409   4.279  12.068 -0.9951 -0.0027 -1.9196
  952MOL0     H28491   0.557   4.369  12.030 -0.5107  1.8100 -0.2942
  952MOL0     H28492   0.361   4.486  11.927 -2.3525  2.7917  1.2458
  952MOL0     H28493   0.413   4.577  12.060 -1.2679  0.4224  0.6172
  952MOL0     H28494   0.177   4.388  12.029  1.3027  1.1662 -2.9662
  952MOL0     H28495   0.218   4.444  12.191  0.9786 -1.1520 -0.4897
  952MOL0     H28496   0.178   4.636  11.949  2.0453  0.4208  1.1513
  952MOL0     H28497   0.188   4.679  12.125 -0.8326 -0.5751  1.6201
  952MOL0     H28498  -0.030   4.550  11.981 -1.4581  1.7438  0.1384
  952MOL0     H28499  -0.005   4.527  12.157  0.0941 -0.0039 -0.4435
  952MOL0     H28500   0.806   4.342  12.047 -1.4884  0.3702  2.4235
  952MOL0     H28501   1.020   4.312  11.886  1.4651  2.7311 -0.6938
  952MOL0     H28502   1.499   4.059  11.972 -1.1572 -1.6477 -1.2262
  952MOL0     H28503   1.652   3.988  11.801 -1.1352 -1.1363 -2.2171
  952MOL0     H28504   3.276   3.479  10.925  0.6531 -2.6390 -2.0951
  952MOL0     H28505   3.493   3.526  10.823  0.0745  3.2767  0.0589
  952MOL0     H28506   3.668   3.816  10.410 -0.3214 -1.1042 -0.1240
  952MOL0     H28507   3.838   3.860  10.264  2.5843 -0.4721 -1.5561
  952MOL0     H28508   4.068   3.863  10.103 -0.3682 -0.0461  1.3914
  952MOL0     H28509   3.930   3.742  10.072  0.7376 -0.9270  0.0968
  952MOL0     H28510   4.217   3.712   9.982  0.5833 -1.7956  0.3770
  952MOL0     H28511   4.065   3.738   9.892  2.1257 -0.5889 -1.1008
  952MOL0     H28512   4.089   3.528   9.841 -0.5670  2.7639 -0.8546
  952MOL0     H28513   3.964   3.540   9.964  1.0178 -0.3958 -1.1450
  952MOL0     H28514   4.143   3.433  10.133  3.5682 -0.0124  1.1398
  952MOL0     H28515   4.132   3.335   9.974 -0.6738  0.2648 -2.1285
  952MOL0     H28516   4.525   3.499  10.018 -0.2141  1.6015 -1.0889
  952MOL0     H28517   4.058   3.517  10.406  0.2582  0.6054 -2.9318
  952MOL0     H28518   3.875   3.458  10.696  3.9918  2.5302 -0.2345
  952MOL0     H28519   3.791   3.363  10.580  1.2372  0.0356  1.7185
  952MOL0     H28520   3.967   3.377  10.567 -0.9157 -1.9314 -1.1087
  953MOL0     O28521   3.594   6.403   1.376 -0.4942 -0.5581  0.3112
  953MOL0     C28522   3.617   6.380   1.250  0.8366  0.5422 -0.5164
  953MOL0     O28523   3.551   6.279   1.182  0.0709 -0.5426 -0.4364
  953MOL0     C28524   3.442   6.219   1.242 -0.1556  0.1610 -0.0803
  953MOL0     C28525   3.313   6.252   1.195 -0.1914  0.6295 -0.0142
  953MOL0     C28526   3.196   6.205   1.255  0.5052  0.1001 -0.0103
  953MOL0     C28527   3.199   6.117   1.359 -0.6443 -2.2002  0.4850
  953MOL0     O28528   3.086   6.083   1.410  0.2623  0.6883 -0.0524
  953MOL0     C28529   3.042   5.942   1.387  0.4770 -0.4175 -0.1388
  953MOL0     C28530   2.929   5.894   1.479  0.4430 -0.5666 -0.2227
  953MOL0     C28531   2.889   5.748   1.451 -0.6545  0.0262  0.9137
  953MOL0     C28532   2.765   5.695   1.539  0.5490  0.0167 -0.3087
  953MOL0     C28533   2.717   5.550   1.485 -0.2965 -0.3690 -0.0929
  953MOL0     C28534   2.581   5.519   1.544 -0.2405 -0.0753 -0.1741
  953MOL0     C28535   2.518   5.405   1.475 -0.1314  0.0327 -0.0330
  953MOL0     C28536   2.371   5.386   1.526  0.1506  0.2533  0.8893
  953MOL0     N28537   2.319   5.249   1.500 -0.2868  0.2367  0.4376
  953MOL0     C28538   2.262   5.175   1.603 -0.3926  0.6840  0.3263
  953MOL0     C28539   2.208   5.072   1.534  0.6013 -0.7440 -0.3748
  953MOL0     C28540   2.129   4.955   1.589 -0.7580 -0.8167 -0.3497
  953MOL0     C28541   2.190   4.816   1.569  0.0454 -0.0693 -0.1982
  953MOL0     C28542   2.309   4.794   1.671 -0.5683  1.1965  0.6413
  953MOL0     C28543   2.402   4.678   1.620  0.2209  0.0753 -0.2966
  953MOL0     O28544   2.314   4.556   1.617  0.1315 -0.0992 -0.8005
  953MOL0     C28545   2.307   4.478   1.735  0.0551  0.6921 -0.3408
  953MOL0     C28546   2.359   4.497   1.858 -0.3996  0.1046  0.4251
  953MOL0     C28547   2.321   4.418   1.968  0.7173 -0.3388 -1.0664
  953MOL0     C28548   2.233   4.311   1.955  0.3248 -0.1298  0.3586
  953MOL0     C28549   2.186   4.226   2.068  0.3147 -0.0525 -0.3937
  953MOL0     O28550   2.117   4.112   2.041  0.1040 -0.5776  0.3760
  953MOL0     C28551   2.087   4.021   2.145  0.4010 -0.3779  0.5280
  953MOL0     C28552   2.181   3.931   2.202 -0.0522 -1.2345  0.2830
  953MOL0     C28553   2.134   3.817   2.267 -0.4969 -0.4833  0.0216
  953MOL0     C28554   2.000   3.785   2.263  1.0147  0.8064  0.6093
  953MOL0     O28555   1.969   3.661   2.316  0.4932  0.3976  0.2131
  953MOL0     C28556   1.863   3.588   2.244 -0.0709 -0.4871 -0.4729
  953MOL0     C28557   1.908   3.566   2.104  0.5960 -0.4664 -1.3047
  953MOL0     C28558   2.033   3.478   2.088 -1.0076  0.7573 -0.6216
  953MOL0     C28559   2.114   3.501   1.969  0.1208  0.8025 -0.6005
  953MOL0     C28560   2.194   3.377   1.923  0.0673  0.6460  0.2017
  953MOL0     C28561   2.253   3.409   1.784 -1.2085 -0.4859  0.3101
  953MOL0     C28562   2.161   3.431   1.668  1.0504  0.2394  0.0234
  953MOL0     C28563   2.076   3.303   1.641 -0.7860 -0.0441  0.7654
  953MOL0    Cl28564   1.964   3.345   1.506 -0.0883 -0.0750 -0.4960
  953MOL0     C28565   1.903   3.875   2.214  0.0363  0.3053 -0.1835
  953MOL0     C28566   1.946   3.991   2.147 -0.4122 -0.0234  0.4771
  953MOL0     O28567   2.211   4.276   2.185 -0.2973  0.0964  0.6252
  953MOL0     C28568   2.192   4.291   1.827  0.7860  0.4799  0.7734
  953MOL0     C28569   2.231   4.365   1.717 -0.7906 -0.8746  0.3051
  953MOL0     N28570   2.236   5.078   1.400  0.4185  0.1113  0.2866
  953MOL0     N28571   2.304   5.185   1.375 -0.0829 -0.3896 -0.1224
  953MOL0     C28572   3.324   6.089   1.410  0.5276 -0.8919 -0.4717
  953MOL0     C28573   3.447   6.138   1.359 -0.5357  0.9438  0.2008
  953MOL0     C28574   3.731   6.465   1.195  0.0669  0.7436  0.4224
  953MOL0     C28575   3.794   6.555   1.287 -0.0949  0.0723 -0.3128
  953MOL0     C28576   3.895   6.650   1.248  0.9258 -0.0313  0.3101
  953MOL0     C28577   3.935   6.651   1.112 -0.1424  0.2744 -0.0833
  953MOL0     O28578   4.041   6.734   1.078 -0.0049 -0.1570 -0.0584
  953MOL0     C28579   4.048   6.784   0.944  0.3134 -0.0122  0.0326
  953MOL0     C28580   4.169   6.861   0.933 -0.5944 -0.3534 -0.5874
  953MOL0     C28581   4.196   6.905   0.789 -0.9385  0.0293 -0.3282
  953MOL0     C28582   4.294   7.021   0.769  0.6459 -0.0736 -0.1954
  953MOL0     C28583   4.431   6.980   0.727 -0.4847 -0.2801 -0.4055
  953MOL0     C28584   4.548   6.963   0.706 -0.5589 -0.6805 -0.5010
  953MOL0     C28585   3.879   6.549   1.024 -0.3467 -0.4207 -0.3997
  953MOL0     C28586   3.779   6.464   1.066 -0.1673  0.2372  0.0638
  953MOL0     C28587   3.710   6.374   0.962 -0.0070  0.1875 -0.6867
  953MOL0     H28588   3.311   6.318   1.109  2.1738 -2.1193 -2.3423
  953MOL0     H28589   3.095   6.228   1.222  0.2705 -3.1150 -1.9848
  953MOL0     H28590   3.015   5.919   1.283 -1.0530  0.0166  0.1321
  953MOL0     H28591   3.132   5.881   1.397  2.3436  1.9452 -1.3656
  953MOL0     H28592   2.838   5.955   1.468 -1.1427 -2.7469  0.1377
  953MOL0     H28593   2.969   5.900   1.581 -0.2865 -0.1995  0.0473
  953MOL0     H28594   2.982   5.697   1.479  0.3609 -0.1876 -2.3404
  953MOL0     H28595   2.876   5.732   1.343  0.0660 -1.2714  0.9924
  953MOL0     H28596   2.793   5.690   1.644  3.3230  2.1037 -0.8285
  953MOL0     H28597   2.681   5.764   1.528  1.0861  0.7296  0.0053
  953MOL0     H28598   2.715   5.542   1.376  3.0951  0.3775 -0.2976
  953MOL0     H28599   2.787   5.473   1.516  2.4658  1.4922 -1.3018
  953MOL0     H28600   2.590   5.497   1.651 -2.5657 -1.1515 -0.1437
  953MOL0     H28601   2.506   5.596   1.523 -0.7275  0.3413  2.7306
  953MOL0     H28602   2.582   5.318   1.492  1.1612  1.3859  2.5689
  953MOL0     H28603   2.520   5.425   1.367  1.7536  1.8648  0.2767
  953MOL0     H28604   2.354   5.404   1.632 -0.5310  0.9781  0.6688
  953MOL0     H28605   2.310   5.465   1.481  0.1194 -0.9941 -1.4081
  953MOL0     H28606   2.249   5.196   1.708  0.3383 -0.9752  0.7831
  953MOL0     H28607   2.116   4.978   1.696  0.9326 -1.8734  0.1302
  953MOL0     H28608   2.037   4.953   1.531  0.4560  0.6722 -2.4403
  953MOL0     H28609   2.131   4.724   1.576  3.2656 -2.2300  0.9960
  953MOL0     H28610   2.227   4.814   1.466 -3.5913 -0.4701 -1.6459
  953MOL0     H28611   2.269   4.772   1.771  1.2731 -1.0120  0.9744
  953MOL0     H28612   2.371   4.884   1.677  0.4090  0.5632  0.3948
  953MOL0     H28613   2.486   4.657   1.687  0.9341  2.4955 -0.3412
  953MOL0     H28614   2.439   4.723   1.528  0.7968  0.1646 -0.0258
  953MOL0     H28615   2.427   4.581   1.867  0.2569 -0.4715  0.9453
  953MOL0     H28616   2.361   4.450   2.063 -1.8721  0.3781 -0.1427
  953MOL0     H28617   2.286   3.941   2.179  0.5442  0.2405  3.1978
  953MOL0     H28618   2.200   3.742   2.309 -0.3923 -0.6274 -0.3967
  953MOL0     H28619   1.843   3.484   2.273 -2.9092  0.3607  0.9603
  953MOL0     H28620   1.769   3.643   2.253  0.7334  0.9350 -0.5831
  953MOL0     H28621   1.824   3.520   2.051  0.8763 -1.1728 -1.1454
  953MOL0     H28622   1.923   3.659   2.049  3.1512  0.3065  0.5256
  953MOL0     H28623   2.100   3.481   2.175 -1.4556 -2.0835 -0.0681
  953MOL0     H28624   1.994   3.376   2.078  1.8856 -0.3955 -1.3402
  953MOL0     H28625   2.184   3.578   2.001  0.6374 -0.1836  0.7268
  953MOL0     H28626   2.055   3.538   1.884 -0.3706 -0.2364 -0.7332
  953MOL0     H28627   2.128   3.291   1.910  0.4618  0.2375  0.8647
  953MOL0     H28628   2.260   3.360   2.009  0.2121  0.3029  0.0216
  953MOL0     H28629   2.322   3.493   1.775  1.8080 -2.9443 -2.7040
  953MOL0     H28630   2.319   3.325   1.759  1.0531  1.9137 -2.4125
  953MOL0     H28631   2.223   3.447   1.580  0.1988  0.6498 -0.5259
  953MOL0     H28632   2.101   3.522   1.681  1.3472  0.4068  0.2299
  953MOL0     H28633   2.149   3.227   1.608 -0.6841  1.2347 -2.3411
  953MOL0     H28634   2.022   3.270   1.730 -0.6697 -0.5101  0.6667
  953MOL0     H28635   1.797   3.863   2.197 -0.1955  3.8587 -2.3067
  953MOL0     H28636   1.883   4.053   2.083  0.2485  2.7653  2.3149
  953MOL0     H28637   2.109   4.225   1.802  2.7968 -2.6587  1.8982
  953MOL0     H28638   2.198   4.343   1.616  0.0618 -1.3616  0.1260
  953MOL0     H28639   3.333   6.015   1.489 -1.1438  0.1465  0.7411
  953MOL0     H28640   3.539   6.096   1.398  0.4009 -1.0742 -3.6418
  953MOL0     H28641   3.751   6.568   1.386  2.7560  1.8493  0.8370
  953MOL0     H28642   3.941   6.718   1.319  1.0147  1.6810 -1.3185
  953MOL0     H28643   3.957   6.842   0.924  0.4598  0.1870 -0.0681
  953MOL0     H28644   4.071   6.702   0.875  0.2398 -0.4288  0.4974
  953MOL0     H28645   4.251   6.801   0.974 -0.9690 -0.9175 -0.6529
  953MOL0     H28646   4.168   6.943   1.005  4.1420  0.6338 -1.3397
  953MOL0     H28647   4.097   6.933   0.752 -2.6598 -2.3100  2.0303
  953MOL0     H28648   4.235   6.820   0.732  1.4593  1.3434 -0.7721
  953MOL0     H28649   4.247   7.094   0.702 -0.7559  0.0084  0.8249
  953MOL0     H28650   4.304   7.075   0.864  1.6246  1.6945 -1.2515
  953MOL0     H28651   4.650   6.934   0.688  0.7321  2.8237  0.3119
  953MOL0     H28652   3.920   6.557   0.924  0.6574  1.6845  0.1252
  953MOL0     H28653   3.604   6.395   0.946 -0.3060 -1.1594 -0.5949
  953MOL0     H28654   3.767   6.377   0.869  1.3588  2.6597  0.1433
  953MOL0     H28655   3.721   6.271   0.998 -4.4235 -0.4167 -0.5855
  954MOL0     O28656   6.348   7.605   1.315 -0.2251  0.6854  0.1050
  954MOL0     C28657   6.254   7.576   1.381 -0.4083 -0.0048  0.1585
  954MOL0     O28658   6.133   7.546   1.333  0.1469 -0.1501  0.1113
  954MOL0     C28659   6.129   7.488   1.202 -0.3838 -1.0871 -0.5438
  954MOL0     C28660   6.016   7.508   1.118  0.4843 -0.2430 -0.2384
  954MOL0     C28661   6.002   7.452   0.993 -0.1963  0.5634 -0.0516
  954MOL0     C28662   6.103   7.355   0.956  0.2729 -0.6749  0.2637
  954MOL0     O28663   6.086   7.305   0.831 -0.0264 -0.7399 -0.5376
  954MOL0     C28664   6.182   7.216   0.780 -0.4540 -0.2222  0.2756
  954MOL0     C28665   6.158   7.201   0.628 -0.9057 -0.5968 -0.5403
  954MOL0     C28666   6.281   7.153   0.556  0.6213 -0.0741 -0.5628
  954MOL0     C28667   6.313   7.001   0.558 -0.0233 -0.0574  0.2702
  954MOL0     C28668   6.447   6.959   0.480 -0.4654  0.1153 -0.9464
  954MOL0     C28669   6.414   6.945   0.328  0.9965 -0.2065  0.1863
  954MOL0     C28670   6.541   6.914   0.248 -1.1842  0.0175 -0.0663
  954MOL0     C28671   6.609   6.786   0.286  0.0774 -0.6974 -0.3232
  954MOL0     N28672   6.684   6.707   0.179 -0.3641 -0.2469  0.8149
  954MOL0     C28673   6.645   6.681   0.049  0.7404 -0.3668 -0.2039
  954MOL0     C28674   6.725   6.580   0.009 -0.0176  0.7467 -0.4027
  954MOL0     C28675   6.701   6.491  -0.111  0.4276  0.4885 -0.8750
  954MOL0     C28676   6.570   6.396  -0.104 -0.3180 -0.9045  0.4010
  954MOL0     C28677   6.437   6.479  -0.133  0.0188 -1.3843  0.1631
  954MOL0     C28678   6.328   6.417  -0.223  0.9823 -0.3845 -0.0871
  954MOL0     O28679   6.230   6.520  -0.243 -0.4396 -0.3173  0.1973
  954MOL0     C28680   6.136   6.535  -0.153  0.7997  0.0155  0.0916
  954MOL0     C28681   6.027   6.615  -0.181  0.8240 -0.1455 -0.1758
  954MOL0     C28682   5.933   6.654  -0.073 -0.7617  0.1346  0.2269
  954MOL0     C28683   5.940   6.591   0.052  0.3481  0.9885  0.5490
  954MOL0     C28684   5.847   6.612   0.161  0.2188  0.3939 -0.4838
  954MOL0     O28685   5.812   6.746   0.182  0.1024 -0.3575  0.0091
  954MOL0     C28686   5.719   6.764   0.279  0.8217  0.8801 -0.7600
  954MOL0     C28687   5.738   6.869   0.374  0.5599 -0.1010 -0.3170
  954MOL0     C28688   5.641   6.913   0.463  0.7855  0.5708 -0.2691
  954MOL0     C28689   5.512   6.864   0.435 -0.9857 -0.3108 -0.0361
  954MOL0     O28690   5.401   6.908   0.500  0.1284  0.2444 -0.0691
  954MOL0     C28691   5.362   6.849   0.623 -0.5441 -0.9942  0.2134
  954MOL0     C28692   5.265   6.939   0.705  0.7221 -0.3322 -0.0375
  954MOL0     C28693   5.135   6.974   0.627 -0.4047  0.2677 -0.4968
  954MOL0     C28694   5.035   7.046   0.714  0.2605  0.0955  0.7182
  954MOL0     C28695   4.920   7.086   0.609 -0.2824  0.6071  0.3940
  954MOL0     C28696   4.846   7.219   0.639 -0.0664 -0.4872  0.4780
  954MOL0     C28697   4.784   7.217   0.785 -0.6554  0.4447  0.1260
  954MOL0     C28698   4.698   7.337   0.813  0.0336 -0.5872 -0.6917
  954MOL0    Cl28699   4.775   7.490   0.768 -0.3046 -0.5362  0.1342
  954MOL0     C28700   5.485   6.773   0.335 -0.6116 -0.1991 -0.9055
  954MOL0     C28701   5.587   6.713   0.262 -0.0852 -0.5333  0.3176
  954MOL0     O28702   5.791   6.518   0.220  0.1777  0.5800  0.8754
  954MOL0     C28703   6.045   6.502   0.069  0.3156 -0.3611  0.3704
  954MOL0     C28704   6.142   6.477  -0.022  1.0633  0.0853 -0.6711
  954MOL0     N28705   6.835   6.575   0.089 -0.9946  0.7098 -0.3761
  954MOL0     N28706   6.809   6.647   0.197  1.1003  0.2059  0.8335
  954MOL0     C28707   6.214   7.323   1.040  0.2007 -0.1969 -0.5785
  954MOL0     C28708   6.227   7.393   1.157 -0.0072 -0.0972 -0.1141
  954MOL0     C28709   6.255   7.565   1.531 -0.1184  0.0604  0.2730
  954MOL0     C28710   6.138   7.596   1.606 -0.4674  0.7785  0.4921
  954MOL0     C28711   6.141   7.593   1.744 -0.5390  0.2881 -0.2674
  954MOL0     C28712   6.245   7.539   1.819 -0.2474  1.3255  0.0164
  954MOL0     O28713   6.254   7.536   1.947 -0.5883  0.3684  0.0484
  954MOL0     C28714   6.363   7.498   2.024 -0.4198  0.5152 -0.4613
  954MOL0     C28715   6.462   7.611   2.038  0.4802 -0.7847 -0.5700
  954MOL0     C28716   6.608   7.579   2.085  0.3125 -0.2740  0.4196
  954MOL0     C28717   6.712   7.658   2.008  0.5446  0.6498 -1.1908
  954MOL0     C28718   6.725   7.611   1.871  0.7950 -0.4901 -0.3781
  954MOL0     C28719   6.732   7.581   1.757 -0.0326  1.0897  0.1687
  954MOL0     C28720   6.359   7.495   1.741  0.5119  0.4922 -0.0338
  954MOL0     C28721   6.362   7.516   1.602 -0.0546 -1.1364 -0.2830
  954MOL0     C28722   6.491   7.482   1.531  0.8578 -0.7354 -0.0355
  954MOL0     H28723   5.952   7.590   1.150  2.5597  1.4782 -0.2236
  954MOL0     H28724   5.915   7.476   0.933 -0.1534 -0.3465 -0.4951
  954MOL0     H28725   6.282   7.259   0.792  0.4075 -2.0720  0.0047
  954MOL0     H28726   6.176   7.118   0.827 -0.7214  0.0130  0.7450
  954MOL0     H28727   6.153   7.304   0.590 -2.8107 -0.6235 -0.4470
  954MOL0     H28728   6.065   7.152   0.599 -3.2723  1.9953  2.0002
  954MOL0     H28729   6.371   7.201   0.594  1.4115 -1.2735 -0.8910
  954MOL0     H28730   6.261   7.194   0.456 -3.6092  1.1898  0.5864
  954MOL0     H28731   6.330   6.985   0.665 -0.8662 -0.5843  0.3330
  954MOL0     H28732   6.230   6.943   0.518 -0.0316 -0.7808  1.3013
  954MOL0     H28733   6.532   7.027   0.491 -0.2219 -0.3059 -0.1984
  954MOL0     H28734   6.475   6.862   0.522  0.0070  0.0833 -1.3273
  954MOL0     H28735   6.334   6.873   0.307 -0.7842  1.5827  0.4820
  954MOL0     H28736   6.380   7.044   0.296  2.3134  0.2479  0.1366
  954MOL0     H28737   6.603   7.005   0.256 -0.6167 -0.1895 -1.8001
  954MOL0     H28738   6.507   6.910   0.145 -1.5450  2.0054 -0.0692
  954MOL0     H28739   6.676   6.806   0.369 -0.4114  4.2909 -0.8341
  954MOL0     H28740   6.525   6.722   0.314  0.4090 -1.3261 -0.7511
  954MOL0     H28741   6.546   6.718   0.023  1.3158  1.4109 -0.0636
  954MOL0     H28742   6.711   6.548  -0.203 -0.8680  0.7677 -0.8604
  954MOL0     H28743   6.785   6.421  -0.106 -1.0364 -1.3538  4.1732
  954MOL0     H28744   6.583   6.304  -0.162 -1.0823 -2.7844  3.0256
  954MOL0     H28745   6.553   6.356  -0.004  1.3624 -3.1907 -0.1589
  954MOL0     H28746   6.455   6.574  -0.186 -1.7779 -0.8624  0.4085
  954MOL0     H28747   6.390   6.499  -0.036 -2.7343 -1.6626 -1.0035
  954MOL0     H28748   6.277   6.337  -0.169  1.6967  0.8970  2.6780
  954MOL0     H28749   6.377   6.384  -0.315 -2.2315 -0.5697 -1.8956
  954MOL0     H28750   6.032   6.648  -0.284 -1.5061 -2.4452 -1.1403
  954MOL0     H28751   5.861   6.734  -0.084  0.1276  1.1009  1.1159
  954MOL0     H28752   5.837   6.914   0.379 -0.5488  2.3659  1.0804
  954MOL0     H28753   5.662   6.982   0.544 -1.5136 -3.3166  4.0880
  954MOL0     H28754   5.309   6.755   0.604 -2.3447  0.0918 -0.3826
  954MOL0     H28755   5.449   6.818   0.681  2.2531 -0.2122 -3.2622
  954MOL0     H28756   5.238   6.886   0.797  1.4673  1.5358  1.3135
  954MOL0     H28757   5.312   7.036   0.726 -1.4498  1.1903 -1.8305
  954MOL0     H28758   5.157   7.031   0.537 -2.4928  3.0050  0.5630
  954MOL0     H28759   5.085   6.884   0.592  1.3505 -2.9733  4.3238
  954MOL0     H28760   5.089   7.134   0.752  3.4215 -0.1234 -2.7089
  954MOL0     H28761   5.003   6.973   0.789 -1.0921  0.3297  0.3870
  954MOL0     H28762   4.841   7.011   0.610 -2.6225  2.8970  1.7152
  954MOL0     H28763   4.954   7.095   0.506 -3.4269 -1.5948 -1.0008
  954MOL0     H28764   4.912   7.303   0.616  3.6527 -3.5034 -0.9406
  954MOL0     H28765   4.756   7.223   0.577 -0.7665 -1.6648  1.3803
  954MOL0     H28766   4.866   7.211   0.857 -0.2277  2.1587 -0.1705
  954MOL0     H28767   4.713   7.134   0.783 -2.7801  2.1646 -1.5176
  954MOL0     H28768   4.598   7.330   0.769  0.9973  3.3456 -4.1873
  954MOL0     H28769   4.690   7.339   0.922  1.8251 -1.5614 -0.4982
  954MOL0     H28770   5.386   6.743   0.301 -0.0907 -1.0986 -1.6624
  954MOL0     H28771   5.575   6.650   0.174 -0.1444  0.3309 -0.3109
  954MOL0     H28772   6.053   6.433   0.152  1.6397 -1.2860 -0.4976
  954MOL0     H28773   6.206   6.395   0.009 -0.8205 -0.4216  2.2705
  954MOL0     H28774   6.288   7.251   1.006  1.5904 -0.5611  2.7828
  954MOL0     H28775   6.309   7.371   1.224 -1.5580 -1.8046  1.3238
  954MOL0     H28776   6.055   7.646   1.556 -1.2365  0.0214  0.9798
  954MOL0     H28777   6.060   7.640   1.799 -0.6215  1.0963 -1.0548
  954MOL0     H28778   6.404   7.406   1.981 -1.8632 -0.6306  0.5235
  954MOL0     H28779   6.327   7.480   2.126 -3.3421  3.8880 -0.7173
  954MOL0     H28780   6.422   7.678   2.115  4.3921  3.1386 -1.5128
  954MOL0     H28781   6.458   7.653   1.937 -2.0186  0.6655  0.0357
  954MOL0     H28782   6.623   7.471   2.077  1.6384 -0.2469  1.8491
  954MOL0     H28783   6.615   7.612   2.190 -1.0270 -1.3010  0.8596
  954MOL0     H28784   6.686   7.763   2.021 -0.8095  0.2092 -0.0337
  954MOL0     H28785   6.801   7.630   2.065 -0.5587 -2.1770 -0.6785
  954MOL0     H28786   6.762   7.552   1.658 -0.5453  0.1989  0.2659
  954MOL0     H28787   6.450   7.458   1.788  0.5271  2.2471  1.4132
  954MOL0     H28788   6.540   7.554   1.464  0.8447 -0.2098  0.5191
  954MOL0     H28789   6.569   7.456   1.603  0.6656 -1.0995  0.0377
  954MOL0     H28790   6.468   7.393   1.472  1.0072 -0.4362 -0.5561
  955MOL0     O28791   0.245   1.017   5.536 -0.0546 -0.9786 -0.4910
  955MOL0     C28792   0.315   0.923   5.514 -1.1250 -0.4134  0.6457
  955MOL0     O28793   0.390   0.855   5.611  0.6365  0.0527  0.0582
  955MOL0     C28794   0.377   0.878   5.742  0.1969  0.2580  0.1029
  955MOL0     C28795   0.257   0.886   5.808  0.9471  0.2009 -0.1422
  955MOL0     C28796   0.256   0.911   5.939  0.6620 -1.1503  0.8858
  955MOL0     C28797   0.375   0.932   6.007  0.1538  0.3678  0.0626
  955MOL0     O28798   0.359   0.985   6.131 -0.5105 -0.2325 -0.2647
  955MOL0     C28799   0.448   0.946   6.233 -0.5084 -0.3962  0.5939
  955MOL0     C28800   0.372   1.001   6.356  0.0275  0.3498 -0.3622
  955MOL0     C28801   0.439   0.952   6.482 -0.3397 -0.3433  0.1380
  955MOL0     C28802   0.363   1.005   6.600 -1.1576  0.5752 -0.2330
  955MOL0     C28803   0.414   0.973   6.733  0.0702 -0.1554 -0.1451
  955MOL0     C28804   0.563   1.006   6.757 -0.3085 -0.1151  0.4358
  955MOL0     C28805   0.598   1.159   6.747 -0.0212 -0.9603 -0.7061
  955MOL0     C28806   0.739   1.181   6.793  0.0611 -0.3662 -0.2901
  955MOL0     N28807   0.782   1.184   6.937  0.3012 -0.3662  0.9549
  955MOL0     C28808   0.730   1.100   7.038  0.1529  0.0897  0.5988
  955MOL0     C28809   0.773   1.148   7.148  0.2423 -0.4191  0.0268
  955MOL0     C28810   0.769   1.099   7.281 -0.1482 -0.2817 -0.7341
  955MOL0     C28811   0.631   1.115   7.349  0.3283  0.5788  0.1403
  955MOL0     C28812   0.631   1.032   7.483 -0.0971 -0.6595  1.2293
  955MOL0     C28813   0.551   1.097   7.593  0.4576  0.3916  0.4656
  955MOL0     O28814   0.418   1.112   7.547  0.6129 -0.9517  0.7488
  955MOL0     C28815   0.320   1.015   7.556  0.6059 -0.1241 -0.0497
  955MOL0     C28816   0.186   1.060   7.524 -0.7571  0.0561  0.9512
  955MOL0     C28817   0.092   0.951   7.501  0.0922  0.6500 -0.6228
  955MOL0     C28818   0.112   0.821   7.539 -0.8287  0.1108  0.1209
  955MOL0     C28819   0.014   0.714   7.503 -1.0959 -0.3266 -0.2871
  955MOL0     O28820  -0.122   0.755   7.510 -0.4068  0.1404  0.1443
  955MOL0     C28821  -0.218   0.654   7.506  0.2635  0.6318 -0.1476
  955MOL0     C28822  -0.269   0.610   7.381  0.1707 -0.4912  0.2633
  955MOL0     C28823  -0.367   0.503   7.377  0.7566 -0.0768  0.1391
  955MOL0     C28824  -0.417   0.440   7.499  0.4088  0.7321  1.0482
  955MOL0     O28825  -0.490   0.326   7.497 -0.5566  0.3554 -0.1381
  955MOL0     C28826  -0.509   0.264   7.362 -0.0508 -0.1518 -0.8526
  955MOL0     C28827  -0.580   0.128   7.381  0.0402 -0.1157  0.0848
  955MOL0     C28828  -0.610   0.085   7.240 -0.1734  0.1775  0.4986
  955MOL0     C28829  -0.501   0.008   7.163 -0.1158 -0.5232 -0.4622
  955MOL0     C28830  -0.504  -0.138   7.209  0.4496  0.6980  0.7520
  955MOL0     C28831  -0.411  -0.237   7.127  0.3057  0.4607  0.5254
  955MOL0     C28832  -0.450  -0.373   7.167  0.6087 -0.0173 -0.1498
  955MOL0     C28833  -0.369  -0.477   7.094 -0.2808  1.2675  0.5333
  955MOL0    Cl28834  -0.205  -0.475   7.173 -0.2170  0.2050  0.2150
  955MOL0     C28835  -0.360   0.480   7.622  0.4590  0.1349  0.6369
  955MOL0     C28836  -0.269   0.588   7.619 -1.1735  0.7727 -0.0071
  955MOL0     O28837   0.060   0.605   7.463 -0.3420 -0.5724 -0.1571
  955MOL0     C28838   0.232   0.794   7.588 -0.7713  0.4396  0.0265
  955MOL0     C28839   0.344   0.882   7.606  0.5368 -0.0296 -0.6778
  955MOL0     N28840   0.859   1.253   7.114 -0.6345  0.7574 -0.5555
  955MOL0     N28841   0.855   1.282   6.995 -0.5848 -0.0092  0.8522
  955MOL0     C28842   0.495   0.919   5.937 -0.6919 -0.4812 -0.5880
  955MOL0     C28843   0.495   0.881   5.811 -0.0715 -0.0035 -0.3818
  955MOL0     C28844   0.335   0.881   5.378 -0.2003  0.4895  0.0057
  955MOL0     C28845   0.302   0.748   5.338 -0.3576 -0.6443  1.0214
  955MOL0     C28846   0.321   0.697   5.202 -0.1520 -0.1874 -0.0544
  955MOL0     C28847   0.383   0.785   5.108 -0.2881  0.3060  0.4184
  955MOL0     O28848   0.391   0.775   4.976 -0.1378 -0.4793  0.2956
  955MOL0     C28849   0.354   0.661   4.901 -0.1421  0.5821  0.5534
  955MOL0     C28850   0.290   0.700   4.766 -0.3690  0.2624  0.1791
  955MOL0     C28851   0.367   0.816   4.700  0.2952 -0.3867 -0.1086
  955MOL0     C28852   0.515   0.783   4.690 -0.0773  0.4402  0.3031
  955MOL0     C28853   0.529   0.676   4.591 -0.0316  0.0977  0.3397
  955MOL0     C28854   0.548   0.592   4.501  0.1739 -0.1789 -0.9437
  955MOL0     C28855   0.418   0.923   5.149  0.5285 -0.0806  0.4525
  955MOL0     C28856   0.387   0.967   5.279 -0.3325 -0.4417  0.6646
  955MOL0     C28857   0.418   1.104   5.304  0.0836 -0.0507 -0.3826
  955MOL0     H28858   0.166   0.863   5.754 -0.4124 -0.9784  2.4556
  955MOL0     H28859   0.163   0.925   5.993  0.7388  4.0909  0.1167
  955MOL0     H28860   0.463   0.838   6.227  0.5331 -0.2713  0.7791
  955MOL0     H28861   0.545   0.995   6.218 -1.1514  0.9374  0.5772
  955MOL0     H28862   0.272   0.956   6.358  1.7760 -4.0305  0.8780
  955MOL0     H28863   0.375   1.110   6.353  2.3073  0.4158  1.7489
  955MOL0     H28864   0.548   0.965   6.486 -0.3818 -0.2131  1.0081
  955MOL0     H28865   0.431   0.844   6.488 -0.1789 -0.3580  0.1100
  955MOL0     H28866   0.365   1.114   6.591  1.2608  0.4842 -1.7939
  955MOL0     H28867   0.262   0.962   6.602 -0.4874 -1.0811 -0.2525
  955MOL0     H28868   0.364   1.030   6.812 -0.1748  0.8204 -0.9761
  955MOL0     H28869   0.410   0.867   6.761  2.2400  0.4115  2.6824
  955MOL0     H28870   0.598   0.966   6.852  2.9881 -1.8847 -1.3559
  955MOL0     H28871   0.626   0.957   6.682  5.1573  2.8649  2.5611
  955MOL0     H28872   0.536   1.228   6.805 -0.5338  1.2115 -3.6153
  955MOL0     H28873   0.585   1.195   6.645 -3.0692  1.9937  0.5337
  955MOL0     H28874   0.798   1.098   6.753 -0.3680  0.2269 -2.2368
  955MOL0     H28875   0.775   1.269   6.738  2.8301 -0.8068  0.6375
  955MOL0     H28876   0.668   1.011   7.033  0.8646 -0.3612 -2.9044
  955MOL0     H28877   0.772   0.993   7.255 -1.4651 -0.3424 -0.6893
  955MOL0     H28878   0.862   1.118   7.335 -0.7675 -1.1099  0.6970
  955MOL0     H28879   0.611   1.221   7.364 -2.0157  0.2983 -0.6400
  955MOL0     H28880   0.566   1.073   7.271  1.6253  0.5537 -0.9815
  955MOL0     H28881   0.735   1.030   7.516  0.5603  1.8994 -0.4253
  955MOL0     H28882   0.604   0.926   7.475  3.3870 -1.4969 -2.2473
  955MOL0     H28883   0.592   1.198   7.607  0.3887  1.1123 -3.2657
  955MOL0     H28884   0.558   1.042   7.687  1.2932 -1.7830 -0.7934
  955MOL0     H28885   0.172   1.163   7.492  2.3407  0.5843  0.9827
  955MOL0     H28886  -0.005   0.966   7.457  0.4114 -1.4144 -2.2013
  955MOL0     H28887  -0.245   0.663   7.289  3.8086  2.5890  2.7007
  955MOL0     H28888  -0.423   0.468   7.291 -0.3852 -2.6364  1.7821
  955MOL0     H28889  -0.588   0.329   7.323  2.2065  3.2549 -0.1806
  955MOL0     H28890  -0.416   0.254   7.305  0.5352 -2.1250  0.3627
  955MOL0     H28891  -0.516   0.063   7.441 -0.2029  2.1347  2.9971
  955MOL0     H28892  -0.668   0.139   7.444  1.0382 -1.7305  1.8428
  955MOL0     H28893  -0.698   0.020   7.239  0.8352 -1.2342  0.7362
  955MOL0     H28894  -0.645   0.176   7.190 -1.6023 -0.3636  0.4480
  955MOL0     H28895  -0.403   0.049   7.189 -0.3555  0.3409 -0.9022
  955MOL0     H28896  -0.523   0.010   7.056 -2.1528 -0.9631 -0.0824
  955MOL0     H28897  -0.604  -0.169   7.178  1.8462 -1.5294 -2.1244
  955MOL0     H28898  -0.488  -0.145   7.317  4.2648  0.4820  0.3338
  955MOL0     H28899  -0.438  -0.233   7.021  0.3130 -4.5383  0.1108
  955MOL0     H28900  -0.305  -0.217   7.141 -0.2456  5.0994 -0.2588
  955MOL0     H28901  -0.552  -0.393   7.133  1.3273 -1.1338 -1.7525
  955MOL0     H28902  -0.447  -0.367   7.277 -3.2565  1.4181  0.0230
  955MOL0     H28903  -0.407  -0.580   7.096  2.2430  0.2283 -0.2143
  955MOL0     H28904  -0.366  -0.441   6.991 -0.2364 -0.2941 -0.0482
  955MOL0     H28905  -0.391   0.419   7.706  0.5275  0.4899  0.9244
  955MOL0     H28906  -0.241   0.614   7.721 -2.8311 -0.2626  0.7580
  955MOL0     H28907   0.243   0.696   7.633 -1.7743 -0.5121 -1.6916
  955MOL0     H28908   0.440   0.840   7.634 -0.3843 -1.3865  0.5754
  955MOL0     H28909   0.588   0.943   5.989 -0.8197  0.6754 -0.8657
  955MOL0     H28910   0.588   0.851   5.763  1.0374 -0.0169  1.6605
  955MOL0     H28911   0.251   0.690   5.414 -1.8897 -0.1295  0.4341
  955MOL0     H28912   0.283   0.599   5.178 -1.0833  0.6500 -2.1883
  955MOL0     H28913   0.293   0.590   4.957  1.7964  0.1728  2.3116
  955MOL0     H28914   0.443   0.598   4.887 -1.7411 -2.2126  2.0764
  955MOL0     H28915   0.188   0.736   4.783 -0.3348 -0.0995  1.2638
  955MOL0     H28916   0.291   0.613   4.699  0.4619  2.7203 -3.2674
  955MOL0     H28917   0.349   0.903   4.764 -2.7768 -0.1868 -1.1044
  955MOL0     H28918   0.318   0.849   4.608  1.0268 -0.5741 -0.5784
  955MOL0     H28919   0.567   0.871   4.651 -0.0318  0.2007 -0.1832
  955MOL0     H28920   0.577   0.762   4.777 -1.1359  1.1302  1.2571
  955MOL0     H28921   0.558   0.522   4.421  0.0025  0.7820 -1.8258
  955MOL0     H28922   0.480   0.972   5.075 -1.6324 -1.2794 -2.3781
  955MOL0     H28923   0.332   1.157   5.345  1.5912  2.4427 -0.2083
  955MOL0     H28924   0.483   1.114   5.392  0.3656  0.4878 -0.6472
  955MOL0     H28925   0.456   1.162   5.219 -2.4339  2.4381  0.0507
  956MOL0     O28926   5.267   6.726   1.123 -0.4445 -0.3620 -0.9493
  956MOL0     C28927   5.391   6.733   1.094  0.3904  0.0133  0.7846
  956MOL0     O28928   5.483   6.813   1.158  0.4289 -0.1668  0.3308
  956MOL0     C28929   5.453   6.903   1.256 -0.2332  0.2569 -0.9093
  956MOL0     C28930   5.328   6.957   1.271  1.1483  0.5199  0.6610
  956MOL0     C28931   5.290   7.033   1.383  0.3236 -0.4981 -1.0698
  956MOL0     C28932   5.386   7.056   1.487  1.0704  0.0767  0.5726
  956MOL0     O28933   5.360   7.118   1.601 -0.4148 -0.8016  0.5298
  956MOL0     C28934   5.226   7.159   1.650 -0.2288  1.0570 -0.0984
  956MOL0     C28935   5.160   7.034   1.711  0.8351 -0.3266 -0.8290
  956MOL0     C28936   5.028   7.074   1.783  0.3821  0.9111  0.0155
  956MOL0     C28937   5.054   7.143   1.925  0.2275 -0.4605 -0.1022
  956MOL0     C28938   5.006   7.293   1.929 -0.0584  0.0373 -0.2391
  956MOL0     C28939   4.860   7.307   1.922  0.7861  0.9091 -0.4215
  956MOL0     C28940   4.813   7.417   2.019 -0.2163 -0.2760  0.4907
  956MOL0     C28941   4.838   7.562   1.972  0.0708 -0.0077  0.0818
  956MOL0     N28942   4.763   7.657   2.057 -0.5665 -0.2728  0.2472
  956MOL0     C28943   4.814   7.715   2.171 -0.3198 -0.3852  0.2012
  956MOL0     C28944   4.727   7.816   2.204  0.1353  0.9612 -0.4424
  956MOL0     C28945   4.722   7.907   2.329 -0.0752 -0.4721 -1.0357
  956MOL0     C28946   4.612   8.019   2.329  0.3745  0.1730  0.6459
  956MOL0     C28947   4.481   7.961   2.372 -0.8284  0.8329  0.5323
  956MOL0     C28948   4.372   8.048   2.405  0.4295  1.1465 -0.1763
  956MOL0     O28949   4.258   7.966   2.439 -0.1971  0.3980  0.5066
  956MOL0     C28950   4.237   7.915   2.564  0.3965 -1.0367  0.4850
  956MOL0     C28951   4.122   7.828   2.574  0.7177 -0.3748  0.1701
  956MOL0     C28952   4.069   7.770   2.694  0.6502  0.3551 -0.1848
  956MOL0     C28953   4.142   7.798   2.814  0.9675  0.0277  0.3342
  956MOL0     C28954   4.089   7.735   2.935 -0.6537 -0.2723 -0.1037
  956MOL0     O28955   3.977   7.662   2.913  0.2295  0.6584 -0.0153
  956MOL0     C28956   3.920   7.596   3.025  0.1255  0.5814 -0.2839
  956MOL0     C28957   3.855   7.663   3.126  0.5424  0.4947 -0.1771
  956MOL0     C28958   3.805   7.586   3.235  0.0060 -0.4496 -0.7751
  956MOL0     C28959   3.801   7.449   3.233 -0.0940 -0.4883  0.0105
  956MOL0     O28960   3.769   7.372   3.341  0.8045  0.1608  0.2703
  956MOL0     C28961   3.639   7.405   3.396  0.5150 -0.1888 -0.0433
  956MOL0     C28962   3.618   7.344   3.542  0.1120 -0.1407  0.3650
  956MOL0     C28963   3.736   7.367   3.640 -0.4155 -0.1775  0.2016
  956MOL0     C28964   3.762   7.521   3.654  0.1588  0.2586  0.5612
  956MOL0     C28965   3.864   7.556   3.754 -0.9283  0.0583 -0.9978
  956MOL0     C28966   3.893   7.709   3.774  0.3713 -0.7011 -0.6548
  956MOL0     C28967   4.029   7.744   3.833  0.4427  0.2613 -0.0590
  956MOL0     C28968   4.044   7.888   3.881 -0.3120  0.5935 -0.4076
  956MOL0    Cl28969   3.973   8.005   3.772  0.1277  0.1094 -0.2593
  956MOL0     C28970   3.859   7.388   3.122  0.2958 -0.9309  0.4076
  956MOL0     C28971   3.923   7.458   3.014  0.1611  0.0981  0.0834
  956MOL0     O28972   4.138   7.763   3.043 -0.2848  0.8454  0.0537
  956MOL0     C28973   4.262   7.879   2.806 -1.0929  0.7992 -0.7332
  956MOL0     C28974   4.307   7.930   2.682  0.3186  1.1826 -0.2620
  956MOL0     N28975   4.618   7.807   2.113 -0.5405 -0.1823 -0.0963
  956MOL0     N28976   4.645   7.715   2.021 -0.6819  0.2457 -0.4275
  956MOL0     C28977   5.507   6.995   1.476  0.5010  0.9397  0.3726
  956MOL0     C28978   5.543   6.921   1.360  0.2693 -0.2126 -0.2166
  956MOL0     C28979   5.423   6.651   0.969  1.0078  0.2339 -0.2908
  956MOL0     C28980   5.539   6.688   0.899 -0.2031 -0.2899  0.6515
  956MOL0     C28981   5.597   6.606   0.794  0.5669  0.0390  0.4354
  956MOL0     C28982   5.519   6.502   0.743  0.2339 -0.6325  0.2775
  956MOL0     O28983   5.558   6.428   0.641  1.1330  0.0728  0.4869
  956MOL0     C28984   5.676   6.443   0.571  0.7848 -1.6679 -0.2674
  956MOL0     C28985   5.696   6.339   0.465  0.4931 -0.3921  0.3692
  956MOL0     C28986   5.584   6.335   0.357 -0.6493 -0.3817 -0.4393
  956MOL0     C28987   5.584   6.209   0.272 -0.0523 -0.4455  0.1438
  956MOL0     C28988   5.566   6.095   0.360 -0.2240 -1.0968  0.5954
  956MOL0     C28989   5.562   6.007   0.438 -0.2905 -1.1602 -0.0092
  956MOL0     C28990   5.404   6.468   0.804 -0.3323  0.3846 -0.6732
  956MOL0     C28991   5.351   6.538   0.920 -0.5044  0.7321  0.3465
  956MOL0     C28992   5.216   6.488   0.979 -0.6668  0.4214 -0.4535
  956MOL0     H28993   5.239   6.953   1.210  1.1735  1.2800  0.5644
  956MOL0     H28994   5.187   7.055   1.408  0.0527 -3.6958  1.2236
  956MOL0     H28995   5.229   7.236   1.727 -1.8126 -1.5106  2.7694
  956MOL0     H28996   5.169   7.193   1.563 -0.1763 -1.0028 -0.9998
  956MOL0     H28997   5.219   6.977   1.782  0.4914  0.2836 -0.0295
  956MOL0     H28998   5.136   6.965   1.630  1.3079 -0.6513 -0.6932
  956MOL0     H28999   4.973   6.983   1.809  2.7635  0.0094  2.3935
  956MOL0     H29000   4.962   7.140   1.725  1.0922 -0.8948 -3.0485
  956MOL0     H29001   4.984   7.088   1.988 -1.3724 -0.4864 -1.8126
  956MOL0     H29002   5.160   7.132   1.948  0.4632 -1.4754 -1.5563
  956MOL0     H29003   5.053   7.327   2.022  1.7659 -1.3420 -0.5903
  956MOL0     H29004   5.033   7.353   1.842  0.4896 -0.3586 -0.3513
  956MOL0     H29005   4.827   7.328   1.820  0.3552 -1.2471 -0.7712
  956MOL0     H29006   4.820   7.210   1.955  2.6234 -1.1748 -3.7781
  956MOL0     H29007   4.856   7.394   2.117 -1.8250 -4.4976  0.3953
  956MOL0     H29008   4.707   7.393   2.030  0.4326 -3.6193  0.4383
  956MOL0     H29009   4.944   7.582   1.992  0.1305  0.3493 -0.5662
  956MOL0     H29010   4.814   7.571   1.865  4.4951 -0.4789 -1.1476
  956MOL0     H29011   4.902   7.680   2.223 -0.6690 -0.9228  0.4306
  956MOL0     H29012   4.717   7.847   2.420  1.2076  0.5194 -0.2671
  956MOL0     H29013   4.820   7.955   2.322 -0.1843 -0.3504 -1.9020
  956MOL0     H29014   4.644   8.103   2.392 -1.1657  1.7929 -0.6333
  956MOL0     H29015   4.610   8.047   2.224 -0.1723 -2.6665 -0.1776
  956MOL0     H29016   4.493   7.893   2.457  4.1309  0.6080 -0.0910
  956MOL0     H29017   4.441   7.898   2.292 -1.1269  1.4521  0.1879
  956MOL0     H29018   4.344   8.103   2.315 -0.6432  0.0655 -0.5288
  956MOL0     H29019   4.381   8.122   2.485 -0.5557 -0.3453  1.3910
  956MOL0     H29020   4.065   7.816   2.482 -0.1613  1.8126  0.3514
  956MOL0     H29021   3.975   7.715   2.682  1.8141 -1.5326 -1.1974
  956MOL0     H29022   3.858   7.770   3.141 -1.5849  0.3734  1.5904
  956MOL0     H29023   3.780   7.639   3.326 -2.4985  3.0354 -3.2194
  956MOL0     H29024   3.628   7.514   3.392  0.4367 -0.2348 -1.6121
  956MOL0     H29025   3.560   7.362   3.333  1.0821 -0.5551 -0.5135
  956MOL0     H29026   3.527   7.383   3.588 -2.0456 -0.0900 -3.5693
  956MOL0     H29027   3.598   7.237   3.526  2.0976 -0.5007 -0.0083
  956MOL0     H29028   3.715   7.327   3.739  2.4677  1.1763  1.4639
  956MOL0     H29029   3.829   7.321   3.606  0.6680  0.5242  2.1143
  956MOL0     H29030   3.667   7.562   3.688 -1.1761 -2.6578  0.6862
  956MOL0     H29031   3.800   7.560   3.559 -1.8868 -2.5996 -1.6232
  956MOL0     H29032   3.950   7.506   3.709  0.3537  1.7613 -0.5553
  956MOL0     H29033   3.856   7.507   3.851  1.1589  1.8758  0.1971
  956MOL0     H29034   3.884   7.752   3.674 -0.9169 -1.2954 -0.8174
  956MOL0     H29035   3.813   7.755   3.833  0.5010 -0.6716 -0.5006
  956MOL0     H29036   4.092   7.718   3.748 -1.6633  1.4846 -2.1294
  956MOL0     H29037   4.041   7.682   3.922 -3.6818 -2.9421 -1.4212
  956MOL0     H29038   3.989   7.897   3.975 -2.8441  0.4888 -1.7787
  956MOL0     H29039   4.149   7.915   3.897  0.3284 -0.2004 -2.8331
  956MOL0     H29040   3.863   7.279   3.125 -2.0635 -1.0906 -0.3267
  956MOL0     H29041   3.968   7.409   2.929 -0.3061  0.6513 -0.4874
  956MOL0     H29042   4.334   7.881   2.887 -1.4897 -3.5097 -0.0651
  956MOL0     H29043   4.397   7.990   2.683 -0.7706  2.8946  0.2329
  956MOL0     H29044   5.570   7.001   1.565  0.3622  0.3708  0.5115
  956MOL0     H29045   5.643   6.880   1.361  0.0575 -0.7664 -0.9618
  956MOL0     H29046   5.581   6.782   0.932  0.9785 -1.2304  1.9550
  956MOL0     H29047   5.691   6.635   0.748 -0.0759 -0.2775 -1.1264
  956MOL0     H29048   5.760   6.445   0.642 -0.2753 -0.5349  1.0211
  956MOL0     H29049   5.672   6.533   0.509  0.8211  0.2921  2.3878
  956MOL0     H29050   5.690   6.249   0.528  4.6620 -3.1370 -2.6160
  956MOL0     H29051   5.794   6.347   0.418  0.7021 -3.3378  0.1120
  956MOL0     H29052   5.594   6.415   0.284 -1.3709 -1.4639 -1.7671
  956MOL0     H29053   5.487   6.347   0.407 -0.6874  1.4643 -0.8929
  956MOL0     H29054   5.494   6.210   0.210 -1.4101 -2.9712  1.9008
  956MOL0     H29055   5.667   6.187   0.204 -0.0368 -3.4335  1.0017
  956MOL0     H29056   5.544   5.931   0.511 -1.6521  1.1693  2.2575
  956MOL0     H29057   5.362   6.382   0.754  1.0299  0.6406 -2.3503
  956MOL0     H29058   5.148   6.570   0.955  0.1492  1.4715  0.7381
  956MOL0     H29059   5.190   6.396   0.924 -1.0741  0.1431  0.1936
  956MOL0     H29060   5.227   6.451   1.082 -0.2958 -1.4472 -1.1094
  957MOL0     O29061   2.784  11.109  11.367 -0.6761  0.5950 -0.0775
  957MOL0     C29062   2.867  11.202  11.378  0.3782  0.2528 -0.1563
  957MOL0     O29063   2.966  11.237  11.296  0.1937  0.7377 -0.1860
  957MOL0     C29064   2.950  11.182  11.171 -0.9334  0.2262  0.5683
  957MOL0     C29065   2.834  11.186  11.095  0.3277  0.7145  0.0740
  957MOL0     C29066   2.833  11.123  10.970  0.2538  0.0762 -0.5815
  957MOL0     C29067   2.948  11.058  10.913 -0.2226 -0.5941  1.0783
  957MOL0     O29068   2.948  11.018  10.775  0.3558  0.0527 -1.2070
  957MOL0     C29069   2.843  10.916  10.773  0.4741  0.2496  0.3822
  957MOL0     C29070   2.875  10.805  10.670  0.3260 -0.6590 -0.8676
  957MOL0     C29071   2.767  10.700  10.685  0.5877 -0.2429 -0.7853
  957MOL0     C29072   2.802  10.586  10.602  1.5096  0.1118 -0.2713
  957MOL0     C29073   2.698  10.470  10.630 -0.0284 -0.0363  0.2731
  957MOL0     C29074   2.725  10.361  10.526 -0.1336  0.4038  0.0154
  957MOL0     C29075   2.595  10.275  10.506  0.1131 -0.1284  0.4408
  957MOL0     C29076   2.559  10.193  10.627  0.2621 -0.3359 -0.6093
  957MOL0     N29077   2.645  10.089  10.670  0.0504  0.2587  0.2377
  957MOL0     C29078   2.613   9.955  10.677  0.1970  0.2048  0.8446
  957MOL0     C29079   2.723   9.908  10.732  0.1780 -0.3605 -0.7455
  957MOL0     C29080   2.745   9.762  10.764 -0.2213 -0.3560 -0.1642
  957MOL0     C29081   2.895   9.724  10.805  0.2799  0.2928 -0.6315
  957MOL0     C29082   3.001   9.729  10.693 -0.4780  0.3678  0.2503
  957MOL0     C29083   2.977   9.634  10.573  0.0379  0.0127  0.6897
  957MOL0     O29084   3.098   9.633  10.500  0.1690 -0.0915 -0.9064
  957MOL0     C29085   3.129   9.523  10.420 -0.7289  0.3315 -0.5398
  957MOL0     C29086   3.047   9.409  10.412 -0.0402 -0.0072  0.9354
  957MOL0     C29087   3.088   9.298  10.332  0.6007  0.5907  0.0779
  957MOL0     C29088   3.206   9.301  10.254  0.0727 -0.2311  0.4946
  957MOL0     C29089   3.218   9.205  10.147  0.0777  0.2279  0.5512
  957MOL0     O29090   3.331   9.213  10.061 -0.0872  0.4739  0.1114
  957MOL0     C29091   3.389   9.107   9.992 -0.8107 -0.5593 -0.9664
  957MOL0     C29092   3.474   9.140   9.890  0.5234 -0.7326 -0.3315
  957MOL0     C29093   3.552   9.046   9.820  0.5957 -0.3337 -0.1008
  957MOL0     C29094   3.551   8.910   9.848 -0.3621 -0.4885 -0.3919
  957MOL0     O29095   3.613   8.806   9.792  0.5289 -0.2504  0.4070
  957MOL0     C29096   3.704   8.826   9.680  1.0114  0.1942 -0.1718
  957MOL0     C29097   3.832   8.891   9.723 -0.8459 -0.6960 -0.5255
  957MOL0     C29098   3.897   8.816   9.843 -0.4984 -0.6168 -0.4226
  957MOL0     C29099   3.946   8.677   9.791 -0.9845  0.5848  0.1261
  957MOL0     C29100   4.040   8.617   9.891  0.4885  0.1305 -0.6765
  957MOL0     C29101   4.055   8.465   9.859 -0.1475  0.0668  0.2145
  957MOL0     C29102   4.142   8.384   9.951 -0.2925 -0.9158 -0.2733
  957MOL0     C29103   4.272   8.456   9.979 -0.1527 -0.9141 -0.4135
  957MOL0    Cl29104   4.369   8.510   9.837 -0.5142 -0.2234 -0.2569
  957MOL0     C29105   3.468   8.873   9.953 -0.7882 -0.3945 -0.3056
  957MOL0     C29106   3.380   8.963  10.021 -0.4035 -0.1528 -0.2647
  957MOL0     O29107   3.137   9.117  10.138  0.3885  0.3414  0.2080
  957MOL0     C29108   3.295   9.404  10.270  0.0421 -0.6668  0.1348
  957MOL0     C29109   3.253   9.518  10.346  0.1883  0.5933 -0.6450
  957MOL0     N29110   2.792  10.004  10.800  0.7148 -0.3337  0.0072
  957MOL0     N29111   2.746  10.110  10.750 -0.4002  0.3472  0.1027
  957MOL0     C29112   3.061  11.069  10.985 -0.3099 -0.3580  0.0564
  957MOL0     C29113   3.069  11.128  11.116 -0.2727  0.2862 -0.5195
  957MOL0     C29114   2.866  11.261  11.509 -0.0961 -0.2451 -1.0844
  957MOL0     C29115   2.985  11.279  11.567 -0.1555 -0.0692 -0.2714
  957MOL0     C29116   3.007  11.340  11.686  0.0251  0.8338 -0.6828
  957MOL0     C29117   2.901  11.388  11.758 -0.2873  0.9577  0.1306
  957MOL0     O29118   2.933  11.461  11.872  0.5844  0.0364 -0.3094
  957MOL0     C29119   2.832  11.485  11.977  0.9343  0.5930  0.1007
  957MOL0     C29120   2.760  11.622  11.970 -0.3080 -0.2157 -0.2111
  957MOL0     C29121   2.862  11.736  11.983  0.4068 -0.7446  0.4579
  957MOL0     C29122   2.959  11.752  12.102 -0.1153 -0.2664 -0.4768
  957MOL0     C29123   2.894  11.775  12.232  0.2534 -0.3579  0.5833
  957MOL0     C29124   2.850  11.781  12.343  0.2113 -0.4198 -0.2081
  957MOL0     C29125   2.774  11.367  11.707  0.0113 -0.5813  0.2051
  957MOL0     C29126   2.757  11.302  11.587  0.9438  0.2049 -0.0236
  957MOL0     C29127   2.616  11.298  11.533  0.3263  0.3319  0.7931
  957MOL0     H29128   2.749  11.237  11.138  2.6051  3.2682  1.8750
  957MOL0     H29129   2.745  11.142  10.909  0.6723  1.0815 -0.8938
  957MOL0     H29130   2.820  10.875  10.872 -1.6728  0.4984  0.0499
  957MOL0     H29131   2.753  10.970  10.739 -1.0312 -0.9940  2.1642
  957MOL0     H29132   2.970  10.758  10.696  0.0103 -1.3213 -0.8809
  957MOL0     H29133   2.880  10.842  10.567  0.9728  4.7618  0.7658
  957MOL0     H29134   2.669  10.744  10.663  0.6009  0.4545  0.4290
  957MOL0     H29135   2.764  10.670  10.790 -1.6380 -3.9171 -1.6927
  957MOL0     H29136   2.800  10.604  10.494 -0.8453  0.1309 -0.2880
  957MOL0     H29137   2.904  10.553  10.624  0.0688 -2.7188  3.1765
  957MOL0     H29138   2.713  10.431  10.731 -0.6207  2.6699  1.4950
  957MOL0     H29139   2.597  10.511  10.627  0.7038  2.0948  2.0429
  957MOL0     H29140   2.737  10.412  10.430 -2.1364  1.7362  0.4075
  957MOL0     H29141   2.805  10.291  10.553 -0.2296  0.8116  1.4449
  957MOL0     H29142   2.600  10.212  10.416 -2.7078 -2.1245  1.5355
  957MOL0     H29143   2.521  10.348  10.472  1.2175 -0.0270 -1.9677
  957MOL0     H29144   2.547  10.260  10.714  0.4441  0.0484 -0.8764
  957MOL0     H29145   2.469  10.135  10.607 -0.0552 -0.2420  0.4482
  957MOL0     H29146   2.529   9.905  10.628 -0.1313  1.5791 -0.0818
  957MOL0     H29147   2.666   9.740  10.836  2.2700 -1.0700  2.5726
  957MOL0     H29148   2.726   9.695  10.680  0.4031 -3.4610  2.0112
  957MOL0     H29149   2.926   9.793  10.884  3.8706  1.7063 -3.0320
  957MOL0     H29150   2.891   9.622  10.843 -1.5412 -0.5610 -2.9002
  957MOL0     H29151   3.085   9.715  10.761 -2.0312  1.4057  2.5205
  957MOL0     H29152   2.996   9.831  10.654  1.2297  1.3210  2.3468
  957MOL0     H29153   2.886   9.667  10.523 -0.6087 -1.9933  0.4509
  957MOL0     H29154   2.960   9.536  10.618  3.5052  0.8979  4.5978
  957MOL0     H29155   2.959   9.396  10.474 -0.8910 -3.1819 -0.7269
  957MOL0     H29156   3.013   9.223  10.352 -1.7497  2.7132 -0.2926
  957MOL0     H29157   3.470   9.245   9.865 -3.2785 -0.7471 -0.2917
  957MOL0     H29158   3.605   9.082   9.733 -0.5664 -0.4317 -0.8723
  957MOL0     H29159   3.723   8.727   9.638  1.8831  0.6743 -0.9456
  957MOL0     H29160   3.653   8.874   9.596  0.2299  1.4359  0.9751
  957MOL0     H29161   3.891   8.903   9.631 -2.7227 -0.6622 -1.7867
  957MOL0     H29162   3.816   8.992   9.760  1.0283  0.6805 -3.1354
  957MOL0     H29163   3.982   8.876   9.877  1.1281 -0.2803 -4.5129
  957MOL0     H29164   3.818   8.809   9.918 -0.5368  0.1509 -0.3862
  957MOL0     H29165   3.993   8.687   9.693 -3.5097  0.4785 -1.1906
  957MOL0     H29166   3.859   8.613   9.773 -0.6936 -0.0726  0.9457
  957MOL0     H29167   3.997   8.625   9.992  1.0675 -1.3140 -0.2864
  957MOL0     H29168   4.137   8.667   9.876  0.9085 -1.1237 -2.4791
  957MOL0     H29169   3.956   8.421   9.850 -1.2530  1.3937  3.8910
  957MOL0     H29170   4.110   8.460   9.764  1.9724 -1.0747  1.4330
  957MOL0     H29171   4.172   8.289   9.906 -2.3296 -1.1536 -1.2578
  957MOL0     H29172   4.081   8.354  10.037  1.6028 -0.4202  1.3142
  957MOL0     H29173   4.257   8.542  10.044  2.0799  0.4367 -1.5673
  957MOL0     H29174   4.337   8.386  10.033 -1.8754 -2.9454 -0.8316
  957MOL0     H29175   3.467   8.765   9.964 -1.5494 -0.6348 -2.3670
  957MOL0     H29176   3.313   8.928  10.098  0.6602 -2.4674 -0.2972
  957MOL0     H29177   3.390   9.418  10.219  2.4050 -0.7132  4.1232
  957MOL0     H29178   3.325   9.598  10.358  2.1088 -0.7785 -2.3030
  957MOL0     H29179   3.153  11.030  10.944  1.2877  3.2598 -0.1132
  957MOL0     H29180   3.160  11.112  11.172 -1.0416 -0.2781  0.6113
  957MOL0     H29181   3.077  11.244  11.521  0.9806  1.0283  1.0565
  957MOL0     H29182   3.110  11.348  11.720 -0.0802  0.6437 -0.3148
  957MOL0     H29183   2.882  11.486  12.074 -0.2295 -2.2817  0.8154
  957MOL0     H29184   2.761  11.403  11.976  0.3864  0.9690 -2.9142
  957MOL0     H29185   2.684  11.612  12.048  0.7979  0.7198  1.0331
  957MOL0     H29186   2.707  11.626  11.875  3.7183  0.8630 -2.6479
  957MOL0     H29187   2.807  11.829  11.964 -1.1258 -1.4025  1.5179
  957MOL0     H29188   2.908  11.735  11.884 -1.7987 -0.5123 -0.6153
  957MOL0     H29189   3.017  11.659  12.106  0.9497  0.4278  1.4622
  957MOL0     H29190   3.034  11.829  12.082  0.5790 -0.2903  1.7999
  957MOL0     H29191   2.807  11.791  12.441  1.8771  0.6993  0.4539
  957MOL0     H29192   2.691  11.382  11.775  1.3023 -1.0616  1.9441
  957MOL0     H29193   2.549  11.352  11.601 -3.1118 -1.3998 -0.9517
  957MOL0     H29194   2.598  11.336  11.432 -1.0757 -1.9614  0.1124
  957MOL0     H29195   2.584  11.194  11.527  0.5035  0.3247 -0.1429
  958MOL0     O29196   6.402  10.782   9.323  0.0040  0.1080 -0.0976
  958MOL0     C29197   6.396  10.764   9.442  0.2113  0.1029  0.7852
  958MOL0     O29198   6.373  10.646   9.500 -0.1489  0.1712 -0.9612
  958MOL0     C29199   6.327  10.549   9.419  0.3008 -0.1345 -0.5857
  958MOL0     C29200   6.196  10.545   9.374  0.4176  0.0551  0.1936
  958MOL0     C29201   6.139  10.415   9.338  0.0748  0.1109  1.3511
  958MOL0     C29202   6.225  10.310   9.313  0.3451  0.7055 -0.7385
  958MOL0     O29203   6.187  10.189   9.269 -1.4561  0.2118 -0.1054
  958MOL0     C29204   6.053  10.139   9.285  1.1427 -0.4986 -0.4920
  958MOL0     C29205   6.003  10.129   9.424 -0.2170 -0.5148  0.4399
  958MOL0     C29206   5.858  10.074   9.423  0.2482 -0.8441 -0.0221
  958MOL0     C29207   5.820  10.007   9.562 -1.0320  2.1722  0.0950
  958MOL0     C29208   5.904   9.889   9.605  0.5592 -0.1227  0.4826
  958MOL0     C29209   5.857   9.830   9.743 -0.6356 -0.4713  0.1177
  958MOL0     C29210   5.970   9.742   9.801  0.0187  0.0078  0.3108
  958MOL0     C29211   5.939   9.698   9.946  0.1628 -0.7599  1.2674
  958MOL0     N29212   6.029   9.597   9.993 -0.8453  0.3672  0.3676
  958MOL0     C29213   6.033   9.543  10.114  0.1846 -0.3092 -0.2931
  958MOL0     C29214   6.119   9.438  10.114  0.3727  0.2555 -0.7987
  958MOL0     C29215   6.172   9.375  10.237 -0.0821  0.3304  0.7412
  958MOL0     C29216   6.274   9.465  10.297  0.6028 -0.5557  0.2825
  958MOL0     C29217   6.344   9.382  10.408  0.1896  0.3586  0.1571
  958MOL0     C29218   6.468   9.303  10.358  0.3418 -0.2311  0.3608
  958MOL0     O29219   6.566   9.278  10.462  0.6720 -0.0374 -0.3477
  958MOL0     C29220   6.627   9.153  10.445 -0.5929  0.2597  0.3027
  958MOL0     C29221   6.552   9.032  10.433 -1.1085 -0.1496 -0.2774
  958MOL0     C29222   6.628   8.909  10.410 -0.0248  0.3333 -0.0285
  958MOL0     C29223   6.766   8.914  10.390  0.6339  0.0668  1.6962
  958MOL0     C29224   6.848   8.787  10.382  0.3584  0.2648 -0.1300
  958MOL0     O29225   6.771   8.673  10.404  0.3027  0.2491 -0.2371
  958MOL0     C29226   6.841   8.559  10.405  0.0536  0.0463  0.5592
  958MOL0     C29227   6.852   8.481  10.521  0.2499  0.5957  0.4697
  958MOL0     C29228   6.899   8.353  10.514  0.5377 -0.2121  0.6961
  958MOL0     C29229   6.954   8.306  10.392 -1.4381  0.4351  0.3765
  958MOL0     O29230   7.005   8.183  10.395 -0.2667  0.4921  0.3441
  958MOL0     C29231   7.080   8.141  10.274 -0.2733  0.5216 -0.3008
  958MOL0     C29232   7.172   8.022  10.322 -1.2364 -0.2389  0.2930
  958MOL0     C29233   7.238   7.952  10.196  0.8613 -0.1233  0.1195
  958MOL0     C29234   7.259   7.802  10.222  0.3232 -0.7782 -0.3351
  958MOL0     C29235   7.356   7.763  10.119 -0.0791  0.3437  0.4568
  958MOL0     C29236   7.360   7.608  10.106  0.7113 -0.0923  0.4542
  958MOL0     C29237   7.416   7.529  10.227  0.1715  0.7755 -0.0045
  958MOL0     C29238   7.458   7.380  10.206  0.7866 -0.1356  0.5322
  958MOL0    Cl29239   7.533   7.323  10.353  0.0588  0.2611  0.3219
  958MOL0     C29240   6.946   8.387  10.277 -0.1754  0.1841  0.1331
  958MOL0     C29241   6.897   8.512  10.289  0.3788 -0.0704  0.1197
  958MOL0     O29242   6.968   8.793  10.348  0.0394  0.6682 -0.5759
  958MOL0     C29243   6.835   9.042  10.385 -0.0954  0.7526  0.3005
  958MOL0     C29244   6.763   9.162  10.408 -0.0385 -0.2239  0.0309
  958MOL0     N29245   6.172   9.428   9.988 -0.5294  0.1781 -0.1121
  958MOL0     N29246   6.119   9.518   9.918  0.7418  0.3700 -0.0718
  958MOL0     C29247   6.354  10.320   9.351 -0.3588 -0.5965 -1.1577
  958MOL0     C29248   6.406  10.435   9.400 -0.5393  0.3410 -0.1476
  958MOL0     C29249   6.413  10.873   9.540  0.7533 -0.1114  0.1747
  958MOL0     C29250   6.531  10.874   9.612 -0.1277  0.6086  0.2176
  958MOL0     C29251   6.566  10.987   9.683  0.2519 -0.2161  0.1283
  958MOL0     C29252   6.492  11.100   9.689  0.3934 -0.6414  0.1585
  958MOL0     O29253   6.527  11.209   9.765 -0.1300  0.2771 -0.2798
  958MOL0     C29254   6.433  11.312   9.768  0.1112 -0.3480 -0.0891
  958MOL0     C29255   6.473  11.409   9.883 -0.1368 -0.0789 -0.3635
  958MOL0     C29256   6.361  11.511   9.922  0.6264 -0.7219 -0.5424
  958MOL0     C29257   6.219  11.464   9.955  0.3795  0.0682  0.0509
  958MOL0     C29258   6.193  11.351  10.049 -0.9854 -1.3953  0.1649
  958MOL0     C29259   6.193  11.261  10.127 -0.4146 -0.2246  0.5216
  958MOL0     C29260   6.384  11.104   9.594 -0.1926 -0.2009 -0.2938
  958MOL0     C29261   6.339  10.993   9.526  0.3754  0.1451  0.1015
  958MOL0     C29262   6.231  11.020   9.422  0.7845 -0.2172 -0.1719
  958MOL0     H29263   6.133  10.632   9.389  1.1691  0.2899  2.3578
  958MOL0     H29264   6.032  10.409   9.323  0.3497  0.9486 -1.8181
  958MOL0     H29265   5.985  10.211   9.237 -0.4222 -0.9841  0.8997
  958MOL0     H29266   6.030  10.046   9.232 -2.4452 -0.0457  0.0358
  958MOL0     H29267   5.987  10.231   9.461 -0.3420 -0.1252 -0.6581
  958MOL0     H29268   6.083  10.080   9.480  1.6069  0.1094 -1.4770
  958MOL0     H29269   5.846   9.995   9.348  1.6416 -3.3097  2.1566
  958MOL0     H29270   5.792  10.159   9.404  1.2410 -0.2711 -1.0755
  958MOL0     H29271   5.803  10.071   9.650 -0.9035  0.2322  1.5855
  958MOL0     H29272   5.725   9.956   9.543  0.0689  0.0489  0.0643
  958MOL0     H29273   5.895   9.814   9.526 -0.3409  0.0790  0.3855
  958MOL0     H29274   6.008   9.923   9.609 -0.0979  2.1081 -0.2055
  958MOL0     H29275   5.834   9.914   9.809  2.1210  0.6449 -0.1932
  958MOL0     H29276   5.777   9.758   9.726 -0.7398 -0.3952  0.2970
  958MOL0     H29277   6.062   9.800   9.795 -1.4032  2.2329 -2.6959
  958MOL0     H29278   5.985   9.647   9.749  2.6198 -0.1603  1.2442
  958MOL0     H29279   5.964   9.785  10.008 -0.1953  0.4724 -0.2472
  958MOL0     H29280   5.834   9.667   9.953  0.8039 -2.9937  1.6923
  958MOL0     H29281   5.975   9.583  10.196  0.8594  1.4457 -0.6297
  958MOL0     H29282   6.086   9.365  10.303 -1.4959  3.9973 -0.3452
  958MOL0     H29283   6.210   9.275  10.212 -0.4542  0.7517 -1.6897
  958MOL0     H29284   6.339   9.499  10.216 -0.9152 -0.0627 -0.7778
  958MOL0     H29285   6.230   9.554  10.342  1.0246  0.0475 -0.4677
  958MOL0     H29286   6.287   9.314  10.473 -0.0209  2.6883  2.5722
  958MOL0     H29287   6.396   9.460  10.465 -1.0916  1.3334  0.0272
  958MOL0     H29288   6.511   9.361  10.276 -0.9892  0.3199  0.0206
  958MOL0     H29289   6.436   9.210  10.309  5.4629 -3.2114  1.9109
  958MOL0     H29290   6.443   9.036  10.436 -1.3752  0.5579 -4.4091
  958MOL0     H29291   6.573   8.815  10.404  0.2636  0.0529  1.4098
  958MOL0     H29292   6.801   8.521  10.607 -1.5563  2.0306 -1.1629
  958MOL0     H29293   6.900   8.285  10.599  0.8488  1.7190  2.3024
  958MOL0     H29294   7.009   8.121  10.193  0.2605  0.2151 -0.6955
  958MOL0     H29295   7.146   8.222  10.240 -1.3373  1.5806  0.0827
  958MOL0     H29296   7.251   8.066  10.384 -0.3621  1.1085 -1.6713
  958MOL0     H29297   7.128   7.947  10.388  0.2651 -0.6165  0.9044
  958MOL0     H29298   7.189   7.982  10.103 -2.4842  1.1048  2.0943
  958MOL0     H29299   7.337   7.996  10.193 -0.8278  4.0817 -2.2335
  958MOL0     H29300   7.163   7.749  10.217  0.0356 -0.2414 -0.5901
  958MOL0     H29301   7.305   7.780  10.319 -1.2793  1.9084  1.1490
  958MOL0     H29302   7.454   7.810  10.132 -0.1868  0.9068 -0.5765
  958MOL0     H29303   7.321   7.804  10.023 -1.4514 -1.2872  0.1991
  958MOL0     H29304   7.256   7.580  10.090  0.6766  0.6903 -0.8308
  958MOL0     H29305   7.416   7.563  10.023  1.3942 -1.4169  1.5753
  958MOL0     H29306   7.344   7.532  10.310  1.1208 -1.7252  1.0244
  958MOL0     H29307   7.507   7.570  10.272 -0.2446 -1.2856  3.1287
  958MOL0     H29308   7.371   7.315  10.195 -0.7864  1.8404  0.8146
  958MOL0     H29309   7.523   7.373  10.119  1.8585 -3.2959  1.4422
  958MOL0     H29310   6.974   8.354  10.178  1.7362 -2.8046  1.4987
  958MOL0     H29311   6.888   8.570  10.197  0.3208 -3.4618 -2.2047
  958MOL0     H29312   6.934   9.024  10.343 -0.4353 -2.6508  0.6612
  958MOL0     H29313   6.817   9.256  10.411  0.6592 -0.6261  0.2084
  958MOL0     H29314   6.424  10.241   9.325  3.2464  1.1161  2.2590
  958MOL0     H29315   6.513  10.424   9.415  0.0001 -0.2184 -3.6423
  958MOL0     H29316   6.594  10.789   9.636  0.9488  1.9659  2.5410
  958MOL0     H29317   6.642  10.973   9.759 -2.4079 -1.1225  2.8263
  958MOL0     H29318   6.329  11.279   9.775  0.0777  0.0975  2.1449
  958MOL0     H29319   6.443  11.368   9.674 -0.5042 -0.7076 -0.3767
  958MOL0     H29320   6.554  11.471   9.845 -0.2351  0.5058  0.3619
  958MOL0     H29321   6.515  11.365   9.974  0.8094  1.7692  0.1401
  958MOL0     H29322   6.354  11.583   9.841  1.2506 -0.9099 -0.7620
  958MOL0     H29323   6.395  11.561  10.013  1.9595  1.0094 -1.9346
  958MOL0     H29324   6.172  11.548  10.008  1.7023 -0.1700  1.6948
  958MOL0     H29325   6.172  11.444   9.858 -1.1884  2.9560  0.0857
  958MOL0     H29326   6.191  11.198  10.213 -0.7072  0.8808  1.3463
  958MOL0     H29327   6.326  11.194   9.575 -1.3186 -0.1512  2.8058
  958MOL0     H29328   6.288  11.049   9.334 -0.2060 -0.9669 -1.0839
  958MOL0     H29329   6.161  10.937   9.411  2.2121 -2.1557  3.6173
  958MOL0     H29330   6.173  11.111   9.443  1.4681 -0.2891  2.4166
  959MOL0     O29331   7.617  11.182   6.437 -0.4755  0.2240  0.0125
  959MOL0     C29332   7.643  11.160   6.554 -0.8319 -0.2805 -1.1469
  959MOL0     O29333   7.598  11.240   6.658 -0.2108  0.0824 -0.2153
  959MOL0     C29334   7.516  11.348   6.653 -0.0511 -0.9281  1.6351
  959MOL0     C29335   7.419  11.372   6.542  0.0136 -0.1433 -0.5604
  959MOL0     C29336   7.335  11.480   6.542  0.9448  0.4813  0.4966
  959MOL0     C29337   7.331  11.566   6.649 -0.6647  0.9244 -0.1872
  959MOL0     O29338   7.236  11.669   6.647  0.1656 -0.3292 -0.2589
  959MOL0     C29339   7.204  11.728   6.773  0.5980  0.3103 -0.4003
  959MOL0     C29340   7.127  11.650   6.873 -0.1718 -0.0411 -0.2453
  959MOL0     C29341   6.990  11.594   6.814  0.0652  0.0140  0.0761
  959MOL0     C29342   6.998  11.450   6.759 -0.3235  0.8472 -0.3947
  959MOL0     C29343   6.867  11.371   6.759 -0.6178  0.0395 -0.0601
  959MOL0     C29344   6.786  11.440   6.658  0.6866 -0.1151  0.0015
  959MOL0     C29345   6.678  11.348   6.597 -0.2198  0.3359  0.8190
  959MOL0     C29346   6.544  11.417   6.579  0.4043 -0.3543  0.4738
  959MOL0     N29347   6.555  11.536   6.496  0.4884  0.3931  0.3039
  959MOL0     C29348   6.568  11.532   6.356  0.1200 -0.2726  0.2732
  959MOL0     C29349   6.574  11.657   6.315  0.5180 -1.0300 -0.5526
  959MOL0     C29350   6.611  11.703   6.183 -0.0311  0.0193 -0.0161
  959MOL0     C29351   6.521  11.647   6.072  0.1313  1.5755  0.3341
  959MOL0     C29352   6.523  11.735   5.947 -0.1907 -0.0235  0.0686
  959MOL0     C29353   6.641  11.717   5.842  0.4109  0.7599 -0.0768
  959MOL0     O29354   6.656  11.582   5.809 -0.6250 -0.1482  0.0862
  959MOL0     C29355   6.645  11.545   5.674 -0.1308  0.7731  0.3028
  959MOL0     C29356   6.735  11.606   5.593  0.2999  0.1975 -0.1543
  959MOL0     C29357   6.721  11.602   5.455 -0.2894  0.9679  0.7251
  959MOL0     C29358   6.602  11.536   5.404 -0.4056 -1.3774  0.8342
  959MOL0     C29359   6.580  11.544   5.256  1.0191  0.0642  0.4120
  959MOL0     O29360   6.459  11.499   5.194  0.3775  0.0836 -1.0315
  959MOL0     C29361   6.453  11.454   5.067  0.7546 -0.3243  0.3913
  959MOL0     C29362   6.488  11.533   4.952  0.6897  0.4043  1.3983
  959MOL0     C29363   6.436  11.492   4.827  0.4808  0.4030  0.0264
  959MOL0     C29364   6.379  11.365   4.806  0.3049 -0.5410 -0.7796
  959MOL0     O29365   6.358  11.311   4.684  0.2967 -0.7676 -0.5720
  959MOL0     C29366   6.411  11.374   4.567  0.0697 -0.0206  0.4665
  959MOL0     C29367   6.376  11.284   4.458  0.2869 -0.1391  0.9997
  959MOL0     C29368   6.223  11.282   4.422 -0.6002 -0.1105  0.0343
  959MOL0     C29369   6.202  11.218   4.283 -0.8761  0.2244  0.2489
  959MOL0     C29370   6.052  11.201   4.245  0.0264 -0.7795  0.0885
  959MOL0     C29371   5.988  11.320   4.177  0.2538  0.6110 -0.2080
  959MOL0     C29372   5.835  11.308   4.159  0.2342  0.5802 -0.5669
  959MOL0     C29373   5.785  11.230   4.029  0.9306  0.5688  0.4863
  959MOL0    Cl29374   5.887  11.297   3.891  0.1318  0.0445  0.3133
  959MOL0     C29375   6.357  11.278   4.921  0.3017 -0.5209 -0.3307
  959MOL0     C29376   6.391  11.329   5.046  0.3474 -0.1601 -0.7573
  959MOL0     O29377   6.683  11.576   5.191  0.3514 -0.2290  1.0125
  959MOL0     C29378   6.501  11.492   5.491  0.0980 -0.0642  0.4750
  959MOL0     C29379   6.523  11.497   5.625 -0.6271 -0.6785 -0.3602
  959MOL0     N29380   6.555  11.734   6.428 -0.3389  0.5125  1.3181
  959MOL0     N29381   6.545  11.666   6.531  0.6131 -0.0521 -0.1648
  959MOL0     C29382   7.424  11.545   6.755 -0.8428 -0.1411 -0.0272
  959MOL0     C29383   7.515  11.436   6.756  0.4168  0.4535 -0.2779
  959MOL0     C29384   7.742  11.050   6.597  0.0812  0.2375 -0.3056
  959MOL0     C29385   7.737  11.009   6.734 -0.0873 -0.2540 -0.8081
  959MOL0     C29386   7.827  10.905   6.771  0.6428 -0.4223 -0.6281
  959MOL0     C29387   7.903  10.830   6.679  1.2696 -0.2989 -0.4657
  959MOL0     O29388   7.967  10.712   6.719 -0.4131  0.2141 -1.4091
  959MOL0     C29389   8.005  10.617   6.616  0.5526 -0.9010 -0.1908
  959MOL0     C29390   7.888  10.546   6.545 -0.0144  0.1432  0.5134
  959MOL0     C29391   7.901  10.412   6.474 -0.4083  0.1411 -0.2450
  959MOL0     C29392   7.954  10.430   6.336 -0.8201 -0.1814 -0.5351
  959MOL0     C29393   8.026  10.306   6.288  0.3718 -0.7167 -0.4785
  959MOL0     C29394   8.074  10.201   6.261  0.3535  0.0310  0.3167
  959MOL0     C29395   7.917  10.893   6.555 -0.5111 -0.3167  0.3270
  959MOL0     C29396   7.838  11.000   6.507  0.3210  0.1274  0.1922
  959MOL0     C29397   7.871  11.047   6.364 -0.6870  0.5886 -0.5421
  959MOL0     H29398   7.405  11.297   6.464 -0.0673 -0.7042 -0.0083
  959MOL0     H29399   7.259  11.493   6.466  0.6642  0.8910  0.8450
  959MOL0     H29400   7.295  11.757   6.827  0.0374  1.4821 -0.0551
  959MOL0     H29401   7.134  11.811   6.762 -0.3101 -0.7098 -3.1165
  959MOL0     H29402   7.118  11.710   6.964  2.8474 -1.2034  0.9613
  959MOL0     H29403   7.190  11.565   6.902  0.3453  0.6330  0.6702
  959MOL0     H29404   6.940  11.658   6.741 -3.1525  0.4419  2.4501
  959MOL0     H29405   6.923  11.590   6.901  3.4430  1.7309  3.0363
  959MOL0     H29406   7.030  11.458   6.655 -3.5475 -0.9234 -1.6821
  959MOL0     H29407   7.072  11.393   6.816  1.1675  2.5158 -0.6022
  959MOL0     H29408   6.876  11.266   6.730 -1.2143  1.0576 -4.7007
  959MOL0     H29409   6.820  11.374   6.857  2.1094 -3.3442  1.5704
  959MOL0     H29410   6.740  11.528   6.704  0.8107  2.8489 -4.8663
  959MOL0     H29411   6.846  11.483   6.577  0.1741  0.6287  0.0102
  959MOL0     H29412   6.671  11.259   6.660 -0.1216  0.1921  0.6311
  959MOL0     H29413   6.718  11.317   6.499  3.6780  2.7550  1.4335
  959MOL0     H29414   6.473  11.344   6.538  1.3083  0.5667 -3.0678
  959MOL0     H29415   6.511  11.449   6.678  1.2810  1.2588  0.2664
  959MOL0     H29416   6.575  11.444   6.293 -2.6093 -1.0679  0.9346
  959MOL0     H29417   6.597  11.809   6.204 -1.6417 -0.2884  0.5731
  959MOL0     H29418   6.717  11.684   6.160 -0.3145  0.4637 -1.7779
  959MOL0     H29419   6.550  11.544   6.052  2.4698  2.2643 -0.1337
  959MOL0     H29420   6.421  11.651   6.115 -0.5508 -0.1826 -0.9683
  959MOL0     H29421   6.522  11.839   5.982 -1.1730  0.4779 -1.3523
  959MOL0     H29422   6.431  11.704   5.897 -1.5712  3.1361  0.4412
  959MOL0     H29423   6.733  11.761   5.880 -1.4018  3.2599  1.8560
  959MOL0     H29424   6.613  11.783   5.758 -1.7672  0.8106  0.6162
  959MOL0     H29425   6.830  11.636   5.635 -1.2627  2.1450  2.2498
  959MOL0     H29426   6.795  11.644   5.388 -0.7816  3.9320  1.8889
  959MOL0     H29427   6.526  11.634   4.958  2.2702  0.0514 -1.4147
  959MOL0     H29428   6.448  11.561   4.744  1.6683 -2.2122 -2.1311
  959MOL0     H29429   6.369  11.475   4.554 -0.6060 -0.4766 -1.1100
  959MOL0     H29430   6.520  11.383   4.567  0.1352 -0.4895 -1.3599
  959MOL0     H29431   6.426  11.328   4.372  3.5957 -1.2622  2.1769
  959MOL0     H29432   6.421  11.184   4.468  1.5599  0.4679  1.6426
  959MOL0     H29433   6.168  11.230   4.501 -1.3362  0.7221  0.0801
  959MOL0     H29434   6.188  11.385   4.424  1.1745  0.5702 -1.4088
  959MOL0     H29435   6.252  11.121   4.296 -0.4671  0.5976  1.6548
  959MOL0     H29436   6.255  11.259   4.197 -1.1062 -2.1075 -1.0723
  959MOL0     H29437   5.998  11.183   4.339 -0.1037 -2.9761 -0.3573
  959MOL0     H29438   6.027  11.123   4.173  1.7715 -1.5943  0.3028
  959MOL0     H29439   5.994  11.393   4.258 -4.2426 -0.8557  1.8151
  959MOL0     H29440   6.040  11.348   4.085 -1.0584 -1.9588 -1.8646
  959MOL0     H29441   5.784  11.404   4.155  2.8563  2.0145 -1.9728
  959MOL0     H29442   5.782  11.265   4.244 -1.4752 -0.6651 -2.1749
  959MOL0     H29443   5.810  11.124   4.034  0.1781  0.3868  0.3949
  959MOL0     H29444   5.681  11.240   3.996  0.0458 -0.5425  2.7469
  959MOL0     H29445   6.313  11.180   4.907 -0.4386 -0.0797 -1.1585
  959MOL0     H29446   6.359  11.273   5.133 -0.0529  2.5460  0.9479
  959MOL0     H29447   6.424  11.433   5.443  1.5121 -0.3605 -1.5804
  959MOL0     H29448   6.444  11.463   5.692 -0.5292 -0.5265 -0.1666
  959MOL0     H29449   7.412  11.605   6.844 -2.7364 -4.3823  2.8942
  959MOL0     H29450   7.575  11.411   6.843  1.7533  3.2318 -0.3024
  959MOL0     H29451   7.668  11.043   6.810 -0.4002 -1.5559 -0.4858
  959MOL0     H29452   7.821  10.872   6.875 -0.5362 -0.5501 -0.7209
  959MOL0     H29453   8.068  10.543   6.667 -2.0782 -4.5462 -1.7138
  959MOL0     H29454   8.072  10.669   6.547  0.2866  0.2255  0.3906
  959MOL0     H29455   7.843  10.615   6.474 -1.0552 -1.5632 -0.5448
  959MOL0     H29456   7.813  10.532   6.623  0.9366 -2.4824  1.0441
  959MOL0     H29457   7.809  10.353   6.480 -0.6840  0.7449  2.1321
  959MOL0     H29458   7.962  10.346   6.536 -2.0177  0.6810  2.0058
  959MOL0     H29459   7.872  10.441   6.265 -0.2817  0.4885 -1.0710
  959MOL0     H29460   8.023  10.514   6.326  2.7964 -2.1007  4.2247
  959MOL0     H29461   8.132  10.119   6.224 -0.2893 -1.4245  2.3838
  959MOL0     H29462   7.991  10.859   6.483  0.1530 -0.8677  1.2453
  959MOL0     H29463   7.802  11.012   6.286 -0.3308 -2.5750  0.4172
  959MOL0     H29464   7.864  11.156   6.371 -2.1825  0.5332 -0.6839
  959MOL0     H29465   7.974  11.017   6.342 -1.2043 -0.8639 -1.1477
  960MOL0     O29466   9.137   9.439   7.825 -0.3693  0.7222 -0.6184
  960MOL0     C29467   9.085   9.522   7.898 -0.0136  0.0208  0.4367
  960MOL0     O29468   8.983   9.592   7.859  0.0078 -0.0794 -0.7933
  960MOL0     C29469   8.994   9.662   7.738 -0.0995  1.0737 -0.1507
  960MOL0     C29470   9.004   9.798   7.736  0.3741  0.0889  0.0855
  960MOL0     C29471   9.020   9.869   7.622  0.2551  0.3213  0.4817
  960MOL0     C29472   9.028   9.809   7.496  0.2746  0.5661 -0.6598
  960MOL0     O29473   9.035   9.883   7.380 -0.4829 -0.3873 -0.5699
  960MOL0     C29474   8.902   9.921   7.339  1.0298 -0.4657  0.1836
  960MOL0     C29475   8.902  10.063   7.288  0.6526  0.3634  0.1263
  960MOL0     C29476   8.753  10.106   7.266  0.2824  0.8911  0.9823
  960MOL0     C29477   8.743  10.250   7.216  0.2670  0.7321 -0.1699
  960MOL0     C29478   8.588  10.276   7.207 -0.1660  0.2444  0.2980
  960MOL0     C29479   8.551  10.395   7.116 -1.3344  0.7123  0.2669
  960MOL0     C29480   8.407  10.414   7.117  0.0133  0.0673 -0.7762
  960MOL0     C29481   8.354  10.555   7.067 -0.3587  0.8717  0.2205
  960MOL0     N29482   8.206  10.566   7.083  0.5959 -0.7087  1.1983
  960MOL0     C29483   8.118  10.462   7.048  0.2538  0.1274  0.4659
  960MOL0     C29484   8.000  10.518   7.071 -0.0188 -0.5905  0.7209
  960MOL0     C29485   7.867  10.445   7.064 -0.1293  0.0130 -0.8682
  960MOL0     C29486   7.786  10.474   6.932  0.0783  0.5933 -0.1220
  960MOL0     C29487   7.709  10.603   6.936  0.2157 -0.2158  0.2110
  960MOL0     C29488   7.585  10.602   7.037  0.4688 -0.6312 -0.2611
  960MOL0     O29489   7.515  10.471   7.038 -0.8042 -0.1691  0.2290
  960MOL0     C29490   7.392  10.462   7.098 -0.2749  0.0456  0.2802
  960MOL0     C29491   7.331  10.339   7.099 -0.0333  0.7040  0.3325
  960MOL0     C29492   7.200  10.313   7.142 -0.8208 -0.1221  0.5791
  960MOL0     C29493   7.132  10.423   7.198  0.0973 -0.1165 -0.4175
  960MOL0     C29494   6.993  10.392   7.240  0.0233 -0.2022  1.2129
  960MOL0     O29495   6.968  10.270   7.285  0.9199  0.1705 -0.1456
  960MOL0     C29496   6.834  10.236   7.289 -0.1308 -0.5704  0.6110
  960MOL0     C29497   6.792  10.171   7.409 -0.0630 -0.0777 -0.6276
  960MOL0     C29498   6.658  10.117   7.428 -0.4638  0.1960 -0.1506
  960MOL0     C29499   6.566  10.136   7.324  0.2408 -0.4830 -0.4434
  960MOL0     O29500   6.434  10.099   7.320 -0.2020  0.4542  0.7323
  960MOL0     C29501   6.402   9.963   7.371 -0.3210  0.0941  0.0435
  960MOL0     C29502   6.256   9.934   7.343  0.4350 -0.2254  0.1692
  960MOL0     C29503   6.216   9.779   7.361  0.0238 -0.3987  0.6411
  960MOL0     C29504   6.068   9.762   7.316  0.8904  0.4999 -0.4098
  960MOL0     C29505   5.984   9.666   7.410  0.7003  0.0714 -0.2154
  960MOL0     C29506   5.837   9.650   7.388  0.8040  0.2945 -0.0886
  960MOL0     C29507   5.771   9.540   7.467 -1.1228 -0.1975 -0.4629
  960MOL0     C29508   5.619   9.551   7.490 -0.5533  0.0717  0.0031
  960MOL0    Cl29509   5.590   9.670   7.611  0.8063  0.3552  0.5214
  960MOL0     C29510   6.609  10.209   7.207 -0.7284 -0.2696  0.4354
  960MOL0     C29511   6.742  10.258   7.188 -0.0580  0.0330 -0.6379
  960MOL0     O29512   6.913  10.489   7.235 -0.1000  0.9211  0.4924
  960MOL0     C29513   7.194  10.546   7.213 -0.8248 -0.2129  0.0374
  960MOL0     C29514   7.323  10.564   7.159 -0.3229  0.8610  0.0062
  960MOL0     N29515   8.025  10.651   7.117 -0.3512  0.3458  0.5133
  960MOL0     N29516   8.148  10.674   7.126  0.5710 -0.3562 -0.3218
  960MOL0     C29517   9.006   9.672   7.487 -0.2238 -1.4852  0.4768
  960MOL0     C29518   9.005   9.602   7.611 -0.6535  0.1528  0.6264
  960MOL0     C29519   9.126   9.526   8.041  0.6824 -0.2196 -0.1879
  960MOL0     C29520   9.019   9.565   8.125 -0.2287  0.0741  0.4108
  960MOL0     C29521   9.037   9.571   8.262 -0.5398  0.2138 -0.1084
  960MOL0     C29522   9.156   9.531   8.320  0.8213  0.2132 -0.1129
  960MOL0     O29523   9.159   9.529   8.458 -0.5495 -0.4889 -0.4271
  960MOL0     C29524   9.287   9.506   8.522  0.1037 -0.5266  0.7851
  960MOL0     C29525   9.249   9.424   8.647 -0.7379 -0.5844  0.0850
  960MOL0     C29526   9.145   9.313   8.620  0.7624  0.1520 -1.0787
  960MOL0     C29527   9.087   9.235   8.746 -0.7974 -0.2567 -0.0763
  960MOL0     C29528   8.966   9.168   8.713 -0.0623 -0.0744 -0.5109
  960MOL0     C29529   8.882   9.096   8.654 -1.1348 -0.0474  0.7637
  960MOL0     C29530   9.264   9.490   8.233 -0.2007  0.2864  0.3451
  960MOL0     C29531   9.252   9.487   8.093 -0.4720 -0.2362 -0.3881
  960MOL0     C29532   9.364   9.451   7.996 -1.1378  1.1941  0.3782
  960MOL0     H29533   9.006   9.860   7.825 -1.0300  1.0502 -0.5072
  960MOL0     H29534   9.010   9.976   7.637  0.2269  0.3742  0.0819
  960MOL0     H29535   8.886   9.852   7.256  1.3957 -1.9597  1.3208
  960MOL0     H29536   8.820   9.902   7.407 -1.5843 -0.7948 -2.8346
  960MOL0     H29537   8.954  10.069   7.192  1.4670 -0.9918  0.4585
  960MOL0     H29538   8.947  10.130   7.362 -1.5464 -1.5535  3.4212
  960MOL0     H29539   8.696  10.088   7.358 -0.8680  0.9829  0.2978
  960MOL0     H29540   8.703  10.048   7.188 -0.0369  0.3389  1.5866
  960MOL0     H29541   8.797  10.318   7.282  1.2448 -0.5027  0.3394
  960MOL0     H29542   8.789  10.259   7.118  0.9487  0.2950  0.1069
  960MOL0     H29543   8.535  10.189   7.168 -2.0262  0.7920  1.4853
  960MOL0     H29544   8.549  10.297   7.307 -1.2602 -1.0283  0.1595
  960MOL0     H29545   8.594  10.491   7.146  0.4724 -0.1349  0.5327
  960MOL0     H29546   8.592  10.385   7.015 -0.8177  1.6774  0.3722
  960MOL0     H29547   8.361  10.395   7.214 -0.8533 -3.3403 -1.6990
  960MOL0     H29548   8.359  10.348   7.044 -4.8588  0.1255  1.9132
  960MOL0     H29549   8.399  10.636   7.125 -1.0046  0.9886  0.5782
  960MOL0     H29550   8.385  10.566   6.963 -0.1133  2.3888  0.4277
  960MOL0     H29551   8.150  10.369   7.001  2.5717  0.8216  0.5558
  960MOL0     H29552   7.872  10.335   7.067  0.7351  0.0257 -1.4297
  960MOL0     H29553   7.800  10.473   7.145 -0.5264 -2.6375 -0.1750
  960MOL0     H29554   7.853  10.483   6.846 -1.2095  1.5373 -1.0697
  960MOL0     H29555   7.713  10.393   6.916  0.9219 -0.0803 -0.6849
  960MOL0     H29556   7.681  10.621   6.832 -2.2572 -3.1775  0.2503
  960MOL0     H29557   7.774  10.680   6.981  1.5781 -1.8847  1.2050
  960MOL0     H29558   7.518  10.686   7.017  2.3423  0.4466 -2.6574
  960MOL0     H29559   7.641  10.631   7.126  1.9482 -2.1079 -0.6421
  960MOL0     H29560   7.389  10.264   7.047  0.5524  1.6929 -0.4935
  960MOL0     H29561   7.168  10.211   7.129 -1.6776  0.0757  1.0823
  960MOL0     H29562   6.867  10.144   7.483  1.0528  2.2806 -0.8107
  960MOL0     H29563   6.637  10.072   7.524 -1.1099 -2.6361 -1.5141
  960MOL0     H29564   6.471   9.894   7.321  0.1679  1.0178 -0.5862
  960MOL0     H29565   6.420   9.958   7.479 -0.9288 -0.9323  0.1160
  960MOL0     H29566   6.214  10.003   7.417  0.2395 -0.7546  0.5599
  960MOL0     H29567   6.226   9.964   7.243  1.0329 -3.9112 -1.2972
  960MOL0     H29568   6.283   9.712   7.307 -1.6263 -1.0968 -0.6454
  960MOL0     H29569   6.220   9.757   7.468 -1.9727  1.2276  1.1202
  960MOL0     H29570   6.056   9.723   7.215  0.5468 -0.2702 -0.0821
  960MOL0     H29571   6.018   9.859   7.320  0.8930  0.5812  4.9485
  960MOL0     H29572   6.008   9.696   7.512  0.9899  2.5705 -0.9711
  960MOL0     H29573   6.035   9.570   7.394  1.3654  0.5327 -0.9298
  960MOL0     H29574   5.782   9.744   7.398  0.4925  0.1164 -0.0976
  960MOL0     H29575   5.829   9.630   7.280 -3.5270 -1.3814  0.3346
  960MOL0     H29576   5.824   9.522   7.561 -0.8359 -2.7691 -1.0570
  960MOL0     H29577   5.791   9.451   7.407 -1.2687 -0.2042 -0.5020
  960MOL0     H29578   5.577   9.574   7.391 -0.1953 -2.3820 -0.7991
  960MOL0     H29579   5.568   9.457   7.511 -1.5097  0.4399 -0.5954
  960MOL0     H29580   6.547  10.228   7.120 -1.9843 -2.1178  0.8598
  960MOL0     H29581   6.758  10.315   7.097  3.1216  2.1558  1.0634
  960MOL0     H29582   7.152  10.631   7.266  1.9584  0.4848  1.2715
  960MOL0     H29583   7.369  10.662   7.165  1.9123 -0.0805 -0.7319
  960MOL0     H29584   9.003   9.615   7.394 -2.6925  0.0404 -0.5028
  960MOL0     H29585   9.019   9.495   7.602  0.5737  0.1346  2.3614
  960MOL0     H29586   8.918   9.580   8.089  0.1148 -0.4332 -0.8445
  960MOL0     H29587   8.962   9.595   8.338  2.2868  3.9431  1.8972
  960MOL0     H29588   9.335   9.604   8.533  0.6369 -0.4665 -1.6243
  960MOL0     H29589   9.347   9.430   8.470 -2.2919 -2.5949  0.8718
  960MOL0     H29590   9.209   9.491   8.723 -2.6540  0.7051 -1.9479
  960MOL0     H29591   9.339   9.375   8.687 -0.8998 -0.7244  0.2811
  960MOL0     H29592   9.178   9.235   8.551 -1.0101 -1.6023 -0.0493
  960MOL0     H29593   9.050   9.358   8.590 -0.3494 -0.6094  1.0789
  960MOL0     H29594   9.156   9.162   8.791  0.0305 -0.1123 -1.0645
  960MOL0     H29595   9.060   9.311   8.819 -2.2525  0.4998 -1.3544
  960MOL0     H29596   8.798   9.040   8.619  2.1025 -2.3168 -4.6612
  960MOL0     H29597   9.359   9.449   8.268 -1.5129 -2.0771  1.3512
  960MOL0     H29598   9.349   9.501   7.899 -0.6046 -2.0314 -1.5083
  960MOL0     H29599   9.461   9.481   8.036 -0.4571  1.4554 -1.3636
  960MOL0     H29600   9.375   9.343   7.983  0.0417  1.5350 -2.1399
  961MOL0     O29601  11.014  11.423   4.917  0.0742  0.5715  0.1764
  961MOL0     C29602  11.130  11.367   4.923 -0.9858  0.2655  0.8185
  961MOL0     O29603  11.242  11.432   4.896  0.5456 -0.8509 -0.2001
  961MOL0     C29604  11.273  11.566   4.925 -0.1460  0.8622  0.6024
  961MOL0     C29605  11.382  11.625   4.869 -0.9285 -0.6384 -0.7230
  961MOL0     C29606  11.432  11.754   4.893  0.5477  0.4831 -0.2318
  961MOL0     C29607  11.355  11.824   4.991 -0.2879 -0.2676  0.3966
  961MOL0     O29608  11.398  11.955   5.020  0.0931  0.8988 -0.0466
  961MOL0     C29609  11.386  11.990   5.163 -0.4046  0.2001 -0.3588
  961MOL0     C29610  11.449  12.125   5.215 -0.5110 -0.2477  0.0645
  961MOL0     C29611  11.400  12.247   5.126  0.8720  0.5862 -0.4027
  961MOL0     C29612  11.269  12.309   5.189 -0.6756 -0.7371 -0.2951
  961MOL0     C29613  11.237  12.444   5.134 -0.5146  0.0328 -0.2989
  961MOL0     C29614  11.303  12.555   5.209  0.7494 -0.6071  0.5651
  961MOL0     C29615  11.449  12.577   5.195  1.0660 -0.6288  0.5389
  961MOL0     C29616  11.509  12.688   5.273  0.7050 -0.6546 -0.3318
  961MOL0     N29617  11.470  12.817   5.205 -0.4358  0.1211 -0.4634
  961MOL0     C29618  11.358  12.903   5.236  0.1298  0.3820  0.4394
  961MOL0     C29619  11.391  13.019   5.175  0.1397  0.4811 -0.1704
  961MOL0     C29620  11.300  13.139   5.181 -0.4234 -0.2155  0.5642
  961MOL0     C29621  11.187  13.124   5.083 -0.3398  0.4272 -0.4936
  961MOL0     C29622  11.223  13.133   4.928 -0.3735 -0.5989 -0.7253
  961MOL0     C29623  11.101  13.080   4.849  0.2516  0.3803  0.0040
  961MOL0     O29624  11.095  13.128   4.710 -0.1262 -0.7126 -0.3625
  961MOL0     C29625  11.196  13.095   4.628  0.6538 -0.4666 -0.5598
  961MOL0     C29626  11.316  13.162   4.614 -0.1137 -0.1844  0.5791
  961MOL0     C29627  11.402  13.127   4.513 -0.0428  0.1386  1.5916
  961MOL0     C29628  11.358  13.039   4.407  0.8685 -0.6673 -0.3200
  961MOL0     C29629  11.453  13.014   4.295  0.6994 -0.5143 -0.4158
  961MOL0     O29630  11.440  12.899   4.217  0.7203 -1.0205 -0.2039
  961MOL0     C29631  11.545  12.857   4.143 -0.5354  0.3078  0.6477
  961MOL0     C29632  11.618  12.950   4.055  0.1355  0.3512 -0.6684
  961MOL0     C29633  11.719  12.907   3.974 -0.4339  0.2827  0.3521
  961MOL0     C29634  11.763  12.774   3.964  0.8839  0.4413  0.0316
  961MOL0     O29635  11.864  12.737   3.879 -0.2725  0.7360 -0.1658
  961MOL0     C29636  11.919  12.597   3.876  0.3106 -1.3848 -0.5703
  961MOL0     C29637  11.816  12.512   3.796  1.0002 -0.6941  0.2513
  961MOL0     C29638  11.863  12.379   3.750  0.2481 -0.6688 -0.0249
  961MOL0     C29639  11.749  12.294   3.686  0.4531  0.3511 -0.1449
  961MOL0     C29640  11.802  12.165   3.611  1.4403  0.1035  0.1948
  961MOL0     C29641  11.695  12.083   3.528 -0.2413 -0.7429  0.2833
  961MOL0     C29642  11.631  12.162   3.411 -0.5230  1.3048 -1.2717
  961MOL0     C29643  11.502  12.240   3.447 -0.8576 -0.5959  0.0927
  961MOL0    Cl29644  11.373  12.133   3.466  0.1299 -0.2118 -0.3064
  961MOL0     C29645  11.692  12.684   4.045  0.0143  0.1461  0.5807
  961MOL0     C29646  11.588  12.722   4.131 -0.7999 -0.1565  0.3938
  961MOL0     O29647  11.548  13.099   4.287  0.9551  0.4303 -0.5056
  961MOL0     C29648  11.228  12.978   4.422 -0.5044  0.8638 -0.2572
  961MOL0     C29649  11.153  13.010   4.534  0.5861  0.4433  0.2036
  961MOL0     N29650  11.516  13.005   5.116 -0.0674  0.1876 -1.0249
  961MOL0     N29651  11.563  12.882   5.129 -0.0527  0.1117 -0.2310
  961MOL0     C29652  11.240  11.773   5.052 -0.5185 -0.5866 -0.0246
  961MOL0     C29653  11.199  11.648   5.016 -0.9919  0.4545 -0.0251
  961MOL0     C29654  11.139  11.216   4.948 -0.7239  0.3583 -0.0316
  961MOL0     C29655  11.018  11.156   4.996  0.0933 -0.0674  1.0037
  961MOL0     C29656  11.004  11.013   5.002  0.2312  0.0465 -0.5606
  961MOL0     C29657  11.112  10.933   4.977  0.6896  0.7736 -1.4897
  961MOL0     O29658  11.085  10.800   4.999 -0.3108 -0.5163  0.1609
  961MOL0     C29659  11.107  10.707   4.891  0.3574  0.4077  0.5775
  961MOL0     C29660  10.968  10.653   4.858  0.1396 -0.3103 -0.1276
  961MOL0     C29661  10.894  10.603   4.979 -0.6224 -0.3008  0.4452
  961MOL0     C29662  10.772  10.530   4.946  0.3031  1.1009  0.9271
  961MOL0     C29663  10.668  10.636   4.917 -0.8124  0.6181 -0.0076
  961MOL0     C29664  10.578  10.726   4.918  0.3966 -0.0893  0.6756
  961MOL0     C29665  11.237  10.987   4.954  0.2599  0.1495 -0.2022
  961MOL0     C29666  11.253  11.128   4.940 -0.2264  0.1827 -0.6973
  961MOL0     C29667  11.396  11.194   4.927 -0.2884 -0.0070 -0.0346
  961MOL0     H29668  11.419  11.560   4.791 -1.3612 -2.6943  0.7080
  961MOL0     H29669  11.520  11.797   4.847  0.6833  1.0062  0.5067
  961MOL0     H29670  11.277  11.999   5.171 -0.4869 -1.4778  0.7666
  961MOL0     H29671  11.428  11.912   5.227 -1.9947 -3.8950 -3.8433
  961MOL0     H29672  11.555  12.117   5.187 -1.1363 -1.6624 -2.1267
  961MOL0     H29673  11.441  12.138   5.323  2.3587  0.8010  0.2384
  961MOL0     H29674  11.368  12.220   5.025  0.5686  0.3978 -0.2576
  961MOL0     H29675  11.474  12.328   5.118  1.4458 -0.0868 -2.6960
  961MOL0     H29676  11.179  12.250   5.171 -1.4127  1.0988 -3.4752
  961MOL0     H29677  11.274  12.317   5.298  1.6932 -0.6593 -0.3598
  961MOL0     H29678  11.254  12.461   5.028 -0.4990  0.5600 -0.2130
  961MOL0     H29679  11.128  12.444   5.146 -0.5221 -5.2406  2.8713
  961MOL0     H29680  11.254  12.651   5.190  3.2629  0.3422 -1.6641
  961MOL0     H29681  11.291  12.524   5.313  0.0325 -0.5471  0.5044
  961MOL0     H29682  11.469  12.578   5.088  0.5639  0.7974  0.4369
  961MOL0     H29683  11.502  12.492   5.241 -0.2017 -0.5976  2.1758
  961MOL0     H29684  11.462  12.688   5.371  2.5020 -1.1340  0.5657
  961MOL0     H29685  11.612  12.660   5.294  1.1933  0.5418 -1.0127
  961MOL0     H29686  11.272  12.877   5.297  0.6475  0.7387  1.3406
  961MOL0     H29687  11.258  13.131   5.282 -1.0956 -0.0719  0.3001
  961MOL0     H29688  11.360  13.230   5.175 -1.0555  0.1346 -0.8661
  961MOL0     H29689  11.138  13.027   5.096 -0.6725  0.0315 -3.8361
  961MOL0     H29690  11.121  13.202   5.122 -2.0381 -1.6546  1.0543
  961MOL0     H29691  11.319  13.083   4.913  0.7820  1.5828 -0.9857
  961MOL0     H29692  11.236  13.238   4.898 -0.9318 -0.7848 -1.6709
  961MOL0     H29693  11.009  13.096   4.905 -0.9639  0.2810 -1.8979
  961MOL0     H29694  11.118  12.972   4.845 -1.5363  0.1105 -1.0334
  961MOL0     H29695  11.342  13.242   4.683 -0.8667  0.8677 -0.3196
  961MOL0     H29696  11.498  13.177   4.508 -0.2458  0.7204  3.1648
  961MOL0     H29697  11.583  13.053   4.050  1.9863  1.1931  1.6855
  961MOL0     H29698  11.756  12.984   3.907  0.5699 -0.5229 -0.0468
  961MOL0     H29699  12.009  12.593   3.814 -0.5653  0.3063 -2.0607
  961MOL0     H29700  11.927  12.555   3.976 -4.5249  1.2167  1.2401
  961MOL0     H29701  11.720  12.507   3.848  0.5993 -3.6073 -0.6177
  961MOL0     H29702  11.797  12.572   3.707  0.0236  0.6946  1.3405
  961MOL0     H29703  11.938  12.400   3.673  0.4425  1.9787  0.7905
  961MOL0     H29704  11.896  12.325   3.839 -3.2509  2.0973  3.2599
  961MOL0     H29705  11.679  12.356   3.629 -2.0780 -1.9701  0.2571
  961MOL0     H29706  11.683  12.263   3.766 -0.8916  1.3389 -0.8346
  961MOL0     H29707  11.851  12.099   3.683  1.0181 -0.8268 -0.3547
  961MOL0     H29708  11.879  12.195   3.539 -2.1028 -0.2056 -4.1994
  961MOL0     H29709  11.754  12.002   3.484 -2.5699 -1.6994 -1.2869
  961MOL0     H29710  11.624  12.039   3.599  0.6640 -2.3571  0.2481
  961MOL0     H29711  11.606  12.082   3.339  0.7867 -0.7664  0.4574
  961MOL0     H29712  11.710  12.219   3.362  0.8495 -0.1545 -0.8385
  961MOL0     H29713  11.512  12.300   3.539  1.7280 -1.6469  0.5910
  961MOL0     H29714  11.481  12.305   3.362 -2.1287 -0.7094  0.2963
  961MOL0     H29715  11.711  12.578   4.037 -0.9486 -0.2760  2.9068
  961MOL0     H29716  11.540  12.641   4.186 -0.6105 -0.7932 -0.3587
  961MOL0     H29717  11.182  12.912   4.349 -0.8262  0.3369  0.4131
  961MOL0     H29718  11.056  12.963   4.523  0.9136 -0.0364 -0.8008
  961MOL0     H29719  11.192  11.826   5.135  1.8859 -0.0402  1.1060
  961MOL0     H29720  11.120  11.596   5.070 -0.6768 -2.2992 -2.0079
  961MOL0     H29721  10.926  11.211   5.011 -1.7203 -2.9439  1.2206
  961MOL0     H29722  10.915  10.965   5.040  1.2325  1.3813  4.1478
  961MOL0     H29723  11.188  10.644   4.928  2.4874  1.6108 -1.7217
  961MOL0     H29724  11.159  10.751   4.805 -0.7509  0.9417  0.1590
  961MOL0     H29725  10.984  10.569   4.790  0.8448 -1.4828  1.4213
  961MOL0     H29726  10.913  10.734   4.809  0.7489  0.9374  1.1723
  961MOL0     H29727  10.890  10.681   5.056  1.9749  0.5545 -0.1852
  961MOL0     H29728  10.958  10.529   5.028  0.3231 -0.4032 -0.8947
  961MOL0     H29729  10.790  10.472   4.854 -0.6008  2.1859  0.0384
  961MOL0     H29730  10.732  10.458   5.018  0.0608 -1.4315 -1.5600
  961MOL0     H29731  10.511  10.810   4.931 -1.8744 -1.1891 -2.6013
  961MOL0     H29732  11.314  10.918   4.921  0.9870  1.8263 -2.1792
  961MOL0     H29733  11.478  11.121   4.928 -1.2988 -1.2010 -0.6589
  961MOL0     H29734  11.409  11.240   4.829  1.7835 -0.0644  0.1686
  961MOL0     H29735  11.413  11.277   4.996  2.3565 -0.7860  0.3454
  962MOL0     O29736   2.854   0.054   6.842 -0.8440 -0.4810 -0.6470
  962MOL0     C29737   2.899   0.104   6.949 -0.5273  0.7586  1.3868
  962MOL0     O29738   2.878   0.233   6.989  0.3031 -0.4178  0.2779
  962MOL0     C29739   2.761   0.302   6.946 -0.1985  1.0388  0.2802
  962MOL0     C29740   2.757   0.330   6.808 -0.6330  0.6232  0.1374
  962MOL0     C29741   2.661   0.405   6.751 -0.0390 -0.5004  0.7153
  962MOL0     C29742   2.559   0.447   6.831 -0.0145  0.2386 -0.9822
  962MOL0     O29743   2.451   0.519   6.789  0.1114  0.4778  0.5756
  962MOL0     C29744   2.478   0.636   6.698  0.4356  0.8009  0.3513
  962MOL0     C29745   2.506   0.772   6.755 -1.0159  0.0331 -0.3525
  962MOL0     C29746   2.435   0.804   6.893  1.0032 -0.6118  0.1576
  962MOL0     C29747   2.515   0.895   6.990 -0.4047  0.3359 -0.0701
  962MOL0     C29748   2.408   0.958   7.092 -0.1127  0.0079  0.3574
  962MOL0     C29749   2.466   1.012   7.221  0.2077 -0.9641 -0.4377
  962MOL0     C29750   2.360   1.021   7.328 -0.4433 -0.7707 -0.3634
  962MOL0     C29751   2.412   1.110   7.442 -0.8554 -0.5961 -1.4006
  962MOL0     N29752   2.516   1.052   7.529 -0.0749  0.1194 -0.3749
  962MOL0     C29753   2.497   0.964   7.638  0.0142  0.0509 -0.0494
  962MOL0     C29754   2.620   0.939   7.696  0.1864 -0.2695 -0.4492
  962MOL0     C29755   2.643   0.850   7.816 -0.3544  0.9812 -0.3500
  962MOL0     C29756   2.684   0.929   7.932  0.0745 -0.5028 -0.3221
  962MOL0     C29757   2.571   1.003   8.002  0.0398  0.0844 -0.0630
  962MOL0     C29758   2.610   1.108   8.106  0.1343 -0.4969  0.5073
  962MOL0     O29759   2.694   1.047   8.207  0.3889  0.0584  0.0902
  962MOL0     C29760   2.761   1.126   8.299 -0.4438  0.2532  0.1410
  962MOL0     C29761   2.780   1.264   8.292  0.3371  0.6747 -0.5589
  962MOL0     C29762   2.842   1.330   8.405  0.1419 -0.3770  0.7410
  962MOL0     C29763   2.898   1.258   8.512 -0.9753  0.0031 -0.3401
  962MOL0     C29764   2.977   1.329   8.617 -1.0950  0.6783 -0.2118
  962MOL0     O29765   3.014   1.456   8.594  0.3185  0.1950  0.2161
  962MOL0     C29766   3.078   1.530   8.694 -0.2868  0.8377  0.4295
  962MOL0     C29767   3.193   1.601   8.656 -0.1321  0.2275  0.3407
  962MOL0     C29768   3.258   1.684   8.753  0.5881  0.1320  0.2925
  962MOL0     C29769   3.208   1.691   8.885  0.2189 -0.7759 -0.4997
  962MOL0     O29770   3.275   1.764   8.985 -0.3944  0.0987 -0.1154
  962MOL0     C29771   3.394   1.835   8.952 -0.4999  0.0603  0.0638
  962MOL0     C29772   3.414   1.944   9.063  0.3379  0.3584  0.3292
  962MOL0     C29773   3.547   2.019   9.052 -0.5226  0.1192 -0.2768
  962MOL0     C29774   3.607   2.031   9.197  1.0886  0.1415 -0.1159
  962MOL0     C29775   3.750   2.099   9.188  0.3624  0.5275  0.6429
  962MOL0     C29776   3.803   2.139   9.320 -0.3569  0.6674 -0.3538
  962MOL0     C29777   3.868   2.017   9.380  0.7989  0.7514 -0.1777
  962MOL0     C29778   3.970   2.037   9.490  0.3916  0.9062  0.2015
  962MOL0    Cl29779   4.120   2.084   9.415 -0.0190  0.1718  0.1704
  962MOL0     C29780   3.095   1.629   8.914  0.2842 -0.4726 -0.3876
  962MOL0     C29781   3.037   1.548   8.821  0.4561  0.6421 -0.2546
  962MOL0     O29782   3.012   1.254   8.713  0.2699 -0.4273  0.8275
  962MOL0     C29783   2.886   1.122   8.517  0.3747  0.1006  0.7093
  962MOL0     C29784   2.813   1.062   8.409  0.4484  0.5468 -0.7329
  962MOL0     N29785   2.710   1.007   7.621  0.1515  0.0601  0.5731
  962MOL0     N29786   2.651   1.079   7.522 -0.0753 -1.0189  0.0772
  962MOL0     C29787   2.567   0.432   6.968  1.0782 -0.0427 -0.7062
  962MOL0     C29788   2.657   0.351   7.032  0.0755 -0.5263 -0.8288
  962MOL0     C29789   2.986   0.015   7.035  0.6538 -0.2175 -0.7061
  962MOL0     C29790   3.059   0.067   7.143 -0.5098  0.4676  0.1381
  962MOL0     C29791   3.143  -0.017   7.226  0.2446  0.3744  0.9221
  962MOL0     C29792   3.156  -0.151   7.198  0.1012 -1.2606  0.1457
  962MOL0     O29793   3.236  -0.213   7.284  0.2755 -0.3523 -0.7834
  962MOL0     C29794   3.234  -0.358   7.277  0.1436  0.2105  0.8289
  962MOL0     C29795   3.230  -0.419   7.419  0.9362  0.4097  0.1845
  962MOL0     C29796   3.341  -0.378   7.520 -0.7978 -0.1751  0.6150
  962MOL0     C29797   3.310  -0.420   7.671 -0.1514  0.8507  0.7983
  962MOL0     C29798   3.274  -0.563   7.671  1.6367  0.0564 -0.2840
  962MOL0     C29799   3.250  -0.683   7.681 -0.3306  0.3060 -0.1621
  962MOL0     C29800   3.086  -0.205   7.084  0.2220  0.1363 -0.3633
  962MOL0     C29801   3.000  -0.125   7.007  1.0323  0.1810  0.3130
  962MOL0     C29802   2.935  -0.200   6.889 -0.5354  0.7802 -0.3690
  962MOL0     H29803   2.838   0.301   6.741  0.5568  0.7669  1.4745
  962MOL0     H29804   2.658   0.428   6.645  4.8291  3.9274  1.1112
  962MOL0     H29805   2.554   0.605   6.626  1.1246 -0.7422  1.6697
  962MOL0     H29806   2.398   0.645   6.624 -1.0442 -0.7621  1.6634
  962MOL0     H29807   2.487   0.832   6.665  4.0716 -0.8456 -2.3870
  962MOL0     H29808   2.613   0.787   6.771 -1.5675  2.4542  1.5862
  962MOL0     H29809   2.390   0.718   6.943  0.4148 -0.5399 -0.2332
  962MOL0     H29810   2.343   0.860   6.875  2.1156  1.6888  1.2643
  962MOL0     H29811   2.581   0.833   7.052 -0.7881  3.7345  4.2122
  962MOL0     H29812   2.558   0.983   6.941 -2.2241 -0.7212 -3.9614
  962MOL0     H29813   2.345   1.035   7.047 -1.3605 -0.1403  1.7745
  962MOL0     H29814   2.340   0.873   7.101 -0.1082 -0.8692 -4.6337
  962MOL0     H29815   2.544   0.948   7.262  2.2552  0.7336 -1.4779
  962MOL0     H29816   2.520   1.106   7.209 -0.0112 -0.7110  0.4774
  962MOL0     H29817   2.331   0.922   7.365  2.4171 -0.3302  3.6973
  962MOL0     H29818   2.272   1.075   7.293 -0.7435 -1.4228 -0.6230
  962MOL0     H29819   2.451   1.204   7.403  0.9002  1.1051  3.7081
  962MOL0     H29820   2.326   1.135   7.504  1.4582 -0.3185  2.0033
  962MOL0     H29821   2.406   0.928   7.685  0.4383  2.0790  2.5865
  962MOL0     H29822   2.558   0.784   7.831 -4.2425  5.2072 -1.4920
  962MOL0     H29823   2.716   0.784   7.768 -1.3336  0.8311 -1.6832
  962MOL0     H29824   2.737   0.867   8.005  1.1014  1.9509  1.1720
  962MOL0     H29825   2.759   1.003   7.901  0.3558 -1.0104 -0.8664
  962MOL0     H29826   2.498   0.938   8.050 -1.5360 -1.4021 -3.9872
  962MOL0     H29827   2.513   1.039   7.916  1.9943  0.2552 -1.3716
  962MOL0     H29828   2.525   1.144   8.166 -2.2837 -1.0557 -2.3321
  962MOL0     H29829   2.669   1.187   8.059  3.5375 -1.9401  2.0110
  962MOL0     H29830   2.742   1.334   8.218 -0.9635  1.7208  1.0386
  962MOL0     H29831   2.861   1.437   8.408  0.1128 -0.3697  3.5222
  962MOL0     H29832   3.234   1.595   8.556 -0.3761 -2.5212  0.3361
  962MOL0     H29833   3.345   1.741   8.724  1.2483 -0.6991  0.5879
  962MOL0     H29834   3.482   1.771   8.951 -0.4033  0.1458 -1.8018
  962MOL0     H29835   3.389   1.878   8.851 -0.2931 -1.3287 -0.5645
  962MOL0     H29836   3.334   2.018   9.054 -1.1314 -1.4292 -2.7579
  962MOL0     H29837   3.404   1.901   9.163  2.6483 -1.2440 -0.0250
  962MOL0     H29838   3.620   1.966   8.990 -0.5656 -0.8365  0.4525
  962MOL0     H29839   3.531   2.118   9.008 -1.1873 -0.5239 -1.5277
  962MOL0     H29840   3.619   1.938   9.254  1.5555  0.1447 -0.2057
  962MOL0     H29841   3.535   2.084   9.259  2.0378 -0.0376  1.1627
  962MOL0     H29842   3.750   2.181   9.116  0.9806  0.3375  0.4259
  962MOL0     H29843   3.814   2.027   9.136 -0.6391  0.7879 -1.0188
  962MOL0     H29844   3.868   2.225   9.306  0.2809  0.1583 -0.5931
  962MOL0     H29845   3.732   2.179   9.393 -0.5174 -1.8744  1.0031
  962MOL0     H29846   3.915   1.953   9.305  0.3244 -2.7979  2.3113
  962MOL0     H29847   3.782   1.964   9.423  0.6877 -0.2045 -1.5137
  962MOL0     H29848   3.956   2.115   9.566 -0.0861  0.3673  0.6829
  962MOL0     H29849   3.977   1.942   9.543 -0.7759 -0.3899 -1.8253
  962MOL0     H29850   3.044   1.658   9.005 -0.1200 -1.2395 -0.3598
  962MOL0     H29851   2.954   1.483   8.846 -5.6718  6.9519 -0.8322
  962MOL0     H29852   2.929   1.065   8.599 -1.4650  0.6130  2.0974
  962MOL0     H29853   2.807   0.955   8.426  0.2896  0.8979  1.8456
  962MOL0     H29854   2.505   0.472   7.048  3.0834  0.8075  0.5117
  962MOL0     H29855   2.665   0.322   7.136 -0.7871  1.0080 -0.3007
  962MOL0     H29856   3.037   0.170   7.171 -1.9540  1.2911 -3.4486
  962MOL0     H29857   3.185   0.024   7.318 -0.0169 -0.2674  1.3378
  962MOL0     H29858   3.327  -0.398   7.236  0.7792 -0.1573  2.5421
  962MOL0     H29859   3.149  -0.404   7.225  1.7734  0.2295 -2.0362
  962MOL0     H29860   3.230  -0.528   7.410  0.2987  0.2412  1.7571
  962MOL0     H29861   3.135  -0.395   7.468  0.9461  1.7322 -0.3925
  962MOL0     H29862   3.353  -0.269   7.526  1.3264 -0.2978 -0.3676
  962MOL0     H29863   3.436  -0.412   7.478  0.7558  4.3194 -0.0204
  962MOL0     H29864   3.405  -0.415   7.725  0.0429  1.6837  0.4050
  962MOL0     H29865   3.235  -0.353   7.715 -0.5453  2.6191 -2.2615
  962MOL0     H29866   3.239  -0.789   7.684 -0.6856  0.3611  1.9505
  962MOL0     H29867   3.106  -0.308   7.056  0.7692 -0.5139  2.1670
  962MOL0     H29868   2.826  -0.195   6.892 -0.4705  2.4275  0.4702
  962MOL0     H29869   2.959  -0.159   6.790  6.0409 -2.0484 -0.4221
  962MOL0     H29870   2.977  -0.300   6.881  3.5429  2.1761  1.2020
  963MOL0     O29871   0.115   1.670   8.403 -0.7071 -1.0290  0.2573
  963MOL0     C29872   0.032   1.596   8.348  0.1961  0.7225 -0.4299
  963MOL0     O29873   0.059   1.484   8.279 -0.3264  0.2653  0.5105
  963MOL0     C29874   0.173   1.421   8.298  0.3630 -0.3489  0.4262
  963MOL0     C29875   0.189   1.349   8.418  0.2005  1.1266  0.5144
  963MOL0     C29876   0.299   1.265   8.441  0.7839  0.2176  0.0970
  963MOL0     C29877   0.401   1.261   8.349 -0.1517  0.6246 -0.4065
  963MOL0     O29878   0.501   1.172   8.376 -0.2095 -0.9131  0.3827
  963MOL0     C29879   0.540   1.065   8.284  0.3815  0.7976  0.2167
  963MOL0     C29880   0.434   0.963   8.268 -0.1287  0.6461  0.1544
  963MOL0     C29881   0.422   0.882   8.404  0.2464 -0.6533  0.1573
  963MOL0     C29882   0.547   0.789   8.430  0.0014  0.3569  0.2558
  963MOL0     C29883   0.562   0.720   8.572 -0.5574  0.5904 -0.4563
  963MOL0     C29884   0.607   0.809   8.679  0.0324  0.2425 -0.1862
  963MOL0     C29885   0.637   0.743   8.817  0.1639 -0.0378 -0.1342
  963MOL0     C29886   0.729   0.824   8.903 -0.4020 -1.0084 -0.1628
  963MOL0     N29887   0.654   0.938   8.953 -0.2931  0.1544 -0.6939
  963MOL0     C29888   0.652   1.057   8.901 -0.0236  0.2417  1.7481
  963MOL0     C29889   0.586   1.142   8.985  0.3747 -0.0605 -0.2531
  963MOL0     C29890   0.560   1.288   8.981  0.8376  0.2176  0.0412
  963MOL0     C29891   0.563   1.341   8.843  0.3190 -0.0278 -0.1041
  963MOL0     C29892   0.518   1.488   8.855  0.6327 -0.5682  0.7361
  963MOL0     C29893   0.513   1.542   8.706  0.3039 -0.2648 -0.4660
  963MOL0     O29894   0.495   1.685   8.705  0.0827 -0.1002  0.6615
  963MOL0     C29895   0.505   1.753   8.587 -0.4467  0.4670  0.5705
  963MOL0     C29896   0.502   1.693   8.464 -0.1709 -0.0104 -0.4674
  963MOL0     C29897   0.498   1.771   8.350 -0.9566  0.1374  0.1343
  963MOL0     C29898   0.510   1.917   8.354  0.1157  0.1929 -0.9259
  963MOL0     C29899   0.513   2.011   8.243  0.8453 -0.1133  1.4368
  963MOL0     O29900   0.486   2.144   8.252  0.7169  0.5675  0.1626
  963MOL0     C29901   0.534   2.232   8.151  0.5068 -0.1892 -0.2914
  963MOL0     C29902   0.596   2.346   8.191 -0.1416  0.6491 -0.5148
  963MOL0     C29903   0.628   2.451   8.110  0.0004 -1.1109  0.0074
  963MOL0     C29904   0.605   2.442   7.971 -0.4236  0.0391 -0.2916
  963MOL0     O29905   0.635   2.544   7.881  0.1354  0.5989  0.1474
  963MOL0     C29906   0.651   2.673   7.927 -0.5409 -0.1424 -0.9217
  963MOL0     C29907   0.667   2.772   7.820  0.5817  0.4099  0.4150
  963MOL0     C29908   0.747   2.888   7.859 -0.6408  0.3156  0.7246
  963MOL0     C29909   0.697   2.964   7.985 -0.1028  1.0679 -0.9444
  963MOL0     C29910   0.771   3.093   8.012 -0.0622 -0.1741  0.7845
  963MOL0     C29911   0.924   3.080   8.019  1.0288 -0.8634  0.0990
  963MOL0     C29912   0.990   3.205   8.075  0.1025  0.1386 -0.3853
  963MOL0     C29913   1.134   3.195   8.081 -0.5087  0.0816 -0.1997
  963MOL0    Cl29914   1.189   3.317   8.208  0.2209 -0.2032 -0.1283
  963MOL0     C29915   0.551   2.321   7.923 -0.1204  0.3631  0.7908
  963MOL0     C29916   0.525   2.220   8.015  0.6774  0.5893  0.3913
  963MOL0     O29917   0.538   1.952   8.137 -1.1122 -0.1251  0.0071
  963MOL0     C29918   0.498   1.972   8.482 -0.7326  0.1456  0.2610
  963MOL0     C29919   0.508   1.890   8.598  0.1502  0.6583 -0.0041
  963MOL0     N29920   0.560   1.065   9.094  0.2151 -0.0679 -0.3913
  963MOL0     N29921   0.605   0.947   9.078  0.0218 -0.7142 -0.0132
  963MOL0     C29922   0.396   1.334   8.231 -0.1279  0.0223 -0.3434
  963MOL0     C29923   0.276   1.412   8.201  0.1594 -0.3845 -0.4079
  963MOL0     C29924  -0.112   1.639   8.346  0.0733 -0.3749  0.6281
  963MOL0     C29925  -0.210   1.533   8.335  0.4346  0.0518  0.4060
  963MOL0     C29926  -0.350   1.558   8.354  0.4154  0.0125  0.1708
  963MOL0     C29927  -0.395   1.695   8.362  0.3982  0.8571  0.3660
  963MOL0     O29928  -0.533   1.720   8.365 -0.1289  0.5052 -0.0721
  963MOL0     C29929  -0.576   1.862   8.352 -0.1076 -0.8687 -0.4704
  963MOL0     C29930  -0.734   1.876   8.378 -0.7691 -0.5494 -0.3016
  963MOL0     C29931  -0.788   1.785   8.490 -0.3971  0.7637 -0.1938
  963MOL0     C29932  -0.740   1.823   8.635  0.0326  0.3751 -0.2583
  963MOL0     C29933  -0.806   1.949   8.674 -1.3039  0.3229 -0.5101
  963MOL0     C29934  -0.845   2.057   8.710  0.5326  0.8610 -0.8350
  963MOL0     C29935  -0.300   1.790   8.355 -0.3282  0.0739  0.8375
  963MOL0     C29936  -0.160   1.772   8.362 -0.4380  0.5691 -0.2738
  963MOL0     C29937  -0.075   1.888   8.367  0.2604 -0.6781 -0.1670
  963MOL0     H29938   0.108   1.337   8.490  0.3889  2.0371  0.8915
  963MOL0     H29939   0.291   1.204   8.530 -1.0433 -0.9505 -0.7971
  963MOL0     H29940   0.547   1.099   8.180 -1.1094  0.4604 -0.0183
  963MOL0     H29941   0.639   1.019   8.298  0.2527  1.0655  2.2497
  963MOL0     H29942   0.455   0.890   8.189  1.2762 -0.9835  1.9294
  963MOL0     H29943   0.337   1.011   8.251 -0.2454  0.5520  0.5454
  963MOL0     H29944   0.338   0.813   8.397 -0.2030 -0.0934 -0.0608
  963MOL0     H29945   0.410   0.946   8.491  2.1224 -1.6579  1.2249
  963MOL0     H29946   0.551   0.710   8.354 -1.3077  2.0760 -1.7139
  963MOL0     H29947   0.638   0.846   8.413  0.0957  0.8377  2.1405
  963MOL0     H29948   0.469   0.670   8.598  0.1266 -0.5029 -0.0461
  963MOL0     H29949   0.649   0.654   8.570  1.3637  2.9379  0.5399
  963MOL0     H29950   0.701   0.855   8.647 -0.9417  3.0540  0.6621
  963MOL0     H29951   0.536   0.892   8.687 -0.5004 -0.3629  1.9102
  963MOL0     H29952   0.685   0.646   8.800 -4.4365 -2.4207 -1.2762
  963MOL0     H29953   0.542   0.724   8.868 -0.7491  0.9734 -1.3808
  963MOL0     H29954   0.778   0.768   8.983  0.6694  1.8463  1.2822
  963MOL0     H29955   0.819   0.853   8.847 -0.0317  2.5554  1.9852
  963MOL0     H29956   0.687   1.088   8.802 -0.1769 -0.5754  1.4349
  963MOL0     H29957   0.473   1.309   9.044 -0.0318 -3.9813  0.5381
  963MOL0     H29958   0.644   1.337   9.030  0.8552 -2.5633  3.0656
  963MOL0     H29959   0.667   1.340   8.808  0.4396  0.4810  0.2420
  963MOL0     H29960   0.495   1.290   8.773  0.3971  0.6382 -0.6728
  963MOL0     H29961   0.583   1.543   8.923  1.9503 -0.7618 -0.3215
  963MOL0     H29962   0.416   1.490   8.895  0.3370 -0.0904 -0.0174
  963MOL0     H29963   0.433   1.491   8.652 -2.0201  1.2917  1.3121
  963MOL0     H29964   0.604   1.523   8.649  2.0251  0.2666  1.9593
  963MOL0     H29965   0.492   1.586   8.447 -3.2350  0.4117 -1.9014
  963MOL0     H29966   0.493   1.717   8.257 -1.5851  1.3820 -0.5813
  963MOL0     H29967   0.593   2.368   8.297  3.1879 -1.4024  0.1659
  963MOL0     H29968   0.670   2.541   8.152  2.1231 -1.9799 -0.1177
  963MOL0     H29969   0.562   2.682   7.991  0.4553 -0.5758  0.5847
  963MOL0     H29970   0.750   2.674   7.974 -1.2517  1.5132  0.7108
  963MOL0     H29971   0.712   2.713   7.739  0.1704 -0.0482  0.5154
  963MOL0     H29972   0.565   2.802   7.793  1.7627  2.7971 -1.7974
  963MOL0     H29973   0.851   2.859   7.877  0.2628  3.0427  0.3938
  963MOL0     H29974   0.758   2.954   7.772 -1.3663  1.7731  1.6868
  963MOL0     H29975   0.689   2.905   8.077 -1.3933 -1.7299 -2.7122
  963MOL0     H29976   0.594   2.994   7.963  1.0573  5.9434 -0.7537
  963MOL0     H29977   0.728   3.160   8.088  0.9228  1.6513 -0.2126
  963MOL0     H29978   0.747   3.160   7.929 -0.1664 -1.0545  0.1021
  963MOL0     H29979   0.947   3.012   8.101 -0.1641  1.2240  2.2769
  963MOL0     H29980   0.975   3.054   7.925 -3.2685 -0.0390 -2.7631
  963MOL0     H29981   0.952   3.220   8.176 -1.6031 -1.4974 -0.7411
  963MOL0     H29982   0.974   3.291   8.009 -0.4081 -0.7603 -1.4530
  963MOL0     H29983   1.151   3.096   8.126 -2.8382 -0.4256 -0.3094
  963MOL0     H29984   1.192   3.210   7.990 -0.6704  1.3739 -0.1093
  963MOL0     H29985   0.548   2.313   7.815 -0.5329 -0.3161  0.8512
  963MOL0     H29986   0.479   2.134   7.966  2.2751 -0.9305  1.4263
  963MOL0     H29987   0.503   2.080   8.480 -2.7564  0.3673 -4.0323
  963MOL0     H29988   0.515   1.937   8.696  1.7240 -0.0928  0.2706
  963MOL0     H29989   0.482   1.339   8.165 -0.3344  0.2403 -0.5986
  963MOL0     H29990   0.248   1.471   8.114 -2.3513 -1.6810 -0.5552
  963MOL0     H29991  -0.156   1.438   8.337  4.5801  2.2014  0.0156
  963MOL0     H29992  -0.418   1.474   8.353  0.7761 -0.2846  0.2570
  963MOL0     H29993  -0.550   1.907   8.255 -0.5535  0.1478 -0.1355
  963MOL0     H29994  -0.533   1.933   8.424 -2.4110  0.6522 -0.4787
  963MOL0     H29995  -0.770   1.843   8.280  2.0222 -0.8509 -1.2974
  963MOL0     H29996  -0.760   1.979   8.401 -1.7271 -1.7236  5.3322
  963MOL0     H29997  -0.747   1.686   8.469 -1.4500 -0.6808  3.8000
  963MOL0     H29998  -0.897   1.779   8.487 -0.3291 -2.2697  0.6403
  963MOL0     H29999  -0.768   1.760   8.720 -1.0086  2.1355  0.7820
  963MOL0     H30000  -0.634   1.849   8.627  1.1359 -3.8721 -2.5287
  963MOL0     H30001  -0.870   2.157   8.740 -1.9144  0.3319 -0.9160
  963MOL0     H30002  -0.326   1.892   8.382  0.7721  0.6652 -0.2278
  963MOL0     H30003  -0.016   1.901   8.275 -1.0749  3.4862 -0.6496
  963MOL0     H30004  -0.134   1.980   8.369  2.1481  0.7884 -3.3478
  963MOL0     H30005  -0.015   1.878   8.458 -0.1224  0.9556  0.2949
  964MOL0     O30006  10.465   5.741  11.181  0.6711  0.7642 -0.6269
  964MOL0     C30007  10.571   5.697  11.143  0.0005  1.0473 -0.3220
  964MOL0     O30008  10.589   5.614  11.037  0.1638 -0.2572  0.2515
  964MOL0     C30009  10.483   5.541  10.978 -0.3621  0.1227  0.3663
  964MOL0     C30010  10.489   5.404  10.976 -0.3265  0.0075  0.0261
  964MOL0     C30011  10.382   5.336  10.917 -0.2091 -0.5666 -0.0855
  964MOL0     C30012  10.268   5.386  10.854  0.4557  0.0440  0.4745
  964MOL0     O30013  10.177   5.305  10.777 -0.2156 -0.4488  0.1516
  964MOL0     C30014  10.061   5.367  10.722 -0.1589 -1.0240  0.4840
  964MOL0     C30015   9.970   5.266  10.649  0.1810  0.5170 -1.7812
  964MOL0     C30016   9.822   5.301  10.674 -0.1644  0.2212  0.3731
  964MOL0     C30017   9.741   5.200  10.608  0.9595  0.3751  0.0566
  964MOL0     C30018   9.587   5.222  10.641  0.1224 -0.1720 -0.6332
  964MOL0     C30019   9.499   5.107  10.578 -0.6798 -0.1973  0.2868
  964MOL0     C30020   9.358   5.137  10.545  0.2567 -0.4988 -0.2706
  964MOL0     C30021   9.262   5.100  10.665  0.0160 -0.6768  0.1186
  964MOL0     N30022   9.266   5.186  10.779  0.2975 -0.8829 -0.3862
  964MOL0     C30023   9.183   5.291  10.803 -0.0360 -0.4267 -0.4602
  964MOL0     C30024   9.202   5.324  10.930  0.2050  0.1553  0.1728
  964MOL0     C30025   9.143   5.429  11.010 -0.7749  0.1610 -0.9213
  964MOL0     C30026   8.993   5.445  11.002 -0.0884  0.5705  0.2868
  964MOL0     C30027   8.938   5.563  11.085  0.2790 -0.0545 -0.6777
  964MOL0     C30028   8.792   5.556  11.098 -0.6162  0.3987  0.1431
  964MOL0     O30029   8.734   5.579  10.978 -0.0073 -0.6675 -0.0895
  964MOL0     C30030   8.678   5.709  10.954  0.4795  0.7959 -0.1596
  964MOL0     C30031   8.577   5.705  10.862  0.9377  0.1446  0.8343
  964MOL0     C30032   8.501   5.822  10.831 -0.8022 -0.4607 -0.2756
  964MOL0     C30033   8.547   5.943  10.881  0.2635 -1.0603 -0.6601
  964MOL0     C30034   8.481   6.067  10.841  0.8804  0.4174  0.4316
  964MOL0     O30035   8.402   6.063  10.738  0.5769  0.4317  0.7318
  964MOL0     C30036   8.358   6.184  10.681  0.0090  0.8016 -0.2482
  964MOL0     C30037   8.413   6.237  10.567  0.2626  1.3394 -0.3232
  964MOL0     C30038   8.362   6.372  10.522 -0.0960  0.4086 -0.5261
  964MOL0     C30039   8.262   6.442  10.594  0.8385  0.5917  0.4460
  964MOL0     O30040   8.227   6.556  10.538  0.7666 -0.2348 -0.2668
  964MOL0     C30041   8.193   6.652  10.643 -0.0806  0.0958  0.4664
  964MOL0     C30042   8.274   6.789  10.610  0.3122  0.4372  1.2827
  964MOL0     C30043   8.192   6.901  10.540 -0.4943  0.6160  0.0899
  964MOL0     C30044   8.251   7.034  10.574 -1.0818  0.3710  0.1142
  964MOL0     C30045   8.197   7.152  10.506 -0.9719 -0.3055 -0.5378
  964MOL0     C30046   8.277   7.285  10.538  0.6474 -0.9709 -0.2738
  964MOL0     C30047   8.215   7.399  10.448 -1.1613  0.1477 -0.9064
  964MOL0     C30048   8.263   7.539  10.464  0.6206  0.5951  0.5496
  964MOL0    Cl30049   8.443   7.540  10.452 -0.1093  0.3351 -0.3785
  964MOL0     C30050   8.195   6.373  10.701 -0.6853 -0.3565 -0.0797
  964MOL0     C30051   8.246   6.247  10.736  0.6702 -0.2862 -0.4444
  964MOL0     O30052   8.515   6.169  10.898 -0.1224  0.5554 -0.3802
  964MOL0     C30053   8.654   5.946  10.971 -0.0249  0.2165 -0.6024
  964MOL0     C30054   8.719   5.830  11.013  0.0087  0.1401  0.4737
  964MOL0     N30055   9.309   5.252  10.985  0.4063  0.0373  0.4010
  964MOL0     N30056   9.346   5.169  10.889  0.2196 -0.5473  0.7794
  964MOL0     C30057  10.265   5.530  10.866 -0.5273  0.1505 -0.3973
  964MOL0     C30058  10.374   5.602  10.921 -0.9853 -0.0920  0.3844
  964MOL0     C30059  10.687   5.751  11.230  1.4672  0.6783 -0.1809
  964MOL0     C30060  10.805   5.696  11.185 -0.6416 -0.4275 -0.7222
  964MOL0     C30061  10.927   5.729  11.252  0.1356  0.3238  0.1004
  964MOL0     C30062  10.926   5.819  11.351  0.8998 -0.4977 -0.2976
  964MOL0     O30063  11.039   5.847  11.420 -0.0501  0.2323  0.4564
  964MOL0     C30064  11.122   5.944  11.353  0.1820  0.3260 -0.9855
  964MOL0     C30065  11.202   6.028  11.457  0.3629  0.7452  0.6717
  964MOL0     C30066  11.121   6.115  11.555 -0.7134 -0.0270  0.3941
  964MOL0     C30067  11.202   6.178  11.662 -1.1519  0.1632 -0.6554
  964MOL0     C30068  11.284   6.081  11.745  0.6110 -0.7987  0.2784
  964MOL0     C30069  11.362   6.018  11.817  0.2165 -0.5709 -0.5397
  964MOL0     C30070  10.808   5.879  11.392 -0.1177 -0.6673  0.1299
  964MOL0     C30071  10.684   5.846  11.333  0.4889 -0.5758 -0.5509
  964MOL0     C30072  10.559   5.921  11.368 -0.3863  0.8639 -0.1048
  964MOL0     H30073  10.576   5.359  11.023  0.4323  0.5601 -0.8211
  964MOL0     H30074  10.371   5.229  10.926  1.7178 -0.8584 -0.7702
  964MOL0     H30075  10.000   5.413  10.801 -1.7158  1.9097 -2.2087
  964MOL0     H30076  10.075   5.446  10.648 -2.2421  1.5810  2.6423
  964MOL0     H30077   9.980   5.165  10.691 -0.3024  1.3453  0.4606
  964MOL0     H30078  10.000   5.255  10.544 -2.3162 -0.4356 -2.4556
  964MOL0     H30079   9.807   5.402  10.633 -0.5936  0.8275  1.9680
  964MOL0     H30080   9.795   5.309  10.779 -0.8982 -2.1635  0.4341
  964MOL0     H30081   9.775   5.195  10.504  2.3351 -4.0271  0.5128
  964MOL0     H30082   9.768   5.102  10.648 -1.5137 -0.6481 -0.5971
  964MOL0     H30083   9.567   5.219  10.748 -0.3697 -2.0987 -0.7504
  964MOL0     H30084   9.568   5.325  10.607 -2.9845 -0.7208 -0.8505
  964MOL0     H30085   9.543   5.077  10.482  3.8838  2.9554  1.0669
  964MOL0     H30086   9.503   5.022  10.646  0.1271 -1.5696 -1.4025
  964MOL0     H30087   9.341   5.072  10.459  2.0276 -0.2960 -0.8039
  964MOL0     H30088   9.345   5.244  10.523 -2.7773  0.2700  3.8422
  964MOL0     H30089   9.159   5.112  10.629  0.2183 -0.1886 -0.3024
  964MOL0     H30090   9.285   4.997  10.693 -0.0604 -1.5148 -2.5551
  964MOL0     H30091   9.117   5.349  10.739  0.8129  0.2956 -0.6849
  964MOL0     H30092   9.178   5.392  11.107 -2.0894  1.2517  0.0051
  964MOL0     H30093   9.197   5.521  10.986  2.1166 -0.8322  1.1748
  964MOL0     H30094   8.966   5.447  10.897 -1.2738 -0.7555  0.5391
  964MOL0     H30095   8.940   5.356  11.037 -2.7748  1.1521 -1.9614
  964MOL0     H30096   8.972   5.659  11.046 -0.5789 -0.0010 -1.3266
  964MOL0     H30097   8.984   5.557  11.184 -1.0987  0.2116  0.0007
  964MOL0     H30098   8.761   5.624  11.178 -3.5037  0.4097 -0.8780
  964MOL0     H30099   8.766   5.453  11.124  2.9177 -0.6168  0.1883
  964MOL0     H30100   8.535   5.608  10.838 -4.2555  2.7839 -2.7744
  964MOL0     H30101   8.422   5.827  10.756  0.6181  3.6387 -1.7334
  964MOL0     H30102   8.491   6.184  10.514 -0.6779 -0.1652 -0.2580
  964MOL0     H30103   8.415   6.406  10.434  1.7810 -1.0826 -0.0422
  964MOL0     H30104   8.085   6.663  10.648 -0.6363 -2.0416 -3.1570
  964MOL0     H30105   8.233   6.630  10.742  2.1306  0.4832 -0.2789
  964MOL0     H30106   8.306   6.837  10.703 -1.7650 -0.2620  2.4158
  964MOL0     H30107   8.358   6.762  10.545 -1.4663 -0.5108 -0.7262
  964MOL0     H30108   8.198   6.901  10.430 -0.4893  2.9209  0.0332
  964MOL0     H30109   8.087   6.902  10.569 -0.9971 -0.6070 -1.5175
  964MOL0     H30110   8.359   7.019  10.567 -1.3943 -2.6266  0.1829
  964MOL0     H30111   8.234   7.049  10.681  4.5616 -0.9437  1.5434
  964MOL0     H30112   8.096   7.171  10.545 -1.1003 -2.3945  0.2588
  964MOL0     H30113   8.209   7.139  10.398 -2.9979 -0.1545 -0.8345
  964MOL0     H30114   8.265   7.320  10.641  0.5149 -1.2096 -0.2074
  964MOL0     H30115   8.383   7.266  10.516  0.5622 -0.7156 -0.9072
  964MOL0     H30116   8.108   7.406  10.468 -1.3955 -1.5692 -1.3865
  964MOL0     H30117   8.217   7.371  10.342 -1.6712  2.0564 -1.4707
  964MOL0     H30118   8.223   7.595  10.379 -2.3916 -1.0517  0.7145
  964MOL0     H30119   8.224   7.585  10.555 -0.5391  0.7839 -0.0195
  964MOL0     H30120   8.104   6.415  10.742 -1.2275 -2.3307  0.8326
  964MOL0     H30121   8.202   6.189  10.816 -0.6022 -2.4176 -2.5376
  964MOL0     H30122   8.689   6.042  11.007  0.7982  0.3481 -1.7217
  964MOL0     H30123   8.802   5.835  11.084  0.4992 -0.0409 -0.0786
  964MOL0     H30124  10.190   5.588  10.813  0.0329  0.4024 -0.9170
  964MOL0     H30125  10.385   5.710  10.927 -0.4131 -0.1057 -0.3232
  964MOL0     H30126  10.814   5.625  11.103 -2.1545 -0.1121 -1.2062
  964MOL0     H30127  11.021   5.685  11.221  1.2615  1.1917  2.0724
  964MOL0     H30128  11.074   6.005  11.276  0.1564  0.7633 -0.6307
  964MOL0     H30129  11.193   5.882  11.299 -0.9961 -0.8479 -1.2258
  964MOL0     H30130  11.265   6.095  11.398  1.4188  0.4033  1.3795
  964MOL0     H30131  11.272   5.964  11.512  2.4400 -0.0668 -2.6330
  964MOL0     H30132  11.055   6.042  11.603  1.0816 -3.6172 -2.1042
  964MOL0     H30133  11.077   6.197  11.498  0.9921  0.9360  0.4294
  964MOL0     H30134  11.272   6.245  11.612 -0.9440 -0.5316 -1.3178
  964MOL0     H30135  11.139   6.236  11.730 -2.6327 -1.9806 -0.1018
  964MOL0     H30136  11.429   5.959  11.876  1.3108 -0.7098 -1.8757
  964MOL0     H30137  10.807   5.966  11.457 -1.7102 -1.6055  1.4457
  964MOL0     H30138  10.483   5.847  11.394 -1.0690  1.1376 -1.2651
  964MOL0     H30139  10.568   5.995  11.449 -2.1796  2.2833 -1.1396
  964MOL0     H30140  10.518   5.980  11.286  1.1563  1.7644 -0.2832
  965MOL0     O30141   7.275   5.077   4.007 -0.3774  0.4433 -0.2645
  965MOL0     C30142   7.228   4.965   3.972 -0.0269 -0.8907 -0.9123
  965MOL0     O30143   7.123   4.951   3.887  0.0443 -0.0862 -0.2129
  965MOL0     C30144   7.019   5.046   3.881 -0.0149  0.3210  0.4280
  965MOL0     C30145   6.924   5.046   3.775 -0.3696 -0.8561 -0.6569
  965MOL0     C30146   6.803   5.112   3.774  0.3233 -0.5433 -1.5160
  965MOL0     C30147   6.779   5.188   3.889  0.1178 -0.0004 -0.1922
  965MOL0     O30148   6.657   5.236   3.896  0.5442 -0.5975 -0.3909
  965MOL0     C30149   6.616   5.308   4.000  0.5396 -0.5103 -1.0986
  965MOL0     C30150   6.468   5.368   3.979  0.2057 -0.4770  0.3057
  965MOL0     C30151   6.355   5.269   3.958  0.2515  0.6001 -0.4297
  965MOL0     C30152   6.231   5.345   3.892 -0.6506  0.1755  0.3713
  965MOL0     C30153   6.123   5.244   3.865  0.0747 -0.3727  0.8191
  965MOL0     C30154   6.017   5.298   3.772  0.1970  0.2681  0.7612
  965MOL0     C30155   5.895   5.215   3.763  0.1180  0.1891 -0.8287
  965MOL0     C30156   5.912   5.076   3.715 -0.4970  0.2227 -0.1552
  965MOL0     N30157   5.795   4.986   3.739 -0.9786  0.2724  0.3510
  965MOL0     C30158   5.748   4.956   3.857 -0.4622  0.3838  0.1012
  965MOL0     C30159   5.652   4.863   3.844 -0.5655 -0.0755  0.1978
  965MOL0     C30160   5.589   4.792   3.972  0.4904 -0.1840 -0.7169
  965MOL0     C30161   5.648   4.656   3.993  0.0909 -0.4029 -0.0662
  965MOL0     C30162   5.602   4.560   4.110  0.1677  0.5987  0.8005
  965MOL0     C30163   5.448   4.569   4.151 -0.3434 -0.0803  1.0793
  965MOL0     O30164   5.382   4.542   4.024 -0.1725 -0.1088  0.3448
  965MOL0     C30165   5.249   4.515   4.021 -0.0957  0.8008 -0.8791
  965MOL0     C30166   5.173   4.526   4.139  0.1106  0.1627  0.1863
  965MOL0     C30167   5.040   4.483   4.136  0.7583  0.4128 -1.0930
  965MOL0     C30168   4.991   4.405   4.025  0.5122 -0.3047 -0.1788
  965MOL0     C30169   4.858   4.351   4.034 -0.4922  0.7461  0.3818
  965MOL0     O30170   4.785   4.373   4.143  0.2021 -0.0719 -0.5132
  965MOL0     C30171   4.665   4.321   4.159 -0.5918  0.6729  0.9547
  965MOL0     C30172   4.561   4.407   4.121 -0.2833 -0.7533  0.7742
  965MOL0     C30173   4.422   4.369   4.121 -1.1938  1.4120 -0.3783
  965MOL0     C30174   4.394   4.236   4.157 -0.2943 -0.9439 -1.2028
  965MOL0     O30175   4.262   4.186   4.156  0.2274 -0.2204 -0.1088
  965MOL0     C30176   4.156   4.264   4.217 -1.2768  0.0736  0.4904
  965MOL0     C30177   4.048   4.161   4.269  0.0933 -0.2620  0.1158
  965MOL0     C30178   4.113   4.077   4.382  0.6848  1.0323  0.2727
  965MOL0     C30179   4.014   3.974   4.443  0.2704 -0.2488 -0.9191
  965MOL0     C30180   4.075   3.868   4.543 -0.5344 -1.4641  0.6330
  965MOL0     C30181   3.964   3.801   4.632 -1.0461  0.1534 -0.3906
  965MOL0     C30182   3.880   3.697   4.539 -0.1877 -0.6098 -0.1858
  965MOL0     C30183   3.742   3.672   4.596 -0.0506  0.1613  0.5335
  965MOL0    Cl30184   3.716   3.489   4.597 -0.2309  0.0909 -0.0196
  965MOL0     C30185   4.494   4.156   4.205  0.6302  0.2913  0.8056
  965MOL0     C30186   4.623   4.194   4.199  0.6541 -0.2536  0.8907
  965MOL0     O30187   4.828   4.279   3.934 -0.0269 -0.2149 -0.1922
  965MOL0     C30188   5.065   4.393   3.900 -0.7758 -0.1264 -1.3932
  965MOL0     C30189   5.192   4.442   3.910  0.5033 -0.1335  0.5202
  965MOL0     N30190   5.650   4.825   3.710 -0.4775  0.4390  0.3284
  965MOL0     N30191   5.739   4.903   3.654 -0.0986  0.1076  0.2297
  965MOL0     C30192   6.871   5.201   3.992  1.0396  1.0788  0.2014
  965MOL0     C30193   6.989   5.129   3.989 -0.6212  0.5131 -0.2155
  965MOL0     C30194   7.282   4.851   4.043 -1.2078  0.2818  0.5803
  965MOL0     C30195   7.224   4.731   4.032  0.0688 -0.6599  0.7641
  965MOL0     C30196   7.264   4.625   4.113  0.3259  0.1722  0.2921
  965MOL0     C30197   7.376   4.632   4.204 -0.6827  0.8453  0.0017
  965MOL0     O30198   7.416   4.517   4.254  0.2196  0.2726 -0.5029
  965MOL0     C30199   7.552   4.494   4.268  0.5151  0.6521 -0.1344
  965MOL0     C30200   7.592   4.356   4.312  0.7707  0.1177  0.0089
  965MOL0     C30201   7.738   4.320   4.350  0.4057  0.2161 -0.7595
  965MOL0     C30202   7.774   4.359   4.489 -0.1055  0.5329 -0.2449
  965MOL0     C30203   7.916   4.330   4.524 -0.2962 -1.2950  0.5473
  965MOL0     C30204   8.026   4.298   4.563  1.0225  0.2619 -0.1639
  965MOL0     C30205   7.453   4.746   4.190  0.3516 -0.5444 -0.7193
  965MOL0     C30206   7.406   4.860   4.124 -0.1236  0.1460 -0.1811
  965MOL0     C30207   7.484   4.990   4.142 -0.7535  0.8100  0.1443
  965MOL0     H30208   6.959   4.975   3.701  0.8143  0.6298 -1.5866
  965MOL0     H30209   6.721   5.095   3.706 -0.4052  3.1465 -1.7630
  965MOL0     H30210   6.613   5.241   4.086 -0.2397  0.6289 -0.2172
  965MOL0     H30211   6.672   5.397   4.028 -3.8060  2.0805  0.2737
  965MOL0     H30212   6.466   5.442   3.898  0.2681  0.4570  1.1395
  965MOL0     H30213   6.446   5.419   4.073 -1.0596 -2.4930  1.1593
  965MOL0     H30214   6.332   5.230   4.058 -1.9590  0.8135 -0.8036
  965MOL0     H30215   6.371   5.180   3.897 -3.3162 -0.5300  0.0508
  965MOL0     H30216   6.208   5.424   3.964  2.4727  1.9125 -0.3383
  965MOL0     H30217   6.283   5.377   3.801  0.3603 -3.2465 -0.3870
  965MOL0     H30218   6.168   5.150   3.832 -2.7559 -1.7276  0.5525
  965MOL0     H30219   6.080   5.230   3.965  1.1228  3.0186  1.8611
  965MOL0     H30220   5.991   5.395   3.815 -1.7377 -0.1649  0.6269
  965MOL0     H30221   6.061   5.308   3.672  1.7806 -1.2063  1.2482
  965MOL0     H30222   5.835   5.272   3.691  2.0738  0.3513 -2.4039
  965MOL0     H30223   5.836   5.213   3.856 -1.3396  0.6852 -1.7064
  965MOL0     H30224   5.930   5.080   3.607 -2.1652 -0.0537 -0.4695
  965MOL0     H30225   5.995   5.033   3.772 -1.4307  2.6542  3.4322
  965MOL0     H30226   5.773   5.008   3.949 -3.3715 -1.2290  1.9443
  965MOL0     H30227   5.597   4.851   4.064 -0.2102 -1.6496  0.3270
  965MOL0     H30228   5.483   4.785   3.944  0.8364 -1.1234 -1.8955
  965MOL0     H30229   5.654   4.617   3.891 -1.3134 -1.6858  0.3070
  965MOL0     H30230   5.748   4.682   4.027  0.4514 -2.6815  0.7373
  965MOL0     H30231   5.655   4.579   4.204 -0.8510  1.6739  1.1832
  965MOL0     H30232   5.620   4.455   4.084  0.0250  1.1022 -1.5401
  965MOL0     H30233   5.431   4.674   4.175  3.6285  0.6157  1.3745
  965MOL0     H30234   5.414   4.506   4.235 -0.2534  0.7631  1.7646
  965MOL0     H30235   5.219   4.564   4.229 -0.4512  1.7737 -0.1755
  965MOL0     H30236   4.980   4.493   4.225  2.4278 -1.0375  0.2845
  965MOL0     H30237   4.580   4.511   4.097  0.1018 -0.5451  1.9476
  965MOL0     H30238   4.346   4.441   4.094 -1.5951  0.7957 -0.9179
  965MOL0     H30239   4.186   4.328   4.300 -1.6059 -0.5580  1.1124
  965MOL0     H30240   4.129   4.333   4.137  1.9265  1.1075  0.1957
  965MOL0     H30241   3.956   4.212   4.300 -0.1415  0.1534 -1.2119
  965MOL0     H30242   4.024   4.093   4.186 -1.4662 -0.2056  0.4884
  965MOL0     H30243   4.200   4.022   4.346 -0.0501  0.4208 -0.5924
  965MOL0     H30244   4.161   4.149   4.449 -2.9285 -0.3051  4.7927
  965MOL0     H30245   3.960   3.922   4.363  1.3983 -0.9724 -1.2340
  965MOL0     H30246   3.945   4.027   4.509 -1.1295  0.6871 -3.0010
  965MOL0     H30247   4.154   3.909   4.607  1.1607  1.4234 -2.9146
  965MOL0     H30248   4.122   3.796   4.476  0.7546 -0.2714  0.1888
  965MOL0     H30249   4.012   3.752   4.717 -0.4970  0.0756 -0.7405
  965MOL0     H30250   3.891   3.867   4.680  0.6258  1.3872  0.5496
  965MOL0     H30251   3.934   3.603   4.533  1.0973  0.1661 -1.3658
  965MOL0     H30252   3.875   3.736   4.436 -2.5225 -1.0101 -0.2836
  965MOL0     H30253   3.739   3.702   4.701 -1.0674  0.1422  0.5195
  965MOL0     H30254   3.666   3.726   4.539  0.1003  1.3268  1.3964
  965MOL0     H30255   4.474   4.055   4.238  2.0074 -1.4269 -3.0669
  965MOL0     H30256   4.700   4.123   4.228 -0.7012 -2.2202 -0.1100
  965MOL0     H30257   5.036   4.332   3.815 -0.0753 -1.2790 -0.8118
  965MOL0     H30258   5.262   4.444   3.827 -2.9832  3.9452 -2.7484
  965MOL0     H30259   6.851   5.258   4.082  0.0675  0.4963  0.3634
  965MOL0     H30260   7.067   5.134   4.064 -0.1561  0.3445 -0.6804
  965MOL0     H30261   7.138   4.711   3.969  2.1552 -2.0200 -1.8817
  965MOL0     H30262   7.213   4.529   4.105  0.7510 -0.0133 -0.2473
  965MOL0     H30263   7.601   4.560   4.341  0.1321  1.0133 -0.2002
  965MOL0     H30264   7.603   4.525   4.177 -0.6254  1.1681 -0.6164
  965MOL0     H30265   7.563   4.278   4.241  1.2052  0.9725 -1.1240
  965MOL0     H30266   7.536   4.333   4.404  0.1877 -0.3497 -0.4524
  965MOL0     H30267   7.799   4.377   4.279  1.4027 -2.3611 -2.1490
  965MOL0     H30268   7.767   4.215   4.335  3.4629  0.3223  2.8641
  965MOL0     H30269   7.769   4.466   4.512  0.9461  0.0854  2.3494
  965MOL0     H30270   7.719   4.303   4.565  0.0312  3.1139  1.8924
  965MOL0     H30271   8.128   4.274   4.587  0.4463 -0.3843  1.8037
  965MOL0     H30272   7.531   4.761   4.265  1.3013  0.4444 -1.8616
  965MOL0     H30273   7.422   5.059   4.200 -3.7482 -1.8350  0.3536
  965MOL0     H30274   7.575   4.971   4.200 -3.3927 -1.2852  4.0771
  965MOL0     H30275   7.521   5.037   4.051  0.6872  2.8997  1.7018
  966MOL0     O30276   6.984   2.803  11.005 -0.7347  0.2060 -0.1219
  966MOL0     C30277   7.038   2.734  11.096  0.2860 -0.2531 -0.5319
  966MOL0     O30278   6.995   2.609  11.138  0.1121 -0.1649 -0.2491
  966MOL0     C30279   6.874   2.563  11.094  0.4155  0.0880  0.1058
  966MOL0     C30280   6.782   2.524  11.186  0.5634  0.6058 -0.4515
  966MOL0     C30281   6.659   2.472  11.151 -0.3358  0.2202  0.9320
  966MOL0     C30282   6.617   2.449  11.012  0.1076 -0.4196 -0.4481
  966MOL0     O30283   6.491   2.402  10.973  0.7842 -0.0873  0.6694
  966MOL0     C30284   6.388   2.373  11.080 -0.2261 -0.6329  0.4640
  966MOL0     C30285   6.256   2.353  11.002 -0.2346  0.1757 -0.6389
  966MOL0     C30286   6.151   2.283  11.086  0.0815 -0.1126 -0.2169
  966MOL0     C30287   6.032   2.244  10.991  0.5654 -0.5525 -0.7007
  966MOL0     C30288   5.912   2.184  11.073  0.5149  0.0189 -0.1952
  966MOL0     C30289   5.809   2.125  10.970  0.5268  0.5655  0.7541
  966MOL0     C30290   5.710   2.032  11.034 -1.5997  0.1414 -0.4222
  966MOL0     C30291   5.607   1.975  10.929  0.3388 -0.7448  0.2899
  966MOL0     N30292   5.533   2.073  10.835  0.2298  0.2394 -0.2866
  966MOL0     C30293   5.495   2.044  10.708 -0.8081 -0.5757  0.0830
  966MOL0     C30294   5.398   2.130  10.676 -0.1871 -0.9248 -0.1736
  966MOL0     C30295   5.341   2.143  10.543 -0.6770 -1.0513  0.2562
  966MOL0     C30296   5.232   2.039  10.508 -0.0931  0.5727  0.3120
  966MOL0     C30297   5.278   1.899  10.460  0.0881 -0.9273 -0.7491
  966MOL0     C30298   5.160   1.814  10.420  0.2239 -0.2308  0.0240
  966MOL0     O30299   5.058   1.881  10.342  0.4662 -0.1395 -0.6919
  966MOL0     C30300   4.927   1.830  10.340  0.7084  0.1291 -0.1422
  966MOL0     C30301   4.845   1.903  10.257  0.0193 -0.0027 -0.5901
  966MOL0     C30302   4.719   1.865  10.227 -0.1936 -0.2205  0.2276
  966MOL0     C30303   4.671   1.741  10.268 -0.2753 -0.6023 -1.0007
  966MOL0     C30304   4.529   1.707  10.242  0.7267 -0.3042  0.8650
  966MOL0     O30305   4.488   1.589  10.284  0.7835 -0.6479  0.9772
  966MOL0     C30306   4.389   1.531  10.202  0.4041  0.5486  0.2969
  966MOL0     C30307   4.383   1.535  10.066 -0.8300 -0.7843 -0.9768
  966MOL0     C30308   4.297   1.452   9.993  0.1097  1.0347  0.4202
  966MOL0     C30309   4.222   1.357  10.069 -0.2017 -0.9229 -0.3886
  966MOL0     O30310   4.148   1.256  10.006 -0.1076 -1.1177 -0.4274
  966MOL0     C30311   4.211   1.179   9.907  0.4698 -1.0347 -0.4025
  966MOL0     C30312   4.100   1.078   9.879 -0.5691  1.0914 -0.5558
  966MOL0     C30313   4.148   0.983   9.774 -0.6285 -0.0580 -0.6177
  966MOL0     C30314   4.230   0.867   9.848  1.4361 -0.3353  0.2094
  966MOL0     C30315   4.267   0.759   9.745  0.1495 -0.0280  0.2034
  966MOL0     C30316   4.387   0.683   9.809  0.7541 -0.5012  0.2901
  966MOL0     C30317   4.441   0.577   9.711 -0.1075  0.2779  0.1720
  966MOL0     C30318   4.517   0.467   9.784 -0.8343  0.7613 -0.6282
  966MOL0    Cl30319   4.645   0.551   9.891 -0.3212  0.1180  0.1359
  966MOL0     C30320   4.216   1.372  10.201  0.8957 -0.0980 -0.9169
  966MOL0     C30321   4.297   1.451  10.268  0.0088  0.4792 -0.6777
  966MOL0     O30322   4.458   1.793  10.180  0.9284  0.6918  0.0961
  966MOL0     C30323   4.753   1.662  10.362 -0.7618 -1.0037  0.3010
  966MOL0     C30324   4.875   1.711  10.400 -0.2187 -0.4677 -1.5857
  966MOL0     N30325   5.374   2.214  10.791 -0.7935  0.6204  0.3074
  966MOL0     N30326   5.460   2.176  10.883 -0.8234 -0.2295 -0.4188
  966MOL0     C30327   6.707   2.507  10.920  0.0166  0.0539  0.4118
  966MOL0     C30328   6.837   2.548  10.958 -0.0609 -0.1016 -0.0693
  966MOL0     C30329   7.155   2.794  11.174  0.8880  0.2226 -0.0206
  966MOL0     C30330   7.143   2.921  11.235  0.6201  0.1533  0.2226
  966MOL0     C30331   7.247   2.982  11.307  0.3796 -0.0582 -0.0384
  966MOL0     C30332   7.371   2.916  11.316 -1.2616  0.2488  0.5159
  966MOL0     O30333   7.480   2.963  11.383  0.2487 -0.7634 -0.2375
  966MOL0     C30334   7.563   3.046  11.297  0.0450 -0.0695  0.2927
  966MOL0     C30335   7.678   2.967  11.227  0.5203 -0.1032  0.2663
  966MOL0     C30336   7.770   2.898  11.330  0.5426 -0.4783  0.1454
  966MOL0     C30337   7.895   2.832  11.276  0.9975 -0.9347  1.2576
  966MOL0     C30338   7.992   2.935  11.225 -0.8716  0.3370 -0.7103
  966MOL0     C30339   8.075   3.015  11.177  0.4885 -0.1312 -0.0461
  966MOL0     C30340   7.383   2.793  11.252 -0.2089 -0.3334  0.2360
  966MOL0     C30341   7.276   2.732  11.186  0.1224 -0.4555  0.1996
  966MOL0     C30342   7.295   2.596  11.126  0.5382 -0.3089 -0.1589
  966MOL0     H30343   6.804   2.540  11.291  1.1649  0.0367 -0.4891
  966MOL0     H30344   6.605   2.439  11.239 -0.0218  1.0471  1.4445
  966MOL0     H30345   6.413   2.292  11.149 -0.1823 -0.4789  0.6299
  966MOL0     H30346   6.379   2.466  11.138  0.5488 -0.2618  0.0048
  966MOL0     H30347   6.269   2.300  10.907  1.2776  4.0447 -2.7720
  966MOL0     H30348   6.227   2.454  10.975 -1.0354  0.4080  0.9760
  966MOL0     H30349   6.126   2.351  11.168  2.3035  1.2427 -0.5631
  966MOL0     H30350   6.186   2.190  11.131  0.9208  0.5562  0.5415
  966MOL0     H30351   5.999   2.329  10.931 -2.2935  0.3979  1.9544
  966MOL0     H30352   6.074   2.173  10.918 -1.0916 -1.0238 -1.2299
  966MOL0     H30353   5.943   2.103  11.140 -0.3092  1.0087  1.4238
  966MOL0     H30354   5.873   2.258  11.143 -0.8960 -1.1549  0.2979
  966MOL0     H30355   5.744   2.206  10.935  0.1441  0.8775  2.1337
  966MOL0     H30356   5.856   2.078  10.883 -2.2383  0.9993 -1.1085
  966MOL0     H30357   5.663   2.088  11.115  1.5747  0.2599  1.4694
  966MOL0     H30358   5.762   1.945  11.074 -0.3495  1.3251  0.6096
  966MOL0     H30359   5.667   1.909  10.865  0.7264  1.0596 -1.2842
  966MOL0     H30360   5.531   1.929  10.992 -1.3163  2.1535  0.5768
  966MOL0     H30361   5.539   1.970  10.642  0.5253  2.3052 -2.5186
  966MOL0     H30362   5.293   2.241  10.542  0.2723 -0.5683  0.5584
  966MOL0     H30363   5.419   2.154  10.468  0.8998  4.4113  2.2242
  966MOL0     H30364   5.158   2.036  10.589 -0.4106 -0.5833 -0.0019
  966MOL0     H30365   5.173   2.082  10.427 -0.9172 -1.1660 -0.0716
  966MOL0     H30366   5.333   1.852  10.542 -1.7624  1.3188  1.9343
  966MOL0     H30367   5.349   1.915  10.378  0.8156 -1.6308 -0.2716
  966MOL0     H30368   5.116   1.774  10.513 -2.5400  0.0177 -1.0908
  966MOL0     H30369   5.203   1.734  10.359  0.2844  0.9750 -1.5638
  966MOL0     H30370   4.884   1.994  10.213 -0.5664 -0.0324 -1.1896
  966MOL0     H30371   4.661   1.935  10.168 -2.2780 -0.6132  1.7319
  966MOL0     H30372   4.453   1.590  10.004 -2.2808 -0.9629 -2.8985
  966MOL0     H30373   4.298   1.443   9.885  0.9966  3.1869  0.2167
  966MOL0     H30374   4.217   1.235   9.813 -1.2387  1.8973  1.0758
  966MOL0     H30375   4.310   1.149   9.944  1.6443  2.5442 -0.2348
  966MOL0     H30376   4.074   1.022   9.969  1.6033 -0.4195 -0.7929
  966MOL0     H30377   4.005   1.121   9.845 -0.5390 -0.0955 -2.2508
  966MOL0     H30378   4.060   0.948   9.719 -0.0662 -0.9352 -0.9778
  966MOL0     H30379   4.222   1.038   9.715  0.2158 -0.6017 -0.0866
  966MOL0     H30380   4.175   0.825   9.933  3.5153  3.6240  3.8491
  966MOL0     H30381   4.321   0.910   9.889  1.2679 -0.7002  0.9728
  966MOL0     H30382   4.294   0.807   9.651 -0.7364  1.3321  0.6094
  966MOL0     H30383   4.186   0.686   9.732  0.1453  0.2913 -1.9883
  966MOL0     H30384   4.468   0.753   9.834  2.9028 -3.6427  3.0583
  966MOL0     H30385   4.348   0.630   9.897 -1.4851  1.4602  0.5821
  966MOL0     H30386   4.517   0.630   9.653  0.7416  1.4659  2.2832
  966MOL0     H30387   4.355   0.549   9.649 -0.8367  0.4496  1.0744
  966MOL0     H30388   4.447   0.408   9.844 -1.4322  1.8798 -0.2162
  966MOL0     H30389   4.572   0.399   9.717 -1.3600  1.6512 -1.9998
  966MOL0     H30390   4.151   1.301  10.250  2.1382  0.0283  1.0087
  966MOL0     H30391   4.277   1.459  10.374  0.9283  0.9962 -0.5311
  966MOL0     H30392   4.727   1.566  10.405 -2.5879 -0.0028  1.5388
  966MOL0     H30393   4.940   1.654  10.467 -1.2638 -3.9828 -3.3310
  966MOL0     H30394   6.666   2.517  10.820  1.1495  3.4906  0.1589
  966MOL0     H30395   6.914   2.577  10.886 -0.1629  1.0497  0.2650
  966MOL0     H30396   7.047   2.972  11.233  1.5539  1.9822 -0.4818
  966MOL0     H30397   7.243   3.073  11.366 -0.3351 -1.2903  1.9277
  966MOL0     H30398   7.607   3.117  11.367 -1.9591  1.2229  0.2902
  966MOL0     H30399   7.507   3.101  11.222  2.7759 -0.5562 -2.3287
  966MOL0     H30400   7.738   3.027  11.158 -0.7908 -1.4455 -2.1950
  966MOL0     H30401   7.636   2.889  11.162  0.8872 -1.3538  1.4636
  966MOL0     H30402   7.704   2.824  11.375 -0.1238  0.5486  0.9003
  966MOL0     H30403   7.806   2.964  11.410  2.1609 -2.4776  1.1661
  966MOL0     H30404   7.941   2.762  11.347  1.4292 -2.9625 -0.8767
  966MOL0     H30405   7.864   2.771  11.191 -3.9450  3.6127 -0.7667
  966MOL0     H30406   8.141   3.086  11.132 -1.3993  1.1750 -0.8724
  966MOL0     H30407   7.474   2.735  11.268  2.3735  2.8676 -1.6321
  966MOL0     H30408   7.400   2.581  11.102  0.4908  2.2408 -2.5541
  966MOL0     H30409   7.258   2.510  11.182  0.1506 -1.4340 -2.0437
  966MOL0     H30410   7.257   2.598  11.023  1.8372  0.3063 -0.6513
  967MOL0     O30411   3.874   1.317  11.185  0.0085 -0.0719  0.7748
  967MOL0     C30412   3.887   1.353  11.304 -0.8697  0.7412 -0.2094
  967MOL0     O30413   3.973   1.446  11.342 -0.0822 -0.6401 -0.1917
  967MOL0     C30414   4.043   1.525  11.252  0.9556  0.3292 -1.0511
  967MOL0     C30415   3.978   1.619  11.172 -0.0617  0.5528 -0.5475
  967MOL0     C30416   4.059   1.704  11.101  0.8647  0.0646  0.6929
  967MOL0     C30417   4.194   1.710  11.117 -0.1894  0.3812 -0.5035
  967MOL0     O30418   4.265   1.823  11.073 -0.3104 -1.1766  0.1201
  967MOL0     C30419   4.402   1.808  11.059  0.4584 -0.9101  0.0937
  967MOL0     C30420   4.443   1.928  10.975 -0.1675  0.8855 -0.7804
  967MOL0     C30421   4.594   1.951  10.984 -0.6070 -0.6417 -0.7326
  967MOL0     C30422   4.639   2.087  10.925 -0.0085 -0.3545 -0.7349
  967MOL0     C30423   4.780   2.111  10.877 -0.0599  0.0992 -0.1260
  967MOL0     C30424   4.881   2.141  10.987  0.1822  1.1048  0.4917
  967MOL0     C30425   5.026   2.143  10.916  0.2092  0.0682 -0.7617
  967MOL0     C30426   5.134   2.166  11.022 -0.4460  0.4864 -1.0483
  967MOL0     N30427   5.164   2.053  11.114 -0.5388  0.1763  0.3074
  967MOL0     C30428   5.158   2.048  11.251 -0.1979 -0.5008  0.4342
  967MOL0     C30429   5.211   1.924  11.285 -0.3499 -0.1921  0.2595
  967MOL0     C30430   5.238   1.862  11.418 -1.1268  0.0639  0.6387
  967MOL0     C30431   5.120   1.869  11.514 -0.0442  0.1772  0.3368
  967MOL0     C30432   5.108   1.752  11.603  0.2168 -0.4947 -0.3430
  967MOL0     C30433   4.994   1.770  11.700  0.0131  0.2773 -0.6403
  967MOL0     O30434   4.977   1.651  11.764 -0.7098 -0.0494 -0.3516
  967MOL0     C30435   4.863   1.605  11.827 -0.3602  0.3038  0.1997
  967MOL0     C30436   4.867   1.475  11.882  0.2848  0.2149  0.2286
  967MOL0     C30437   4.751   1.437  11.957 -0.1649 -0.3742  0.7645
  967MOL0     C30438   4.648   1.522  11.995 -0.1984  0.0723 -0.3777
  967MOL0     C30439   4.545   1.477  12.101  0.3000 -0.6394  0.0473
  967MOL0     O30440   4.532   1.341  12.127 -0.5097  0.1195  0.1524
  967MOL0     C30441   4.448   1.296  12.224  0.5905 -0.3279 -0.7345
  967MOL0     C30442   4.430   1.339  12.361 -0.7461 -0.5136  0.3341
  967MOL0     C30443   4.350   1.273  12.447  0.0921  0.0142 -0.2262
  967MOL0     C30444   4.280   1.161  12.420  0.1050  0.4192  1.0119
  967MOL0     O30445   4.187   1.120  12.510  0.0410  0.1600 -0.0240
  967MOL0     C30446   4.080   1.034  12.485 -0.2715  0.1473  0.3965
  967MOL0     C30447   4.100   0.884  12.498 -0.1007 -0.3727  0.3045
  967MOL0     C30448   3.986   0.784  12.466 -0.0930  1.2585  0.2198
  967MOL0     C30449   3.883   0.828  12.354 -0.1853 -1.1807  0.8495
  967MOL0     C30450   3.752   0.758  12.366  0.0028 -0.5305 -0.2863
  967MOL0     C30451   3.659   0.787  12.255  0.5215 -0.2551  0.1238
  967MOL0     C30452   3.521   0.742  12.289 -0.9994  0.5431 -0.5714
  967MOL0     C30453   3.468   0.608  12.237 -0.1017 -0.2852 -0.5457
  967MOL0    Cl30454   3.416   0.630  12.078  0.1316 -0.6797  0.2156
  967MOL0     C30455   4.293   1.108  12.296  0.4153  0.6387 -0.1647
  967MOL0     C30456   4.375   1.172  12.202  0.6176 -0.3732  0.2509
  967MOL0     O30457   4.476   1.566  12.154  1.1899 -0.2411  0.6429
  967MOL0     C30458   4.649   1.642  11.937  0.0110 -1.2426  0.2345
  967MOL0     C30459   4.750   1.691  11.855  0.3455  0.4224  0.8258
  967MOL0     N30460   5.248   1.862  11.167  0.2390  0.7460  0.2412
  967MOL0     N30461   5.223   1.942  11.071  0.5727 -1.2323 -0.4492
  967MOL0     C30462   4.258   1.603  11.195 -0.8976 -0.5009 -0.4958
  967MOL0     C30463   4.181   1.508  11.260  0.4017 -0.1187  0.4268
  967MOL0     C30464   3.813   1.275  11.408 -0.1652  0.1601 -0.1770
  967MOL0     C30465   3.855   1.297  11.540  0.6585 -0.0528  0.7269
  967MOL0     C30466   3.779   1.243  11.641  0.5021  0.5478 -0.9685
  967MOL0     C30467   3.662   1.166  11.623 -0.3183  0.3799 -0.5382
  967MOL0     O30468   3.603   1.123  11.734  0.7063  0.3248  0.2507
  967MOL0     C30469   3.469   1.073  11.725 -0.4044 -0.6347 -0.0539
  967MOL0     C30470   3.432   1.031  11.871  0.0209  0.3463  0.1937
  967MOL0     C30471   3.281   0.982  11.884 -0.7325  0.0948 -0.5371
  967MOL0     C30472   3.206   1.006  12.016  1.1660  0.6934  1.2888
  967MOL0     C30473   3.156   1.141  12.023 -0.3286 -0.4232 -0.1142
  967MOL0     C30474   3.100   1.254  12.009 -0.4735  0.1860 -0.1242
  967MOL0     C30475   3.627   1.145  11.492  0.8834  0.5094  0.7307
  967MOL0     C30476   3.704   1.193  11.383 -0.5359  0.1754 -0.0762
  967MOL0     C30477   3.654   1.168  11.255  0.4305  0.3933  0.0439
  967MOL0     H30478   3.869   1.617  11.167 -0.1681 -0.2058  1.2785
  967MOL0     H30479   4.014   1.785  11.045  2.5648  0.4211 -0.2115
  967MOL0     H30480   4.441   1.822  11.160 -0.5196 -0.5274  0.4275
  967MOL0     H30481   4.421   1.709  11.017 -0.9049 -2.4484  2.8143
  967MOL0     H30482   4.395   2.020  11.010 -3.4116  0.1335 -2.8495
  967MOL0     H30483   4.430   1.919  10.867  0.5088  3.8520 -1.2075
  967MOL0     H30484   4.634   1.877  10.914 -0.2231  0.8039 -2.1001
  967MOL0     H30485   4.632   1.923  11.082  0.1372  1.3814 -0.4022
  967MOL0     H30486   4.567   2.109  10.845 -2.4637  1.4201  1.7999
  967MOL0     H30487   4.616   2.160  11.003  0.3640 -0.4884 -0.5015
  967MOL0     H30488   4.802   2.019  10.822  1.2422  0.5022 -0.3199
  967MOL0     H30489   4.787   2.192  10.803  1.8277 -0.6273 -0.8004
  967MOL0     H30490   4.859   2.236  11.036 -0.2173  1.4367 -0.3029
  967MOL0     H30491   4.880   2.058  11.059  0.4122  0.3636 -0.3435
  967MOL0     H30492   5.020   2.228  10.847  1.1315  1.9049  1.3175
  967MOL0     H30493   5.047   2.054  10.856 -1.1140  0.1272 -1.3538
  967MOL0     H30494   5.226   2.192  10.969 -1.4253  1.4395 -2.3622
  967MOL0     H30495   5.101   2.254  11.078 -0.2249  1.5790 -2.5537
  967MOL0     H30496   5.135   2.131  11.317  0.8699  1.4093 -1.4581
  967MOL0     H30497   5.269   1.758  11.401 -0.8003  0.3538 -0.6282
  967MOL0     H30498   5.320   1.911  11.471 -1.6094  1.3256  0.2403
  967MOL0     H30499   5.119   1.958  11.578 -1.2007 -1.4578  2.7092
  967MOL0     H30500   5.034   1.871  11.447 -0.4144 -0.8133  0.7742
  967MOL0     H30501   5.197   1.732  11.664 -0.1573 -1.1857 -0.0164
  967MOL0     H30502   5.106   1.657  11.548  1.7248 -0.8634  0.1724
  967MOL0     H30503   4.905   1.803  11.648 -1.1820 -1.3067  0.2983
  967MOL0     H30504   5.019   1.849  11.772  1.2009 -0.0153 -0.7097
  967MOL0     H30505   4.961   1.422  11.881  0.7307  0.8650  2.5184
  967MOL0     H30506   4.756   1.336  11.995  0.1191 -0.6745 -0.0455
  967MOL0     H30507   4.475   1.432  12.395  0.9779 -0.4943 -1.8245
  967MOL0     H30508   4.330   1.323  12.541  0.4561 -0.6460  0.2002
  967MOL0     H30509   4.006   1.072  12.556 -0.6686 -0.2182  0.1856
  967MOL0     H30510   4.038   1.043  12.384 -0.4670 -0.2187  0.4428
  967MOL0     H30511   4.189   0.860  12.439 -0.8428  0.7451 -1.3337
  967MOL0     H30512   4.128   0.866  12.603  2.2585 -0.5521 -0.2964
  967MOL0     H30513   4.016   0.680  12.452 -0.2580  0.6669  3.4373
  967MOL0     H30514   3.933   0.775  12.561  0.3718 -1.9521  0.2720
  967MOL0     H30515   3.929   0.819  12.255  1.0958  1.9739  1.0374
  967MOL0     H30516   3.864   0.931  12.384 -3.8582 -2.3392  3.1296
  967MOL0     H30517   3.715   0.798  12.461  0.9146  3.1068 -1.2947
  967MOL0     H30518   3.775   0.651  12.375  0.0160 -0.4356  0.9828
  967MOL0     H30519   3.662   0.893  12.229  3.0059 -0.8355 -2.4967
  967MOL0     H30520   3.686   0.727  12.168 -3.9705  2.2123 -3.4243
  967MOL0     H30521   3.446   0.821  12.284  0.0331  1.6124  0.0071
  967MOL0     H30522   3.526   0.727  12.397  3.3674 -6.1338 -1.0739
  967MOL0     H30523   3.549   0.535  12.233 -0.9900 -1.2470 -1.4040
  967MOL0     H30524   3.380   0.570  12.290 -2.2638  2.0885 -2.1567
  967MOL0     H30525   4.238   1.025  12.252  1.7925 -1.6893  2.1837
  967MOL0     H30526   4.383   1.124  12.105  2.6583 -3.8580  1.9438
  967MOL0     H30527   4.562   1.706  11.942  3.0127  3.4396 -1.4728
  967MOL0     H30528   4.733   1.784  11.802 -2.9772 -2.1230 -3.2728
  967MOL0     H30529   4.365   1.596  11.211 -0.7337 -0.4335 -1.4498
  967MOL0     H30530   4.243   1.428  11.299  0.0758  0.1456  1.5332
  967MOL0     H30531   3.956   1.334  11.554  2.2850 -3.8028  0.1087
  967MOL0     H30532   3.816   1.253  11.743  4.2225 -2.4594 -1.7981
  967MOL0     H30533   3.463   0.979  11.668  1.7615 -3.1033  3.3909
  967MOL0     H30534   3.402   1.151  11.688 -0.4086 -0.6233 -0.0224
  967MOL0     H30535   3.454   1.113  11.940 -2.9412  1.8756 -0.5301
  967MOL0     H30536   3.489   0.942  11.900 -1.1449  0.2846  2.5388
  967MOL0     H30537   3.276   0.877  11.853 -2.5522  0.2213 -0.8101
  967MOL0     H30538   3.230   1.037  11.805  1.1989  0.7279 -1.4034
  967MOL0     H30539   3.118   0.941  12.015  1.1832  0.4870 -2.3841
  967MOL0     H30540   3.265   0.967  12.099 -0.6317 -1.8774  1.4839
  967MOL0     H30541   3.045   1.346  12.002 -1.8496 -0.7058 -1.6959
  967MOL0     H30542   3.535   1.092  11.474  1.6751 -0.8492  0.5631
  967MOL0     H30543   3.568   1.103  11.236  1.3719 -0.9326  0.1896
  967MOL0     H30544   3.625   1.262  11.206 -2.5861 -0.2299  0.4514
  967MOL0     H30545   3.738   1.121  11.203 -0.6477 -1.8207  0.1794
  968MOL0     O30546  11.418   0.814  10.420  0.0626  0.2289 -0.4089
  968MOL0     C30547  11.405   0.935  10.398 -0.1206  0.4448  0.2633
  968MOL0     O30548  11.330   1.026  10.462  0.2276  0.2107  0.3101
  968MOL0     C30549  11.277   0.975  10.585 -0.8068 -0.7565  0.9982
  968MOL0     C30550  11.166   0.888  10.586  0.0788  0.5301  0.8547
  968MOL0     C30551  11.130   0.821  10.705  0.5170 -0.2170  0.3872
  968MOL0     C30552  11.185   0.849  10.828 -0.5865  0.5145 -0.0005
  968MOL0     O30553  11.135   0.797  10.946 -0.0973  0.0132  0.0442
  968MOL0     C30554  11.177   0.840  11.075  0.0368 -0.6411  0.2850
  968MOL0     C30555  11.101   0.760  11.174 -0.5998  0.9128  0.9650
  968MOL0     C30556  10.951   0.779  11.140  0.2480  0.3419 -1.0358
  968MOL0     C30557  10.868   0.697  11.240 -0.8018  0.3672 -0.2846
  968MOL0     C30558  10.872   0.546  11.203 -0.8027 -0.0050 -0.2143
  968MOL0     C30559  10.810   0.455  11.316 -0.3965 -0.4184  0.1450
  968MOL0     C30560  10.706   0.352  11.259 -0.0797  0.2505 -0.5416
  968MOL0     C30561  10.782   0.226  11.199 -0.6372 -0.0688  0.6500
  968MOL0     N30562  10.824   0.256  11.060  0.0659  0.1054  0.0629
  968MOL0     C30563  10.950   0.297  11.012  0.6025  0.1074 -0.1826
  968MOL0     C30564  10.918   0.329  10.886 -0.2474 -0.0527  0.4621
  968MOL0     C30565  11.025   0.411  10.824  0.7095  0.6116 -0.0742
  968MOL0     C30566  11.117   0.339  10.717 -0.0569 -0.9064  0.7613
  968MOL0     C30567  11.205   0.430  10.639  0.2098 -0.6238  0.5718
  968MOL0     C30568  11.132   0.504  10.517 -0.2867 -1.1714 -0.3910
  968MOL0     O30569  11.069   0.420  10.418 -0.8055  0.1940  0.4847
  968MOL0     C30570  11.151   0.352  10.330  0.3077  0.9592  0.2396
  968MOL0     C30571  11.291   0.373  10.307  0.0809 -0.2112 -0.2118
  968MOL0     C30572  11.369   0.295  10.224  0.6176  0.0898 -0.3760
  968MOL0     C30573  11.309   0.195  10.154 -0.3371 -0.4380  1.1324
  968MOL0     C30574  11.383   0.096  10.065  0.1721 -0.8757  0.1597
  968MOL0     O30575  11.514   0.121  10.045  0.1652 -0.0391 -0.9420
  968MOL0     C30576  11.594   0.045   9.960  0.2880 -0.6109 -0.5180
  968MOL0     C30577  11.567  -0.083   9.904  0.1029 -0.3160 -0.3850
  968MOL0     C30578  11.669  -0.142   9.830 -0.1633 -0.2968  0.8042
  968MOL0     C30579  11.789  -0.086   9.796  0.3215  0.7733  0.1431
  968MOL0     O30580  11.873  -0.156   9.717 -0.2255  0.9315 -0.7016
  968MOL0     C30581  11.972  -0.087   9.634  0.1803 -0.5183  0.3926
  968MOL0     C30582  12.049  -0.179   9.534  0.5050 -0.9840 -0.6522
  968MOL0     C30583  12.132  -0.109   9.425  0.0162 -0.0463  0.1893
  968MOL0     C30584  12.255  -0.179   9.360 -0.2939 -0.4809 -0.2471
  968MOL0     C30585  12.345  -0.115   9.264 -0.6611  0.6556  0.4792
  968MOL0     C30586  12.433  -0.007   9.339  0.0360 -0.3054  1.1896
  968MOL0     C30587  12.521   0.061   9.226 -0.4975  0.0776 -0.7781
  968MOL0     C30588  12.631   0.149   9.293  0.1362 -0.2136 -0.2932
  968MOL0    Cl30589  12.745   0.058   9.379  0.2600 -0.0288  0.0959
  968MOL0     C30590  11.819   0.037   9.848  0.3039 -0.5494 -0.9795
  968MOL0     C30591  11.725   0.107   9.931 -0.5776 -0.1317 -0.1516
  968MOL0     O30592  11.326  -0.002  10.022 -0.2314 -0.3794 -0.6886
  968MOL0     C30593  11.174   0.172  10.163 -0.0112  0.1488 -0.9409
  968MOL0     C30594  11.095   0.245  10.249 -0.6540 -0.4122 -1.2568
  968MOL0     N30595  10.790   0.307  10.861 -0.6064  0.4480  0.2389
  968MOL0     N30596  10.737   0.265  10.967  0.1433  0.3351 -0.1259
  968MOL0     C30597  11.302   0.931  10.825  0.5306  0.6360 -1.1352
  968MOL0     C30598  11.341   0.993  10.707 -0.2219 -0.3861 -0.0426
  968MOL0     C30599  11.467   0.988  10.272 -0.5212 -0.2671 -0.2423
  968MOL0     C30600  11.419   1.112  10.225  0.5476 -0.0575 -0.2569
  968MOL0     C30601  11.457   1.162  10.102 -0.1469 -0.5745  0.1736
  968MOL0     C30602  11.555   1.098  10.023  0.2401  0.2581 -0.6413
  968MOL0     O30603  11.594   1.152   9.905 -0.1648  0.4681 -0.7533
  968MOL0     C30604  11.633   1.068   9.795 -0.2774  0.2333  0.8383
  968MOL0     C30605  11.698   1.152   9.678 -0.3497 -0.6349  0.3888
  968MOL0     C30606  11.829   1.225   9.719 -0.1833 -0.0992  0.3081
  968MOL0     C30607  11.890   1.296   9.594 -0.2600  0.2055 -0.4439
  968MOL0     C30608  11.952   1.210   9.500  0.4088 -0.4127  0.2026
  968MOL0     C30609  11.997   1.136   9.412  0.2524  0.3812  0.1508
  968MOL0     C30610  11.607   0.980  10.074  0.5725  0.0092 -0.4620
  968MOL0     C30611  11.568   0.930  10.200 -0.8447  0.8693 -0.4706
  968MOL0     C30612  11.657   0.812  10.249  0.3335  0.3440  0.7436
  968MOL0     H30613  11.117   0.861  10.493 -0.3884 -2.0669  1.7818
  968MOL0     H30614  11.044   0.754  10.712  2.5158 -2.8962  0.7676
  968MOL0     H30615  11.284   0.819  11.085 -0.0033 -0.1027  2.2638
  968MOL0     H30616  11.168   0.949  11.076  0.8247 -0.5494 -0.8583
  968MOL0     H30617  11.122   0.793  11.276  0.2344  0.7872  0.8460
  968MOL0     H30618  11.138   0.656  11.175  0.9327  1.4133  2.6816
  968MOL0     H30619  10.939   0.750  11.035  1.9775 -2.8395 -0.4750
  968MOL0     H30620  10.928   0.885  11.157 -0.6977 -0.2319  1.8672
  968MOL0     H30621  10.908   0.713  11.341  0.9857  0.4059 -0.9622
  968MOL0     H30622  10.764   0.729  11.238 -0.0616  2.9226 -2.1430
  968MOL0     H30623  10.810   0.531  11.114  1.5045 -0.6572 -1.8016
  968MOL0     H30624  10.977   0.524  11.180 -0.8204  1.3833 -1.8094
  968MOL0     H30625  10.883   0.411  11.385 -1.8505 -0.2872  1.8411
  968MOL0     H30626  10.741   0.505  11.385  0.1425 -0.9232  1.0640
  968MOL0     H30627  10.620   0.399  11.211 -1.2987  0.1535  1.4542
  968MOL0     H30628  10.659   0.307  11.347  2.0087 -2.4363 -0.6406
  968MOL0     H30629  10.866   0.194  11.262  1.2170 -0.1475 -1.7288
  968MOL0     H30630  10.719   0.137  11.200  1.1961 -1.4344  2.5677
  968MOL0     H30631  11.043   0.315  11.065 -0.0542  0.9849  0.7028
  968MOL0     H30632  10.970   0.492  10.775  1.3914  1.6831  0.8843
  968MOL0     H30633  11.079   0.467  10.901  2.0495  0.5121 -0.9000
  968MOL0     H30634  11.184   0.273  10.774  0.5219 -0.7279  0.2926
  968MOL0     H30635  11.045   0.284  10.656 -1.0407  0.9399  0.2078
  968MOL0     H30636  11.282   0.370  10.590  0.5152  0.7845 -0.7225
  968MOL0     H30637  11.237   0.512  10.705 -2.2147  1.6014 -0.8317
  968MOL0     H30638  11.198   0.579  10.472 -2.2966  1.4693  0.7455
  968MOL0     H30639  11.068   0.578  10.567  0.1409 -1.3962  0.5133
  968MOL0     H30640  11.337   0.455  10.361  0.7335 -0.3128 -0.6065
  968MOL0     H30641  11.472   0.322  10.205  0.9359 -0.6183  0.2689
  968MOL0     H30642  11.478  -0.145   9.911  0.0336 -0.2046 -0.2604
  968MOL0     H30643  11.651  -0.237   9.780 -2.7724  0.2573  0.5293
  968MOL0     H30644  11.929   0.003   9.589 -1.5364 -0.9963  1.0133
  968MOL0     H30645  12.035  -0.026   9.700 -0.3969 -1.8383  2.2240
  968MOL0     H30646  12.100  -0.242   9.608  0.4221  0.7829  0.9976
  968MOL0     H30647  11.968  -0.230   9.482 -0.0326  0.8645 -1.6996
  968MOL0     H30648  12.060  -0.091   9.344  0.2290  2.4758  0.4763
  968MOL0     H30649  12.152  -0.006   9.455 -2.2447  0.2884  0.6946
  968MOL0     H30650  12.225  -0.275   9.319  1.6753  0.0229 -3.1353
  968MOL0     H30651  12.316  -0.182   9.451 -1.6087  0.5032  0.7235
  968MOL0     H30652  12.281  -0.063   9.192 -1.3063  0.6521  1.0434
  968MOL0     H30653  12.413  -0.183   9.212  0.6224  2.2253  0.0246
  968MOL0     H30654  12.374   0.069   9.390  0.0186  0.5774 -0.0972
  968MOL0     H30655  12.498  -0.057   9.410 -0.1623 -1.2446  0.7268
  968MOL0     H30656  12.464   0.124   9.157 -1.5602 -0.6498 -0.5947
  968MOL0     H30657  12.580  -0.019   9.180  2.0088  1.1941  0.3051
  968MOL0     H30658  12.693   0.194   9.214 -1.3468 -1.5836 -2.3289
  968MOL0     H30659  12.595   0.229   9.358  3.4505  0.7493  0.5500
  968MOL0     H30660  11.917   0.079   9.829  1.6217 -1.5229  2.7334
  968MOL0     H30661  11.740   0.204   9.978  2.2907 -0.8987  0.7568
  968MOL0     H30662  11.127   0.087  10.114 -1.7551  0.0787  0.7277
  968MOL0     H30663  10.993   0.216  10.272  0.2933 -2.2559  0.9000
  968MOL0     H30664  11.347   0.958  10.920  0.9444 -0.8658 -0.8755
  968MOL0     H30665  11.424   1.062  10.718 -0.4403 -0.1499  0.1420
  968MOL0     H30666  11.340   1.167  10.274 -1.6090 -3.6669  0.6852
  968MOL0     H30667  11.420   1.260  10.072 -2.4192 -1.1702  0.8192
  968MOL0     H30668  11.539   1.023   9.761 -1.2079  2.8809 -0.3088
  968MOL0     H30669  11.707   0.992   9.820  0.5049  0.0222 -1.8020
  968MOL0     H30670  11.618   1.219   9.645 -1.1376 -1.2977  0.9155
  968MOL0     H30671  11.724   1.084   9.596  2.9776  1.3535 -0.3961
  968MOL0     H30672  11.908   1.161   9.760 -0.0780 -1.5892 -2.0093
  968MOL0     H30673  11.806   1.305   9.789 -0.5760  1.0943 -1.1393
  968MOL0     H30674  11.808   1.351   9.547 -0.2047  3.5244  2.8633
  968MOL0     H30675  11.961   1.370   9.630 -1.3493  0.8776  0.3504
  968MOL0     H30676  12.045   1.072   9.341  1.2755 -0.0196  1.1686
  968MOL0     H30677  11.667   0.917  10.009  0.4813  0.5630 -1.0961
  968MOL0     H30678  11.713   0.834  10.340  2.3309 -0.9343 -0.1187
  968MOL0     H30679  11.598   0.722  10.267  0.1606  0.4500  0.7109
  968MOL0     H30680  11.734   0.778  10.179 -0.3108  1.7082 -0.6978
  969MOL0     O30681   1.446   3.125   0.104 -0.7068 -0.4226  0.3356
  969MOL0     C30682   1.345   3.088   0.038  0.1261 -0.4168 -0.0316
  969MOL0     O30683   1.344   3.056  -0.092  0.0978 -0.5381  0.5233
  969MOL0     C30684   1.458   3.020  -0.160 -0.1594  0.1161 -0.3286
  969MOL0     C30685   1.522   2.894  -0.145  0.2754  0.2217 -0.1012
  969MOL0     C30686   1.615   2.838  -0.236  0.1715  0.3459 -0.3288
  969MOL0     C30687   1.655   2.917  -0.341 -0.1739  0.2678  0.5880
  969MOL0     O30688   1.745   2.881  -0.439 -0.8555 -0.1626 -0.7265
  969MOL0     C30689   1.761   2.741  -0.467 -0.4214  0.4049  0.8211
  969MOL0     C30690   1.806   2.717  -0.610  0.5609  1.1645  0.7238
  969MOL0     C30691   1.951   2.747  -0.631 -0.2762 -0.0879 -0.4093
  969MOL0     C30692   1.994   2.684  -0.766 -0.7421 -0.0963 -0.3374
  969MOL0     C30693   2.146   2.699  -0.771  0.1459  0.2852  0.2076
  969MOL0     C30694   2.224   2.604  -0.862  0.4952 -0.5052 -0.9277
  969MOL0     C30695   2.369   2.632  -0.838 -0.5288  0.1833 -0.5942
  969MOL0     C30696   2.449   2.523  -0.914 -0.0364  0.3041  0.8504
  969MOL0     N30697   2.593   2.535  -0.907 -0.2036  0.7738  0.5739
  969MOL0     C30698   2.675   2.521  -0.798  0.0925  0.0507 -0.5318
  969MOL0     C30699   2.798   2.553  -0.846 -0.0002  1.0840 -0.4829
  969MOL0     C30700   2.926   2.549  -0.763 -0.0765 -0.6262  0.2934
  969MOL0     C30701   2.976   2.404  -0.752 -0.3754 -0.0501 -0.0769
  969MOL0     C30702   3.075   2.386  -0.634  1.3693 -0.6304 -0.6379
  969MOL0     C30703   3.051   2.443  -0.490 -0.4958 -1.0605  1.3074
  969MOL0     O30704   2.959   2.358  -0.413 -0.0384  0.0549 -0.2637
  969MOL0     C30705   2.887   2.408  -0.314 -0.0191  0.5699 -0.6310
  969MOL0     C30706   2.756   2.364  -0.301 -0.3821  0.4428  0.2897
  969MOL0     C30707   2.674   2.418  -0.199  0.2642 -0.4298 -0.3750
  969MOL0     C30708   2.722   2.519  -0.107 -0.5738  0.4142 -0.3152
  969MOL0     C30709   2.639   2.564   0.010 -0.3972 -0.1960  0.3535
  969MOL0     O30710   2.500   2.570  -0.010 -0.3076 -0.1975  0.0639
  969MOL0     C30711   2.427   2.617   0.094  0.4681 -0.1432  0.2867
  969MOL0     C30712   2.383   2.515   0.177  0.7720 -0.6035 -0.0687
  969MOL0     C30713   2.282   2.543   0.271 -0.7413 -0.6793 -0.3442
  969MOL0     C30714   2.238   2.679   0.282  0.0399  0.1471 -0.5628
  969MOL0     O30715   2.146   2.700   0.378  0.1566  0.8957  0.2217
  969MOL0     C30716   2.177   2.788   0.479 -0.0327 -0.2852 -0.0979
  969MOL0     C30717   2.041   2.802   0.562 -0.3784 -0.4464  0.7520
  969MOL0     C30718   2.018   2.676   0.653 -0.1827  0.3427 -0.1266
  969MOL0     C30719   1.902   2.690   0.763 -0.0940 -0.1392  0.2784
  969MOL0     C30720   1.913   2.588   0.877  0.1814  0.5299  0.1942
  969MOL0     C30721   2.028   2.598   0.986 -0.9140  0.2372  0.0724
  969MOL0     C30722   2.054   2.477   1.068  0.1204  0.3720 -0.7591
  969MOL0     C30723   1.955   2.448   1.162  0.4165  0.4064  0.3358
  969MOL0    Cl30724   1.936   2.585   1.283 -0.4625  0.0161  0.0606
  969MOL0     C30725   2.294   2.780   0.201 -0.0327  1.3222 -1.0945
  969MOL0     C30726   2.391   2.747   0.117 -0.5522  0.0099  0.0164
  969MOL0     O30727   2.692   2.614   0.113 -0.2027  0.4865  0.3782
  969MOL0     C30728   2.858   2.556  -0.129  0.8531 -0.7702  0.6502
  969MOL0     C30729   2.931   2.511  -0.232 -0.4101  0.7255  1.4556
  969MOL0     N30730   2.795   2.585  -0.977  0.3622  0.0978  0.6934
  969MOL0     N30731   2.666   2.580  -1.011 -0.9668 -0.1593 -0.2114
  969MOL0     C30732   1.589   3.039  -0.356  0.2795 -0.1118  0.8627
  969MOL0     C30733   1.498   3.094  -0.265 -1.3138 -0.6287 -0.5027
  969MOL0     C30734   1.213   3.116   0.099 -0.2161 -0.5703 -0.3102
  969MOL0     C30735   1.092   3.113   0.018 -0.2508  0.8558  0.3489
  969MOL0     C30736   0.963   3.120   0.068 -0.3277 -0.4180 -0.5128
  969MOL0     C30737   0.949   3.122   0.213  0.3688 -0.7966 -0.6141
  969MOL0     O30738   0.826   3.127   0.275 -0.1816  0.3463 -0.4906
  969MOL0     C30739   0.702   3.097   0.204 -0.2882 -0.3329 -0.7040
  969MOL0     C30740   0.593   3.076   0.301 -0.0655  0.3142 -1.0909
  969MOL0     C30741   0.544   3.198   0.385  1.3784  0.1301  0.0678
  969MOL0     C30742   0.464   3.133   0.492  0.1964  0.5267 -0.2244
  969MOL0     C30743   0.393   3.218   0.584  0.0601 -0.8415  0.5198
  969MOL0     C30744   0.337   3.299   0.653  0.0356  0.6295 -0.0163
  969MOL0     C30745   1.059   3.144   0.291 -0.4000  0.1117 -0.1349
  969MOL0     C30746   1.198   3.136   0.239  1.1124 -0.5127 -0.2002
  969MOL0     C30747   1.307   3.165   0.337 -0.0141  0.4875  0.0750
  969MOL0     H30748   1.489   2.841  -0.057 -0.5607 -1.2794 -1.2536
  969MOL0     H30749   1.663   2.743  -0.216  4.4447  2.1830 -0.8718
  969MOL0     H30750   1.823   2.689  -0.393  0.1039 -3.1698 -1.8407
  969MOL0     H30751   1.666   2.687  -0.456 -0.6183  0.6457  0.3280
  969MOL0     H30752   1.736   2.785  -0.660  0.9004  0.2883 -0.9768
  969MOL0     H30753   1.781   2.615  -0.639 -4.2218  1.9113  1.2468
  969MOL0     H30754   1.997   2.701  -0.543  1.5034 -0.2996 -1.4040
  969MOL0     H30755   1.973   2.854  -0.629  0.1404 -0.1729 -0.4398
  969MOL0     H30756   1.973   2.577  -0.763 -0.3560 -0.1729 -0.2983
  969MOL0     H30757   1.941   2.725  -0.853 -0.9000  0.4512  0.0092
  969MOL0     H30758   2.167   2.798  -0.812  0.0069 -0.3984 -1.6032
  969MOL0     H30759   2.177   2.689  -0.666  0.7792  2.4854  0.2736
  969MOL0     H30760   2.190   2.507  -0.825  1.5400 -0.0595  1.3269
  969MOL0     H30761   2.197   2.613  -0.968  0.7135  0.1065 -0.9360
  969MOL0     H30762   2.384   2.636  -0.730 -3.5556  3.4621 -0.1060
  969MOL0     H30763   2.410   2.728  -0.868  2.0914 -0.3641  0.9409
  969MOL0     H30764   2.418   2.425  -0.877  3.0163 -1.3318 -0.5816
  969MOL0     H30765   2.424   2.524  -1.020 -1.5110  1.5476  1.1713
  969MOL0     H30766   2.652   2.487  -0.697  0.1494  2.5635  0.3958
  969MOL0     H30767   3.004   2.616  -0.801  1.4472 -2.5589 -0.1266
  969MOL0     H30768   2.900   2.602  -0.670 -0.7868 -1.5373  0.6240
  969MOL0     H30769   2.889   2.340  -0.732  0.1332 -0.4799  0.8120
  969MOL0     H30770   3.023   2.365  -0.842 -0.6806  2.3442 -1.3410
  969MOL0     H30771   3.166   2.441  -0.663  1.6277 -1.0663 -0.6609
  969MOL0     H30772   3.103   2.281  -0.623  0.2323 -0.7297  2.1169
  969MOL0     H30773   3.021   2.548  -0.502  0.1607 -0.7596  2.2274
  969MOL0     H30774   3.150   2.454  -0.445 -0.2846  4.0182  0.1873
  969MOL0     H30775   2.726   2.288  -0.373  1.5268  1.1425 -1.3413
  969MOL0     H30776   2.576   2.383  -0.170  0.2273  0.3404  0.4929
  969MOL0     H30777   2.410   2.411   0.172  0.5046 -0.8730  2.5440
  969MOL0     H30778   2.246   2.474   0.346 -1.5728 -0.7458 -0.7909
  969MOL0     H30779   2.264   2.758   0.538  1.3605  0.9377 -1.4224
  969MOL0     H30780   2.206   2.879   0.425  2.0028 -1.6955 -1.5298
  969MOL0     H30781   2.047   2.886   0.632 -3.0615 -1.1126  1.9132
  969MOL0     H30782   1.959   2.809   0.491  1.6620  0.3535 -1.6663
  969MOL0     H30783   2.003   2.586   0.593 -0.2262 -0.7252  1.4452
  969MOL0     H30784   2.106   2.658   0.714 -1.9030 -0.2834  2.3217
  969MOL0     H30785   1.805   2.678   0.713 -0.7215 -3.0531  1.9875
  969MOL0     H30786   1.907   2.793   0.799  0.1302  0.7705 -2.1385
  969MOL0     H30787   1.928   2.490   0.832  1.0988  0.4259  0.6985
  969MOL0     H30788   1.817   2.576   0.928 -0.5277  0.5004 -1.1030
  969MOL0     H30789   2.122   2.623   0.936  0.1832 -2.4771  0.5879
  969MOL0     H30790   2.010   2.682   1.054  3.9340  0.9730  0.8462
  969MOL0     H30791   2.146   2.499   1.124 -0.8057 -2.4597  2.1998
  969MOL0     H30792   2.084   2.389   1.011 -1.7687 -2.4633  2.2438
  969MOL0     H30793   1.854   2.436   1.123 -1.5730  2.5234  4.3294
  969MOL0     H30794   1.979   2.351   1.206 -3.2937 -1.3366 -1.0889
  969MOL0     H30795   2.281   2.883   0.233 -3.5542  0.4999  0.6028
  969MOL0     H30796   2.450   2.817   0.059  1.6678 -2.1268 -0.4583
  969MOL0     H30797   2.900   2.628  -0.058  1.0807  0.3634 -0.5916
  969MOL0     H30798   3.027   2.559  -0.250  0.3252 -0.7684  1.2351
  969MOL0     H30799   1.605   3.097  -0.446 -1.1143 -0.9306  0.0495
  969MOL0     H30800   1.451   3.191  -0.283  0.7405  0.3872 -0.6991
  969MOL0     H30801   1.090   3.092  -0.088  2.1307  1.3025  0.1582
  969MOL0     H30802   0.878   3.110   0.001  0.6797  1.0920 -2.0966
  969MOL0     H30803   0.715   3.017   0.130 -2.3428 -0.3756 -1.0717
  969MOL0     H30804   0.675   3.180   0.139 -0.9294 -0.6898 -0.9022
  969MOL0     H30805   0.638   3.005   0.371 -1.7435  0.9868  0.7761
  969MOL0     H30806   0.508   3.036   0.245  1.0172  1.4000 -3.6402
  969MOL0     H30807   0.473   3.257   0.326  1.7627  0.5485  0.0226
  969MOL0     H30808   0.620   3.261   0.432  1.1384  3.5780 -3.5792
  969MOL0     H30809   0.403   3.049   0.458  0.0845 -1.2147  3.7184
  969MOL0     H30810   0.538   3.081   0.554 -0.8429 -0.3546  0.3188
  969MOL0     H30811   0.297   3.365   0.728 -0.9797 -2.5011  2.4832
  969MOL0     H30812   1.042   3.185   0.390 -1.0068 -0.8553  0.1646
  969MOL0     H30813   1.369   3.250   0.303  0.9828  0.6998  2.2246
  969MOL0     H30814   1.272   3.175   0.440 -1.6075 -1.9654 -0.1620
  969MOL0     H30815   1.366   3.073   0.340 -1.4221 -0.5701 -2.3765
  970MOL0     O30816   3.559   2.514  10.804  0.1340 -0.2230 -0.6793
  970MOL0     C30817   3.632   2.451  10.734 -0.4206  0.4084  1.1071
  970MOL0     O30818   3.760   2.484  10.699 -0.1478 -0.3876 -0.1555
  970MOL0     C30819   3.841   2.555  10.787  0.5888 -0.7114 -0.0665
  970MOL0     C30820   3.813   2.610  10.919 -1.0449  0.2234 -0.1560
  970MOL0     C30821   3.908   2.696  10.967  0.3191  0.4494  0.6292
  970MOL0     C30822   4.027   2.724  10.902 -0.0252  0.4461 -0.3349
  970MOL0     O30823   4.117   2.801  10.971 -1.1878 -0.2398  0.1196
  970MOL0     C30824   4.253   2.805  10.929 -0.1119  0.8785 -0.2624
  970MOL0     C30825   4.336   2.867  11.046 -0.4557  0.0260 -0.8835
  970MOL0     C30826   4.476   2.858  11.006  0.4652  0.1794  0.3945
  970MOL0     C30827   4.523   2.997  10.948 -0.3287  0.2115  0.4127
  970MOL0     C30828   4.654   2.968  10.890 -0.0594 -0.1897 -0.8130
  970MOL0     C30829   4.765   2.942  10.993 -0.8955  0.0508 -0.2918
  970MOL0     C30830   4.788   3.062  11.078 -0.7722  0.5109  0.2210
  970MOL0     C30831   4.870   3.173  11.016  0.6982  0.2463  0.9509
  970MOL0     N30832   5.011   3.143  11.026 -0.0772  0.3790 -0.2321
  970MOL0     C30833   5.101   3.115  10.922  0.0219  0.2172  0.0210
  970MOL0     C30834   5.225   3.109  10.988  0.3898 -0.4805 -0.8766
  970MOL0     C30835   5.360   3.082  10.923 -0.2445 -0.3735  0.0724
  970MOL0     C30836   5.429   2.972  11.007 -0.6528 -0.7977  0.2676
  970MOL0     C30837   5.578   2.951  10.972  0.1019  0.5041 -0.7377
  970MOL0     C30838   5.650   2.915  11.101 -0.4923 -0.4186  0.1260
  970MOL0     O30839   5.782   2.869  11.055  0.0945  0.3589  0.4811
  970MOL0     C30840   5.887   2.960  11.061  0.5210 -0.6837  0.1052
  970MOL0     C30841   5.917   3.025  11.184 -0.4582  0.3609 -0.8462
  970MOL0     C30842   6.002   3.130  11.189 -1.0206  0.6154  0.0610
  970MOL0     C30843   6.069   3.170  11.067 -0.2744  0.3063 -0.9397
  970MOL0     C30844   6.168   3.280  11.059 -0.3072 -1.8131  0.0159
  970MOL0     O30845   6.236   3.317  10.948  0.2413  0.5956  0.2215
  970MOL0     C30846   6.349   3.396  10.967 -0.0011 -1.1346  0.4934
  970MOL0     C30847   6.341   3.541  10.970 -0.2415  0.1918 -0.3612
  970MOL0     C30848   6.456   3.618  10.959 -0.5230 -0.1876 -0.2714
  970MOL0     C30849   6.586   3.561  10.953  0.2612 -0.0029  0.2272
  970MOL0     O30850   6.697   3.635  10.937 -0.3312  0.1262 -0.1234
  970MOL0     C30851   6.748   3.700  11.051 -0.1003 -0.8291 -0.2966
  970MOL0     C30852   6.896   3.699  11.041 -0.3189 -0.0944  0.0836
  970MOL0     C30853   6.967   3.698  11.176 -0.4903 -0.0105  0.2942
  970MOL0     C30854   6.942   3.826  11.261 -1.0411 -0.4989  0.0680
  970MOL0     C30855   7.038   3.850  11.375 -0.6155  0.7006  0.4149
  970MOL0     C30856   7.190   3.832  11.340  0.0289  0.3683 -1.2402
  970MOL0     C30857   7.297   3.899  11.425  0.2554 -0.4587  0.6612
  970MOL0     C30858   7.282   3.861  11.569  0.7283  0.0295  0.8038
  970MOL0    Cl30859   7.123   3.922  11.647  0.2713  0.2093  0.0368
  970MOL0     C30860   6.595   3.427  10.941  0.4386 -0.1455 -0.6197
  970MOL0     C30861   6.478   3.350  10.954 -0.4076  0.4916  0.8568
  970MOL0     O30862   6.183   3.340  11.168 -1.2918 -0.5862  0.1918
  970MOL0     C30863   6.055   3.090  10.953 -0.4788 -1.4114  0.6821
  970MOL0     C30864   5.962   2.990  10.951 -0.1380  0.6541 -0.6564
  970MOL0     N30865   5.210   3.138  11.129 -0.5530  1.2616  0.8133
  970MOL0     N30866   5.083   3.148  11.150  0.2669 -0.3011 -0.8874
  970MOL0     C30867   4.054   2.668  10.771 -0.8331 -0.2325  0.4617
  970MOL0     C30868   3.956   2.591  10.717  0.3883  0.8057  0.3109
  970MOL0     C30869   3.562   2.354  10.644  0.5600 -0.2345 -0.0568
  970MOL0     C30870   3.452   2.284  10.696  0.3033  0.1923  0.4352
  970MOL0     C30871   3.370   2.207  10.610 -0.1595 -0.3599  0.0814
  970MOL0     C30872   3.388   2.205  10.475  0.3174 -0.2906  0.4337
  970MOL0     O30873   3.289   2.148  10.400 -0.2516 -0.0374 -0.4410
  970MOL0     C30874   3.288   2.154  10.259 -0.2625  0.0785  0.4756
  970MOL0     C30875   3.165   2.069  10.220 -0.1555 -0.0560  0.5477
  970MOL0     C30876   3.179   1.923  10.256 -0.5130  0.2979  0.2627
  970MOL0     C30877   3.049   1.840  10.240 -0.5380  0.8811  0.3398
  970MOL0     C30878   3.077   1.700  10.208  0.0182  0.3386 -0.7485
  970MOL0     C30879   3.103   1.584  10.177 -0.1533 -0.0881  1.1799
  970MOL0     C30880   3.496   2.276  10.419  0.0954  0.5911  0.6537
  970MOL0     C30881   3.585   2.353  10.505 -0.2008 -0.2596  0.5756
  970MOL0     C30882   3.698   2.427  10.426  0.2952 -0.1456  0.4192
  970MOL0     H30883   3.719   2.588  10.970  0.8571 -2.7309  2.4326
  970MOL0     H30884   3.885   2.743  11.063 -4.7790 -0.1047 -0.0040
  970MOL0     H30885   4.285   2.701  10.914  0.4960  1.1139 -0.6286
  970MOL0     H30886   4.270   2.861  10.837 -2.0198  0.3737 -0.9642
  970MOL0     H30887   4.307   2.812  11.135 -0.9640  2.5382  0.5938
  970MOL0     H30888   4.291   2.965  11.065 -1.2586 -0.9382  3.0712
  970MOL0     H30889   4.487   2.776  10.934 -0.8616 -2.4300  2.9368
  970MOL0     H30890   4.538   2.822  11.088  0.6667  2.6140  1.3860
  970MOL0     H30891   4.450   3.035  10.876  1.4301  2.5785 -0.2458
  970MOL0     H30892   4.532   3.075  11.024  1.1342  2.0122 -1.5163
  970MOL0     H30893   4.642   2.884  10.821  0.4106  0.7473 -2.0796
  970MOL0     H30894   4.696   3.034  10.813  1.9541 -0.8926 -0.3597
  970MOL0     H30895   4.759   2.861  11.066 -1.8071  0.8853  0.5897
  970MOL0     H30896   4.863   2.930  10.945 -0.2962  0.3407  0.8140
  970MOL0     H30897   4.845   3.031  11.167 -0.1113  1.9122  0.3198
  970MOL0     H30898   4.691   3.090  11.120 -0.6658  0.2495  0.6523
  970MOL0     H30899   4.836   3.188  10.913  1.3101 -2.3825  0.2944
  970MOL0     H30900   4.850   3.259  11.081 -1.3876 -1.0724  2.1722
  970MOL0     H30901   5.088   3.114  10.814  1.0215  0.9966 -0.1225
  970MOL0     H30902   5.334   3.041  10.825 -0.0299  3.9629 -2.0465
  970MOL0     H30903   5.430   3.166  10.912 -1.2746  0.9735  2.8328
  970MOL0     H30904   5.431   2.994  11.114 -1.3045 -2.3141  0.6198
  970MOL0     H30905   5.374   2.877  11.001 -0.1170 -1.2004  1.4660
  970MOL0     H30906   5.619   3.035  10.915  1.1893 -0.2639 -1.1193
  970MOL0     H30907   5.581   2.859  10.913 -0.6910 -1.3177  1.8723
  970MOL0     H30908   5.607   2.829  11.152  0.8547 -2.8334 -2.5625
  970MOL0     H30909   5.640   2.999  11.172  0.6567 -1.1485  1.2004
  970MOL0     H30910   5.860   2.996  11.272 -0.0744 -0.0235 -0.7214
  970MOL0     H30911   6.020   3.199  11.271 -1.0209  0.2383  0.3792
  970MOL0     H30912   6.244   3.588  10.965 -1.0091 -1.4332 -2.3674
  970MOL0     H30913   6.444   3.724  10.938  2.8272  0.7972  1.8566
  970MOL0     H30914   6.722   3.806  11.050 -0.1921 -0.8333 -1.9829
  970MOL0     H30915   6.705   3.667  11.146 -0.7829  2.2828  0.5773
  970MOL0     H30916   6.932   3.607  10.997 -0.5765  0.3927 -1.1745
  970MOL0     H30917   6.929   3.790  10.990 -0.4874 -1.0077 -1.7000
  970MOL0     H30918   6.941   3.601  11.220 -0.8970 -0.9869 -1.9676
  970MOL0     H30919   7.073   3.702  11.148 -0.2807 -0.0003  1.0708
  970MOL0     H30920   6.840   3.826  11.300 -1.4146 -1.9926 -0.8111
  970MOL0     H30921   6.955   3.904  11.185  0.4326 -0.9451 -0.1711
  970MOL0     H30922   7.011   3.781  11.455  1.2576 -2.8708 -1.7653
  970MOL0     H30923   7.023   3.954  11.406 -0.4751  0.4376  1.4124
  970MOL0     H30924   7.208   3.726  11.325 -3.1975 -0.3278 -0.8455
  970MOL0     H30925   7.200   3.878  11.241 -0.1597 -1.6297 -2.2329
  970MOL0     H30926   7.307   4.008  11.419 -2.4779 -0.0909  1.4926
  970MOL0     H30927   7.395   3.861  11.394  0.9848  1.5801  0.2856
  970MOL0     H30928   7.282   3.753  11.590 -1.0171 -0.2444 -0.4800
  970MOL0     H30929   7.374   3.901  11.613  1.4772 -1.4779  0.6755
  970MOL0     H30930   6.687   3.371  10.931  1.9761  1.9581  0.9720
  970MOL0     H30931   6.479   3.242  10.954 -1.6186  0.4542 -0.1591
  970MOL0     H30932   6.117   3.104  10.865  1.7057 -1.5353  2.1474
  970MOL0     H30933   5.959   2.924  10.865  0.3474 -0.5877  0.2500
  970MOL0     H30934   4.144   2.684  10.713  3.2373 -3.4934  5.1159
  970MOL0     H30935   3.972   2.539  10.624  1.7710 -0.8355  1.4010
  970MOL0     H30936   3.421   2.291  10.800  3.5177  5.3281  1.3886
  970MOL0     H30937   3.282   2.158  10.650  0.8323  0.2740  3.4464
  970MOL0     H30938   3.381   2.115  10.215 -0.7602 -0.3735 -0.2001
  970MOL0     H30939   3.280   2.255  10.220 -0.0599  0.3570  1.1372
  970MOL0     H30940   3.152   2.083  10.112  0.3552  2.3071  0.7426
  970MOL0     H30941   3.083   2.116  10.277  1.5029  2.9227  0.6881
  970MOL0     H30942   3.207   1.926  10.361 -1.5742  3.1425  0.5639
  970MOL0     H30943   3.251   1.875  10.189  0.5889  2.8397 -0.5149
  970MOL0     H30944   2.996   1.830  10.336  2.2163 -0.8529  1.8120
  970MOL0     H30945   2.990   1.879  10.157 -1.3257 -1.2640 -0.1653
  970MOL0     H30946   3.119   1.486  10.136 -0.3925  1.2460 -2.4872
  970MOL0     H30947   3.516   2.287  10.313  3.8999 -0.3721  1.1214
  970MOL0     H30948   3.683   2.424  10.318 -0.4738 -1.8624  0.5502
  970MOL0     H30949   3.704   2.529  10.465  2.7519 -0.1053  0.0714
  970MOL0     H30950   3.795   2.385  10.454  0.6173 -0.2427 -0.8168
  971MOL0     O30951   3.430   9.925   6.012  0.3878 -0.7251 -0.2025
  971MOL0     C30952   3.519   9.995   6.051 -1.1599 -0.1642  0.0389
  971MOL0     O30953   3.649   9.955   6.091 -0.7183  0.0566 -0.1343
  971MOL0     C30954   3.697   9.822   6.079 -1.4249 -0.1132 -0.2594
  971MOL0     C30955   3.788   9.788   6.177 -0.3232 -0.2367 -0.4513
  971MOL0     C30956   3.849   9.661   6.171 -0.0724 -0.8519 -0.0876
  971MOL0     C30957   3.825   9.570   6.068  0.0365  0.0160 -0.0747
  971MOL0     O30958   3.916   9.462   6.056  0.1870 -0.4290 -0.2317
  971MOL0     C30959   3.896   9.359   6.162  0.1712  0.4693 -0.1689
  971MOL0     C30960   3.757   9.285   6.167 -1.1190 -0.0991 -0.4034
  971MOL0     C30961   3.677   9.260   6.041 -0.1137  0.3473  0.4740
  971MOL0     C30962   3.762   9.181   5.946  0.4235 -0.1215  0.7903
  971MOL0     C30963   3.671   9.161   5.815  0.1110  0.4277 -0.8347
  971MOL0     C30964   3.741   9.054   5.724 -0.1674 -0.0618  0.8277
  971MOL0     C30965   3.664   9.064   5.587  0.1350  0.2121 -0.4556
  971MOL0     C30966   3.736   8.960   5.503 -0.3225  0.6301  0.1316
  971MOL0     N30967   3.675   8.941   5.367  0.0612 -0.6599  0.1314
  971MOL0     C30968   3.611   8.819   5.328 -0.0468  0.4764  0.4976
  971MOL0     C30969   3.551   8.844   5.211 -0.9260  0.1667  0.3992
  971MOL0     C30970   3.474   8.755   5.122  0.5572  0.1291  0.2452
  971MOL0     C30971   3.322   8.755   5.163 -0.3129  1.0083  0.0400
  971MOL0     C30972   3.241   8.675   5.052  0.1485  0.1122 -0.1673
  971MOL0     C30973   3.268   8.519   5.055  0.8935 -0.0946 -0.7601
  971MOL0     O30974   3.378   8.478   4.981  0.4295  0.1772 -0.2398
  971MOL0     C30975   3.384   8.348   4.946  0.0063  0.7431 -0.0385
  971MOL0     C30976   3.311   8.248   5.011 -0.1818 -0.0246  0.3132
  971MOL0     C30977   3.300   8.118   4.964  0.3141  0.5388  0.9274
  971MOL0     C30978   3.369   8.082   4.846 -0.5155  0.4707 -0.0151
  971MOL0     C30979   3.351   7.949   4.778  0.1021 -0.1424 -0.0496
  971MOL0     O30980   3.427   7.924   4.661 -0.5670 -0.0429 -0.5320
  971MOL0     C30981   3.417   7.796   4.608 -0.0973  0.8806  0.6905
  971MOL0     C30982   3.347   7.770   4.485 -0.3513 -0.1044 -0.3359
  971MOL0     C30983   3.330   7.641   4.438 -0.2800  0.3912  0.3830
  971MOL0     C30984   3.389   7.534   4.491 -0.2059 -1.3537 -0.8036
  971MOL0     O30985   3.375   7.414   4.419 -0.1696 -0.0413  0.8255
  971MOL0     C30986   3.405   7.292   4.485  0.3916  0.4629  0.3839
  971MOL0     C30987   3.404   7.168   4.401 -0.4311  0.2822  0.0371
  971MOL0     C30988   3.432   7.039   4.479  0.2065  0.2572 -0.7047
  971MOL0     C30989   3.340   7.014   4.601 -0.5380  0.8255  0.6796
  971MOL0     C30990   3.341   6.870   4.644 -0.8073  0.8935 -0.3484
  971MOL0     C30991   3.259   6.826   4.760  0.0177 -0.5059 -0.9101
  971MOL0     C30992   3.123   6.790   4.704 -0.2953  0.2826 -0.3595
  971MOL0     C30993   3.111   6.631   4.697 -0.1771  0.1406  0.9389
  971MOL0    Cl30994   3.094   6.558   4.861  0.1114  0.2104 -0.1200
  971MOL0     C30995   3.466   7.553   4.612  0.0550 -0.6134 -0.8373
  971MOL0     C30996   3.466   7.681   4.675 -0.2764 -0.3669  0.3612
  971MOL0     O30997   3.274   7.869   4.826  0.3734  0.5762 -0.6195
  971MOL0     C30998   3.427   8.182   4.768  0.2255 -1.0018 -0.4779
  971MOL0     C30999   3.429   8.314   4.821 -0.7306  0.8818 -0.1658
  971MOL0     N31000   3.570   8.978   5.178 -0.1657 -0.0892  0.0724
  971MOL0     N31001   3.645   9.037   5.271  0.0846  0.8323  0.9003
  971MOL0     C31002   3.732   9.600   5.968 -0.3956  0.5699 -0.5462
  971MOL0     C31003   3.670   9.725   5.977  0.6992 -0.6931  0.0947
  971MOL0     C31004   3.491  10.138   6.081  0.1322 -0.0191  1.0279
  971MOL0     C31005   3.574  10.212   6.173  0.2719 -0.9428  0.0607
  971MOL0     C31006   3.541  10.345   6.206  1.4816  0.8232 -0.5016
  971MOL0     C31007   3.424  10.407   6.169 -0.9122  0.5618  0.4506
  971MOL0     O31008   3.404  10.539   6.199  1.1369 -0.3065 -0.0796
  971MOL0     C31009   3.483  10.603   6.304  0.2855  0.0436 -0.1795
  971MOL0     C31010   3.443  10.747   6.321  0.0146  0.4164  1.2217
  971MOL0     C31011   3.516  10.830   6.427 -0.6148 -0.4289  0.7895
  971MOL0     C31012   3.528  10.761   6.561  0.1318 -0.4660  0.0442
  971MOL0     C31013   3.638  10.670   6.564 -0.7635  0.9238 -0.1936
  971MOL0     C31014   3.706  10.566   6.564  0.3981 -0.0156 -0.5939
  971MOL0     C31015   3.333  10.344   6.069 -0.2658  0.6873  0.5124
  971MOL0     C31016   3.374  10.207   6.031  0.6507 -0.0909  0.7530
  971MOL0     C31017   3.273  10.140   5.942  0.3122 -0.3239  0.0218
  971MOL0     H31018   3.809   9.856   6.260 -2.0661 -0.2633  0.0586
  971MOL0     H31019   3.919   9.632   6.249 -1.6935 -1.9220  1.0297
  971MOL0     H31020   3.982   9.292   6.151 -0.0306  0.3404 -1.0609
  971MOL0     H31021   3.907   9.399   6.264  2.2028 -0.1035 -0.1107
  971MOL0     H31022   3.695   9.342   6.237 -2.1149 -0.5743 -0.8744
  971MOL0     H31023   3.773   9.187   6.215 -0.3229  0.8586  1.3877
  971MOL0     H31024   3.650   9.358   6.001 -1.8679 -0.2681  0.0501
  971MOL0     H31025   3.580   9.213   6.059  0.2240 -0.3793  0.4267
  971MOL0     H31026   3.860   9.225   5.926 -0.8446  1.8842 -1.5495
  971MOL0     H31027   3.773   9.079   5.984 -2.3339 -1.1826 -0.9730
  971MOL0     H31028   3.574   9.117   5.840 -0.1288 -0.7972 -3.5751
  971MOL0     H31029   3.664   9.257   5.763  0.0262  2.3949  2.5105
  971MOL0     H31030   3.844   9.089   5.713  0.5062 -0.4978  4.4310
  971MOL0     H31031   3.737   8.954   5.767  2.5801 -0.6764 -0.1485
  971MOL0     H31032   3.652   9.163   5.543 -3.6656  0.0544 -0.0854
  971MOL0     H31033   3.561   9.041   5.614  0.2312  0.7349  0.3703
  971MOL0     H31034   3.842   8.983   5.493 -0.2335  0.5665  0.8983
  971MOL0     H31035   3.729   8.863   5.554  3.4579 -0.0532 -0.3815
  971MOL0     H31036   3.621   8.727   5.384 -0.2795 -2.3535 -3.6385
  971MOL0     H31037   3.496   8.800   5.024  2.7013 -2.9200 -0.8282
  971MOL0     H31038   3.515   8.654   5.112 -1.0594 -0.6759  1.3183
  971MOL0     H31039   3.303   8.710   5.260  0.8658  1.6403  0.5828
  971MOL0     H31040   3.290   8.860   5.160  1.6548  1.6359 -1.7243
  971MOL0     H31041   3.277   8.719   4.959 -0.4776  2.6079  0.6728
  971MOL0     H31042   3.132   8.685   5.053 -0.1643 -1.9683 -3.0654
  971MOL0     H31043   3.176   8.480   5.010  1.4540 -1.9679 -0.3289
  971MOL0     H31044   3.282   8.479   5.156  1.0781  0.1204 -0.6996
  971MOL0     H31045   3.265   8.272   5.106  0.2053  1.5777  0.1257
  971MOL0     H31046   3.247   8.036   5.012  0.0494 -0.9523 -1.7405
  971MOL0     H31047   3.299   7.853   4.434  1.6195  1.6225  0.4939
  971MOL0     H31048   3.278   7.628   4.344 -2.2069  0.0904  1.4345
  971MOL0     H31049   3.512   7.291   4.507  0.7378  1.0944 -1.1780
  971MOL0     H31050   3.349   7.286   4.579  2.6349  0.3364  1.7912
  971MOL0     H31051   3.301   7.155   4.367 -0.0976 -1.1219 -0.4974
  971MOL0     H31052   3.472   7.162   4.315  1.6267 -4.3965  1.6197
  971MOL0     H31053   3.433   6.955   4.409  1.2180  0.5574 -1.0808
  971MOL0     H31054   3.531   7.031   4.526 -0.3029  0.0218  0.3677
  971MOL0     H31055   3.241   7.051   4.572  0.3043  3.4837  0.8786
  971MOL0     H31056   3.365   7.075   4.689  0.2508 -0.5610  1.4618
  971MOL0     H31057   3.439   6.850   4.688 -1.5484  1.8090  1.8973
  971MOL0     H31058   3.321   6.806   4.558  4.7572  0.9319 -2.0489
  971MOL0     H31059   3.300   6.737   4.809  0.4689  0.3369  0.3074
  971MOL0     H31060   3.260   6.906   4.835  0.2509 -2.3877  1.1944
  971MOL0     H31061   3.116   6.827   4.601 -0.9595 -1.1260 -0.8536
  971MOL0     H31062   3.051   6.841   4.769  0.0649 -0.0218  0.2922
  971MOL0     H31063   3.018   6.614   4.642  0.5536  1.1463 -0.6614
  971MOL0     H31064   3.204   6.596   4.652 -0.2553 -0.5178  1.2722
  971MOL0     H31065   3.509   7.468   4.665  1.8715  0.4058 -0.5779
  971MOL0     H31066   3.505   7.685   4.777 -0.7484 -2.6797  0.6814
  971MOL0     H31067   3.458   8.168   4.666 -0.6201  3.4070 -1.5751
  971MOL0     H31068   3.492   8.389   4.775  2.2454 -1.3777 -0.0238
  971MOL0     H31069   3.719   9.540   5.879 -2.3949  1.1640 -0.7026
  971MOL0     H31070   3.594   9.765   5.910 -0.5943  0.2212  2.0019
  971MOL0     H31071   3.662  10.170   6.221  0.2612  2.4286  3.4496
  971MOL0     H31072   3.627  10.385   6.259  0.1062 -0.4986  3.0511
  971MOL0     H31073   3.589  10.599   6.278  0.5933  1.5296  0.7279
  971MOL0     H31074   3.471  10.540   6.393 -1.5290 -0.4276 -0.7088
  971MOL0     H31075   3.336  10.740   6.343 -0.3167  2.5702  0.5269
  971MOL0     H31076   3.449  10.789   6.221 -2.9269  1.1048  1.2554
  971MOL0     H31077   3.461  10.924   6.439  3.0523  2.2591 -1.2795
  971MOL0     H31078   3.603  10.865   6.371 -0.7898 -1.7870 -0.3883
  971MOL0     H31079   3.549  10.836   6.638 -1.4807  0.6935 -0.5782
  971MOL0     H31080   3.430  10.720   6.590  1.0754 -1.2607  2.3261
  971MOL0     H31081   3.763  10.476   6.553 -0.2640 -0.3039 -1.8324
  971MOL0     H31082   3.248  10.397   6.029  0.1515  0.1870 -1.1311
  971MOL0     H31083   3.221  10.063   6.000  1.4339 -0.9910  0.1727
  971MOL0     H31084   3.200  10.215   5.912  0.0119  0.0926  1.7352
  971MOL0     H31085   3.319  10.104   5.849  2.0623  2.7414 -0.4098
  972MOL0     O31086  10.299   2.953   2.131  0.3642 -0.3600 -0.2439
  972MOL0     C31087  10.309   2.957   2.006  0.4220  0.3945  0.1932
  972MOL0     O31088  10.214   3.017   1.926  0.2217 -0.2140  0.4591
  972MOL0     C31089  10.114   3.097   1.982 -0.0763 -0.5588 -0.6624
  972MOL0     C31090  10.124   3.236   2.003  0.3737  0.1473 -0.7555
  972MOL0     C31091  10.020   3.324   2.061 -0.3284 -0.6190 -0.0219
  972MOL0     C31092   9.908   3.260   2.105 -0.4353 -0.6932  0.4654
  972MOL0     O31093   9.807   3.325   2.179  0.5864 -0.0829  0.3644
  972MOL0     C31094   9.774   3.472   2.168 -0.3089 -0.6067  0.0890
  972MOL0     C31095   9.635   3.497   2.230  0.3319  0.3289  0.0914
  972MOL0     C31096   9.643   3.485   2.385  0.6263 -1.1476 -0.1516
  972MOL0     C31097   9.492   3.509   2.447 -0.4135 -0.4750  0.4394
  972MOL0     C31098   9.497   3.494   2.601  0.0848  0.3822  0.5509
  972MOL0     C31099   9.526   3.354   2.643 -0.3953  0.9667  1.4302
  972MOL0     C31100   9.512   3.351   2.797  0.3195 -0.7650  0.1009
  972MOL0     C31101   9.594   3.238   2.853 -0.0475  0.0562  0.4733
  972MOL0     N31102   9.559   3.204   2.990  0.0151  1.6309 -0.9236
  972MOL0     C31103   9.505   3.090   3.029  0.7104 -0.0948  0.7028
  972MOL0     C31104   9.502   3.086   3.167  0.1726 -0.1686  0.6366
  972MOL0     C31105   9.455   2.973   3.257  0.8633 -0.1653 -0.3579
  972MOL0     C31106   9.538   2.848   3.222  0.1711  0.5826  0.6720
  972MOL0     C31107   9.512   2.711   3.295  0.1757 -0.2321  0.2219
  972MOL0     C31108   9.538   2.731   3.445 -0.2330 -0.3898 -1.0803
  972MOL0     O31109   9.427   2.805   3.499 -0.5143 -0.5359 -0.0641
  972MOL0     C31110   9.420   2.783   3.632 -0.1455  0.3926 -0.6661
  972MOL0     C31111   9.467   2.883   3.721 -0.2675 -0.2472  0.2902
  972MOL0     C31112   9.471   2.871   3.859  0.3773  0.3497 -0.1968
  972MOL0     C31113   9.399   2.762   3.905  0.2601 -0.2650 -0.3405
  972MOL0     C31114   9.391   2.733   4.048  0.3651 -0.0643 -0.5577
  972MOL0     O31115   9.342   2.606   4.096 -0.9470 -1.4097  0.9497
  972MOL0     C31116   9.301   2.578   4.219 -0.1761 -0.4462 -0.1390
  972MOL0     C31117   9.229   2.660   4.301 -0.8991  0.1535 -0.2445
  972MOL0     C31118   9.203   2.628   4.437  0.0322  0.1446  1.2351
  972MOL0     C31119   9.241   2.500   4.490  0.0486 -1.0732  0.4253
  972MOL0     O31120   9.211   2.456   4.619 -0.3943 -0.0467  0.5634
  972MOL0     C31121   9.210   2.561   4.723 -0.7367 -0.4978  0.1032
  972MOL0     C31122   9.246   2.483   4.846 -0.1541 -0.3715 -0.3090
  972MOL0     C31123   9.397   2.458   4.854  0.5890  0.2353  0.1460
  972MOL0     C31124   9.446   2.386   4.978 -0.3260  0.2122  0.0840
  972MOL0     C31125   9.599   2.350   4.989  0.9003 -0.1044  0.7458
  972MOL0     C31126   9.688   2.480   4.987  0.0230 -0.2640 -0.0049
  972MOL0     C31127   9.831   2.434   4.987  0.4213 -0.7567 -0.3337
  972MOL0     C31128   9.926   2.552   4.975 -0.0132 -0.2475  0.9037
  972MOL0    Cl31129  10.082   2.527   5.070 -0.1120  0.0787  0.0140
  972MOL0     C31130   9.306   2.412   4.397  0.2562  0.2124  0.5674
  972MOL0     C31131   9.335   2.452   4.263  0.4623  0.3630 -0.2809
  972MOL0     O31132   9.424   2.822   4.126  0.0914 -0.1817  0.4137
  972MOL0     C31133   9.354   2.652   3.825 -0.0843  0.4337  0.6788
  972MOL0     C31134   9.368   2.666   3.689 -0.5360  0.2237 -0.5063
  972MOL0     N31135   9.555   3.210   3.204  0.0377 -0.0502 -0.2047
  972MOL0     N31136   9.600   3.276   3.101 -0.3191  1.1789  0.2432
  972MOL0     C31137   9.889   3.123   2.085  0.1066  1.1416 -0.4329
  972MOL0     C31138   9.985   3.042   2.037 -0.4345  0.1577  0.1803
  972MOL0     C31139  10.433   2.896   1.948  0.2874  0.3740  0.3511
  972MOL0     C31140  10.481   2.786   2.015  0.0132 -0.4332 -0.3876
  972MOL0     C31141  10.591   2.720   1.966 -0.3333  0.8480 -1.2791
  972MOL0     C31142  10.661   2.769   1.864 -0.6398 -0.7118 -0.3785
  972MOL0     O31143  10.767   2.683   1.827 -0.2958  0.0503  0.1061
  972MOL0     C31144  10.836   2.730   1.709 -0.5981  0.5941 -0.1597
  972MOL0     C31145  10.931   2.848   1.742  0.7973 -0.6319  0.2424
  972MOL0     C31146  11.059   2.819   1.835 -0.5424 -0.6583 -0.3056
  972MOL0     C31147  11.130   2.686   1.826 -0.8177 -0.2653  0.3592
  972MOL0     C31148  11.226   2.666   1.938  0.4412  0.1981  0.0589
  972MOL0     C31149  11.298   2.658   2.032  1.5734  0.1080  0.2117
  972MOL0     C31150  10.609   2.884   1.791 -0.0408  0.6338  0.5061
  972MOL0     C31151  10.487   2.943   1.827  0.2581 -0.4878 -0.9141
  972MOL0     C31152  10.428   3.063   1.750 -0.0215 -0.7226  0.8688
  972MOL0     H31153  10.210   3.286   1.960  1.8715  0.9408  2.8029
  972MOL0     H31154  10.016   3.432   2.071  1.8351 -0.1750 -2.6845
  972MOL0     H31155   9.850   3.530   2.221 -1.1159  0.3071  0.2876
  972MOL0     H31156   9.775   3.500   2.062 -0.6355  0.3519  0.3254
  972MOL0     H31157   9.561   3.426   2.192 -0.5111  0.3613  1.6008
  972MOL0     H31158   9.595   3.597   2.209 -2.7598 -0.5885  0.9853
  972MOL0     H31159   9.706   3.569   2.416 -1.5171  1.2775 -1.9926
  972MOL0     H31160   9.691   3.390   2.411 -1.3199 -1.4512  2.7576
  972MOL0     H31161   9.462   3.608   2.412  0.5428 -0.6365 -0.8866
  972MOL0     H31162   9.415   3.442   2.406 -0.4198 -0.1293 -0.1180
  972MOL0     H31163   9.572   3.556   2.651  0.1511 -0.5560  1.6775
  972MOL0     H31164   9.399   3.527   2.637 -0.8469 -1.0236 -0.5783
  972MOL0     H31165   9.456   3.288   2.590  1.3048  1.1036 -1.1555
  972MOL0     H31166   9.627   3.326   2.611  0.1922  2.7950  1.5924
  972MOL0     H31167   9.407   3.329   2.820  0.2211 -0.7512 -0.3251
  972MOL0     H31168   9.551   3.441   2.846 -0.5576 -0.3032 -0.0366
  972MOL0     H31169   9.577   3.155   2.783 -0.0520 -0.6096  1.2473
  972MOL0     H31170   9.701   3.260   2.851  0.2761 -1.4258  0.2508
  972MOL0     H31171   9.478   3.013   2.957  0.6278  1.0953 -0.5920
  972MOL0     H31172   9.479   3.005   3.359  0.6817 -0.7837 -0.1200
  972MOL0     H31173   9.348   2.951   3.248  0.7200 -0.0551  0.9124
  972MOL0     H31174   9.515   2.829   3.117  2.9684  0.0216  0.0793
  972MOL0     H31175   9.645   2.870   3.228  0.2968  0.5431 -0.9100
  972MOL0     H31176   9.584   2.638   3.260  0.9011 -0.6821  2.5140
  972MOL0     H31177   9.410   2.681   3.266 -0.1016  1.2101 -0.4084
  972MOL0     H31178   9.634   2.777   3.471 -0.6687  0.8562 -1.5610
  972MOL0     H31179   9.549   2.630   3.483  0.9630  0.1094 -0.0351
  972MOL0     H31180   9.505   2.979   3.686  2.6366 -1.1710  0.5852
  972MOL0     H31181   9.521   2.944   3.923  4.1074 -2.3609  0.3034
  972MOL0     H31182   9.207   2.759   4.262 -0.0965  0.1746 -0.6725
  972MOL0     H31183   9.143   2.695   4.499 -1.1959  0.6118 -0.3853
  972MOL0     H31184   9.280   2.645   4.711  1.3573 -2.1157  0.5529
  972MOL0     H31185   9.104   2.590   4.713 -0.8483 -1.0365 -0.3319
  972MOL0     H31186   9.212   2.532   4.938 -0.2825 -2.2572  0.7015
  972MOL0     H31187   9.206   2.381   4.851  0.5477 -0.7722 -2.1273
  972MOL0     H31188   9.415   2.409   4.758  0.3831  3.7070 -1.8346
  972MOL0     H31189   9.437   2.560   4.859 -1.0225  0.9379 -0.6992
  972MOL0     H31190   9.389   2.292   4.981 -0.3936 -0.0627 -4.0638
  972MOL0     H31191   9.420   2.457   5.057 -1.6632  0.1165 -0.2493
  972MOL0     H31192   9.620   2.298   4.896 -4.0687 -1.6641  0.1967
  972MOL0     H31193   9.630   2.284   5.071  0.4118  1.7410  2.5211
  972MOL0     H31194   9.682   2.534   4.892 -1.6892 -1.9861 -0.9604
  972MOL0     H31195   9.661   2.549   5.068 -1.3260 -0.7825  0.0064
  972MOL0     H31196   9.850   2.354   4.914  0.2394  1.5385 -3.0955
  972MOL0     H31197   9.842   2.395   5.088 -2.3263  3.9087  2.1335
  972MOL0     H31198   9.951   2.571   4.870  2.6374  0.6135  1.6128
  972MOL0     H31199   9.881   2.638   5.025 -2.4173 -2.4550  2.8085
  972MOL0     H31200   9.340   2.316   4.433  1.9193  0.6348  0.2312
  972MOL0     H31201   9.395   2.379   4.210  0.2737 -0.4678  0.6196
  972MOL0     H31202   9.311   2.566   3.874  1.5355 -0.3537  0.8025
  972MOL0     H31203   9.327   2.594   3.618 -0.4712  0.8558 -1.1862
  972MOL0     H31204   9.797   3.086   2.129  0.7422 -0.8098 -0.6547
  972MOL0     H31205   9.958   2.937   2.028 -1.0874  0.2662  0.8366
  972MOL0     H31206  10.429   2.748   2.102  0.8244 -0.9229 -0.1168
  972MOL0     H31207  10.611   2.628   2.019 -0.0804  1.8322  0.4035
  972MOL0     H31208  10.770   2.750   1.624 -1.5405 -2.0741 -0.1515
  972MOL0     H31209  10.898   2.646   1.676 -0.2253  0.4800  0.8076
  972MOL0     H31210  10.875   2.928   1.791 -0.8860  0.2538 -2.8576
  972MOL0     H31211  10.972   2.901   1.655  0.9792 -0.7956  0.2267
  972MOL0     H31212  11.023   2.835   1.937  1.6879  2.6137  0.1376
  972MOL0     H31213  11.137   2.893   1.814 -0.4514 -0.7094 -0.1512
  972MOL0     H31214  11.052   2.610   1.829 -1.9300  0.8421  0.3930
  972MOL0     H31215  11.187   2.674   1.733  0.8515  2.0947  0.9778
  972MOL0     H31216  11.355   2.677   2.120 -0.4569  1.7544  1.2700
  972MOL0     H31217  10.669   2.924   1.710  0.5822 -3.1870 -1.1798
  972MOL0     H31218  10.423   3.156   1.807 -0.9230 -3.0054  4.8835
  972MOL0     H31219  10.481   3.069   1.655 -1.9946 -3.8305 -0.6004
  972MOL0     H31220  10.331   3.035   1.707 -0.3487 -0.4726  1.4277
  973MOL0     O31221   6.830   4.760   0.035 -0.5753 -0.0139 -0.1295
  973MOL0     C31222   6.767   4.724  -0.061 -0.3332  0.5682 -0.1057
  973MOL0     O31223   6.654   4.657  -0.057  0.3328 -0.0863 -0.3302
  973MOL0     C31224   6.589   4.624   0.067 -0.5542 -0.4631 -0.0666
  973MOL0     C31225   6.651   4.566   0.177 -0.2448 -0.1897  0.9306
  973MOL0     C31226   6.577   4.542   0.295  0.4120 -0.1255  0.3231
  973MOL0     C31227   6.445   4.594   0.298  0.4904  0.0076 -0.1467
  973MOL0     O31228   6.364   4.554   0.404  0.8650 -0.0296 -1.3427
  973MOL0     C31229   6.218   4.533   0.389  0.1883  0.8440 -1.5327
  973MOL0     C31230   6.202   4.415   0.484  1.0215 -0.3783  0.2527
  973MOL0     C31231   6.060   4.375   0.527  0.1030 -0.5683 -1.5364
  973MOL0     C31232   5.982   4.322   0.412 -0.8337  0.9652  0.3721
  973MOL0     C31233   5.832   4.293   0.438 -0.8781  0.2741 -0.3386
  973MOL0     C31234   5.753   4.426   0.413 -0.8129 -0.3697  0.6242
  973MOL0     C31235   5.603   4.413   0.442  0.7901 -0.0397  0.2426
  973MOL0     C31236   5.522   4.348   0.327 -0.9878 -0.1900  0.0847
  973MOL0     N31237   5.379   4.373   0.342  0.3159  0.5491 -1.2014
  973MOL0     C31238   5.319   4.488   0.294 -0.2274 -0.4767 -0.2104
  973MOL0     C31239   5.183   4.463   0.298  0.5844  0.8395  0.1608
  973MOL0     C31240   5.073   4.559   0.265 -0.7348  0.0204  0.9491
  973MOL0     C31241   5.010   4.547   0.134  0.2990  0.3237 -0.5648
  973MOL0     C31242   4.878   4.626   0.139  0.1309 -0.2813  0.7368
  973MOL0     C31243   4.754   4.559   0.202  0.1959 -0.7398  0.5406
  973MOL0     O31244   4.733   4.628   0.326  0.6704  0.2782  0.2849
  973MOL0     C31245   4.736   4.550   0.435 -0.2026 -0.6165 -0.7136
  973MOL0     C31246   4.691   4.420   0.443 -0.1228  0.9220  0.1693
  973MOL0     C31247   4.678   4.355   0.570 -0.0838 -0.6018  0.5785
  973MOL0     C31248   4.731   4.426   0.685  0.2401 -0.0361 -0.1178
  973MOL0     C31249   4.719   4.355   0.821  0.6437 -0.5073  0.4770
  973MOL0     O31250   4.662   4.232   0.826 -0.3273  0.0467 -1.1707
  973MOL0     C31251   4.623   4.182   0.954  0.1322 -0.1456  0.1916
  973MOL0     C31252   4.721   4.120   1.037  0.6259 -0.7000  0.6469
  973MOL0     C31253   4.688   4.080   1.165  0.9180  0.3943 -0.1576
  973MOL0     C31254   4.550   4.090   1.205 -0.0915  0.8183 -0.0161
  973MOL0     O31255   4.504   4.035   1.323  0.9545 -0.6109  0.1541
  973MOL0     C31256   4.566   3.913   1.370 -0.8217 -0.5157  0.1642
  973MOL0     C31257   4.515   3.860   1.503 -0.4576 -0.3199 -0.2661
  973MOL0     C31258   4.634   3.772   1.561  0.4387  0.1355 -0.0285
  973MOL0     C31259   4.581   3.695   1.677  0.9971  0.0054 -0.3617
  973MOL0     C31260   4.688   3.589   1.700  0.8252 -0.0288 -0.2583
  973MOL0     C31261   4.806   3.635   1.783  0.6509  0.4333 -0.2161
  973MOL0     C31262   4.901   3.519   1.809  0.5685 -0.2812 -0.8702
  973MOL0     C31263   5.019   3.572   1.880 -0.1027  0.3741 -0.1675
  973MOL0    Cl31264   4.977   3.635   2.049 -0.0542  0.4100  0.5403
  973MOL0     C31265   4.459   4.146   1.123  0.2067  0.6093  0.2901
  973MOL0     C31266   4.487   4.196   0.998 -0.6304  1.2978 -0.0735
  973MOL0     O31267   4.763   4.423   0.915  0.8348 -0.5498 -0.2831
  973MOL0     C31268   4.768   4.561   0.680 -0.0695 -0.3657  0.5387
  973MOL0     C31269   4.778   4.622   0.553 -0.0594 -0.0341  0.7767
  973MOL0     N31270   5.173   4.345   0.373 -0.1485  0.5606  0.5530
  973MOL0     N31271   5.280   4.293   0.404 -0.4971 -0.0051  0.6323
  973MOL0     C31272   6.386   4.656   0.179  0.5796  0.8007  1.1020
  973MOL0     C31273   6.468   4.678   0.072 -0.4695 -0.2832 -0.4614
  973MOL0     C31274   6.818   4.784  -0.190  0.8645  0.2146 -0.0395
  973MOL0     C31275   6.718   4.822  -0.289  0.1912  0.3364  0.0521
  973MOL0     C31276   6.742   4.890  -0.407 -0.0583  0.0339  0.7510
  973MOL0     C31277   6.882   4.929  -0.435  0.4855 -0.5993 -0.5224
  973MOL0     O31278   6.897   5.002  -0.549  0.4230 -0.1161 -0.2191
  973MOL0     C31279   7.031   5.067  -0.566  0.5726  0.2072  0.6537
  973MOL0     C31280   7.012   5.195  -0.651 -1.1795 -0.0592 -0.6320
  973MOL0     C31281   6.926   5.308  -0.585  0.3742  0.1455 -0.0321
  973MOL0     C31282   6.928   5.329  -0.434  0.2934 -1.1067  0.0397
  973MOL0     C31283   6.806   5.392  -0.394  0.7066  0.1383  0.2880
  973MOL0     C31284   6.706   5.441  -0.353 -0.7122 -0.4784  0.4307
  973MOL0     C31285   6.979   4.870  -0.351  0.1952 -1.0253 -0.0303
  973MOL0     C31286   6.950   4.806  -0.229 -0.3109 -0.2752 -0.2479
  973MOL0     C31287   7.060   4.743  -0.145 -0.0317  0.3945 -0.7551
  973MOL0     H31288   6.758   4.554   0.170 -0.4066 -1.2178 -0.1005
  973MOL0     H31289   6.613   4.496   0.387  2.8908  0.8468 -0.0989
  973MOL0     H31290   6.160   4.619   0.424  2.3913  1.7005  0.2784
  973MOL0     H31291   6.179   4.500   0.292 -1.1553  0.5099 -0.8947
  973MOL0     H31292   6.257   4.443   0.574  1.9401 -1.0284 -0.0825
  973MOL0     H31293   6.256   4.335   0.432  2.3062  1.9731 -2.2921
  973MOL0     H31294   6.014   4.471   0.554 -0.5427 -0.9423 -1.2793
  973MOL0     H31295   6.052   4.303   0.609  2.3854 -1.8227 -2.3620
  973MOL0     H31296   5.984   4.385   0.323 -0.7695  1.2168  0.5488
  973MOL0     H31297   6.031   4.228   0.384 -0.4162  1.5257 -0.8440
  973MOL0     H31298   5.784   4.215   0.379 -3.2765  0.6716  0.9670
  973MOL0     H31299   5.811   4.275   0.543 -0.1198 -0.2721 -0.2733
  973MOL0     H31300   5.783   4.498   0.490 -0.3209  1.5776 -1.3051
  973MOL0     H31301   5.787   4.471   0.319  2.9110  1.2976  2.5484
  973MOL0     H31302   5.556   4.510   0.462  1.4797  0.0600  1.4608
  973MOL0     H31303   5.590   4.358   0.536  1.2822  1.2552  1.0941
  973MOL0     H31304   5.551   4.390   0.230 -3.0169 -0.2739 -0.6025
  973MOL0     H31305   5.551   4.243   0.331 -0.8482 -0.1204  2.2187
  973MOL0     H31306   5.368   4.573   0.249  2.0133 -1.2323  0.6781
  973MOL0     H31307   4.995   4.562   0.342 -3.8159  2.3525 -1.9350
  973MOL0     H31308   5.120   4.657   0.274  0.5026 -0.4248 -0.3469
  973MOL0     H31309   5.074   4.594   0.058 -1.2233 -0.0178 -2.1239
  973MOL0     H31310   4.998   4.443   0.103  0.1821  0.7692 -2.1149
  973MOL0     H31311   4.858   4.652   0.034  3.0923  0.9905  0.3827
  973MOL0     H31312   4.888   4.723   0.188 -3.3576  1.5741 -1.7511
  973MOL0     H31313   4.762   4.451   0.191 -1.6312 -0.8330 -0.3229
  973MOL0     H31314   4.662   4.582   0.148  0.9139 -0.9645 -0.8215
  973MOL0     H31315   4.647   4.379   0.353  0.9233  2.3073 -1.0261
  973MOL0     H31316   4.631   4.257   0.567 -1.0307 -0.2844 -5.1792
  973MOL0     H31317   4.820   4.122   0.993  0.7628  1.2716  0.9578
  973MOL0     H31318   4.764   4.034   1.227  4.9074  2.8791 -2.7456
  973MOL0     H31319   4.541   3.835   1.297 -1.4233 -1.1648  1.0417
  973MOL0     H31320   4.675   3.919   1.367 -0.8823  0.4266 -1.8324
  973MOL0     H31321   4.487   3.936   1.577  0.3239  1.4396 -1.6831
  973MOL0     H31322   4.429   3.801   1.471 -0.3047 -1.7034  1.6646
  973MOL0     H31323   4.662   3.695   1.487  1.6363  1.2399 -0.7671
  973MOL0     H31324   4.722   3.826   1.595  1.9269 -3.2164  1.9546
  973MOL0     H31325   4.483   3.650   1.657 -0.6665  1.3756  3.6382
  973MOL0     H31326   4.556   3.755   1.765 -3.0289 -1.3740 -0.3415
  973MOL0     H31327   4.736   3.554   1.609  3.1099  0.6021  0.6296
  973MOL0     H31328   4.630   3.505   1.741 -0.1640  0.2457 -1.0655
  973MOL0     H31329   4.869   3.709   1.733  3.1128 -2.7909 -2.3101
  973MOL0     H31330   4.754   3.691   1.861 -2.4338  0.2007 -1.9289
  973MOL0     H31331   4.937   3.474   1.717  3.5259  1.4207 -0.6806
  973MOL0     H31332   4.847   3.453   1.878  0.0675  3.1241  2.3582
  973MOL0     H31333   5.088   3.487   1.889 -1.3486 -0.5264  1.3882
  973MOL0     H31334   5.066   3.646   1.815 -2.2351  0.6829 -1.4378
  973MOL0     H31335   4.357   4.169   1.151 -0.0738 -0.8595  0.5068
  973MOL0     H31336   4.407   4.230   0.933  1.8899  3.7893 -2.0954
  973MOL0     H31337   4.797   4.619   0.767  3.3313 -0.7767 -0.1542
  973MOL0     H31338   4.824   4.719   0.533  0.2291  0.3401  3.0283
  973MOL0     H31339   6.287   4.700   0.178 -0.0499 -0.5107 -0.9739
  973MOL0     H31340   6.423   4.723  -0.016  2.2204  1.0218 -1.2913
  973MOL0     H31341   6.614   4.803  -0.266 -0.5288  2.3866 -1.2457
  973MOL0     H31342   6.661   4.922  -0.471 -1.9693 -1.2889  2.3917
  973MOL0     H31343   7.099   5.000  -0.618 -0.6866  1.1391 -2.4228
  973MOL0     H31344   7.069   5.101  -0.469 -5.3694  1.6141  2.9368
  973MOL0     H31345   6.979   5.167  -0.751  2.0849 -1.5692 -1.4169
  973MOL0     H31346   7.110   5.239  -0.668 -0.4351 -1.8122 -1.0832
  973MOL0     H31347   6.827   5.275  -0.618 -0.8725 -1.4308  4.5897
  973MOL0     H31348   6.945   5.397  -0.646 -0.5130 -0.6513 -1.5271
  973MOL0     H31349   6.925   5.235  -0.378  2.7059 -0.5731  1.2119
  973MOL0     H31350   7.014   5.386  -0.398  0.7460 -1.7043 -0.0684
  973MOL0     H31351   6.610   5.485  -0.332  0.2185  1.8333  0.2024
  973MOL0     H31352   7.083   4.893  -0.372  0.3450 -0.1307  1.5804
  973MOL0     H31353   7.143   4.702  -0.203 -2.1413 -1.9882 -2.3350
  973MOL0     H31354   7.090   4.829  -0.085  1.9599  0.0097 -1.1147
  973MOL0     H31355   7.021   4.659  -0.088  2.9089 -0.7778 -0.2866
  974MOL0     O31356   5.705   1.615   3.425  0.8854  0.1954 -0.3839
  974MOL0     C31357   5.607   1.578   3.498  0.2018  0.3217 -0.3659
  974MOL0     O31358   5.617   1.485   3.597 -0.3580  0.0130 -1.0964
  974MOL0     C31359   5.743   1.457   3.653  0.3415 -0.2677 -0.2570
  974MOL0     C31360   5.782   1.324   3.677  0.7616 -0.4034 -0.4914
  974MOL0     C31361   5.888   1.293   3.751 -0.0190 -0.0282 -0.4032
  974MOL0     C31362   5.982   1.389   3.789 -0.4806  0.3548  0.2819
  974MOL0     O31363   6.093   1.342   3.861  1.0078  0.6173 -0.2721
  974MOL0     C31364   6.170   1.420   3.950 -0.0616  0.6305  0.3475
  974MOL0     C31365   6.091   1.514   4.039  1.1562  0.8552  0.3341
  974MOL0     C31366   5.964   1.450   4.102 -0.5837 -0.7495 -0.0169
  974MOL0     C31367   5.879   1.542   4.189 -0.8049 -0.0783  1.2131
  974MOL0     C31368   5.750   1.473   4.234 -0.5845  0.3270  0.6001
  974MOL0     C31369   5.638   1.470   4.126 -0.0736  0.0255  0.8847
  974MOL0     C31370   5.517   1.379   4.165  0.5041 -0.1067  0.5506
  974MOL0     C31371   5.422   1.355   4.042  0.6688 -0.5906  0.0273
  974MOL0     N31372   5.372   1.486   3.996 -0.2579 -1.1722  0.1835
  974MOL0     C31373   5.428   1.572   3.896 -0.4169  0.8538  0.2723
  974MOL0     C31374   5.356   1.684   3.896  0.8004  1.2211  0.7275
  974MOL0     C31375   5.379   1.805   3.795  0.3724  0.2976 -0.9142
  974MOL0     C31376   5.445   1.934   3.853 -1.3726 -0.2531 -1.1941
  974MOL0     C31377   5.567   1.884   3.944 -0.0427  1.0070 -0.5028
  974MOL0     C31378   5.639   2.000   4.012  0.5749  1.2571  0.1321
  974MOL0     O31379   5.754   2.058   3.950 -0.0241  0.2237 -0.4128
  974MOL0     C31380   5.870   1.982   3.951 -0.1343 -1.0327  1.1556
  974MOL0     C31381   5.946   1.989   3.829 -1.2257 -0.2869  0.3865
  974MOL0     C31382   6.076   1.935   3.828 -0.2237  0.1803 -1.1258
  974MOL0     C31383   6.135   1.876   3.947 -0.0094  0.7510 -0.2172
  974MOL0     C31384   6.279   1.828   3.952  0.5764 -0.2559 -0.0413
  974MOL0     O31385   6.343   1.819   3.837 -1.1795  0.2861  0.4847
  974MOL0     C31386   6.482   1.828   3.821  0.2737 -0.1313 -0.0506
  974MOL0     C31387   6.554   1.758   3.724 -0.1084 -0.0115  0.3488
  974MOL0     C31388   6.697   1.757   3.712 -0.5227 -0.4320 -0.3555
  974MOL0     C31389   6.764   1.857   3.786 -0.9452 -0.0259  1.0190
  974MOL0     O31390   6.908   1.862   3.785  0.3231  0.4618  0.8417
  974MOL0     C31391   6.980   1.837   3.662 -0.4812 -0.0415 -1.1672
  974MOL0     C31392   7.132   1.852   3.683  0.8508  0.1438 -0.4012
  974MOL0     C31393   7.204   1.866   3.553  0.5589  0.5712  0.9866
  974MOL0     C31394   7.346   1.911   3.587  0.0505 -0.3037  0.9113
  974MOL0     C31395   7.431   1.921   3.460  0.5663  0.2019 -0.7431
  974MOL0     C31396   7.559   1.994   3.468 -0.5417 -0.0252  0.6395
  974MOL0     C31397   7.642   1.948   3.345 -0.4135 -0.7087  0.2140
  974MOL0     C31398   7.770   2.018   3.355  0.1779  0.1513  0.2759
  974MOL0    Cl31399   7.768   2.169   3.262  0.3060 -0.4356  0.0155
  974MOL0     C31400   6.691   1.943   3.868 -0.0194  0.1680 -0.0916
  974MOL0     C31401   6.559   1.928   3.892 -0.5764  1.0441  0.4751
  974MOL0     O31402   6.336   1.827   4.072  0.3609 -0.0767 -0.2173
  974MOL0     C31403   6.056   1.868   4.061  0.2174 -0.9529 -0.6108
  974MOL0     C31404   5.925   1.916   4.061  0.1096 -0.0055 -0.8834
  974MOL0     N31405   5.256   1.669   3.992 -0.0238  0.3162  0.4018
  974MOL0     N31406   5.268   1.554   4.050 -0.3914  0.7066 -0.1815
  974MOL0     C31407   5.962   1.522   3.753  1.2587 -0.4057  0.2589
  974MOL0     C31408   5.840   1.553   3.682 -0.1318 -0.2992  0.0452
  974MOL0     C31409   5.473   1.626   3.457  0.0191 -0.1679  0.0896
  974MOL0     C31410   5.363   1.539   3.461 -0.0629 -0.5154 -0.2087
  974MOL0     C31411   5.244   1.574   3.401 -0.1814  0.3194  0.2745
  974MOL0     C31412   5.225   1.685   3.324  0.2259 -0.2354  1.1455
  974MOL0     O31413   5.109   1.717   3.249  0.9638  0.1124 -0.7489
  974MOL0     C31414   4.982   1.666   3.287 -0.1493 -0.8411  0.1256
  974MOL0     C31415   4.870   1.729   3.201  0.4054 -0.7054  0.3253
  974MOL0     C31416   4.748   1.634   3.176  0.4714 -0.7358 -0.1625
  974MOL0     C31417   4.684   1.595   3.314  0.7938 -0.0883  0.5048
  974MOL0     C31418   4.575   1.509   3.281  0.2026  0.5021  0.2299
  974MOL0     C31419   4.465   1.454   3.259  0.1360  0.4031 -0.1141
  974MOL0     C31420   5.332   1.779   3.322  0.7155  0.4041 -0.0330
  974MOL0     C31421   5.453   1.749   3.390 -0.0021  0.0246  0.0927
  974MOL0     C31422   5.558   1.857   3.393 -0.6645  0.2317  0.2469
  974MOL0     H31423   5.708   1.248   3.656  0.1814  0.1069 -0.3264
  974MOL0     H31424   5.906   1.197   3.798  0.1090  0.7667  1.2232
  974MOL0     H31425   6.235   1.354   4.009  0.8105 -0.4297 -1.7279
  974MOL0     H31426   6.245   1.481   3.899  2.9850 -1.6976  1.7198
  974MOL0     H31427   6.065   1.603   3.981  0.5519  1.7482  1.9174
  974MOL0     H31428   6.154   1.541   4.124  2.1646 -1.3088  0.3234
  974MOL0     H31429   5.998   1.365   4.162 -2.0186 -1.1132  0.3037
  974MOL0     H31430   5.901   1.407   4.023  1.2486 -1.3587 -1.2219
  974MOL0     H31431   5.941   1.581   4.270  2.9503 -0.0701 -1.3549
  974MOL0     H31432   5.857   1.636   4.137  0.3814 -1.4449 -2.0494
  974MOL0     H31433   5.772   1.372   4.269 -1.2359 -1.2291 -3.0139
  974MOL0     H31434   5.711   1.530   4.319 -1.3496 -2.2526  2.0592
  974MOL0     H31435   5.608   1.573   4.103  2.2640  0.4762 -0.6125
  974MOL0     H31436   5.687   1.426   4.039 -1.1190  0.4601  0.0472
  974MOL0     H31437   5.462   1.413   4.253 -0.9532 -2.0664  0.4593
  974MOL0     H31438   5.562   1.284   4.196 -1.3157 -1.5360 -0.9242
  974MOL0     H31439   5.473   1.301   3.962  1.6165  0.7917 -0.3291
  974MOL0     H31440   5.333   1.310   4.088  1.1312  0.8905  2.5950
  974MOL0     H31441   5.514   1.567   3.830 -1.5320 -0.6149 -1.1772
  974MOL0     H31442   5.448   1.780   3.713  0.0782  1.7551 -1.6414
  974MOL0     H31443   5.284   1.834   3.750  0.6987 -2.0310 -3.3499
  974MOL0     H31444   5.479   2.005   3.777  4.8441 -0.7384  0.5942
  974MOL0     H31445   5.380   1.988   3.922 -0.2830 -1.2148  0.6474
  974MOL0     H31446   5.627   1.824   3.874  0.7576 -0.3788  1.3043
  974MOL0     H31447   5.546   1.814   4.025  0.5317  1.5087  0.0915
  974MOL0     H31448   5.665   1.950   4.106 -1.8991 -4.4379 -1.7746
  974MOL0     H31449   5.567   2.076   4.044  1.1225  1.4835  0.8674
  974MOL0     H31450   5.910   2.035   3.737  1.3381 -1.1382 -1.1325
  974MOL0     H31451   6.133   1.966   3.741  1.4244  1.5903  0.3831
  974MOL0     H31452   6.500   1.692   3.657  0.9886 -0.6236  0.0282
  974MOL0     H31453   6.737   1.677   3.650  2.0274 -0.9170  1.7330
  974MOL0     H31454   6.968   1.735   3.624  2.8028 -0.3679 -1.5694
  974MOL0     H31455   6.943   1.906   3.586 -2.8377  1.3593  1.0984
  974MOL0     H31456   7.155   1.937   3.749  0.7433 -0.3293  0.2598
  974MOL0     H31457   7.166   1.772   3.749 -1.2102  1.3763  2.3956
  974MOL0     H31458   7.214   1.767   3.506  1.0080  1.1147 -0.0876
  974MOL0     H31459   7.159   1.943   3.489 -1.4852 -0.0843  1.5590
  974MOL0     H31460   7.399   1.847   3.659  2.7823  0.7901  0.0077
  974MOL0     H31461   7.346   2.011   3.630 -0.7302  0.3542 -0.5421
  974MOL0     H31462   7.383   1.974   3.377 -0.4667  2.1255  0.9974
  974MOL0     H31463   7.448   1.819   3.424 -0.1835  0.6857 -2.6081
  974MOL0     H31464   7.547   2.102   3.475 -2.8450 -0.1074 -0.8020
  974MOL0     H31465   7.609   1.974   3.563 -0.0090  1.1415  0.6160
  974MOL0     H31466   7.605   1.964   3.243  2.0906 -2.5241 -1.0802
  974MOL0     H31467   7.667   1.842   3.356 -0.7068 -0.9890 -1.5111
  974MOL0     H31468   7.801   2.048   3.455 -1.4549 -0.2634  0.9353
  974MOL0     H31469   7.845   1.946   3.319 -0.2424 -0.8556  1.3647
  974MOL0     H31470   6.731   2.022   3.931 -3.1678  0.7216  1.4012
  974MOL0     H31471   6.508   1.986   3.967  3.0453  2.9927  1.6648
  974MOL0     H31472   6.099   1.843   4.158  0.0187  0.7434 -0.0469
  974MOL0     H31473   5.872   1.901   4.154 -2.8367  4.4267 -1.5201
  974MOL0     H31474   6.032   1.599   3.784  1.1810 -0.6272  1.0058
  974MOL0     H31475   5.800   1.654   3.678  0.4888 -0.0146  0.7727
  974MOL0     H31476   5.375   1.440   3.503 -1.3825 -0.7521 -0.3388
  974MOL0     H31477   5.157   1.508   3.396  1.2608 -1.8977  2.3267
  974MOL0     H31478   4.965   1.698   3.390  1.3400  0.8892 -0.1148
  974MOL0     H31479   4.971   1.558   3.275  2.0855 -1.0816 -0.2440
  974MOL0     H31480   4.915   1.744   3.102 -0.6602 -1.0185 -0.2324
  974MOL0     H31481   4.847   1.830   3.234 -2.4903  0.0083 -3.1787
  974MOL0     H31482   4.777   1.544   3.121  1.2649  0.7902 -2.3958
  974MOL0     H31483   4.667   1.689   3.128  1.4015  1.1192  0.3056
  974MOL0     H31484   4.758   1.549   3.382  1.1605 -0.8968 -0.4206
  974MOL0     H31485   4.641   1.682   3.364 -3.1280 -0.8062 -1.2781
  974MOL0     H31486   4.369   1.408   3.242 -0.4675  2.1887 -2.0473
  974MOL0     H31487   5.317   1.869   3.262 -1.2847 -0.4393 -0.9141
  974MOL0     H31488   5.610   1.851   3.489 -2.7485 -1.3060  1.3515
  974MOL0     H31489   5.621   1.846   3.305  0.6863 -0.9042  1.3104
  974MOL0     H31490   5.508   1.955   3.393  0.1799  0.6681  0.3291
  975MOL0     O31491   3.149   9.022   0.784 -0.3262 -0.8165 -0.2082
  975MOL0     C31492   3.130   8.902   0.799 -0.1035  0.5102 -0.3158
  975MOL0     O31493   3.125   8.839   0.925 -1.3992 -0.0256 -0.3080
  975MOL0     C31494   3.174   8.896   1.042 -0.9479 -0.1358  1.1132
  975MOL0     C31495   3.287   8.982   1.045 -0.2825 -0.6895  0.7465
  975MOL0     C31496   3.332   9.050   1.163  0.6227 -0.6369 -0.2819
  975MOL0     C31497   3.267   9.028   1.289 -0.2916  0.2043  0.5210
  975MOL0     O31498   3.307   9.072   1.412 -0.3184  1.0930 -0.2787
  975MOL0     C31499   3.425   9.155   1.424  0.4079 -0.4510  0.5422
  975MOL0     C31500   3.511   9.124   1.541  0.4310  0.3784 -0.0497
  975MOL0     C31501   3.607   9.239   1.562  0.4391  0.9552  0.2672
  975MOL0     C31502   3.701   9.226   1.684 -0.0514 -0.7136 -0.1742
  975MOL0     C31503   3.787   9.351   1.699 -0.4618 -0.0591 -0.1749
  975MOL0     C31504   3.865   9.348   1.835 -0.4134 -0.1480  0.2505
  975MOL0     C31505   3.967   9.460   1.863  0.6287  0.1505  0.0813
  975MOL0     C31506   4.020   9.460   2.009 -0.2079  0.1088  0.9289
  975MOL0     N31507   4.075   9.334   2.055 -0.1107 -0.5205 -0.7302
  975MOL0     C31508   3.988   9.248   2.119 -0.8321 -0.4084 -0.0463
  975MOL0     C31509   4.073   9.175   2.199 -0.5309  0.3069  0.1186
  975MOL0     C31510   4.027   9.063   2.288 -0.6577 -0.3815  0.7180
  975MOL0     C31511   3.964   8.953   2.206 -0.3273  0.4012 -0.3985
  975MOL0     C31512   3.810   8.966   2.196 -0.8753  0.3239 -0.5426
  975MOL0     C31513   3.752   8.832   2.151 -0.0296 -0.0758 -0.3409
  975MOL0     O31514   3.610   8.842   2.167  0.4372  0.0980 -0.3942
  975MOL0     C31515   3.529   8.751   2.110  0.2666 -0.0493  0.0349
  975MOL0     C31516   3.567   8.631   2.040 -0.1819  0.3132 -0.0388
  975MOL0     C31517   3.483   8.541   1.980 -0.1267 -0.5117  0.9765
  975MOL0     C31518   3.344   8.562   2.003  1.2604 -0.1932 -0.8797
  975MOL0     C31519   3.238   8.472   1.951 -0.1106  0.0137  0.7997
  975MOL0     O31520   3.116   8.476   2.005  0.5126  0.0896  0.5284
  975MOL0     C31521   3.027   8.375   1.948 -0.3540 -0.1661 -0.2174
  975MOL0     C31522   2.979   8.378   1.816  0.1664 -0.3965 -0.4004
  975MOL0     C31523   2.895   8.277   1.759  0.4497  0.4161  0.0970
  975MOL0     C31524   2.868   8.161   1.830  0.6494  0.1073 -0.3235
  975MOL0     O31525   2.793   8.066   1.764 -0.0532 -0.0788 -0.1307
  975MOL0     C31526   2.737   7.952   1.827 -0.8291 -0.7779  0.9040
  975MOL0     C31527   2.583   7.989   1.849  0.0247  0.6223 -0.0717
  975MOL0     C31528   2.493   7.855   1.833 -0.9060  0.4145 -0.0402
  975MOL0     C31529   2.564   7.723   1.864 -0.0256 -0.8894  0.2837
  975MOL0     C31530   2.456   7.614   1.857 -0.5669 -0.1906 -0.4907
  975MOL0     C31531   2.393   7.591   1.992  0.3525 -0.8337 -0.6191
  975MOL0     C31532   2.322   7.460   1.997  0.7753  0.5228 -0.8148
  975MOL0     C31533   2.230   7.444   2.122 -0.1169  0.0246  1.8731
  975MOL0    Cl31534   2.200   7.277   2.140  0.6153  0.5710 -0.0930
  975MOL0     C31535   2.907   8.155   1.962  0.3456 -0.7529  0.7722
  975MOL0     C31536   2.980   8.261   2.021 -1.0557  0.4095 -0.0825
  975MOL0     O31537   3.279   8.405   1.857 -0.5846  0.3306 -0.0161
  975MOL0     C31538   3.303   8.680   2.069  0.3674  0.6119 -0.5331
  975MOL0     C31539   3.396   8.766   2.127  1.0895 -0.0235  0.4389
  975MOL0     N31540   4.205   9.221   2.164 -0.0591  0.4040 -1.0490
  975MOL0     N31541   4.206   9.315   2.080 -0.0874 -0.9593  0.1978
  975MOL0     C31542   3.162   8.934   1.287 -0.9615 -0.7073 -0.3683
  975MOL0     C31543   3.119   8.875   1.166 -0.9394  0.8725  0.0249
  975MOL0     C31544   3.100   8.814   0.687 -0.0425  0.0981  0.2498
  975MOL0     C31545   3.088   8.669   0.710 -0.6442  0.0084 -0.6056
  975MOL0     C31546   3.076   8.583   0.601  0.0225  0.3733 -0.8574
  975MOL0     C31547   3.047   8.630   0.468  0.6273 -0.1854 -1.3719
  975MOL0     O31548   3.001   8.539   0.373  0.2466  0.8303 -1.2741
  975MOL0     C31549   2.866   8.496   0.390 -0.0924  0.0331  0.6097
  975MOL0     C31550   2.774   8.595   0.309 -0.5026  0.2498 -0.2555
  975MOL0     C31551   2.835   8.644   0.178  0.5472 -0.8620 -0.0928
  975MOL0     C31552   2.811   8.535   0.062 -0.0216 -0.8628 -0.5656
  975MOL0     C31553   2.911   8.562  -0.042  0.8868  0.1102  0.0673
  975MOL0     C31554   3.001   8.604  -0.118 -0.0082 -0.0920 -0.2826
  975MOL0     C31555   3.050   8.773   0.442  0.1620 -0.2656 -1.0601
  975MOL0     C31556   3.079   8.864   0.554 -1.1162 -0.4254  0.0935
  975MOL0     C31557   3.074   9.011   0.525 -0.4615 -0.4343  0.9677
  975MOL0     H31558   3.326   8.997   0.945 -0.2997 -0.1782  0.8160
  975MOL0     H31559   3.412   9.123   1.152  0.3106 -0.3080 -0.3857
  975MOL0     H31560   3.490   9.141   1.338 -0.2824  0.9052 -0.2304
  975MOL0     H31561   3.391   9.258   1.438 -2.0248 -1.2437  0.9329
  975MOL0     H31562   3.568   9.032   1.523 -3.1361 -1.6931 -1.6440
  975MOL0     H31563   3.453   9.119   1.634 -1.2039  1.4381 -0.9785
  975MOL0     H31564   3.538   9.318   1.592 -2.7801 -0.5585 -2.3934
  975MOL0     H31565   3.654   9.265   1.467 -1.7285 -0.8505 -1.4294
  975MOL0     H31566   3.646   9.211   1.777 -2.2237  2.7793 -0.6794
  975MOL0     H31567   3.771   9.142   1.674 -1.0402 -1.3465 -2.7035
  975MOL0     H31568   3.856   9.379   1.619 -1.5756 -1.2109 -1.5881
  975MOL0     H31569   3.720   9.437   1.707 -0.3200  0.2153 -1.6249
  975MOL0     H31570   3.796   9.342   1.919 -3.2197 -0.7814 -1.9258
  975MOL0     H31571   3.917   9.252   1.831 -3.0483 -1.7079  0.9145
  975MOL0     H31572   3.929   9.560   1.840  2.4299  1.1147  1.0753
  975MOL0     H31573   4.054   9.423   1.807 -0.1190 -2.6772  0.6372
  975MOL0     H31574   4.101   9.532   2.020 -0.2056  0.0930  1.0135
  975MOL0     H31575   3.941   9.496   2.075  0.4552  0.5150  1.5065
  975MOL0     H31576   3.880   9.261   2.114 -0.8138 -0.4423 -0.5441
  975MOL0     H31577   4.111   9.025   2.346 -1.2778 -0.6840  1.4264
  975MOL0     H31578   3.957   9.102   2.363  0.3742  2.1705  0.4571
  975MOL0     H31579   4.014   8.953   2.109  1.3411  1.9431  0.4008
  975MOL0     H31580   3.992   8.856   2.249  1.5425  0.3071 -1.7348
  975MOL0     H31581   3.782   9.044   2.125  0.7035  1.2179 -0.2268
  975MOL0     H31582   3.776   9.003   2.294  2.3297  0.7544  0.5139
  975MOL0     H31583   3.797   8.760   2.220  2.2238  3.0670  1.7849
  975MOL0     H31584   3.779   8.802   2.050  1.7949 -0.2156  0.1455
  975MOL0     H31585   3.673   8.616   2.020 -0.0350 -0.7510  1.4054
  975MOL0     H31586   3.520   8.459   1.919 -1.2484 -2.0170  2.2304
  975MOL0     H31587   3.026   8.449   1.749 -0.2242  1.8330  1.5482
  975MOL0     H31588   2.874   8.287   1.654 -0.1703  1.4150  0.3057
  975MOL0     H31589   2.748   7.869   1.757  0.9407  0.0374  0.1413
  975MOL0     H31590   2.784   7.923   1.922 -0.7581 -2.6213  0.3401
  975MOL0     H31591   2.568   8.020   1.953  1.4756 -2.3446  1.1555
  975MOL0     H31592   2.560   8.061   1.770  0.5122 -0.3966 -1.1908
  975MOL0     H31593   2.400   7.864   1.891  0.2466 -0.4637  2.0328
  975MOL0     H31594   2.470   7.843   1.727  2.1879 -2.8562 -0.5351
  975MOL0     H31595   2.617   7.711   1.959  0.7784 -1.1789 -0.1912
  975MOL0     H31596   2.642   7.703   1.789 -1.9991 -0.1844 -2.0715
  975MOL0     H31597   2.499   7.520   1.823 -0.8662 -1.2838  1.9354
  975MOL0     H31598   2.371   7.637   1.792 -0.0367 -2.9228 -2.2866
  975MOL0     H31599   2.469   7.592   2.070 -0.8502  4.9956  0.9757
  975MOL0     H31600   2.318   7.670   2.004 -2.3728 -3.1409 -1.4397
  975MOL0     H31601   2.391   7.375   2.001 -2.3781 -2.1573  0.9810
  975MOL0     H31602   2.259   7.460   1.908 -1.9369  2.0671  0.9809
  975MOL0     H31603   2.291   7.491   2.199  1.0895  0.1655  0.8600
  975MOL0     H31604   2.133   7.491   2.110 -0.6124 -1.5575 -1.4136
  975MOL0     H31605   2.886   8.073   2.030  0.0053 -1.8335 -0.5972
  975MOL0     H31606   2.997   8.257   2.128 -2.2436  1.4647  0.1748
  975MOL0     H31607   3.197   8.692   2.090  0.7439  1.5418  0.9508
  975MOL0     H31608   3.355   8.856   2.171 -1.3010 -0.0919 -1.4190
  975MOL0     H31609   3.116   8.899   1.379  0.4587 -0.2611  0.5376
  975MOL0     H31610   3.036   8.807   1.180 -0.6123  0.2959 -0.7934
  975MOL0     H31611   3.105   8.622   0.806 -1.2425  2.6079  0.8741
  975MOL0     H31612   3.071   8.476   0.617 -1.8471  0.5656  0.0398
  975MOL0     H31613   2.841   8.489   0.496  1.2460 -1.3097  0.8613
  975MOL0     H31614   2.850   8.395   0.352 -0.7479 -0.0297  1.0375
  975MOL0     H31615   2.760   8.675   0.382  1.5750 -1.7675  2.5947
  975MOL0     H31616   2.671   8.558   0.305  0.5415 -2.9603 -0.0709
  975MOL0     H31617   2.939   8.672   0.190  0.4539 -0.7541  0.4544
  975MOL0     H31618   2.782   8.731   0.139  2.2874  0.3308  0.1127
  975MOL0     H31619   2.825   8.438   0.110  1.3984 -0.1632  0.5001
  975MOL0     H31620   2.709   8.542   0.023 -0.6301  1.6033  1.2156
  975MOL0     H31621   3.086   8.620  -0.181 -0.9008  1.4335 -1.1680
  975MOL0     H31622   3.010   8.812   0.349  1.1364  1.4380 -0.8129
  975MOL0     H31623   3.008   9.066   0.593  1.9549  1.3797  1.9898
  975MOL0     H31624   3.174   9.055   0.532 -0.4707 -0.2439  0.0443
  975MOL0     H31625   3.030   9.037   0.429 -0.7174 -1.7040  0.7282
  976MOL0     O31626   8.906   4.012   6.888 -0.1989  0.6547 -0.2059
  976MOL0     C31627   8.993   3.941   6.837  0.4296 -0.0858 -0.8466
  976MOL0     O31628   9.117   3.979   6.808 -0.7604 -0.1683 -0.5865
  976MOL0     C31629   9.153   4.110   6.827 -0.0998 -0.1067  0.0943
  976MOL0     C31630   9.220   4.172   6.716  0.5246  0.2679  0.7106
  976MOL0     C31631   9.284   4.287   6.743  0.8667  0.2009  0.7552
  976MOL0     C31632   9.286   4.354   6.861  0.3024  0.0642 -0.5799
  976MOL0     O31633   9.342   4.477   6.860  0.4441 -0.4344  0.6423
  976MOL0     C31634   9.246   4.572   6.906 -0.7587 -0.2022 -0.6744
  976MOL0     C31635   9.290   4.634   7.040  0.5353 -0.4571 -0.7555
  976MOL0     C31636   9.232   4.760   7.086 -0.0408  0.4792 -0.1220
  976MOL0     C31637   9.083   4.737   7.122  0.7524 -0.6602  0.1047
  976MOL0     C31638   9.008   4.873   7.166 -0.7380 -0.5328  0.1558
  976MOL0     C31639   8.880   4.847   7.226  1.0270 -0.2340 -0.3819
  976MOL0     C31640   8.843   4.946   7.341 -0.3367  0.2072  0.5011
  976MOL0     C31641   8.715   4.913   7.413  0.0733 -0.2066 -0.2372
  976MOL0     N31642   8.656   5.032   7.474 -0.5727  0.9178 -0.1731
  976MOL0     C31643   8.541   5.095   7.431 -0.1128 -1.0522  0.3292
  976MOL0     C31644   8.523   5.184   7.539  0.0441 -0.7723 -0.1883
  976MOL0     C31645   8.429   5.292   7.538 -0.0045  0.5875  0.5128
  976MOL0     C31646   8.498   5.423   7.567  0.6042 -0.0849  0.2751
  976MOL0     C31647   8.421   5.539   7.493 -0.9682 -0.4987 -0.2821
  976MOL0     C31648   8.480   5.573   7.354  0.2069 -0.6615  0.1593
  976MOL0     O31649   8.456   5.465   7.267  0.0463  0.1706  1.1185
  976MOL0     C31650   8.563   5.400   7.212 -0.4665  0.4161  0.3608
  976MOL0     C31651   8.698   5.412   7.246  0.2212 -0.1477 -0.3344
  976MOL0     C31652   8.802   5.350   7.179  0.3076 -0.2471  0.8809
  976MOL0     C31653   8.770   5.263   7.077  0.9066  0.7051  0.6107
  976MOL0     C31654   8.877   5.197   6.999 -0.1376 -0.4125  0.5525
  976MOL0     O31655   8.837   5.147   6.876  0.0089  0.2027 -0.0749
  976MOL0     C31656   8.931   5.108   6.789 -0.8675  0.4396 -0.3195
  976MOL0     C31657   8.943   4.969   6.759 -0.2484  0.5913  0.1305
  976MOL0     C31658   9.033   4.920   6.662  1.0900 -0.8486  1.0726
  976MOL0     C31659   9.125   5.012   6.609  0.7067 -0.2997 -0.9778
  976MOL0     O31660   9.217   4.964   6.524 -0.0189 -0.1879 -0.1918
  976MOL0     C31661   9.286   5.065   6.449 -0.2223  0.8554  0.5211
  976MOL0     C31662   9.322   5.002   6.311  0.6994  0.1228  0.1873
  976MOL0     C31663   9.405   5.100   6.234  0.8377 -0.5518  0.1826
  976MOL0     C31664   9.471   5.044   6.113  0.2796  1.0709 -0.3962
  976MOL0     C31665   9.534   5.148   6.020 -0.3660  0.9768  0.6473
  976MOL0     C31666   9.572   5.081   5.890 -0.7606 -0.3073  0.7290
  976MOL0     C31667   9.690   4.996   5.894  0.2353 -0.6422  0.1122
  976MOL0     C31668   9.822   5.078   5.909 -0.1912  0.2507  0.8136
  976MOL0    Cl31669   9.954   4.957   5.864 -0.1448 -0.2854  1.0722
  976MOL0     C31670   9.113   5.153   6.643 -0.5458 -0.1292  0.7538
  976MOL0     C31671   9.010   5.199   6.716  0.0384  0.3076 -0.2352
  976MOL0     O31672   8.984   5.189   7.047 -0.5498  0.0667  0.0986
  976MOL0     C31673   8.631   5.248   7.038 -0.1192  0.9602  1.3631
  976MOL0     C31674   8.534   5.314   7.107  0.0292 -0.4051 -0.1822
  976MOL0     N31675   8.621   5.166   7.634 -0.7128  0.2007  1.2240
  976MOL0     N31676   8.702   5.077   7.591 -0.3886  0.2670 -0.3421
  976MOL0     C31677   9.225   4.293   6.969  0.9925  0.5944 -0.6170
  976MOL0     C31678   9.161   4.171   6.947 -0.2447 -1.2141 -0.9967
  976MOL0     C31679   8.963   3.800   6.835  0.3494  0.1203  0.3460
  976MOL0     C31680   9.070   3.699   6.841 -0.6410  0.6225  0.8951
  976MOL0     C31681   9.057   3.562   6.845  0.4087  0.2166 -0.4325
  976MOL0     C31682   8.929   3.508   6.840 -0.0253  0.2535 -0.0591
  976MOL0     O31683   8.926   3.375   6.852  0.9165  0.2175 -0.8254
  976MOL0     C31684   8.820   3.309   6.778  1.1193 -0.5525  0.3844
  976MOL0     C31685   8.794   3.161   6.818 -0.4629 -0.1324  0.0174
  976MOL0     C31686   8.706   3.141   6.945 -0.1845 -0.7296 -0.4546
  976MOL0     C31687   8.566   3.200   6.930 -0.3951 -0.4316 -0.4669
  976MOL0     C31688   8.469   3.169   7.036 -0.0252 -0.4181  0.4065
  976MOL0     C31689   8.388   3.121   7.114 -1.3238 -0.9019  0.1661
  976MOL0     C31690   8.821   3.596   6.836 -0.5379  1.0450 -0.2538
  976MOL0     C31691   8.833   3.740   6.814  0.0359 -0.0521 -0.4906
  976MOL0     C31692   8.705   3.817   6.803 -0.5472  0.6886  0.2703
  976MOL0     H31693   9.224   4.116   6.623 -1.5857  1.1716  0.0256
  976MOL0     H31694   9.341   4.328   6.660 -0.7529 -0.6285 -0.8310
  976MOL0     H31695   9.245   4.662   6.844 -2.4457 -0.1177 -0.5589
  976MOL0     H31696   9.144   4.531   6.907 -0.6790 -0.4097  0.6489
  976MOL0     H31697   9.399   4.639   7.042  0.6130 -0.5956  3.7211
  976MOL0     H31698   9.285   4.559   7.119  0.5610 -0.1574 -0.4681
  976MOL0     H31699   9.235   4.840   7.012  1.1574  1.4892  0.9900
  976MOL0     H31700   9.299   4.799   7.163 -0.3427  0.1677  0.3043
  976MOL0     H31701   9.043   4.699   7.028 -0.0054  2.4171 -0.9194
  976MOL0     H31702   9.082   4.663   7.203  2.1493 -0.4161  0.3756
  976MOL0     H31703   9.071   4.928   7.237 -2.2883  0.5498  0.7269
  976MOL0     H31704   9.007   4.949   7.087  1.0426  0.3163  0.8892
  976MOL0     H31705   8.804   4.861   7.148 -0.6975  3.2352  1.6610
  976MOL0     H31706   8.864   4.746   7.264 -4.2946 -0.5362 -2.5070
  976MOL0     H31707   8.846   5.045   7.296  2.9741  0.3232  0.7279
  976MOL0     H31708   8.922   4.948   7.416 -1.3909 -0.3093  1.6637
  976MOL0     H31709   8.647   4.864   7.344 -0.2161 -3.0390  1.9047
  976MOL0     H31710   8.724   4.838   7.492 -0.5205 -0.5134 -0.4541
  976MOL0     H31711   8.480   5.080   7.343  1.0409  1.1964 -0.9218
  976MOL0     H31712   8.388   5.296   7.437 -0.3738 -2.7283  0.4222
  976MOL0     H31713   8.350   5.265   7.609  0.5516 -3.2884 -0.1688
  976MOL0     H31714   8.490   5.439   7.675  0.7810  1.6760  0.0520
  976MOL0     H31715   8.601   5.407   7.534 -0.1920 -2.2418 -1.4241
  976MOL0     H31716   8.418   5.630   7.554 -1.4886 -1.2318  0.8197
  976MOL0     H31717   8.318   5.506   7.477 -0.4292 -1.5672 -1.7328
  976MOL0     H31718   8.582   5.611   7.366 -0.5613  0.8911  2.1726
  976MOL0     H31719   8.435   5.667   7.323  1.7821  0.7081  1.7962
  976MOL0     H31720   8.723   5.460   7.340  1.6324  0.0442 -0.7855
  976MOL0     H31721   8.907   5.357   7.207  0.9053  0.2034 -1.2862
  976MOL0     H31722   8.868   4.903   6.800  0.4739 -0.6145 -0.4241
  976MOL0     H31723   9.036   4.815   6.633  0.1134  0.2638 -4.2445
  976MOL0     H31724   9.237   5.161   6.432  0.4399  0.9628 -0.9641
  976MOL0     H31725   9.383   5.086   6.496  1.3167 -1.2557 -1.4660
  976MOL0     H31726   9.373   4.908   6.329 -0.5215 -0.0695  3.1176
  976MOL0     H31727   9.224   4.990   6.262  0.3448 -1.4985  1.2246
  976MOL0     H31728   9.346   5.187   6.205  1.5725 -0.6797 -1.8564
  976MOL0     H31729   9.489   5.128   6.298  2.0340  0.0662 -1.5890
  976MOL0     H31730   9.410   4.982   6.047  1.6528 -0.9406  0.1256
  976MOL0     H31731   9.541   4.970   6.153  1.5013  1.2129 -2.1539
  976MOL0     H31732   9.622   5.189   6.071 -0.4115  0.4679  1.1410
  976MOL0     H31733   9.465   5.231   6.002 -1.0073  0.3396  0.1697
  976MOL0     H31734   9.492   5.022   5.844  0.2841  0.8715 -2.9720
  976MOL0     H31735   9.588   5.161   5.817  1.7557 -0.7312  0.7227
  976MOL0     H31736   9.695   4.943   5.798  1.0636 -0.6084  0.1315
  976MOL0     H31737   9.677   4.921   5.972 -0.3619 -1.2705 -0.5688
  976MOL0     H31738   9.827   5.154   5.830 -0.7894  1.1624  1.6334
  976MOL0     H31739   9.858   5.100   6.010 -1.9691  0.7720  1.3679
  976MOL0     H31740   9.181   5.233   6.616  0.3033 -1.0392  0.1057
  976MOL0     H31741   8.994   5.306   6.720 -3.4414 -0.1388  1.6557
  976MOL0     H31742   8.619   5.174   6.960 -2.1590  0.7636  1.8140
  976MOL0     H31743   8.428   5.304   7.086 -0.5036 -1.0725  2.3869
  976MOL0     H31744   9.241   4.329   7.070 -0.4191 -0.9353  0.2156
  976MOL0     H31745   9.119   4.124   7.035 -2.5686 -0.2349 -1.5114
  976MOL0     H31746   9.172   3.736   6.842 -0.3365 -0.2058  0.7023
  976MOL0     H31747   9.143   3.496   6.860 -1.1506 -1.4579  1.9725
  976MOL0     H31748   8.853   3.310   6.673  0.7510  2.8670  0.1912
  976MOL0     H31749   8.723   3.358   6.790  1.6077  0.2021  1.3445
  976MOL0     H31750   8.886   3.106   6.840 -0.7029 -0.0547  1.2721
  976MOL0     H31751   8.734   3.135   6.730 -0.3341  2.3258 -0.8997
  976MOL0     H31752   8.749   3.193   7.031 -2.3854  1.1488 -0.3867
  976MOL0     H31753   8.691   3.034   6.961  1.9677 -0.7282  2.0312
  976MOL0     H31754   8.560   3.308   6.915 -0.0010 -0.5028 -1.2251
  976MOL0     H31755   8.519   3.164   6.838 -1.2180  3.5769 -1.8386
  976MOL0     H31756   8.332   3.093   7.201  0.6452 -0.5209  1.6244
  976MOL0     H31757   8.720   3.557   6.833  0.1641 -0.9620  0.7332
  976MOL0     H31758   8.715   3.871   6.708  0.2066 -3.3767 -2.2289
  976MOL0     H31759   8.624   3.744   6.786  0.0382  0.2882 -0.9001
  976MOL0     H31760   8.690   3.884   6.888 -0.3942  0.1331  0.7420
  977MOL0     O31761  11.227   2.568   0.525  0.7518 -0.1511 -0.0064
  977MOL0     C31762  11.117   2.510   0.524 -0.1267 -0.2482 -0.4767
  977MOL0     O31763  11.104   2.382   0.512 -0.1175  0.4440  0.0844
  977MOL0     C31764  11.203   2.292   0.486  0.3596  0.5564  0.1334
  977MOL0     C31765  11.307   2.315   0.401  0.2016 -0.2482  0.0496
  977MOL0     C31766  11.403   2.220   0.372 -0.3513 -0.9279  1.0127
  977MOL0     C31767  11.397   2.096   0.422  0.7149 -0.9985  0.2513
  977MOL0     O31768  11.485   1.995   0.415  0.8192  0.0826  0.5388
  977MOL0     C31769  11.565   1.987   0.289 -0.1520  0.6049 -1.3535
  977MOL0     C31770  11.645   1.852   0.280 -0.5711  0.9926  0.0485
  977MOL0     C31771  11.544   1.729   0.260 -0.4886 -0.6723  0.4147
  977MOL0     C31772  11.577   1.647   0.145  0.5648  0.5308  0.5751
  977MOL0     C31773  11.528   1.713   0.012 -0.0562  0.2864  0.4421
  977MOL0     C31774  11.574   1.642  -0.112 -0.2356  0.3008 -0.4154
  977MOL0     C31775  11.492   1.517  -0.130  0.9998 -0.0319  0.2277
  977MOL0     C31776  11.532   1.459  -0.273 -0.4257  0.4861  0.6401
  977MOL0     N31777  11.481   1.319  -0.302  0.5014  0.2070 -0.0558
  977MOL0     C31778  11.480   1.228  -0.201  0.2903 -0.0046  0.6171
  977MOL0     C31779  11.438   1.112  -0.251  0.2638 -0.7102  0.2050
  977MOL0     C31780  11.430   0.990  -0.173  0.2414 -0.1159 -0.0079
  977MOL0     C31781  11.544   0.976  -0.072 -0.2977  0.4504  0.5330
  977MOL0     C31782  11.541   0.842   0.007 -0.4567  0.3222  0.2999
  977MOL0     C31783  11.651   0.753  -0.046 -0.3074  0.9055  0.4908
  977MOL0     O31784  11.675   0.642   0.042 -0.1644  0.1332  0.1620
  977MOL0     C31785  11.761   0.660   0.144 -0.0792 -0.2639 -0.5080
  977MOL0     C31786  11.848   0.761   0.184  0.7085  0.2817 -0.6582
  977MOL0     C31787  11.905   0.763   0.314 -0.2881  0.2457 -0.5234
  977MOL0     C31788  11.908   0.650   0.393  0.2584  0.1364 -0.9882
  977MOL0     C31789  11.979   0.633   0.510 -0.2725  0.3865 -1.3418
  977MOL0     O31790  12.041   0.748   0.553 -0.0821 -0.5300 -0.0506
  977MOL0     C31791  12.118   0.764   0.671 -0.4069  0.6283  0.8706
  977MOL0     C31792  12.117   0.879   0.741  0.7487  0.9208  0.2063
  977MOL0     C31793  12.193   0.891   0.856 -0.5565  0.1123 -0.2535
  977MOL0     C31794  12.266   0.785   0.902  0.0091 -0.3876 -0.4549
  977MOL0     O31795  12.350   0.814   1.012  0.1311  0.5278 -0.3195
  977MOL0     C31796  12.282   0.792   1.140 -0.1175 -0.7666  0.5882
  977MOL0     C31797  12.363   0.857   1.249 -0.5851 -0.0519  0.6953
  977MOL0     C31798  12.505   0.789   1.264  0.1618 -0.9797  0.4093
  977MOL0     C31799  12.519   0.735   1.401  0.2040  0.0105  0.1879
  977MOL0     C31800  12.562   0.834   1.509  0.5957  0.5046  0.0494
  977MOL0     C31801  12.692   0.917   1.503  0.0289  0.8832 -0.2356
  977MOL0     C31802  12.735   0.974   1.647  0.6009 -0.2311  0.1435
  977MOL0     C31803  12.885   0.951   1.670  0.0310 -0.3834  0.0365
  977MOL0    Cl31804  12.980   1.071   1.576 -0.2793 -0.0291  0.2075
  977MOL0     C31805  12.275   0.670   0.835 -0.3039 -0.4891  0.1513
  977MOL0     C31806  12.202   0.662   0.717 -0.2685 -0.5725  1.0079
  977MOL0     O31807  11.972   0.529   0.567  0.8751 -0.8364 -0.8133
  977MOL0     C31808  11.818   0.551   0.352  0.5510 -0.0280 -0.4319
  977MOL0     C31809  11.745   0.555   0.239  0.0016  0.0528 -0.1498
  977MOL0     N31810  11.423   1.133  -0.389  0.7819  0.0575  0.0426
  977MOL0     N31811  11.452   1.255  -0.415 -0.2877 -0.0636 -0.5895
  977MOL0     C31812  11.283   2.069   0.491  0.2033  0.1087 -0.1654
  977MOL0     C31813  11.182   2.163   0.524 -0.3795 -0.3747  0.1675
  977MOL0     C31814  10.992   2.581   0.567  0.2287 -0.0156  0.4463
  977MOL0     C31815  10.885   2.511   0.631 -0.7301  0.4867 -0.5524
  977MOL0     C31816  10.778   2.577   0.682 -0.1057 -0.0246  0.0107
  977MOL0     C31817  10.757   2.720   0.653  0.2381  0.5896 -0.6260
  977MOL0     O31818  10.643   2.791   0.692 -0.0817 -0.3379  0.9804
  977MOL0     C31819  10.557   2.826   0.572  0.2664  0.2847 -1.3250
  977MOL0     C31820  10.486   2.691   0.513 -0.5015 -0.2914 -1.0521
  977MOL0     C31821  10.389   2.619   0.599 -0.5696 -0.2472 -0.4006
  977MOL0     C31822  10.303   2.517   0.539 -0.4233  1.0578  0.2002
  977MOL0     C31823  10.242   2.556   0.413  0.6622 -0.2641  0.1549
  977MOL0     C31824  10.190   2.572   0.305 -0.3327 -0.1420 -0.8651
  977MOL0     C31825  10.854   2.782   0.585 -0.3115  0.0043  0.2823
  977MOL0     C31826  10.971   2.720   0.534 -0.1008  0.1859  0.2930
  977MOL0     C31827  11.060   2.796   0.447 -0.4936 -0.5735  0.6950
  977MOL0     H31828  11.324   2.412   0.356  0.7015 -0.7561 -0.8923
  977MOL0     H31829  11.484   2.244   0.303 -1.6390 -1.9607 -0.9498
  977MOL0     H31830  11.494   1.996   0.206 -2.5117 -0.8418  0.3776
  977MOL0     H31831  11.640   2.065   0.281 -0.3960  0.8067 -1.7127
  977MOL0     H31832  11.716   1.826   0.360  0.6157 -0.0402 -1.3004
  977MOL0     H31833  11.695   1.857   0.183 -0.8423  0.1657 -0.1399
  977MOL0     H31834  11.437   1.753   0.258 -0.4259 -0.4195  0.1029
  977MOL0     H31835  11.549   1.669   0.352  2.8518 -1.4738 -0.1420
  977MOL0     H31836  11.683   1.619   0.148 -0.3520 -3.5284  0.9781
  977MOL0     H31837  11.525   1.551   0.151  2.5226 -0.5593  0.9486
  977MOL0     H31838  11.418   1.716   0.008 -0.0221  0.7331 -0.2672
  977MOL0     H31839  11.559   1.817   0.017  2.0622 -0.2100 -1.1438
  977MOL0     H31840  11.553   1.710  -0.195 -0.3580  0.4537 -0.2595
  977MOL0     H31841  11.681   1.621  -0.101 -0.2712  0.9668  1.4913
  977MOL0     H31842  11.384   1.534  -0.136  0.9139 -0.4186  0.5694
  977MOL0     H31843  11.504   1.461  -0.037 -2.8793  0.4284  1.2025
  977MOL0     H31844  11.499   1.521  -0.356 -1.2041 -3.0088 -1.8916
  977MOL0     H31845  11.641   1.467  -0.282 -0.4513 -0.3852 -0.6521
  977MOL0     H31846  11.508   1.266  -0.103  1.6503  3.3082 -0.8802
  977MOL0     H31847  11.335   0.979  -0.120  0.4836  0.5038  0.5765
  977MOL0     H31848  11.442   0.907  -0.243  2.0432 -2.1223  2.4881
  977MOL0     H31849  11.639   1.004  -0.119  0.6949 -1.5858  1.2194
  977MOL0     H31850  11.523   1.058  -0.003  1.2082  1.3838 -0.0876
  977MOL0     H31851  11.443   0.795  -0.003  0.5511 -1.3600 -3.3545
  977MOL0     H31852  11.564   0.869   0.111  1.4377 -0.9705  0.2588
  977MOL0     H31853  11.747   0.805  -0.055 -0.3338  0.6334 -4.6975
  977MOL0     H31854  11.639   0.710  -0.146  0.4462 -0.5307  0.9927
  977MOL0     H31855  11.861   0.847   0.120 -1.5288  0.4211 -0.9988
  977MOL0     H31856  11.961   0.849   0.348 -2.0420  2.1831 -2.2543
  977MOL0     H31857  12.063   0.963   0.698  0.8108  1.3627  0.9677
  977MOL0     H31858  12.181   0.985   0.909 -0.8299  0.7511 -1.4186
  977MOL0     H31859  12.179   0.829   1.137 -1.1113 -3.3455 -1.7762
  977MOL0     H31860  12.265   0.685   1.157 -0.5514 -0.5644  1.4969
  977MOL0     H31861  12.365   0.966   1.239 -5.4883  0.1849 -0.0986
  977MOL0     H31862  12.310   0.848   1.344  1.3245  0.0082  1.8198
  977MOL0     H31863  12.505   0.708   1.191  0.2027  0.1265 -0.8443
  977MOL0     H31864  12.584   0.862   1.247  1.2448 -1.1273  3.8378
  977MOL0     H31865  12.588   0.652   1.384 -2.6003 -2.2927 -0.7235
  977MOL0     H31866  12.421   0.694   1.427  0.7800 -0.0825  2.4485
  977MOL0     H31867  12.556   0.782   1.605 -1.5743  0.9941  0.2384
  977MOL0     H31868  12.489   0.914   1.492  1.8603  1.1867 -2.7279
  977MOL0     H31869  12.770   0.850   1.466 -2.0871 -0.9366 -1.6270
  977MOL0     H31870  12.682   0.995   1.427 -1.8184 -0.4009 -1.3725
  977MOL0     H31871  12.684   0.925   1.731  1.6512 -3.1723 -0.8209
  977MOL0     H31872  12.710   1.081   1.648  0.7227 -0.2074  0.9030
  977MOL0     H31873  12.889   0.966   1.778  1.3088  0.8499 -0.1512
  977MOL0     H31874  12.931   0.858   1.635  1.5656  1.7570 -4.5055
  977MOL0     H31875  12.331   0.585   0.873  3.0454  0.6263 -1.9107
  977MOL0     H31876  12.209   0.580   0.646  0.0870  0.3523 -0.0480
  977MOL0     H31877  11.797   0.460   0.407 -3.0193  1.0926  0.3477
  977MOL0     H31878  11.675   0.473   0.225 -0.2106  0.2751 -0.4052
  977MOL0     H31879  11.266   1.965   0.516 -1.0067 -0.1843 -1.9957
  977MOL0     H31880  11.086   2.130   0.562  0.1718  0.6281  2.5620
  977MOL0     H31881  10.906   2.409   0.660  3.3067  2.1419  3.7297
  977MOL0     H31882  10.704   2.531   0.747  2.9357 -1.1141  3.0003
  977MOL0     H31883  10.612   2.883   0.496  2.1917  0.1757 -0.0704
  977MOL0     H31884  10.480   2.889   0.617  1.0342 -1.1275  2.2953
  977MOL0     H31885  10.570   2.626   0.486  1.4547  0.7229  2.0803
  977MOL0     H31886  10.441   2.720   0.418 -0.7285 -0.5722 -1.0295
  977MOL0     H31887  10.331   2.704   0.638  1.3524  0.9819 -0.1054
  977MOL0     H31888  10.446   2.573   0.681  0.8097  0.0940 -1.1485
  977MOL0     H31889  10.364   2.429   0.520  1.8486  3.1406 -3.3189
  977MOL0     H31890  10.225   2.479   0.606  0.7259 -1.6481  0.1016
  977MOL0     H31891  10.144   2.595   0.211 -0.7777  1.2377 -0.3465
  977MOL0     H31892  10.834   2.886   0.559 -2.0839 -0.0287  1.3168
  977MOL0     H31893  11.088   2.739   0.358 -1.4777 -1.2508  0.8186
  977MOL0     H31894  11.017   2.893   0.420  0.3694 -0.1082  0.9490
  977MOL0     H31895  11.148   2.813   0.510 -0.6057  0.8407  0.5078
  978MOL0     O31896   0.400   8.340   5.540  0.0876  0.2455  0.2901
  978MOL0     C31897   0.452   8.418   5.452 -0.8731  0.6874 -0.4429
  978MOL0     O31898   0.379   8.505   5.367 -0.1565  0.5163  0.3112
  978MOL0     C31899   0.249   8.489   5.371  0.4667  0.2342  0.6118
  978MOL0     C31900   0.182   8.401   5.287  0.4769 -0.4958  0.5555
  978MOL0     C31901   0.040   8.399   5.283  1.0075 -1.2235  0.2745
  978MOL0     C31902  -0.035   8.482   5.364  0.2678 -0.3322 -0.8979
  978MOL0     O31903  -0.171   8.495   5.370  0.3159  0.4958  0.2408
  978MOL0     C31904  -0.262   8.411   5.302  0.2348 -0.0367 -0.3166
  978MOL0     C31905  -0.257   8.268   5.348 -0.7113 -0.0675  0.3693
  978MOL0     C31906  -0.315   8.174   5.240 -0.0659 -0.4168  0.4140
  978MOL0     C31907  -0.467   8.182   5.215 -0.8518  0.6256 -0.0880
  978MOL0     C31908  -0.494   8.107   5.080  0.6993  0.5174 -0.2847
  978MOL0     C31909  -0.471   8.193   4.951 -0.6048  0.7539 -0.4529
  978MOL0     C31910  -0.531   8.120   4.834 -0.6082 -0.4819 -0.7715
  978MOL0     C31911  -0.456   7.995   4.781 -0.1456  0.3600  0.9241
  978MOL0     N31912  -0.304   8.017   4.768  0.2752 -0.4311  0.6445
  978MOL0     C31913  -0.214   8.033   4.868 -0.1603  0.7357  0.3212
  978MOL0     C31914  -0.102   8.079   4.800  0.1176  0.3842 -1.2862
  978MOL0     C31915   0.033   8.117   4.862 -0.0093 -0.6678  0.1876
  978MOL0     C31916   0.031   8.230   4.964 -0.8421  0.1515  0.3116
  978MOL0     C31917  -0.025   8.364   4.900 -0.1286 -0.0256  0.1231
  978MOL0     C31918   0.002   8.395   4.751  0.5014 -0.6564 -0.0373
  978MOL0     O31919   0.136   8.404   4.710  0.5900 -0.4055 -0.7093
  978MOL0     C31920   0.217   8.467   4.791 -0.3649 -0.6204  0.5189
  978MOL0     C31921   0.330   8.404   4.834  0.3166  0.1005  0.2703
  978MOL0     C31922   0.416   8.463   4.923 -0.7785 -0.3233  0.5161
  978MOL0     C31923   0.405   8.597   4.965 -0.1157  0.1145  0.1457
  978MOL0     C31924   0.508   8.668   5.046 -0.6314  1.6402 -1.0806
  978MOL0     O31925   0.482   8.795   5.096 -0.1489  0.3587 -0.3604
  978MOL0     C31926   0.565   8.849   5.190  0.2016  0.3314 -0.1368
  978MOL0     C31927   0.702   8.877   5.172  1.3038  1.3377  0.9948
  978MOL0     C31928   0.776   8.937   5.270 -0.7126 -0.5853  0.3410
  978MOL0     C31929   0.720   8.955   5.397 -1.4515 -0.2435 -0.6808
  978MOL0     O31930   0.782   9.008   5.508 -0.2319  0.1996 -0.5431
  978MOL0     C31931   0.876   9.117   5.477 -1.4407  0.1567 -0.1530
  978MOL0     C31932   1.009   9.058   5.428  0.1891  0.1232  0.2407
  978MOL0     C31933   1.056   8.937   5.485  0.4400  0.1755 -0.4118
  978MOL0     C31934   1.179   8.878   5.399 -0.0347 -0.8155 -0.1327
  978MOL0     C31935   1.315   8.945   5.443  0.7952 -0.6462  0.3463
  978MOL0     C31936   1.444   8.898   5.377 -0.0482 -0.4228 -1.0652
  978MOL0     C31937   1.474   8.751   5.404  0.5344  0.0167 -0.0969
  978MOL0     C31938   1.526   8.714   5.547 -1.0417 -0.3689  0.0652
  978MOL0    Cl31939   1.419   8.758   5.693 -0.2835  0.1252  0.0297
  978MOL0     C31940   0.589   8.928   5.421  0.5589  0.6862  0.8619
  978MOL0     C31941   0.500   8.883   5.322  0.2914 -1.0430  0.6340
  978MOL0     O31942   0.610   8.603   5.060 -0.3940  0.5093  0.1179
  978MOL0     C31943   0.289   8.664   4.917  0.1771  0.4290  0.0352
  978MOL0     C31944   0.199   8.599   4.832  0.1044  0.2869  0.5343
  978MOL0     N31945  -0.125   8.083   4.664 -0.6573 -0.3975  0.0573
  978MOL0     N31946  -0.245   8.039   4.650 -0.9959  0.0280  0.0471
  978MOL0     C31947   0.037   8.557   5.461  1.0800 -0.5970  0.3706
  978MOL0     C31948   0.173   8.566   5.463 -0.7389  1.1530 -0.0126
  978MOL0     C31949   0.602   8.423   5.448 -0.1885 -0.2327  0.1244
  978MOL0     C31950   0.670   8.527   5.371 -0.3922  0.1603 -0.5812
  978MOL0     C31951   0.812   8.547   5.386  0.2000 -0.1665 -0.1310
  978MOL0     C31952   0.893   8.459   5.458  0.0674 -1.1499 -0.5080
  978MOL0     O31953   1.021   8.503   5.449  0.6424  0.3809  0.1352
  978MOL0     C31954   1.099   8.499   5.573 -0.0945  0.3409 -0.2483
  978MOL0     C31955   1.233   8.425   5.559 -0.5038 -0.5045  0.2060
  978MOL0     C31956   1.238   8.296   5.473 -0.2984 -0.0851 -0.0599
  978MOL0     C31957   1.351   8.207   5.500 -0.5801 -0.0684  0.6622
  978MOL0     C31958   1.483   8.243   5.421  0.6565  0.1943 -0.3585
  978MOL0     C31959   1.593   8.259   5.373 -0.0694  0.0284  1.0531
  978MOL0     C31960   0.832   8.367   5.538 -0.8417  0.9552  0.0876
  978MOL0     C31961   0.686   8.341   5.529 -1.0048 -0.5776 -0.3249
  978MOL0     C31962   0.637   8.230   5.621 -0.6128 -0.2402 -0.2543
  978MOL0     H31963   0.237   8.344   5.213 -0.9739 -2.2422  0.7655
  978MOL0     H31964  -0.006   8.326   5.217  2.4270 -1.1648 -0.8397
  978MOL0     H31965  -0.364   8.446   5.320  0.2221 -0.7256  1.0702
  978MOL0     H31966  -0.233   8.415   5.196  1.2961 -1.0267 -0.0896
  978MOL0     H31967  -0.314   8.251   5.440 -1.3988 -2.3031 -0.3843
  978MOL0     H31968  -0.154   8.238   5.368  0.2502  0.5365 -3.0583
  978MOL0     H31969  -0.290   8.070   5.262  0.2511 -0.0100  2.1328
  978MOL0     H31970  -0.267   8.195   5.144  0.4018  5.0427  1.4843
  978MOL0     H31971  -0.527   8.141   5.297  0.0195 -0.7249 -0.0939
  978MOL0     H31972  -0.503   8.285   5.206  0.0705  0.7924 -2.6636
  978MOL0     H31973  -0.434   8.016   5.088 -0.9165 -0.6772 -1.1468
  978MOL0     H31974  -0.601   8.083   5.080  0.3672  1.7709 -1.9564
  978MOL0     H31975  -0.533   8.283   4.958  1.5978  2.4647 -1.8377
  978MOL0     H31976  -0.368   8.224   4.935  0.2856 -1.7444 -0.0718
  978MOL0     H31977  -0.546   8.200   4.761 -1.9804  0.6369  0.6829
  978MOL0     H31978  -0.629   8.092   4.873 -0.7876  1.0470 -0.0641
  978MOL0     H31979  -0.464   7.902   4.838  0.4934  0.1527  0.6844
  978MOL0     H31980  -0.490   7.967   4.681 -0.1948  0.5109  0.8986
  978MOL0     H31981  -0.223   8.020   4.976  0.4111 -1.8995  0.1265
  978MOL0     H31982   0.068   8.028   4.915  1.1992  1.1039  2.6086
  978MOL0     H31983   0.108   8.140   4.786  1.0534  1.1834  1.6846
  978MOL0     H31984  -0.028   8.195   5.049 -0.0723  1.7967  1.5923
  978MOL0     H31985   0.130   8.247   5.007 -1.0940  1.1705  0.5161
  978MOL0     H31986   0.018   8.449   4.955 -2.4055  0.8583  0.6215
  978MOL0     H31987  -0.132   8.371   4.919  0.1943  0.3896  1.9500
  978MOL0     H31988  -0.048   8.491   4.734 -0.9020 -1.0558  1.6132
  978MOL0     H31989  -0.048   8.325   4.685  0.3334 -0.8600  0.3044
  978MOL0     H31990   0.347   8.306   4.791 -2.4739 -0.2435 -0.2096
  978MOL0     H31991   0.508   8.419   4.959  0.4879  2.0325  0.3959
  978MOL0     H31992   0.751   8.845   5.081 -0.4314 -1.6074  0.9532
  978MOL0     H31993   0.869   8.977   5.230 -1.4640 -0.2286 -1.1455
  978MOL0     H31994   0.845   9.192   5.404 -2.0850  1.4165  1.3500
  978MOL0     H31995   0.900   9.171   5.569  0.2911 -0.8268  0.0205
  978MOL0     H31996   1.026   9.054   5.320 -1.6611 -3.8752 -0.0866
  978MOL0     H31997   1.085   9.130   5.461  0.5906  0.0825 -0.5807
  978MOL0     H31998   1.080   8.943   5.591 -1.5054 -1.1763  0.1682
  978MOL0     H31999   0.983   8.855   5.477 -1.2631  1.4103  1.4360
  978MOL0     H32000   1.167   8.886   5.291 -1.1323 -0.5917 -0.0076
  978MOL0     H32001   1.193   8.772   5.418  2.6083 -0.5980 -0.4474
  978MOL0     H32002   1.335   8.935   5.551  2.8060 -2.0828 -0.0890
  978MOL0     H32003   1.302   9.052   5.429  0.4582 -0.8375 -0.9107
  978MOL0     H32004   1.452   8.913   5.269  4.6422 -1.1243 -0.9971
  978MOL0     H32005   1.529   8.950   5.419 -0.2966 -0.4577 -0.5183
  978MOL0     H32006   1.550   8.707   5.339  0.9080 -2.1347  1.6912
  978MOL0     H32007   1.383   8.693   5.388 -0.2139  1.4024 -1.1024
  978MOL0     H32008   1.549   8.609   5.565 -1.7579  0.1191  5.8750
  978MOL0     H32009   1.623   8.764   5.560  0.3530 -3.2724  1.8474
  978MOL0     H32010   0.546   8.943   5.519 -4.4903 -0.9933 -0.8059
  978MOL0     H32011   0.393   8.867   5.332  0.4295 -2.4830  0.0692
  978MOL0     H32012   0.284   8.771   4.935 -1.6883  0.5862 -1.1304
  978MOL0     H32013   0.110   8.655   4.807  0.7236  0.5070 -1.3114
  978MOL0     H32014  -0.020   8.615   5.533 -1.9576 -0.7102 -1.7152
  978MOL0     H32015   0.219   8.625   5.542  1.2624  1.2627 -1.1715
  978MOL0     H32016   0.610   8.594   5.310  1.3587  0.4484 -2.0427
  978MOL0     H32017   0.860   8.629   5.333 -0.3557  0.1395 -0.1650
  978MOL0     H32018   1.050   8.445   5.654 -0.5441 -1.6990 -1.7870
  978MOL0     H32019   1.121   8.601   5.605  2.3944 -0.3238  0.3653
  978MOL0     H32020   1.263   8.419   5.665  2.3313 -0.3336 -0.4881
  978MOL0     H32021   1.299   8.495   5.507 -2.0460 -0.4699 -1.7748
  978MOL0     H32022   1.239   8.338   5.372 -1.3925 -1.2656 -0.5939
  978MOL0     H32023   1.147   8.235   5.483 -0.4482 -0.0791 -1.3225
  978MOL0     H32024   1.367   8.209   5.609 -0.7342  1.6773  0.6744
  978MOL0     H32025   1.320   8.103   5.483  2.1064 -1.1138  1.5977
  978MOL0     H32026   1.692   8.275   5.333 -0.2429 -2.1214 -0.3672
  978MOL0     H32027   0.882   8.303   5.610 -0.4495  0.9990 -0.1450
  978MOL0     H32028   0.588   8.288   5.700 -1.1434 -1.0773  0.0429
  978MOL0     H32029   0.560   8.165   5.577 -1.3701  0.3253  0.2045
  978MOL0     H32030   0.714   8.171   5.671  0.3186  3.1493  2.7087
  979MOL0     O32031   9.620   8.219  10.942 -0.9226 -0.3782 -0.3434
  979MOL0     C32032   9.601   8.290  11.044  1.2644  0.6505  0.4043
  979MOL0     O32033   9.703   8.348  11.121 -0.3190  0.6535  0.8587
  979MOL0     C32034   9.836   8.334  11.085  0.3898 -0.5108  0.1473
  979MOL0     C32035   9.890   8.321  10.951  0.2679 -0.7163 -1.1333
  979MOL0     C32036  10.026   8.337  10.934 -0.4288  0.0479  0.4000
  979MOL0     C32037  10.118   8.351  11.044 -0.2134 -0.2851  2.2673
  979MOL0     O32038  10.253   8.355  11.047 -1.1064 -0.2801  0.1568
  979MOL0     C32039  10.325   8.349  10.922 -0.4851  0.2799 -0.2629
  979MOL0     C32040  10.472   8.348  10.945 -0.3739 -0.6832 -1.5377
  979MOL0     C32041  10.545   8.342  10.808 -0.4590  0.3989 -0.1548
  979MOL0     C32042  10.696   8.346  10.845  0.4123  0.4433 -0.0729
  979MOL0     C32043  10.779   8.331  10.715 -0.0643  0.1078  0.0339
  979MOL0     C32044  10.782   8.192  10.653 -0.5478  1.0470 -0.4987
  979MOL0     C32045  10.866   8.193  10.528 -0.4436  0.3843  0.5624
  979MOL0     C32046  10.858   8.060  10.456  0.2116  0.1232  0.6005
  979MOL0     N32047  10.981   8.034  10.379  0.3062 -1.0127  1.1674
  979MOL0     C32048  11.104   8.000  10.432 -0.5570 -0.5374  0.3858
  979MOL0     C32049  11.181   7.991  10.322 -1.4142 -0.2863 -0.6265
  979MOL0     C32050  11.320   7.939  10.311 -1.5818 -0.6734 -0.3230
  979MOL0     C32051  11.415   8.026  10.231 -0.3452  0.7495 -0.0405
  979MOL0     C32052  11.561   7.997  10.276 -0.0643  0.3341  0.2412
  979MOL0     C32053  11.661   8.094  10.220  1.2188 -0.1827 -0.8019
  979MOL0     O32054  11.686   8.060  10.079 -0.2877 -0.3079  1.1137
  979MOL0     C32055  11.788   8.116  10.006 -0.1163 -0.6332  0.0167
  979MOL0     C32056  11.842   8.239  10.037 -0.6820  0.3527  0.3161
  979MOL0     C32057  11.920   8.297   9.936 -0.2141  0.0162 -0.5179
  979MOL0     C32058  11.952   8.233   9.818  0.5047  0.0868  0.4356
  979MOL0     C32059  12.039   8.296   9.720 -0.6210 -0.2230 -0.2812
  979MOL0     O32060  12.110   8.397   9.764  0.7332  0.0510 -0.1488
  979MOL0     C32061  12.194   8.468   9.682  0.0592 -0.5642  0.5364
  979MOL0     C32062  12.300   8.521   9.757  0.4726  1.4457  0.3450
  979MOL0     C32063  12.402   8.600   9.688 -0.0885 -0.2711  0.6463
  979MOL0     C32064  12.385   8.622   9.553  0.2636  0.2774  1.1479
  979MOL0     O32065  12.472   8.683   9.479  0.0192 -0.5089  0.5308
  979MOL0     C32066  12.610   8.710   9.519 -0.8884  1.2175  0.5014
  979MOL0     C32067  12.705   8.594   9.477 -0.9973  0.1548  0.5379
  979MOL0     C32068  12.839   8.599   9.558  0.4382 -1.1257 -0.5382
  979MOL0     C32069  12.941   8.709   9.516  0.5682 -0.1669 -1.0554
  979MOL0     C32070  13.079   8.684   9.584  0.4683  0.1174 -0.3397
  979MOL0     C32071  13.161   8.809   9.618 -0.7457  0.3771  0.0449
  979MOL0     C32072  13.301   8.782   9.685 -0.2705  0.0941 -0.3784
  979MOL0     C32073  13.411   8.727   9.593  0.3025  0.0755  1.4128
  979MOL0    Cl32074  13.507   8.865   9.534 -0.2745 -0.1154  0.1793
  979MOL0     C32075  12.277   8.582   9.480 -0.2914  1.0323  0.2560
  979MOL0     C32076  12.191   8.491   9.543  0.0974  0.4949 -0.4156
  979MOL0     O32077  12.054   8.245   9.608 -0.5931  0.3821 -0.6950
  979MOL0     C32078  11.909   8.109   9.800  1.1935  0.5582 -0.4064
  979MOL0     C32079  11.823   8.050   9.889  0.8823  0.1988 -0.0175
  979MOL0     N32080  11.119   8.030  10.215  0.4764  0.3864  1.1129
  979MOL0     N32081  11.001   8.062  10.249  0.3721  0.6782 -0.0229
  979MOL0     C32082  10.063   8.362  11.169  0.3293  0.1600  0.1893
  979MOL0     C32083   9.926   8.352  11.191 -0.3164  0.4562  0.4377
  979MOL0     C32084   9.451   8.334  11.064 -0.4427 -0.2778 -0.3949
  979MOL0     C32085   9.345   8.268  10.989 -1.1947  0.0534  0.4944
  979MOL0     C32086   9.209   8.292  11.009 -0.1798  0.0689 -0.7924
  979MOL0     C32087   9.173   8.385  11.103  0.0192  0.7892  0.6953
  979MOL0     O32088   9.041   8.404  11.130  0.2457 -0.4947  0.4240
  979MOL0     C32089   8.986   8.454  11.255  0.0274  0.2413 -0.2397
  979MOL0     C32090   8.826   8.438  11.256  0.1459 -0.0125 -0.0103
  979MOL0     C32091   8.783   8.296  11.222  0.2214 -0.3668  0.4671
  979MOL0     C32092   8.633   8.297  11.166  0.0715 -0.3183 -0.3528
  979MOL0     C32093   8.553   8.334  11.291  0.0720 -0.7318  0.6504
  979MOL0     C32094   8.480   8.380  11.377 -0.1166  1.1401 -1.2675
  979MOL0     C32095   9.272   8.457  11.168  0.2349  0.3590  0.2275
  979MOL0     C32096   9.415   8.437  11.152 -1.2046  0.2467 -0.0044
  979MOL0     C32097   9.507   8.545  11.211 -0.4087 -0.1870  0.3834
  979MOL0     H32098   9.810   8.313  10.878 -2.0545  0.5847  1.0986
  979MOL0     H32099  10.063   8.345  10.832  2.6980  1.1907  1.5244
  979MOL0     H32100  10.292   8.255  10.876 -0.5555  0.0160  0.3125
  979MOL0     H32101  10.295   8.424  10.849 -3.2915 -2.2783 -1.9916
  979MOL0     H32102  10.496   8.258  11.002  0.5564  0.5563  0.0962
  979MOL0     H32103  10.486   8.435  11.010  1.3702 -0.3625 -2.2790
  979MOL0     H32104  10.524   8.421  10.735 -0.6043 -2.0342 -2.9002
  979MOL0     H32105  10.527   8.245  10.761  0.4865  0.6199 -1.0040
  979MOL0     H32106  10.717   8.444  10.889 -1.5722  0.1725  1.6085
  979MOL0     H32107  10.719   8.266  10.916 -0.6194 -0.7482 -1.0402
  979MOL0     H32108  10.743   8.406  10.643 -1.1093  2.8253  3.1588
  979MOL0     H32109  10.879   8.361  10.747  0.1477 -1.9847  1.5056
  979MOL0     H32110  10.815   8.105  10.710  1.9256  3.2845  1.7415
  979MOL0     H32111  10.680   8.176  10.617 -0.8278  0.9037  0.3265
  979MOL0     H32112  10.968   8.223  10.551 -0.2673  0.5798 -0.4453
  979MOL0     H32113  10.826   8.272  10.464 -1.1757 -0.2858  0.1574
  979MOL0     H32114  10.854   7.980  10.530  2.7342 -1.0142 -0.3973
  979MOL0     H32115  10.766   8.049  10.398  0.6634  2.5880 -0.7148
  979MOL0     H32116  11.119   7.970  10.535  4.3863 -0.2050 -0.0280
  979MOL0     H32117  11.351   7.940  10.416  1.2221  1.0546 -1.0775
  979MOL0     H32118  11.326   7.837  10.274  0.6583 -0.4092 -0.7918
  979MOL0     H32119  11.408   7.988  10.128 -0.9646 -0.2166  0.3388
  979MOL0     H32120  11.402   8.131  10.256 -1.8508  0.1808  1.8376
  979MOL0     H32121  11.592   7.893  10.266  0.9271  0.5254  1.0613
  979MOL0     H32122  11.573   8.018  10.383  0.9636 -4.1650  1.2027
  979MOL0     H32123  11.754   8.091  10.277  1.4309 -1.7890 -1.1768
  979MOL0     H32124  11.620   8.195  10.233 -1.6942 -1.3751 -0.1431
  979MOL0     H32125  11.806   8.285  10.130 -0.7695  1.9589 -0.4683
  979MOL0     H32126  11.970   8.392   9.951  1.4314 -0.0148 -4.5572
  979MOL0     H32127  12.288   8.506   9.864 -0.8230  0.7303  0.1216
  979MOL0     H32128  12.481   8.629   9.756 -1.8320 -1.4842  3.3934
  979MOL0     H32129  12.639   8.796   9.457 -0.8400 -0.9205 -2.7146
  979MOL0     H32130  12.630   8.741   9.622  0.7594  2.6367 -0.1910
  979MOL0     H32131  12.660   8.495   9.480 -3.3998  1.0438 -1.9780
  979MOL0     H32132  12.732   8.601   9.372 -0.7645  0.6830  0.6301
  979MOL0     H32133  12.815   8.590   9.664 -2.5209 -0.0121 -1.0190
  979MOL0     H32134  12.888   8.502   9.547  2.3813 -0.3965  1.1545
  979MOL0     H32135  12.907   8.805   9.554 -1.5506 -1.2145 -0.1487
  979MOL0     H32136  12.940   8.721   9.407 -4.1372  2.7641 -0.9520
  979MOL0     H32137  13.127   8.612   9.516  0.1334  0.2867 -0.7620
  979MOL0     H32138  13.066   8.620   9.672  0.6110  1.2976  0.5581
  979MOL0     H32139  13.175   8.870   9.529  3.8024  1.2669  1.1403
  979MOL0     H32140  13.102   8.859   9.696 -1.0349 -2.3681  1.7446
  979MOL0     H32141  13.280   8.703   9.757 -1.5095 -1.2133 -2.0711
  979MOL0     H32142  13.330   8.876   9.731 -1.8746  2.3110 -3.5051
  979MOL0     H32143  13.473   8.648   9.636  1.2796 -1.0995 -1.8523
  979MOL0     H32144  13.367   8.676   9.507 -1.4688  0.4846  2.0436
  979MOL0     H32145  12.268   8.603   9.374 -0.0976  0.8302  0.1981
  979MOL0     H32146  12.100   8.463   9.491 -1.0532  3.2807 -0.1014
  979MOL0     H32147  11.938   8.056   9.710  2.6239  2.0641 -0.8710
  979MOL0     H32148  11.773   7.956   9.868  1.5231  0.0335 -0.8937
  979MOL0     H32149  10.129   8.390  11.250  0.7487  1.8564 -0.6935
  979MOL0     H32150   9.885   8.381  11.287 -2.0831  0.7906 -0.3803
  979MOL0     H32151   9.367   8.198  10.909  0.6625  0.3497  0.6952
  979MOL0     H32152   9.149   8.224  10.950 -0.4340 -1.7714  1.4516
  979MOL0     H32153   9.022   8.556  11.272  0.4232 -0.0346  0.6493
  979MOL0     H32154   9.013   8.396  11.343 -0.9255 -0.6539 -0.5105
  979MOL0     H32155   8.775   8.512  11.193 -0.5282  0.2105  0.7817
  979MOL0     H32156   8.806   8.459  11.362  1.5577 -5.0199  1.5130
  979MOL0     H32157   8.797   8.226  11.304  0.1883  1.7009  2.3309
  979MOL0     H32158   8.844   8.260  11.139  0.4969 -0.1528  0.5780
  979MOL0     H32159   8.620   8.377  11.093  0.8610  3.6065  3.3926
  979MOL0     H32160   8.597   8.201  11.126  0.4598 -0.6626  0.1066
  979MOL0     H32161   8.421   8.397  11.465 -2.1587 -1.6930 -1.9512
  979MOL0     H32162   9.244   8.532  11.242  0.2758 -1.5574  2.3144
  979MOL0     H32163   9.598   8.558  11.152 -0.1192  2.8579  1.3278
  979MOL0     H32164   9.449   8.638  11.222 -4.4811 -2.2563 -1.3273
  979MOL0     H32165   9.540   8.517  11.311  0.5471  2.7087  0.9775
  980MOL0     O32166   8.882   8.319   7.858  0.0834 -0.1323 -0.5637
  980MOL0     C32167   8.987   8.318   7.929  0.0053  0.4993 -0.4710
  980MOL0     O32168   9.054   8.425   7.968  0.9831 -0.6255  0.1688
  980MOL0     C32169   9.017   8.554   7.924  0.1564  0.1214 -1.0648
  980MOL0     C32170   8.928   8.634   8.000  0.5515 -0.0615 -0.9419
  980MOL0     C32171   8.907   8.765   7.964  0.0319 -0.4468 -0.7299
  980MOL0     C32172   8.965   8.832   7.862  0.5600  0.2376 -0.2769
  980MOL0     O32173   8.925   8.959   7.828 -0.4708 -0.0412 -0.6335
  980MOL0     C32174   8.909   9.056   7.936 -0.7179  0.3795  0.2023
  980MOL0     C32175   8.889   9.190   7.866 -0.4808  0.4674  0.0223
  980MOL0     C32176   8.764   9.205   7.803  0.2944  0.2561 -0.2036
  980MOL0     C32177   8.757   9.340   7.724 -0.3575 -0.0155 -0.2945
  980MOL0     C32178   8.619   9.372   7.666 -0.2542 -0.6215  0.5284
  980MOL0     C32179   8.612   9.498   7.588 -0.0075  0.0031 -0.5987
  980MOL0     C32180   8.623   9.483   7.433  0.3283  0.3780 -0.1530
  980MOL0     C32181   8.598   9.615   7.353  0.1023 -0.0332 -0.5242
  980MOL0     N32182   8.652   9.591   7.222 -1.1575 -0.8734  0.2089
  980MOL0     C32183   8.597   9.506   7.124 -0.6748 -0.1093 -0.1925
  980MOL0     C32184   8.673   9.536   7.016  0.5414 -0.8288  0.3216
  980MOL0     C32185   8.650   9.460   6.889  0.7919 -0.4749  0.0949
  980MOL0     C32186   8.771   9.458   6.791 -0.6333  0.1285  0.4577
  980MOL0     C32187   8.771   9.589   6.721 -0.1029 -0.5952  0.3107
  980MOL0     C32188   8.894   9.597   6.636  0.2815  0.2140  0.6517
  980MOL0     O32189   8.895   9.491   6.539  0.3505  0.5033  0.2143
  980MOL0     C32190   8.915   9.516   6.402  1.6561  0.1916  0.1722
  980MOL0     C32191   8.984   9.427   6.315  0.5491  0.1534  0.0024
  980MOL0     C32192   8.999   9.452   6.179  0.6940 -0.0104 -0.8659
  980MOL0     C32193   8.936   9.567   6.122  0.1340  0.4222 -0.4127
  980MOL0     C32194   8.945   9.587   5.979 -0.4388 -0.2990  0.1106
  980MOL0     O32195   9.066   9.552   5.920 -0.5700  0.3380  0.2895
  980MOL0     C32196   9.095   9.611   5.798  0.7783  1.1346  0.7804
  980MOL0     C32197   9.018   9.576   5.688  0.0867 -0.2451  0.8704
  980MOL0     C32198   9.061   9.634   5.563 -0.2036 -0.7921 -0.3597
  980MOL0     C32199   9.157   9.735   5.548  0.2862  0.0272 -0.6477
  980MOL0     O32200   9.180   9.780   5.421 -0.0092  0.1283 -0.4490
  980MOL0     C32201   9.257   9.901   5.397 -0.2560 -0.4009  0.4395
  980MOL0     C32202   9.393   9.870   5.337  0.0569 -0.2609  0.3742
  980MOL0     C32203   9.490   9.997   5.306  0.1153  1.1346  0.3652
  980MOL0     C32204   9.604   9.959   5.204 -0.1547  0.4518 -0.5010
  980MOL0     C32205   9.680  10.070   5.149 -1.0677 -0.7551  1.0749
  980MOL0     C32206   9.754  10.044   5.015  0.1038 -0.6049 -0.1301
  980MOL0     C32207   9.806  10.187   4.973 -0.2905 -0.0064  0.7243
  980MOL0     C32208   9.873  10.176   4.841  0.5378  0.9401  0.4694
  980MOL0    Cl32209   9.993  10.042   4.831  0.2428  0.0265 -0.7460
  980MOL0     C32210   9.214   9.774   5.666  0.1970 -0.4771  0.0318
  980MOL0     C32211   9.190   9.716   5.790  0.9080 -0.3012 -0.2975
  980MOL0     O32212   8.865   9.668   5.931 -0.5123 -0.7459 -0.1166
  980MOL0     C32213   8.849   9.644   6.208 -0.9015 -0.3254 -0.4797
  980MOL0     C32214   8.846   9.624   6.346 -0.7671  0.0771  0.2391
  980MOL0     N32215   8.776   9.632   7.042 -0.2097  0.7049 -0.0675
  980MOL0     N32216   8.754   9.668   7.173 -0.2888  1.0820 -0.3999
  980MOL0     C32217   9.048   8.748   7.787  0.8909 -0.2028 -0.6621
  980MOL0     C32218   9.060   8.612   7.809 -1.1255 -1.0188  0.1491
  980MOL0     C32219   9.050   8.189   7.951 -0.8021 -0.0733 -0.4006
  980MOL0     C32220   9.191   8.197   7.961 -0.3033  0.0202  0.6084
  980MOL0     C32221   9.263   8.083   8.002  0.1546 -0.3596 -0.1562
  980MOL0     C32222   9.204   7.963   8.025 -0.2595  0.3904 -0.8203
  980MOL0     O32223   9.268   7.855   8.087  0.3387 -0.2867 -0.0898
  980MOL0     C32224   9.221   7.805   8.216  1.0895 -0.5686  0.7162
  980MOL0     C32225   9.278   7.895   8.334  0.9551  0.0360  0.8778
  980MOL0     C32226   9.436   7.884   8.338  0.0752  0.5843  0.1771
  980MOL0     C32227   9.505   8.021   8.345  0.2051  0.6765  0.6588
  980MOL0     C32228   9.450   8.111   8.444 -0.2195  0.6055 -0.3032
  980MOL0     C32229   9.408   8.198   8.514 -0.8347  0.1132 -0.3263
  980MOL0     C32230   9.073   7.950   8.003  0.1196  0.5697 -1.0067
  980MOL0     C32231   8.995   8.058   7.966  0.4453 -0.1645 -0.4740
  980MOL0     C32232   8.853   8.026   7.932 -0.1739 -0.3588 -0.2676
  980MOL0     H32233   8.872   8.598   8.086  1.9716  0.5158  0.2681
  980MOL0     H32234   8.834   8.830   8.011  0.4002  0.3741 -1.2802
  980MOL0     H32235   8.819   9.042   7.998 -1.7239  2.1753 -0.7756
  980MOL0     H32236   9.003   9.061   7.992  0.7702  3.4339 -2.2540
  980MOL0     H32237   8.973   9.192   7.796  0.2041  0.0889  0.8240
  980MOL0     H32238   8.888   9.280   7.929 -1.0793 -0.0688  0.7992
  980MOL0     H32239   8.676   9.202   7.868  0.1077 -0.3434 -0.4740
  980MOL0     H32240   8.733   9.123   7.737 -2.7694 -1.3393  2.8922
  980MOL0     H32241   8.768   9.417   7.801 -2.3993 -0.6753  0.7099
  980MOL0     H32242   8.824   9.348   7.637 -1.9576 -1.0327 -1.6947
  980MOL0     H32243   8.600   9.285   7.602 -1.7986 -1.8078  2.4503
  980MOL0     H32244   8.542   9.363   7.743 -0.8728 -1.9398 -0.2125
  980MOL0     H32245   8.527   9.556   7.623  0.0428  1.8143 -3.2465
  980MOL0     H32246   8.699   9.556   7.621 -0.0091 -0.2535 -0.1375
  980MOL0     H32247   8.562   9.405   7.386  1.8809  0.7704 -3.0493
  980MOL0     H32248   8.728   9.454   7.425 -0.3097 -1.5483 -2.8456
  980MOL0     H32249   8.489   9.627   7.348 -0.3896 -3.2002  0.2717
  980MOL0     H32250   8.653   9.700   7.395  3.2162 -0.5149 -3.1862
  980MOL0     H32251   8.515   9.437   7.140 -0.8457  0.3908  1.2141
  980MOL0     H32252   8.628   9.353   6.896 -1.3590 -0.1464 -0.9419
  980MOL0     H32253   8.564   9.509   6.842  1.7290 -0.0711 -1.2604
  980MOL0     H32254   8.862   9.456   6.853 -0.1251 -1.4401 -0.2789
  980MOL0     H32255   8.767   9.373   6.723  0.2857 -1.2152  2.0138
  980MOL0     H32256   8.789   9.671   6.791  0.6070 -0.0821 -0.4556
  980MOL0     H32257   8.679   9.605   6.665  0.4639  1.6688 -0.0838
  980MOL0     H32258   8.982   9.593   6.701  1.4694 -2.2544 -0.9144
  980MOL0     H32259   8.905   9.693   6.585  2.2933 -0.5829 -0.5577
  980MOL0     H32260   9.027   9.335   6.353 -3.6957 -1.2966  1.9501
  980MOL0     H32261   9.064   9.396   6.112  0.2278  1.8892 -3.0296
  980MOL0     H32262   8.941   9.500   5.682 -0.9978  0.9131 -0.5495
  980MOL0     H32263   9.015   9.608   5.468  1.6196 -0.4809 -1.3554
  980MOL0     H32264   9.204   9.957   5.318  0.3105 -0.3895  0.0664
  980MOL0     H32265   9.251   9.967   5.484 -1.5234 -0.0360  0.1106
  980MOL0     H32266   9.439   9.786   5.389  1.2762  0.3896  0.3646
  980MOL0     H32267   9.378   9.825   5.239  2.9095 -0.4890 -0.0463
  980MOL0     H32268   9.437  10.080   5.259  1.1042  0.8031 -1.4304
  980MOL0     H32269   9.528  10.029   5.403 -2.4282 -0.2791  1.9340
  980MOL0     H32270   9.564   9.906   5.117  0.9592  0.9213 -1.3289
  980MOL0     H32271   9.673   9.892   5.257 -0.2112 -1.6958 -2.9437
  980MOL0     H32272   9.754  10.094   5.225 -0.4153  0.0137  0.2273
  980MOL0     H32273   9.608  10.150   5.130 -0.9529 -0.7629  0.5843
  980MOL0     H32274   9.840   9.980   5.036  0.7153  0.9058  2.4036
  980MOL0     H32275   9.681  10.006   4.942 -0.2785 -0.1818  0.0275
  980MOL0     H32276   9.876  10.217   5.052 -0.2220  1.0846  0.2579
  980MOL0     H32277   9.721  10.255   4.979  0.2908  0.7359  0.8326
  980MOL0     H32278   9.807  10.172   4.754  3.4179 -1.4639 -1.8502
  980MOL0     H32279   9.922  10.272   4.820  2.0618 -0.1047 -0.9975
  980MOL0     H32280   9.277   9.862   5.665  1.3129 -1.1638  2.3216
  980MOL0     H32281   9.225   9.758   5.883 -0.2923 -0.2389  0.1474
  980MOL0     H32282   8.796   9.735   6.182  0.3474 -0.0689 -2.3212
  980MOL0     H32283   8.773   9.686   6.399 -2.0885 -0.6233 -0.7048
  980MOL0     H32284   9.097   8.801   7.706  0.9431 -0.4218 -0.7741
  980MOL0     H32285   9.116   8.544   7.745  2.2219 -1.4168  3.1639
  980MOL0     H32286   9.255   8.283   7.944  2.9169 -2.2864  0.1469
  980MOL0     H32287   9.369   8.082   8.021  0.2171  1.5134 -0.2526
  980MOL0     H32288   9.271   7.709   8.233  0.8562 -0.6579  0.8956
  980MOL0     H32289   9.112   7.796   8.214  0.8488  1.7609  0.8241
  980MOL0     H32290   9.242   7.855   8.429 -4.1424  1.1820 -0.2796
  980MOL0     H32291   9.243   7.998   8.333  0.7389  0.0503  3.5505
  980MOL0     H32292   9.473   7.820   8.257  0.0056 -0.3640  0.8874
  980MOL0     H32293   9.460   7.832   8.431  0.8713 -1.5112 -1.1464
  980MOL0     H32294   9.611   8.003   8.369 -0.1276 -1.7628  0.5658
  980MOL0     H32295   9.505   8.065   8.245  2.3354 -1.2680 -0.2900
  980MOL0     H32296   9.353   8.255   8.585  0.8235 -1.0313  2.0395
  980MOL0     H32297   9.024   7.854   8.009 -2.0827  1.7055  0.4838
  980MOL0     H32298   8.822   7.922   7.949 -2.6916  0.1727 -1.0840
  980MOL0     H32299   8.784   8.082   7.996 -0.6492 -1.5926  0.3403
  980MOL0     H32300   8.835   8.044   7.826 -0.2501  0.5034 -0.1162
  981MOL0     O32301   2.591  11.142   8.193  0.1213 -0.3847 -0.0286
  981MOL0     C32302   2.596  11.195   8.297 -0.7187  0.2963  0.4399
  981MOL0     O32303   2.668  11.150   8.407  0.5758 -0.6489  0.7253
  981MOL0     C32304   2.720  11.022   8.394  0.1887  0.2041  0.7457
  981MOL0     C32305   2.641  10.918   8.450  0.5010  0.4075  0.4634
  981MOL0     C32306   2.670  10.788   8.422 -0.3994 -0.1301 -0.0687
  981MOL0     C32307   2.790  10.757   8.359 -1.1770 -0.4871 -0.0769
  981MOL0     O32308   2.803  10.616   8.345 -0.1442  0.0752  0.2501
  981MOL0     C32309   2.879  10.569   8.224  0.0339 -0.0727  0.6425
  981MOL0     C32310   3.035  10.569   8.240  0.5490  0.4112 -0.0972
  981MOL0     C32311   3.070  10.470   8.343 -0.6248  0.6332  0.2353
  981MOL0     C32312   3.214  10.426   8.343 -0.1199  0.3564  0.1055
  981MOL0     C32313   3.233  10.321   8.238  0.6740 -0.3511  0.1510
  981MOL0     C32314   3.363  10.261   8.275 -0.4908  0.2480  0.4547
  981MOL0     C32315   3.419  10.184   8.150  0.4880 -0.2670  0.5772
  981MOL0     C32316   3.555  10.103   8.176 -0.3605  0.5163 -0.7228
  981MOL0     N32317   3.581  10.007   8.063  0.4193  0.2372  0.1101
  981MOL0     C32318   3.627  10.031   7.929 -0.2114  0.3377  0.5827
  981MOL0     C32319   3.652   9.907   7.887  0.0642  0.2782  0.6617
  981MOL0     C32320   3.697   9.865   7.751  0.0500 -0.3560 -0.3508
  981MOL0     C32321   3.853   9.842   7.740  0.3383 -0.5778 -0.1547
  981MOL0     C32322   3.893   9.811   7.601  0.5758  0.3319 -0.1423
  981MOL0     C32323   3.852   9.673   7.549 -0.8402 -0.4284  0.5136
  981MOL0     O32324   3.937   9.644   7.436 -0.2383  0.0291 -0.6565
  981MOL0     C32325   3.939   9.517   7.389 -0.7921  0.3832  0.7410
  981MOL0     C32326   4.038   9.483   7.302  0.5155  0.1812 -0.2659
  981MOL0     C32327   4.046   9.364   7.238 -0.0635 -0.1895  0.5401
  981MOL0     C32328   3.960   9.259   7.264  0.2854 -1.2788 -0.6422
  981MOL0     C32329   3.986   9.126   7.211  0.4231 -0.8372 -0.5629
  981MOL0     O32330   3.898   9.025   7.229 -0.5736 -0.1088  0.8468
  981MOL0     C32331   3.931   8.902   7.180 -0.3290  0.5543  0.7400
  981MOL0     C32332   4.047   8.829   7.197 -0.2647 -0.4784 -0.5158
  981MOL0     C32333   4.068   8.702   7.136  0.0494 -0.4093  0.3284
  981MOL0     C32334   3.972   8.640   7.056  1.7094 -0.0148 -0.9103
  981MOL0     O32335   4.011   8.516   7.009 -0.3782  0.1073  0.3637
  981MOL0     C32336   3.933   8.444   6.916  1.0629 -0.5086 -0.0307
  981MOL0     C32337   3.961   8.479   6.766 -0.0665 -0.6830 -0.2702
  981MOL0     C32338   3.918   8.367   6.677 -0.1888  0.1882  0.8145
  981MOL0     C32339   3.844   8.430   6.559  0.2304  0.4118  0.5707
  981MOL0     C32340   3.822   8.311   6.455 -0.3409 -0.3609 -0.4243
  981MOL0     C32341   3.740   8.340   6.325 -0.3089  0.7355 -0.0328
  981MOL0     C32342   3.612   8.426   6.339 -0.3985 -0.4782 -0.5845
  981MOL0     C32343   3.516   8.384   6.227 -0.6293 -0.2272  0.0208
  981MOL0    Cl32344   3.367   8.484   6.243 -0.2377  0.0105  1.1812
  981MOL0     C32345   3.848   8.716   7.037  0.2487 -0.0028 -0.1321
  981MOL0     C32346   3.829   8.838   7.110  0.2457  0.6173 -0.5216
  981MOL0     O32347   4.079   9.112   7.130  0.2842 -0.5767 -0.2538
  981MOL0     C32348   3.865   9.278   7.364 -0.2081  0.4453 -0.5151
  981MOL0     C32349   3.847   9.406   7.412  0.3498 -0.6892  0.3650
  981MOL0     N32350   3.631   9.815   7.987 -0.1636  0.6351  0.0856
  981MOL0     N32351   3.600   9.877   8.090  0.5049 -0.0559 -0.1262
  981MOL0     C32352   2.874  10.861   8.308 -0.5586 -0.4258  0.4203
  981MOL0     C32353   2.833  10.997   8.322 -0.4396 -0.1833  0.1127
  981MOL0     C32354   2.553  11.334   8.293 -0.6445 -0.6051  0.0502
  981MOL0     C32355   2.608  11.414   8.410 -0.9331  0.4010  1.6995
  981MOL0     C32356   2.575  11.545   8.420 -0.3024  0.3785 -0.5620
  981MOL0     C32357   2.483  11.607   8.339  0.0312 -0.6228 -0.3912
  981MOL0     O32358   2.444  11.735   8.367  0.2488  0.9970 -0.8279
  981MOL0     C32359   2.545  11.826   8.420  0.0767 -0.2445 -0.6895
  981MOL0     C32360   2.674  11.827   8.332 -0.1267 -0.9826 -0.6863
  981MOL0     C32361   2.653  11.837   8.177 -0.9202 -0.7554 -0.9207
  981MOL0     C32362   2.772  11.922   8.126 -0.4728  0.6356  0.7044
  981MOL0     C32363   2.899  11.869   8.157 -0.6741  0.0228  0.9045
  981MOL0     C32364   3.014  11.844   8.195  0.3706  1.3384 -0.1161
  981MOL0     C32365   2.432  11.538   8.233  0.5008  0.2701  0.1261
  981MOL0     C32366   2.462  11.400   8.211  0.1061 -0.2147  0.2857
  981MOL0     C32367   2.380  11.328   8.104 -0.4320 -0.3709  0.5452
  981MOL0     H32368   2.543  10.952   8.483 -1.2691 -3.7647  0.0619
  981MOL0     H32369   2.593  10.711   8.424 -0.8972  0.3384 -0.7365
  981MOL0     H32370   2.843  10.468   8.204 -2.0585  0.0422  3.3063
  981MOL0     H32371   2.852  10.633   8.139  0.1324  0.6308  1.1332
  981MOL0     H32372   3.084  10.664   8.264  3.0816 -0.4312 -1.5778
  981MOL0     H32373   3.076  10.546   8.141 -0.4883  0.5817 -0.5885
  981MOL0     H32374   3.000  10.385   8.339 -2.7298  2.1883  1.9374
  981MOL0     H32375   3.065  10.520   8.441  2.1665  0.5065  0.5239
  981MOL0     H32376   3.281  10.512   8.332  1.8350 -1.0241  0.6627
  981MOL0     H32377   3.238  10.387   8.442  0.1439  1.6266  0.5659
  981MOL0     H32378   3.147  10.254   8.237 -1.6391  2.3935 -0.6433
  981MOL0     H32379   3.244  10.376   8.144 -1.0882 -0.6558 -0.2651
  981MOL0     H32380   3.428  10.337   8.319 -1.6967  1.6625 -0.1496
  981MOL0     H32381   3.359  10.189   8.358 -2.8742 -0.0287  0.1764
  981MOL0     H32382   3.453  10.255   8.075  2.5513  0.2977  1.9458
  981MOL0     H32383   3.348  10.113   8.105 -0.1437  1.4059 -1.1896
  981MOL0     H32384   3.637  10.175   8.181  0.9529 -0.9975  0.3028
  981MOL0     H32385   3.543  10.051   8.271 -0.3106  1.8433  0.0363
  981MOL0     H32386   3.647  10.125   7.879 -1.5760 -0.0080 -0.7061
  981MOL0     H32387   3.633   9.780   7.730 -2.0677  0.3960  2.3876
  981MOL0     H32388   3.671   9.941   7.677  1.7107  0.4713 -0.1439
  981MOL0     H32389   3.907   9.934   7.766 -1.3032  1.1251 -2.4125
  981MOL0     H32390   3.872   9.766   7.816 -0.7669  0.4879  1.2639
  981MOL0     H32391   4.002   9.808   7.604  0.6397 -0.2553 -1.9358
  981MOL0     H32392   3.863   9.895   7.538  0.5865  0.9915  0.7132
  981MOL0     H32393   3.753   9.677   7.503 -0.5748 -2.6157 -0.3770
  981MOL0     H32394   3.867   9.594   7.625 -0.5925 -0.9778 -0.0968
  981MOL0     H32395   4.114   9.558   7.284 -0.2417  0.9374 -0.3517
  981MOL0     H32396   4.122   9.355   7.161 -1.3346  2.6846 -1.2154
  981MOL0     H32397   4.125   8.880   7.252 -1.0778  0.9012 -0.6078
  981MOL0     H32398   4.163   8.653   7.156 -0.5703 -2.7047 -1.8360
  981MOL0     H32399   3.970   8.343   6.937  2.2419 -0.1749 -0.4367
  981MOL0     H32400   3.826   8.437   6.941  0.7766  1.9846 -0.2647
  981MOL0     H32401   3.910   8.571   6.734 -1.1102 -1.0643  0.2901
  981MOL0     H32402   4.070   8.485   6.750  0.3040  2.0214  2.3707
  981MOL0     H32403   4.002   8.304   6.646 -2.7201 -3.2694  0.4942
  981MOL0     H32404   3.850   8.303   6.734 -0.9684  2.2090  2.2954
  981MOL0     H32405   3.907   8.509   6.517 -2.3825  1.6754 -1.2351
  981MOL0     H32406   3.751   8.470   6.600 -0.5010 -1.1942  0.5548
  981MOL0     H32407   3.767   8.236   6.512 -0.6933  0.6071  0.5479
  981MOL0     H32408   3.920   8.267   6.432 -0.2315  0.4011 -1.5118
  981MOL0     H32409   3.799   8.410   6.265 -1.7922  2.2201  0.1663
  981MOL0     H32410   3.736   8.251   6.263  3.0516  1.3481 -1.3151
  981MOL0     H32411   3.640   8.531   6.340  0.7322 -0.7695  0.1543
  981MOL0     H32412   3.568   8.398   6.435 -0.3313 -3.3402 -1.2932
  981MOL0     H32413   3.564   8.406   6.131 -0.3335 -0.5516  0.0943
  981MOL0     H32414   3.487   8.280   6.238 -3.2286  0.5921  1.8814
  981MOL0     H32415   3.773   8.674   6.970  0.3704 -4.5865  2.2446
  981MOL0     H32416   3.734   8.890   7.117  0.6135  1.2805 -0.3773
  981MOL0     H32417   3.791   9.204   7.390  0.8312 -0.9895 -1.5312
  981MOL0     H32418   3.765   9.419   7.482  2.6928 -0.0019  3.1163
  981MOL0     H32419   2.971  10.837   8.265 -0.1807 -2.0457  2.0277
  981MOL0     H32420   2.892  11.082   8.288 -2.1309  2.1016  2.5016
  981MOL0     H32421   2.679  11.377   8.483  0.6062  0.1909  0.1374
  981MOL0     H32422   2.618  11.593   8.507 -0.9187 -1.0219  0.5531
  981MOL0     H32423   2.559  11.802   8.526 -2.0658 -2.9156 -0.8899
  981MOL0     H32424   2.511  11.930   8.418  1.3091  0.1618 -2.6096
  981MOL0     H32425   2.733  11.740   8.361  3.3617  1.2074 -0.6770
  981MOL0     H32426   2.725  11.912   8.378 -3.9415 -0.1337  2.5804
  981MOL0     H32427   2.557  11.883   8.153 -0.1475  1.2052 -0.4938
  981MOL0     H32428   2.652  11.735   8.139  0.8846 -0.8786 -0.7108
  981MOL0     H32429   2.769  11.935   8.018  2.1245  0.5329  0.5777
  981MOL0     H32430   2.764  12.023   8.169 -3.3586  0.3195  1.1477
  981MOL0     H32431   3.109  11.803   8.223 -0.2650 -0.4689 -0.4923
  981MOL0     H32432   2.373  11.602   8.168  1.5853  0.3184 -0.8417
  981MOL0     H32433   2.339  11.233   8.140 -1.2001  0.2690  1.4000
  981MOL0     H32434   2.293  11.382   8.066 -1.6668 -1.8588  1.1465
  981MOL0     H32435   2.448  11.302   8.022  1.2838  0.8677  1.5285
  982MOL0     O32436   3.104   4.341   2.910 -0.3095  0.1013  0.4069
  982MOL0     C32437   3.010   4.315   2.977 -0.4323 -0.0125  0.3166
  982MOL0     O32438   2.950   4.393   3.066 -0.4148 -0.9367 -0.4983
  982MOL0     C32439   3.003   4.522   3.071 -0.4562 -0.4159 -1.4671
  982MOL0     C32440   2.923   4.631   3.038 -0.7611  1.3380 -0.5540
  982MOL0     C32441   2.970   4.762   3.046 -0.8443 -0.2961 -0.6332
  982MOL0     C32442   3.097   4.788   3.103 -0.5673  0.0521 -0.2275
  982MOL0     O32443   3.145   4.919   3.115 -0.5996  0.0152  0.8314
  982MOL0     C32444   3.088   5.009   3.013  0.1325 -0.1898  0.7588
  982MOL0     C32445   3.188   5.121   2.977  0.7312 -0.1725  0.7006
  982MOL0     C32446   3.323   5.074   2.936 -0.3961 -0.0253 -0.5793
  982MOL0     C32447   3.437   5.182   2.947 -0.5861 -0.2111 -0.0288
  982MOL0     C32448   3.582   5.117   2.965  0.8195  0.4727  0.6197
  982MOL0     C32449   3.686   5.232   2.934  0.5288 -0.5777  0.6687
  982MOL0     C32450   3.823   5.169   2.941  0.8083 -0.2168  0.4095
  982MOL0     C32451   3.865   5.115   3.077 -0.0906  0.2573  0.3641
  982MOL0     N32452   3.883   5.222   3.173 -0.8819  0.7195 -0.6261
  982MOL0     C32453   3.996   5.299   3.195 -0.0085 -0.1661 -0.1380
  982MOL0     C32454   3.972   5.356   3.317  0.1390  0.3516 -0.1022
  982MOL0     C32455   4.060   5.461   3.364 -1.0622  0.2460  0.1500
  982MOL0     C32456   4.026   5.602   3.330 -0.1181 -0.0999 -0.0065
  982MOL0     C32457   4.141   5.700   3.356 -0.0421 -0.9838  0.0231
  982MOL0     C32458   4.081   5.845   3.383 -0.1744 -0.0471  0.8218
  982MOL0     O32459   3.966   5.872   3.300  0.4889 -0.3665 -0.6832
  982MOL0     C32460   3.885   5.982   3.337 -0.7430 -1.7221 -0.8655
  982MOL0     C32461   3.754   5.961   3.395  0.4113 -0.4662  0.1140
  982MOL0     C32462   3.682   6.084   3.422 -0.0932 -0.4564  0.4846
  982MOL0     C32463   3.736   6.214   3.414  0.0530  0.6988  0.0018
  982MOL0     C32464   3.659   6.327   3.476  0.3605  0.7318  1.5940
  982MOL0     O32465   3.717   6.456   3.466  0.5392 -0.3535  0.2996
  982MOL0     C32466   3.668   6.573   3.508 -0.9125  0.1492 -0.9432
  982MOL0     C32467   3.540   6.625   3.505  0.4327  0.5464 -0.1115
  982MOL0     C32468   3.502   6.744   3.563 -0.8805  0.2797  0.3041
  982MOL0     C32469   3.595   6.809   3.638  0.6108  0.1066  0.7199
  982MOL0     O32470   3.554   6.927   3.683 -0.7964  0.3129 -0.4505
  982MOL0     C32471   3.614   6.955   3.809 -0.3019 -0.7198 -0.1761
  982MOL0     C32472   3.543   7.079   3.866 -0.8878 -0.6538 -0.0871
  982MOL0     C32473   3.604   7.130   3.995 -0.6040 -1.1830 -1.1479
  982MOL0     C32474   3.566   7.282   4.018 -0.1399  0.0669  0.2003
  982MOL0     C32475   3.661   7.359   4.114  0.0909 -0.6141  0.4777
  982MOL0     C32476   3.632   7.508   4.113  0.5145 -0.5163  1.2532
  982MOL0     C32477   3.709   7.580   4.223 -0.4866 -0.8003 -0.4331
  982MOL0     C32478   3.682   7.726   4.232 -0.9353  0.0479  0.0894
  982MOL0    Cl32479   3.761   7.829   4.111 -0.3350  0.0110 -0.2451
  982MOL0     C32480   3.732   6.765   3.642 -0.1943  1.2486  0.0404
  982MOL0     C32481   3.765   6.642   3.588 -0.7715  0.1738 -0.7324
  982MOL0     O32482   3.550   6.297   3.520  0.0068 -0.4982 -0.1172
  982MOL0     C32483   3.864   6.234   3.373  0.2450  0.4345  0.3515
  982MOL0     C32484   3.930   6.118   3.320  0.5757  0.1608  0.3807
  982MOL0     N32485   3.844   5.323   3.349 -0.1984 -0.7641 -0.8682
  982MOL0     N32486   3.786   5.250   3.264  0.1216  0.3218 -0.1595
  982MOL0     C32487   3.195   4.680   3.124  0.3122 -0.5303 -0.6393
  982MOL0     C32488   3.134   4.550   3.115 -0.4771  0.6920  0.3611
  982MOL0     C32489   2.953   4.182   2.968 -1.0597  0.7528 -0.1541
  982MOL0     C32490   2.869   4.150   3.075  0.2953 -0.7314 -0.3840
  982MOL0     C32491   2.821   4.023   3.094  0.1087 -0.5407 -0.0037
  982MOL0     C32492   2.834   3.924   2.989 -0.0878 -0.0449 -0.7184
  982MOL0     O32493   2.767   3.807   3.005  0.0599  0.7402  0.1503
  982MOL0     C32494   2.796   3.692   2.921 -0.9080 -0.0542 -0.5362
  982MOL0     C32495   2.726   3.680   2.795 -0.3777 -0.2226  0.0674
  982MOL0     C32496   2.578   3.650   2.811 -0.2331  0.2533  0.4320
  982MOL0     C32497   2.528   3.560   2.701 -0.8106  0.0757 -0.5218
  982MOL0     C32498   2.380   3.557   2.705  0.1157 -0.2950 -0.5735
  982MOL0     C32499   2.260   3.533   2.714  0.4759  0.2021 -0.7530
  982MOL0     C32500   2.913   3.955   2.879 -0.3288 -0.1859 -0.5424
  982MOL0     C32501   2.978   4.080   2.871 -1.8391  0.3511  0.2720
  982MOL0     C32502   3.067   4.101   2.752 -0.2140  0.2301  0.3806
  982MOL0     H32503   2.825   4.605   3.002 -0.5245  0.5197 -0.6241
  982MOL0     H32504   2.893   4.835   3.023  0.1569  0.9827 -0.0624
  982MOL0     H32505   3.070   4.950   2.923 -0.5522  1.1213  0.0175
  982MOL0     H32506   2.992   5.052   3.041 -0.1276  0.0098 -0.3876
  982MOL0     H32507   3.196   5.183   3.066  0.1123 -0.0270  0.6584
  982MOL0     H32508   3.140   5.175   2.895 -0.9347  0.3526  1.9699
  982MOL0     H32509   3.329   5.026   2.838  0.0615 -3.0360  0.7815
  982MOL0     H32510   3.359   4.995   3.004  5.3670  1.6034 -1.2022
  982MOL0     H32511   3.440   5.245   2.857  0.0660  0.3836  0.3996
  982MOL0     H32512   3.408   5.238   3.036 -1.1294 -0.6472  0.0718
  982MOL0     H32513   3.602   5.079   3.066 -3.7306  0.6678  1.8241
  982MOL0     H32514   3.586   5.045   2.882 -0.6470 -2.2587  2.7556
  982MOL0     H32515   3.671   5.272   2.833 -1.7279 -3.3062 -0.2349
  982MOL0     H32516   3.679   5.314   3.005 -0.2344 -0.8638  0.9323
  982MOL0     H32517   3.888   5.249   2.906 -0.5883  1.7761  2.1191
  982MOL0     H32518   3.833   5.079   2.878  2.9087 -1.0112  1.7819
  982MOL0     H32519   3.796   5.040   3.116  2.6026 -2.5995 -0.0510
  982MOL0     H32520   3.957   5.058   3.062  0.5346  0.5415  2.6975
  982MOL0     H32521   4.076   5.300   3.122  0.6245 -2.5163  0.4456
  982MOL0     H32522   4.047   5.454   3.473 -1.7324  0.7324  0.1086
  982MOL0     H32523   4.162   5.439   3.332  0.1284  2.2956  2.1634
  982MOL0     H32524   3.996   5.606   3.225 -0.4047  2.0434  0.0998
  982MOL0     H32525   3.947   5.636   3.397 -1.0510 -0.6263 -0.8046
  982MOL0     H32526   4.220   5.707   3.281 -1.0663  1.8507 -0.9316
  982MOL0     H32527   4.191   5.667   3.448 -0.2418  0.0741  0.5356
  982MOL0     H32528   4.153   5.927   3.373  1.0785 -1.2753 -0.6243
  982MOL0     H32529   4.053   5.852   3.489  0.3517  0.4128  0.9366
  982MOL0     H32530   3.713   5.861   3.408 -0.9686 -0.1379 -1.4300
  982MOL0     H32531   3.579   6.074   3.453 -0.7947  1.4525 -1.0446
  982MOL0     H32532   3.464   6.565   3.454  2.5662 -2.4424 -0.0754
  982MOL0     H32533   3.402   6.776   3.537 -0.8808 -0.7964 -1.1199
  982MOL0     H32534   3.596   6.875   3.881  0.1847  1.8662  3.0529
  982MOL0     H32535   3.721   6.981   3.815  0.7604 -4.4834 -0.4677
  982MOL0     H32536   3.529   7.155   3.789 -1.9148 -1.3747 -0.6359
  982MOL0     H32537   3.440   7.046   3.883 -2.2537  2.1202 -2.2524
  982MOL0     H32538   3.571   7.063   4.076 -0.0067 -3.3448 -2.6017
  982MOL0     H32539   3.712   7.118   4.005 -0.5115 -0.4884 -1.2782
  982MOL0     H32540   3.465   7.294   4.058 -0.0196  1.6128  0.0697
  982MOL0     H32541   3.565   7.333   3.922 -2.5266 -0.5312 -0.1408
  982MOL0     H32542   3.765   7.358   4.082  0.1172  1.3904  0.3954
  982MOL0     H32543   3.658   7.313   4.214 -0.7219  0.5948  1.0365
  982MOL0     H32544   3.657   7.560   4.020  4.2849  0.8176  2.7959
  982MOL0     H32545   3.523   7.515   4.117  0.4344 -0.6902 -0.2018
  982MOL0     H32546   3.815   7.554   4.213 -0.5135 -1.3093  0.4600
  982MOL0     H32547   3.675   7.539   4.319  1.2648  1.2301  1.1615
  982MOL0     H32548   3.574   7.736   4.216 -0.8393 -0.6049 -1.1012
  982MOL0     H32549   3.717   7.755   4.332  1.4821  0.0688 -0.7062
  982MOL0     H32550   3.821   6.825   3.659  1.9361 -1.0866 -1.9908
  982MOL0     H32551   3.866   6.604   3.606 -0.3091  1.3980 -0.6759
  982MOL0     H32552   3.914   6.330   3.367 -2.5479  2.1390  1.8124
  982MOL0     H32553   4.027   6.137   3.275 -0.3102  4.1163 -0.2113
  982MOL0     H32554   3.301   4.680   3.147 -0.0201  0.5600  1.0199
  982MOL0     H32555   3.191   4.458   3.126 -2.6042 -0.7725 -0.2953
  982MOL0     H32556   2.838   4.218   3.153 -1.5444 -1.0929 -0.7524
  982MOL0     H32557   2.753   4.000   3.176  1.3375 -0.3734  1.1040
  982MOL0     H32558   2.776   3.601   2.978 -1.0899 -0.4361 -1.1974
  982MOL0     H32559   2.902   3.681   2.899 -1.0621 -0.1164 -1.2905
  982MOL0     H32560   2.773   3.600   2.736 -0.2763  0.2261 -0.4702
  982MOL0     H32561   2.734   3.774   2.740  2.4281  0.5107  1.4946
  982MOL0     H32562   2.528   3.746   2.799  1.0485  0.7088 -1.8781
  982MOL0     H32563   2.560   3.608   2.910  0.0050 -1.9408 -0.3779
  982MOL0     H32564   2.565   3.598   2.605 -3.1832  3.6795 -0.1738
  982MOL0     H32565   2.573   3.463   2.726  4.1983  2.0647 -0.5413
  982MOL0     H32566   2.158   3.501   2.710  0.8111 -1.5972  2.1103
  982MOL0     H32567   2.939   3.875   2.811 -2.2191  0.7611 -2.4867
  982MOL0     H32568   3.169   4.088   2.791 -1.5508 -1.4268  3.6819
  982MOL0     H32569   3.036   4.043   2.664 -2.0969  1.3850  0.2432
  982MOL0     H32570   3.056   4.201   2.709 -1.4124  0.1765  0.5306
  983MOL0     O32571   8.863   3.311   3.035 -0.5059 -0.4559 -0.6628
  983MOL0     C32572   8.970   3.367   3.044  0.1980 -0.1748  0.4431
  983MOL0     O32573   9.063   3.363   2.952  0.0196 -0.1598 -0.5163
  983MOL0     C32574   9.063   3.274   2.855 -0.0300  0.3830 -1.1696
  983MOL0     C32575   9.058   3.315   2.725 -0.0207 -0.6343 -0.9013
  983MOL0     C32576   9.022   3.224   2.622 -0.1402 -0.8883  0.3214
  983MOL0     C32577   8.997   3.089   2.650 -0.1038  0.8508  0.1958
  983MOL0     O32578   8.943   3.005   2.544 -0.6243  1.0810  0.9711
  983MOL0     C32579   8.897   2.869   2.581  0.0789 -0.3655  0.1432
  983MOL0     C32580   8.825   2.809   2.463 -0.6633  0.6978  0.5652
  983MOL0     C32581   8.707   2.887   2.411  0.2287  0.6959 -0.2132
  983MOL0     C32582   8.660   2.840   2.274  0.2343  0.0056 -0.1096
  983MOL0     C32583   8.631   2.689   2.269  0.3078  0.8223  0.5400
  983MOL0     C32584   8.541   2.617   2.380 -0.4552 -0.0018 -0.9351
  983MOL0     C32585   8.561   2.469   2.375 -0.2828 -0.1229 -0.0706
  983MOL0     C32586   8.491   2.407   2.248 -1.0258  0.4619 -0.7632
  983MOL0     N32587   8.350   2.395   2.262  1.4924  1.2303  0.0981
  983MOL0     C32588   8.261   2.378   2.157 -0.4807 -0.7401  0.0207
  983MOL0     C32589   8.148   2.326   2.208  0.7747  1.3828 -0.6477
  983MOL0     C32590   8.024   2.279   2.134  0.4459  0.4206  0.0316
  983MOL0     C32591   7.960   2.150   2.188 -0.0574 -0.3131 -0.4691
  983MOL0     C32592   7.840   2.110   2.115  0.7921  0.0009  0.7063
  983MOL0     C32593   7.778   1.989   2.184  0.1798 -0.7774  0.1661
  983MOL0     O32594   7.702   2.036   2.297  1.0548  0.1761 -0.2569
  983MOL0     C32595   7.623   1.933   2.360 -0.5510 -0.0195  0.9063
  983MOL0     C32596   7.560   1.973   2.477  0.0763  1.3029  0.5905
  983MOL0     C32597   7.470   1.883   2.526 -0.0224  0.5194 -0.6907
  983MOL0     C32598   7.462   1.741   2.498 -0.0392  0.4515  0.3172
  983MOL0     C32599   7.369   1.651   2.568  0.6616 -0.1537 -0.2295
  983MOL0     O32600   7.382   1.514   2.551  0.1166 -0.4084  0.6458
  983MOL0     C32601   7.318   1.431   2.639 -0.1528  1.5255 -0.0022
  983MOL0     C32602   7.281   1.305   2.589  0.7929  0.3206  0.1077
  983MOL0     C32603   7.229   1.208   2.677 -0.7937 -0.0897 -0.5228
  983MOL0     C32604   7.226   1.224   2.812 -0.2396  0.0009 -0.8934
  983MOL0     O32605   7.192   1.109   2.880 -0.2017 -0.2874 -0.4721
  983MOL0     C32606   7.149   1.127   3.018  0.3985  0.5117 -0.7621
  983MOL0     C32607   7.069   1.002   3.055  0.0518  0.4095 -0.3660
  983MOL0     C32608   7.013   1.011   3.199 -0.2835 -0.6115  0.0702
  983MOL0     C32609   6.918   0.896   3.232 -0.0049 -0.0759 -0.5252
  983MOL0     C32610   6.857   0.911   3.368  0.0741  0.4651 -0.6941
  983MOL0     C32611   6.765   0.793   3.390  0.3824  0.4401 -0.9738
  983MOL0     C32612   6.704   0.805   3.533  0.1343  0.8498 -0.0975
  983MOL0     C32613   6.606   0.683   3.540 -0.2416 -0.0665  0.3632
  983MOL0    Cl32614   6.523   0.709   3.688  0.2585 -0.3312 -0.3755
  983MOL0     C32615   7.264   1.346   2.862 -0.0483 -0.4116 -0.3592
  983MOL0     C32616   7.312   1.450   2.776  0.4276  0.6745  0.6863
  983MOL0     O32617   7.285   1.700   2.645  0.4120 -0.0715 -0.4094
  983MOL0     C32618   7.548   1.699   2.394  0.5055 -0.6239 -0.0100
  983MOL0     C32619   7.630   1.796   2.323 -0.7484  0.5211 -0.5576
  983MOL0     N32620   8.163   2.323   2.345  0.1301  0.5916 -0.1327
  983MOL0     N32621   8.279   2.359   2.378 -0.2425 -0.6048 -0.6098
  983MOL0     C32622   9.033   3.045   2.782 -0.3721 -0.3309 -0.6658
  983MOL0     C32623   9.066   3.136   2.878  0.6778 -0.3479 -0.2620
  983MOL0     C32624   8.987   3.438   3.163  0.3407  0.4810 -0.5759
  983MOL0     C32625   8.879   3.508   3.221  0.0169 -1.1039 -0.0118
  983MOL0     C32626   8.902   3.584   3.335  0.6763 -0.6321  0.1014
  983MOL0     C32627   9.024   3.596   3.391 -0.2526  0.0026 -0.9109
  983MOL0     O32628   9.041   3.667   3.511 -0.2829  0.2813  0.0901
  983MOL0     C32629   9.154   3.752   3.532  0.3483 -0.1943 -0.9006
  983MOL0     C32630   9.244   3.699   3.646  0.9269  1.2329  0.4946
  983MOL0     C32631   9.332   3.810   3.693  0.2824 -0.1745  0.2765
  983MOL0     C32632   9.443   3.787   3.784 -0.1688 -0.5562 -0.5089
  983MOL0     C32633   9.553   3.707   3.727  0.4132 -0.4550  0.8254
  983MOL0     C32634   9.645   3.645   3.695 -0.4117  0.0131  0.5112
  983MOL0     C32635   9.138   3.537   3.328 -0.5699 -0.2464  0.3451
  983MOL0     C32636   9.116   3.450   3.220  0.8970 -0.9855 -0.3634
  983MOL0     C32637   9.238   3.373   3.194 -0.4491 -0.1657 -0.2829
  983MOL0     H32638   9.073   3.417   2.692  0.9907 -0.6864 -0.6324
  983MOL0     H32639   9.022   3.242   2.515  0.0822 -1.0953  0.2862
  983MOL0     H32640   8.973   2.795   2.608  2.6053  1.6040 -1.1705
  983MOL0     H32641   8.837   2.872   2.673  0.7553  0.8094  0.5716
  983MOL0     H32642   8.794   2.710   2.497 -1.4450  0.7751  0.0913
  983MOL0     H32643   8.897   2.788   2.384  0.2683 -0.1903  1.5970
  983MOL0     H32644   8.724   2.995   2.413  0.1127  0.7142  1.3682
  983MOL0     H32645   8.629   2.873   2.487  0.1900 -2.7126 -0.7189
  983MOL0     H32646   8.564   2.888   2.254 -0.2730 -1.2993 -0.9198
  983MOL0     H32647   8.740   2.869   2.205  1.1512  0.0181  0.9336
  983MOL0     H32648   8.578   2.676   2.175  0.3494  1.9360  0.3500
  983MOL0     H32649   8.725   2.636   2.254 -0.2547 -1.0975  3.1469
  983MOL0     H32650   8.567   2.642   2.483  0.7831  0.1837 -1.2837
  983MOL0     H32651   8.438   2.654   2.379  0.1200  1.6597 -1.7359
  983MOL0     H32652   8.527   2.417   2.465  0.9210 -1.7818 -0.5188
  983MOL0     H32653   8.669   2.454   2.365 -0.2677  0.2059 -0.4349
  983MOL0     H32654   8.515   2.467   2.160 -0.6268  0.4566 -0.6622
  983MOL0     H32655   8.521   2.304   2.232 -3.1974 -0.4732  0.7010
  983MOL0     H32656   8.271   2.387   2.049 -0.1105 -1.5646 -0.0261
  983MOL0     H32657   7.963   2.370   2.132 -0.5180 -0.1603  1.2208
  983MOL0     H32658   8.049   2.261   2.029 -0.8386  0.0713 -0.2414
  983MOL0     H32659   8.035   2.071   2.182  0.0210 -0.6201  2.8650
  983MOL0     H32660   7.935   2.164   2.294 -0.4973 -1.3404 -0.4279
  983MOL0     H32661   7.865   2.080   2.013 -2.5317  0.3288 -0.2960
  983MOL0     H32662   7.772   2.195   2.103 -1.0366 -1.4365  0.4513
  983MOL0     H32663   7.856   1.922   2.222 -0.6770 -0.7168  2.1580
  983MOL0     H32664   7.715   1.939   2.110  1.9416  0.1356 -2.0786
  983MOL0     H32665   7.578   2.073   2.515  0.9786  2.3229 -2.1994
  983MOL0     H32666   7.421   1.912   2.619  0.3224 -2.2801  0.4578
  983MOL0     H32667   7.280   1.269   2.487  2.4060  1.1376 -0.2285
  983MOL0     H32668   7.209   1.105   2.650  1.4627 -0.6845 -0.1026
  983MOL0     H32669   7.230   1.134   3.091  0.0494 -4.0428  0.3529
  983MOL0     H32670   7.073   1.206   3.024 -1.3990 -1.0259 -1.9823
  983MOL0     H32671   6.985   0.992   2.986  1.9940 -0.0860 -2.8033
  983MOL0     H32672   7.131   0.913   3.039 -1.5074 -0.9625  0.9428
  983MOL0     H32673   7.096   1.012   3.270  0.7690  2.0029 -1.0531
  983MOL0     H32674   6.961   1.107   3.215  1.0932  0.5333 -1.8431
  983MOL0     H32675   6.996   0.820   3.236  0.6546  0.6445  1.8306
  983MOL0     H32676   6.840   0.878   3.158  0.1191 -3.8674  0.0659
  983MOL0     H32677   6.798   0.999   3.394 -0.3073 -0.4921  1.8994
  983MOL0     H32678   6.941   0.901   3.437  0.4668  0.4961 -1.1578
  983MOL0     H32679   6.680   0.807   3.323 -1.1966  1.2052  1.0798
  983MOL0     H32680   6.819   0.698   3.384 -0.9030 -0.2098 -3.2424
  983MOL0     H32681   6.654   0.901   3.549 -0.2498  0.6202  0.1185
  983MOL0     H32682   6.775   0.807   3.616  1.1301  2.8024 -0.9385
  983MOL0     H32683   6.529   0.674   3.462  0.1447  2.2386 -0.3551
  983MOL0     H32684   6.669   0.594   3.533  1.1542  1.0141 -3.0984
  983MOL0     H32685   7.271   1.364   2.969  2.7365  2.2747 -0.8449
  983MOL0     H32686   7.337   1.548   2.816 -0.3734  1.4668 -0.6781
  983MOL0     H32687   7.557   1.595   2.364 -0.8747 -0.3965 -1.3467
  983MOL0     H32688   7.705   1.755   2.256  0.7402 -0.3778  1.5421
  983MOL0     H32689   9.021   2.939   2.800 -0.8270 -0.6996 -2.7819
  983MOL0     H32690   9.083   3.095   2.978 -1.4242 -5.2833 -1.6191
  983MOL0     H32691   8.781   3.502   3.174  1.1552 -0.8833 -2.5299
  983MOL0     H32692   8.826   3.648   3.380  1.4081  0.3869 -0.0631
  983MOL0     H32693   9.110   3.848   3.558 -4.1356 -3.0094  3.6443
  983MOL0     H32694   9.211   3.759   3.438  0.4184 -0.8790 -0.9148
  983MOL0     H32695   9.292   3.608   3.608 -0.6485  0.1945  0.8852
  983MOL0     H32696   9.185   3.677   3.736 -0.4089 -1.2254 -0.8642
  983MOL0     H32697   9.262   3.875   3.747  1.0468 -0.0312  1.1051
  983MOL0     H32698   9.370   3.866   3.607 -1.7211  0.7654 -0.0608
  983MOL0     H32699   9.488   3.881   3.816 -0.5551 -0.6669  0.4086
  983MOL0     H32700   9.407   3.746   3.879  0.9307  0.8675  0.5631
  983MOL0     H32701   9.724   3.583   3.656 -2.9476 -1.3148 -3.0030
  983MOL0     H32702   9.238   3.533   3.369  0.7611 -1.3559 -2.7234
  983MOL0     H32703   9.226   3.271   3.231 -0.3456 -0.0318  0.1239
  983MOL0     H32704   9.256   3.363   3.087  1.4007 -1.4630  0.1111
  983MOL0     H32705   9.329   3.416   3.238 -0.0625 -1.3258  0.0645
  984MOL0     O32706   3.169   0.802   2.237 -0.7267 -0.2533  0.3323
  984MOL0     C32707   3.289   0.833   2.252  0.3661 -0.1130 -0.4354
  984MOL0     O32708   3.366   0.841   2.367 -0.1385  0.3136  0.6224
  984MOL0     C32709   3.300   0.832   2.482 -1.3034 -0.8462  0.2833
  984MOL0     C32710   3.341   0.733   2.572 -0.4809 -0.3051 -0.1926
  984MOL0     C32711   3.274   0.736   2.699 -0.6322  0.2856 -0.4321
  984MOL0     C32712   3.165   0.814   2.737  1.0827  0.7730 -0.4185
  984MOL0     O32713   3.127   0.821   2.867  0.3366  0.2672 -0.6788
  984MOL0     C32714   3.183   0.943   2.925 -0.0264 -0.4380  0.9496
  984MOL0     C32715   3.156   0.945   3.071  0.0602 -0.5848 -0.4902
  984MOL0     C32716   3.257   1.037   3.134 -0.3614  0.2337 -0.3829
  984MOL0     C32717   3.225   1.071   3.277  0.5542 -0.6764  0.0846
  984MOL0     C32718   3.336   1.144   3.349 -1.2104  0.2606 -0.4574
  984MOL0     C32719   3.470   1.061   3.370  0.3721 -0.2148 -0.0304
  984MOL0     C32720   3.563   1.109   3.480  0.8816  0.7442  0.4143
  984MOL0     C32721   3.583   1.262   3.479 -0.4696  0.6315 -0.2832
  984MOL0     N32722   3.643   1.301   3.349  0.5741 -0.6884  0.0924
  984MOL0     C32723   3.766   1.262   3.310 -0.4775  0.3881 -0.4869
  984MOL0     C32724   3.787   1.325   3.199  0.6562 -1.0895  0.9250
  984MOL0     C32725   3.906   1.303   3.117  0.2722 -0.0483 -0.1281
  984MOL0     C32726   4.039   1.355   3.190 -0.0402  0.5494 -0.2961
  984MOL0     C32727   4.032   1.478   3.283 -0.4974 -0.4160 -0.2477
  984MOL0     C32728   3.999   1.612   3.226 -0.1598  0.2207 -0.5131
  984MOL0     O32729   4.072   1.709   3.302  0.0110 -0.7185  1.0090
  984MOL0     C32730   4.005   1.825   3.313  0.6366  1.3031 -0.7482
  984MOL0     C32731   3.896   1.867   3.242 -0.5697  0.7450  0.0783
  984MOL0     C32732   3.836   1.991   3.247  0.2987 -0.4803  0.4142
  984MOL0     C32733   3.903   2.089   3.322  0.4374 -0.0609 -0.3533
  984MOL0     C32734   3.855   2.227   3.329  0.0123  0.2645 -0.5825
  984MOL0     O32735   3.739   2.263   3.267 -0.4469 -0.0606 -0.3191
  984MOL0     C32736   3.698   2.398   3.266  0.5082  0.1961 -0.2101
  984MOL0     C32737   3.696   2.478   3.372 -0.6119 -0.6481 -1.1423
  984MOL0     C32738   3.666   2.616   3.366  0.2904 -0.0028 -0.3940
  984MOL0     C32739   3.656   2.672   3.239  0.5707 -0.6751  0.8318
  984MOL0     O32740   3.640   2.808   3.220 -0.0150 -0.0015  0.3303
  984MOL0     C32741   3.518   2.863   3.288  0.2058 -0.3461 -0.6314
  984MOL0     C32742   3.501   3.020   3.307  0.1898  0.2586 -0.1886
  984MOL0     C32743   3.453   3.082   3.184  0.4754  0.2634  0.2148
  984MOL0     C32744   3.431   3.229   3.191  1.0649 -0.0974 -0.1082
  984MOL0     C32745   3.401   3.283   3.049  0.7829  0.4055  0.7972
  984MOL0     C32746   3.257   3.245   3.009 -0.6883 -0.6110  0.3387
  984MOL0     C32747   3.208   3.339   2.900 -0.0990  0.0558 -0.0512
  984MOL0     C32748   3.071   3.308   2.855 -0.4777 -0.6333  0.0938
  984MOL0    Cl32749   3.026   3.437   2.747  0.0932 -0.0629 -0.0398
  984MOL0     C32750   3.644   2.592   3.133 -0.3072 -0.1167  0.6095
  984MOL0     C32751   3.675   2.456   3.140 -0.1706  0.1990 -0.5783
  984MOL0     O32752   3.934   2.316   3.363 -0.0387 -0.8769 -0.0130
  984MOL0     C32753   4.016   2.057   3.404  0.5325 -0.7264  0.2899
  984MOL0     C32754   4.067   1.922   3.396  0.2603 -0.8618 -1.7211
  984MOL0     N32755   3.686   1.420   3.178  0.3215 -0.0811 -1.2088
  984MOL0     N32756   3.602   1.397   3.275 -0.7973 -0.5721  0.7072
  984MOL0     C32757   3.113   0.899   2.638 -1.1143  0.5147 -0.9508
  984MOL0     C32758   3.182   0.906   2.516 -1.0771 -0.1380  0.9550
  984MOL0     C32759   3.354   0.865   2.128 -1.0635 -1.5552  0.2351
  984MOL0     C32760   3.353   0.781   2.014 -0.3146  0.5845 -0.7611
  984MOL0     C32761   3.420   0.810   1.893  0.0861 -0.5805 -0.6084
  984MOL0     C32762   3.480   0.941   1.885 -0.0710 -0.7193  0.5726
  984MOL0     O32763   3.537   0.985   1.759  0.2663  0.1102 -0.3677
  984MOL0     C32764   3.539   0.888   1.648  0.4968 -0.0988 -0.3266
  984MOL0     C32765   3.585   0.925   1.508 -0.1740  0.3509 -0.6039
  984MOL0     C32766   3.616   0.798   1.425  0.6278  0.5050  0.0445
  984MOL0     C32767   3.626   0.822   1.270  0.2490 -0.0614  0.6147
  984MOL0     C32768   3.684   0.948   1.230 -1.1381  0.8891  0.3304
  984MOL0     C32769   3.744   1.052   1.182 -0.1675  0.4551  1.0058
  984MOL0     C32770   3.472   1.035   1.988 -0.4010  0.3398  0.6439
  984MOL0     C32771   3.407   0.997   2.113 -0.6688 -0.1366  0.6948
  984MOL0     C32772   3.429   1.101   2.221 -0.6060  0.1435  0.4311
  984MOL0     H32773   3.428   0.669   2.567 -0.4638 -0.3266  0.2611
  984MOL0     H32774   3.314   0.668   2.774  4.0965  1.9074 -1.1649
  984MOL0     H32775   3.290   0.941   2.902 -0.4748  0.9456 -1.5988
  984MOL0     H32776   3.131   1.027   2.879 -2.1311 -2.4076 -0.4967
  984MOL0     H32777   3.173   0.845   3.112 -3.6857 -0.8116  0.8301
  984MOL0     H32778   3.053   0.976   3.091 -0.2212 -0.8526 -1.4797
  984MOL0     H32779   3.257   1.128   3.074 -3.7305 -0.6981 -2.0639
  984MOL0     H32780   3.351   0.982   3.121 -0.9169 -0.6025 -0.9479
  984MOL0     H32781   3.141   1.139   3.292 -0.0979 -2.0075  3.3106
  984MOL0     H32782   3.200   0.979   3.331 -0.7269 -0.3547  0.0620
  984MOL0     H32783   3.348   1.243   3.304 -3.6033  1.0124  0.3682
  984MOL0     H32784   3.307   1.179   3.449  0.6419  1.6430 -0.3649
  984MOL0     H32785   3.440   0.959   3.396 -1.4077 -0.0405 -1.2119
  984MOL0     H32786   3.531   1.062   3.279  0.1503  0.8597 -0.1827
  984MOL0     H32787   3.660   1.060   3.476  0.6583  0.3743 -1.0696
  984MOL0     H32788   3.509   1.093   3.574 -2.0806  2.0762 -0.9303
  984MOL0     H32789   3.482   1.305   3.486 -1.5840 -2.0224  1.7016
  984MOL0     H32790   3.654   1.290   3.557  1.3690  3.3515 -2.7179
  984MOL0     H32791   3.828   1.186   3.356  1.6449  2.8845  1.1132
  984MOL0     H32792   3.919   1.197   3.094 -1.9274 -0.1060 -1.3483
  984MOL0     H32793   3.896   1.362   3.025  4.1413  1.6530  0.3296
  984MOL0     H32794   4.083   1.278   3.254 -0.4370  1.9072  1.7089
  984MOL0     H32795   4.115   1.369   3.112  1.3234  1.7908  1.1706
  984MOL0     H32796   4.131   1.479   3.329 -1.0091  2.9584  1.1566
  984MOL0     H32797   3.966   1.443   3.363 -1.7003 -1.7152 -1.7432
  984MOL0     H32798   3.894   1.626   3.255  0.2867  3.3084 -0.0528
  984MOL0     H32799   4.016   1.613   3.118 -2.2125 -1.0543 -0.8927
  984MOL0     H32800   3.846   1.791   3.182  4.6375 -1.7908 -1.6386
  984MOL0     H32801   3.738   2.009   3.203  1.6661  1.1431 -2.2229
  984MOL0     H32802   3.697   2.433   3.471 -0.6347 -1.2385 -1.4035
  984MOL0     H32803   3.674   2.670   3.460  2.9358  2.0781 -1.6851
  984MOL0     H32804   3.430   2.837   3.229 -0.0710  2.8022 -1.8124
  984MOL0     H32805   3.508   2.833   3.392  1.9785  1.3263  0.0796
  984MOL0     H32806   3.433   3.056   3.386  0.5984  2.2701 -0.6797
  984MOL0     H32807   3.603   3.057   3.320 -0.1557  1.6048 -1.0903
  984MOL0     H32808   3.520   3.060   3.100  0.0268 -0.2397 -0.0160
  984MOL0     H32809   3.351   3.051   3.160  1.0936 -0.0169 -2.3802
  984MOL0     H32810   3.517   3.283   3.232  2.0287 -0.9995 -0.8873
  984MOL0     H32811   3.346   3.242   3.258 -0.4652 -0.9579 -1.8116
  984MOL0     H32812   3.460   3.238   2.969  1.2162  2.1344  0.0960
  984MOL0     H32813   3.410   3.392   3.058  0.3820  0.4710  0.4306
  984MOL0     H32814   3.258   3.140   2.979  2.5305 -0.0986 -1.8186
  984MOL0     H32815   3.189   3.275   3.089 -0.6050  1.9067 -0.4676
  984MOL0     H32816   3.281   3.344   2.818  1.5817  0.3521  1.3876
  984MOL0     H32817   3.202   3.438   2.946 -1.2919 -0.5958  1.2708
  984MOL0     H32818   3.057   3.210   2.810 -0.2915 -0.6699  0.1157
  984MOL0     H32819   3.002   3.321   2.939  2.5627 -1.5443  2.9320
  984MOL0     H32820   3.609   2.632   3.038  0.3001  3.2748  1.6705
  984MOL0     H32821   3.688   2.397   3.050 -2.5299  1.3399 -1.7726
  984MOL0     H32822   4.064   2.116   3.482  1.1645 -2.4059  1.2273
  984MOL0     H32823   4.144   1.894   3.467  2.4382  3.5215 -2.0673
  984MOL0     H32824   3.019   0.952   2.651 -3.0847 -2.7052 -0.6209
  984MOL0     H32825   3.141   0.964   2.435  0.1460 -3.4258 -2.3110
  984MOL0     H32826   3.304   0.685   2.026 -0.4802  0.6799 -0.6817
  984MOL0     H32827   3.426   0.733   1.817  2.1574 -1.2235  0.1477
  984MOL0     H32828   3.434   0.858   1.644  0.6662 -0.5185 -1.9337
  984MOL0     H32829   3.593   0.800   1.683 -0.6481 -0.6260  0.1682
  984MOL0     H32830   3.678   0.982   1.514  1.4527 -2.2351  0.7536
  984MOL0     H32831   3.515   0.988   1.453 -0.0068  0.5468 -0.5933
  984MOL0     H32832   3.544   0.718   1.444  1.5984 -0.1774  1.0082
  984MOL0     H32833   3.707   0.745   1.455  0.6182  0.7844  0.5715
  984MOL0     H32834   3.674   0.742   1.213 -0.6055  0.7123 -1.3103
  984MOL0     H32835   3.523   0.817   1.233  1.4693 -2.0808 -3.1452
  984MOL0     H32836   3.788   1.141   1.143 -1.0161  1.0509  1.3707
  984MOL0     H32837   3.516   1.131   1.962  3.1675 -1.9044 -2.7265
  984MOL0     H32838   3.507   1.059   2.286 -0.3312 -2.0995 -1.2352
  984MOL0     H32839   3.455   1.191   2.165 -1.0513 -1.0905 -1.8948
  984MOL0     H32840   3.336   1.119   2.276 -0.9983  0.7190 -0.4134
  985MOL0     O32841   6.246   2.604   3.978 -0.2507 -0.4881  0.3111
  985MOL0     C32842   6.201   2.546   3.879  0.3358  0.2283  0.3443
  985MOL0     O32843   6.173   2.414   3.876  0.1081 -0.5336 -0.2151
  985MOL0     C32844   6.199   2.338   3.991  0.5460  0.3049 -0.2828
  985MOL0     C32845   6.332   2.325   4.042  0.0415  0.6453 -0.5755
  985MOL0     C32846   6.353   2.254   4.164 -0.7982 -0.0696  0.0205
  985MOL0     C32847   6.245   2.190   4.236 -0.1026 -0.9793  0.4843
  985MOL0     O32848   6.268   2.131   4.356 -0.4512 -0.5922  0.4081
  985MOL0     C32849   6.359   2.013   4.364 -0.4238 -1.1168  0.6252
  985MOL0     C32850   6.312   1.935   4.488  0.6089 -0.3077  0.9430
  985MOL0     C32851   6.183   1.854   4.451  0.2111  0.5796 -0.0990
  985MOL0     C32852   6.119   1.791   4.576  0.5882 -0.3597 -1.3760
  985MOL0     C32853   5.973   1.750   4.568 -0.9223  1.3875 -0.2462
  985MOL0     C32854   5.941   1.649   4.688 -0.1487  0.4032  0.1570
  985MOL0     C32855   5.794   1.630   4.690 -0.2241 -0.4555 -1.0664
  985MOL0     C32856   5.759   1.478   4.680  0.3009  0.0206  0.3424
  985MOL0     N32857   5.613   1.471   4.663 -0.1486  0.2993 -0.7002
  985MOL0     C32858   5.548   1.473   4.543  0.1809  0.4551  0.8149
  985MOL0     C32859   5.419   1.519   4.567 -0.6611  0.9426 -0.3508
  985MOL0     C32860   5.312   1.546   4.472 -0.1166 -0.2755  0.4279
  985MOL0     C32861   5.226   1.421   4.452 -0.0316 -0.5897 -0.7315
  985MOL0     C32862   5.122   1.423   4.343  0.4903  0.3282 -0.5122
  985MOL0     C32863   4.997   1.515   4.363 -0.7659 -0.1427  0.0121
  985MOL0     O32864   4.910   1.493   4.251  0.3749  1.2431 -0.1950
  985MOL0     C32865   4.826   1.596   4.217 -0.0140 -0.3530 -0.5078
  985MOL0     C32866   4.787   1.611   4.078 -0.3833 -0.3228  0.7424
  985MOL0     C32867   4.703   1.703   4.030 -0.5437  0.1140 -0.2697
  985MOL0     C32868   4.647   1.795   4.115  0.0019 -0.2689 -0.8477
  985MOL0     C32869   4.549   1.899   4.071  1.2008 -0.2444  0.1762
  985MOL0     O32870   4.535   1.915   3.935 -0.4286  0.1373 -0.6877
  985MOL0     C32871   4.464   2.014   3.886 -0.4956 -1.1571 -0.4077
  985MOL0     C32872   4.444   2.145   3.942  0.4057  0.5686  0.0113
  985MOL0     C32873   4.391   2.241   3.867 -0.4485 -1.1621  0.3195
  985MOL0     C32874   4.339   2.223   3.737  0.5879  0.1807 -0.2644
  985MOL0     O32875   4.277   2.311   3.652 -0.3278 -0.2422  0.5363
  985MOL0     C32876   4.238   2.448   3.698  0.2058 -0.2280  0.5004
  985MOL0     C32877   4.112   2.500   3.624  0.7299 -0.0069  0.4568
  985MOL0     C32878   4.126   2.660   3.590 -0.0717 -0.9745 -0.8171
  985MOL0     C32879   4.084   2.744   3.709  0.5147  0.3345  0.7045
  985MOL0     C32880   4.128   2.890   3.675  0.1621 -0.5872  0.2854
  985MOL0     C32881   4.046   2.963   3.565  0.1279 -0.0933 -0.3347
  985MOL0     C32882   3.898   2.933   3.582  0.7258  0.0705  0.9338
  985MOL0     C32883   3.803   3.007   3.486 -0.3217  0.4490  0.3522
  985MOL0    Cl32884   3.787   3.180   3.538 -0.0491 -0.0455  0.2739
  985MOL0     C32885   4.358   2.101   3.684  0.6478 -0.2175 -0.1456
  985MOL0     C32886   4.424   1.995   3.751  0.1803 -0.9675  0.1760
  985MOL0     O32887   4.477   1.954   4.162 -0.6364 -0.2140 -0.8232
  985MOL0     C32888   4.693   1.795   4.251  1.1957  0.3735 -1.1592
  985MOL0     C32889   4.775   1.688   4.306  0.5497 -0.8971 -0.8626
  985MOL0     N32890   5.405   1.534   4.704  0.2222 -0.7322  0.0240
  985MOL0     N32891   5.528   1.511   4.758 -0.8127 -0.2395  0.5325
  985MOL0     C32892   6.116   2.214   4.199 -0.3549 -0.4008 -0.2269
  985MOL0     C32893   6.095   2.278   4.078  0.2197 -0.8161  0.0146
  985MOL0     C32894   6.211   2.632   3.754  0.1195  0.0520 -0.2913
  985MOL0     C32895   6.219   2.776   3.776  0.1389  0.6394  0.0879
  985MOL0     C32896   6.235   2.859   3.669 -0.8303  1.0054 -0.2265
  985MOL0     C32897   6.251   2.815   3.536 -0.6289  1.0135 -0.3213
  985MOL0     O32898   6.265   2.893   3.423 -0.3867 -1.0563 -0.4655
  985MOL0     C32899   6.302   3.034   3.438  0.9647  0.2663  0.2292
  985MOL0     C32900   6.458   3.043   3.480 -0.0982  0.5044  0.0883
  985MOL0     C32901   6.551   2.969   3.384  0.0123  0.0268  0.4423
  985MOL0     C32902   6.551   3.022   3.240  0.7366  0.2957 -0.0199
  985MOL0     C32903   6.666   2.969   3.176 -0.1066 -0.7090 -0.0676
  985MOL0     C32904   6.767   2.922   3.112  0.1944 -0.3345 -0.2287
  985MOL0     C32905   6.254   2.677   3.516 -1.0120 -0.4915  0.2730
  985MOL0     C32906   6.237   2.587   3.622  0.3266  0.0807  0.4495
  985MOL0     C32907   6.240   2.441   3.589  0.8822 -0.0244  0.8315
  985MOL0     H32908   6.410   2.375   3.986  1.7881 -0.1327  1.0636
  985MOL0     H32909   6.455   2.253   4.201  0.0590  1.7263 -2.1030
  985MOL0     H32910   6.357   1.956   4.271  2.8964  1.7945 -1.4596
  985MOL0     H32911   6.462   2.045   4.382 -0.1649 -1.6506  0.1025
  985MOL0     H32912   6.294   2.001   4.573  0.0802 -0.6727  1.1233
  985MOL0     H32913   6.390   1.867   4.524 -0.1085 -0.6067  1.9712
  985MOL0     H32914   6.214   1.780   4.377  2.2871 -2.7186  3.6884
  985MOL0     H32915   6.106   1.919   4.407 -0.2299 -1.7646 -3.2189
  985MOL0     H32916   6.179   1.709   4.615 -2.0298 -0.4667  3.0546
  985MOL0     H32917   6.136   1.850   4.666  0.9666 -2.8338  0.2747
  985MOL0     H32918   5.908   1.837   4.568 -1.0262  1.3107 -0.4116
  985MOL0     H32919   5.951   1.687   4.481  0.3709  4.4571 -3.0048
  985MOL0     H32920   6.006   1.563   4.670 -1.0700 -0.0108 -1.3894
  985MOL0     H32921   5.964   1.688   4.788 -0.5081 -0.7170  0.6980
  985MOL0     H32922   5.744   1.694   4.616  4.1813  2.2777 -2.0620
  985MOL0     H32923   5.750   1.656   4.787  0.3981  1.3412 -1.2133
  985MOL0     H32924   5.819   1.421   4.609  0.4275  0.4109  0.1340
  985MOL0     H32925   5.772   1.435   4.780 -2.8407  0.9773  1.2914
  985MOL0     H32926   5.593   1.443   4.449  2.4345  0.3186  1.8727
  985MOL0     H32927   5.252   1.623   4.521  2.2283  3.1206 -1.6536
  985MOL0     H32928   5.361   1.582   4.381 -0.1163 -0.5469  0.3201
  985MOL0     H32929   5.302   1.343   4.441  0.1266 -0.2886 -1.9981
  985MOL0     H32930   5.182   1.404   4.550  2.1770  1.6353  0.7560
  985MOL0     H32931   5.084   1.322   4.322  3.0256 -0.0431 -4.3471
  985MOL0     H32932   5.177   1.447   4.252 -0.0983 -1.0105 -1.2656
  985MOL0     H32933   5.027   1.618   4.379 -2.2716  0.4589 -0.8049
  985MOL0     H32934   4.933   1.483   4.445  2.0517  1.7004  3.1514
  985MOL0     H32935   4.833   1.540   4.010 -2.3902 -0.5020 -0.5252
  985MOL0     H32936   4.687   1.699   3.923 -0.9870  0.9362 -0.2435
  985MOL0     H32937   4.495   2.164   4.036  0.6459 -2.9656  0.7496
  985MOL0     H32938   4.376   2.343   3.902  0.1244 -1.1119  0.4155
  985MOL0     H32939   4.215   2.454   3.805 -4.3296  0.3523 -0.3073
  985MOL0     H32940   4.321   2.514   3.674  1.8564 -1.5725  2.1979
  985MOL0     H32941   4.111   2.458   3.523 -0.8743 -0.0870  0.4768
  985MOL0     H32942   4.025   2.473   3.684  2.6705 -3.5945  1.9550
  985MOL0     H32943   4.231   2.674   3.564 -0.7098  2.1080 -2.1356
  985MOL0     H32944   4.078   2.694   3.497  1.0903  2.1201 -0.3632
  985MOL0     H32945   4.146   2.704   3.790 -1.9404 -1.6669  1.7335
  985MOL0     H32946   3.980   2.721   3.734  0.0953  1.1476 -0.2205
  985MOL0     H32947   4.235   2.913   3.678 -0.0084  0.5192  4.7509
  985MOL0     H32948   4.101   2.943   3.767  3.8069  3.8299 -0.8183
  985MOL0     H32949   4.066   3.070   3.578  0.9139 -0.0116 -1.9024
  985MOL0     H32950   4.075   2.922   3.468 -0.9541 -4.4225  0.9557
  985MOL0     H32951   3.875   2.958   3.686  3.0031 -0.7981  1.6986
  985MOL0     H32952   3.880   2.827   3.564 -0.6678 -0.0761  2.8593
  985MOL0     H32953   3.849   3.007   3.387 -0.8608  0.1463  0.0980
  985MOL0     H32954   3.708   2.954   3.483 -0.0514 -0.0271  0.1900
  985MOL0     H32955   4.326   2.097   3.580 -1.8842  0.3667  0.5279
  985MOL0     H32956   4.449   1.905   3.695 -1.2502 -2.0577  1.2101
  985MOL0     H32957   4.647   1.863   4.322 -1.0515 -1.6268 -0.5460
  985MOL0     H32958   4.805   1.698   4.409  0.4949 -1.4494 -0.7925
  985MOL0     H32959   6.045   2.180   4.274 -0.2145  0.4103  0.2810
  985MOL0     H32960   5.989   2.285   4.055  0.3432 -2.0833 -1.0124
  985MOL0     H32961   6.203   2.811   3.878  1.1233  1.0764  0.0966
  985MOL0     H32962   6.215   2.966   3.677 -0.6032  1.1359 -1.2200
  985MOL0     H32963   6.235   3.099   3.495  2.4023  2.6765 -0.6460
  985MOL0     H32964   6.288   3.073   3.337 -2.8780 -0.5109  0.2995
  985MOL0     H32965   6.483   3.005   3.579  2.4875 -0.9563 -1.0039
  985MOL0     H32966   6.505   3.142   3.476  2.3478 -0.5179  1.4364
  985MOL0     H32967   6.544   2.860   3.382  2.8290 -0.2254  0.0614
  985MOL0     H32968   6.651   2.992   3.424  0.0227  1.2542 -0.2443
  985MOL0     H32969   6.460   2.992   3.187 -0.5444  2.7423  0.6677
  985MOL0     H32970   6.549   3.131   3.238 -0.3421  0.2905 -2.3429
  985MOL0     H32971   6.864   2.898   3.072  2.0578  4.3789  0.7781
  985MOL0     H32972   6.263   2.645   3.413  1.3875 -0.3632  0.3860
  985MOL0     H32973   6.320   2.392   3.645  0.1132 -0.2400  1.7706
  985MOL0     H32974   6.144   2.391   3.604  1.1401  0.0944  3.2515
  985MOL0     H32975   6.262   2.434   3.482 -1.3117 -4.4236  0.4624
  986MOL0     O32976   4.191   2.401   8.834 -0.0203  0.5762  0.2222
  986MOL0     C32977   4.138   2.314   8.770 -0.4148  0.7603  0.6757
  986MOL0     O32978   4.077   2.335   8.644  0.2014 -0.4105  0.5678
  986MOL0     C32979   4.071   2.463   8.594 -0.9633  0.0544 -0.1113
  986MOL0     C32980   4.123   2.489   8.460  0.6748 -0.0798 -0.5850
  986MOL0     C32981   4.107   2.623   8.404  0.9118  0.9619  0.1062
  986MOL0     C32982   4.037   2.725   8.492 -0.0972  0.1662  0.4973
  986MOL0     O32983   4.016   2.849   8.428 -0.6122  0.2916 -0.0466
  986MOL0     C32984   3.988   2.972   8.499  0.2582 -0.4128 -0.2952
  986MOL0     C32985   3.834   2.986   8.530  0.0008  0.2497 -0.4601
  986MOL0     C32986   3.776   3.129   8.550 -0.5806 -0.7726 -0.2004
  986MOL0     C32987   3.869   3.215   8.645 -0.3651  0.4207  0.2163
  986MOL0     C32988   3.844   3.363   8.656  0.7006 -0.0477  0.9716
  986MOL0     C32989   3.697   3.405   8.652  0.5249  1.1974  0.0271
  986MOL0     C32990   3.671   3.558   8.655 -0.2446 -0.4368  0.4890
  986MOL0     C32991   3.593   3.607   8.540 -0.0911  1.2746 -0.0233
  986MOL0     N32992   3.485   3.532   8.470  0.6386  0.1914  0.2891
  986MOL0     C32993   3.499   3.441   8.371 -0.0970 -0.4372 -0.1194
  986MOL0     C32994   3.376   3.411   8.319 -0.7417 -0.8153  0.0717
  986MOL0     C32995   3.354   3.321   8.201  1.0850  0.1588  0.3109
  986MOL0     C32996   3.335   3.398   8.058  0.2312  0.4143  0.5349
  986MOL0     C32997   3.190   3.462   8.066  0.5550  0.3436  0.8757
  986MOL0     C32998   3.131   3.518   7.934 -0.0897  0.9962 -0.9900
  986MOL0     O32999   3.074   3.421   7.848 -0.8007 -0.0229  0.5946
  986MOL0     C33000   2.959   3.355   7.866  0.1594 -0.6937 -1.1566
  986MOL0     C33001   2.931   3.230   7.808 -0.0882 -0.5041  0.5761
  986MOL0     C33002   2.820   3.156   7.827  0.5252  0.7716  0.5207
  986MOL0     C33003   2.715   3.208   7.907 -0.5375 -0.2264 -0.5315
  986MOL0     C33004   2.591   3.129   7.917 -0.2181 -0.2714 -0.2251
  986MOL0     O33005   2.479   3.204   7.953 -0.5211  0.0889 -0.3887
  986MOL0     C33006   2.354   3.157   7.955 -0.2486  0.8665 -0.5639
  986MOL0     C33007   2.260   3.216   8.040 -0.4251  0.3033 -0.3444
  986MOL0     C33008   2.125   3.176   8.030 -0.0274 -0.0594 -0.2871
  986MOL0     C33009   2.083   3.068   7.949  0.7301 -0.2355 -0.2863
  986MOL0     O33010   1.951   3.020   7.940  0.0073  0.4130  0.4369
  986MOL0     C33011   1.862   3.130   7.907 -0.5894  0.3276 -0.3897
  986MOL0     C33012   1.826   3.149   7.756 -0.9183  0.6871 -0.4934
  986MOL0     C33013   1.802   3.012   7.687  0.1530 -0.0802 -0.5967
  986MOL0     C33014   1.735   3.019   7.545 -0.0223 -0.8228 -0.2130
  986MOL0     C33015   1.735   2.881   7.474 -0.6496 -1.0547  0.6944
  986MOL0     C33016   1.638   2.789   7.523 -1.3812  0.6251 -0.2386
  986MOL0     C33017   1.639   2.654   7.448  0.7955  0.3579 -0.7425
  986MOL0     C33018   1.531   2.556   7.508 -0.4181 -0.3445 -0.7722
  986MOL0    Cl33019   1.548   2.542   7.684  0.3497 -0.0818 -0.0349
  986MOL0     C33020   2.184   3.007   7.872 -0.0156  0.0430  1.0673
  986MOL0     C33021   2.312   3.064   7.867 -0.0785  0.0896  0.3291
  986MOL0     O33022   2.595   3.009   7.884  0.1267 -0.4199 -0.2708
  986MOL0     C33023   2.731   3.335   7.958 -0.0988  0.0033 -0.4540
  986MOL0     C33024   2.857   3.405   7.952  1.0385 -0.9055  0.2100
  986MOL0     N33025   3.290   3.492   8.385  0.0678  0.4893 -0.3562
  986MOL0     N33026   3.348   3.563   8.476 -0.0647 -0.0438 -0.2539
  986MOL0     C33027   3.980   2.686   8.609  0.2794  0.2596 -0.6304
  986MOL0     C33028   3.992   2.558   8.658  0.7754 -1.2413 -0.6649
  986MOL0     C33029   4.115   2.194   8.850  0.6433 -0.6332  0.1563
  986MOL0     C33030   4.076   2.083   8.774  0.0090  0.1228 -0.0006
  986MOL0     C33031   4.062   1.955   8.822  0.1490  1.1407 -0.8303
  986MOL0     C33032   4.081   1.934   8.960 -0.3285  0.5002 -0.1023
  986MOL0     O33033   4.055   1.821   9.025  0.2149  0.4186 -0.2794
  986MOL0     C33034   3.943   1.741   8.977  0.3280 -0.1006  0.9695
  986MOL0     C33035   3.913   1.609   9.049  0.0300 -0.0132  0.0681
  986MOL0     C33036   3.950   1.611   9.199  0.0953 -0.4708  0.1160
  986MOL0     C33037   3.915   1.476   9.257 -0.7333  0.0521  0.3685
  986MOL0     C33038   3.775   1.474   9.299  0.6996 -0.7936  0.3983
  986MOL0     C33039   3.660   1.490   9.328  0.7272  0.1541 -0.0351
  986MOL0     C33040   4.116   2.047   9.040  0.3038  0.6218 -0.1492
  986MOL0     C33041   4.135   2.178   8.990  0.0497  0.1954  1.2549
  986MOL0     C33042   4.148   2.293   9.089 -0.6105 -0.9004  0.6149
  986MOL0     H33043   4.184   2.411   8.415  0.3482 -2.1568  2.2932
  986MOL0     H33044   4.129   2.655   8.303 -1.0037  0.4559 -0.5223
  986MOL0     H33045   4.032   2.979   8.599 -1.6274 -0.3893  0.5901
  986MOL0     H33046   4.003   3.056   8.431 -2.0885 -0.4159 -0.9028
  986MOL0     H33047   3.815   2.929   8.621 -3.5632  0.5377 -0.8791
  986MOL0     H33048   3.778   2.942   8.447 -0.9050 -2.7187  1.5461
  986MOL0     H33049   3.681   3.113   8.602 -1.7183 -0.4369 -2.0775
  986MOL0     H33050   3.759   3.172   8.451 -2.6887  1.4058  1.0086
  986MOL0     H33051   3.885   3.169   8.743  0.0510 -0.4606 -0.2553
  986MOL0     H33052   3.971   3.214   8.607 -0.6599  3.0080 -0.8653
  986MOL0     H33053   3.884   3.409   8.747 -0.6927 -1.4860  2.3970
  986MOL0     H33054   3.895   3.405   8.569 -0.2488 -0.6246  0.1048
  986MOL0     H33055   3.644   3.358   8.569  1.5061 -3.6431  1.8279
  986MOL0     H33056   3.653   3.369   8.745 -0.6531 -0.6311 -1.1672
  986MOL0     H33057   3.758   3.624   8.664 -0.0598 -0.2341 -2.1011
  986MOL0     H33058   3.617   3.582   8.747 -1.3029 -0.2513 -0.1645
  986MOL0     H33059   3.551   3.703   8.571 -3.2456  1.0140 -2.9168
  986MOL0     H33060   3.672   3.623   8.466  0.4996 -3.7367 -0.7894
  986MOL0     H33061   3.589   3.397   8.329  0.1943 -1.0647  1.0972
  986MOL0     H33062   3.434   3.246   8.196  0.6678 -0.3337  0.9292
  986MOL0     H33063   3.263   3.269   8.229  0.4835  1.3509  0.6307
  986MOL0     H33064   3.398   3.487   8.053 -0.5024  1.0289  1.6639
  986MOL0     H33065   3.346   3.327   7.976  0.2833 -0.7371  1.5087
  986MOL0     H33066   3.215   3.538   8.141 -0.1573 -0.3504  1.8463
  986MOL0     H33067   3.114   3.392   8.105 -0.4687  0.4734 -0.8059
  986MOL0     H33068   3.204   3.581   7.882  3.4271 -2.4869 -0.7567
  986MOL0     H33069   3.059   3.598   7.953 -0.4947  0.2451  0.7577
  986MOL0     H33070   3.011   3.190   7.745 -0.1394 -1.1355  0.9115
  986MOL0     H33071   2.809   3.055   7.789 -0.4713  0.6674  1.0552
  986MOL0     H33072   2.295   3.290   8.111 -0.6331  0.3966 -0.3358
  986MOL0     H33073   2.052   3.226   8.093 -1.9586  0.2433 -2.6363
  986MOL0     H33074   1.771   3.109   7.963  0.8791  0.5753  2.2365
  986MOL0     H33075   1.898   3.222   7.954  0.8980  0.3076 -1.3991
  986MOL0     H33076   1.743   3.219   7.743  0.3786  2.4633  0.3777
  986MOL0     H33077   1.916   3.197   7.718 -0.3946  1.8048  1.9782
  986MOL0     H33078   1.899   2.960   7.691  0.9440  1.4010  0.3570
  986MOL0     H33079   1.735   2.951   7.748 -1.1732  3.5449  1.8572
  986MOL0     H33080   1.797   3.087   7.485 -1.9594  2.4405  1.1867
  986MOL0     H33081   1.634   3.061   7.542 -0.7250 -2.2197  1.7694
  986MOL0     H33082   1.838   2.843   7.470 -0.2069 -0.2538  2.9165
  986MOL0     H33083   1.708   2.910   7.372 -0.2198 -2.0314  0.2924
  986MOL0     H33084   1.660   2.765   7.627  0.1757 -0.1098 -0.7005
  986MOL0     H33085   1.538   2.832   7.521 -1.8231  0.4472  5.2052
  986MOL0     H33086   1.740   2.613   7.453  0.6497 -0.3295 -2.5367
  986MOL0     H33087   1.614   2.678   7.344 -0.9403  0.8215 -0.2500
  986MOL0     H33088   1.441   2.608   7.475 -0.6055  1.1214  1.7578
  986MOL0     H33089   1.548   2.460   7.459  1.2667  0.3172 -1.5660
  986MOL0     H33090   2.155   2.926   7.806  0.6940  0.1453  0.6225
  986MOL0     H33091   2.383   3.030   7.792 -0.0625  0.5694  0.1188
  986MOL0     H33092   2.656   3.385   8.019  1.2913 -0.4558  1.7446
  986MOL0     H33093   2.856   3.501   8.003 -0.5666 -0.7455 -0.0657
  986MOL0     H33094   3.913   2.756   8.657  0.9383  0.1544  0.4872
  986MOL0     H33095   3.930   2.546   8.746 -2.8030  0.1857 -2.7880
  986MOL0     H33096   4.048   2.096   8.669 -3.8516 -2.0706  0.5500
  986MOL0     H33097   4.038   1.868   8.761 -3.2976 -0.4610  2.4081
  986MOL0     H33098   3.956   1.717   8.871 -0.8414  3.6748 -0.1948
  986MOL0     H33099   3.855   1.806   8.985 -2.0774 -2.8570 -0.8164
  986MOL0     H33100   3.978   1.540   8.995  1.2318  1.3228 -0.2777
  986MOL0     H33101   3.810   1.585   9.022  0.5686 -3.7863  0.8164
  986MOL0     H33102   3.892   1.691   9.246  0.9582 -0.1452  0.6364
  986MOL0     H33103   4.057   1.631   9.206  0.0971 -1.0312  2.2495
  986MOL0     H33104   3.927   1.389   9.192 -1.0899  0.2423  0.0431
  986MOL0     H33105   3.977   1.450   9.343 -1.5244  0.5067  1.0907
  986MOL0     H33106   3.558   1.507   9.356  0.6759 -0.8854  0.4460
  986MOL0     H33107   4.122   2.034   9.148  0.4831 -3.4247 -0.5144
  986MOL0     H33108   4.257   2.306   9.088 -0.6244 -0.7372  0.9600
  986MOL0     H33109   4.099   2.386   9.060  1.0160 -0.3746 -0.6457
  986MOL0     H33110   4.126   2.269   9.193  1.7453  1.5795  1.8360
  987MOL0     O33111   3.525   2.989   9.981  0.3440  0.1619  0.5890
  987MOL0     C33112   3.544   3.079   9.906  0.9702 -0.4805 -0.2071
  987MOL0     O33113   3.655   3.099   9.826 -0.1607 -0.6669  0.3211
  987MOL0     C33114   3.778   3.050   9.869  0.5052 -1.2429  0.4201
  987MOL0     C33115   3.829   3.039   9.992  0.5119 -0.3093  0.4495
  987MOL0     C33116   3.959   3.006  10.004 -1.2026  0.1999 -0.2025
  987MOL0     C33117   4.030   2.949   9.895 -0.2465 -1.2508 -0.1830
  987MOL0     O33118   4.162   2.921   9.900 -0.1900 -0.0056  0.2179
  987MOL0     C33119   4.186   2.823  10.000  0.3975  0.0258 -0.2082
  987MOL0     C33120   4.322   2.747   9.977  1.2086  0.0100 -0.5288
  987MOL0     C33121   4.443   2.832   9.966 -0.8789 -0.2321 -0.2987
  987MOL0     C33122   4.481   2.878  10.115  0.9240  0.4446  1.0150
  987MOL0     C33123   4.611   2.972  10.128 -0.3251  0.0044  1.6731
  987MOL0     C33124   4.748   2.903  10.098 -0.0603  0.2287  0.3711
  987MOL0     C33125   4.818   2.848  10.218  1.1490  0.4436 -0.4848
  987MOL0     C33126   4.952   2.781  10.193  0.0741 -0.5527  0.1798
  987MOL0     N33127   4.938   2.689  10.076  0.1603 -0.5205 -0.9692
  987MOL0     C33128   4.868   2.573  10.082 -0.9665 -0.3474 -0.2759
  987MOL0     C33129   4.901   2.507   9.972  0.0773 -0.1583 -0.4304
  987MOL0     C33130   4.848   2.372   9.935 -1.5838  0.3995  0.2636
  987MOL0     C33131   4.708   2.388   9.887 -0.0437  1.0075  0.3700
  987MOL0     C33132   4.609   2.274   9.937  0.8568  0.7916  0.1807
  987MOL0     C33133   4.498   2.251   9.832  0.0146  0.3447  0.0628
  987MOL0     O33134   4.424   2.150   9.897  0.3006  0.5589 -0.0177
  987MOL0     C33135   4.367   2.047   9.831  0.7134  0.5617 -0.0304
  987MOL0     C33136   4.338   1.936   9.905  0.6904  0.4134 -0.2521
  987MOL0     C33137   4.281   1.819   9.854  0.2810 -0.3349  0.0970
  987MOL0     C33138   4.254   1.812   9.714  0.1431 -0.4500 -0.2612
  987MOL0     C33139   4.206   1.692   9.653 -0.3602  0.7193 -0.3509
  987MOL0     O33140   4.175   1.582   9.737 -0.0883 -0.4831  0.5927
  987MOL0     C33141   4.101   1.477   9.684  0.0236 -0.2442  0.7857
  987MOL0     C33142   4.154   1.390   9.585 -0.3091  0.5384  1.3515
  987MOL0     C33143   4.082   1.284   9.528 -0.3828 -0.1854 -0.1435
  987MOL0     C33144   3.948   1.250   9.569  0.1039 -0.0372  0.3539
  987MOL0     O33145   3.872   1.149   9.516 -0.3113 -0.0338 -0.3171
  987MOL0     C33146   3.906   1.089   9.393 -0.4899 -0.1276 -0.3906
  987MOL0     C33147   3.769   1.083   9.319  0.5128 -0.3560 -0.1399
  987MOL0     C33148   3.786   1.065   9.171  1.1686 -0.9380 -0.8463
  987MOL0     C33149   3.646   1.098   9.114 -0.1307 -0.2925 -0.1014
  987MOL0     C33150   3.634   1.037   8.981 -0.8667 -0.0281 -0.2779
  987MOL0     C33151   3.750   1.064   8.883 -0.1729  0.1395 -0.7753
  987MOL0     C33152   3.702   1.036   8.749 -0.9939 -0.3659 -0.7775
  987MOL0     C33153   3.801   0.987   8.648  0.6023 -0.5674  1.6977
  987MOL0    Cl33154   3.921   1.125   8.637 -0.0971  0.3210 -0.1981
  987MOL0     C33155   3.897   1.339   9.660 -0.5486  0.5215 -0.2614
  987MOL0     C33156   3.973   1.441   9.720  0.1248  0.2971  0.2004
  987MOL0     O33157   4.183   1.693   9.537  0.0420  0.1428  0.5651
  987MOL0     C33158   4.291   1.925   9.645 -0.6021 -0.1160  0.7049
  987MOL0     C33159   4.357   2.038   9.691  0.3832  0.2186 -1.3156
  987MOL0     N33160   4.993   2.581   9.900  1.0386 -0.2034 -0.6266
  987MOL0     N33161   5.008   2.697   9.960 -0.2613 -0.2381 -0.0330
  987MOL0     C33162   3.979   2.966   9.764  0.0556  1.0764  0.4017
  987MOL0     C33163   3.856   3.020   9.762  0.2183 -0.0131  0.0629
  987MOL0     C33164   3.436   3.187   9.924 -0.3021 -0.5923  0.2356
  987MOL0     C33165   3.301   3.159   9.920 -0.2025  0.3277 -1.0146
  987MOL0     C33166   3.203   3.255   9.915  0.3329 -0.5037 -0.2331
  987MOL0     C33167   3.231   3.389   9.917  0.0059 -0.4833 -0.8067
  987MOL0     O33168   3.129   3.484   9.903 -0.4072 -0.2741  0.0489
  987MOL0     C33169   3.159   3.624   9.896  0.4630  0.0146  0.0487
  987MOL0     C33170   3.034   3.703   9.859  0.1949  0.0749  1.1151
  987MOL0     C33171   3.052   3.853   9.841  0.3014 -0.3185  0.4944
  987MOL0     C33172   2.930   3.927   9.875  0.6977 -0.6092  0.4985
  987MOL0     C33173   2.964   4.064   9.910  0.0950  0.2853 -0.2447
  987MOL0     C33174   2.989   4.185   9.921 -0.1940  0.4797 -0.1124
  987MOL0     C33175   3.364   3.426   9.918 -0.6011 -0.9108  0.4251
  987MOL0     C33176   3.468   3.330   9.915 -0.2511  0.3900  0.0248
  987MOL0     C33177   3.613   3.373   9.884 -0.0027  0.7367  0.5135
  987MOL0     H33178   3.770   3.068  10.079 -0.8363 -0.8498 -0.2606
  987MOL0     H33179   4.022   3.013  10.091 -1.4414 -0.4456  0.0329
  987MOL0     H33180   4.186   2.875  10.096  1.9182 -2.0556  0.9974
  987MOL0     H33181   4.102   2.754  10.004  0.7167 -0.4469 -1.2372
  987MOL0     H33182   4.306   2.678   9.893  2.5502 -1.5486  0.4394
  987MOL0     H33183   4.333   2.676  10.059  0.3536  1.0789  0.5377
  987MOL0     H33184   4.414   2.914   9.899 -4.7301 -0.5194  0.7989
  987MOL0     H33185   4.521   2.762   9.932 -0.1757 -0.5583  1.8656
  987MOL0     H33186   4.403   2.947  10.149  0.0686 -1.7804  3.9285
  987MOL0     H33187   4.493   2.792  10.181 -0.3382 -0.8444 -0.3668
  987MOL0     H33188   4.613   3.053  10.055  1.2564  0.0910  1.7799
  987MOL0     H33189   4.593   3.021  10.224 -5.6840 -1.4264  1.7508
  987MOL0     H33190   4.749   2.831  10.016  1.7471 -0.1580  0.6756
  987MOL0     H33191   4.819   2.985  10.081  0.4437 -0.1465  0.6287
  987MOL0     H33192   4.747   2.771  10.248  1.7369 -0.0832 -0.4370
  987MOL0     H33193   4.837   2.924  10.295  0.9776  0.6397 -0.6362
  987MOL0     H33194   5.020   2.865  10.174 -3.5570  2.8354  0.9188
  987MOL0     H33195   4.972   2.717  10.279 -3.3016 -2.8426 -0.5480
  987MOL0     H33196   4.806   2.534  10.162  1.9765 -0.6556  2.0608
  987MOL0     H33197   4.912   2.336   9.854 -1.2015  0.1415  0.6755
  987MOL0     H33198   4.851   2.302  10.019 -1.7342  1.4910  1.2012
  987MOL0     H33199   4.663   2.479   9.928 -2.5521  0.7547 -1.6404
  987MOL0     H33200   4.702   2.401   9.779  1.0714  4.0322  0.5611
  987MOL0     H33201   4.574   2.287  10.039  0.2507  2.5955 -0.2126
  987MOL0     H33202   4.670   2.183   9.937  0.8159  0.7304  1.9040
  987MOL0     H33203   4.533   2.220   9.733 -0.7746 -0.2719 -0.0327
  987MOL0     H33204   4.446   2.347   9.831  1.3954  1.1142 -0.4540
  987MOL0     H33205   4.363   1.935  10.011 -2.3925 -3.0711  0.6291
  987MOL0     H33206   4.239   1.748   9.925 -0.4416 -1.3073 -1.2655
  987MOL0     H33207   4.255   1.415   9.552  0.4519 -0.6753  2.6663
  987MOL0     H33208   4.123   1.229   9.443  0.7554  1.7873 -0.9405
  987MOL0     H33209   3.967   1.157   9.333 -0.4351  0.9047  0.7991
  987MOL0     H33210   3.957   0.992   9.405 -2.2690 -0.8597  2.0945
  987MOL0     H33211   3.697   1.011   9.360 -1.2097  0.5703 -1.4224
  987MOL0     H33212   3.719   1.179   9.333 -1.3483 -1.1695 -0.8226
  987MOL0     H33213   3.859   1.140   9.139 -0.1186 -0.0140 -1.6787
  987MOL0     H33214   3.815   0.962   9.149  0.1735 -1.6717  1.0665
  987MOL0     H33215   3.631   1.205   9.102  1.8235 -0.0565 -0.8323
  987MOL0     H33216   3.577   1.054   9.187 -0.4980  0.5361  0.0544
  987MOL0     H33217   3.542   1.086   8.947 -0.5465  1.1285  0.4648
  987MOL0     H33218   3.624   0.928   8.979 -2.5454 -0.0049 -4.5163
  987MOL0     H33219   3.805   1.157   8.902 -0.0591 -0.5725  3.2779
  987MOL0     H33220   3.833   0.997   8.907  0.0389  1.2124  1.8006
  987MOL0     H33221   3.660   1.131   8.713 -0.7065 -0.6021 -1.7732
  987MOL0     H33222   3.628   0.956   8.756 -1.5965  0.2546  0.1428
  987MOL0     H33223   3.851   0.892   8.665 -0.1561 -1.4985 -0.7982
  987MOL0     H33224   3.742   0.967   8.558 -0.4104 -1.4061  2.5296
  987MOL0     H33225   3.792   1.325   9.686 -0.3649  0.1778  0.3266
  987MOL0     H33226   3.930   1.490   9.806 -0.5579 -1.0289  0.6392
  987MOL0     H33227   4.270   1.911   9.540  1.5589 -2.4482  0.4874
  987MOL0     H33228   4.372   2.126   9.629 -0.1422  1.8305  0.7381
  987MOL0     H33229   4.040   2.940   9.678 -2.7646  0.1219 -1.4712
  987MOL0     H33230   3.809   3.028   9.664  1.6482  0.4483 -0.6239
  987MOL0     H33231   3.276   3.053   9.917  2.3183 -0.3673 -0.4483
  987MOL0     H33232   3.098   3.228   9.915 -0.5795  2.6287 -0.6700
  987MOL0     H33233   3.226   3.637   9.811  2.4683  1.6905  1.7934
  987MOL0     H33234   3.194   3.661   9.992 -1.2148 -2.3621  1.6831
  987MOL0     H33235   2.958   3.688   9.937 -3.0662  0.0184 -1.8139
  987MOL0     H33236   3.001   3.657   9.765  0.3576 -1.0564  1.5994
  987MOL0     H33237   3.069   3.878   9.736  0.7059  0.7098  0.7939
  987MOL0     H33238   3.138   3.878   9.904  0.7475 -0.5938  0.0004
  987MOL0     H33239   2.860   3.913   9.792  0.4975  0.5452  0.4560
  987MOL0     H33240   2.882   3.879   9.961 -1.9284 -2.4810 -1.8192
  987MOL0     H33241   3.000   4.291   9.935  0.8010  0.2561  0.9871
  987MOL0     H33242   3.388   3.532   9.920  1.1127 -1.2818  0.4910
  987MOL0     H33243   3.676   3.344   9.969 -0.2306 -1.5760 -0.0407
  987MOL0     H33244   3.648   3.324   9.793 -1.2446 -0.7994  0.8190
  987MOL0     H33245   3.602   3.482   9.872 -0.5661  0.7499  1.0717
  988MOL0     O33246   2.529  10.547   1.193  0.4189  0.6431 -0.0615
  988MOL0     C33247   2.468  10.587   1.088  0.0379  0.7134 -0.4170
  988MOL0     O33248   2.518  10.653   0.986  0.4074 -0.9574 -0.4187
  988MOL0     C33249   2.634  10.731   1.015  0.4243 -1.0892 -0.3171
  988MOL0     C33250   2.706  10.768   0.903  1.1491 -0.7112  0.5863
  988MOL0     C33251   2.806  10.851   0.916 -0.4766  0.5961  0.7106
  988MOL0     C33252   2.847  10.905   1.036  0.2107 -0.2122 -0.4146
  988MOL0     O33253   2.951  10.988   1.041  0.2260 -0.0352 -0.6302
  988MOL0     C33254   2.993  11.064   1.153 -0.2424  0.5183  0.5750
  988MOL0     C33255   3.127  11.132   1.115  0.2210 -0.6043 -0.1028
  988MOL0     C33256   3.147  11.191   0.973 -0.9215 -0.4340 -0.8179
  988MOL0     C33257   3.044  11.314   0.957 -0.2520  0.9237 -0.0599
  988MOL0     C33258   3.038  11.384   0.825 -0.2243 -0.3912 -0.4378
  988MOL0     C33259   3.180  11.463   0.802  1.0685 -0.8422  0.0799
  988MOL0     C33260   3.242  11.560   0.904 -0.9058 -0.4109 -0.2919
  988MOL0     C33261   3.140  11.669   0.922 -0.3364 -1.1220 -0.0249
  988MOL0     N33262   3.187  11.771   1.027  0.3462  0.5488 -0.7239
  988MOL0     C33263   3.158  11.781   1.158 -0.6777 -0.1703  1.1392
  988MOL0     C33264   3.208  11.905   1.193 -1.3100 -0.4644 -0.0699
  988MOL0     C33265   3.200  11.979   1.329 -0.5682 -0.5366  0.4698
  988MOL0     C33266   3.322  11.940   1.412  0.0955  0.0345  0.7470
  988MOL0     C33267   3.289  11.843   1.522  0.9296  0.8635  0.4622
  988MOL0     C33268   3.335  11.692   1.507 -0.1371 -0.1685 -0.2615
  988MOL0     O33269   3.475  11.689   1.525  0.7361 -0.0436  0.0232
  988MOL0     C33270   3.545  11.580   1.514 -0.1753  0.5781 -0.8314
  988MOL0     C33271   3.485  11.464   1.462 -0.2045 -0.2366 -0.5772
  988MOL0     C33272   3.568  11.353   1.451 -0.3133 -0.0629 -0.5482
  988MOL0     C33273   3.713  11.352   1.463  0.3520 -0.4121 -0.4625
  988MOL0     C33274   3.787  11.231   1.453  1.5237 -0.3232 -0.1137
  988MOL0     O33275   3.727  11.122   1.415  0.0007  0.0865  0.2333
  988MOL0     C33276   3.791  11.011   1.373 -0.2762 -0.0016 -0.1114
  988MOL0     C33277   3.916  10.950   1.424 -0.0549  0.6648 -0.7944
  988MOL0     C33278   3.964  10.822   1.367  0.7338  0.2980 -0.2051
  988MOL0     C33279   3.876  10.746   1.281  0.7067  0.4691  0.1445
  988MOL0     O33280   3.913  10.623   1.233  0.4075 -0.0680 -0.0611
  988MOL0     C33281   3.977  10.529   1.318 -0.5631  0.6532 -0.3670
  988MOL0     C33282   3.976  10.388   1.240  0.3724  0.7033 -0.1163
  988MOL0     C33283   4.027  10.394   1.090 -0.0449  1.0022  0.1437
  988MOL0     C33284   3.929  10.347   0.974 -0.1697 -0.9563  0.2504
  988MOL0     C33285   3.980  10.388   0.835 -0.2669 -0.1242  0.4273
  988MOL0     C33286   3.979  10.541   0.789 -0.3904  0.2508  0.7097
  988MOL0     C33287   3.847  10.609   0.783  0.3305  0.0440  0.4811
  988MOL0     C33288   3.882  10.761   0.756 -0.0071  0.4098 -0.4911
  988MOL0    Cl33289   3.949  10.793   0.588  0.5092  0.2108 -0.2867
  988MOL0     C33290   3.756  10.806   1.249  0.1872  0.9708  0.8085
  988MOL0     C33291   3.714  10.937   1.294 -0.8381  0.1496  0.0372
  988MOL0     O33292   3.904  11.243   1.476 -0.8715 -0.9327 -0.2660
  988MOL0     C33293   3.768  11.472   1.517  0.5592  0.3295  0.0825
  988MOL0     C33294   3.684  11.587   1.535 -1.1277 -0.6955  0.6968
  988MOL0     N33295   3.264  11.958   1.075 -1.0934  0.2948 -0.2422
  988MOL0     N33296   3.259  11.875   0.979 -0.0861 -0.1644 -1.1632
  988MOL0     C33297   2.788  10.865   1.157  0.1923  0.4909  0.1872
  988MOL0     C33298   2.671  10.784   1.141  0.5507  0.0377  0.4638
  988MOL0     C33299   2.326  10.543   1.072  0.2749  0.5183  0.4670
  988MOL0     C33300   2.251  10.525   1.190  0.1771  0.5682  0.1649
  988MOL0     C33301   2.113  10.490   1.175  0.2358  0.3759  0.4355
  988MOL0     C33302   2.054  10.456   1.056  0.9615  0.0421 -0.3185
  988MOL0     O33303   1.918  10.437   1.045  0.7408 -0.3422 -0.6070
  988MOL0     C33304   1.870  10.345   0.940  0.8971 -0.2273 -0.6799
  988MOL0     C33305   1.722  10.343   0.962  0.5538  0.2781 -0.3600
  988MOL0     C33306   1.672  10.267   1.090  0.6033 -0.3138  1.0605
  988MOL0     C33307   1.544  10.193   1.059 -0.7140  1.0767  0.3281
  988MOL0     C33308   1.498  10.128   1.179 -0.7592  0.3260 -0.5228
  988MOL0     C33309   1.458  10.088   1.286 -0.4913  0.1358 -0.0790
  988MOL0     C33310   2.132  10.459   0.942  0.0113 -0.1964  1.7616
  988MOL0     C33311   2.264  10.509   0.947 -0.1202  0.2215 -0.1306
  988MOL0     C33312   2.337  10.519   0.818 -0.1389  0.9984  0.4396
  988MOL0     H33313   2.667  10.750   0.803  2.2938 -3.0577  0.4855
  988MOL0     H33314   2.872  10.878   0.834 -2.0694 -1.0384 -1.2278
  988MOL0     H33315   2.913  11.134   1.177 -0.5219  0.4611 -0.1608
  988MOL0     H33316   3.012  11.005   1.243  1.1593  0.6919  0.4197
  988MOL0     H33317   3.207  11.059   1.129  0.1566 -0.7078 -0.2741
  988MOL0     H33318   3.129  11.215   1.187 -0.1976 -0.4671 -0.2417
  988MOL0     H33319   3.116  11.112   0.905  0.6243 -0.5511 -1.4349
  988MOL0     H33320   3.250  11.213   0.943 -0.8093 -2.5097 -2.1117
  988MOL0     H33321   2.939  11.284   0.969 -0.9335  2.7587 -0.9050
  988MOL0     H33322   3.064  11.386   1.036  0.1964 -1.1857  1.8291
  988MOL0     H33323   3.007  11.325   0.739 -2.4528  1.2855 -0.9012
  988MOL0     H33324   2.962  11.463   0.837  0.3776  0.6018 -2.7157
  988MOL0     H33325   3.255  11.392   0.765  0.8462 -1.3972  0.6809
  988MOL0     H33326   3.158  11.524   0.713  1.4560 -1.6900 -0.6100
  988MOL0     H33327   3.339  11.596   0.870  1.2554 -1.1608  4.2816
  988MOL0     H33328   3.248  11.516   1.004  1.1668 -0.4764 -0.4221
  988MOL0     H33329   3.134  11.723   0.827 -0.7976 -0.0323  0.6117
  988MOL0     H33330   3.045  11.626   0.955 -0.4218  1.2235  3.2366
  988MOL0     H33331   3.101  11.712   1.219 -3.1631  2.4043  1.9752
  988MOL0     H33332   3.191  12.088   1.331  0.4450 -0.3888  3.7766
  988MOL0     H33333   3.109  11.942   1.377  0.6144 -0.4135  2.9801
  988MOL0     H33334   3.403  11.909   1.346  0.8554  4.9967 -1.1120
  988MOL0     H33335   3.358  12.023   1.474 -2.1589  0.9049  0.9814
  988MOL0     H33336   3.182  11.843   1.544  1.1804 -1.8056  2.1526
  988MOL0     H33337   3.336  11.871   1.617  1.0007  0.5260  0.5274
  988MOL0     H33338   3.311  11.655   1.407 -2.4451 -0.4268  0.3229
  988MOL0     H33339   3.288  11.631   1.585  0.5635 -1.1076 -0.5628
  988MOL0     H33340   3.382  11.457   1.430 -0.3394 -1.7358  0.0930
  988MOL0     H33341   3.518  11.263   1.419 -2.5086  0.8050  0.2777
  988MOL0     H33342   3.980  11.001   1.496 -2.4692  2.3320  0.3269
  988MOL0     H33343   4.054  10.767   1.396 -1.3943 -2.0769  2.4709
  988MOL0     H33344   4.080  10.560   1.336  0.0613 -0.8522 -1.1713
  988MOL0     H33345   3.920  10.519   1.411 -1.4808  2.7298 -0.6526
  988MOL0     H33346   4.063  10.349   1.293  0.2086 -0.8162 -0.9033
  988MOL0     H33347   3.891  10.322   1.258  2.1608 -1.6700  0.0236
  988MOL0     H33348   4.061  10.494   1.062  1.1623 -0.0062 -2.2661
  988MOL0     H33349   4.111  10.324   1.092 -0.2303  0.7881  0.3643
  988MOL0     H33350   3.837  10.403   0.992  0.5120 -0.3179  1.9166
  988MOL0     H33351   3.920  10.238   0.976 -0.2207 -0.9818 -0.7558
  988MOL0     H33352   3.928  10.336   0.754  2.7637 -1.6156 -0.7170
  988MOL0     H33353   4.083  10.357   0.816 -0.2246 -0.3474  0.9981
  988MOL0     H33354   4.043  10.606   0.849 -0.7723 -0.1780  1.5933
  988MOL0     H33355   4.015  10.544   0.685 -0.3914 -3.2014  0.4916
  988MOL0     H33356   3.817  10.603   0.888  2.5439 -1.5202  1.1003
  988MOL0     H33357   3.784  10.560   0.708  0.3350 -0.1100  0.5782
  988MOL0     H33358   3.798  10.830   0.757  0.6418  1.3931 -3.1654
  988MOL0     H33359   3.952  10.804   0.828 -0.9934  0.1492  0.6509
  988MOL0     H33360   3.689  10.741   1.195  4.1544 -1.1096 -2.1042
  988MOL0     H33361   3.623  10.989   1.266  1.0225  2.3336 -2.5071
  988MOL0     H33362   3.875  11.474   1.537  0.6349  1.0762 -0.3577
  988MOL0     H33363   3.722  11.680   1.577 -1.5182  0.8869 -2.1862
  988MOL0     H33364   2.820  10.913   1.249  0.4186 -1.2370  1.0501
  988MOL0     H33365   2.619  10.753   1.232  0.4562 -4.4753 -0.8649
  988MOL0     H33366   2.288  10.573   1.280 -1.9122 -0.2859  1.5604
  988MOL0     H33367   2.049  10.495   1.263 -1.7393  2.5911 -1.0005
  988MOL0     H33368   1.918  10.246   0.944  0.4729 -0.4153 -0.0997
  988MOL0     H33369   1.886  10.391   0.842 -2.3653  1.3114 -0.6010
  988MOL0     H33370   1.687  10.284   0.877  3.5940 -4.0504  1.0752
  988MOL0     H33371   1.687  10.446   0.967  3.3864  1.2996  0.3527
  988MOL0     H33372   1.658  10.340   1.171  1.4914 -0.2918  1.2068
  988MOL0     H33373   1.761  10.210   1.117  1.6905  1.4810  1.4481
  988MOL0     H33374   1.466  10.258   1.018 -2.8658 -1.2762  0.4621
  988MOL0     H33375   1.555  10.115   0.984 -1.5122  0.9423  0.3444
  988MOL0     H33376   1.420  10.054   1.380  0.4623  1.5380  0.8558
  988MOL0     H33377   2.106  10.437   0.839 -0.1460  2.0749  1.2578
  988MOL0     H33378   2.285  10.464   0.738  3.6539  2.5595 -3.5375
  988MOL0     H33379   2.354  10.621   0.783 -0.3288  1.9112  2.8329
  988MOL0     H33380   2.437  10.477   0.825 -1.1518 -1.8160 -0.4522
  989MOL0     O33381   0.401  11.189   1.472 -0.6102  0.6947 -0.2640
  989MOL0     C33382   0.340  11.209   1.365 -0.0345 -1.2692 -0.5763
  989MOL0     O33383   0.343  11.334   1.298  0.1646 -1.1310 -0.2686
  989MOL0     C33384   0.431  11.430   1.352 -0.3582  0.3752  1.0729
  989MOL0     C33385   0.382  11.558   1.368  0.1925  0.0907 -0.1571
  989MOL0     C33386   0.471  11.672   1.397  0.3611 -0.1637 -0.7655
  989MOL0     C33387   0.612  11.653   1.406 -0.5744 -0.4592  0.0183
  989MOL0     O33388   0.697  11.759   1.422  0.0251  0.3426 -0.3849
  989MOL0     C33389   0.652  11.890   1.392 -0.0683  0.3373  1.1162
  989MOL0     C33390   0.776  11.982   1.368 -0.3784  0.4926 -0.7108
  989MOL0     C33391   0.848  11.934   1.240  0.1575  0.6025 -0.2684
  989MOL0     C33392   0.980  11.865   1.293 -0.3083 -0.3480  0.5329
  989MOL0     C33393   1.069  11.823   1.177  0.1042 -0.0270 -0.3839
  989MOL0     C33394   1.157  11.937   1.128  0.4724 -0.0188  0.9422
  989MOL0     C33395   1.277  11.962   1.223  0.1630  0.6392  0.4442
  989MOL0     C33396   1.350  12.087   1.196 -0.2407 -0.8137  0.2437
  989MOL0     N33397   1.410  12.105   1.062  0.2193  0.0746  0.1429
  989MOL0     C33398   1.543  12.100   1.047 -0.0145 -0.7365 -0.0794
  989MOL0     C33399   1.568  12.125   0.915  0.4886  0.1177 -0.4303
  989MOL0     C33400   1.702  12.152   0.845 -0.4381  0.0620  0.7156
  989MOL0     C33401   1.748  12.283   0.902 -0.2200  0.5900  0.7164
  989MOL0     C33402   1.906  12.304   0.880 -0.5678  1.2055 -0.4441
  989MOL0     C33403   1.986  12.215   0.968  0.4820 -0.2242 -0.4690
  989MOL0     O33404   1.963  12.267   1.103  0.1028 -0.4726 -0.4568
  989MOL0     C33405   2.057  12.221   1.189 -0.0319 -0.0482 -0.0258
  989MOL0     C33406   2.191  12.277   1.193 -1.1009 -0.1405  0.7687
  989MOL0     C33407   2.289  12.234   1.285  0.0852  0.9696  0.4930
  989MOL0     C33408   2.256  12.121   1.360 -0.8753 -0.3464  0.7866
  989MOL0     C33409   2.360  12.057   1.444  1.1838 -0.0818  0.0485
  989MOL0     O33410   2.318  11.970   1.536  0.7835 -0.5548  0.9086
  989MOL0     C33411   2.395  11.932   1.644 -0.1898 -0.1800  0.0959
  989MOL0     C33412   2.349  11.969   1.767 -0.7108  0.2522 -0.4706
  989MOL0     C33413   2.432  11.944   1.884 -0.1947 -0.5722 -0.2812
  989MOL0     C33414   2.554  11.884   1.869 -0.1752 -0.3037 -0.2406
  989MOL0     O33415   2.642  11.867   1.971 -0.3039  1.1199 -0.5558
  989MOL0     C33416   2.668  11.729   1.989 -0.4291 -0.7828 -0.4766
  989MOL0     C33417   2.651  11.706   2.143 -0.1932  0.2611 -0.6423
  989MOL0     C33418   2.509  11.665   2.175 -0.9439 -0.9350 -0.6875
  989MOL0     C33419   2.491  11.653   2.329  0.3634 -0.5560  0.0498
  989MOL0     C33420   2.350  11.611   2.354  0.5872  0.1758  0.0389
  989MOL0     C33421   2.322  11.575   2.496  0.2758 -0.9805  0.0518
  989MOL0     C33422   2.165  11.574   2.523 -0.5686 -0.3651 -0.2516
  989MOL0     C33423   2.079  11.513   2.405  0.2113 -0.3978  0.0127
  989MOL0    Cl33424   1.918  11.533   2.451 -0.3184  0.7632 -0.1113
  989MOL0     C33425   2.597  11.839   1.738 -0.2374 -0.1146 -0.8982
  989MOL0     C33426   2.518  11.855   1.625  0.0151 -1.4118 -0.5034
  989MOL0     O33427   2.469  12.103   1.432 -0.4064  0.4092 -0.0318
  989MOL0     C33428   2.130  12.058   1.351  1.0901  0.0354  1.3136
  989MOL0     C33429   2.031  12.105   1.264  0.6471 -0.4779  1.4279
  989MOL0     N33430   1.444  12.140   0.855 -0.7057  1.0071 -0.3495
  989MOL0     N33431   1.347  12.138   0.942  0.4157  0.0447 -0.2863
  989MOL0     C33432   0.660  11.524   1.402  0.7067  0.6926  0.4637
  989MOL0     C33433   0.574  11.411   1.368  0.0195 -0.1210 -0.2020
  989MOL0     C33434   0.259  11.109   1.298 -0.2415 -0.0121  0.6055
  989MOL0     C33435   0.247  11.124   1.156 -0.5709 -0.2671 -0.3460
  989MOL0     C33436   0.178  11.018   1.090  0.4006 -0.2864  0.2911
  989MOL0     C33437   0.123  10.912   1.159 -0.8186  0.0936  0.2103
  989MOL0     O33438   0.074  10.803   1.091 -0.0174 -0.4772  0.5351
  989MOL0     C33439   0.042  10.816   0.948 -0.3543 -0.3276 -0.1612
  989MOL0     C33440  -0.050  10.699   0.913  0.0928 -0.7848 -0.7948
  989MOL0     C33441  -0.008  10.557   0.958  0.1276 -0.6474  0.1994
  989MOL0     C33442   0.086  10.491   0.862  0.3090 -0.5151  0.3387
  989MOL0     C33443   0.221  10.545   0.851  0.2660  0.0407 -0.3238
  989MOL0     C33444   0.330  10.591   0.828  0.3512 -0.1164 -0.8115
  989MOL0     C33445   0.136  10.906   1.296  0.8985  0.3948 -0.2515
  989MOL0     C33446   0.199  11.004   1.364  0.2133  0.5061 -0.6628
  989MOL0     C33447   0.189  10.993   1.516 -0.7422  0.2863  0.5963
  989MOL0     H33448   0.275  11.575   1.367  0.0905  0.0136  2.3669
  989MOL0     H33449   0.424  11.770   1.397  1.5139  0.4107 -0.1080
  989MOL0     H33450   0.607  11.890   1.292  2.0127  1.8972  0.1192
  989MOL0     H33451   0.591  11.931   1.474 -3.0912 -0.7117 -0.4374
  989MOL0     H33452   0.839  11.969   1.457  1.5791  0.4347 -2.0438
  989MOL0     H33453   0.741  12.085   1.369  2.0532  1.4005  1.3675
  989MOL0     H33454   0.867  12.019   1.173  1.3464 -0.1672 -0.9363
  989MOL0     H33455   0.793  11.862   1.178 -0.2142  0.7693 -0.1376
  989MOL0     H33456   1.015  11.933   1.371 -0.8369  1.1563 -0.4959
  989MOL0     H33457   0.947  11.772   1.341 -1.6419 -0.3276 -0.2811
  989MOL0     H33458   1.141  11.748   1.210 -0.6266 -0.8425 -0.5965
  989MOL0     H33459   1.024  11.773   1.090  0.7905 -0.9088 -0.2570
  989MOL0     H33460   1.187  11.909   1.027  0.1496  3.6837 -0.3459
  989MOL0     H33461   1.107  12.033   1.112  0.7080  0.1115  0.9819
  989MOL0     H33462   1.340  11.872   1.223 -1.2477 -0.4049 -1.2895
  989MOL0     H33463   1.234  11.958   1.324  0.7291 -2.7919  0.6752
  989MOL0     H33464   1.281  12.172   1.201 -0.3713 -0.9715  1.1756
  989MOL0     H33465   1.422  12.094   1.277 -0.8233  1.9567  0.6190
  989MOL0     H33466   1.626  12.092   1.117  0.0919 -0.5452 -0.1842
  989MOL0     H33467   1.771  12.069   0.867 -0.5156 -0.0990  0.3575
  989MOL0     H33468   1.691  12.165   0.737 -3.1157 -2.2851  0.6104
  989MOL0     H33469   1.695  12.372   0.867 -1.9429 -0.9525 -0.8260
  989MOL0     H33470   1.717  12.289   1.007  2.3453  0.7830  1.5298
  989MOL0     H33471   1.930  12.410   0.895 -0.1189  0.8236  1.9697
  989MOL0     H33472   1.934  12.269   0.780  0.6705 -1.0096  0.5890
  989MOL0     H33473   2.089  12.222   0.932  1.0338  0.3050  1.1105
  989MOL0     H33474   1.958  12.110   0.975 -2.3959  0.3933 -1.4830
  989MOL0     H33475   2.220  12.362   1.132 -1.5423 -1.2887 -1.1030
  989MOL0     H33476   2.380  12.294   1.284  0.5359  0.4096 -2.1719
  989MOL0     H33477   2.252  12.016   1.777 -1.9593 -2.2736  0.0803
  989MOL0     H33478   2.394  11.975   1.980 -4.2310 -4.2638 -0.3715
  989MOL0     H33479   2.596  11.664   1.939  2.2056 -4.5674  0.1459
  989MOL0     H33480   2.766  11.694   1.955 -1.1641 -2.8305 -0.6464
  989MOL0     H33481   2.722  11.628   2.170 -1.6345 -0.9403 -0.2335
  989MOL0     H33482   2.682  11.795   2.199 -0.9008  0.4705 -0.5835
  989MOL0     H33483   2.432  11.735   2.143 -5.2072 -2.7641  4.0647
  989MOL0     H33484   2.486  11.572   2.121  1.1447 -0.7611 -1.9686
  989MOL0     H33485   2.498  11.754   2.370 -1.4836 -1.1249  1.9048
  989MOL0     H33486   2.559  11.581   2.374  0.1051 -0.3639  0.7538
  989MOL0     H33487   2.327  11.524   2.291  0.7563 -1.4155  2.0690
  989MOL0     H33488   2.286  11.688   2.309  1.6617 -1.3575 -4.7501
  989MOL0     H33489   2.369  11.480   2.523 -0.2934 -2.4059 -3.4877
  989MOL0     H33490   2.374  11.647   2.560 -2.2742  0.6796  0.4018
  989MOL0     H33491   2.130  11.674   2.551  0.5634 -0.6809  2.5738
  989MOL0     H33492   2.158  11.510   2.611  1.1712 -0.2955 -0.0303
  989MOL0     H33493   2.088  11.568   2.311  2.6080 -0.6383  0.0343
  989MOL0     H33494   2.090  11.404   2.402 -3.0322 -0.8169 -0.1186
  989MOL0     H33495   2.695  11.792   1.729 -1.2355 -2.1421 -1.9190
  989MOL0     H33496   2.549  11.839   1.522  0.1098  2.3075 -1.2257
  989MOL0     H33497   2.104  11.977   1.418 -0.8184 -0.3598  0.1779
  989MOL0     H33498   1.933  12.057   1.257  1.1103 -1.2163 -0.9780
  989MOL0     H33499   0.769  11.525   1.397  0.6956 -0.8644 -0.8631
  989MOL0     H33500   0.603  11.311   1.339  0.6295 -0.3882  1.2878
  989MOL0     H33501   0.281  11.214   1.105  0.9347  0.9598  2.5988
  989MOL0     H33502   0.180  11.019   0.982  0.8062 -2.2360  0.2459
  989MOL0     H33503   0.129  10.818   0.880  0.4676 -1.3758  0.8276
  989MOL0     H33504  -0.007  10.914   0.945  1.0140  0.3936 -2.6487
  989MOL0     H33505  -0.083  10.695   0.808 -1.8952 -3.4943 -0.1737
  989MOL0     H33506  -0.144  10.717   0.966  1.1324 -4.8853  3.0296
  989MOL0     H33507  -0.096  10.494   0.969  0.2746 -0.8618  0.1420
  989MOL0     H33508   0.045  10.544   1.053  0.6987 -1.2351 -0.1898
  989MOL0     H33509   0.103  10.389   0.897 -0.7479 -0.2549  1.6761
  989MOL0     H33510   0.043  10.489   0.761 -0.3234  0.3065  0.5799
  989MOL0     H33511   0.435  10.611   0.836 -0.0573  4.1794 -3.2351
  989MOL0     H33512   0.097  10.822   1.352  3.3777  1.4514  3.4602
  989MOL0     H33513   0.293  10.977   1.546 -0.5552  0.1007 -0.1147
  989MOL0     H33514   0.140  11.080   1.560 -3.8879  1.0454 -3.7648
  989MOL0     H33515   0.135  10.904   1.550  0.1665 -1.2044 -1.6394
  990MOL0     O33516   7.790  10.159   1.676  0.1488  0.1633 -0.5813
  990MOL0     C33517   7.886  10.103   1.638 -1.0618  0.6033 -0.0864
  990MOL0     O33518   7.885  10.028   1.527  0.1750 -0.1537  0.7629
  990MOL0     C33519   7.785  10.036   1.435  0.6089  0.1671  0.2512
  990MOL0     C33520   7.767  10.148   1.360 -0.5856  0.2458 -0.2379
  990MOL0     C33521   7.665  10.166   1.273  0.9029  0.0160 -0.5696
  990MOL0     C33522   7.576  10.054   1.243 -0.3386 -1.0495  0.2843
  990MOL0     O33523   7.474  10.046   1.147 -1.0788  0.2554 -0.0797
  990MOL0     C33524   7.461  10.150   1.053 -0.0656 -0.6406  0.0299
  990MOL0     C33525   7.379  10.270   1.101 -0.5456 -0.0603 -1.3054
  990MOL0     C33526   7.380  10.378   1.001 -0.8029 -0.1865 -0.3379
  990MOL0     C33527   7.287  10.335   0.886  0.5528 -0.1744  0.1186
  990MOL0     C33528   7.276  10.436   0.775 -0.4276 -0.8573  0.4095
  990MOL0     C33529   7.226  10.392   0.637  0.2738  0.1676  0.1982
  990MOL0     C33530   7.263  10.477   0.510  0.6777 -0.6815 -0.7622
  990MOL0     C33531   7.173  10.611   0.503 -0.0016  1.0508 -0.1486
  990MOL0     N33532   7.231  10.715   0.418  0.1204 -0.1538 -0.3474
  990MOL0     C33533   7.357  10.779   0.438  0.0554  0.1838  1.0734
  990MOL0     C33534   7.384  10.847   0.327  0.4085 -0.2816  0.2424
  990MOL0     C33535   7.511  10.911   0.290  1.0988 -0.5835 -0.7316
  990MOL0     C33536   7.616  10.810   0.238 -0.4596  0.3738 -0.5346
  990MOL0     C33537   7.741  10.893   0.239 -0.4502  0.2046  1.1007
  990MOL0     C33538   7.863  10.823   0.164 -0.3369  0.2642  0.3467
  990MOL0     O33539   7.927  10.906   0.064 -0.2878  0.2905  0.2717
  990MOL0     C33540   8.033  10.980   0.095 -0.1793 -0.9193  0.6656
  990MOL0     C33541   8.082  11.017   0.229  0.3314 -0.0728 -1.0931
  990MOL0     C33542   8.195  11.091   0.253 -0.1263 -0.0016  0.4266
  990MOL0     C33543   8.288  11.106   0.142  0.4817  0.6338  0.2976
  990MOL0     C33544   8.428  11.147   0.159  0.5160  0.0971 -0.6551
  990MOL0     O33545   8.499  11.147   0.049  0.0763 -0.2192 -0.8491
  990MOL0     C33546   8.638  11.164   0.064 -0.2566  0.1438  0.5146
  990MOL0     C33547   8.721  11.059   0.100 -0.6852  0.3900  0.0500
  990MOL0     C33548   8.859  11.082   0.128 -0.7176  0.1307  0.1131
  990MOL0     C33549   8.916  11.211   0.090  0.3749  1.0150 -0.3590
  990MOL0     O33550   9.052  11.242   0.091 -0.1020  0.4202  0.5824
  990MOL0     C33551   9.156  11.138   0.112  0.5221 -0.2146 -0.5008
  990MOL0     C33552   9.294  11.209   0.108 -0.5362 -0.2713  0.2334
  990MOL0     C33553   9.302  11.276  -0.028 -0.4986  0.2624  0.9597
  990MOL0     C33554   9.319  11.174  -0.138 -0.8220 -0.5697 -0.3878
  990MOL0     C33555   9.417  11.207  -0.254 -0.5850  1.0733  1.1984
  990MOL0     C33556   9.381  11.342  -0.312 -0.7541 -0.6429 -0.0469
  990MOL0     C33557   9.457  11.367  -0.441  0.1873 -0.3964 -0.6433
  990MOL0     C33558   9.384  11.339  -0.565  0.5925  0.4434 -0.9483
  990MOL0    Cl33559   9.292  11.483  -0.611 -0.0127 -0.0203  0.0181
  990MOL0     C33560   8.829  11.308   0.052 -0.6736  0.7505 -0.2213
  990MOL0     C33561   8.693  11.282   0.041 -0.0160 -0.5664 -0.3773
  990MOL0     O33562   8.473  11.157   0.272  0.0817 -0.4012 -0.1542
  990MOL0     C33563   8.239  11.082   0.011 -0.0241 -0.5465  0.2952
  990MOL0     C33564   8.112  11.029  -0.011  1.2382  0.4818  0.0282
  990MOL0     N33565   7.279  10.825   0.242 -0.0670 -0.5057  0.2482
  990MOL0     N33566   7.189  10.748   0.296  0.0344  0.1947  0.5712
  990MOL0     C33567   7.596   9.939   1.319  1.0315 -1.0955 -0.2247
  990MOL0     C33568   7.694   9.928   1.418  0.3131  0.6862 -0.4745
  990MOL0     C33569   8.017  10.118   1.709  0.1837  0.4287  0.0928
  990MOL0     C33570   8.008  10.140   1.850  0.4141 -0.3283 -0.2083
  990MOL0     C33571   8.121  10.160   1.931  0.4487  0.2483  0.2785
  990MOL0     C33572   8.252  10.153   1.872  0.5961  1.0422 -0.0612
  990MOL0     O33573   8.371  10.164   1.942  0.2176  0.1563 -0.3994
  990MOL0     C33574   8.384  10.104   2.072 -0.1144 -0.1592 -0.0458
  990MOL0     C33575   8.329  10.188   2.188 -0.5536  0.3219  0.1678
  990MOL0     C33576   8.335  10.339   2.177 -0.6794 -0.0311  0.6391
  990MOL0     C33577   8.487  10.384   2.173 -0.4663  0.0977  1.0342
  990MOL0     C33578   8.513  10.466   2.052 -0.1208  0.4212  0.1530
  990MOL0     C33579   8.526  10.521   1.943 -0.3494 -0.1854 -1.0548
  990MOL0     C33580   8.263  10.140   1.732  0.2691 -0.7674  0.3544
  990MOL0     C33581   8.153  10.114   1.647  0.0027 -0.1067 -0.1064
  990MOL0     C33582   8.167  10.122   1.493  0.0095 -0.3659  0.1981
  990MOL0     H33583   7.831  10.235   1.349 -1.2700  0.6952 -0.8386
  990MOL0     H33584   7.665  10.248   1.203 -0.1139 -0.1007 -0.7164
  990MOL0     H33585   7.565  10.177   1.032 -0.1472 -0.8768 -0.6916
  990MOL0     H33586   7.421  10.105   0.962  1.5101 -1.1630 -0.4396
  990MOL0     H33587   7.416  10.305   1.198 -1.7024  0.4050 -1.0087
  990MOL0     H33588   7.275  10.238   1.113 -1.3659  1.5201 -3.4202
  990MOL0     H33589   7.482  10.398   0.965  0.4702 -0.8146  2.5632
  990MOL0     H33590   7.327  10.463   1.045 -1.5141  0.3221 -2.0918
  990MOL0     H33591   7.310  10.238   0.841  2.0351  0.3769 -0.3762
  990MOL0     H33592   7.186  10.321   0.927  1.7332 -2.4167  2.6160
  990MOL0     H33593   7.212  10.516   0.812 -0.8340 -0.6600 -0.6931
  990MOL0     H33594   7.380  10.471   0.775 -0.5570 -0.1843  3.7164
  990MOL0     H33595   7.263  10.295   0.602 -1.5841 -0.1227 -1.1487
  990MOL0     H33596   7.116  10.390   0.640  0.1931  2.0203 -0.3222
  990MOL0     H33597   7.237  10.414   0.425  0.3598  1.0927 -2.0476
  990MOL0     H33598   7.364  10.520   0.508 -0.4750  2.2534 -2.7324
  990MOL0     H33599   7.069  10.586   0.480  0.4188 -1.0449 -0.0079
  990MOL0     H33600   7.170  10.662   0.600 -0.6130  0.6103  0.0690
  990MOL0     H33601   7.431  10.774   0.517  0.3817  0.0114  0.7644
  990MOL0     H33602   7.481  10.984   0.214 -3.9658 -1.8652 -0.3404
  990MOL0     H33603   7.549  10.966   0.377  0.8448 -3.8222  1.6225
  990MOL0     H33604   7.627  10.722   0.303 -0.6029  0.7774  0.0467
  990MOL0     H33605   7.584  10.774   0.140  0.0388  1.2608 -1.0297
  990MOL0     H33606   7.768  10.938   0.335  1.7059 -0.4440  0.8489
  990MOL0     H33607   7.710  10.971   0.169  2.3969  2.0281  1.7137
  990MOL0     H33608   7.830  10.738   0.104  3.7185 -0.7890 -0.7074
  990MOL0     H33609   7.939  10.789   0.234  0.2229 -0.4460 -0.5757
  990MOL0     H33610   8.030  10.970   0.312  0.2003 -0.9470 -1.6553
  990MOL0     H33611   8.236  11.115   0.351 -0.5928  1.9594  0.1756
  990MOL0     H33612   8.666  10.965   0.101  1.1761 -0.7358  0.3054
  990MOL0     H33613   8.916  10.994   0.157 -0.2630  0.0314 -0.9991
  990MOL0     H33614   9.151  11.100   0.215  2.8580 -0.2163 -0.3500
  990MOL0     H33615   9.151  11.051   0.047 -1.4287 -0.9928  0.5805
  990MOL0     H33616   9.300  11.290   0.181 -0.4986 -0.0475 -0.0136
  990MOL0     H33617   9.371  11.133   0.122  0.6762  0.6557 -1.0952
  990MOL0     H33618   9.227  11.351  -0.055  3.1706  3.1627 -2.6058
  990MOL0     H33619   9.393  11.335  -0.014 -2.5652  3.1092  3.3599
  990MOL0     H33620   9.218  11.161  -0.178 -2.7434  1.5641  3.2212
  990MOL0     H33621   9.353  11.078  -0.098  2.9977  0.7270 -0.0873
  990MOL0     H33622   9.412  11.128  -0.329 -0.0441  0.4107  1.8448
  990MOL0     H33623   9.523  11.217  -0.229  0.0487  1.6177 -1.4720
  990MOL0     H33624   9.275  11.359  -0.331 -0.6163  0.5874  0.2033
  990MOL0     H33625   9.422  11.419  -0.246  3.5567  0.2462 -3.2795
  990MOL0     H33626   9.547  11.305  -0.451  1.2594  0.7756  1.1620
  990MOL0     H33627   9.492  11.471  -0.437  0.9514 -0.6655 -0.0340
  990MOL0     H33628   9.454  11.310  -0.643  0.4622  0.8894 -1.2314
  990MOL0     H33629   9.317  11.253  -0.551 -0.5877  1.2867 -1.2987
  990MOL0     H33630   8.870  11.405   0.029  0.9850  0.3098  0.6965
  990MOL0     H33631   8.619  11.359   0.017  0.7936  0.4252  0.2266
  990MOL0     H33632   8.302  11.091  -0.076 -3.7287 -2.1641 -2.8357
  990MOL0     H33633   8.076  11.005  -0.110 -1.0903  1.0202  0.6760
  990MOL0     H33634   7.531   9.853   1.308  1.1506 -1.2383  0.1700
  990MOL0     H33635   7.706   9.840   1.480  2.8110  0.1200 -1.6344
  990MOL0     H33636   7.914  10.152   1.904  0.0493  5.7352 -1.4933
  990MOL0     H33637   8.099  10.178   2.035  0.6976  1.2134  0.1673
  990MOL0     H33638   8.492  10.098   2.087  0.1578  0.4311 -1.6562
  990MOL0     H33639   8.357   9.999   2.077  1.7876 -0.6900  0.0309
  990MOL0     H33640   8.380  10.159   2.280 -0.5233  2.0843  0.7431
  990MOL0     H33641   8.221  10.172   2.192 -0.7994  0.9698 -2.1739
  990MOL0     H33642   8.288  10.390   2.262  0.4453 -1.2799  2.0669
  990MOL0     H33643   8.283  10.372   2.086 -0.3290 -0.0208  0.4421
  990MOL0     H33644   8.506  10.437   2.267  0.7888 -2.0016  2.0214
  990MOL0     H33645   8.552  10.298   2.187 -0.8411 -0.4668 -0.4803
  990MOL0     H33646   8.555  10.576   1.856  0.6585 -0.4252 -0.8813
  990MOL0     H33647   8.365  10.160   1.699  1.4258  3.3923  5.0949
  990MOL0     H33648   8.160  10.022   1.450  0.6145 -0.6914  0.8294
  990MOL0     H33649   8.081  10.180   1.459 -1.9448 -2.6996  0.9025
  990MOL0     H33650   8.264  10.167   1.469 -1.1431  1.4548 -1.3840
  991MOL0     O33651   4.126   4.815   8.568 -0.5211 -0.5836 -0.1564
  991MOL0     C33652   4.169   4.923   8.536 -0.1511 -1.2828 -0.1265
  991MOL0     O33653   4.296   4.959   8.530 -0.7068 -0.0116 -0.1712
  991MOL0     C33654   4.396   4.867   8.522 -0.4047 -0.2933  0.9038
  991MOL0     C33655   4.524   4.922   8.530 -0.7084 -0.2662 -0.0456
  991MOL0     C33656   4.640   4.840   8.534 -0.1242 -0.4725 -0.3249
  991MOL0     C33657   4.615   4.700   8.534 -0.7624 -0.0955  0.1646
  991MOL0     O33658   4.716   4.609   8.538 -0.5777 -0.5515  0.4583
  991MOL0     C33659   4.828   4.634   8.616 -1.0518 -0.2040  0.2677
  991MOL0     C33660   4.873   4.493   8.674  0.0753  0.1806 -0.0688
  991MOL0     C33661   4.767   4.378   8.687 -0.9351 -0.7103  0.4959
  991MOL0     C33662   4.711   4.310   8.550 -0.7169 -1.3001  0.3565
  991MOL0     C33663   4.766   4.169   8.524 -0.1427  0.1109 -0.2710
  991MOL0     C33664   4.915   4.176   8.488  0.7338  0.1242  0.3530
  991MOL0     C33665   4.996   4.070   8.565  0.7844  0.5731  0.3069
  991MOL0     C33666   5.039   4.098   8.709  0.2511  0.3086  0.2690
  991MOL0     N33667   5.138   4.000   8.760 -0.5694 -0.0343 -0.2933
  991MOL0     C33668   5.109   3.882   8.817  0.3378 -0.3241  0.9195
  991MOL0     C33669   5.227   3.824   8.850  0.0072  0.0440 -0.6422
  991MOL0     C33670   5.241   3.683   8.898 -0.3630  1.1431 -0.3860
  991MOL0     C33671   5.276   3.684   9.046  0.2911 -0.6424 -0.4444
  991MOL0     C33672   5.262   3.531   9.090  0.4017 -0.0525  0.3389
  991MOL0     C33673   5.316   3.510   9.228 -0.3065 -0.4398  0.3160
  991MOL0     O33674   5.441   3.582   9.250 -0.2402 -0.5621  0.3938
  991MOL0     C33675   5.527   3.550   9.358 -1.2345 -0.0530  0.7754
  991MOL0     C33676   5.543   3.433   9.435 -0.1431 -0.9055  0.2469
  991MOL0     C33677   5.636   3.410   9.526  0.0653 -0.6069 -0.3389
  991MOL0     C33678   5.727   3.512   9.563  0.5909 -1.0108  0.2847
  991MOL0     C33679   5.803   3.515   9.686  0.8064  0.0990 -1.5716
  991MOL0     O33680   5.887   3.618   9.721 -0.1640  0.0895 -0.9411
  991MOL0     C33681   5.906   3.627   9.856 -0.3463 -0.0381  0.0291
  991MOL0     C33682   6.030   3.608   9.913 -0.1070 -0.4920 -0.1859
  991MOL0     C33683   6.039   3.595  10.050  0.9426  1.5353  0.1167
  991MOL0     C33684   5.926   3.630  10.136 -0.5444 -0.1130  0.5730
  991MOL0     O33685   5.935   3.612  10.269  0.6218  0.3380  0.0760
  991MOL0     C33686   5.817   3.655  10.346 -0.7988 -0.0468  0.1931
  991MOL0     C33687   5.858   3.626  10.489 -0.0516 -1.0286 -0.6402
  991MOL0     C33688   5.961   3.727  10.544  0.6269 -0.0759 -0.2056
  991MOL0     C33689   5.969   3.740  10.690 -0.9913 -0.2637 -0.2312
  991MOL0     C33690   6.051   3.864  10.744  0.6502  1.0050  0.1798
  991MOL0     C33691   6.074   3.866  10.908 -0.1848  0.6352  1.5498
  991MOL0     C33692   6.146   4.003  10.945 -0.2587 -0.6788 -0.0565
  991MOL0     C33693   6.196   4.009  11.095  0.1103  0.2433 -0.8069
  991MOL0    Cl33694   6.062   3.991  11.214 -0.2355 -0.1693 -0.2345
  991MOL0     C33695   5.805   3.667  10.069 -0.1620 -0.0151 -0.5246
  991MOL0     C33696   5.798   3.665   9.932  0.1617  0.2122  0.7563
  991MOL0     O33697   5.769   3.422   9.759  0.3992 -0.5930 -0.2750
  991MOL0     C33698   5.722   3.633   9.488  0.1999  0.9957 -0.6017
  991MOL0     C33699   5.624   3.644   9.388  0.1116 -0.6741 -0.1337
  991MOL0     N33700   5.332   3.910   8.826  0.3244 -0.3449 -0.3084
  991MOL0     N33701   5.281   4.019   8.772 -0.3403  0.7388  0.8998
  991MOL0     C33702   4.498   4.643   8.512 -0.1716 -0.5848 -0.1472
  991MOL0     C33703   4.385   4.725   8.518  0.0414 -0.3555 -0.6140
  991MOL0     C33704   4.077   5.040   8.538 -0.9598  0.9474  0.1019
  991MOL0     C33705   4.097   5.149   8.456 -0.2633  0.4859 -0.2562
  991MOL0     C33706   4.031   5.274   8.470 -0.4114  0.2859 -0.5895
  991MOL0     C33707   3.927   5.284   8.565  0.1713 -0.6014  0.1349
  991MOL0     O33708   3.856   5.405   8.565 -0.7009  0.1012 -0.1631
  991MOL0     C33709   3.713   5.405   8.573 -0.7146 -0.4785  0.7636
  991MOL0     C33710   3.659   5.484   8.449  0.7640  0.2825  0.6145
  991MOL0     C33711   3.704   5.435   8.315  0.1123 -0.2634 -0.2942
  991MOL0     C33712   3.658   5.524   8.197  0.6067  0.8221 -0.6695
  991MOL0     C33713   3.519   5.556   8.190 -0.4511  0.3196 -0.3982
  991MOL0     C33714   3.404   5.578   8.171 -0.5288 -1.2848 -0.1052
  991MOL0     C33715   3.901   5.172   8.649  0.8705  0.2579 -0.4446
  991MOL0     C33716   3.978   5.053   8.642  0.8254 -0.4472 -0.2008
  991MOL0     C33717   3.942   4.939   8.728 -0.0044  0.4909 -1.4169
  991MOL0     H33718   4.531   5.030   8.520 -0.0174 -0.0658  2.0085
  991MOL0     H33719   4.740   4.882   8.543 -0.3162  0.2803 -1.3990
  991MOL0     H33720   4.911   4.665   8.552 -1.1885  2.3098  1.2222
  991MOL0     H33721   4.802   4.705   8.695 -3.6151  0.9629 -1.4721
  991MOL0     H33722   4.911   4.518   8.774 -1.3946 -0.7533  0.7580
  991MOL0     H33723   4.960   4.452   8.623  2.3028  2.1512  1.8593
  991MOL0     H33724   4.686   4.430   8.739  1.6167  3.1330  1.0133
  991MOL0     H33725   4.802   4.294   8.748 -4.0233 -3.8952 -1.6905
  991MOL0     H33726   4.603   4.310   8.561 -1.1890  1.2997 -2.7410
  991MOL0     H33727   4.732   4.375   8.464  2.9698  2.4767  3.6539
  991MOL0     H33728   4.753   4.121   8.621  1.0248  1.0218  0.3722
  991MOL0     H33729   4.713   4.128   8.438  0.9942  0.1843 -1.0301
  991MOL0     H33730   4.927   4.164   8.380  2.9187  2.4383  0.2284
  991MOL0     H33731   4.955   4.278   8.496 -1.5260  1.0428  0.6167
  991MOL0     H33732   5.091   4.060   8.513  1.0608 -2.1043  1.1863
  991MOL0     H33733   4.931   3.982   8.563  3.5409 -1.5993  1.1499
  991MOL0     H33734   5.089   4.195   8.709 -0.6286  0.7758 -0.3794
  991MOL0     H33735   4.950   4.098   8.773  0.7889 -1.0844  1.0660
  991MOL0     H33736   5.013   3.833   8.832  0.6664 -1.2222  0.1992
  991MOL0     H33737   5.145   3.630   8.896  0.2321 -0.5276  3.8848
  991MOL0     H33738   5.310   3.626   8.836 -3.6020  0.1864 -3.4718
  991MOL0     H33739   5.376   3.715   9.080  1.9922 -1.4137 -4.2504
  991MOL0     H33740   5.189   3.736   9.088 -1.2998 -2.6594 -1.1242
  991MOL0     H33741   5.313   3.464   9.020  3.3011 -2.2910  4.2069
  991MOL0     H33742   5.159   3.495   9.095  1.1832 -2.3396  1.2240
  991MOL0     H33743   5.323   3.402   9.248 -0.8395 -1.2171 -3.0287
  991MOL0     H33744   5.243   3.560   9.293 -1.3141 -0.2659 -0.9012
  991MOL0     H33745   5.481   3.345   9.418  0.7178 -1.8523  1.7927
  991MOL0     H33746   5.639   3.313   9.575 -2.0518 -0.6868 -0.2593
  991MOL0     H33747   6.114   3.583   9.849 -1.0491 -2.8660 -0.6173
  991MOL0     H33748   6.131   3.570  10.101  0.0176 -0.2422  1.0190
  991MOL0     H33749   5.793   3.761  10.335  0.1663  0.2246  0.5991
  991MOL0     H33750   5.737   3.587  10.318 -2.3204  1.5781  0.4214
  991MOL0     H33751   5.773   3.634  10.558 -0.3388 -2.6269 -0.7709
  991MOL0     H33752   5.898   3.527  10.513  1.3967  0.1491  2.3257
  991MOL0     H33753   6.059   3.707  10.500  1.1031  0.8678  0.4216
  991MOL0     H33754   5.932   3.828  10.513  3.8998  0.9821 -0.1770
  991MOL0     H33755   6.004   3.642  10.724  2.5092 -0.5071 -3.8364
  991MOL0     H33756   5.867   3.755  10.725 -1.0248 -1.6310  0.3124
  991MOL0     H33757   6.001   3.954  10.708  0.9244  0.3789 -1.9025
  991MOL0     H33758   6.157   3.864  10.715  1.0151 -1.6166  1.2343
  991MOL0     H33759   5.970   3.854  10.942 -1.4750 -0.3476 -2.2940
  991MOL0     H33760   6.132   3.780  10.944 -1.0312  0.0657  1.6016
  991MOL0     H33761   6.086   4.089  10.914  0.3256 -0.3685 -0.3584
  991MOL0     H33762   6.240   4.002  10.889 -1.6954 -1.5699 -2.6016
  991MOL0     H33763   6.264   3.925  11.112 -0.3634 -0.0443 -0.3009
  991MOL0     H33764   6.255   4.099  11.115 -0.7395  0.9525 -1.3673
  991MOL0     H33765   5.712   3.693  10.119 -0.9663 -5.9257  1.8970
  991MOL0     H33766   5.708   3.694   9.880 -0.0140 -2.2378 -0.4479
  991MOL0     H33767   5.785   3.717   9.514 -1.1069  2.0705 -0.8118
  991MOL0     H33768   5.622   3.739   9.335 -0.8386 -1.8294 -2.3105
  991MOL0     H33769   4.485   4.535   8.507 -4.6922 -0.4960  3.2724
  991MOL0     H33770   4.289   4.675   8.509 -0.4369  0.3119  0.5850
  991MOL0     H33771   4.170   5.137   8.377 -0.0859  1.1870 -0.2039
  991MOL0     H33772   4.042   5.359   8.403 -0.9436 -1.0412 -2.4692
  991MOL0     H33773   3.678   5.449   8.667 -1.5647  1.1167 -0.2585
  991MOL0     H33774   3.675   5.303   8.558  0.3493 -0.7849  0.0171
  991MOL0     H33775   3.693   5.588   8.456  1.0040  0.2824 -0.4847
  991MOL0     H33776   3.550   5.477   8.452  0.8336 -1.1013  0.8292
  991MOL0     H33777   3.663   5.337   8.289 -1.8388  0.8313 -1.5891
  991MOL0     H33778   3.814   5.441   8.320  0.3504 -0.2600 -3.4454
  991MOL0     H33779   3.713   5.617   8.177  0.8114  0.0594 -4.5498
  991MOL0     H33780   3.674   5.465   8.106 -1.0917 -0.2904 -0.2940
  991MOL0     H33781   3.299   5.580   8.147 -1.2059  2.3920  2.3439
  991MOL0     H33782   3.832   5.196   8.729 -1.0959  0.0171 -1.9679
  991MOL0     H33783   4.031   4.920   8.788  0.7741  2.2193 -1.9783
  991MOL0     H33784   3.860   4.939   8.800  1.0801 -3.9916  0.1267
  991MOL0     H33785   3.912   4.852   8.669  1.7056 -0.4028 -1.0265
  992MOL0     O33786   8.251   3.448   9.868 -0.4239  0.2147 -1.1817
  992MOL0     C33787   8.156   3.440   9.795  0.1783 -0.7277  0.9599
  992MOL0     O33788   8.147   3.502   9.675  0.1277 -0.7929  0.3008
  992MOL0     C33789   8.257   3.497   9.587  0.1470 -0.0039  0.6855
  992MOL0     C33790   8.389   3.467   9.615  0.4242  0.0986  0.4512
  992MOL0     C33791   8.487   3.464   9.511 -0.1955 -0.7386 -0.0175
  992MOL0     C33792   8.454   3.525   9.388 -0.6387 -0.1750 -0.0536
  992MOL0     O33793   8.536   3.544   9.281  1.0222  0.2961 -0.5186
  992MOL0     C33794   8.681   3.542   9.294 -0.6702 -1.2378 -0.5388
  992MOL0     C33795   8.762   3.553   9.162  0.0390  0.5547  0.1135
  992MOL0     C33796   8.805   3.704   9.141  0.0594  0.2719 -1.2184
  992MOL0     C33797   8.919   3.714   9.037 -0.5671 -0.1540  0.2072
  992MOL0     C33798   8.996   3.848   9.072 -0.0274  0.0589 -0.5404
  992MOL0     C33799   9.107   3.842   9.180  0.9371 -0.3693  0.2326
  992MOL0     C33800   9.228   3.756   9.142  0.0062  0.3684 -0.2140
  992MOL0     C33801   9.335   3.774   9.257  0.0087  0.0866  0.8326
  992MOL0     N33802   9.426   3.659   9.258  0.1783  0.4375  0.0151
  992MOL0     C33803   9.561   3.663   9.224  0.8288 -0.0269 -0.8507
  992MOL0     C33804   9.615   3.542   9.241  0.4111 -0.7445 -0.1737
  992MOL0     C33805   9.745   3.498   9.199  0.0829 -0.4810  0.6528
  992MOL0     C33806   9.851   3.507   9.306 -0.2911  0.1254 -0.7240
  992MOL0     C33807   9.986   3.507   9.229  0.8500 -0.1773 -0.1868
  992MOL0     C33808  10.020   3.654   9.194  0.2170  0.2328 -0.4624
  992MOL0     O33809  10.150   3.632   9.136  0.2466  0.4715  0.3257
  992MOL0     C33810  10.192   3.744   9.074 -0.2737  0.3928  0.9259
  992MOL0     C33811  10.182   3.875   9.122 -0.1145  0.3676 -0.5743
  992MOL0     C33812  10.253   3.980   9.057 -0.5574  0.7490  0.4870
  992MOL0     C33813  10.331   3.948   8.942 -0.5524  0.8806  0.1867
  992MOL0     C33814  10.403   4.061   8.873  0.2895  0.6454 -0.3196
  992MOL0     O33815  10.494   4.045   8.774 -0.4564  1.1633  0.0192
  992MOL0     C33816  10.532   4.142   8.682 -0.2375  0.1760 -0.1834
  992MOL0     C33817  10.663   4.131   8.643 -0.1273  0.5552  0.3201
  992MOL0     C33818  10.701   4.202   8.530 -0.2052 -0.0162 -0.0158
  992MOL0     C33819  10.609   4.292   8.466  0.0590 -0.1741 -0.0921
  992MOL0     O33820  10.641   4.362   8.355  0.1913 -0.0836 -0.0582
  992MOL0     C33821  10.779   4.400   8.338 -0.5965 -0.1055  0.0263
  992MOL0     C33822  10.806   4.512   8.227  0.1100 -0.4330 -0.4612
  992MOL0     C33823  10.740   4.656   8.267  0.0858  0.9115  0.0350
  992MOL0     C33824  10.807   4.782   8.210  0.9632 -1.1607  0.2114
  992MOL0     C33825  10.721   4.906   8.220  0.1465 -0.1861 -1.1999
  992MOL0     C33826  10.800   5.032   8.184 -0.0594 -0.4175 -0.8853
  992MOL0     C33827  10.709   5.146   8.153 -0.4087 -0.1428  0.1629
  992MOL0     C33828  10.783   5.279   8.168 -0.9378  0.4004 -1.1783
  992MOL0    Cl33829  10.715   5.404   8.069  0.3746 -0.2316 -0.2528
  992MOL0     C33830  10.478   4.295   8.511  0.2523 -0.1670  0.8601
  992MOL0     C33831  10.437   4.224   8.616 -0.1036 -0.7448 -0.6496
  992MOL0     O33832  10.373   4.174   8.913  0.3615  0.8632  0.0625
  992MOL0     C33833  10.346   3.816   8.903  0.7116  0.4012  1.1885
  992MOL0     C33834  10.268   3.719   8.959 -0.8938  0.3532 -0.6435
  992MOL0     N33835   9.510   3.458   9.286 -0.6672 -0.4304 -0.3361
  992MOL0     N33836   9.402   3.527   9.292  0.1091 -0.6622  0.4906
  992MOL0     C33837   8.323   3.555   9.361  0.4171  0.1133 -0.1151
  992MOL0     C33838   8.219   3.528   9.452 -0.5481 -0.7875 -0.1571
  992MOL0     C33839   8.033   3.387   9.856 -0.3410  0.3746 -0.7069
  992MOL0     C33840   8.044   3.267   9.924  0.8453  0.3162  0.7400
  992MOL0     C33841   7.927   3.207   9.974  0.1699 -0.7680  0.0923
  992MOL0     C33842   7.799   3.288   9.973 -0.9263  0.7061  0.3119
  992MOL0     O33843   7.687   3.228  10.021  0.3149  0.1637 -0.8083
  992MOL0     C33844   7.572   3.295  10.045 -0.1715 -0.5377 -0.4750
  992MOL0     C33845   7.465   3.215  10.125  0.2449 -0.5737  0.2446
  992MOL0     C33846   7.335   3.207  10.048 -0.2466 -0.5661  0.1930
  992MOL0     C33847   7.220   3.138  10.116 -0.0370  0.6685 -0.2542
  992MOL0     C33848   7.106   3.111  10.025 -0.2195  0.1601  0.6551
  992MOL0     C33849   7.004   3.088   9.962 -0.0017 -0.6766 -0.0409
  992MOL0     C33850   7.799   3.406   9.911  0.1040 -0.0212 -0.6561
  992MOL0     C33851   7.911   3.453   9.854 -0.4974  0.7409 -0.1302
  992MOL0     C33852   7.909   3.595   9.802  0.8200 -0.4646 -0.0561
  992MOL0     H33853   8.424   3.444   9.715  0.1334  4.3197  1.7076
  992MOL0     H33854   8.588   3.429   9.531  1.5680  3.6641 -0.0374
  992MOL0     H33855   8.703   3.635   9.349 -2.5419 -0.8304 -0.3997
  992MOL0     H33856   8.699   3.450   9.350 -3.5160 -2.1064 -0.8855
  992MOL0     H33857   8.702   3.516   9.078 -1.8042  0.3858  1.4253
  992MOL0     H33858   8.850   3.490   9.173 -0.8393 -0.6211  0.6342
  992MOL0     H33859   8.840   3.741   9.239  0.0116 -1.5701 -0.4655
  992MOL0     H33860   8.719   3.763   9.108 -0.8821 -0.8648 -0.8607
  992MOL0     H33861   8.980   3.624   9.044  0.2890  0.4968  1.5202
  992MOL0     H33862   8.881   3.714   8.935  1.6451 -0.1327 -0.6719
  992MOL0     H33863   9.049   3.877   8.981  0.8695 -0.0025 -0.0440
  992MOL0     H33864   8.925   3.922   9.109  3.1563  1.5239  3.3347
  992MOL0     H33865   9.142   3.946   9.191 -0.7331  0.1638  0.7279
  992MOL0     H33866   9.056   3.815   9.273 -0.1773  1.2312  0.1333
  992MOL0     H33867   9.281   3.799   9.057  2.3512  0.2977  1.1332
  992MOL0     H33868   9.203   3.652   9.116 -0.5746  0.2932  0.5772
  992MOL0     H33869   9.379   3.873   9.247  0.6871 -0.2861 -0.1067
  992MOL0     H33870   9.288   3.765   9.355 -1.6590  2.3462  0.3152
  992MOL0     H33871   9.612   3.752   9.189 -0.0350  1.5130  1.5056
  992MOL0     H33872   9.740   3.393   9.167 -2.1857  0.0571 -1.0543
  992MOL0     H33873   9.759   3.558   9.109 -1.4239 -0.3193  0.4985
  992MOL0     H33874   9.836   3.593   9.371  0.6118  0.0362 -0.3845
  992MOL0     H33875   9.855   3.415   9.366  3.6277  0.2395 -0.5202
  992MOL0     H33876   9.987   3.450   9.136 -0.4671 -2.6395  1.1937
  992MOL0     H33877  10.063   3.465   9.295 -0.1936  0.6854  1.6449
  992MOL0     H33878  10.025   3.723   9.279 -0.4583 -0.6827  0.3493
  992MOL0     H33879   9.947   3.699   9.126  2.3294  1.9805 -1.6976
  992MOL0     H33880  10.119   3.903   9.206  1.9561 -0.0619  1.2276
  992MOL0     H33881  10.230   4.080   9.091 -2.4754 -0.5752  3.5339
  992MOL0     H33882  10.726   4.065   8.701 -0.7646  1.1714  1.7607
  992MOL0     H33883  10.799   4.191   8.484  0.1703 -1.6926  1.0670
  992MOL0     H33884  10.823   4.421   8.436 -2.3540 -0.2794  0.8848
  992MOL0     H33885  10.828   4.308   8.306  1.2834  1.6191 -2.4040
  992MOL0     H33886  10.913   4.532   8.215  0.6692 -1.2347  2.3917
  992MOL0     H33887  10.760   4.466   8.139  1.0251 -0.6534 -0.8340
  992MOL0     H33888  10.636   4.657   8.230 -0.2554  0.2073  0.9358
  992MOL0     H33889  10.726   4.657   8.376 -0.9490  3.0574 -0.0586
  992MOL0     H33890  10.838   4.763   8.107 -3.0924  0.8266 -1.6235
  992MOL0     H33891  10.891   4.808   8.275  0.8452  0.8122 -0.3852
  992MOL0     H33892  10.676   4.933   8.316 -1.7295 -1.7726 -1.5654
  992MOL0     H33893  10.645   4.886   8.144  0.0780 -3.8497 -0.3416
  992MOL0     H33894  10.859   5.054   8.274 -1.5328  1.1191 -0.2369
  992MOL0     H33895  10.875   5.013   8.107  0.2074  0.4067 -0.8322
  992MOL0     H33896  10.615   5.151   8.209 -1.8627  0.3640 -2.1850
  992MOL0     H33897  10.676   5.135   8.049  2.6493  0.8930 -1.0388
  992MOL0     H33898  10.803   5.306   8.272  0.6604 -1.3972 -0.9541
  992MOL0     H33899  10.883   5.256   8.128 -1.6710 -1.5652 -1.9771
  992MOL0     H33900  10.401   4.356   8.464  0.6753  0.8324  1.4380
  992MOL0     H33901  10.329   4.221   8.631  0.2346 -0.6132  2.3827
  992MOL0     H33902  10.404   3.777   8.820  1.7131 -0.4982  2.2725
  992MOL0     H33903  10.278   3.616   8.928  2.8692  0.4524 -0.2150
  992MOL0     H33904   8.298   3.605   9.269 -1.8184  0.8320  0.8107
  992MOL0     H33905   8.114   3.545   9.431  0.1662  1.4036 -2.4506
  992MOL0     H33906   8.137   3.213   9.937 -0.4269 -2.3241 -0.1987
  992MOL0     H33907   7.916   3.108  10.016  0.1468 -1.5478 -1.6420
  992MOL0     H33908   7.533   3.325   9.948  0.2937  2.1698  0.1054
  992MOL0     H33909   7.594   3.384  10.105  0.8711 -0.1846 -1.3403
  992MOL0     H33910   7.449   3.270  10.218 -2.8005 -0.8670 -0.0209
  992MOL0     H33911   7.497   3.113  10.147  2.4650  0.1637  0.6878
  992MOL0     H33912   7.364   3.157   9.956  2.5983 -1.5129  1.4811
  992MOL0     H33913   7.307   3.309  10.019  2.6783  0.2236 -0.1759
  992MOL0     H33914   7.244   3.047  10.171 -0.9199  2.2027  2.9062
  992MOL0     H33915   7.182   3.204  10.194  3.1425  1.5415  0.6885
  992MOL0     H33916   6.917   3.089   9.900  1.8650  4.0962 -3.1989
  992MOL0     H33917   7.702   3.456   9.910 -1.5829 -2.9724  1.1293
  992MOL0     H33918   7.920   3.607   9.694 -0.5949  0.7785 -0.0923
  992MOL0     H33919   7.816   3.644   9.832  0.6364 -0.7827 -0.0938
  992MOL0     H33920   7.989   3.657   9.843  0.2051  1.7023 -1.9204
  993MOL0     O33921   2.717   6.390   2.281 -0.1986  0.4959  0.7928
  993MOL0     C33922   2.831   6.392   2.311 -1.3079 -1.1429  0.3466
  993MOL0     O33923   2.898   6.297   2.390  0.0928 -0.3037 -0.3566
  993MOL0     C33924   2.844   6.205   2.473  0.0148  0.4012  0.3293
  993MOL0     C33925   2.809   6.076   2.408  0.9047 -0.3048 -0.3338
  993MOL0     C33926   2.764   5.971   2.492  0.2857  0.7891 -0.2628
  993MOL0     C33927   2.763   5.992   2.630 -0.9807  0.7271  0.1447
  993MOL0     O33928   2.718   5.904   2.723 -0.7215  0.2441  0.0389
  993MOL0     C33929   2.670   5.778   2.676  0.7584 -0.2643 -0.5214
  993MOL0     C33930   2.628   5.688   2.790 -0.1068 -0.2180 -0.7720
  993MOL0     C33931   2.609   5.552   2.740 -0.0733  0.4742 -0.0437
  993MOL0     C33932   2.522   5.457   2.836  0.7914  0.6217  0.5940
  993MOL0     C33933   2.473   5.326   2.773 -0.5268  0.2573 -0.3653
  993MOL0     C33934   2.408   5.247   2.884 -0.0767  0.0564 -0.3745
  993MOL0     C33935   2.335   5.122   2.819 -0.3838 -0.1560 -0.0627
  993MOL0     C33936   2.425   5.008   2.831  0.5853  0.1230 -0.3137
  993MOL0     N33937   2.369   4.897   2.755 -1.0408 -0.2081 -0.6691
  993MOL0     C33938   2.306   4.790   2.815  0.4610 -0.3174 -0.2268
  993MOL0     C33939   2.260   4.715   2.714  0.9185  0.0493 -0.9373
  993MOL0     C33940   2.173   4.596   2.731  0.2172  0.9766  0.0514
  993MOL0     C33941   2.038   4.615   2.804  0.6874  0.7181 -0.1099
  993MOL0     C33942   1.959   4.492   2.783  1.1604  0.0263 -0.1571
  993MOL0     C33943   1.811   4.512   2.833  0.4341  0.0162 -0.0170
  993MOL0     O33944   1.725   4.391   2.815  0.0557 -0.1874  0.0864
  993MOL0     C33945   1.655   4.400   2.701  0.3632 -0.9853 -0.5625
  993MOL0     C33946   1.548   4.312   2.697 -0.5738 -0.3320  0.5450
  993MOL0     C33947   1.453   4.316   2.591 -0.0434  0.4643 -0.3913
  993MOL0     C33948   1.478   4.392   2.480  0.6983 -0.0158  0.6044
  993MOL0     C33949   1.375   4.399   2.371  0.9401 -0.4573 -0.5341
  993MOL0     O33950   1.420   4.447   2.251  0.4915  0.4847 -0.3931
  993MOL0     C33951   1.345   4.419   2.142  0.6513 -0.1423 -1.0715
  993MOL0     C33952   1.239   4.502   2.102 -0.4547 -0.4571  1.0567
  993MOL0     C33953   1.156   4.479   1.992 -0.3183  0.2510  0.8527
  993MOL0     C33954   1.178   4.364   1.911  0.3255  0.2971  0.3112
  993MOL0     O33955   1.102   4.320   1.804 -0.6455  0.9520  0.2336
  993MOL0     C33956   0.993   4.405   1.780  0.4280  0.5991 -0.2752
  993MOL0     C33957   0.895   4.326   1.690  0.6061 -0.6461  0.5365
  993MOL0     C33958   0.748   4.378   1.713  0.8772 -0.9045  0.4309
  993MOL0     C33959   0.654   4.322   1.617 -0.4231 -0.2978 -0.5770
  993MOL0     C33960   0.606   4.181   1.666  0.4027 -0.8519  0.4880
  993MOL0     C33961   0.491   4.125   1.589  0.9076 -0.4979  0.0134
  993MOL0     C33962   0.505   3.976   1.550  1.0628  0.3792 -0.3345
  993MOL0     C33963   0.498   3.885   1.678  0.1606  0.3724 -0.3564
  993MOL0    Cl33964   0.366   3.909   1.787  0.3397 -0.1488 -0.3041
  993MOL0     C33965   1.299   4.285   1.941 -0.7916 -0.7523 -0.5395
  993MOL0     C33966   1.376   4.311   2.061 -0.7355  0.2210  0.9023
  993MOL0     O33967   1.257   4.359   2.395 -0.1351 -0.0521  0.1362
  993MOL0     C33968   1.587   4.474   2.474  0.5663  0.7096 -0.4962
  993MOL0     C33969   1.683   4.474   2.580  0.8224  0.1337 -0.0336
  993MOL0     N33970   2.295   4.781   2.599  0.0245  0.3630  0.2028
  993MOL0     N33971   2.366   4.889   2.628 -1.1282  0.5505  0.5139
  993MOL0     C33972   2.791   6.113   2.687 -0.0028 -0.9787  0.4757
  993MOL0     C33973   2.833   6.224   2.614  0.6400  0.2572  0.0958
  993MOL0     C33974   2.914   6.487   2.234 -0.3814  0.0941  1.7000
  993MOL0     C33975   2.860   6.613   2.211 -0.6277 -0.0032 -0.3011
  993MOL0     C33976   2.937   6.707   2.134  0.7644 -0.1083 -0.3293
  993MOL0     C33977   3.060   6.675   2.080 -0.5390 -0.4027 -0.2240
  993MOL0     O33978   3.126   6.758   1.990 -0.0942  0.7221  0.3005
  993MOL0     C33979   3.075   6.874   1.926  0.7438 -0.1789 -0.0920
  993MOL0     C33980   3.202   6.940   1.881  0.3343 -0.4997 -0.4250
  993MOL0     C33981   3.312   6.846   1.809 -0.4858  0.5506 -0.2186
  993MOL0     C33982   3.293   6.840   1.655 -0.2757  0.4387 -0.4061
  993MOL0     C33983   3.358   6.717   1.610  0.7148 -0.0590  0.6519
  993MOL0     C33984   3.412   6.612   1.586 -0.7963 -0.1085 -0.1067
  993MOL0     C33985   3.121   6.553   2.116 -0.4493  0.0367 -0.0745
  993MOL0     C33986   3.039   6.458   2.175  0.2414 -0.0983 -0.0968
  993MOL0     C33987   3.108   6.325   2.198  0.3717 -0.8441 -0.7210
  993MOL0     H33988   2.807   6.076   2.300  1.6263 -1.4638 -0.3615
  993MOL0     H33989   2.711   5.892   2.440 -0.4292  0.4153  1.0000
  993MOL0     H33990   2.577   5.793   2.620  1.2744  0.5970 -1.1588
  993MOL0     H33991   2.752   5.732   2.619 -0.0591 -3.8438  0.8958
  993MOL0     H33992   2.537   5.735   2.831  0.4582  0.4666 -0.2779
  993MOL0     H33993   2.696   5.678   2.875 -1.4139 -2.1964  0.1384
  993MOL0     H33994   2.708   5.507   2.723 -0.9023 -0.7016 -2.0866
  993MOL0     H33995   2.561   5.558   2.642  0.1865 -2.1568 -0.4177
  993MOL0     H33996   2.577   5.427   2.926  0.1728 -0.0367  0.7657
  993MOL0     H33997   2.433   5.507   2.875 -2.2816 -2.4532 -1.8418
  993MOL0     H33998   2.418   5.346   2.681  0.5686 -1.2049 -1.3871
  993MOL0     H33999   2.567   5.279   2.744  1.4815  3.8160 -0.2339
  993MOL0     H34000   2.481   5.223   2.962 -0.1924 -1.4814 -0.6924
  993MOL0     H34001   2.331   5.302   2.938 -0.2975 -0.5750 -0.0392
  993MOL0     H34002   2.317   5.146   2.713 -0.1359  1.0346  0.1455
  993MOL0     H34003   2.240   5.096   2.866 -0.0025 -1.2860  0.1014
  993MOL0     H34004   2.528   5.036   2.806  1.7802 -2.0796  1.6819
  993MOL0     H34005   2.423   4.987   2.939  0.7841  2.2826  0.1477
  993MOL0     H34006   2.281   4.765   2.917 -3.4179  3.9880  0.1684
  993MOL0     H34007   2.155   4.546   2.636  1.9146  0.7467 -0.1798
  993MOL0     H34008   2.230   4.529   2.797  0.7430  3.5667  2.4302
  993MOL0     H34009   2.059   4.635   2.910  1.4220 -1.0216  0.1201
  993MOL0     H34010   1.992   4.699   2.753  0.9608 -1.6252 -4.7001
  993MOL0     H34011   2.005   4.411   2.840  2.3647  1.3906  0.8694
  993MOL0     H34012   1.957   4.470   2.676  1.3464  3.3645 -0.9632
  993MOL0     H34013   1.782   4.601   2.777  1.5747  1.4198  1.5059
  993MOL0     H34014   1.808   4.541   2.939 -1.0359  3.0950 -0.8084
  993MOL0     H34015   1.516   4.242   2.774 -1.9734 -0.7929 -0.4060
  993MOL0     H34016   1.369   4.249   2.607  0.0709  0.4553  0.1862
  993MOL0     H34017   1.212   4.586   2.165  0.9920 -0.8986  2.3285
  993MOL0     H34018   1.084   4.557   1.969  0.6572  1.1696  0.8255
  993MOL0     H34019   0.940   4.414   1.876  1.9039  0.2834  0.6044
  993MOL0     H34020   1.014   4.500   1.731  1.1635 -2.0100 -5.7763
  993MOL0     H34021   0.932   4.324   1.587 -1.4882 -0.0005 -0.2890
  993MOL0     H34022   0.887   4.220   1.713 -2.1890 -0.8989 -1.0637
  993MOL0     H34023   0.713   4.368   1.816  0.2086 -1.7007  0.1303
  993MOL0     H34024   0.741   4.486   1.694  1.5418 -1.0952 -1.0093
  993MOL0     H34025   0.705   4.311   1.521  3.9271 -3.1396  1.7295
  993MOL0     H34026   0.567   4.386   1.603 -2.6731 -3.1972 -0.7937
  993MOL0     H34027   0.575   4.188   1.771  0.1533 -0.3185  0.3835
  993MOL0     H34028   0.699   4.124   1.661  1.4453  0.8644 -1.1105
  993MOL0     H34029   0.405   4.143   1.654  0.2981  0.3884 -1.0022
  993MOL0     H34030   0.498   4.174   1.491  1.7264  0.0109  0.3134
  993MOL0     H34031   0.604   3.952   1.510  1.6938  1.5554  0.4769
  993MOL0     H34032   0.430   3.952   1.474  0.4566  1.4305 -0.0905
  993MOL0     H34033   0.491   3.782   1.641 -0.4149  0.3739 -0.2648
  993MOL0     H34034   0.599   3.892   1.720  0.6124 -2.7618 -0.6689
  993MOL0     H34035   1.319   4.195   1.883 -1.2232 -0.1938 -1.5731
  993MOL0     H34036   1.448   4.236   2.091 -0.3112 -0.8178 -2.3155
  993MOL0     H34037   1.590   4.548   2.395  2.4315 -0.0743 -1.2123
  993MOL0     H34038   1.769   4.536   2.557  1.8429 -0.7754  1.1513
  993MOL0     H34039   2.761   6.123   2.791  2.6212  1.1623  1.1534
  993MOL0     H34040   2.856   6.318   2.663  1.5825  0.6541 -1.0633
  993MOL0     H34041   2.762   6.640   2.251 -0.5777  1.0627 -0.8637
  993MOL0     H34042   2.909   6.811   2.121  1.6578  0.5986  2.6191
  993MOL0     H34043   3.006   6.941   1.978  0.5027 -1.8500  1.8342
  993MOL0     H34044   3.021   6.840   1.837  0.2655 -3.1803  1.2564
  993MOL0     H34045   3.235   6.995   1.969 -0.6107  1.1085 -1.0305
  993MOL0     H34046   3.170   7.018   1.811 -1.7677  0.8355  1.8884
  993MOL0     H34047   3.304   6.744   1.849 -0.0738  0.5011 -0.2628
  993MOL0     H34048   3.411   6.884   1.832 -0.2623  1.2064 -2.1233
  993MOL0     H34049   3.187   6.829   1.633 -0.0037 -2.7070 -0.5687
  993MOL0     H34050   3.338   6.927   1.606 -0.4503  1.4811  1.2058
  993MOL0     H34051   3.455   6.525   1.540  0.6406  1.5826 -2.1590
  993MOL0     H34052   3.225   6.531   2.092 -0.2606  0.2756  0.4954
  993MOL0     H34053   3.196   6.325   2.133  3.6426  4.7608  2.9252
  993MOL0     H34054   3.143   6.297   2.298 -0.7688 -3.3804 -0.9508
  993MOL0     H34055   3.039   6.246   2.167  0.8513 -1.1747 -0.9543
  994MOL0     O34056   6.750   2.298  10.312 -0.3078  0.7754  0.0532
  994MOL0     C34057   6.731   2.253  10.424  0.5529 -0.1157  0.6764
  994MOL0     O34058   6.814   2.261  10.529 -0.1262  1.2167 -0.2076
  994MOL0     C34059   6.937   2.326  10.524  0.1312 -0.0526 -0.3473
  994MOL0     C34060   6.979   2.383  10.633 -0.5258 -0.2681 -0.1914
  994MOL0     C34061   7.105   2.438  10.638  0.1643  0.5204  0.0213
  994MOL0     C34062   7.198   2.437  10.537  0.7772 -0.1399  0.5514
  994MOL0     O34063   7.315   2.504  10.560  0.2717 -0.3122 -0.2201
  994MOL0     C34064   7.421   2.404  10.580 -0.1802 -0.2685  0.0557
  994MOL0     C34065   7.555   2.475  10.592  1.0463  0.1597  0.1926
  994MOL0     C34066   7.620   2.560  10.473 -0.3191 -0.1059 -0.2241
  994MOL0     C34067   7.535   2.673  10.427 -0.0182 -0.9879 -0.0761
  994MOL0     C34068   7.604   2.763  10.319 -0.1214  0.3213  0.2188
  994MOL0     C34069   7.613   2.695  10.181 -0.5585  0.2707  0.7439
  994MOL0     C34070   7.721   2.751  10.088  0.7344 -0.5232 -0.3704
  994MOL0     C34071   7.678   2.885  10.029  0.2440 -0.3659  0.1444
  994MOL0     N34072   7.551   2.859   9.947  0.1505  0.1662  0.2350
  994MOL0     C34073   7.544   2.785   9.830  0.0607  0.1783  0.8045
  994MOL0     C34074   7.420   2.784   9.784  0.9793 -0.3967  0.5021
  994MOL0     C34075   7.378   2.700   9.662 -0.3400 -0.2863 -1.0140
  994MOL0     C34076   7.231   2.664   9.680 -0.2374  0.3631 -0.5452
  994MOL0     C34077   7.153   2.779   9.603  0.2275 -0.4069  0.9760
  994MOL0     C34078   7.004   2.763   9.595 -0.3337 -0.6650 -0.4887
  994MOL0     O34079   6.947   2.813   9.476 -0.8648 -0.0361 -0.2661
  994MOL0     C34080   6.814   2.795   9.449  0.4150 -0.2736  0.6020
  994MOL0     C34081   6.788   2.851   9.327  0.2874  0.1575 -0.0467
  994MOL0     C34082   6.658   2.881   9.295 -0.0869  0.2026  0.1839
  994MOL0     C34083   6.558   2.834   9.377 -0.1036 -0.0567 -0.0773
  994MOL0     C34084   6.415   2.847   9.319  0.1043 -0.8210 -0.3288
  994MOL0     O34085   6.403   2.909   9.198  0.5549  0.5811 -0.5616
  994MOL0     C34086   6.287   2.919   9.126  0.1032 -0.2919  0.7268
  994MOL0     C34087   6.181   2.824   9.131  0.6215  0.1637  1.3416
  994MOL0     C34088   6.065   2.845   9.051  0.1255 -0.0413 -0.1171
  994MOL0     C34089   6.041   2.964   8.984  0.5677  0.6287  0.5642
  994MOL0     O34090   5.916   2.980   8.918  0.1213  0.3157  0.0422
  994MOL0     C34091   5.872   3.115   8.907 -1.1696  0.6833 -0.0213
  994MOL0     C34092   5.724   3.127   8.863 -0.0790 -0.2252 -0.1826
  994MOL0     C34093   5.689   3.265   8.816  0.8778 -0.6211 -0.0782
  994MOL0     C34094   5.637   3.349   8.934 -0.5569  0.0491 -0.2010
  994MOL0     C34095   5.588   3.481   8.883 -0.3392  0.2095 -0.0246
  994MOL0     C34096   5.690   3.597   8.849 -0.3635  0.0941  1.2266
  994MOL0     C34097   5.625   3.732   8.864 -0.4686  0.6453  1.1489
  994MOL0     C34098   5.724   3.843   8.887  0.9987 -0.7756  0.0522
  994MOL0    Cl34099   5.832   3.819   9.032  0.0616  0.1390  0.1144
  994MOL0     C34100   6.149   3.049   8.972  0.6163 -0.7068 -0.6787
  994MOL0     C34101   6.265   3.022   9.037  0.5145 -0.2137  0.4471
  994MOL0     O34102   6.319   2.809   9.386  0.2801  0.9269 -0.6412
  994MOL0     C34103   6.584   2.755   9.498  0.9410  0.4230  2.2134
  994MOL0     C34104   6.714   2.737   9.537 -0.0042 -0.2040 -0.0153
  994MOL0     N34105   7.351   2.865   9.862 -0.0587 -0.5920 -0.1656
  994MOL0     N34106   7.430   2.909   9.963  0.5240  0.7045  1.4150
  994MOL0     C34107   7.159   2.369  10.423  0.3813  0.0333  0.2426
  994MOL0     C34108   7.032   2.318  10.416  0.6249  0.4094 -0.2008
  994MOL0     C34109   6.614   2.164  10.455 -0.2619  0.8939  0.1230
  994MOL0     C34110   6.553   2.165  10.580  0.2855 -0.1067  0.2836
  994MOL0     C34111   6.440   2.095  10.614 -0.2473  0.3652  0.5307
  994MOL0     C34112   6.396   2.000  10.516 -0.0309 -0.6835 -1.1093
  994MOL0     O34113   6.273   1.935  10.543 -0.9342 -0.0294 -0.4086
  994MOL0     C34114   6.257   1.795  10.496 -0.0302 -0.0388  0.5830
  994MOL0     C34115   6.289   1.703  10.609 -0.7499 -0.5338  0.8710
  994MOL0     C34116   6.207   1.730  10.737  0.0030  0.2055 -0.1025
  994MOL0     C34117   6.283   1.694  10.864 -0.2778 -0.8387  0.0764
  994MOL0     C34118   6.359   1.567  10.860  0.1468  0.0208 -0.3201
  994MOL0     C34119   6.418   1.464  10.883  0.2012 -1.5152  0.5025
  994MOL0     C34120   6.463   1.992  10.395 -0.3148 -0.0681 -0.3941
  994MOL0     C34121   6.572   2.072  10.359 -0.1877  0.6140 -1.1699
  994MOL0     C34122   6.644   2.043  10.228 -0.6536 -1.3903  0.0271
  994MOL0     H34123   6.918   2.371  10.722  0.7180 -4.8398  0.2944
  994MOL0     H34124   7.126   2.489  10.731 -0.1912  2.5146 -0.9354
  994MOL0     H34125   7.410   2.343  10.670  1.4448 -1.2078 -0.3497
  994MOL0     H34126   7.429   2.330  10.501  0.8338  1.7391 -1.8359
  994MOL0     H34127   7.630   2.407  10.633  4.3380  2.8856 -0.8068
  994MOL0     H34128   7.536   2.541  10.677  3.2416 -0.7821  1.4964
  994MOL0     H34129   7.637   2.484  10.396  1.6246  0.1749 -0.1064
  994MOL0     H34130   7.716   2.596  10.511 -1.4545  2.8996  0.1127
  994MOL0     H34131   7.438   2.643  10.386 -0.7575  0.7115  0.3117
  994MOL0     H34132   7.522   2.738  10.515 -0.4423 -1.2816  0.0805
  994MOL0     H34133   7.550   2.857  10.312  4.1392  3.5559  4.3641
  994MOL0     H34134   7.707   2.792  10.344 -1.0819  2.7545  1.6597
  994MOL0     H34135   7.628   2.587  10.193  2.9250  0.6182  0.5245
  994MOL0     H34136   7.518   2.701  10.127  0.8567 -0.3783 -2.0033
  994MOL0     H34137   7.728   2.674  10.011 -0.6322 -0.4548 -0.6018
  994MOL0     H34138   7.818   2.761  10.137  1.5963  1.1040 -2.2495
  994MOL0     H34139   7.669   2.971  10.095  3.1066 -0.2608  0.5251
  994MOL0     H34140   7.755   2.926   9.964 -0.9183 -0.6081 -1.4408
  994MOL0     H34141   7.612   2.708   9.794  0.0040 -0.7299  2.5092
  994MOL0     H34142   7.402   2.754   9.570  3.1094  0.4206  0.1595
  994MOL0     H34143   7.437   2.608   9.662  0.3818  0.1656 -1.3102
  994MOL0     H34144   7.221   2.565   9.635  4.8143 -0.5747 -0.1819
  994MOL0     H34145   7.203   2.660   9.786  1.3649  1.1670 -0.0608
  994MOL0     H34146   7.192   2.773   9.501 -1.4745  2.2077  0.0747
  994MOL0     H34147   7.185   2.876   9.642  1.0256 -0.4324  0.4058
  994MOL0     H34148   6.968   2.815   9.684 -0.9851  1.4253 -1.9017
  994MOL0     H34149   7.000   2.654   9.601 -0.5312 -0.7134 -1.3134
  994MOL0     H34150   6.868   2.881   9.259 -1.8426  0.5967 -2.4960
  994MOL0     H34151   6.629   2.946   9.213 -0.8128 -2.2009 -1.5746
  994MOL0     H34152   6.191   2.731   9.186  0.3658 -0.0130  1.0842
  994MOL0     H34153   5.989   2.769   9.058  0.9293 -0.7323  1.7686
  994MOL0     H34154   5.886   3.167   9.002 -1.1865  1.2134 -0.3065
  994MOL0     H34155   5.949   3.172   8.854 -0.3726  1.8975  2.2865
  994MOL0     H34156   5.704   3.056   8.783  1.7322 -0.6213 -0.3091
  994MOL0     H34157   5.661   3.092   8.946 -1.1251 -1.8792 -1.6212
  994MOL0     H34158   5.777   3.315   8.774  0.3962  2.0273  1.8066
  994MOL0     H34159   5.623   3.259   8.729  1.4605  0.4062 -0.6103
  994MOL0     H34160   5.714   3.361   9.011 -1.1631 -0.7086  0.5588
  994MOL0     H34161   5.556   3.293   8.982 -0.7671  0.3473 -0.2042
  994MOL0     H34162   5.532   3.523   8.967 -1.5301 -4.0660  1.5929
  994MOL0     H34163   5.504   3.481   8.813 -0.8806  0.1481  0.6153
  994MOL0     H34164   5.769   3.601   8.925  0.9443  2.6180 -0.1344
  994MOL0     H34165   5.738   3.587   8.751  0.8083  1.3931  1.6325
  994MOL0     H34166   5.547   3.737   8.941 -2.4519  2.2837 -0.7943
  994MOL0     H34167   5.555   3.735   8.779  0.8947 -1.5181 -0.1324
  994MOL0     H34168   5.792   3.851   8.801 -1.9338  1.9913 -2.3046
  994MOL0     H34169   5.668   3.937   8.895 -0.2819 -1.2841 -2.0423
  994MOL0     H34170   6.137   3.142   8.918 -3.2364 -0.1906  0.7143
  994MOL0     H34171   6.347   3.090   9.015  1.3614 -1.7317 -1.3020
  994MOL0     H34172   6.502   2.702   9.545 -0.2298 -0.5587 -0.6635
  994MOL0     H34173   6.724   2.682   9.630 -1.5128 -1.0526 -0.3238
  994MOL0     H34174   7.234   2.350  10.347  1.7093 -0.0849  1.5411
  994MOL0     H34175   7.002   2.274  10.321  1.0060  0.3497 -0.2952
  994MOL0     H34176   6.606   2.216  10.659  0.3979 -0.3454  0.3640
  994MOL0     H34177   6.399   2.093  10.714  2.3639 -0.2194  1.6775
  994MOL0     H34178   6.325   1.782  10.411 -1.2241 -0.4134 -0.3488
  994MOL0     H34179   6.156   1.767  10.463 -1.7946  3.5270  2.3626
  994MOL0     H34180   6.397   1.712  10.628 -0.4230 -0.2588 -0.8685
  994MOL0     H34181   6.272   1.606  10.561 -2.9890  0.4460 -0.5036
  994MOL0     H34182   6.127   1.657  10.723  2.0804 -2.7521  2.1455
  994MOL0     H34183   6.175   1.833  10.756  1.8896  0.8475 -0.1083
  994MOL0     H34184   6.356   1.774  10.874  0.8793 -2.0683  2.2333
  994MOL0     H34185   6.211   1.708  10.944 -1.6026  4.1342 -1.6099
  994MOL0     H34186   6.470   1.372  10.899  2.6817 -0.9443 -3.0678
  994MOL0     H34187   6.423   1.937  10.311 -0.8487  1.0861 -0.9168
  994MOL0     H34188   6.637   2.126  10.156  1.1926  0.5969  1.9883
  994MOL0     H34189   6.751   2.031  10.246  0.2489 -0.3473 -3.7694
  994MOL0     H34190   6.599   1.952  10.186  0.9003 -2.0597 -0.2549
  995MOL0     O34191   9.981   6.272  10.160  0.5998 -1.0791 -0.4449
  995MOL0     C34192  10.000   6.195  10.067  0.2805  0.5036 -0.3207
  995MOL0     O34193  10.100   6.212   9.971  0.0645  0.0102 -0.5994
  995MOL0     C34194  10.175   6.327   9.972  0.2099  0.4694 -0.3114
  995MOL0     C34195  10.220   6.368   9.843 -0.3245 -0.2991  0.3918
  995MOL0     C34196  10.295   6.490   9.843  0.3864  0.9579  0.3186
  995MOL0     C34197  10.348   6.547   9.959  0.6656 -0.3400 -0.5422
  995MOL0     O34198  10.447   6.635   9.966  0.0557  0.2668  0.3637
  995MOL0     C34199  10.563   6.636   9.879 -0.4432  0.2616  0.1900
  995MOL0     C34200  10.675   6.580   9.954 -0.3514  0.0951 -0.8610
  995MOL0     C34201  10.799   6.553   9.876  0.5514 -0.0920 -0.1559
  995MOL0     C34202  10.919   6.503   9.950  0.2846 -1.0758 -0.2590
  995MOL0     C34203  11.039   6.491   9.860 -0.4122  0.1634  0.5181
  995MOL0     C34204  11.029   6.356   9.779  1.1119 -0.4972 -0.2571
  995MOL0     C34205  11.146   6.336   9.683  0.2845  0.3048 -0.9655
  995MOL0     C34206  11.140   6.211   9.595 -0.1473  0.4389  0.4594
  995MOL0     N34207  11.026   6.200   9.497  0.0615 -0.8442 -0.0760
  995MOL0     C34208  10.940   6.097   9.502 -0.3304 -0.3596 -0.5628
  995MOL0     C34209  10.844   6.132   9.414  0.0292 -0.4064 -0.7690
  995MOL0     C34210  10.714   6.059   9.391  0.1442  1.0531  0.8247
  995MOL0     C34211  10.630   6.047   9.506  0.1851 -0.0024 -0.4133
  995MOL0     C34212  10.562   6.177   9.554 -0.2192 -0.2388  0.0358
  995MOL0     C34213  10.664   6.268   9.621  0.1303  0.9390 -0.3382
  995MOL0     O34214  10.737   6.198   9.715 -0.8807 -0.3440 -0.1152
  995MOL0     C34215  10.679   6.158   9.833 -0.2453  0.4578 -0.0644
  995MOL0     C34216  10.569   6.229   9.893  0.4434 -0.0652 -0.2751
  995MOL0     C34217  10.547   6.212  10.032 -0.3037 -0.0020  0.3515
  995MOL0     C34218  10.607   6.111  10.111  0.3050  0.5988 -0.3452
  995MOL0     C34219  10.569   6.092  10.254  0.0144  0.3908 -1.3834
  995MOL0     O34220  10.505   6.199  10.308  0.0298 -0.0209  0.0529
  995MOL0     C34221  10.454   6.204  10.435  0.1659  0.1840 -1.2100
  995MOL0     C34222  10.511   6.144  10.552 -1.1724 -1.1611 -0.0535
  995MOL0     C34223  10.461   6.168  10.679 -0.8025 -0.1737 -0.0299
  995MOL0     C34224  10.351   6.260  10.705 -0.9247 -0.1291  0.8897
  995MOL0     O34225  10.286   6.277  10.825 -0.2706  0.2754 -0.6313
  995MOL0     C34226  10.385   6.297  10.932  0.6738  0.7837 -0.3682
  995MOL0     C34227  10.303   6.294  11.066 -0.2829 -0.2865  1.0029
  995MOL0     C34228  10.200   6.408  11.069  0.7975 -0.1302 -0.0371
  995MOL0     C34229  10.262   6.547  11.079 -1.1163  0.4892 -0.3488
  995MOL0     C34230  10.162   6.649  11.141 -0.6772  0.5402  0.7131
  995MOL0     C34231  10.214   6.793  11.119  1.0560 -0.7578  0.2472
  995MOL0     C34232  10.132   6.925  11.149 -0.2116  0.2597 -0.2233
  995MOL0     C34233  10.184   7.002  11.276  0.7436  0.3213 -0.1317
  995MOL0    Cl34234  10.362   7.041  11.290  0.2003  0.0463 -0.0446
  995MOL0     C34235  10.292   6.314  10.590 -0.3001  0.0922 -0.1122
  995MOL0     C34236  10.350   6.298  10.461 -0.0539  0.3441  0.5007
  995MOL0     O34237  10.585   5.988  10.316  0.7726 -0.4204  0.2928
  995MOL0     C34238  10.697   6.026  10.042  1.1062  0.2956  0.1833
  995MOL0     C34239  10.732   6.052   9.908 -0.3486 -0.1414  0.3236
  995MOL0     N34240  10.886   6.247   9.345 -0.5976  0.2785  0.4070
  995MOL0     N34241  10.996   6.287   9.401 -0.2726  0.4060 -0.1746
  995MOL0     C34242  10.307   6.506  10.080 -0.0864  0.8684 -0.2327
  995MOL0     C34243  10.214   6.400  10.087 -0.2191 -0.2664  0.2711
  995MOL0     C34244   9.908   6.077  10.049 -0.1687  0.4369 -0.3085
  995MOL0     C34245   9.904   6.027   9.915  0.7951  0.5808  0.1602
  995MOL0     C34246   9.811   5.924   9.890 -0.3958 -0.8178  0.9179
  995MOL0     C34247   9.735   5.858   9.988  0.2560  0.3610 -1.3524
  995MOL0     O34248   9.651   5.753   9.963 -0.2202 -0.2878 -0.4708
  995MOL0     C34249   9.716   5.643   9.879  0.4110  1.0817 -0.0953
  995MOL0     C34250   9.794   5.551   9.980 -0.4242  0.4317  0.5711
  995MOL0     C34251   9.748   5.545  10.125  0.0441 -0.7429 -0.3386
  995MOL0     C34252   9.825   5.429  10.181  0.0398 -0.3998 -0.6474
  995MOL0     C34253   9.961   5.487  10.185 -0.7482  0.0821  0.6109
  995MOL0     C34254  10.071   5.535  10.201  0.4046  0.6696  0.3604
  995MOL0     C34255   9.750   5.909  10.121  0.4195  0.3832 -0.9127
  995MOL0     C34256   9.823   6.028  10.153 -0.5430  0.5723  1.3618
  995MOL0     C34257   9.804   6.092  10.281 -0.4266  0.9785  0.4388
  995MOL0     H34258  10.199   6.311   9.753  0.8357 -0.8816  0.4801
  995MOL0     H34259  10.328   6.532   9.749  1.4428  1.8060  1.0404
  995MOL0     H34260  10.543   6.574   9.791  0.3645  0.7485 -0.3542
  995MOL0     H34261  10.583   6.738   9.843 -2.3586 -0.3215 -2.9012
  995MOL0     H34262  10.644   6.482   9.992  0.4201 -0.1801 -0.9260
  995MOL0     H34263  10.702   6.648  10.035 -0.6055 -1.4380  0.5758
  995MOL0     H34264  10.831   6.650   9.836  0.5939  0.0563  0.2300
  995MOL0     H34265  10.784   6.487   9.790  0.6902 -2.2463  1.3935
  995MOL0     H34266  10.940   6.573  10.031  2.0497 -1.8319 -0.0263
  995MOL0     H34267  10.896   6.406   9.996 -1.3034 -0.9582 -0.7177
  995MOL0     H34268  11.051   6.568   9.783 -2.5534 -1.6111 -1.7783
  995MOL0     H34269  11.123   6.482   9.929  0.6584  2.3561 -0.4249
  995MOL0     H34270  11.020   6.274   9.850 -0.2126  0.9843  1.3707
  995MOL0     H34271  10.932   6.353   9.728  0.5704 -0.2592  0.7427
  995MOL0     H34272  11.239   6.355   9.736  0.6475 -2.2832 -0.5774
  995MOL0     H34273  11.135   6.420   9.613  1.4941  0.6160 -0.7975
  995MOL0     H34274  11.237   6.196   9.547  0.3089  0.3632  1.3850
  995MOL0     H34275  11.146   6.125   9.662  0.8611  1.3921  1.6310
  995MOL0     H34276  10.946   6.016   9.573 -0.6651  0.7678  0.8024
  995MOL0     H34277  10.658   6.107   9.310 -0.7629  1.5206  1.7034
  995MOL0     H34278  10.747   5.961   9.355 -0.3785  1.0912  0.2308
  995MOL0     H34279  10.545   5.983   9.478  1.4173 -0.4524 -3.5309
  995MOL0     H34280  10.692   5.997   9.581 -0.4513 -1.6135 -0.9087
  995MOL0     H34281  10.473   6.162   9.616  0.7845  0.8234  1.8261
  995MOL0     H34282  10.520   6.235   9.471 -1.2424 -1.4783 -0.3313
  995MOL0     H34283  10.609   6.350   9.666 -0.8977 -1.0169  2.2411
  995MOL0     H34284  10.737   6.314   9.553  1.0133 -0.6258 -0.5036
  995MOL0     H34285  10.508   6.307   9.847 -1.9505 -1.3944  0.4556
  995MOL0     H34286  10.483   6.285  10.081  2.9599  2.8387  0.7506
  995MOL0     H34287  10.608   6.096  10.542  0.2945  1.5419  0.1405
  995MOL0     H34288  10.505   6.119  10.765 -2.9235  0.0895  1.2776
  995MOL0     H34289  10.465   6.223  10.937  0.7062  0.8235 -0.3029
  995MOL0     H34290  10.441   6.390  10.918  2.7065 -0.2352  0.6916
  995MOL0     H34291  10.246   6.205  11.094 -1.3776 -0.5531 -1.8287
  995MOL0     H34292  10.374   6.297  11.150  0.8420  0.1950  0.0672
  995MOL0     H34293  10.143   6.406  10.976  0.7756  1.8235 -0.0925
  995MOL0     H34294  10.136   6.391  11.156 -1.1242  0.8135 -1.1952
  995MOL0     H34295  10.290   6.582  10.979 -2.6878 -2.2978 -1.9118
  995MOL0     H34296  10.350   6.549  11.143 -1.3584  3.3424  0.0148
  995MOL0     H34297  10.145   6.620  11.246  0.4164 -0.0728  0.7407
  995MOL0     H34298  10.063   6.628  11.099  0.5461 -3.1305 -0.7857
  995MOL0     H34299  10.307   6.798  11.176  2.2085 -1.6137 -1.4675
  995MOL0     H34300  10.247   6.793  11.015  4.5194 -1.8380  1.1977
  995MOL0     H34301  10.024   6.904  11.153 -0.1518  0.0833  0.4801
  995MOL0     H34302  10.135   6.992  11.062 -1.5217 -0.8762 -1.1785
  995MOL0     H34303  10.130   7.097  11.271  2.3004  1.2205 -0.6240
  995MOL0     H34304  10.146   6.955  11.367 -4.2106  2.1179 -0.9493
  995MOL0     H34305  10.213   6.388  10.589  0.0555  0.5193  1.1808
  995MOL0     H34306  10.313   6.352  10.374  0.6922  1.2138  0.7032
  995MOL0     H34307  10.744   5.940  10.087  0.4941  1.3139  2.9393
  995MOL0     H34308  10.812   5.986   9.876 -0.0823 -1.9092  4.0203
  995MOL0     H34309  10.359   6.549  10.166 -0.5583 -0.1727  0.5936
  995MOL0     H34310  10.193   6.358  10.185 -0.6008 -0.5698  0.0586
  995MOL0     H34311   9.961   6.078   9.838  0.9545  1.1429  0.6368
  995MOL0     H34312   9.818   5.900   9.784  0.2978 -0.6327  0.9149
  995MOL0     H34313   9.783   5.683   9.803  0.0247 -0.9284 -1.5699
  995MOL0     H34314   9.628   5.597   9.832 -0.1082  0.5527  1.3294
  995MOL0     H34315   9.898   5.585   9.974 -0.3603  0.0703 -0.6476
  995MOL0     H34316   9.799   5.455   9.927 -2.3527  1.5881 -1.9405
  995MOL0     H34317   9.641   5.524  10.136 -0.0950  0.5103  1.0865
  995MOL0     H34318   9.779   5.633  10.182 -0.4221 -1.1272  0.5184
  995MOL0     H34319   9.789   5.404  10.281  0.6182  0.0766 -0.3122
  995MOL0     H34320   9.823   5.343  10.113  1.3517 -2.4567  1.7411
  995MOL0     H34321  10.174   5.565  10.210  0.6169  0.8224 -1.9892
  995MOL0     H34322   9.674   5.874  10.191  0.2640  3.0510  0.4131
  995MOL0     H34323   9.753   6.036  10.359 -1.0323  2.4071  1.1064
  995MOL0     H34324   9.903   6.116  10.321  0.6211 -1.4099 -0.5035
  995MOL0     H34325   9.733   6.175  10.269 -0.0945  1.2685  0.4613
  996MOL0     O34326   3.641   9.486   0.860 -0.5930  0.2867  0.0164
  996MOL0     C34327   3.602   9.365   0.866  0.5091  0.1261  1.1067
  996MOL0     O34328   3.548   9.309   0.980  0.1251  0.5190 -0.4060
  996MOL0     C34329   3.551   9.388   1.090 -0.2253  0.6986  1.0542
  996MOL0     C34330   3.669   9.402   1.167  0.3079  0.0116 -0.5527
  996MOL0     C34331   3.671   9.469   1.286  1.2410 -0.4061  0.0928
  996MOL0     C34332   3.560   9.551   1.326 -0.4291  1.2997  0.2131
  996MOL0     O34333   3.560   9.633   1.440  0.2660  1.1417  0.2932
  996MOL0     C34334   3.604   9.763   1.402 -0.0442 -0.1445  0.3388
  996MOL0     C34335   3.493   9.865   1.392 -0.4817  1.6317 -0.5885
  996MOL0     C34336   3.393   9.866   1.514  0.1718  0.2627  0.1526
  996MOL0     C34337   3.285   9.971   1.495  0.0488 -0.5962 -0.2181
  996MOL0     C34338   3.185   9.928   1.381 -0.6705 -0.3487  0.5903
  996MOL0     C34339   3.082   9.827   1.433  0.5798 -0.8927  0.4203
  996MOL0     C34340   2.976   9.777   1.334 -0.4539 -0.5363 -0.9582
  996MOL0     C34341   3.041   9.719   1.201 -0.2131  0.3145  0.2404
  996MOL0     N34342   2.937   9.669   1.109  0.0922 -0.5759  0.2375
  996MOL0     C34343   2.831   9.589   1.145 -0.0188  0.1217 -1.2641
  996MOL0     C34344   2.746   9.594   1.039 -0.5814  0.1580  0.0914
  996MOL0     C34345   2.617   9.532   1.009  0.9039 -0.2213 -0.0098
  996MOL0     C34346   2.649   9.405   0.933  0.3118  0.3620 -0.0521
  996MOL0     C34347   2.525   9.327   0.882 -0.3081  0.0817  0.4337
  996MOL0     C34348   2.553   9.238   0.765  0.6547  0.4847 -0.9768
  996MOL0     O34349   2.596   9.320   0.654  0.5559 -0.6219 -0.1976
  996MOL0     C34350   2.615   9.257   0.537  0.0081 -0.7767  1.1293
  996MOL0     C34351   2.642   9.128   0.525 -0.0729  0.6841 -0.4373
  996MOL0     C34352   2.656   9.085   0.391 -0.2685  0.9334 -0.0821
  996MOL0     C34353   2.643   9.163   0.274 -0.2201 -0.0955  0.7134
  996MOL0     C34354   2.661   9.117   0.131 -0.4782 -0.9118  0.5139
  996MOL0     O34355   2.614   9.195   0.037  0.3066 -0.3737  0.8133
  996MOL0     C34356   2.621   9.156  -0.096 -0.9102  1.6519 -0.2066
  996MOL0     C34357   2.532   9.055  -0.142 -0.2134 -0.4084  1.4414
  996MOL0     C34358   2.549   9.018  -0.278  1.2494  0.0278  1.1080
  996MOL0     C34359   2.644   9.079  -0.361 -0.4170  0.2316 -0.2204
  996MOL0     O34360   2.650   9.043  -0.493  0.1650  0.3801  0.4469
  996MOL0     C34361   2.685   9.162  -0.578  0.2000 -0.7147 -0.5358
  996MOL0     C34362   2.662   9.130  -0.724 -1.3543  0.2301  0.4359
  996MOL0     C34363   2.734   9.012  -0.785  0.8523 -0.0646  0.7447
  996MOL0     C34364   2.881   9.045  -0.833 -0.2513  0.2153 -0.1333
  996MOL0     C34365   2.951   8.938  -0.917  0.3595 -0.3927 -0.8243
  996MOL0     C34366   2.948   8.800  -0.843 -0.2505  0.1659  0.1133
  996MOL0     C34367   3.055   8.819  -0.730  0.1946  0.1731 -0.3387
  996MOL0     C34368   3.089   8.677  -0.674  0.7393 -0.7354  0.8732
  996MOL0    Cl34369   2.960   8.618  -0.568  0.0918  0.6282  0.3000
  996MOL0     C34370   2.739   9.160  -0.305 -0.2308  0.6009 -0.2206
  996MOL0     C34371   2.729   9.203  -0.171 -0.0508  0.0046 -0.6771
  996MOL0     O34372   2.706   9.004   0.114 -0.1631  0.9099 -0.1754
  996MOL0     C34373   2.620   9.299   0.302 -1.1113  0.3166 -0.2197
  996MOL0     C34374   2.610   9.343   0.428 -1.0204 -0.4386  0.4753
  996MOL0     N34375   2.809   9.682   0.949  0.2248  0.1435  0.3155
  996MOL0     N34376   2.923   9.731   0.994  0.1997  0.4770  0.2839
  996MOL0     C34377   3.443   9.532   1.241  0.4746 -0.7054 -0.6856
  996MOL0     C34378   3.435   9.451   1.129 -0.8531 -0.0587 -0.8900
  996MOL0     C34379   3.631   9.269   0.750 -0.1152  1.1718 -0.2382
  996MOL0     C34380   3.611   9.127   0.778 -0.5072  0.1792  0.3782
  996MOL0     C34381   3.614   9.034   0.672  0.9151 -0.1427 -0.1098
  996MOL0     C34382   3.634   9.081   0.543  0.3970 -0.6132  0.4836
  996MOL0     O34383   3.620   8.991   0.434 -0.6858  0.3322 -0.0287
  996MOL0     C34384   3.508   9.026   0.352  0.1644  0.3029 -0.3959
  996MOL0     C34385   3.402   8.913   0.364  0.5879  0.0516  0.1551
  996MOL0     C34386   3.450   8.772   0.318  0.4654 -0.6616  0.3651
  996MOL0     C34387   3.525   8.771   0.188  0.5107  0.7899  0.4651
  996MOL0     C34388   3.567   8.632   0.157 -0.7670 -0.3085  0.7349
  996MOL0     C34389   3.577   8.518   0.118 -0.0211  0.9797  0.1354
  996MOL0     C34390   3.655   9.218   0.515  0.1025  0.3521 -0.4664
  996MOL0     C34391   3.653   9.316   0.625  0.4601  1.1475  0.7750
  996MOL0     C34392   3.674   9.453   0.581  0.9040 -1.3174  0.2385
  996MOL0     H34393   3.762   9.358   1.132  0.5219  0.4483 -0.5450
  996MOL0     H34394   3.747   9.457   1.362  0.1370  0.3623  1.3723
  996MOL0     H34395   3.677   9.794   1.478  1.4227 -1.7649 -0.3568
  996MOL0     H34396   3.661   9.765   1.309  0.7202  2.7719  0.7634
  996MOL0     H34397   3.430   9.831   1.309 -2.9686  0.5066  1.6243
  996MOL0     H34398   3.534   9.966   1.378 -1.7620  2.1753 -0.5494
  996MOL0     H34399   3.459   9.867   1.602  1.3480  0.0567 -0.6949
  996MOL0     H34400   3.341   9.769   1.515 -4.1988  2.3497  2.6238
  996MOL0     H34401   3.231   9.981   1.589  0.2474 -2.4063  0.1267
  996MOL0     H34402   3.330  10.066   1.465 -2.1761  1.3122  2.0465
  996MOL0     H34403   3.134  10.017   1.343  0.0789  1.2255  3.0655
  996MOL0     H34404   3.246   9.879   1.305 -0.2257 -2.2572  2.0921
  996MOL0     H34405   3.130   9.746   1.490  2.3037 -0.3038 -0.1492
  996MOL0     H34406   3.022   9.874   1.512 -1.1311 -0.9568 -0.7836
  996MOL0     H34407   2.910   9.857   1.299  0.1916 -0.9807 -3.4417
  996MOL0     H34408   2.922   9.701   1.391 -1.1398  1.1481  0.7234
  996MOL0     H34409   3.101   9.794   1.149 -0.8698 -0.0159 -1.0475
  996MOL0     H34410   3.095   9.627   1.226 -1.6590 -2.4883 -5.3381
  996MOL0     H34411   2.826   9.529   1.236  1.6633  0.2378 -1.0652
  996MOL0     H34412   2.556   9.529   1.100 -3.6605  1.3219 -2.6918
  996MOL0     H34413   2.549   9.588   0.944 -1.5412 -2.2114  0.6686
  996MOL0     H34414   2.706   9.448   0.850 -1.2927 -0.0617 -1.4408
  996MOL0     H34415   2.720   9.341   0.986 -0.0012  1.4479  1.7799
  996MOL0     H34416   2.433   9.383   0.862 -1.6135 -1.4264  1.8808
  996MOL0     H34417   2.489   9.255   0.957 -0.7025 -0.2311 -0.0437
  996MOL0     H34418   2.466   9.177   0.739  0.9466 -0.3345 -0.0858
  996MOL0     H34419   2.626   9.163   0.798  0.2825  0.9451  0.9730
  996MOL0     H34420   2.641   9.056   0.606 -0.4461  1.2734  0.0826
  996MOL0     H34421   2.676   8.980   0.378  0.3256  1.2598 -2.1859
  996MOL0     H34422   2.461   9.001  -0.082  1.9002 -2.5022  2.1847
  996MOL0     H34423   2.473   8.954  -0.320  0.0169  0.0745  3.1236
  996MOL0     H34424   2.615   9.246  -0.571  1.8275  0.6668 -0.4348
  996MOL0     H34425   2.783   9.199  -0.547  0.1697  0.0804 -1.3395
  996MOL0     H34426   2.555   9.113  -0.733 -1.4391  0.6329  0.6303
  996MOL0     H34427   2.706   9.209  -0.787  1.9159 -0.6968  1.3717
  996MOL0     H34428   2.733   8.925  -0.719  1.5765 -1.0915 -0.5311
  996MOL0     H34429   2.678   8.996  -0.878  1.1239 -0.6425  0.6716
  996MOL0     H34430   2.946   9.073  -0.750  0.0561 -2.9611  0.8316
  996MOL0     H34431   2.874   9.135  -0.895 -0.9875  0.0534 -0.3016
  996MOL0     H34432   3.050   8.968  -0.954  0.4685 -1.2953 -1.2750
  996MOL0     H34433   2.890   8.940  -1.007 -3.2772  4.6887  1.2768
  996MOL0     H34434   2.849   8.780  -0.801 -1.5837  0.3882 -2.7123
  996MOL0     H34435   2.973   8.716  -0.909 -1.0062 -2.2176  2.6400
  996MOL0     H34436   3.026   8.881  -0.645 -2.1167 -0.7267 -0.3729
  996MOL0     H34437   3.142   8.864  -0.777  0.9362  0.9526  1.6818
  996MOL0     H34438   3.124   8.622  -0.762  0.5082  0.6512 -0.1066
  996MOL0     H34439   3.179   8.674  -0.612  1.3114 -4.0373  0.0681
  996MOL0     H34440   2.835   9.174  -0.353 -1.3459 -0.6059 -3.0103
  996MOL0     H34441   2.803   9.263  -0.118  0.5994 -0.4865 -1.0297
  996MOL0     H34442   2.628   9.373   0.223 -0.5116  0.5570  0.0599
  996MOL0     H34443   2.594   9.449   0.446  2.5317  0.3171 -0.0786
  996MOL0     H34444   3.357   9.584   1.281  0.8310 -2.1842  2.1924
  996MOL0     H34445   3.343   9.449   1.072 -2.3193  2.1115  1.1728
  996MOL0     H34446   3.590   9.079   0.874 -1.1595 -1.2661 -0.4560
  996MOL0     H34447   3.585   8.929   0.672 -1.1270  0.3721 -0.3487
  996MOL0     H34448   3.535   9.033   0.247 -1.8296 -1.1642 -1.0730
  996MOL0     H34449   3.465   9.124   0.375 -0.2973  0.5402 -2.1621
  996MOL0     H34450   3.315   8.942   0.304  2.1555  0.6479 -1.9919
  996MOL0     H34451   3.363   8.909   0.466  1.8214  3.9871  0.9385
  996MOL0     H34452   3.374   8.694   0.327  1.5456 -1.5230  2.7884
  996MOL0     H34453   3.520   8.738   0.395 -1.6524 -2.1711  1.7252
  996MOL0     H34454   3.473   8.808   0.099 -0.2407 -1.9622 -0.3106
  996MOL0     H34455   3.614   8.835   0.192  0.0393  1.8261 -2.6634
  996MOL0     H34456   3.583   8.418   0.081  3.4846  0.6152  1.2621
  996MOL0     H34457   3.652   9.245   0.410  0.1469  1.9804 -0.0766
  996MOL0     H34458   3.754   9.506   0.634  1.0585 -3.3037  2.1459
  996MOL0     H34459   3.698   9.478   0.477 -2.1052  2.1465  0.1790
  996MOL0     H34460   3.580   9.500   0.610  1.3707 -0.1646 -0.0597
  997MOL0     O34461   0.145   3.385   5.244 -0.1144  0.1285  0.0508
  997MOL0     C34462   0.062   3.421   5.161  0.4246  0.2410 -0.2130
  997MOL0     O34463  -0.065   3.478   5.186 -0.5563  0.1934 -0.2163
  997MOL0     C34464  -0.072   3.530   5.313  0.9545  0.2476  0.2986
  997MOL0     C34465  -0.046   3.663   5.328 -0.4041 -0.6969  0.1673
  997MOL0     C34466  -0.046   3.722   5.453  0.3129 -0.3860  0.9432
  997MOL0     C34467  -0.076   3.646   5.577 -0.6968 -0.6302  0.6622
  997MOL0     O34468  -0.059   3.705   5.694  0.1730 -0.7280  0.3602
  997MOL0     C34469  -0.174   3.760   5.744 -0.7652 -0.0762  0.0209
  997MOL0     C34470  -0.115   3.843   5.857 -0.0711  0.8527 -0.3758
  997MOL0     C34471  -0.241   3.886   5.948  0.6632  0.3177 -0.6117
  997MOL0     C34472  -0.210   3.960   6.076 -0.0743  1.1124  0.1453
  997MOL0     C34473  -0.333   4.011   6.147 -0.4600 -0.1999 -0.7654
  997MOL0     C34474  -0.293   4.103   6.272 -1.2231  0.4740  0.7834
  997MOL0     C34475  -0.277   4.024   6.402 -0.0803 -0.2544 -0.9025
  997MOL0     C34476  -0.224   4.126   6.499  0.0561  0.4886  0.1778
  997MOL0     N34477  -0.200   4.077   6.633  1.3128 -0.3507 -0.3414
  997MOL0     C34478  -0.275   3.993   6.722 -0.2100 -0.3664 -0.1470
  997MOL0     C34479  -0.179   3.963   6.823 -1.0695 -0.3475 -0.6704
  997MOL0     C34480  -0.183   3.858   6.937 -0.7472  0.5083  1.0820
  997MOL0     C34481  -0.182   3.918   7.071  0.4691  0.1550 -0.5486
  997MOL0     C34482  -0.131   3.822   7.181 -0.8078 -0.2273 -0.3628
  997MOL0     C34483   0.019   3.829   7.190 -0.2439 -0.3348 -0.5234
  997MOL0     O34484   0.074   3.704   7.242  0.6380 -0.0940 -0.3858
  997MOL0     C34485   0.047   3.654   7.369 -0.3536  0.9771  0.1023
  997MOL0     C34486  -0.013   3.725   7.480  0.6160  0.0365  0.6913
  997MOL0     C34487  -0.030   3.675   7.610  0.2887  0.0660  0.9831
  997MOL0     C34488   0.030   3.553   7.640 -0.3826  0.1652 -0.3695
  997MOL0     C34489   0.022   3.496   7.774  0.0553 -0.5589 -0.3439
  997MOL0     O34490  -0.013   3.582   7.877  0.1937 -0.5513 -0.1038
  997MOL0     C34491   0.017   3.531   8.007  0.1050  0.0149  0.5421
  997MOL0     C34492   0.122   3.584   8.081  0.1970  0.0877  0.0521
  997MOL0     C34493   0.141   3.542   8.211  0.5516 -0.3408 -0.0670
  997MOL0     C34494   0.051   3.447   8.268  0.0286 -1.1337 -0.2160
  997MOL0     O34495   0.055   3.406   8.398 -0.0511 -0.1937  0.7758
  997MOL0     C34496   0.183   3.371   8.461 -0.5738 -0.7107  0.0938
  997MOL0     C34497   0.174   3.357   8.613 -0.2698  0.0336 -0.5521
  997MOL0     C34498   0.162   3.217   8.652  0.4063  0.4967 -0.3960
  997MOL0     C34499   0.177   3.194   8.809 -0.8183  0.3506  0.1409
  997MOL0     C34500   0.149   3.058   8.851  0.1873 -0.2272 -0.0393
  997MOL0     C34501   0.160   3.053   9.004 -0.3942  0.5789 -0.0500
  997MOL0     C34502   0.147   2.910   9.057 -0.7428 -0.7555  0.2026
  997MOL0     C34503   0.001   2.857   9.075  0.0950 -0.0030  0.5707
  997MOL0    Cl34504  -0.099   2.940   9.202 -0.0759 -0.2203 -0.3400
  997MOL0     C34505  -0.060   3.398   8.193 -0.2234 -1.0841 -0.7495
  997MOL0     C34506  -0.069   3.440   8.061 -0.1263  0.2441 -0.8092
  997MOL0     O34507   0.060   3.384   7.799 -0.5218  0.4950  0.4022
  997MOL0     C34508   0.082   3.479   7.534  0.4064 -0.1016  0.1908
  997MOL0     C34509   0.082   3.523   7.394 -1.6589  0.3174  0.5372
  997MOL0     N34510  -0.068   4.035   6.792 -0.3042 -1.0846  0.4110
  997MOL0     N34511  -0.087   4.109   6.687  1.0504  0.6066  0.6628
  997MOL0     C34512  -0.122   3.515   5.561 -0.1414  0.2072 -0.1109
  997MOL0     C34513  -0.106   3.455   5.431 -0.4782  0.0153  0.2742
  997MOL0     C34514   0.100   3.405   5.016 -0.6695 -0.1522 -0.1748
  997MOL0     C34515   0.027   3.472   4.929 -0.6537 -0.1503  0.2427
  997MOL0     C34516   0.066   3.470   4.795  1.2209 -0.4745  0.2425
  997MOL0     C34517   0.173   3.398   4.751 -0.3214 -0.4247  0.0455
  997MOL0     O34518   0.227   3.387   4.621  0.0478 -0.0464 -0.5756
  997MOL0     C34519   0.141   3.427   4.508  0.4706 -0.2993  0.2725
  997MOL0     C34520   0.165   3.577   4.484 -0.0244 -0.1075  0.4312
  997MOL0     C34521   0.281   3.595   4.389 -0.9142  0.0562  0.1108
  997MOL0     C34522   0.297   3.743   4.332 -0.9876  0.2457  0.5660
  997MOL0     C34523   0.267   3.841   4.442 -0.1140 -0.1511  1.1193
  997MOL0     C34524   0.251   3.918   4.536  0.2043 -0.9021  0.9581
  997MOL0     C34525   0.247   3.329   4.844  0.7918 -0.3470 -0.2159
  997MOL0     C34526   0.204   3.319   4.982  0.0420 -0.7973  1.1972
  997MOL0     C34527   0.278   3.214   5.056 -1.1935 -0.4037 -0.7703
  997MOL0     H34528  -0.027   3.718   5.236  0.4365  0.7821  1.1990
  997MOL0     H34529  -0.027   3.829   5.459  1.2690 -0.5717  1.4950
  997MOL0     H34530  -0.221   3.824   5.668 -2.0030 -0.9732 -0.0019
  997MOL0     H34531  -0.244   3.682   5.776  0.9201 -2.0108 -0.7647
  997MOL0     H34532  -0.067   3.929   5.809  1.9862 -1.3700 -2.5594
  997MOL0     H34533  -0.051   3.781   5.919 -1.1013  0.6592  0.5248
  997MOL0     H34534  -0.297   3.798   5.982 -0.3535  0.9542 -0.5877
  997MOL0     H34535  -0.311   3.945   5.888 -1.4108 -1.8342 -0.4572
  997MOL0     H34536  -0.141   3.907   6.142  0.0916  0.1175 -0.7989
  997MOL0     H34537  -0.146   4.046   6.057  1.2802  0.1756  0.2917
  997MOL0     H34538  -0.396   4.071   6.080 -1.8032  1.0244  1.4668
  997MOL0     H34539  -0.397   3.928   6.180  0.1352 -0.4001 -0.1078
  997MOL0     H34540  -0.215   4.177   6.251 -2.8460  2.5911  1.7971
  997MOL0     H34541  -0.380   4.169   6.277 -1.4983  0.6765 -3.5401
  997MOL0     H34542  -0.196   3.952   6.387  1.2295  0.9623  0.0817
  997MOL0     H34543  -0.363   3.969   6.442  1.1898 -0.7784  1.2654
  997MOL0     H34544  -0.141   4.169   6.444 -3.2896  0.3898 -5.8160
  997MOL0     H34545  -0.303   4.200   6.512 -0.8522 -0.7974  2.6906
  997MOL0     H34546  -0.377   3.962   6.705 -1.9535  4.5793 -0.1906
  997MOL0     H34547  -0.271   3.794   6.925  0.5364 -1.5344  1.9209
  997MOL0     H34548  -0.093   3.799   6.916  0.0858  2.7799 -2.5680
  997MOL0     H34549  -0.136   4.018   7.064  0.6113  0.0135 -2.1687
  997MOL0     H34550  -0.289   3.941   7.079 -0.2606 -1.3531 -3.9957
  997MOL0     H34551  -0.160   3.717   7.168 -1.2795  0.0328 -1.4922
  997MOL0     H34552  -0.162   3.858   7.280 -3.4040 -1.5900 -0.5813
  997MOL0     H34553   0.034   3.913   7.259 -0.7404  0.0406 -0.8602
  997MOL0     H34554   0.068   3.850   7.095 -0.5943 -1.8916 -1.0776
  997MOL0     H34555  -0.043   3.827   7.455 -0.3971 -1.0999 -3.5847
  997MOL0     H34556  -0.069   3.737   7.690  2.7808 -0.8043  3.0285
  997MOL0     H34557   0.184   3.663   8.040  0.3601  0.8757  1.7270
  997MOL0     H34558   0.223   3.567   8.276 -1.3851 -3.7751  4.2416
  997MOL0     H34559   0.235   3.290   8.411  2.3353 -0.0455  1.8311
  997MOL0     H34560   0.253   3.455   8.450  0.3612 -1.6772 -1.8385
  997MOL0     H34561   0.272   3.385   8.653 -0.3289  0.1335 -0.4762
  997MOL0     H34562   0.095   3.419   8.658  0.4583 -0.4209  1.4353
  997MOL0     H34563   0.064   3.190   8.612  0.0075  1.2084  0.0708
  997MOL0     H34564   0.236   3.156   8.599 -1.8809 -2.8231 -0.0841
  997MOL0     H34565   0.112   3.259   8.867  2.6799  2.0279  2.4746
  997MOL0     H34566   0.277   3.224   8.840 -0.3287  2.4452 -3.0414
  997MOL0     H34567   0.212   2.987   8.797  2.2787 -0.2991  2.3009
  997MOL0     H34568   0.042   3.050   8.827  0.0549  0.1822  0.3897
  997MOL0     H34569   0.256   3.088   9.043 -0.9936 -0.7551  2.8744
  997MOL0     H34570   0.076   3.111   9.042 -1.5497 -2.6928  2.8994
  997MOL0     H34571   0.205   2.907   9.150  1.5105 -1.1480 -1.1358
  997MOL0     H34572   0.206   2.849   8.988 -1.9135 -2.2377  0.4697
  997MOL0     H34573  -0.050   2.859   8.978  3.3942 -0.7571 -1.3073
  997MOL0     H34574   0.007   2.749   9.090  0.6599 -0.2291 -1.0751
  997MOL0     H34575  -0.136   3.338   8.241  1.3212 -1.2036  1.6767
  997MOL0     H34576  -0.155   3.406   8.005  0.8670  0.8651 -2.7777
  997MOL0     H34577   0.134   3.385   7.550  0.9261  0.2084  0.3589
  997MOL0     H34578   0.134   3.462   7.321  1.1790  1.0368  1.8195
  997MOL0     H34579  -0.153   3.459   5.649  2.5301 -1.6920 -0.2691
  997MOL0     H34580  -0.119   3.348   5.437  0.7572 -0.1682 -0.0045
  997MOL0     H34581  -0.056   3.540   4.944  0.4206  1.2307  0.1813
  997MOL0     H34582   0.008   3.525   4.720 -0.0645 -0.2420  1.3682
  997MOL0     H34583   0.032   3.416   4.519  0.1535  1.3221 -0.8131
  997MOL0     H34584   0.176   3.365   4.425  2.0570  1.7699 -0.6920
  997MOL0     H34585   0.178   3.627   4.581 -3.9275 -2.4972  2.4598
  997MOL0     H34586   0.070   3.606   4.438 -0.2667 -2.6579 -0.8269
  997MOL0     H34587   0.289   3.526   4.304  2.6749 -0.0488  0.3755
  997MOL0     H34588   0.364   3.563   4.452 -0.3780  2.1678  0.5313
  997MOL0     H34589   0.397   3.754   4.290 -2.0388  1.6525 -1.7876
  997MOL0     H34590   0.237   3.767   4.243  3.0140 -0.3031 -2.5794
  997MOL0     H34591   0.227   3.977   4.623 -0.3309 -0.2014  0.3475
  997MOL0     H34592   0.328   3.270   4.803 -1.4978 -1.0410 -4.3585
  997MOL0     H34593   0.207   3.148   5.107  1.1714 -0.3020  2.9944
  997MOL0     H34594   0.346   3.154   4.994 -1.5569 -1.2946 -0.3326
  997MOL0     H34595   0.341   3.261   5.132 -0.5205  0.1474 -1.6503
  998MOL0     O34596   2.710   9.945   9.125 -0.0121 -0.1382 -0.1988
  998MOL0     C34597   2.651   9.980   9.026  0.2968 -0.3066  0.5425
  998MOL0     O34598   2.637  10.109   8.986  0.5416  0.1963 -0.9357
  998MOL0     C34599   2.652  10.205   9.084  0.8782  0.7997 -0.8313
  998MOL0     C34600   2.741  10.306   9.060  0.4353 -0.4210  0.8996
  998MOL0     C34601   2.767  10.401   9.161  0.3670 -0.7886  0.6709
  998MOL0     C34602   2.669  10.423   9.261  0.2311  0.4779  0.6968
  998MOL0     O34603   2.668  10.508   9.360  0.3843 -0.6496 -0.6042
  998MOL0     C34604   2.754  10.626   9.349 -0.5254  0.2614 -0.6373
  998MOL0     C34605   2.721  10.731   9.452 -0.3738 -0.5728  0.8389
  998MOL0     C34606   2.604  10.817   9.414 -0.1554  0.2568  1.2396
  998MOL0     C34607   2.556  10.892   9.541 -0.4475 -0.7177  0.4655
  998MOL0     C34608   2.486  11.028   9.517  0.0551  0.2345 -0.2907
  998MOL0     C34609   2.586  11.132   9.469 -0.7410  0.2348  0.4879
  998MOL0     C34610   2.522  11.247   9.377 -0.1490  0.4591 -0.2976
  998MOL0     C34611   2.439  11.351   9.455  0.6560 -0.0703  0.4640
  998MOL0     N34612   2.398  11.463   9.360 -1.2645  0.1394  0.2643
  998MOL0     C34613   2.273  11.486   9.318 -0.5812 -0.1297 -1.6608
  998MOL0     C34614   2.271  11.595   9.238  0.1258 -0.0199 -0.8126
  998MOL0     C34615   2.145  11.657   9.192  0.0846 -0.3642 -0.1908
  998MOL0     C34616   2.143  11.800   9.231  0.2652  0.0019  0.6506
  998MOL0     C34617   2.068  11.886   9.126 -0.5820 -0.1968 -0.1653
  998MOL0     C34618   1.915  11.858   9.124 -0.1024  0.5257  0.0234
  998MOL0     O34619   1.856  11.922   9.240 -0.2977  0.0017 -1.2873
  998MOL0     C34620   1.717  11.929   9.251  0.1211 -0.0056  0.3835
  998MOL0     C34621   1.640  11.942   9.129  0.6092  0.8509 -0.5896
  998MOL0     C34622   1.502  11.964   9.132 -0.4789 -0.3166 -0.6473
  998MOL0     C34623   1.436  11.970   9.254  0.8926  0.8907  1.3942
  998MOL0     C34624   1.285  11.978   9.262  0.9356 -0.0975 -0.1526
  998MOL0     O34625   1.218  11.960   9.144  0.3157  0.6829 -0.4716
  998MOL0     C34626   1.074  11.967   9.119 -0.8079 -0.7022 -0.4280
  998MOL0     C34627   0.999  12.067   9.181  0.4610 -1.4036  0.2701
  998MOL0     C34628   0.862  12.090   9.142  0.0365  0.7765 -0.1938
  998MOL0     C34629   0.802  11.998   9.060  0.0189 -0.1962  0.0953
  998MOL0     O34630   0.669  11.983   9.032  0.3847 -0.4624  0.2237
  998MOL0     C34631   0.578  12.037   9.129 -0.4511 -0.0622 -0.8127
  998MOL0     C34632   0.437  12.020   9.086  0.8413  0.5849  1.2141
  998MOL0     C34633   0.398  11.874   9.059 -0.0878  0.5609 -0.5533
  998MOL0     C34634   0.287  11.854   8.956 -0.0753  0.2433 -0.5385
  998MOL0     C34635   0.239  11.709   8.938 -0.0584  0.0866  0.5611
  998MOL0     C34636   0.112  11.667   9.016 -0.0373 -0.7928  0.6384
  998MOL0     C34637   0.086  11.520   9.013  0.3307  0.3678 -0.0850
  998MOL0     C34638   0.190  11.436   9.091  0.1847 -0.6166 -0.4046
  998MOL0    Cl34639   0.218  11.516   9.243  0.1896  0.2454 -0.6917
  998MOL0     C34640   0.878  11.892   9.008 -0.9038 -0.3393  0.5339
  998MOL0     C34641   1.012  11.882   9.030 -0.1100 -0.3133  0.3951
  998MOL0     O34642   1.227  12.008   9.364  0.2147 -1.1143 -0.3453
  998MOL0     C34643   1.508  11.952   9.377 -0.9751  0.5487 -0.5593
  998MOL0     C34644   1.646  11.938   9.375 -0.1803  0.1827  0.8107
  998MOL0     N34645   2.403  11.631   9.229 -0.0678 -0.2208  0.3555
  998MOL0     N34646   2.480  11.551   9.294  0.4200 -0.0324 -0.2375
  998MOL0     C34647   2.566  10.326   9.279  0.2657  0.6122  0.4484
  998MOL0     C34648   2.562  10.216   9.194  0.7024  0.1252 -0.5461
  998MOL0     C34649   2.589   9.878   8.939  0.0071 -0.2125 -0.1042
  998MOL0     C34650   2.525   9.915   8.815  0.5559 -0.6787  0.3333
  998MOL0     C34651   2.439   9.825   8.737  0.2497 -0.0845 -0.7235
  998MOL0     C34652   2.422   9.697   8.780 -0.3449 -0.1092 -0.7423
  998MOL0     O34653   2.346   9.599   8.722  0.0142  0.1744  0.8436
  998MOL0     C34654   2.272   9.614   8.593 -0.7497 -0.7616 -0.5353
  998MOL0     C34655   2.319   9.508   8.492 -0.3942  1.0425  0.2898
  998MOL0     C34656   2.474   9.520   8.464  1.4659 -0.4944  0.3634
  998MOL0     C34657   2.523   9.427   8.347  0.9034 -0.7586 -1.3618
  998MOL0     C34658   2.531   9.487   8.209  0.7974  0.1183 -0.7206
  998MOL0     C34659   2.528   9.520   8.097  0.4652  0.0144 -0.0724
  998MOL0     C34660   2.492   9.660   8.894 -0.5721  0.3100 -0.3862
  998MOL0     C34661   2.575   9.737   8.972 -0.1409 -0.5070  0.1358
  998MOL0     C34662   2.641   9.675   9.097  0.4021  0.3247  0.2950
  998MOL0     H34663   2.804  10.294   8.972 -0.4113 -0.3037  0.2695
  998MOL0     H34664   2.859  10.457   9.151 -0.7742  0.8483 -1.4889
  998MOL0     H34665   2.855  10.588   9.362 -1.2257 -1.9730 -1.2631
  998MOL0     H34666   2.729  10.673   9.254 -1.9405  2.4350  0.7228
  998MOL0     H34667   2.810  10.794   9.457 -1.3524  0.7787  2.8712
  998MOL0     H34668   2.710  10.676   9.546 -0.0168 -4.1961 -1.0445
  998MOL0     H34669   2.528  10.749   9.375  1.5261 -1.9263  1.6206
  998MOL0     H34670   2.621  10.888   9.332 -2.0037 -0.8109 -0.1380
  998MOL0     H34671   2.474  10.836   9.588 -0.4487 -1.1536 -0.0617
  998MOL0     H34672   2.630  10.905   9.621 -1.8936  0.1705  1.7302
  998MOL0     H34673   2.412  11.004   9.440  2.5295 -1.8661 -2.2320
  998MOL0     H34674   2.436  11.061   9.608  1.6862 -1.2743  1.2531
  998MOL0     H34675   2.648  11.163   9.553 -1.4738 -2.3745  2.1379
  998MOL0     H34676   2.659  11.086   9.402 -1.5481 -1.5630  0.7712
  998MOL0     H34677   2.445  11.210   9.308 -1.0181 -0.8694  1.2916
  998MOL0     H34678   2.603  11.300   9.327  1.9857 -0.5504  1.9371
  998MOL0     H34679   2.348  11.303   9.491  0.8839 -0.3885  0.6271
  998MOL0     H34680   2.495  11.400   9.536  0.4853 -0.0549  0.5710
  998MOL0     H34681   2.193  11.435   9.369  1.4301  1.0484  3.2485
  998MOL0     H34682   2.140  11.644   9.083 -0.2622 -0.0737 -0.2115
  998MOL0     H34683   2.063  11.606   9.244 -0.9420  0.1032 -1.2893
  998MOL0     H34684   2.087  11.806   9.325  0.8489  0.4348  0.9826
  998MOL0     H34685   2.240  11.848   9.250 -0.4225  1.4249  0.7267
  998MOL0     H34686   2.112  11.886   9.026 -0.2448 -0.3115 -0.0185
  998MOL0     H34687   2.079  11.987   9.166  0.3989 -1.1796  2.2782
  998MOL0     H34688   1.888  11.753   9.112  4.3587 -1.0997  1.8489
  998MOL0     H34689   1.892  11.909   9.030  2.2983 -0.6017 -1.2893
  998MOL0     H34690   1.688  11.925   9.032 -1.2514 -4.5625 -0.9081
  998MOL0     H34691   1.441  11.964   9.042  0.4073 -2.1432 -1.2991
  998MOL0     H34692   1.047  12.144   9.240  0.0060  0.5022 -1.7479
  998MOL0     H34693   0.814  12.173   9.194  2.5345  1.7172  0.7420
  998MOL0     H34694   0.605  11.980   9.218  7.2890  1.3193 -1.5511
  998MOL0     H34695   0.595  12.144   9.143 -1.2146 -0.1225  0.7503
  998MOL0     H34696   0.358  12.067   9.146  1.0533 -2.0758  3.7852
  998MOL0     H34697   0.434  12.062   8.985 -2.1544 -2.0726  0.0449
  998MOL0     H34698   0.484  11.815   9.029 -0.5464 -0.1120 -0.5674
  998MOL0     H34699   0.365  11.833   9.155  3.7325  1.4666  1.3292
  998MOL0     H34700   0.324  11.880   8.857  1.9021  3.4237  0.8553
  998MOL0     H34701   0.208  11.928   8.975  0.4171  0.1232  2.5342
  998MOL0     H34702   0.324  11.651   8.973  1.2111  0.6740 -1.3794
  998MOL0     H34703   0.226  11.699   8.829  1.2379  0.4917  0.3494
  998MOL0     H34704   0.119  11.695   9.121 -0.0811 -1.3141  0.7847
  998MOL0     H34705   0.031  11.721   8.967  3.1804  3.2563 -0.8526
  998MOL0     H34706   0.071  11.492   8.909 -1.2413  1.1597 -0.1045
  998MOL0     H34707  -0.014  11.507   9.056 -1.1535 -0.8618 -3.5429
  998MOL0     H34708   0.159  11.332   9.101  0.1504 -0.5361  0.3816
  998MOL0     H34709   0.283  11.436   9.033 -0.0838  3.0388 -1.0463
  998MOL0     H34710   0.843  11.812   8.943  1.6357 -0.2784 -1.0570
  998MOL0     H34711   1.062  11.796   8.987 -1.4212  0.1148 -2.2357
  998MOL0     H34712   1.446  11.947   9.466  1.7781  0.7712  1.4719
  998MOL0     H34713   1.710  11.920   9.461  0.4504 -1.1184  0.0954
  998MOL0     H34714   2.502  10.328   9.366  0.4537 -1.7550  0.7106
  998MOL0     H34715   2.484  10.142   9.208  0.4579  0.5583  0.4203
  998MOL0     H34716   2.547  10.010   8.768  0.4144 -0.5083  0.6074
  998MOL0     H34717   2.410   9.868   8.641  0.0374  1.2044 -0.1110
  998MOL0     H34718   2.287   9.711   8.545 -0.2709 -0.7417 -0.3509
  998MOL0     H34719   2.165   9.602   8.612 -1.0897  1.0311 -1.0798
  998MOL0     H34720   2.279   9.547   8.399  1.5193  2.4253 -0.0184
  998MOL0     H34721   2.296   9.408   8.530  0.2304  1.2806  1.3339
  998MOL0     H34722   2.529   9.485   8.552  1.2546 -4.2886 -0.8401
  998MOL0     H34723   2.511   9.621   8.442  1.1564 -0.6669 -1.0821
  998MOL0     H34724   2.617   9.378   8.374 -0.6678 -3.3079 -0.1092
  998MOL0     H34725   2.461   9.337   8.352  0.5537 -0.4596  1.5089
  998MOL0     H34726   2.529   9.548   7.994  1.9829 -2.4148 -0.7889
  998MOL0     H34727   2.472   9.555   8.916 -0.8716  0.4400 -0.0300
  998MOL0     H34728   2.748   9.694   9.101  0.2705  1.4443 -0.7318
  998MOL0     H34729   2.587   9.697   9.189  1.3488  0.9530  0.7157
  998MOL0     H34730   2.631   9.567   9.087  0.7527  0.4138 -1.3100
  999MOL0     O34731   6.525  11.256  10.253  0.1995  0.1202 -0.1680
  999MOL0     C34732   6.481  11.174  10.338  0.2620  0.2672 -0.2641
  999MOL0     O34733   6.461  11.210  10.469  0.6323 -0.0422  0.5228
  999MOL0     C34734   6.461  11.345  10.515 -0.4802  0.6578  0.7532
  999MOL0     C34735   6.407  11.451  10.438  0.6118  0.5754 -0.4462
  999MOL0     C34736   6.393  11.578  10.491 -0.8075  0.1052 -0.2298
  999MOL0     C34737   6.442  11.610  10.624  0.3633  0.4567  0.1215
  999MOL0     O34738   6.410  11.743  10.647 -0.3754  0.6775 -0.1701
  999MOL0     C34739   6.494  11.806  10.748 -0.2222 -1.0288  0.0422
  999MOL0     C34740   6.630  11.861  10.683 -0.5631  0.1288  0.4092
  999MOL0     C34741   6.604  11.989  10.613  0.8034  0.8252  0.9741
  999MOL0     C34742   6.590  12.098  10.713 -0.3902 -0.2342  0.5214
  999MOL0     C34743   6.529  12.232  10.658  0.5270  0.1967  0.1612
  999MOL0     C34744   6.607  12.306  10.540  0.8617 -0.2642  0.4140
  999MOL0     C34745   6.581  12.452  10.510 -0.5889 -0.5811  0.4517
  999MOL0     C34746   6.683  12.541  10.594  0.2799  0.3386  1.0653
  999MOL0     N34747   6.648  12.677  10.555 -0.3295  0.3526 -0.2608
  999MOL0     C34748   6.647  12.751  10.436  1.6136  0.1755  0.4872
  999MOL0     C34749   6.586  12.870  10.459 -0.3336  0.1440  0.8176
  999MOL0     C34750   6.563  12.990  10.361  0.9539  0.3444  0.5863
  999MOL0     C34751   6.591  12.951  10.217  0.0918  0.7142 -0.1088
  999MOL0     C34752   6.581  13.085  10.132  0.7253 -0.3174 -0.1474
  999MOL0     C34753   6.716  13.148  10.082  0.0686  0.3866 -0.1113
  999MOL0     O34754   6.803  13.192  10.188 -0.7623  0.4268 -0.1081
  999MOL0     C34755   6.888  13.301  10.168 -1.1458  1.2909  0.4516
  999MOL0     C34756   6.900  13.370  10.042 -0.3172  0.8408 -0.4342
  999MOL0     C34757   7.004  13.460  10.020 -0.0617  0.0205 -1.0963
  999MOL0     C34758   7.090  13.502  10.127  1.0636  0.4386 -1.3207
  999MOL0     C34759   7.202  13.606  10.100  0.1685  0.6500 -0.7965
  999MOL0     O34760   7.196  13.665   9.982 -0.3189 -0.4655  0.1284
  999MOL0     C34761   7.321  13.714   9.956 -0.6809  0.3983 -0.3139
  999MOL0     C34762   7.430  13.633   9.953 -0.3611  0.4860 -1.6573
  999MOL0     C34763   7.554  13.691   9.938 -0.2997  0.0646 -0.1331
  999MOL0     C34764   7.579  13.831   9.925 -0.3911  0.2803 -0.3608
  999MOL0     O34765   7.698  13.891   9.939  0.0165 -0.6737  0.1993
  999MOL0     C34766   7.811  13.819   9.895 -0.4322  0.3902  1.1629
  999MOL0     C34767   7.927  13.915   9.897  0.1205  1.2201  0.0544
  999MOL0     C34768   7.907  14.023   9.798 -0.0659  0.2150 -0.0170
  999MOL0     C34769   8.017  14.131   9.821  0.6682 -0.5401 -0.3144
  999MOL0     C34770   7.976  14.252   9.730 -0.3560 -0.2812 -0.2847
  999MOL0     C34771   8.056  14.371   9.771 -0.0863 -0.3946 -0.7763
  999MOL0     C34772   8.052  14.487   9.675 -1.4166 -0.4316 -0.1021
  999MOL0     C34773   7.913  14.553   9.662 -0.0544 -1.1678  0.0711
  999MOL0    Cl34774   7.918  14.678   9.541  0.3840  0.1570  0.2711
  999MOL0     C34775   7.465  13.922   9.921 -1.0267  0.4446 -0.2975
  999MOL0     C34776   7.335  13.857   9.936 -0.0980 -1.1268  0.8718
  999MOL0     O34777   7.280  13.635  10.192  0.2144  0.6121  0.0220
  999MOL0     C34778   7.077  13.431  10.255  0.3716 -0.2536  0.0516
  999MOL0     C34779   6.968  13.338  10.272 -0.6024 -0.2468  0.0064
  999MOL0     N34780   6.551  12.862  10.596 -0.1456 -0.0263 -0.1487
  999MOL0     N34781   6.592  12.755  10.649 -0.3469  0.2312 -0.6405
  999MOL0     C34782   6.495  11.507  10.701 -1.5843  0.7106 -0.4111
  999MOL0     C34783   6.494  11.376  10.640 -0.3570  0.7055  0.2772
  999MOL0     C34784   6.457  11.028  10.309  0.6463 -0.0656  0.0974
  999MOL0     C34785   6.388  10.957  10.405 -0.5900  0.8472 -0.0627
  999MOL0     C34786   6.361  10.818  10.391 -0.1954  0.0780 -0.4626
  999MOL0     C34787   6.404  10.747  10.277 -0.0308  0.7615 -0.1643
  999MOL0     O34788   6.400  10.607  10.274 -0.0402 -0.1498 -0.2975
  999MOL0     C34789   6.326  10.533  10.367  0.3290 -0.9011  0.2649
  999MOL0     C34790   6.322  10.385  10.347  0.8123 -0.4570 -0.6601
  999MOL0     C34791   6.247  10.321  10.468  0.6260  0.1850 -0.4742
  999MOL0     C34792   6.209  10.173  10.436  0.1621 -0.2540  0.5660
  999MOL0     C34793   6.146  10.121  10.552  0.6086 -0.6067  0.2749
  999MOL0     C34794   6.079  10.077  10.646 -0.0829 -0.2625  0.7632
  999MOL0     C34795   6.463  10.821  10.175 -0.5210 -0.8817  0.2903
  999MOL0     C34796   6.490  10.959  10.188  0.1761  0.5004 -0.8014
  999MOL0     C34797   6.547  11.028  10.066 -0.1593 -0.9769 -0.9690
  999MOL0     H34798   6.361  11.421  10.345 -0.6494  0.6194  0.1458
  999MOL0     H34799   6.353  11.658  10.429  2.3048  2.0384  0.0111
  999MOL0     H34800   6.426  11.885  10.781 -0.2342 -0.5204 -1.1227
  999MOL0     H34801   6.514  11.739  10.832  4.0121 -1.2126 -0.8709
  999MOL0     H34802   6.676  11.792  10.611  1.3715  3.0596 -1.4161
  999MOL0     H34803   6.703  11.867  10.765  0.8143 -0.8801 -0.6760
  999MOL0     H34804   6.510  11.983  10.559 -0.6477 -3.0211  3.5129
  999MOL0     H34805   6.691  12.013  10.551  0.5300  0.2816  0.3794
  999MOL0     H34806   6.526  12.064  10.795 -0.5116 -0.3883  0.3624
  999MOL0     H34807   6.683  12.122  10.764 -0.8957 -1.2132  1.9661
  999MOL0     H34808   6.425  12.218  10.628  1.0893 -2.7996 -0.6886
  999MOL0     H34809   6.535  12.296  10.746 -0.8498 -1.2178  1.3638
  999MOL0     H34810   6.715  12.312  10.561  0.6548  1.9107  1.1861
  999MOL0     H34811   6.595  12.257  10.443 -2.2993 -0.7174  0.9313
  999MOL0     H34812   6.476  12.482  10.518 -0.5058 -0.2562  0.3275
  999MOL0     H34813   6.604  12.477  10.406  0.4898  1.4216  1.1159
  999MOL0     H34814   6.666  12.516  10.699  0.3568  1.4809  1.3630
  999MOL0     H34815   6.783  12.509  10.562 -2.0100 -4.8738 -2.2139
  999MOL0     H34816   6.679  12.716  10.338  2.4552 -0.6002  1.0273
  999MOL0     H34817   6.462  13.025  10.382 -0.1880 -0.7344 -2.4733
  999MOL0     H34818   6.634  13.070  10.381  0.9731  0.2651  0.8372
  999MOL0     H34819   6.685  12.899  10.200 -0.2656  0.9620 -3.7032
  999MOL0     H34820   6.509  12.887  10.183  3.8031 -3.9336 -1.4172
  999MOL0     H34821   6.536  13.165  10.190 -0.3541 -1.1625  0.2072
  999MOL0     H34822   6.508  13.067  10.053 -1.1642  0.5603  1.3304
  999MOL0     H34823   6.692  13.243  10.034  0.9655  1.4081  1.4043
  999MOL0     H34824   6.767  13.077  10.016  0.2124 -0.5651  0.9858
  999MOL0     H34825   6.850  13.342   9.950  1.0978 -2.5824 -0.2975
  999MOL0     H34826   7.014  13.500   9.920  0.4841 -0.2240 -1.1450
  999MOL0     H34827   7.421  13.526   9.973  0.0590  1.0272  2.0819
  999MOL0     H34828   7.631  13.615   9.950  0.9339  1.6191  3.0308
  999MOL0     H34829   7.828  13.733   9.960 -0.5652 -1.4657 -1.1354
  999MOL0     H34830   7.792  13.788   9.792  0.0945 -2.1333  1.7675
  999MOL0     H34831   7.937  13.968   9.993  0.1959  4.2083 -1.4811
  999MOL0     H34832   8.022  13.865   9.877 -0.3098  0.9981 -1.5159
  999MOL0     H34833   7.920  13.979   9.698  1.5468 -1.5520  0.9075
  999MOL0     H34834   7.809  14.071   9.798 -0.4311 -0.4611 -1.4016
  999MOL0     H34835   8.111  14.095   9.778  1.2741  2.2438 -1.5256
  999MOL0     H34836   8.017  14.159   9.927  0.5527  0.1261 -0.4893
  999MOL0     H34837   7.872  14.279   9.750 -0.4069 -0.5290 -0.2115
  999MOL0     H34838   7.997  14.230   9.625  0.5203 -1.7240  0.1695
  999MOL0     H34839   8.010  14.407   9.863 -0.7825  0.3538 -1.3986
  999MOL0     H34840   8.164  14.356   9.782  0.4541 -0.0829 -4.2480
  999MOL0     H34841   8.092  14.437   9.586  0.4051 -0.1999  0.5407
  999MOL0     H34842   8.133  14.554   9.707  0.0132 -1.9226 -0.4599
  999MOL0     H34843   7.831  14.483   9.643 -2.2689  1.2326  0.1442
  999MOL0     H34844   7.895  14.601   9.759 -0.0086  1.8126 -1.2974
  999MOL0     H34845   7.465  14.030   9.923 -1.4533  0.4838  3.0164
  999MOL0     H34846   7.254  13.928   9.931  2.1735  1.6188 -2.8088
  999MOL0     H34847   7.152  13.447  10.332 -0.2771  0.3780  0.5703
  999MOL0     H34848   6.956  13.291  10.369  0.2607 -0.4919  0.0014
  999MOL0     H34849   6.527  11.520  10.804  1.6125 -0.8951 -1.0805
  999MOL0     H34850   6.536  11.298  10.702 -1.4022  0.7235  1.0436
  999MOL0     H34851   6.347  10.999  10.496 -0.0855 -0.1147  0.6294
  999MOL0     H34852   6.291  10.772  10.461  0.2318 -2.7881 -1.7906
  999MOL0     H34853   6.227  10.579  10.359  0.5388 -0.0918  1.8376
  999MOL0     H34854   6.354  10.567  10.468 -2.2476  4.9519 -0.5217
  999MOL0     H34855   6.428  10.357  10.349  0.5278 -1.5250  0.5300
  999MOL0     H34856   6.268  10.351  10.258 -1.1712 -1.4532  0.8361
  999MOL0     H34857   6.160  10.382  10.497  1.7674  1.1797  0.9699
  999MOL0     H34858   6.312  10.335  10.554  1.9243 -1.9541 -1.0335
  999MOL0     H34859   6.125  10.178  10.365 -0.3216  0.8302  1.1849
  999MOL0     H34860   6.296  10.120  10.397  0.1647  0.5058 -0.5370
  999MOL0     H34861   6.023  10.042  10.731  0.4020 -0.8128  0.8616
  999MOL0     H34862   6.490  10.774  10.081  0.8583  2.7808 -1.3404
  999MOL0     H34863   6.624  11.105  10.073  2.5905 -3.0257 -5.0630
  999MOL0     H34864   6.603  10.956  10.005  2.3444 -0.7216  0.8405
  999MOL0     H34865   6.458  11.069  10.019 -0.2608  1.7385  1.2996
 1000MOL0     O34866   1.562   2.517   8.731 -0.2274  0.0375  0.4633
 1000MOL0     C34867   1.657   2.512   8.660  0.0773  0.3633  0.7261
 1000MOL0     O34868   1.694   2.395   8.596 -0.4714  0.0942 -0.3201
 1000MOL0     C34869   1.624   2.274   8.611  0.6249 -0.1070  0.0307
 1000MOL0     C34870   1.507   2.239   8.527 -0.2868 -0.0539 -0.2486
 1000MOL0     C34871   1.434   2.121   8.552 -0.0627  0.2372 -0.6851
 1000MOL0     C34872   1.462   2.043   8.670  0.0261  0.7673  0.2907
 1000MOL0     O34873   1.383   1.939   8.684 -0.3192 -0.2142 -0.3502
 1000MOL0     C34874   1.458   1.813   8.702 -0.1224 -0.1459  0.1100
 1000MOL0     C34875   1.342   1.699   8.690 -0.0926 -1.0823  0.4383
 1000MOL0     C34876   1.382   1.562   8.629  0.4558  0.7685  0.3679
 1000MOL0     C34877   1.282   1.489   8.535  0.5584  1.1815  0.6906
 1000MOL0     C34878   1.358   1.409   8.431  0.7491 -0.7281  0.7887
 1000MOL0     C34879   1.266   1.333   8.335 -0.0464 -0.3637  0.9793
 1000MOL0     C34880   1.179   1.234   8.403 -0.0112 -0.4855 -0.4193
 1000MOL0     C34881   1.116   1.145   8.288  0.1240  0.4802  0.2945
 1000MOL0     N34882   1.034   1.027   8.346 -0.0367  0.2562  0.3308
 1000MOL0     C34883   1.081   0.934   8.428 -0.1938  0.1000 -1.3303
 1000MOL0     C34884   0.985   0.831   8.431  0.6245 -1.2126  0.2402
 1000MOL0     C34885   1.010   0.696   8.508  0.3391  0.6491 -0.0955
 1000MOL0     C34886   1.012   0.713   8.659  0.3191  0.4272 -0.2016
 1000MOL0     C34887   1.071   0.597   8.736 -0.4957  1.6787 -0.6628
 1000MOL0     C34888   1.207   0.531   8.688 -0.1165 -0.4580  0.9303
 1000MOL0     O34889   1.314   0.630   8.695 -0.0123 -0.5661 -0.8935
 1000MOL0     C34890   1.441   0.587   8.723  0.5110 -0.1669  1.0931
 1000MOL0     C34891   1.488   0.470   8.673  0.3384  0.2675  0.5854
 1000MOL0     C34892   1.619   0.435   8.683  0.6949 -0.2868  0.8197
 1000MOL0     C34893   1.705   0.517   8.740 -0.2354  0.1108 -0.5251
 1000MOL0     C34894   1.853   0.487   8.748 -0.0777  0.0082  0.2347
 1000MOL0     O34895   1.938   0.592   8.738  0.4607  0.3341 -0.0674
 1000MOL0     C34896   2.072   0.563   8.755  0.0671  0.4499  0.1988
 1000MOL0     C34897   2.139   0.610   8.869 -0.3288 -0.0257  0.1643
 1000MOL0     C34898   2.275   0.576   8.881 -0.2679 -0.1746 -0.3392
 1000MOL0     C34899   2.344   0.497   8.795  1.1290  0.3249  0.0629
 1000MOL0     O34900   2.475   0.464   8.828  0.2935  0.2582 -0.4202
 1000MOL0     C34901   2.487   0.339   8.884  0.1922  0.5281 -0.2452
 1000MOL0     C34902   2.609   0.334   8.971  0.1349 -0.1749  0.4103
 1000MOL0     C34903   2.735   0.315   8.892 -0.5066 -0.8994  0.1348
 1000MOL0     C34904   2.751   0.170   8.844  0.8498 -0.8810 -0.1472
 1000MOL0     C34905   2.882   0.145   8.768 -1.2977  0.0896  0.4046
 1000MOL0     C34906   2.914  -0.007   8.774 -0.2727  0.0036 -0.0300
 1000MOL0     C34907   3.025  -0.042   8.670 -0.2092  0.0537 -0.3238
 1000MOL0     C34908   3.084  -0.181   8.708  0.2851  0.3722  0.0821
 1000MOL0    Cl34909   2.960  -0.303   8.655 -0.0848 -0.2370 -0.2557
 1000MOL0     C34910   2.273   0.460   8.672 -1.0571 -0.4399 -0.7997
 1000MOL0     C34911   2.144   0.502   8.649 -0.3457  0.2907  1.0459
 1000MOL0     O34912   1.883   0.375   8.773  0.0676  0.1183  0.0426
 1000MOL0     C34913   1.662   0.638   8.792 -0.5803 -0.1266  0.6285
 1000MOL0     C34914   1.536   0.677   8.781 -0.2412 -0.6529 -1.0812
 1000MOL0     N34915   0.875   0.897   8.369  0.5674  0.3635  0.0786
 1000MOL0     N34916   0.900   1.016   8.338 -0.4108  0.4403 -0.4112
 1000MOL0     C34917   1.573   2.078   8.747  0.5876 -0.1143  0.8379
 1000MOL0     C34918   1.654   2.185   8.720 -0.6186 -0.3056 -0.5276
 1000MOL0     C34919   1.736   2.630   8.649 -0.8510  0.0700 -0.5967
 1000MOL0     C34920   1.662   2.754   8.641 -0.9670  0.5200  0.9653
 1000MOL0     C34921   1.729   2.875   8.634  0.0225 -0.5691  0.8123
 1000MOL0     C34922   1.868   2.875   8.623  0.9664  0.7511  0.1732
 1000MOL0     O34923   1.947   2.981   8.600 -0.3801 -0.0188 -0.3010
 1000MOL0     C34924   1.917   3.108   8.650 -0.9296  0.8839  0.3180
 1000MOL0     C34925   2.033   3.209   8.655 -0.1404  1.5335  0.0172
 1000MOL0     C34926   1.981   3.332   8.735  0.4117  0.0285 -0.2866
 1000MOL0     C34927   2.094   3.422   8.791 -0.6283 -0.2012 -0.8200
 1000MOL0     C34928   2.175   3.488   8.684 -0.1545 -0.1575  0.9501
 1000MOL0     C34929   2.241   3.559   8.604  0.1514  0.0166 -0.2718
 1000MOL0     C34930   1.941   2.762   8.638  0.9767 -1.0593 -0.7262
 1000MOL0     C34931   1.875   2.639   8.652 -0.6674  0.2594 -0.5452
 1000MOL0     C34932   1.955   2.516   8.643 -0.4428 -0.0352 -0.5456
 1000MOL0     H34933   1.477   2.307   8.448 -1.6824  1.8844  1.8228
 1000MOL0     H34934   1.357   2.084   8.484  0.6555 -4.2912  0.6276
 1000MOL0     H34935   1.539   1.803   8.629 -0.3834 -1.1051 -0.0643
 1000MOL0     H34936   1.506   1.808   8.800 -1.1403  1.4715  0.7335
 1000MOL0     H34937   1.264   1.740   8.627  2.2940  2.9028 -0.2848
 1000MOL0     H34938   1.298   1.684   8.789  3.2438 -2.9848  1.8073
 1000MOL0     H34939   1.399   1.496   8.714 -0.2863  2.0605  1.5629
 1000MOL0     H34940   1.479   1.571   8.578 -1.1842 -0.6871 -3.4060
 1000MOL0     H34941   1.220   1.425   8.598  1.8831 -0.2718  0.5739
 1000MOL0     H34942   1.218   1.562   8.485 -1.9100 -0.8318  0.7053
 1000MOL0     H34943   1.412   1.480   8.367 -1.5214 -0.4845 -0.9709
 1000MOL0     H34944   1.419   1.334   8.482 -1.4966 -1.6471  2.2466
 1000MOL0     H34945   1.205   1.409   8.285 -1.6762 -1.9556  0.4232
 1000MOL0     H34946   1.331   1.287   8.261 -1.4097  1.6106 -1.6144
 1000MOL0     H34947   1.103   1.280   8.466  0.9502  2.1098 -1.0079
 1000MOL0     H34948   1.242   1.178   8.473 -1.3056 -0.7283  0.5904
 1000MOL0     H34949   1.062   1.207   8.216  2.3664  1.1767 -0.8858
 1000MOL0     H34950   1.194   1.094   8.231 -0.0551  1.9839 -1.3752
 1000MOL0     H34951   1.181   0.918   8.467  0.0434 -1.3419 -2.4443
 1000MOL0     H34952   0.938   0.620   8.475  0.7162  0.7272 -1.1250
 1000MOL0     H34953   1.103   0.648   8.480  1.3906  1.2354  2.1634
 1000MOL0     H34954   1.070   0.798   8.694 -1.1117  2.6198 -2.7399
 1000MOL0     H34955   0.909   0.716   8.694  0.0988  0.8702 -0.8658
 1000MOL0     H34956   0.987   0.527   8.736  1.6511 -1.0980  1.1916
 1000MOL0     H34957   1.078   0.620   8.843 -1.5799  0.0996 -0.2274
 1000MOL0     H34958   1.196   0.489   8.588  0.9909  1.5659 -0.1094
 1000MOL0     H34959   1.240   0.460   8.764  2.5917  1.2650  1.4952
 1000MOL0     H34960   1.423   0.394   8.630 -0.0328  1.8437 -1.8463
 1000MOL0     H34961   1.653   0.341   8.639 -0.1897  0.7381 -2.3156
 1000MOL0     H34962   2.081   0.660   8.946 -1.8575 -2.2109  0.5196
 1000MOL0     H34963   2.333   0.609   8.966 -0.4655 -1.4230  0.3073
 1000MOL0     H34964   2.396   0.328   8.944 -0.8749 -2.8010 -2.1935
 1000MOL0     H34965   2.489   0.264   8.805  0.2978  0.1052  0.1561
 1000MOL0     H34966   2.611   0.429   9.025 -2.0273 -0.8279  1.7372
 1000MOL0     H34967   2.600   0.264   9.054  1.5522 -0.6652  0.1849
 1000MOL0     H34968   2.729   0.386   8.809  0.8853 -0.9111 -0.0047
 1000MOL0     H34969   2.814   0.357   8.955 -3.6721  0.2438  3.7086
 1000MOL0     H34970   2.662   0.133   8.792  2.0529 -2.1270 -1.4437
 1000MOL0     H34971   2.744   0.116   8.938 -2.0780 -1.9770 -0.8793
 1000MOL0     H34972   2.954   0.220   8.802 -2.0113  1.9534 -1.9450
 1000MOL0     H34973   2.868   0.180   8.665 -0.4365  1.2307  0.6614
 1000MOL0     H34974   2.941  -0.025   8.879 -3.0820  4.0061  1.6352
 1000MOL0     H34975   2.827  -0.071   8.756 -0.1930 -0.2808  0.5704
 1000MOL0     H34976   3.109   0.027   8.683 -1.6681  1.6766  0.9693
 1000MOL0     H34977   2.990  -0.049   8.566 -1.9009 -3.5973  0.3480
 1000MOL0     H34978   3.184  -0.195   8.666 -0.4709 -1.6656 -1.1544
 1000MOL0     H34979   3.097  -0.185   8.817 -2.9618  1.2689  0.6015
 1000MOL0     H34980   2.344   0.420   8.599  0.6829 -2.4182  1.7995
 1000MOL0     H34981   2.088   0.484   8.557  1.6688 -1.1494  0.0174
 1000MOL0     H34982   1.728   0.717   8.827  1.8009 -1.7166 -0.0638
 1000MOL0     H34983   1.505   0.768   8.833 -2.7549 -1.9952 -0.0686
 1000MOL0     H34984   1.592   2.023   8.838 -0.0287 -2.6730 -0.4862
 1000MOL0     H34985   1.742   2.197   8.781 -0.1429 -3.3215 -0.4496
 1000MOL0     H34986   1.553   2.750   8.643 -1.0844  2.7596  1.8084
 1000MOL0     H34987   1.670   2.966   8.634  0.0164 -0.5565  2.0191
 1000MOL0     H34988   1.883   3.081   8.750  2.5623 -1.9728  0.9403
 1000MOL0     H34989   1.839   3.158   8.592 -0.9532  1.0481  0.4928
 1000MOL0     H34990   2.071   3.236   8.556 -0.0638 -0.1740 -0.4432
 1000MOL0     H34991   2.110   3.161   8.715 -0.8792  2.2792  1.6313
 1000MOL0     H34992   1.933   3.297   8.827 -0.7242  1.3972 -0.3278
 1000MOL0     H34993   1.906   3.391   8.683  1.1577 -0.7102 -2.3115
 1000MOL0     H34994   2.054   3.505   8.852 -1.3332 -0.3110 -1.1200
 1000MOL0     H34995   2.169   3.362   8.843 -0.0503  0.7821 -0.4838
 1000MOL0     H34996   2.299   3.626   8.543 -0.4316  0.5496 -0.2558
 1000MOL0     H34997   2.049   2.766   8.634  1.0824  2.6093  1.6044
 1000MOL0     H34998   2.048   2.527   8.699  0.3108  0.6548 -1.8647
 1000MOL0     H34999   1.905   2.423   8.673 -1.4872  0.5542 -0.4088
 1000MOL0     H35000   1.985   2.494   8.540  0.3998 -0.4266 -0.2217
 1001MOL0     O35001   9.590   8.283   6.483  0.4470  0.5147  0.8181
 1001MOL0     C35002   9.505   8.331   6.554 -0.6316  1.1086  0.0362
 1001MOL0     O35003   9.489   8.293   6.685  0.2899 -0.0517 -0.0334
 1001MOL0     C35004   9.543   8.172   6.725 -0.0658 -0.6705 -0.0911
 1001MOL0     C35005   9.651   8.167   6.822  0.7099  0.0211  0.6301
 1001MOL0     C35006   9.721   8.059   6.838 -0.4860  0.3927 -0.6688
 1001MOL0     C35007   9.688   7.937   6.782  0.5820 -0.3799  0.6099
 1001MOL0     O35008   9.757   7.828   6.802 -0.7423  0.1141  0.2901
 1001MOL0     C35009   9.715   7.739   6.906  0.0146 -0.7849 -0.2160
 1001MOL0     C35010   9.833   7.658   6.956 -0.7611 -0.3019 -0.6126
 1001MOL0     C35011   9.959   7.744   6.989  0.2150 -0.5670  0.3602
 1001MOL0     C35012  10.054   7.665   7.072 -0.3460 -0.0963  0.0039
 1001MOL0     C35013  10.195   7.684   7.010  1.4353  0.4086 -0.0028
 1001MOL0     C35014  10.287   7.581   7.062 -0.0012  0.0060  0.3727
 1001MOL0     C35015  10.426   7.586   6.997  0.2334 -0.6827 -1.0348
 1001MOL0     C35016  10.530   7.569   7.111  0.2705 -1.0272 -0.7044
 1001MOL0     N35017  10.511   7.451   7.194  0.1417  0.1342  0.2578
 1001MOL0     C35018  10.508   7.452   7.332 -0.6277 -0.0082 -0.3633
 1001MOL0     C35019  10.463   7.331   7.363 -0.3553  0.1809  0.0035
 1001MOL0     C35020  10.413   7.282   7.494 -0.4678 -0.0554  0.0474
 1001MOL0     C35021  10.500   7.308   7.617 -0.0235  0.4976  0.1526
 1001MOL0     C35022  10.481   7.204   7.732 -1.2623 -0.0122 -0.1145
 1001MOL0     C35023  10.340   7.203   7.790  1.0416 -0.6054 -0.0392
 1001MOL0     O35024  10.282   7.331   7.812  0.0006  0.1020  0.4172
 1001MOL0     C35025  10.149   7.343   7.845  0.9696 -0.6228 -0.4977
 1001MOL0     C35026  10.081   7.461   7.835  0.1090 -0.1485  0.2217
 1001MOL0     C35027   9.948   7.477   7.838 -0.2668  0.5231  0.5444
 1001MOL0     C35028   9.862   7.370   7.861  0.4887  0.4658 -0.8440
 1001MOL0     C35029   9.712   7.383   7.864 -0.7330 -0.3186  0.6057
 1001MOL0     O35030   9.632   7.285   7.930  1.3324  0.1516 -0.5713
 1001MOL0     C35031   9.502   7.252   7.902 -0.4974  0.3028  0.7033
 1001MOL0     C35032   9.454   7.245   7.772 -0.4370 -0.0331 -1.3805
 1001MOL0     C35033   9.322   7.215   7.747 -0.8762  0.2580 -0.8877
 1001MOL0     C35034   9.231   7.202   7.856 -0.3223  0.8916  0.0119
 1001MOL0     O35035   9.105   7.144   7.838  1.2503 -0.4768  0.3160
 1001MOL0     C35036   9.013   7.121   7.941  0.3257  0.1492 -0.4527
 1001MOL0     C35037   8.894   7.038   7.894 -0.3025 -0.0528 -0.1475
 1001MOL0     C35038   8.811   7.110   7.789  0.3470 -0.3753  1.2746
 1001MOL0     C35039   8.698   7.204   7.846 -1.6613  0.9929  0.0113
 1001MOL0     C35040   8.615   7.248   7.724 -0.4944  0.6444  0.0202
 1001MOL0     C35041   8.516   7.357   7.753 -0.1865  0.3502  0.0812
 1001MOL0     C35042   8.395   7.291   7.814  0.0810 -0.7793  0.0707
 1001MOL0     C35043   8.287   7.393   7.810  1.0446 -1.0381 -0.7121
 1001MOL0    Cl35044   8.326   7.539   7.919  0.2644  0.0032 -0.1344
 1001MOL0     C35045   9.275   7.221   7.983 -0.2540 -0.3516 -0.6908
 1001MOL0     C35046   9.413   7.243   8.000 -0.6112 -0.2512 -0.7460
 1001MOL0     O35047   9.670   7.469   7.777  0.0158 -0.0587  0.2501
 1001MOL0     C35048   9.926   7.247   7.884  0.6935  0.1373  0.0265
 1001MOL0     C35049  10.065   7.231   7.870  0.1186  0.6683  0.5722
 1001MOL0     N35050  10.449   7.253   7.251  0.4335 -0.1850 -0.2238
 1001MOL0     N35051  10.476   7.326   7.150 -0.1843 -0.4564 -0.1514
 1001MOL0     C35052   9.582   7.936   6.691  0.4113  0.3655 -0.7521
 1001MOL0     C35053   9.511   8.051   6.660  0.4673 -0.4974 -0.0255
 1001MOL0     C35054   9.425   8.446   6.509 -0.4597  0.3856  0.2602
 1001MOL0     C35055   9.388   8.541   6.600  0.9763 -1.2182  0.5879
 1001MOL0     C35056   9.330   8.663   6.557 -0.4418  0.0202  0.4522
 1001MOL0     C35057   9.285   8.666   6.422  0.2655 -1.4934 -0.6987
 1001MOL0     O35058   9.212   8.778   6.374 -0.7097 -1.0529 -0.2041
 1001MOL0     C35059   9.109   8.756   6.286 -1.7968 -0.1805 -0.1520
 1001MOL0     C35060   8.994   8.855   6.281 -0.7530 -0.5077  0.3609
 1001MOL0     C35061   8.921   8.883   6.407  0.0487 -0.6414 -0.0939
 1001MOL0     C35062   8.878   9.037   6.407 -1.5309  0.5544 -0.0669
 1001MOL0     C35063   8.783   9.063   6.515  0.1603 -0.5699 -0.2047
 1001MOL0     C35064   8.700   9.106   6.587  0.3277  0.1288  0.7284
 1001MOL0     C35065   9.325   8.570   6.334 -0.3494  0.0340 -0.0479
 1001MOL0     C35066   9.389   8.459   6.372 -0.4657  0.1817 -0.6488
 1001MOL0     C35067   9.443   8.377   6.260 -0.4318  0.6667 -0.2915
 1001MOL0     H35068   9.675   8.259   6.873  2.6678  0.4359 -0.9162
 1001MOL0     H35069   9.798   8.064   6.914  0.9832  0.6184 -2.1169
 1001MOL0     H35070   9.682   7.797   6.993  2.9758  3.3430 -1.5431
 1001MOL0     H35071   9.625   7.680   6.885 -0.1770 -0.9783  1.0731
 1001MOL0     H35072   9.881   7.603   6.875  5.7219  2.0986  0.9685
 1001MOL0     H35073   9.806   7.582   7.030 -2.2356 -0.0986 -0.8966
 1001MOL0     H35074   9.920   7.830   7.045  1.2431  0.9287 -1.1063
 1001MOL0     H35075   9.998   7.776   6.891  1.3124  0.4589  1.1037
 1001MOL0     H35076  10.046   7.711   7.170 -3.1624  0.0712 -0.2141
 1001MOL0     H35077  10.015   7.563   7.077  2.8654 -1.4172  4.3346
 1001MOL0     H35078  10.199   7.665   6.902  0.7026 -1.3946  0.2532
 1001MOL0     H35079  10.232   7.785   7.033  0.0795  0.7440  0.8210
 1001MOL0     H35080  10.286   7.614   7.166 -1.4326 -1.9508  1.0472
 1001MOL0     H35081  10.254   7.478   7.045  0.9770 -0.4561  1.1639
 1001MOL0     H35082  10.453   7.676   6.940  1.6766 -0.5162 -0.1402
 1001MOL0     H35083  10.434   7.495   6.938  3.5182 -0.2902 -1.3893
 1001MOL0     H35084  10.629   7.570   7.064  0.3906 -1.3708 -0.4698
 1001MOL0     H35085  10.525   7.662   7.169  1.7354  0.0668 -2.2437
 1001MOL0     H35086  10.511   7.535   7.402 -0.9830 -0.2540 -0.0504
 1001MOL0     H35087  10.316   7.330   7.513 -1.5721 -0.5160 -3.5512
 1001MOL0     H35088  10.391   7.175   7.489  1.1029 -0.5870  2.8066
 1001MOL0     H35089  10.602   7.306   7.578 -0.3675  2.2539 -0.9615
 1001MOL0     H35090  10.470   7.401   7.665  2.0127  1.3625 -0.1646
 1001MOL0     H35091  10.540   7.232   7.820 -0.8358 -2.3691  0.4151
 1001MOL0     H35092  10.504   7.102   7.699  1.8115 -0.0385  1.7583
 1001MOL0     H35093  10.331   7.140   7.879 -2.6474  0.5652  0.6049
 1001MOL0     H35094  10.283   7.157   7.708 -0.5546  0.1295  0.6249
 1001MOL0     H35095  10.145   7.546   7.814  2.7844 -2.5416 -2.3561
 1001MOL0     H35096   9.909   7.577   7.819  2.7464  1.2236 -3.1916
 1001MOL0     H35097   9.531   7.254   7.696 -2.4212  3.8931 -3.2132
 1001MOL0     H35098   9.305   7.205   7.641  1.2701  1.1960 -1.3767
 1001MOL0     H35099   9.068   7.049   8.002  1.3048 -2.4647 -4.0552
 1001MOL0     H35100   8.984   7.210   7.996  1.6979 -1.0433  2.4037
 1001MOL0     H35101   8.935   6.942   7.860  1.9823  1.8169 -3.2303
 1001MOL0     H35102   8.831   7.029   7.983 -1.5055  0.7641 -0.8722
 1001MOL0     H35103   8.878   7.167   7.724  1.5972 -0.9216  2.0605
 1001MOL0     H35104   8.765   7.034   7.724  0.5482  1.9420 -1.8017
 1001MOL0     H35105   8.746   7.289   7.896  1.8595 -1.2582  0.8843
 1001MOL0     H35106   8.623   7.152   7.906 -3.6397  0.3122 -2.8908
 1001MOL0     H35107   8.557   7.163   7.685 -0.2336  0.1837  0.6046
 1001MOL0     H35108   8.687   7.280   7.649  1.9392  1.5297  2.5855
 1001MOL0     H35109   8.548   7.444   7.811 -3.3523  1.4638  0.3305
 1001MOL0     H35110   8.492   7.381   7.649 -1.4462 -3.9380 -0.8174
 1001MOL0     H35111   8.407   7.254   7.916 -0.4313  1.7609  1.1067
 1001MOL0     H35112   8.368   7.201   7.758  0.6034 -0.2147 -1.1142
 1001MOL0     H35113   8.287   7.421   7.704  1.9815 -1.2304 -0.7732
 1001MOL0     H35114   8.193   7.350   7.843  2.0461  0.1306  4.5545
 1001MOL0     H35115   9.199   7.222   8.061 -0.1093 -1.4890 -0.5157
 1001MOL0     H35116   9.450   7.268   8.099 -0.5042  1.1281 -1.1021
 1001MOL0     H35117   9.870   7.158   7.913  1.4984 -0.5120 -0.3885
 1001MOL0     H35118  10.107   7.131   7.878  1.7864  1.4020  1.4856
 1001MOL0     H35119   9.565   7.842   6.638  0.8562 -0.0288 -0.2113
 1001MOL0     H35120   9.440   8.053   6.578 -1.1687 -0.2306  1.3405
 1001MOL0     H35121   9.427   8.549   6.701  0.0660  0.4620  0.8329
 1001MOL0     H35122   9.316   8.750   6.620 -2.3576  0.4211 -0.4333
 1001MOL0     H35123   9.071   8.658   6.314 -0.6641 -1.1831 -1.9541
 1001MOL0     H35124   9.156   8.749   6.187  3.2983  0.3397  1.9425
 1001MOL0     H35125   8.939   8.817   6.194  0.7197 -1.3251 -0.2503
 1001MOL0     H35126   9.042   8.950   6.256  0.1115 -0.7275  1.1399
 1001MOL0     H35127   8.990   8.868   6.491  1.7859 -2.2721 -1.7243
 1001MOL0     H35128   8.835   8.816   6.417 -0.2232 -0.2528  0.1781
 1001MOL0     H35129   8.970   9.092   6.430  1.9804 -3.6602 -2.4701
 1001MOL0     H35130   8.832   9.061   6.311  0.2848 -2.4125 -1.8363
 1001MOL0     H35131   8.622   9.136   6.655 -4.1066 -3.2712 -2.3372
 1001MOL0     H35132   9.314   8.602   6.231 -0.3751 -0.2828 -0.1466
 1001MOL0     H35133   9.551   8.377   6.246 -0.7207  1.3384 -3.3559
 1001MOL0     H35134   9.415   8.274   6.286 -0.1411  0.6699  0.0376
 1001MOL0     H35135   9.404   8.406   6.161 -0.1381  4.1763  0.4908
 1002MOL0     O35136   9.351   0.176   5.252 -0.2016 -0.0897 -0.0218
 1002MOL0     C35137   9.400   0.064   5.270  0.2300 -0.2906  0.5854
 1002MOL0     O35138   9.468   0.025   5.376 -0.3344 -0.2135 -0.4136
 1002MOL0     C35139   9.510   0.122   5.471 -0.3287 -1.5531 -0.2075
 1002MOL0     C35140   9.633   0.094   5.525 -0.6824  0.4991 -0.1021
 1002MOL0     C35141   9.689   0.172   5.632  0.4852 -0.0566  0.1926
 1002MOL0     C35142   9.617   0.283   5.666  0.3310 -0.5585  0.4442
 1002MOL0     O35143   9.667   0.351   5.773 -0.4795  0.8800 -0.3076
 1002MOL0     C35144   9.665   0.493   5.770  0.2926  0.1147 -0.7853
 1002MOL0     C35145   9.750   0.549   5.890  0.5144 -0.4550  0.7913
 1002MOL0     C35146   9.704   0.703   5.906  0.3810  0.4651  0.3777
 1002MOL0     C35147   9.815   0.795   5.959 -0.1883  0.0489  0.9507
 1002MOL0     C35148   9.744   0.936   5.964 -0.2269 -1.1854 -0.3253
 1002MOL0     C35149   9.653   0.946   6.078  0.3482 -0.2141  0.8779
 1002MOL0     C35150   9.597   1.085   6.097 -0.6651 -0.1705 -0.1250
 1002MOL0     C35151   9.520   1.105   6.221  0.3893  1.2736 -0.1260
 1002MOL0     N35152   9.559   1.035   6.346 -0.6642 -0.2618 -0.8552
 1002MOL0     C35153   9.665   1.081   6.414 -0.0007 -0.6119 -0.1184
 1002MOL0     C35154   9.705   0.982   6.495  0.3074 -0.9921 -0.0046
 1002MOL0     C35155   9.811   1.002   6.595 -0.7795  0.3252  0.0514
 1002MOL0     C35156   9.783   0.905   6.714  0.2667 -0.6156 -0.6145
 1002MOL0     C35157   9.888   0.895   6.826 -0.5774 -0.4475 -0.0817
 1002MOL0     C35158   9.892   1.026   6.894  0.0605 -0.1929  0.6500
 1002MOL0     O35159  10.021   1.094   6.893 -0.2777  0.1071 -0.0434
 1002MOL0     C35160  10.030   1.214   6.969 -1.1023 -0.3862 -0.0288
 1002MOL0     C35161   9.925   1.308   7.002 -0.0571  0.8921 -0.8801
 1002MOL0     C35162   9.949   1.412   7.098  0.0378 -0.1546 -0.8656
 1002MOL0     C35163  10.076   1.437   7.152 -0.7825 -0.3328 -0.2758
 1002MOL0     C35164  10.103   1.545   7.243  0.2323 -0.4483 -0.1783
 1002MOL0     O35165  10.004   1.643   7.232 -0.2756 -0.1425  0.7699
 1002MOL0     C35166   9.998   1.749   7.318 -0.2208 -0.7899 -0.8322
 1002MOL0     C35167   9.969   1.739   7.450 -1.0018 -0.1028 -0.5255
 1002MOL0     C35168   9.952   1.859   7.518 -0.1082 -0.7360 -0.4279
 1002MOL0     C35169   9.989   1.990   7.461 -0.6792 -0.3711 -0.3734
 1002MOL0     O35170   9.979   2.115   7.519 -0.0532 -0.2388 -0.3012
 1002MOL0     C35171   9.950   2.125   7.660  0.2322 -0.0639  0.7139
 1002MOL0     C35172   9.966   2.277   7.680 -1.0144  0.1857  1.6545
 1002MOL0     C35173  10.116   2.316   7.681 -0.4198 -0.5585 -0.8294
 1002MOL0     C35174  10.116   2.466   7.712  0.6186 -0.1174  0.1630
 1002MOL0     C35175  10.122   2.549   7.585 -0.6695  0.3552  0.3901
 1002MOL0     C35176  10.110   2.694   7.625 -0.2369  0.6274  0.2677
 1002MOL0     C35177  10.089   2.778   7.511 -0.4582  0.2367  0.4891
 1002MOL0     C35178  10.213   2.791   7.423 -0.3048 -0.4346  0.3856
 1002MOL0    Cl35179  10.186   2.904   7.298  0.5523 -0.2288 -0.3079
 1002MOL0     C35180  10.047   1.989   7.334  0.2836  0.1689  1.1014
 1002MOL0     C35181  10.039   1.873   7.256  0.7813  0.7792  0.3093
 1002MOL0     O35182  10.212   1.548   7.310 -0.6838 -0.2779  0.2128
 1002MOL0     C35183  10.185   1.354   7.108 -0.0333  0.1222  0.4241
 1002MOL0     C35184  10.161   1.247   7.020 -0.7532  0.1631  0.1467
 1002MOL0     N35185   9.618   0.876   6.470 -1.0056 -0.3744 -0.5602
 1002MOL0     N35186   9.531   0.903   6.382 -0.8313 -0.8804  0.3656
 1002MOL0     C35187   9.484   0.302   5.623  0.2508 -0.0638  0.3927
 1002MOL0     C35188   9.432   0.225   5.517  0.7612 -0.6094  0.0018
 1002MOL0     C35189   9.339  -0.050   5.193  0.4036 -0.2728  0.1174
 1002MOL0     C35190   9.203  -0.024   5.152  0.2130  0.1572  0.7273
 1002MOL0     C35191   9.145  -0.117   5.063  0.0378 -0.3907 -0.6903
 1002MOL0     C35192   9.218  -0.222   5.018 -0.5185  0.3177  0.6947
 1002MOL0     O35193   9.160  -0.311   4.932  0.6009 -0.8282  0.0062
 1002MOL0     C35194   9.232  -0.348   4.811 -0.5925 -0.3595  0.1537
 1002MOL0     C35195   9.265  -0.500   4.807  0.2481 -0.4262  0.5305
 1002MOL0     C35196   9.326  -0.544   4.669  0.6048  0.0301  0.0670
 1002MOL0     C35197   9.341  -0.691   4.672 -0.2079  0.1285 -1.2373
 1002MOL0     C35198   9.436  -0.741   4.572  0.4038 -0.2845 -1.0232
 1002MOL0     C35199   9.536  -0.766   4.510  0.0227  0.1121  0.0830
 1002MOL0     C35200   9.343  -0.256   5.072 -0.3858 -1.1843  0.5252
 1002MOL0     C35201   9.410  -0.165   5.165  1.2737  0.2144  0.0850
 1002MOL0     C35202   9.541  -0.209   5.214 -0.6311  0.0956 -0.9586
 1002MOL0     H35203   9.693   0.009   5.494 -1.2188  0.0776 -0.0011
 1002MOL0     H35204   9.785   0.144   5.675 -0.0032  0.9540  2.0367
 1002MOL0     H35205   9.701   0.540   5.678  0.6762  0.0789 -0.6555
 1002MOL0     H35206   9.566   0.525   5.802  0.6408  2.2789 -1.7026
 1002MOL0     H35207   9.854   0.545   5.858  1.2473  3.4733  2.1188
 1002MOL0     H35208   9.733   0.496   5.985  0.3325 -3.1263 -0.6247
 1002MOL0     H35209   9.615   0.701   5.968 -0.3330 -0.9360 -0.6380
 1002MOL0     H35210   9.684   0.736   5.803 -1.5102  1.4709  1.0237
 1002MOL0     H35211   9.856   0.770   6.058  0.0757  1.0265  1.0986
 1002MOL0     H35212   9.906   0.803   5.898 -1.2393  3.0726 -0.4448
 1002MOL0     H35213   9.822   1.012   5.975 -0.8484 -0.2394 -2.0165
 1002MOL0     H35214   9.690   0.969   5.874 -3.0242  0.1967  1.6898
 1002MOL0     H35215   9.576   0.870   6.062 -0.3521  1.0834 -3.0029
 1002MOL0     H35216   9.723   0.911   6.154  0.6423 -1.6256 -0.0135
 1002MOL0     H35217   9.542   1.123   6.011 -1.0584  0.3566  0.3564
 1002MOL0     H35218   9.688   1.141   6.120 -0.3230 -1.8823  3.5095
 1002MOL0     H35219   9.510   1.213   6.234  3.3461  1.9130 -2.1588
 1002MOL0     H35220   9.417   1.067   6.216  0.4869  0.3457  3.1163
 1002MOL0     H35221   9.702   1.183   6.409  1.4003 -0.9626  1.6582
 1002MOL0     H35222   9.913   0.984   6.560 -0.0634  2.2545  1.0074
 1002MOL0     H35223   9.816   1.101   6.641 -1.3662 -0.6662  2.3954
 1002MOL0     H35224   9.684   0.920   6.761  0.5258 -0.1068 -0.2122
 1002MOL0     H35225   9.765   0.802   6.681 -4.2120 -0.3005  0.1088
 1002MOL0     H35226   9.985   0.874   6.779  1.8304 -0.5298  4.3941
 1002MOL0     H35227   9.860   0.820   6.901 -2.2018 -0.0046 -0.2106
 1002MOL0     H35228   9.858   1.003   6.995 -1.6030 -1.0942 -0.0640
 1002MOL0     H35229   9.815   1.094   6.854  2.1155  1.9475  0.0908
 1002MOL0     H35230   9.825   1.294   6.961 -0.0028 -0.9604 -0.4694
 1002MOL0     H35231   9.870   1.481   7.121 -0.5181 -0.2887 -2.2688
 1002MOL0     H35232   9.940   1.650   7.505 -2.0142  1.6993  2.0920
 1002MOL0     H35233   9.904   1.852   7.615  0.7012  1.6105  0.1936
 1002MOL0     H35234   9.849   2.087   7.679 -0.0039  1.1752  2.0446
 1002MOL0     H35235  10.026   2.070   7.716  0.0918 -2.0284 -0.8912
 1002MOL0     H35236   9.908   2.334   7.607 -1.1962  1.0156  2.4330
 1002MOL0     H35237   9.923   2.300   7.778 -0.3458  2.7122  1.4072
 1002MOL0     H35238  10.158   2.255   7.762 -0.3154 -0.2212 -0.6284
 1002MOL0     H35239  10.163   2.290   7.585 -2.3772  1.6928 -2.5123
 1002MOL0     H35240  10.216   2.476   7.756  1.5466  0.4607 -1.9189
 1002MOL0     H35241  10.044   2.495   7.789  0.5649 -2.7056  1.1750
 1002MOL0     H35242  10.031   2.519   7.531  0.6592  0.0581 -1.8332
 1002MOL0     H35243  10.208   2.539   7.518  0.4550  2.6805  1.3797
 1002MOL0     H35244  10.022   2.701   7.690  2.7073  1.9305  4.6199
 1002MOL0     H35245  10.193   2.741   7.680  1.7183 -1.4348 -0.7585
 1002MOL0     H35246  10.052   2.876   7.543 -0.6330  0.1891  0.4388
 1002MOL0     H35247  10.005   2.741   7.452 -1.2589  1.9428  0.4983
 1002MOL0     H35248  10.292   2.826   7.490  0.4053 -1.7761  0.2890
 1002MOL0     H35249  10.237   2.689   7.391  0.4528 -0.0834 -0.1881
 1002MOL0     H35250  10.065   2.087   7.291 -1.2092  0.0107  0.0343
 1002MOL0     H35251  10.076   1.862   7.155  0.9650 -4.4944  0.6767
 1002MOL0     H35252  10.290   1.366   7.133 -0.0204 -2.5351  2.0554
 1002MOL0     H35253  10.250   1.188   6.997 -0.6604 -0.1187  1.2044
 1002MOL0     H35254   9.426   0.370   5.684 -0.1082 -0.6636  0.7256
 1002MOL0     H35255   9.334   0.235   5.471 -0.6634  1.7095  3.1708
 1002MOL0     H35256   9.145   0.066   5.172 -0.1852  0.0042  0.2824
 1002MOL0     H35257   9.048  -0.103   5.016  1.3096 -0.7348 -3.5741
 1002MOL0     H35258   9.328  -0.298   4.796 -0.0540 -1.2493  0.5660
 1002MOL0     H35259   9.177  -0.316   4.722  1.6595  3.7997  0.0082
 1002MOL0     H35260   9.174  -0.552   4.836 -0.4809  1.1619  1.2378
 1002MOL0     H35261   9.345  -0.516   4.881  0.9219  1.1025  0.1788
 1002MOL0     H35262   9.425  -0.499   4.659  1.4222 -1.0937  2.4847
 1002MOL0     H35263   9.249  -0.517   4.595  0.8686  2.3013  0.5362
 1002MOL0     H35264   9.371  -0.711   4.775 -1.9658 -0.1878 -0.7628
 1002MOL0     H35265   9.242  -0.737   4.664 -0.8789  1.6656 -2.2478
 1002MOL0     H35266   9.637  -0.782   4.475 -0.3769  0.9262 -1.5492
 1002MOL0     H35267   9.385  -0.350   5.036  1.4649 -0.4179  0.5986
 1002MOL0     H35268   9.580  -0.280   5.141  2.7975 -1.2894  1.8949
 1002MOL0     H35269   9.613  -0.126   5.217  0.0469 -0.4305 -1.9954
 1002MOL0     H35270   9.538  -0.245   5.317  0.8472  1.8862 -0.2168
 1003MOL0     O35271   5.820   8.748   6.690 -0.4574 -0.6184  0.3083
 1003MOL0     C35272   5.867   8.651   6.632  1.1017 -0.3697 -0.0189
 1003MOL0     O35273   5.998   8.608   6.630 -0.0168  0.4065 -0.4407
 1003MOL0     C35274   6.106   8.688   6.669 -0.4087  0.3218  0.8596
 1003MOL0     C35275   6.229   8.626   6.660 -0.7740 -0.0605 -0.1457
 1003MOL0     C35276   6.339   8.699   6.707 -0.2498  0.1907 -0.7986
 1003MOL0     C35277   6.342   8.834   6.757  0.2959 -0.3848 -0.1032
 1003MOL0     O35278   6.459   8.899   6.797  0.5987 -0.0313 -0.4869
 1003MOL0     C35279   6.453   9.031   6.862 -0.0114  0.1152  1.0514
 1003MOL0     C35280   6.591   9.068   6.902 -0.0848 -0.0708  0.6600
 1003MOL0     C35281   6.639   9.016   7.035  0.3825  0.4765 -0.3295
 1003MOL0     C35282   6.795   9.007   7.038 -0.0379  0.7407 -0.1494
 1003MOL0     C35283   6.850   8.960   7.171 -0.5801 -0.0172  0.6052
 1003MOL0     C35284   6.998   8.943   7.181 -1.0159  0.2261  0.7595
 1003MOL0     C35285   7.068   9.078   7.195 -0.1839 -0.2350  0.5643
 1003MOL0     C35286   7.224   9.061   7.218  0.1588 -0.2822  0.0567
 1003MOL0     N35287   7.276   9.171   7.289 -1.3723 -0.0786 -0.0964
 1003MOL0     C35288   7.338   9.282   7.224  0.1054 -0.1123  0.2530
 1003MOL0     C35289   7.363   9.381   7.318  0.3944  0.5252  0.6092
 1003MOL0     C35290   7.407   9.527   7.315  0.1124 -0.4997 -0.5713
 1003MOL0     C35291   7.344   9.629   7.208 -0.3287  0.2883 -0.1172
 1003MOL0     C35292   7.381   9.768   7.235 -0.3365 -0.6668  0.1067
 1003MOL0     C35293   7.314   9.869   7.137 -0.4227  0.2295 -0.4114
 1003MOL0     O35294   7.358   9.844   7.001  0.8543 -0.8679  0.4075
 1003MOL0     C35295   7.324   9.920   6.889  0.3129 -0.3761  0.3313
 1003MOL0     C35296   7.403   9.940   6.777  0.0572  0.3185 -0.8745
 1003MOL0     C35297   7.366  10.015   6.667  0.7168 -0.1680 -0.6673
 1003MOL0     C35298   7.246  10.087   6.669 -0.4789 -0.6197 -0.0262
 1003MOL0     C35299   7.211  10.165   6.557 -0.1985 -0.4609  0.1507
 1003MOL0     O35300   7.076  10.194   6.537  0.5526 -0.2626 -0.0926
 1003MOL0     C35301   7.039  10.266   6.422 -0.5063  0.9672  0.3868
 1003MOL0     C35302   6.924  10.226   6.347  0.8617 -0.5538 -0.5473
 1003MOL0     C35303   6.896  10.277   6.218  0.2730  0.6566  0.3927
 1003MOL0     C35304   6.983  10.375   6.168  0.9593 -0.5006  0.0236
 1003MOL0     O35305   6.963  10.401   6.039 -0.0281 -0.2554 -0.1601
 1003MOL0     C35306   7.057  10.462   5.963  0.1746 -0.2285  0.2435
 1003MOL0     C35307   7.061  10.426   5.810 -0.1477 -0.2245 -0.5830
 1003MOL0     C35308   6.912  10.427   5.754 -0.1645  0.6583 -0.7292
 1003MOL0     C35309   6.847  10.567   5.728  0.4321  0.2929  0.0546
 1003MOL0     C35310   6.704  10.555   5.678 -1.5158  0.0617  0.0874
 1003MOL0     C35311   6.650  10.694   5.680 -0.2516  0.5356 -0.8710
 1003MOL0     C35312   6.694  10.780   5.563 -0.0815 -0.7217  0.1278
 1003MOL0     C35313   6.653  10.735   5.426 -0.0987  0.5890 -1.4090
 1003MOL0    Cl35314   6.483  10.757   5.386  0.1429  0.1665  0.0741
 1003MOL0     C35315   7.079  10.432   6.255 -0.3522 -0.7987 -0.4234
 1003MOL0     C35316   7.101  10.387   6.385 -0.5042 -0.0290 -0.0033
 1003MOL0     O35317   7.304  10.199   6.478 -0.1147  0.2307 -0.1095
 1003MOL0     C35318   7.158  10.066   6.775  0.3608  0.8020 -0.6736
 1003MOL0     C35319   7.204   9.990   6.885 -0.2352 -0.6548  0.4428
 1003MOL0     N35320   7.326   9.321   7.438  0.2563 -1.1532 -0.1284
 1003MOL0     N35321   7.287   9.202   7.424 -0.1424  1.4199 -0.0736
 1003MOL0     C35322   6.214   8.887   6.749  0.0601  0.4713 -0.3316
 1003MOL0     C35323   6.099   8.815   6.716  0.1285  0.8147 -0.8644
 1003MOL0     C35324   5.775   8.570   6.551  0.7748 -0.7833 -0.6190
 1003MOL0     C35325   5.830   8.495   6.443 -0.7756 -0.2654  0.2495
 1003MOL0     C35326   5.751   8.418   6.350  0.1669  0.6764 -0.1140
 1003MOL0     C35327   5.612   8.421   6.367  0.5681  0.4957 -0.0564
 1003MOL0     O35328   5.522   8.348   6.282 -0.3138  0.1853 -0.7923
 1003MOL0     C35329   5.568   8.241   6.196 -0.1956  0.0356 -0.4925
 1003MOL0     C35330   5.454   8.178   6.112  0.1698 -0.6281 -0.7340
 1003MOL0     C35331   5.495   8.062   6.022  0.4958  0.9557 -0.3789
 1003MOL0     C35332   5.371   8.003   5.949 -0.3094 -0.9365  0.9950
 1003MOL0     C35333   5.298   7.914   6.027 -0.8385 -0.0221 -0.2184
 1003MOL0     C35334   5.232   7.834   6.089  0.4831 -0.2946 -0.0812
 1003MOL0     C35335   5.557   8.501   6.472  0.0693 -0.6653  0.4356
 1003MOL0     C35336   5.634   8.581   6.561 -0.4861  0.1290  0.5415
 1003MOL0     C35337   5.556   8.675   6.648 -0.3021 -0.7527  0.2857
 1003MOL0     H35338   6.253   8.527   6.622 -1.1761  0.7687 -2.7346
 1003MOL0     H35339   6.429   8.640   6.721 -1.0237 -1.0619 -1.0304
 1003MOL0     H35340   6.410   9.107   6.796 -1.4632 -0.8449  0.8448
 1003MOL0     H35341   6.386   9.021   6.947 -0.8899 -3.0814  0.1206
 1003MOL0     H35342   6.611   9.176   6.898  0.2163 -0.1541 -1.6976
 1003MOL0     H35343   6.651   9.018   6.826 -0.1168 -0.8379  1.1368
 1003MOL0     H35344   6.586   8.921   7.051 -0.1511  0.5779 -1.4086
 1003MOL0     H35345   6.604   9.077   7.118 -0.4354 -2.4384  1.6464
 1003MOL0     H35346   6.815   8.950   6.946  0.0095  3.6579 -2.0738
 1003MOL0     H35347   6.844   9.103   7.020 -1.2521  1.8897  2.2828
 1003MOL0     H35348   6.811   9.021   7.253 -2.3971  1.4976 -1.2736
 1003MOL0     H35349   6.815   8.856   7.177  3.6475 -1.6562 -0.1769
 1003MOL0     H35350   7.012   8.875   7.266 -3.2414  1.7893  2.5172
 1003MOL0     H35351   7.023   8.886   7.091 -2.4935 -2.0548  1.6748
 1003MOL0     H35352   7.034   9.136   7.281  0.2653  3.1428 -1.3345
 1003MOL0     H35353   7.060   9.143   7.107  2.4988  0.7917  0.9857
 1003MOL0     H35354   7.258   8.967   7.262 -1.1373 -0.1904  1.3144
 1003MOL0     H35355   7.281   9.059   7.124 -0.5773 -0.4892 -0.3938
 1003MOL0     H35356   7.343   9.313   7.120 -0.9145  1.4497  0.6421
 1003MOL0     H35357   7.363   9.560   7.410  0.2532 -2.5086  0.2520
 1003MOL0     H35358   7.516   9.535   7.307 -0.0954  3.6197 -1.2957
 1003MOL0     H35359   7.367   9.609   7.103  0.9631  3.1818 -0.4750
 1003MOL0     H35360   7.236   9.623   7.224 -0.0882 -1.6428  1.1619
 1003MOL0     H35361   7.487   9.791   7.242 -0.7081  0.9192  1.3511
 1003MOL0     H35362   7.328   9.786   7.330  0.6980 -1.1887  0.7975
 1003MOL0     H35363   7.339   9.973   7.159 -3.8716  0.8086  1.4631
 1003MOL0     H35364   7.206   9.862   7.155 -0.0590 -1.9299  1.4102
 1003MOL0     H35365   7.501   9.894   6.788 -0.2239  0.1017  1.1204
 1003MOL0     H35366   7.416  10.007   6.571  1.3455 -1.9896 -0.2343
 1003MOL0     H35367   6.873  10.141   6.392  2.6806 -0.5948  1.6267
 1003MOL0     H35368   6.821  10.229   6.156  3.0696  0.0398 -2.7599
 1003MOL0     H35369   7.045  10.570   5.973 -0.7794 -0.4738  2.3357
 1003MOL0     H35370   7.155  10.431   6.001 -0.4937  0.6303  2.8975
 1003MOL0     H35371   7.130  10.494   5.760  1.0301 -0.9349  0.0255
 1003MOL0     H35372   7.103  10.326   5.814 -3.0218 -1.5070  1.0672
 1003MOL0     H35373   6.918  10.364   5.665  0.1044 -1.0253  0.4204
 1003MOL0     H35374   6.844  10.382   5.827  1.0136  1.8350  1.1965
 1003MOL0     H35375   6.904  10.632   5.660 -2.5327  2.2284 -0.7943
 1003MOL0     H35376   6.845  10.605   5.830  1.5403  0.9138 -0.1343
 1003MOL0     H35377   6.655  10.488   5.749  0.3156 -1.7167 -0.2278
 1003MOL0     H35378   6.698  10.510   5.578  1.1049  1.0694 -0.6148
 1003MOL0     H35379   6.541  10.701   5.673 -0.1250  0.8629 -3.0024
 1003MOL0     H35380   6.669  10.734   5.780  1.2157 -2.7757  0.3396
 1003MOL0     H35381   6.804  10.777   5.565 -0.0791 -3.4647  0.4986
 1003MOL0     H35382   6.670  10.886   5.571  1.2488 -0.4798  1.5426
 1003MOL0     H35383   6.707  10.785   5.345  4.6046 -2.9178 -0.8720
 1003MOL0     H35384   6.681  10.631   5.405  0.3844  0.1945  0.8741
 1003MOL0     H35385   7.135  10.516   6.215 -2.9826  1.2639 -0.0319
 1003MOL0     H35386   7.185  10.431   6.438 -2.6913  5.0459 -0.2067
 1003MOL0     H35387   7.065  10.122   6.767 -1.8474 -2.5385 -0.7398
 1003MOL0     H35388   7.133   9.985   6.967 -2.4617  2.9142 -1.0373
 1003MOL0     H35389   6.212   8.993   6.774 -1.3595 -0.1640  2.6396
 1003MOL0     H35390   6.005   8.869   6.725 -0.2373 -0.0164  0.5638
 1003MOL0     H35391   5.936   8.502   6.420 -0.7112 -2.3887 -0.2986
 1003MOL0     H35392   5.803   8.368   6.269 -1.5856 -1.2243 -0.1102
 1003MOL0     H35393   5.619   8.165   6.255  0.5157  2.3964  2.1143
 1003MOL0     H35394   5.644   8.279   6.126 -0.7950  0.5877 -0.8517
 1003MOL0     H35395   5.410   8.259   6.053  1.5824  2.3504  1.9746
 1003MOL0     H35396   5.382   8.148   6.188  0.4922 -1.2955 -0.6845
 1003MOL0     H35397   5.564   7.984   6.057  3.1943  2.2442 -2.4307
 1003MOL0     H35398   5.562   8.104   5.946 -0.2091  0.5937 -1.2316
 1003MOL0     H35399   5.306   8.080   5.906  0.3415 -1.3463 -0.8344
 1003MOL0     H35400   5.400   7.953   5.856 -0.9516  2.5485 -1.2921
 1003MOL0     H35401   5.163   7.766   6.134  1.9403 -1.7802  0.0050
 1003MOL0     H35402   5.450   8.511   6.483 -0.0390  0.9884 -1.5614
 1003MOL0     H35403   5.447   8.669   6.632 -0.9680 -1.8540  4.2967
 1003MOL0     H35404   5.584   8.646   6.749 -2.0449 -0.1881  0.9766
 1003MOL0     H35405   5.583   8.781   6.641  0.2661 -1.0092 -3.2056
 1004MOL0     O35406   8.399   8.933   5.142  0.1215  0.6394  0.0159
 1004MOL0     C35407   8.459   8.822   5.148  0.3151  0.2256  0.0051
 1004MOL0     O35408   8.458   8.726   5.047  0.0994  0.2773 -0.7264
 1004MOL0     C35409   8.402   8.742   4.927  0.2442 -0.4450  0.4098
 1004MOL0     C35410   8.333   8.642   4.866  0.7999 -0.4952  0.0978
 1004MOL0     C35411   8.302   8.646   4.725 -0.0626 -0.4277 -1.1690
 1004MOL0     C35412   8.317   8.765   4.657  0.9206  0.0537  0.1238
 1004MOL0     O35413   8.287   8.754   4.525 -0.4265  0.2370 -0.1455
 1004MOL0     C35414   8.226   8.861   4.458  0.3055 -0.3205 -1.1524
 1004MOL0     C35415   8.082   8.891   4.500  0.1218 -0.2798 -0.7119
 1004MOL0     C35416   8.014   9.021   4.452 -0.2504 -0.3866  0.8797
 1004MOL0     C35417   7.858   9.022   4.481  0.1385 -0.1086  0.3901
 1004MOL0     C35418   7.781   8.967   4.367  0.1422  0.1761  0.0238
 1004MOL0     C35419   7.634   8.951   4.416 -0.2578  0.0854  0.1294
 1004MOL0     C35420   7.556   8.872   4.315  0.4447 -0.2412 -0.5697
 1004MOL0     C35421   7.509   8.971   4.200 -0.7235  0.9086 -0.9138
 1004MOL0     N35422   7.446   9.096   4.248  0.5158  0.8817  0.6867
 1004MOL0     C35423   7.340   9.110   4.337 -0.9371  0.6649 -0.1016
 1004MOL0     C35424   7.302   9.241   4.348 -0.3945 -0.5565  0.4042
 1004MOL0     C35425   7.205   9.292   4.451 -0.0228  0.2514 -0.3164
 1004MOL0     C35426   7.060   9.259   4.411  0.6082  0.2739 -0.7624
 1004MOL0     C35427   6.964   9.246   4.530 -0.0028 -0.0773 -0.4608
 1004MOL0     C35428   6.967   9.373   4.611  0.7338  1.3915 -0.0867
 1004MOL0     O35429   7.083   9.394   4.690 -0.2795 -0.5886 -1.6261
 1004MOL0     C35430   7.123   9.523   4.716 -0.2138  0.1507  0.2833
 1004MOL0     C35431   7.038   9.631   4.722 -0.4038  0.3474  0.6064
 1004MOL0     C35432   7.097   9.749   4.765  0.2393 -0.2177 -0.2574
 1004MOL0     C35433   7.236   9.768   4.788 -0.1701  0.6932  0.1809
 1004MOL0     C35434   7.290   9.894   4.830 -0.6043  0.4123 -1.1493
 1004MOL0     O35435   7.425   9.889   4.857  0.2047  0.1288 -0.6322
 1004MOL0     C35436   7.506   9.991   4.905  0.7783 -0.7301  0.1537
 1004MOL0     C35437   7.476  10.129   4.914  0.6137 -0.2921  1.3951
 1004MOL0     C35438   7.572  10.218   4.959  0.3719 -0.0896  0.1978
 1004MOL0     C35439   7.702  10.170   4.987  0.6531  0.4335 -0.4466
 1004MOL0     O35440   7.811  10.243   5.017  0.8075  0.3103 -0.1148
 1004MOL0     C35441   7.801  10.381   5.039  0.4027 -0.7924 -0.1853
 1004MOL0     C35442   7.892  10.419   5.155 -0.1599 -0.3586 -0.3118
 1004MOL0     C35443   7.839  10.355   5.290  0.1755  0.2416 -0.2459
 1004MOL0     C35444   7.953  10.351   5.392  0.3772  0.7823 -0.2119
 1004MOL0     C35445   7.984  10.498   5.429 -1.4237  0.0865 -0.2903
 1004MOL0     C35446   8.044  10.480   5.570  0.1771 -0.1402 -0.7232
 1004MOL0     C35447   8.145  10.588   5.609 -0.3687 -0.2259  0.8330
 1004MOL0     C35448   8.097  10.734   5.586  0.0377  0.5425 -0.8540
 1004MOL0    Cl35449   7.936  10.758   5.658  0.2359  0.0452 -0.2590
 1004MOL0     C35450   7.724  10.032   4.988  0.8000 -0.5654 -0.4470
 1004MOL0     C35451   7.626   9.953   4.939  0.7740 -0.8401 -0.0319
 1004MOL0     O35452   7.224   9.993   4.851  0.2218  0.0141  0.8750
 1004MOL0     C35453   7.325   9.658   4.764 -0.3112  0.4140 -0.6232
 1004MOL0     C35454   7.263   9.538   4.725  0.2494 -0.1693  0.3319
 1004MOL0     N35455   7.386   9.309   4.261 -0.6685  0.4083  0.3017
 1004MOL0     N35456   7.485   9.225   4.226 -0.1084 -0.6226  0.0844
 1004MOL0     C35457   8.371   8.874   4.721 -0.9596  0.0956 -0.6688
 1004MOL0     C35458   8.418   8.857   4.855  0.6422 -1.1456 -0.3145
 1004MOL0     C35459   8.549   8.798   5.262  0.2779  0.9402 -0.3588
 1004MOL0     C35460   8.672   8.738   5.222 -1.0727  0.7386 -0.0919
 1004MOL0     C35461   8.768   8.720   5.321  0.4668 -1.0227 -0.3794
 1004MOL0     C35462   8.745   8.760   5.456 -0.7964  0.0546  0.6994
 1004MOL0     O35463   8.838   8.727   5.551  0.2911 -0.3319  0.5769
 1004MOL0     C35464   8.906   8.833   5.616  0.0094 -0.0595 -0.6535
 1004MOL0     C35465   8.989   8.775   5.740 -0.1852  0.0019 -0.2024
 1004MOL0     C35466   9.094   8.677   5.694 -0.1823  0.4347  0.5628
 1004MOL0     C35467   9.211   8.654   5.792  0.1706  0.2210  0.2584
 1004MOL0     C35468   9.154   8.611   5.918 -0.0167 -0.1129  0.6730
 1004MOL0     C35469   9.116   8.567   6.023 -0.5155  0.7466 -0.1033
 1004MOL0     C35470   8.617   8.816   5.492 -0.6263 -0.3127 -0.0167
 1004MOL0     C35471   8.515   8.836   5.397  0.1148  0.8064  0.8462
 1004MOL0     C35472   8.372   8.859   5.431 -0.1455 -0.0785  0.0862
 1004MOL0     H35473   8.298   8.552   4.915 -2.8207  1.2494  1.0163
 1004MOL0     H35474   8.254   8.555   4.690 -1.7505 -0.6048  1.4023
 1004MOL0     H35475   8.293   8.947   4.464 -1.1975  1.0027 -2.5033
 1004MOL0     H35476   8.218   8.831   4.353 -1.1429 -0.2739 -1.0780
 1004MOL0     H35477   8.080   8.910   4.607 -2.0600  0.7259 -0.8803
 1004MOL0     H35478   8.017   8.803   4.495  0.6232 -0.6927 -0.0249
 1004MOL0     H35479   8.018   9.027   4.343 -0.5145 -1.7807  0.7743
 1004MOL0     H35480   8.075   9.109   4.475  0.0315 -1.0158  2.7290
 1004MOL0     H35481   7.848   8.966   4.575  1.5900 -2.6138 -0.8534
 1004MOL0     H35482   7.823   9.125   4.496 -2.0632 -0.9850  1.7680
 1004MOL0     H35483   7.799   9.032   4.281  1.7790 -0.1947  0.0635
 1004MOL0     H35484   7.820   8.869   4.342  1.4597  0.3885  1.1507
 1004MOL0     H35485   7.622   8.898   4.511 -0.9832  0.5166  0.2785
 1004MOL0     H35486   7.608   9.056   4.428  0.1716  0.2064  0.0155
 1004MOL0     H35487   7.463   8.833   4.357  1.9375 -4.5139 -0.7604
 1004MOL0     H35488   7.606   8.782   4.279 -0.1622  0.2021 -2.7130
 1004MOL0     H35489   7.596   9.006   4.145 -0.8660  0.1635 -1.6327
 1004MOL0     H35490   7.450   8.918   4.124 -0.5428  0.0395 -0.4695
 1004MOL0     H35491   7.319   9.036   4.413 -0.2993  0.7912  0.2084
 1004MOL0     H35492   7.244   9.252   4.545 -1.0709  0.4668  0.2278
 1004MOL0     H35493   7.200   9.401   4.456 -0.1313  0.2044  0.8644
 1004MOL0     H35494   7.035   9.343   4.346 -0.8758  0.8638  0.5127
 1004MOL0     H35495   7.027   9.167   4.362 -2.0918  0.0309  1.2964
 1004MOL0     H35496   6.990   9.157   4.588  2.3190  1.4888  1.1186
 1004MOL0     H35497   6.860   9.243   4.496 -0.3096  2.8168 -0.0752
 1004MOL0     H35498   6.877   9.371   4.673  0.9137 -0.0736  0.1799
 1004MOL0     H35499   6.964   9.458   4.543  0.0280  0.1002 -1.7589
 1004MOL0     H35500   6.933   9.620   4.697 -0.3744  1.5317 -0.0788
 1004MOL0     H35501   7.033   9.836   4.775  0.7255 -0.1732  4.5925
 1004MOL0     H35502   7.381  10.168   4.877  0.7065 -1.3625 -0.1024
 1004MOL0     H35503   7.554  10.324   4.977  0.4529  0.0575 -0.5534
 1004MOL0     H35504   7.835  10.426   4.945 -0.0975 -0.6931 -0.3223
 1004MOL0     H35505   7.704  10.427   5.062 -0.2134 -1.9792 -0.3536
 1004MOL0     H35506   7.992  10.385   5.128  0.4058  0.5513  0.5838
 1004MOL0     H35507   7.889  10.528   5.154 -3.3496 -0.3299  0.0614
 1004MOL0     H35508   7.761  10.421   5.329  0.6891  0.5148  0.3466
 1004MOL0     H35509   7.798  10.256   5.269 -0.0946  0.5548 -1.2273
 1004MOL0     H35510   8.042  10.305   5.348  1.4505  0.9238  1.6862
 1004MOL0     H35511   7.923  10.288   5.477  0.9351 -2.4210 -2.2304
 1004MOL0     H35512   7.898  10.564   5.438 -1.0816  1.0130 -2.9617
 1004MOL0     H35513   8.057  10.540   5.358  0.9854 -0.0710  1.9214
 1004MOL0     H35514   7.958  10.473   5.637  0.5883  0.9153 -0.0703
 1004MOL0     H35515   8.105  10.389   5.574  0.4860  0.1036  0.8232
 1004MOL0     H35516   8.228  10.566   5.540 -1.5198 -0.1188 -0.6205
 1004MOL0     H35517   8.180  10.592   5.712  4.9769  0.9312 -0.6879
 1004MOL0     H35518   8.172  10.803   5.625  0.6230 -1.0329  0.9731
 1004MOL0     H35519   8.087  10.757   5.479  1.5414  3.7061 -0.4486
 1004MOL0     H35520   7.814   9.990   5.030  1.8974 -1.4250 -3.4240
 1004MOL0     H35521   7.637   9.846   4.919 -0.5047 -1.1911  0.9814
 1004MOL0     H35522   7.430   9.664   4.790 -0.5065  1.5606 -0.0594
 1004MOL0     H35523   7.323   9.448   4.711 -2.6623 -1.8500 -2.8696
 1004MOL0     H35524   8.390   8.969   4.674  0.4331 -0.2686 -0.8641
 1004MOL0     H35525   8.476   8.937   4.900 -1.2636  0.5527 -0.7490
 1004MOL0     H35526   8.690   8.692   5.125  1.2261  3.1062 -0.8748
 1004MOL0     H35527   8.860   8.669   5.294 -0.3679 -1.6589 -2.2119
 1004MOL0     H35528   8.842   8.909   5.661  1.4608  0.2728  0.9773
 1004MOL0     H35529   8.970   8.889   5.546 -0.7905  1.5938 -0.1140
 1004MOL0     H35530   8.925   8.725   5.813 -1.3774  0.7334 -0.7282
 1004MOL0     H35531   9.036   8.862   5.786  0.7679  0.5405 -2.0883
 1004MOL0     H35532   9.140   8.710   5.600  2.3869 -0.2511  1.5058
 1004MOL0     H35533   9.054   8.576   5.680 -0.0169 -0.1734  3.7216
 1004MOL0     H35534   9.275   8.579   5.745 -4.7138 -2.4233 -3.1329
 1004MOL0     H35535   9.268   8.740   5.827 -0.0076 -0.0537  1.2546
 1004MOL0     H35536   9.103   8.524   6.121  1.5660  1.7241  0.6798
 1004MOL0     H35537   8.589   8.846   5.592 -2.9286  1.4775 -1.1098
 1004MOL0     H35538   8.344   8.855   5.537 -2.0368  3.4626 -0.1269
 1004MOL0     H35539   8.353   8.964   5.403  1.6508 -0.0714 -1.3040
 1004MOL0     H35540   8.298   8.794   5.384 -2.8527  4.0074 -1.8831
 1005MOL0     O35541  11.334   4.386   6.107  0.3254 -0.0324 -0.7664
 1005MOL0     C35542  11.397   4.320   6.019  0.3406 -0.5122 -0.1382
 1005MOL0     O35543  11.517   4.273   6.035  0.0233 -0.1982 -0.0443
 1005MOL0     C35544  11.578   4.300   6.154 -0.1018 -0.4680 -0.6505
 1005MOL0     C35545  11.629   4.425   6.196  0.0745  0.0283  0.0990
 1005MOL0     C35546  11.686   4.448   6.322  1.0274  0.7611  0.0715
 1005MOL0     C35547  11.695   4.341   6.413  0.0460  1.2216 -0.8065
 1005MOL0     O35548  11.754   4.367   6.538  0.4242  0.0728  0.5688
 1005MOL0     C35549  11.826   4.258   6.606  0.1792 -0.7587  0.1579
 1005MOL0     C35550  11.753   4.237   6.742  0.5111  0.4112  0.5532
 1005MOL0     C35551  11.776   4.354   6.830  0.0467 -0.2688  0.0018
 1005MOL0     C35552  11.694   4.348   6.963  0.9529  0.3405 -0.8001
 1005MOL0     C35553  11.670   4.207   7.033  0.3661 -0.2573 -0.3197
 1005MOL0     C35554  11.790   4.150   7.112  0.6762 -0.0208 -0.7363
 1005MOL0     C35555  11.819   4.230   7.237  0.0225  0.2845 -0.0874
 1005MOL0     C35556  11.918   4.157   7.316  0.3937  0.6940 -0.5820
 1005MOL0     N35557  11.860   4.030   7.387 -0.3707  0.1920  0.0663
 1005MOL0     C35558  11.926   3.910   7.406 -0.5263 -0.4524  0.4818
 1005MOL0     C35559  11.857   3.863   7.509  0.3655 -1.0221  0.3641
 1005MOL0     C35560  11.890   3.726   7.562 -0.0058 -0.0484  0.4406
 1005MOL0     C35561  11.918   3.730   7.719 -1.3133  0.1585  0.9465
 1005MOL0     C35562  12.002   3.610   7.760  1.0313 -0.1513  0.5962
 1005MOL0     C35563  11.935   3.487   7.715 -0.7881  0.0102  0.2395
 1005MOL0     O35564  12.024   3.378   7.756 -0.9603 -0.0907 -0.2481
 1005MOL0     C35565  12.039   3.381   7.892 -0.2944  0.1513  0.1695
 1005MOL0     C35566  12.156   3.409   7.947  0.1201 -1.2527 -0.7901
 1005MOL0     C35567  12.166   3.403   8.089 -0.6037 -0.9928  0.2101
 1005MOL0     C35568  12.066   3.357   8.175 -0.5026  1.3061 -0.6385
 1005MOL0     C35569  12.094   3.321   8.318 -0.1281  0.7501  0.1433
 1005MOL0     O35570  11.998   3.247   8.385  0.1911 -0.3205  0.5013
 1005MOL0     C35571  12.021   3.199   8.517  0.7366  0.1894  0.5069
 1005MOL0     C35572  12.075   3.265   8.629 -0.5895  0.0132 -0.6073
 1005MOL0     C35573  12.074   3.212   8.754 -0.4541  0.7319  0.7802
 1005MOL0     C35574  12.022   3.083   8.791  1.1311 -1.4054 -0.0173
 1005MOL0     O35575  12.028   3.038   8.917  0.6300 -0.5011  0.1276
 1005MOL0     C35576  12.038   2.899   8.941  0.1517  0.0769 -0.7044
 1005MOL0     C35577  12.032   2.881   9.087  0.0180 -0.3448 -0.5985
 1005MOL0     C35578  12.094   2.746   9.124 -0.2870  0.1576 -0.1252
 1005MOL0     C35579  12.122   2.755   9.272 -0.0121  0.9440 -0.1327
 1005MOL0     C35580  12.156   2.621   9.342  0.3009 -0.1232  0.4674
 1005MOL0     C35581  12.299   2.603   9.312  0.6148  0.0395  1.0923
 1005MOL0     C35582  12.355   2.484   9.393 -1.2704  0.5787  1.7498
 1005MOL0     C35583  12.289   2.354   9.366 -0.2677  0.2062 -0.3172
 1005MOL0    Cl35584  12.330   2.308   9.204  0.3559 -0.3276  0.0469
 1005MOL0     C35585  11.975   3.015   8.677 -1.1277  0.1177  0.6775
 1005MOL0     C35586  11.975   3.069   8.550 -1.5226 -0.1544  0.2698
 1005MOL0     O35587  12.203   3.362   8.361 -0.2717  0.2877 -0.8407
 1005MOL0     C35588  11.945   3.328   8.118  0.6010 -0.2070 -0.1662
 1005MOL0     C35589  11.927   3.346   7.981  0.4587  0.6397 -0.2909
 1005MOL0     N35590  11.754   3.946   7.549  0.0331  1.1296 -0.1288
 1005MOL0     N35591  11.757   4.046   7.474  0.6697 -0.6963  0.4948
 1005MOL0     C35592  11.649   4.215   6.375  0.4094  0.6469 -0.0417
 1005MOL0     C35593  11.582   4.195   6.248 -0.5792 -0.4369  0.7590
 1005MOL0     C35594  11.313   4.301   5.888 -0.1002  0.6113 -0.6044
 1005MOL0     C35595  11.367   4.234   5.778 -0.4297 -0.3453 -0.2621
 1005MOL0     C35596  11.293   4.218   5.662 -0.1445  0.1137 -0.3220
 1005MOL0     C35597  11.164   4.254   5.645 -0.4988  0.5416  0.5419
 1005MOL0     O35598  11.075   4.245   5.539 -0.3167 -0.4782  1.0081
 1005MOL0     C35599  11.135   4.196   5.413  0.2398 -0.3353 -0.1272
 1005MOL0     C35600  11.128   4.043   5.420  0.5567  0.0284  0.4305
 1005MOL0     C35601  10.993   3.990   5.372  0.6653  0.4075  0.6366
 1005MOL0     C35602  10.962   3.843   5.398 -0.2782 -0.1182  0.7569
 1005MOL0     C35603  11.044   3.760   5.302  0.3337 -1.6816  0.2354
 1005MOL0     C35604  11.088   3.689   5.212  0.3630  1.0278  0.1041
 1005MOL0     C35605  11.110   4.329   5.748  0.6106  0.6339  0.7220
 1005MOL0     C35606  11.182   4.361   5.865  0.1988 -0.3040 -0.6666
 1005MOL0     C35607  11.104   4.454   5.966  0.2799  0.8057  1.0903
 1005MOL0     H35608  11.631   4.510   6.129 -0.7387 -0.5024 -0.6214
 1005MOL0     H35609  11.739   4.540   6.348  0.5013  1.7700 -2.1418
 1005MOL0     H35610  11.830   4.172   6.539 -0.2565 -0.8599  0.2584
 1005MOL0     H35611  11.925   4.298   6.628  0.9367 -1.8441 -1.1478
 1005MOL0     H35612  11.773   4.142   6.791 -1.6927 -0.5836 -0.3306
 1005MOL0     H35613  11.649   4.239   6.707  0.8931  1.9217 -0.6173
 1005MOL0     H35614  11.746   4.449   6.786  0.0939 -0.8895 -1.4182
 1005MOL0     H35615  11.880   4.365   6.862 -0.8765 -1.8723  4.1315
 1005MOL0     H35616  11.735   4.425   7.028 -0.2859 -0.1158  0.5642
 1005MOL0     H35617  11.597   4.389   6.934  1.3370  0.8817 -1.3596
 1005MOL0     H35618  11.596   4.217   7.114  0.6273 -4.4105  0.6622
 1005MOL0     H35619  11.617   4.134   6.971 -2.3779  2.0765 -0.9347
 1005MOL0     H35620  11.757   4.051   7.143 -2.1590  1.1164  0.2569
 1005MOL0     H35621  11.885   4.154   7.058  0.8820 -0.0808 -0.3791
 1005MOL0     H35622  11.720   4.235   7.285 -1.4815 -1.5381 -2.7329
 1005MOL0     H35623  11.862   4.325   7.207 -1.1283  0.4237 -1.4163
 1005MOL0     H35624  12.003   4.118   7.258 -0.0126 -4.5611  1.7376
 1005MOL0     H35625  11.962   4.220   7.394  0.1719 -1.9893  1.9040
 1005MOL0     H35626  12.007   3.861   7.353  1.0358  0.0166  2.3451
 1005MOL0     H35627  11.803   3.660   7.553  1.4476 -2.0268  0.3554
 1005MOL0     H35628  11.965   3.682   7.496  0.8591 -1.9351  2.5162
 1005MOL0     H35629  11.972   3.820   7.747 -0.8395 -0.6219  2.6208
 1005MOL0     H35630  11.821   3.733   7.769 -1.0115 -0.3862  1.5762
 1005MOL0     H35631  12.003   3.619   7.869  1.6499 -1.2023  0.6897
 1005MOL0     H35632  12.107   3.619   7.732  2.0489 -2.2322  3.2826
 1005MOL0     H35633  11.920   3.476   7.607  1.0007 -1.2657  0.0636
 1005MOL0     H35634  11.836   3.467   7.756 -0.7927  1.2869  0.8873
 1005MOL0     H35635  12.226   3.442   7.871 -0.4970 -0.1649 -0.9072
 1005MOL0     H35636  12.262   3.425   8.136 -1.4674  1.0449  1.1295
 1005MOL0     H35637  12.099   3.370   8.618  1.6897 -0.5517 -1.5988
 1005MOL0     H35638  12.096   3.280   8.836  2.3494  3.6007 -2.0563
 1005MOL0     H35639  11.956   2.850   8.889 -0.3276 -0.4327  0.4885
 1005MOL0     H35640  12.134   2.868   8.897  0.0735  1.0415 -1.5747
 1005MOL0     H35641  12.099   2.960   9.120  0.5874  0.4178 -3.3466
 1005MOL0     H35642  11.929   2.899   9.116  0.5934  1.0165  0.6656
 1005MOL0     H35643  12.033   2.658   9.105  1.1693 -0.4261 -2.4586
 1005MOL0     H35644  12.196   2.733   9.085 -0.0535 -0.8469  0.7834
 1005MOL0     H35645  12.037   2.794   9.328 -1.2585  0.1685 -1.4099
 1005MOL0     H35646  12.207   2.823   9.285  1.5254 -0.6190 -1.4764
 1005MOL0     H35647  12.088   2.543   9.308  0.6112  0.3935 -1.4401
 1005MOL0     H35648  12.140   2.631   9.450  1.3717 -1.7865  0.8154
 1005MOL0     H35649  12.310   2.587   9.204 -0.9532  1.2906  0.7149
 1005MOL0     H35650  12.363   2.684   9.348 -0.6478 -0.0741  3.8037
 1005MOL0     H35651  12.340   2.506   9.500 -0.2785  3.0907  1.4334
 1005MOL0     H35652  12.461   2.480   9.368 -1.5677  0.3276  0.4955
 1005MOL0     H35653  12.323   2.282   9.441 -0.8565  2.1533  1.9262
 1005MOL0     H35654  12.182   2.361   9.387  0.2403  2.7825  1.8456
 1005MOL0     H35655  11.945   2.910   8.683  1.6549 -0.8062 -0.1362
 1005MOL0     H35656  11.926   3.006   8.476 -0.0763 -1.7581  0.6166
 1005MOL0     H35657  11.867   3.287   8.182  1.7283 -1.7571  0.2835
 1005MOL0     H35658  11.838   3.309   7.930  1.1861  0.1533 -1.2562
 1005MOL0     H35659  11.664   4.138   6.449  0.4464  3.5531  3.2422
 1005MOL0     H35660  11.548   4.095   6.223 -0.4129  0.0635 -1.7270
 1005MOL0     H35661  11.469   4.196   5.774  0.0321  0.8539 -4.5723
 1005MOL0     H35662  11.352   4.161   5.591  1.0794 -4.1919  3.6239
 1005MOL0     H35663  11.238   4.231   5.404 -0.4348  2.5889  1.9636
 1005MOL0     H35664  11.078   4.242   5.332  0.7380 -1.1667 -0.9732
 1005MOL0     H35665  11.149   4.010   5.522  3.9452 -2.5308 -0.8849
 1005MOL0     H35666  11.212   4.005   5.362  0.4908 -1.0841  1.0202
 1005MOL0     H35667  10.983   4.026   5.269 -0.1149 -1.0000  0.1983
 1005MOL0     H35668  10.919   4.047   5.429  1.0397  2.4651 -0.7979
 1005MOL0     H35669  10.989   3.817   5.500 -0.8865  1.1995  1.2727
 1005MOL0     H35670  10.856   3.822   5.380 -0.2253  1.0100 -1.1171
 1005MOL0     H35671  11.145   3.633   5.141  3.0237  0.9437  2.1451
 1005MOL0     H35672  11.012   4.375   5.742  0.6138  0.5820  0.1804
 1005MOL0     H35673  11.001   4.472   5.935  0.6808  0.4771 -0.5267
 1005MOL0     H35674  11.099   4.393   6.057 -1.4055  0.1820  0.6172
 1005MOL0     H35675  11.153   4.548   5.991  0.0225  1.1237  0.4195
 1006MOL0     O35676  11.382   7.390   3.160 -0.1428 -0.7972 -0.2690
 1006MOL0     C35677  11.435   7.370   3.274 -0.2959 -0.2962  1.1990
 1006MOL0     O35678  11.466   7.467   3.360 -0.3910 -0.3771 -0.2210
 1006MOL0     C35679  11.488   7.593   3.316 -0.1471  0.1923  0.6896
 1006MOL0     C35680  11.609   7.629   3.252 -0.4272 -0.0906 -0.1536
 1006MOL0     C35681  11.632   7.765   3.218 -0.0234  0.1804  0.5213
 1006MOL0     C35682  11.540   7.864   3.241  0.8030 -0.3253 -0.0513
 1006MOL0     O35683  11.589   7.988   3.227  0.3314 -0.0250  0.0385
 1006MOL0     C35684  11.521   8.107   3.274  0.5014  0.1857  0.6806
 1006MOL0     C35685  11.424   8.168   3.165 -0.4402  0.7238  0.1391
 1006MOL0     C35686  11.491   8.231   3.035  0.3717  0.3217 -0.6015
 1006MOL0     C35687  11.374   8.258   2.937  0.3413 -0.6969 -0.6967
 1006MOL0     C35688  11.426   8.299   2.808 -1.2048  0.0588 -0.4066
 1006MOL0     C35689  11.338   8.397   2.744 -0.2638  0.2244 -0.0278
 1006MOL0     C35690  11.318   8.533   2.802  0.6159  0.0853  0.1378
 1006MOL0     C35691  11.171   8.591   2.795 -0.6526  0.5192 -0.0853
 1006MOL0     N35692  11.155   8.705   2.885 -0.6156  1.1000 -0.0471
 1006MOL0     C35693  11.168   8.840   2.854  0.0778 -0.3396 -0.6647
 1006MOL0     C35694  11.109   8.907   2.958 -0.7622 -0.0726  0.6254
 1006MOL0     C35695  11.103   9.052   2.984  0.0089  0.3828  0.2131
 1006MOL0     C35696  11.234   9.124   2.968  0.6094 -0.5515 -0.9652
 1006MOL0     C35697  11.323   9.134   3.099  0.2284  0.3721  0.6559
 1006MOL0     C35698  11.273   9.217   3.215 -0.2289  0.1362 -0.7564
 1006MOL0     O35699  11.195   9.335   3.181 -0.4880  0.5546 -0.0541
 1006MOL0     C35700  11.092   9.355   3.268 -0.2141 -1.4709  0.7312
 1006MOL0     C35701  11.100   9.356   3.409 -0.9438 -0.2379  0.1046
 1006MOL0     C35702  10.980   9.365   3.484 -0.2522 -0.3374 -0.0800
 1006MOL0     C35703  10.867   9.417   3.423  0.1920  0.9664 -0.0049
 1006MOL0     C35704  10.751   9.436   3.509 -0.3641 -0.6287 -0.7146
 1006MOL0     O35705  10.634   9.394   3.458  0.9435  0.2355 -1.4946
 1006MOL0     C35706  10.521   9.398   3.533  0.5441 -0.3733  0.1866
 1006MOL0     C35707  10.494   9.515   3.609  0.4470  0.0655  0.9404
 1006MOL0     C35708  10.369   9.522   3.669  0.2092  0.3312  0.3467
 1006MOL0     C35709  10.271   9.426   3.657  0.4982  0.1927 -0.1467
 1006MOL0     O35710  10.145   9.454   3.706 -0.0432 -0.0422 -0.3194
 1006MOL0     C35711  10.036   9.361   3.704  0.1675  0.1962  0.5387
 1006MOL0     C35712   9.911   9.427   3.767  0.5152 -0.3016 -0.8509
 1006MOL0     C35713   9.925   9.461   3.919 -0.3859  0.5753 -0.2104
 1006MOL0     C35714   9.788   9.477   3.996 -0.1075 -0.3419  0.5180
 1006MOL0     C35715   9.818   9.468   4.139  0.6105  0.2154  0.4036
 1006MOL0     C35716   9.690   9.425   4.209 -0.1122  0.2616 -0.3380
 1006MOL0     C35717   9.695   9.281   4.249  0.6950 -0.8903 -0.1332
 1006MOL0     C35718   9.553   9.249   4.303  0.7701 -0.0743  0.0274
 1006MOL0    Cl35719   9.552   9.074   4.333 -0.2973 -0.2209  0.1207
 1006MOL0     C35720  10.297   9.308   3.582 -0.6162 -0.5250 -0.2879
 1006MOL0     C35721  10.422   9.290   3.518  0.5960 -0.0662 -1.1899
 1006MOL0     O35722  10.763   9.503   3.613 -0.3573 -0.1616  0.6705
 1006MOL0     C35723  10.862   9.425   3.284  0.1830  0.7127 -0.4380
 1006MOL0     C35724  10.971   9.379   3.210 -0.9002  1.0343  0.1282
 1006MOL0     N35725  11.071   8.814   3.049 -0.2753 -0.0892 -0.3293
 1006MOL0     N35726  11.093   8.698   3.008  0.8035  0.3401  0.5676
 1006MOL0     C35727  11.421   7.827   3.304  0.3778 -0.0121  0.2644
 1006MOL0     C35728  11.396   7.696   3.347 -0.1162  0.5297 -0.6487
 1006MOL0     C35729  11.448   7.236   3.320  0.7512  0.0370 -0.7876
 1006MOL0     C35730  11.449   7.210   3.463 -0.3852 -0.5792 -0.1911
 1006MOL0     C35731  11.447   7.079   3.515 -0.2464 -0.1232  0.5001
 1006MOL0     C35732  11.444   6.974   3.439 -0.1569 -0.4641 -0.3677
 1006MOL0     O35733  11.441   6.852   3.501 -0.1163 -0.3809  0.2239
 1006MOL0     C35734  11.422   6.727   3.430  0.4308 -0.5984 -0.0736
 1006MOL0     C35735  11.560   6.671   3.399 -0.8830  0.7341 -0.7836
 1006MOL0     C35736  11.620   6.639   3.540  0.1853  0.7879  0.6046
 1006MOL0     C35737  11.737   6.541   3.541  0.0998  0.5092 -0.0724
 1006MOL0     C35738  11.798   6.534   3.665  0.7479  1.0357  1.1661
 1006MOL0     C35739  11.840   6.522   3.771  0.3284  0.8806 -0.0314
 1006MOL0     C35740  11.455   6.996   3.299 -1.1027  0.2290 -0.2247
 1006MOL0     C35741  11.446   7.117   3.232  0.4186  0.5343  0.1008
 1006MOL0     C35742  11.448   7.118   3.079  0.6619 -0.9346 -0.7122
 1006MOL0     H35743  11.683   7.549   3.248 -2.5527 -2.3143  1.7161
 1006MOL0     H35744  11.725   7.791   3.168  2.0625 -1.9311  2.9836
 1006MOL0     H35745  11.461   8.093   3.364 -2.8669  1.0923 -1.2838
 1006MOL0     H35746  11.609   8.171   3.286  1.5070  0.0621 -4.0917
 1006MOL0     H35747  11.374   8.245   3.225  0.3626  2.0973 -0.8962
 1006MOL0     H35748  11.350   8.095   3.130 -1.8635  0.4332  3.3249
 1006MOL0     H35749  11.577   8.173   2.999  1.4482  1.2646  0.3310
 1006MOL0     H35750  11.525   8.334   3.051 -1.5884  0.9776 -0.4578
 1006MOL0     H35751  11.309   8.172   2.919 -0.7853 -0.7011  2.6819
 1006MOL0     H35752  11.292   8.323   2.970 -0.7568 -1.4894 -1.7301
 1006MOL0     H35753  11.528   8.336   2.820 -1.2774  0.1739 -0.1422
 1006MOL0     H35754  11.440   8.205   2.754 -0.5562  0.7257 -1.4281
 1006MOL0     H35755  11.383   8.412   2.645  1.8971  2.8719  1.2310
 1006MOL0     H35756  11.238   8.354   2.733  0.2887 -0.8148 -1.2910
 1006MOL0     H35757  11.387   8.599   2.749  0.0161  0.7584  0.1770
 1006MOL0     H35758  11.349   8.538   2.907 -2.2460  1.4364  1.0268
 1006MOL0     H35759  11.133   8.616   2.695  0.3460  1.4980 -0.2419
 1006MOL0     H35760  11.108   8.514   2.839 -0.4621  0.2287 -0.3112
 1006MOL0     H35761  11.222   8.885   2.771  0.5421  1.5244  0.5885
 1006MOL0     H35762  11.036   9.102   2.914  0.8056  0.8458 -0.2251
 1006MOL0     H35763  11.060   9.076   3.082 -1.1361  1.7729 -0.5910
 1006MOL0     H35764  11.291   9.097   2.879 -1.9272  1.9199 -3.5845
 1006MOL0     H35765  11.206   9.229   2.951 -0.5503 -0.3442  1.6166
 1006MOL0     H35766  11.421   9.174   3.070  1.3346 -3.0057 -0.7542
 1006MOL0     H35767  11.353   9.035   3.134 -2.4093 -2.2006 -3.4814
 1006MOL0     H35768  11.365   9.243   3.269  0.7966  1.4584 -3.0175
 1006MOL0     H35769  11.222   9.152   3.286  2.7255 -1.3454  0.1748
 1006MOL0     H35770  11.193   9.336   3.461 -0.4093  2.7034  0.4561
 1006MOL0     H35771  10.993   9.369   3.592 -1.9648  0.2796  0.1287
 1006MOL0     H35772  10.562   9.597   3.629 -0.7438  0.3110  4.7872
 1006MOL0     H35773  10.339   9.610   3.726  0.7969 -0.5186  2.0353
 1006MOL0     H35774  10.034   9.331   3.599  3.4939 -0.2807  0.5012
 1006MOL0     H35775  10.066   9.276   3.766 -2.2689 -1.0921  0.0870
 1006MOL0     H35776   9.888   9.525   3.724  1.8236  1.4840  2.2187
 1006MOL0     H35777   9.829   9.356   3.756  1.0374 -1.6543  2.5971
 1006MOL0     H35778   9.987   9.378   3.953  3.2700  1.7193 -3.2847
 1006MOL0     H35779   9.989   9.543   3.951  1.6968 -0.5588 -1.2870
 1006MOL0     H35780   9.737   9.390   3.956  0.8948  0.4616 -2.8679
 1006MOL0     H35781   9.737   9.567   3.961 -1.3815  0.1075  3.2645
 1006MOL0     H35782   9.865   9.557   4.182  3.5047 -0.8605 -0.2675
 1006MOL0     H35783   9.895   9.395   4.168 -0.7196  0.0162  3.9730
 1006MOL0     H35784   9.680   9.488   4.298 -1.0952  0.1575 -0.3652
 1006MOL0     H35785   9.596   9.451   4.160 -0.9230 -0.8170  0.6018
 1006MOL0     H35786   9.775   9.273   4.322  0.9780  0.6761 -0.2301
 1006MOL0     H35787   9.724   9.229   4.157  1.2987  0.3317 -0.6603
 1006MOL0     H35788   9.535   9.305   4.395 -1.8562  0.0121 -0.4572
 1006MOL0     H35789   9.474   9.261   4.228  2.2669 -1.6934 -1.9286
 1006MOL0     H35790  10.220   9.239   3.551  0.2593 -1.5785 -0.1782
 1006MOL0     H35791  10.415   9.208   3.447  0.1963 -0.3039 -0.8789
 1006MOL0     H35792  10.771   9.447   3.230 -0.4667  0.8250  0.6630
 1006MOL0     H35793  10.986   9.386   3.103 -0.0575 -2.3800 -0.0949
 1006MOL0     H35794  11.347   7.899   3.337  1.0447  0.6934  0.2374
 1006MOL0     H35795  11.307   7.671   3.404  0.8089 -1.3083  0.0885
 1006MOL0     H35796  11.439   7.290   3.536 -2.9239 -0.5744 -0.4524
 1006MOL0     H35797  11.417   7.069   3.619 -0.9721  3.2222  0.7016
 1006MOL0     H35798  11.358   6.740   3.342 -1.2453 -0.7663  1.0592
 1006MOL0     H35799  11.371   6.641   3.475  0.9218 -1.2494 -0.7409
 1006MOL0     H35800  11.632   6.732   3.342  2.1974 -1.4568  0.4690
 1006MOL0     H35801  11.549   6.593   3.323  1.9805 -0.8279  0.2530
 1006MOL0     H35802  11.548   6.602   3.614 -0.9450  2.5014  0.4139
 1006MOL0     H35803  11.656   6.738   3.570 -1.5059  1.7997 -0.5928
 1006MOL0     H35804  11.718   6.440   3.504 -0.4830  0.6914 -0.2919
 1006MOL0     H35805  11.811   6.584   3.473 -1.8424  4.8048  0.2118
 1006MOL0     H35806  11.888   6.505   3.865 -0.9271 -1.6770  0.2069
 1006MOL0     H35807  11.448   6.906   3.239 -1.8958  1.3919 -1.9585
 1006MOL0     H35808  11.494   7.209   3.039  2.4323 -1.7172 -0.5161
 1006MOL0     H35809  11.520   7.050   3.034  0.5639 -1.0197 -0.7412
 1006MOL0     H35810  11.346   7.096   3.044 -0.7962  1.1358  1.8306
 1007MOL0     O35811   0.404   4.636   7.802  0.3257  0.1574  0.5130
 1007MOL0     C35812   0.281   4.659   7.800  0.0593  0.5912  0.4910
 1007MOL0     O35813   0.181   4.564   7.817  0.0781  0.0595  0.0029
 1007MOL0     C35814   0.233   4.443   7.842 -0.6485  0.4795 -0.3997
 1007MOL0     C35815   0.243   4.341   7.746 -0.6018 -0.3740 -0.3616
 1007MOL0     C35816   0.297   4.212   7.780  0.9832  0.6240  0.6698
 1007MOL0     C35817   0.321   4.176   7.915 -0.5232  0.1783  0.4601
 1007MOL0     O35818   0.377   4.045   7.947 -0.3955  0.3000  0.5384
 1007MOL0     C35819   0.417   4.018   8.082  0.2119 -0.8915 -0.2653
 1007MOL0     C35820   0.472   3.876   8.069  0.4247  0.8308  0.4807
 1007MOL0     C35821   0.475   3.800   8.207  0.6256 -0.6451  0.2532
 1007MOL0     C35822   0.565   3.850   8.321 -0.2364  0.0126 -0.4252
 1007MOL0     C35823   0.710   3.859   8.276  0.3441  0.3107 -0.2327
 1007MOL0     C35824   0.773   3.723   8.259  1.2189 -0.4254 -0.3708
 1007MOL0     C35825   0.931   3.740   8.251  0.6011  0.0772 -0.3080
 1007MOL0     C35826   0.995   3.607   8.228  0.2967  0.4204  0.6852
 1007MOL0     N35827   1.138   3.624   8.232  1.0201 -0.1334 -0.9068
 1007MOL0     C35828   1.220   3.584   8.330 -0.0750 -0.2804  0.3979
 1007MOL0     C35829   1.341   3.582   8.285 -0.6593  1.0985 -0.6730
 1007MOL0     C35830   1.459   3.564   8.380  0.0381  0.8760  0.2076
 1007MOL0     C35831   1.484   3.424   8.428  0.0327  0.0065 -0.0504
 1007MOL0     C35832   1.556   3.327   8.345 -1.2889 -0.0888  0.0412
 1007MOL0     C35833   1.702   3.343   8.348  0.4557 -1.4114  0.3434
 1007MOL0     O35834   1.747   3.443   8.253 -0.0979  0.1140 -0.4197
 1007MOL0     C35835   1.884   3.465   8.234 -0.0948 -0.4794  0.0408
 1007MOL0     C35836   1.905   3.555   8.125  0.4322  0.7907 -0.1710
 1007MOL0     C35837   2.036   3.596   8.096 -0.3625  0.2074 -0.1066
 1007MOL0     C35838   2.141   3.554   8.179 -1.5784 -0.4281  0.2882
 1007MOL0     C35839   2.287   3.590   8.144  0.9915 -0.4812 -0.1413
 1007MOL0     O35840   2.283   3.709   8.064 -0.1361  0.2041  0.3792
 1007MOL0     C35841   2.403   3.769   8.043  0.9949 -0.1169  0.3583
 1007MOL0     C35842   2.519   3.703   7.987  0.0657 -0.2566  0.7668
 1007MOL0     C35843   2.648   3.763   7.996  0.3968 -1.3985  0.1816
 1007MOL0     C35844   2.656   3.899   8.041 -0.8745 -0.7805  0.6123
 1007MOL0     O35845   2.775   3.974   8.064  1.0647  0.5939 -0.0913
 1007MOL0     C35846   2.892   3.892   8.043 -1.2414  0.1589 -0.6395
 1007MOL0     C35847   3.008   3.964   8.114 -0.1275  0.3093  0.4085
 1007MOL0     C35848   3.138   3.880   8.100 -0.9687 -0.9822  0.4864
 1007MOL0     C35849   3.270   3.939   8.170  0.5116  0.1663 -0.2622
 1007MOL0     C35850   3.371   3.825   8.196 -0.0143 -0.0907  0.2574
 1007MOL0     C35851   3.509   3.853   8.267  0.0645  0.0863 -0.1626
 1007MOL0     C35852   3.541   4.005   8.252  0.2911  0.0884  0.8153
 1007MOL0     C35853   3.672   4.051   8.304  0.3153 -0.1972  0.0689
 1007MOL0    Cl35854   3.703   4.219   8.267  0.6305 -0.2196  0.8404
 1007MOL0     C35855   2.534   3.975   8.064 -0.2542  0.9038 -1.0388
 1007MOL0     C35856   2.406   3.905   8.066 -0.6720  0.2427 -0.1297
 1007MOL0     O35857   2.383   3.536   8.199  0.4770  0.0376 -0.4272
 1007MOL0     C35858   2.116   3.455   8.279  0.3345  0.3650 -0.1091
 1007MOL0     C35859   1.986   3.424   8.314  0.2994  0.6091  0.2094
 1007MOL0     N35860   1.332   3.610   8.150  0.6245 -0.5508  0.7359
 1007MOL0     N35861   1.207   3.639   8.120  0.4302  0.4778  0.9621
 1007MOL0     C35862   0.314   4.279   8.012 -0.1883  0.3593 -0.2058
 1007MOL0     C35863   0.264   4.408   7.975 -0.0478  0.7121 -0.1609
 1007MOL0     C35864   0.246   4.811   7.785 -0.0416 -0.5586  0.9901
 1007MOL0     C35865   0.352   4.905   7.778 -0.3762  0.7905 -0.2213
 1007MOL0     C35866   0.335   5.042   7.768 -0.6780 -0.0798 -0.5881
 1007MOL0     C35867   0.210   5.094   7.742 -0.4571  0.1205 -0.3639
 1007MOL0     O35868   0.207   5.224   7.693 -0.5311 -0.7484  0.5933
 1007MOL0     C35869   0.071   5.280   7.674 -0.2748  0.3391 -0.3881
 1007MOL0     C35870  -0.009   5.232   7.550  0.1008  0.1006  0.3883
 1007MOL0     C35871   0.069   5.273   7.416  0.3857 -0.3233  0.1158
 1007MOL0     C35872   0.032   5.416   7.364  1.0010 -0.4971 -0.1560
 1007MOL0     C35873   0.134   5.471   7.274  0.5923  0.1886  0.5190
 1007MOL0     C35874   0.230   5.495   7.207 -1.3300 -0.3717 -0.2776
 1007MOL0     C35875   0.100   5.005   7.766  0.2932 -0.1330 -0.5559
 1007MOL0     C35876   0.117   4.869   7.787 -0.6341 -0.4441  0.1093
 1007MOL0     C35877  -0.002   4.783   7.814  0.2910  0.9252 -0.0163
 1007MOL0     H35878   0.232   4.367   7.641  0.0367 -0.9457 -0.5843
 1007MOL0     H35879   0.310   4.142   7.698 -2.6988  3.3834 -2.6485
 1007MOL0     H35880   0.481   4.103   8.110 -1.7000  0.2447  0.8284
 1007MOL0     H35881   0.323   4.016   8.138 -1.2181  1.6681 -2.3308
 1007MOL0     H35882   0.572   3.860   8.028  1.1669 -0.8886  2.7153
 1007MOL0     H35883   0.397   3.831   8.004 -1.5859  2.0471  1.8434
 1007MOL0     H35884   0.510   3.701   8.174 -1.4500 -1.2550 -0.2940
 1007MOL0     H35885   0.369   3.792   8.236  0.9625 -0.5402  1.5687
 1007MOL0     H35886   0.519   3.943   8.353  1.1588  0.9846 -1.1514
 1007MOL0     H35887   0.567   3.787   8.410 -1.1834 -0.5213 -0.7604
 1007MOL0     H35888   0.723   3.930   8.193 -1.2669  2.6426  1.3945
 1007MOL0     H35889   0.768   3.907   8.356 -2.1110  1.3089  1.0590
 1007MOL0     H35890   0.743   3.654   8.338  1.8170 -1.2885 -0.8738
 1007MOL0     H35891   0.735   3.695   8.160  1.6440  2.2419 -1.3853
 1007MOL0     H35892   0.967   3.783   8.345  1.9303  1.9286 -1.6150
 1007MOL0     H35893   0.961   3.808   8.171 -0.3495  1.7850  0.7275
 1007MOL0     H35894   0.961   3.535   8.303  0.7511  1.4144  1.8999
 1007MOL0     H35895   0.987   3.571   8.125 -0.5513 -0.0624  0.9065
 1007MOL0     H35896   1.188   3.571   8.433 -0.5974 -3.4399 -0.0724
 1007MOL0     H35897   1.546   3.599   8.322  0.1831  0.4280  0.1553
 1007MOL0     H35898   1.438   3.631   8.464 -0.7227  2.6099 -1.2754
 1007MOL0     H35899   1.525   3.427   8.529 -3.2488  0.9385  1.3824
 1007MOL0     H35900   1.385   3.381   8.444 -0.7850  1.2793 -1.3422
 1007MOL0     H35901   1.522   3.337   8.241  2.3114 -1.6910 -1.4442
 1007MOL0     H35902   1.528   3.226   8.375 -1.5135 -0.8116 -2.3965
 1007MOL0     H35903   1.735   3.251   8.298 -1.8083 -3.1338  1.8243
 1007MOL0     H35904   1.745   3.341   8.448 -1.5344 -4.2761  1.2478
 1007MOL0     H35905   1.820   3.587   8.066 -1.1731 -2.0029  0.4393
 1007MOL0     H35906   2.057   3.668   8.017  1.6850 -2.0343 -1.7908
 1007MOL0     H35907   2.501   3.600   7.962 -1.5169  0.6580 -2.2886
 1007MOL0     H35908   2.730   3.707   7.952  0.5477 -1.2900  0.3199
 1007MOL0     H35909   2.880   3.793   8.088  0.5394  0.3620  0.3726
 1007MOL0     H35910   2.913   3.887   7.936  0.5690  2.6790 -0.4749
 1007MOL0     H35911   3.027   4.064   8.074  3.4805 -0.5610 -0.4148
 1007MOL0     H35912   2.980   3.964   8.219  0.7974 -1.1234  0.6847
 1007MOL0     H35913   3.123   3.782   8.146  2.2075 -1.0999  1.4695
 1007MOL0     H35914   3.164   3.881   7.994 -0.4664  2.6002  0.4973
 1007MOL0     H35915   3.239   3.971   8.270 -0.5718 -0.1051 -0.4977
 1007MOL0     H35916   3.307   4.027   8.116 -1.1590  2.3618  1.9067
 1007MOL0     H35917   3.390   3.789   8.094 -1.2534  1.5063 -0.5847
 1007MOL0     H35918   3.313   3.756   8.258 -0.8883 -0.2359 -0.6958
 1007MOL0     H35919   3.492   3.836   8.374 -0.8293 -1.7846 -0.5560
 1007MOL0     H35920   3.594   3.794   8.233  2.3431  3.1021 -0.0689
 1007MOL0     H35921   3.461   4.070   8.289  3.2548  4.9293 -0.3754
 1007MOL0     H35922   3.542   4.030   8.145  1.2153  0.2968  0.8679
 1007MOL0     H35923   3.666   4.045   8.413  2.0423  4.1168  0.5884
 1007MOL0     H35924   3.750   3.983   8.269 -1.2343 -2.7493  1.1886
 1007MOL0     H35925   2.546   4.072   8.113 -2.0646  1.0209 -0.7666
 1007MOL0     H35926   2.322   3.967   8.093 -1.9276 -1.1137 -0.7810
 1007MOL0     H35927   2.186   3.400   8.341  0.4878  1.2731  0.5482
 1007MOL0     H35928   1.958   3.366   8.401 -1.8736 -1.1425 -1.5197
 1007MOL0     H35929   0.330   4.252   8.116 -0.6694 -0.5051 -0.3441
 1007MOL0     H35930   0.252   4.483   8.053 -1.7382  2.9373 -2.3859
 1007MOL0     H35931   0.457   4.878   7.780  0.0053  1.7155 -3.3676
 1007MOL0     H35932   0.421   5.108   7.760 -0.8015 -0.1306 -2.8001
 1007MOL0     H35933   0.091   5.387   7.684 -1.6597  0.5530  0.3932
 1007MOL0     H35934   0.005   5.262   7.759 -0.7437  3.7727  0.1366
 1007MOL0     H35935  -0.110   5.271   7.562 -0.7591 -1.5928 -0.8607
 1007MOL0     H35936  -0.007   5.123   7.553  1.4256 -0.0242 -2.0355
 1007MOL0     H35937   0.041   5.189   7.351  2.8722 -1.5711  0.5152
 1007MOL0     H35938   0.177   5.254   7.427  0.3852 -1.0988 -1.0838
 1007MOL0     H35939  -0.062   5.407   7.308 -0.0249 -2.2487  1.7268
 1007MOL0     H35940  -0.001   5.487   7.441 -1.1547 -2.4583  0.8575
 1007MOL0     H35941   0.327   5.511   7.165  0.8412 -4.5385  2.5018
 1007MOL0     H35942  -0.000   5.047   7.774 -0.6532 -2.4438  0.6165
 1007MOL0     H35943  -0.002   4.748   7.918 -0.9713  1.7533  0.2836
 1007MOL0     H35944  -0.091   4.841   7.788 -0.0999 -0.3893 -1.7626
 1007MOL0     H35945  -0.018   4.696   7.750  3.0208 -1.3751  2.1633
 1008MOL0     O35946   0.203   1.319   0.643 -0.5235  0.3075  0.5462
 1008MOL0     C35947   0.150   1.230   0.707  0.5547  0.5544  0.1013
 1008MOL0     O35948   0.046   1.149   0.663 -1.1485 -0.5043 -0.7253
 1008MOL0     C35949  -0.005   1.179   0.543 -0.1167 -0.8951  0.3422
 1008MOL0     C35950  -0.024   1.083   0.444 -0.3508 -0.6251 -0.4042
 1008MOL0     C35951  -0.072   1.107   0.319  0.2407  0.1567 -0.2564
 1008MOL0     C35952  -0.111   1.231   0.281 -0.8367 -0.2000 -0.1281
 1008MOL0     O35953  -0.131   1.273   0.155  0.0309  0.0304 -0.3556
 1008MOL0     C35954  -0.242   1.198   0.091 -0.7062  0.3133 -0.2982
 1008MOL0     C35955  -0.343   1.291   0.027 -0.2733 -0.2357  0.7186
 1008MOL0     C35956  -0.455   1.344   0.126 -1.3181  0.3570  0.1507
 1008MOL0     C35957  -0.586   1.382   0.060 -0.0220  0.3094  1.1065
 1008MOL0     C35958  -0.693   1.423   0.172 -0.8902 -0.2210  1.3292
 1008MOL0     C35959  -0.820   1.496   0.122  0.1252 -0.3663  0.3100
 1008MOL0     C35960  -0.935   1.516   0.226  0.3543  0.1872 -0.2278
 1008MOL0     C35961  -0.902   1.647   0.303  0.7824  1.1035  0.9817
 1008MOL0     N35962  -0.994   1.656   0.414 -0.1407  0.2332 -0.2332
 1008MOL0     C35963  -1.101   1.735   0.420 -0.9883  0.1527 -0.1206
 1008MOL0     C35964  -1.145   1.709   0.549  0.7098 -0.1061 -0.0000
 1008MOL0     C35965  -1.254   1.789   0.610 -0.5056  0.5326  0.2332
 1008MOL0     C35966  -1.383   1.723   0.599 -0.0841  0.1417 -0.4934
 1008MOL0     C35967  -1.489   1.772   0.702  0.0833 -0.3763 -0.7845
 1008MOL0     C35968  -1.628   1.797   0.629 -0.2990  0.2552  0.4870
 1008MOL0     O35969  -1.736   1.795   0.722  0.1924 -0.3664  0.5467
 1008MOL0     C35970  -1.795   1.676   0.758  0.5551 -0.0495 -0.5372
 1008MOL0     C35971  -1.785   1.564   0.676  0.5002 -1.1205 -0.2851
 1008MOL0     C35972  -1.867   1.456   0.705  0.9003 -0.6225 -0.4122
 1008MOL0     C35973  -1.961   1.452   0.814 -0.6696 -0.8162  0.3068
 1008MOL0     C35974  -2.062   1.345   0.817  0.9927  0.2740 -0.8401
 1008MOL0     O35975  -2.070   1.249   0.712  0.4742 -0.0553 -0.1616
 1008MOL0     C35976  -2.178   1.165   0.724  0.9556 -0.2629  0.0201
 1008MOL0     C35977  -2.167   1.028   0.737 -0.1445  0.2564 -0.2263
 1008MOL0     C35978  -2.278   0.943   0.738  0.3354 -0.7257 -0.0361
 1008MOL0     C35979  -2.404   0.999   0.752  0.4737 -0.2584 -0.0602
 1008MOL0     O35980  -2.520   0.924   0.760 -1.0877 -0.3952 -0.8068
 1008MOL0     C35981  -2.638   0.962   0.704  0.4360  0.7740  1.0538
 1008MOL0     C35982  -2.651   0.926   0.553 -0.9580 -0.8638  0.1756
 1008MOL0     C35983  -2.677   0.785   0.511 -0.3509  0.1348 -0.1770
 1008MOL0     C35984  -2.817   0.738   0.563 -0.7122 -0.1651 -0.0177
 1008MOL0     C35985  -2.837   0.587   0.525 -0.5809 -0.0674 -0.3050
 1008MOL0     C35986  -2.967   0.519   0.568  0.2166 -1.4341  0.4370
 1008MOL0     C35987  -3.104   0.585   0.536 -0.9148  0.5652  0.1671
 1008MOL0     C35988  -3.206   0.473   0.526  0.0625  0.0785  1.1312
 1008MOL0    Cl35989  -3.234   0.394   0.688  0.1206 -0.0239  0.4479
 1008MOL0     C35990  -2.420   1.135   0.764 -0.7004 -0.8151 -0.2522
 1008MOL0     C35991  -2.310   1.219   0.746 -0.1549  0.4591 -0.1681
 1008MOL0     O35992  -2.137   1.343   0.917 -0.0160  0.1933 -0.5884
 1008MOL0     C35993  -1.959   1.569   0.901 -0.8058 -0.9002 -0.1146
 1008MOL0     C35994  -1.883   1.686   0.869  0.0384 -0.1753  0.0267
 1008MOL0     N35995  -1.068   1.616   0.612 -0.7160 -0.1948  0.1238
 1008MOL0     N35996  -0.974   1.598   0.531 -0.1464  0.1129 -0.4923
 1008MOL0     C35997  -0.101   1.340   0.369 -0.2870  0.4937 -0.7203
 1008MOL0     C35998  -0.047   1.310   0.500  0.4193 -0.6848  0.6450
 1008MOL0     C35999   0.189   1.231   0.848 -1.0032  0.2689  0.2344
 1008MOL0     C36000   0.080   1.209   0.939  0.1206  0.6945 -0.0695
 1008MOL0     C36001   0.091   1.214   1.084  0.2387 -1.1859 -0.5047
 1008MOL0     C36002   0.214   1.259   1.131  1.2287 -0.1543 -1.0821
 1008MOL0     O36003   0.239   1.266   1.271 -0.0514  0.4906 -0.1110
 1008MOL0     C36004   0.254   1.394   1.326  0.7150  0.1971 -0.6487
 1008MOL0     C36005   0.118   1.465   1.335 -0.0769 -0.1489  0.7730
 1008MOL0     C36006   0.057   1.429   1.470 -0.9679  0.7372  0.2254
 1008MOL0     C36007  -0.077   1.496   1.489  0.0123 -0.8111 -0.2409
 1008MOL0     C36008  -0.105   1.545   1.627 -0.2699 -0.7085 -0.3931
 1008MOL0     C36009  -0.137   1.575   1.739 -0.0766  0.5049 -0.4370
 1008MOL0     C36010   0.315   1.309   1.044 -0.3805 -0.1811 -1.1484
 1008MOL0     C36011   0.310   1.288   0.905 -0.0009 -0.1137 -0.5355
 1008MOL0     C36012   0.432   1.339   0.831  0.6385 -0.5373 -0.2332
 1008MOL0     H36013  -0.001   0.980   0.468 -1.0501 -0.5513  0.6548
 1008MOL0     H36014  -0.094   1.023   0.253 -5.6087  0.8814  0.2660
 1008MOL0     H36015  -0.196   1.122   0.028  0.0203 -0.4248  1.0799
 1008MOL0     H36016  -0.306   1.144   0.162 -0.3284 -0.9224 -0.8760
 1008MOL0     H36017  -0.401   1.231  -0.044 -0.1567 -0.1475  0.5485
 1008MOL0     H36018  -0.285   1.368  -0.026 -0.0452  0.7996  2.4008
 1008MOL0     H36019  -0.414   1.424   0.188  0.4011  0.5663 -1.1443
 1008MOL0     H36020  -0.474   1.268   0.202  1.8975 -1.4527 -0.6540
 1008MOL0     H36021  -0.561   1.468  -0.003 -1.7793  1.4879  1.9323
 1008MOL0     H36022  -0.637   1.315  -0.009  2.3977  1.4121 -1.9681
 1008MOL0     H36023  -0.735   1.344   0.235 -2.1521  0.6463  1.6159
 1008MOL0     H36024  -0.631   1.493   0.229  0.4735 -1.1332  1.0360
 1008MOL0     H36025  -0.796   1.584   0.060  1.4724 -1.9250 -1.5125
 1008MOL0     H36026  -0.868   1.433   0.046  4.2243  1.3795 -4.3022
 1008MOL0     H36027  -0.937   1.431   0.295 -0.3108  1.3200  1.2279
 1008MOL0     H36028  -1.029   1.520   0.170 -1.9590 -2.0488  3.0875
 1008MOL0     H36029  -0.804   1.654   0.349  0.5085  0.2245  1.7233
 1008MOL0     H36030  -0.908   1.727   0.228 -2.5272  1.4051  1.4119
 1008MOL0     H36031  -1.139   1.801   0.342  0.7354 -0.6588 -1.7278
 1008MOL0     H36032  -1.230   1.790   0.717 -1.4072 -0.8793  0.4745
 1008MOL0     H36033  -1.263   1.890   0.569 -4.5410  0.5748  0.7918
 1008MOL0     H36034  -1.411   1.746   0.496 -1.1071 -1.2726 -0.5670
 1008MOL0     H36035  -1.378   1.615   0.612  0.9209  0.3055  0.7100
 1008MOL0     H36036  -1.472   1.868   0.752  1.4571 -1.0170  0.0438
 1008MOL0     H36037  -1.500   1.685   0.768 -5.2530 -1.2359 -2.3597
 1008MOL0     H36038  -1.625   1.729   0.543 -4.4058  1.4308 -0.8125
 1008MOL0     H36039  -1.618   1.899   0.590  2.0713 -0.6257 -1.5097
 1008MOL0     H36040  -1.715   1.543   0.596 -0.6099 -4.2098 -0.6068
 1008MOL0     H36041  -1.859   1.371   0.639 -0.4624  0.0494 -1.4703
 1008MOL0     H36042  -2.070   0.979   0.736  0.4926  1.4997 -0.6013
 1008MOL0     H36043  -2.272   0.835   0.743  0.4568 -0.7418 -0.5024
 1008MOL0     H36044  -2.706   0.902   0.764  0.0911  1.2175  1.1150
 1008MOL0     H36045  -2.662   1.065   0.734  1.5286  1.3757 -0.0502
 1008MOL0     H36046  -2.719   1.006   0.523  2.2802  2.6231  1.2736
 1008MOL0     H36047  -2.554   0.952   0.510  0.6887 -1.7896  3.0634
 1008MOL0     H36048  -2.673   0.760   0.405  1.0809  0.4789 -0.2266
 1008MOL0     H36049  -2.585   0.735   0.545  0.0660  1.5037  0.8258
 1008MOL0     H36050  -2.894   0.793   0.507 -1.3020  1.3117  2.1183
 1008MOL0     H36051  -2.830   0.762   0.669 -1.8882 -0.7379 -0.0242
 1008MOL0     H36052  -2.753   0.528   0.562 -1.2537  0.6609  2.7241
 1008MOL0     H36053  -2.831   0.585   0.416  2.1496  0.5837 -0.2509
 1008MOL0     H36054  -2.955   0.421   0.521  2.8785 -2.1697  2.4010
 1008MOL0     H36055  -2.976   0.493   0.674 -2.7420 -0.0596  0.6364
 1008MOL0     H36056  -3.094   0.634   0.438  3.7803 -0.8459 -0.3342
 1008MOL0     H36057  -3.132   0.662   0.608 -3.7382  1.7051 -1.9417
 1008MOL0     H36058  -3.299   0.501   0.475  1.4693  0.2134 -1.5450
 1008MOL0     H36059  -3.170   0.394   0.459 -2.6196 -0.3248  0.0306
 1008MOL0     H36060  -2.509   1.192   0.788 -0.9266 -1.7621  1.3194
 1008MOL0     H36061  -2.311   1.328   0.749  3.1110  0.6027 -0.6334
 1008MOL0     H36062  -2.008   1.563   0.998  0.1769 -2.0743  0.3323
 1008MOL0     H36063  -1.874   1.775   0.931 -1.4088 -0.7888  1.1628
 1008MOL0     H36064  -0.126   1.440   0.334 -2.7354 -0.1882 -1.0603
 1008MOL0     H36065  -0.029   1.393   0.567  2.0330  0.6094 -1.2678
 1008MOL0     H36066  -0.015   1.174   0.900  1.8578 -1.2480 -2.8727
 1008MOL0     H36067  -0.004   1.189   1.130 -1.9809 -0.1364 -4.1751
 1008MOL0     H36068   0.317   1.460   1.265  0.4124  1.4034  0.3037
 1008MOL0     H36069   0.288   1.384   1.429 -1.5120  0.3303  0.1377
 1008MOL0     H36070   0.050   1.434   1.255  0.7001  0.6758 -0.2365
 1008MOL0     H36071   0.141   1.572   1.328  2.9868 -0.7582  0.2504
 1008MOL0     H36072   0.124   1.462   1.550 -1.2210  2.4615 -0.2418
 1008MOL0     H36073   0.056   1.319   1.475 -3.2703  0.5888 -1.8600
 1008MOL0     H36074  -0.077   1.579   1.417  0.6317 -0.3068  0.3355
 1008MOL0     H36075  -0.163   1.443   1.447  0.4209 -0.4406 -1.5968
 1008MOL0     H36076  -0.179   1.596   1.836 -0.2267  2.9439 -0.9455
 1008MOL0     H36077   0.390   1.358   1.105 -1.4410  0.6860 -0.4811
 1008MOL0     H36078   0.435   1.303   0.728 -2.6339 -0.9124 -0.3247
 1008MOL0     H36079   0.423   1.448   0.836 -0.6855 -0.6564  0.5138
 1008MOL0     H36080   0.516   1.296   0.886 -0.5341  1.0748  3.1137
 1009MOL0     O36081   0.109   6.472   8.248 -0.2714  1.1986  0.4891
 1009MOL0     C36082   0.228   6.443   8.215 -0.2166 -0.6582  0.1885
 1009MOL0     O36083   0.278   6.439   8.085  0.3904  0.6303 -0.4703
 1009MOL0     C36084   0.219   6.516   7.990  0.8924  0.8326 -0.0098
 1009MOL0     C36085   0.282   6.622   7.937  0.2426 -0.1297 -0.4873
 1009MOL0     C36086   0.234   6.708   7.844  0.2489 -0.0005  0.4199
 1009MOL0     C36087   0.109   6.692   7.787 -0.0248 -1.1983 -0.0887
 1009MOL0     O36088   0.063   6.789   7.706  0.5119  0.0590 -0.0663
 1009MOL0     C36089   0.008   6.736   7.580  0.4507  0.0812  0.8806
 1009MOL0     C36090   0.004   6.841   7.471 -0.5136 -0.2541 -0.8600
 1009MOL0     C36091  -0.056   6.793   7.341 -0.9455  0.5293  0.3987
 1009MOL0     C36092  -0.208   6.769   7.351 -0.2189  0.5890 -0.0143
 1009MOL0     C36093  -0.276   6.734   7.217  0.6810 -0.4770 -0.2524
 1009MOL0     C36094  -0.412   6.666   7.244  0.1539  0.3579 -0.0382
 1009MOL0     C36095  -0.447   6.577   7.123 -0.5345 -0.1051 -0.4926
 1009MOL0     C36096  -0.566   6.481   7.141 -0.9877  0.5839 -0.3543
 1009MOL0     N36097  -0.692   6.553   7.180  0.2295 -0.6980  0.6002
 1009MOL0     C36098  -0.735   6.669   7.121 -0.4378  0.5782 -0.0043
 1009MOL0     C36099  -0.833   6.717   7.198  0.6109  0.5447 -0.8489
 1009MOL0     C36100  -0.912   6.841   7.180  0.1792 -0.7485  0.2591
 1009MOL0     C36101  -1.061   6.802   7.160  0.1421  0.6004 -0.0792
 1009MOL0     C36102  -1.148   6.928   7.155  1.0675  0.3621  0.5024
 1009MOL0     C36103  -1.179   6.962   7.005  0.3398 -0.9212  0.6844
 1009MOL0     O36104  -1.267   6.855   6.965 -0.1666  0.3194  0.2715
 1009MOL0     C36105  -1.358   6.873   6.870  0.8812  0.1887  0.4563
 1009MOL0     C36106  -1.358   6.985   6.787  0.3796 -0.2988 -0.1889
 1009MOL0     C36107  -1.455   7.006   6.684 -0.8023  0.2766 -0.6494
 1009MOL0     C36108  -1.565   6.909   6.678 -0.2541 -0.6085  0.4095
 1009MOL0     C36109  -1.677   6.928   6.586  0.4823 -0.1057  0.1807
 1009MOL0     O36110  -1.656   6.987   6.463  0.1170  1.0357  0.0983
 1009MOL0     C36111  -1.759   7.015   6.378 -0.2969 -0.3299  0.5286
 1009MOL0     C36112  -1.866   6.941   6.348 -0.2798 -0.6182 -0.6411
 1009MOL0     C36113  -1.967   6.975   6.257  0.3647 -0.3159 -0.8641
 1009MOL0     C36114  -1.947   7.091   6.187  0.0479 -0.9310  1.0461
 1009MOL0     O36115  -2.042   7.152   6.110  0.7962  0.4349  0.1739
 1009MOL0     C36116  -2.178   7.114   6.117  0.0944  0.7020  0.1289
 1009MOL0     C36117  -2.266   7.230   6.079  0.1296 -0.0117 -0.5268
 1009MOL0     C36118  -2.408   7.189   6.089  0.4912 -0.7622  0.1254
 1009MOL0     C36119  -2.498   7.309   6.067  0.4428  0.7544 -0.6033
 1009MOL0     C36120  -2.646   7.274   6.052  0.9892  0.5724 -0.2132
 1009MOL0     C36121  -2.724   7.410   6.051  0.9469  0.6875  0.0025
 1009MOL0     C36122  -2.878   7.403   6.066  0.7631 -0.2291  0.4124
 1009MOL0     C36123  -2.912   7.548   6.086  0.5222 -0.0690  0.8820
 1009MOL0    Cl36124  -3.096   7.552   6.087  0.0690  0.1988 -0.0610
 1009MOL0     C36125  -1.825   7.146   6.189 -0.6214 -1.1829  0.0390
 1009MOL0     C36126  -1.727   7.111   6.280  0.5354 -0.9442  0.3250
 1009MOL0     O36127  -1.790   6.904   6.629  0.2374  0.2370  0.7067
 1009MOL0     C36128  -1.558   6.798   6.767 -0.4586 -0.5278 -0.7192
 1009MOL0     C36129  -1.460   6.778   6.864 -0.7277  0.6316  0.2878
 1009MOL0     N36130  -0.846   6.626   7.309  0.3844 -0.4836 -0.6432
 1009MOL0     N36131  -0.750   6.536   7.303 -0.6216 -1.9744  0.5635
 1009MOL0     C36132   0.033   6.573   7.839  0.1827 -0.0115  0.3797
 1009MOL0     C36133   0.092   6.498   7.942 -0.5150  0.7970  0.5106
 1009MOL0     C36134   0.314   6.414   8.329  0.5053 -0.4762  0.0419
 1009MOL0     C36135   0.440   6.482   8.331 -0.2397  0.3221 -0.6693
 1009MOL0     C36136   0.537   6.467   8.433 -0.1462  0.2856 -0.9778
 1009MOL0     C36137   0.506   6.383   8.539 -0.2708  0.2316  0.3227
 1009MOL0     O36138   0.600   6.363   8.629 -0.2620 -0.0803 -0.4050
 1009MOL0     C36139   0.581   6.268   8.738  0.0794  0.5506 -0.1271
 1009MOL0     C36140   0.680   6.281   8.843 -0.2522  0.1935  0.7515
 1009MOL0     C36141   0.665   6.392   8.947 -0.6516 -0.1595  0.8442
 1009MOL0     C36142   0.730   6.370   9.078 -0.3354 -0.1618  0.0658
 1009MOL0     C36143   0.860   6.290   9.072  0.2711 -0.2654  0.3242
 1009MOL0     C36144   0.966   6.226   9.085  0.0551 -1.0063  0.3932
 1009MOL0     C36145   0.380   6.314   8.540  0.0641  0.3208 -0.6364
 1009MOL0     C36146   0.292   6.325   8.437 -0.4531 -0.4507 -0.5277
 1009MOL0     C36147   0.161   6.265   8.448  0.3837  0.6109 -0.5449
 1009MOL0     H36148   0.373   6.644   7.992 -1.3513  0.1741  2.1793
 1009MOL0     H36149   0.289   6.798   7.819 -0.6154  0.5675  0.5403
 1009MOL0     H36150   0.073   6.659   7.538 -1.2916 -0.7696 -0.3603
 1009MOL0     H36151  -0.092   6.694   7.596 -0.2512  0.6616 -1.5347
 1009MOL0     H36152   0.110   6.866   7.457 -0.4899  0.5014  0.4778
 1009MOL0     H36153  -0.035   6.935   7.513  3.8183  0.5386  2.1200
 1009MOL0     H36154   0.003   6.709   7.302 -2.2791  0.5766 -1.9025
 1009MOL0     H36155  -0.041   6.872   7.267  2.7471 -0.0019  0.3918
 1009MOL0     H36156  -0.224   6.690   7.425  3.4396 -1.3419 -1.0632
 1009MOL0     H36157  -0.259   6.859   7.386 -0.2216  0.4092  0.4471
 1009MOL0     H36158  -0.297   6.833   7.173  1.0843 -0.8881 -1.4160
 1009MOL0     H36159  -0.216   6.674   7.149 -0.6822 -2.1704 -0.0171
 1009MOL0     H36160  -0.399   6.601   7.330 -0.9215 -0.0725 -0.1870
 1009MOL0     H36161  -0.496   6.735   7.260  1.6196  1.6784  2.4779
 1009MOL0     H36162  -0.357   6.517   7.104 -1.1408 -0.8451 -1.0515
 1009MOL0     H36163  -0.464   6.643   7.037 -0.8883  2.7618  1.6425
 1009MOL0     H36164  -0.577   6.409   7.059 -0.5107  1.7777 -1.4878
 1009MOL0     H36165  -0.545   6.413   7.225 -1.3206  1.9745  0.8914
 1009MOL0     H36166  -0.705   6.718   7.029 -4.5363  0.7562 -1.4392
 1009MOL0     H36167  -0.895   6.897   7.272 -1.1722 -4.8039  3.2728
 1009MOL0     H36168  -0.890   6.892   7.085 -4.3516  1.4935  0.1818
 1009MOL0     H36169  -1.087   6.740   7.073 -0.8487  0.8501  0.0226
 1009MOL0     H36170  -1.100   6.755   7.251 -0.1264  2.0567  0.5940
 1009MOL0     H36171  -1.097   7.011   7.206 -1.7495  1.7801  1.2554
 1009MOL0     H36172  -1.244   6.921   7.207  0.5470 -4.4254 -0.6805
 1009MOL0     H36173  -1.088   6.956   6.945  0.2168 -2.4051  0.6020
 1009MOL0     H36174  -1.237   7.054   6.993  0.8666 -0.4866  1.4478
 1009MOL0     H36175  -1.279   7.060   6.786  0.1008  0.0964  2.1610
 1009MOL0     H36176  -1.451   7.082   6.607 -0.6801 -0.3586 -1.2881
 1009MOL0     H36177  -1.894   6.850   6.400 -1.7805 -1.0281 -2.0794
 1009MOL0     H36178  -2.038   6.895   6.242  0.2603 -0.3450 -0.2646
 1009MOL0     H36179  -2.179   7.037   6.040 -1.1596  1.3687 -0.5450
 1009MOL0     H36180  -2.225   7.080   6.210  0.2687 -1.9001 -0.6818
 1009MOL0     H36181  -2.249   7.309   6.153 -1.5598 -0.6439  0.6021
 1009MOL0     H36182  -2.246   7.261   5.976 -0.1189  1.2253 -0.2132
 1009MOL0     H36183  -2.429   7.110   6.017  2.0549 -1.0719 -0.0097
 1009MOL0     H36184  -2.442   7.148   6.184 -2.2338 -0.1002 -0.4801
 1009MOL0     H36185  -2.469   7.363   5.976  1.3339 -0.5786 -1.1438
 1009MOL0     H36186  -2.492   7.371   6.157  1.2773 -3.3463  2.4614
 1009MOL0     H36187  -2.669   7.207   6.135 -1.4934  0.7880 -0.6346
 1009MOL0     H36188  -2.662   7.234   5.951  3.5938  0.4084 -0.6320
 1009MOL0     H36189  -2.675   7.471   6.128  1.1306  0.1533  0.3111
 1009MOL0     H36190  -2.701   7.457   5.955 -1.3823  0.4569 -0.7285
 1009MOL0     H36191  -2.902   7.353   6.160  0.6911  0.4517  0.7589
 1009MOL0     H36192  -2.927   7.351   5.983 -0.8012  0.5253  0.8375
 1009MOL0     H36193  -2.871   7.594   6.176 -1.0779  2.0544  0.5956
 1009MOL0     H36194  -2.884   7.612   6.002 -1.1180  0.6862  0.8934
 1009MOL0     H36195  -1.794   7.217   6.113  0.4589 -1.3550  0.2964
 1009MOL0     H36196  -1.629   7.157   6.292  1.0284 -1.1285 -2.3290
 1009MOL0     H36197  -1.636   6.728   6.736 -1.3024  1.1928 -2.8200
 1009MOL0     H36198  -1.455   6.691   6.928  0.9012  0.7815  0.4031
 1009MOL0     H36199  -0.066   6.547   7.805  0.2066 -1.5753  1.4270
 1009MOL0     H36200   0.039   6.412   7.983  0.8226  0.0030  0.6345
 1009MOL0     H36201   0.470   6.550   8.252  0.4132  1.3488  0.4353
 1009MOL0     H36202   0.637   6.508   8.434  0.4576 -1.0969 -1.2785
 1009MOL0     H36203   0.587   6.167   8.696  0.1240  1.5978 -2.8517
 1009MOL0     H36204   0.485   6.290   8.785  0.3847  4.0609 -0.8822
 1009MOL0     H36205   0.773   6.308   8.791  1.3027 -0.0642  3.2671
 1009MOL0     H36206   0.688   6.183   8.890 -1.1278 -0.7380 -0.9153
 1009MOL0     H36207   0.560   6.393   8.977 -0.7908 -2.4164  0.5936
 1009MOL0     H36208   0.683   6.493   8.908  0.4850 -1.9373 -3.8650
 1009MOL0     H36209   0.735   6.472   9.115  2.2207 -0.2600  0.1646
 1009MOL0     H36210   0.655   6.312   9.133 -1.3030  0.5824 -0.4530
 1009MOL0     H36211   1.066   6.188   9.095  1.6380  2.8802  0.9583
 1009MOL0     H36212   0.346   6.257   8.626  0.8685  1.3490  0.4036
 1009MOL0     H36213   0.154   6.209   8.542  0.1987  1.0784 -0.2740
 1009MOL0     H36214   0.085   6.343   8.456 -0.5271 -0.2559 -0.6124
 1009MOL0     H36215   0.140   6.197   8.365 -2.9105 -1.4097  1.6915
 1010MOL0     O36216   2.532   2.434   5.982  0.0130 -0.1726 -0.7256
 1010MOL0     C36217   2.596   2.502   5.903 -0.3920  0.1851 -0.5843
 1010MOL0     O36218   2.735   2.486   5.887  0.1133  0.8188 -0.1045
 1010MOL0     C36219   2.798   2.435   5.994 -1.2280 -0.2022 -0.5019
 1010MOL0     C36220   2.847   2.523   6.084  0.1926 -0.7827  0.8209
 1010MOL0     C36221   2.923   2.477   6.195  0.0795 -0.6347 -0.0757
 1010MOL0     C36222   2.939   2.341   6.226 -0.3614  0.3084 -0.1804
 1010MOL0     O36223   2.989   2.298   6.348 -0.3267 -0.0743 -0.3735
 1010MOL0     C36224   2.983   2.160   6.382 -0.9208  0.3281  0.5288
 1010MOL0     C36225   3.057   2.162   6.521 -0.5371  0.3605  0.3012
 1010MOL0     C36226   3.107   2.020   6.542  0.2003 -0.2060 -0.0844
 1010MOL0     C36227   3.154   2.008   6.685  0.2976  0.2092  0.1060
 1010MOL0     C36228   3.221   1.872   6.727 -0.1702 -0.1591  0.2865
 1010MOL0     C36229   3.127   1.743   6.713 -0.1790 -0.3264 -0.8722
 1010MOL0     C36230   3.203   1.611   6.756  0.4928  0.0600  0.3959
 1010MOL0     C36231   3.236   1.621   6.910  1.2292 -1.0824  0.3604
 1010MOL0     N36232   3.319   1.504   6.948 -0.0086  0.3810 -0.7626
 1010MOL0     C36233   3.274   1.383   6.990 -0.1348 -0.3022 -0.6223
 1010MOL0     C36234   3.387   1.309   7.006 -0.5833 -0.2552 -0.2158
 1010MOL0     C36235   3.395   1.161   7.029  0.2847 -1.1330  0.6106
 1010MOL0     C36236   3.278   1.126   7.123 -0.5866 -0.2475 -0.4530
 1010MOL0     C36237   3.289   0.971   7.169  0.1500  0.8281 -0.1212
 1010MOL0     C36238   3.178   0.938   7.270  0.5783  0.4737 -0.0382
 1010MOL0     O36239   3.177   0.790   7.278 -0.0543 -0.2762  0.2443
 1010MOL0     C36240   3.064   0.728   7.315 -0.9106 -0.0781  0.0010
 1010MOL0     C36241   3.048   0.592   7.291  0.2952 -0.4539  0.0271
 1010MOL0     C36242   2.937   0.529   7.346 -0.4329 -0.1601 -1.2386
 1010MOL0     C36243   2.840   0.599   7.421 -0.5842 -0.7246  0.0425
 1010MOL0     C36244   2.729   0.526   7.478 -0.2415  0.8114  0.6517
 1010MOL0     O36245   2.671   0.445   7.384 -0.5410  0.1070  0.6062
 1010MOL0     C36246   2.545   0.387   7.398  0.7049  0.9393  0.3442
 1010MOL0     C36247   2.535   0.249   7.373  0.9274  0.4185 -0.6514
 1010MOL0     C36248   2.408   0.193   7.386  0.6811 -0.4217  0.8120
 1010MOL0     C36249   2.298   0.262   7.442  0.0081  0.0698 -0.0290
 1010MOL0     O36250   2.183   0.195   7.468 -0.4342  0.5557  0.5750
 1010MOL0     C36251   2.083   0.262   7.542  0.7183 -0.4658  0.3918
 1010MOL0     C36252   1.966   0.159   7.553 -0.2780  0.3587 -0.0268
 1010MOL0     C36253   1.906   0.110   7.413  0.3266 -0.2427 -0.1682
 1010MOL0     C36254   1.834   0.238   7.354  0.0821  0.3877  0.4744
 1010MOL0     C36255   1.821   0.211   7.201 -0.0841  0.5470  0.3080
 1010MOL0     C36256   1.737   0.298   7.103  0.3704  0.2592 -0.1950
 1010MOL0     C36257   1.582   0.313   7.140 -0.2018  0.1660 -0.6443
 1010MOL0     C36258   1.483   0.223   7.069 -0.2706 -0.2847 -0.4748
 1010MOL0    Cl36259   1.520   0.264   6.897  0.2550 -0.3815 -0.2775
 1010MOL0     C36260   2.320   0.395   7.465 -0.5756 -0.4262 -0.1559
 1010MOL0     C36261   2.440   0.460   7.447 -0.5066 -0.1163  0.1794
 1010MOL0     O36262   2.704   0.534   7.596  0.3794 -0.4568 -0.0077
 1010MOL0     C36263   2.858   0.739   7.439  0.3962  0.4673  0.3578
 1010MOL0     C36264   2.967   0.803   7.381 -0.6064  0.0411  0.6908
 1010MOL0     N36265   3.495   1.391   6.998  0.2321 -0.4350 -0.1725
 1010MOL0     N36266   3.457   1.510   6.960  0.7215 -0.3253  0.4361
 1010MOL0     C36267   2.883   2.246   6.135 -0.5006 -0.4906 -0.6522
 1010MOL0     C36268   2.817   2.295   6.020  0.4560 -0.4317 -0.4257
 1010MOL0     C36269   2.527   2.601   5.829  0.5262 -0.2049 -0.3830
 1010MOL0     C36270   2.608   2.719   5.807 -0.5064 -0.3677  0.4631
 1010MOL0     C36271   2.557   2.835   5.744 -0.6169 -0.6681 -0.0025
 1010MOL0     C36272   2.422   2.837   5.713  0.6488  0.4599 -0.7018
 1010MOL0     O36273   2.363   2.945   5.674 -0.0046  0.0387  0.8583
 1010MOL0     C36274   2.434   3.060   5.617 -0.0684 -0.4036  0.1218
 1010MOL0     C36275   2.503   3.044   5.479  0.1597 -0.4013 -1.3377
 1010MOL0     C36276   2.646   3.125   5.475  0.3782 -0.1395  0.7683
 1010MOL0     C36277   2.638   3.274   5.504  1.6415 -0.0223  0.5997
 1010MOL0     C36278   2.757   3.323   5.546  0.1684  0.3957 -0.4663
 1010MOL0     C36279   2.862   3.355   5.594 -0.9745  0.0494  0.5234
 1010MOL0     C36280   2.339   2.735   5.743  0.6381 -0.3259 -0.1562
 1010MOL0     C36281   2.386   2.612   5.794  0.1115  0.2158  0.0539
 1010MOL0     C36282   2.289   2.507   5.819 -0.3886  1.5089  0.4866
 1010MOL0     H36283   2.847   2.632   6.078  0.3209 -0.8848 -1.8583
 1010MOL0     H36284   2.966   2.552   6.259 -1.1905 -0.5813  0.7522
 1010MOL0     H36285   2.880   2.127   6.395 -0.9593  0.9070  1.7991
 1010MOL0     H36286   3.025   2.087   6.312 -1.9153  0.6229 -0.4026
 1010MOL0     H36287   2.992   2.213   6.593  1.4520  1.4326  1.4438
 1010MOL0     H36288   3.144   2.227   6.515 -0.3774  0.0019 -1.9210
 1010MOL0     H36289   3.185   1.999   6.468 -0.6909  1.0607 -1.4591
 1010MOL0     H36290   3.021   1.953   6.535 -0.2052  0.3765 -0.9631
 1010MOL0     H36291   3.232   2.084   6.690 -0.0370  0.6766 -1.2622
 1010MOL0     H36292   3.065   2.040   6.740  0.6631  0.2142  0.7028
 1010MOL0     H36293   3.305   1.865   6.659  0.9825 -0.2817  1.6717
 1010MOL0     H36294   3.242   1.894   6.832 -0.5530  0.8806  0.1553
 1010MOL0     H36295   3.031   1.751   6.766 -1.2269 -0.7953 -2.6008
 1010MOL0     H36296   3.110   1.747   6.605  3.7838  0.2675 -1.5899
 1010MOL0     H36297   3.294   1.595   6.699  0.0063  1.0340 -0.6997
 1010MOL0     H36298   3.145   1.519   6.750  1.4022 -0.5113  0.2179
 1010MOL0     H36299   3.287   1.716   6.927 -0.9483  0.4955 -1.2429
 1010MOL0     H36300   3.143   1.617   6.968  0.9162 -1.4996 -0.1581
 1010MOL0     H36301   3.167   1.362   6.997 -0.3800  1.3451  1.3228
 1010MOL0     H36302   3.386   1.108   6.934  0.1387 -0.6728  0.3657
 1010MOL0     H36303   3.490   1.140   7.080 -0.1960  0.9681  2.5474
 1010MOL0     H36304   3.281   1.184   7.216  0.8278 -1.8183  0.5426
 1010MOL0     H36305   3.187   1.143   7.065 -0.4299  4.5038  0.3483
 1010MOL0     H36306   3.385   0.953   7.218  0.7317  3.6877 -0.0447
 1010MOL0     H36307   3.293   0.908   7.080 -0.9014  0.8453 -0.1928
 1010MOL0     H36308   3.080   0.971   7.234 -0.6933 -1.6203  1.3413
 1010MOL0     H36309   3.190   0.979   7.371 -0.1362 -0.5341  0.4759
 1010MOL0     H36310   3.134   0.536   7.256  0.0999 -1.5414  1.2120
 1010MOL0     H36311   2.912   0.424   7.332 -0.9438 -0.6945  2.5344
 1010MOL0     H36312   2.623   0.190   7.350 -0.1706 -0.7625 -1.9748
 1010MOL0     H36313   2.402   0.086   7.366  1.5311 -0.2536 -0.5045
 1010MOL0     H36314   2.119   0.291   7.642  2.2700 -0.4772 -0.1359
 1010MOL0     H36315   2.046   0.355   7.499  1.5160  0.9439  2.5628
 1010MOL0     H36316   2.014   0.080   7.611  0.6854  3.2984  3.5263
 1010MOL0     H36317   1.880   0.190   7.613 -0.8097  0.5632 -0.8661
 1010MOL0     H36318   1.973   0.059   7.343  0.4665  2.9889 -2.6454
 1010MOL0     H36319   1.831   0.033   7.435  0.6187 -0.3555  0.4410
 1010MOL0     H36320   1.891   0.329   7.373 -2.8646  1.9960  2.2627
 1010MOL0     H36321   1.741   0.261   7.406 -0.7435  2.1514 -1.6361
 1010MOL0     H36322   1.791   0.106   7.197  1.9659 -0.1292  1.2342
 1010MOL0     H36323   1.914   0.200   7.143 -2.3581 -2.7974 -3.1610
 1010MOL0     H36324   1.777   0.400   7.108  0.0569  0.3326  1.4263
 1010MOL0     H36325   1.751   0.264   7.000 -1.4077  2.8114 -1.4039
 1010MOL0     H36326   1.553   0.418   7.132  1.3486  0.9214  2.1792
 1010MOL0     H36327   1.583   0.278   7.244 -0.0411 -1.8858 -1.2946
 1010MOL0     H36328   1.514   0.123   7.101 -1.7956 -0.7300 -0.3003
 1010MOL0     H36329   1.377   0.247   7.081 -0.6872  0.0589 -3.8412
 1010MOL0     H36330   2.248   0.467   7.501 -0.2116 -0.3166  0.3749
 1010MOL0     H36331   2.449   0.568   7.452 -1.3295 -0.0033 -0.4889
 1010MOL0     H36332   2.786   0.793   7.499 -0.1381  0.8261 -0.5838
 1010MOL0     H36333   2.965   0.909   7.403 -1.9532  0.3049 -0.6112
 1010MOL0     H36334   2.876   2.139   6.153 -2.6368 -0.4741 -1.1754
 1010MOL0     H36335   2.761   2.226   5.958  2.5737  2.0288 -5.6801
 1010MOL0     H36336   2.707   2.740   5.845  0.2505  0.1702 -1.6243
 1010MOL0     H36337   2.626   2.918   5.732 -2.2623  0.4865 -2.2427
 1010MOL0     H36338   2.504   3.095   5.693  0.4685  0.6923 -0.8354
 1010MOL0     H36339   2.360   3.142   5.613  0.5994  0.2447  0.7682
 1010MOL0     H36340   2.447   3.081   5.392 -0.1572 -1.6041 -1.6733
 1010MOL0     H36341   2.514   2.939   5.451  0.8429 -0.3284 -1.3528
 1010MOL0     H36342   2.697   3.124   5.378 -0.7041 -1.6616  0.1831
 1010MOL0     H36343   2.707   3.087   5.557  0.6045 -0.3936  0.4854
 1010MOL0     H36344   2.605   3.326   5.414  1.0179  0.5535  1.1461
 1010MOL0     H36345   2.560   3.298   5.578  0.1289  1.5090 -1.3640
 1010MOL0     H36346   2.960   3.368   5.635 -1.0653 -0.4993  0.9200
 1010MOL0     H36347   2.232   2.738   5.727  0.4310  1.5152  1.2843
 1010MOL0     H36348   2.333   2.408   5.829 -1.3080  0.8866 -1.2808
 1010MOL0     H36349   2.238   2.529   5.914 -1.4933  2.7132 -0.3418
 1010MOL0     H36350   2.220   2.501   5.734 -0.4120 -1.9344  0.6030
 1011MOL0     O36351   9.807   4.288   1.637 -0.6435  0.5686  0.1854
 1011MOL0     C36352   9.797   4.329   1.755  0.7511 -0.4845 -0.6846
 1011MOL0     O36353   9.884   4.299   1.853  0.7185 -0.7960  0.6809
 1011MOL0     C36354  10.006   4.225   1.840  1.1048  0.7294  0.0862
 1011MOL0     C36355  10.127   4.298   1.821 -0.6397  1.0762  0.0290
 1011MOL0     C36356  10.244   4.231   1.788  0.3237  0.4928  0.3121
 1011MOL0     C36357  10.245   4.091   1.784 -1.1288  0.2875  0.4796
 1011MOL0     O36358  10.361   4.014   1.766  0.5143  1.0638  0.1270
 1011MOL0     C36359  10.356   3.896   1.704 -0.3617  0.7045 -0.1107
 1011MOL0     C36360  10.494   3.844   1.643  0.2734  0.5520 -0.3649
 1011MOL0     C36361  10.601   3.812   1.741  0.1005 -0.5440 -0.1809
 1011MOL0     C36362  10.729   3.784   1.661 -0.3736 -0.1912 -0.0055
 1011MOL0     C36363  10.853   3.761   1.757  0.7736  0.8639  0.1200
 1011MOL0     C36364  10.991   3.813   1.706  0.3249  0.1334  0.8299
 1011MOL0     C36365  10.983   3.957   1.643  0.4439  0.7459  0.6514
 1011MOL0     C36366  10.921   4.055   1.741  0.0130  0.5634 -0.3300
 1011MOL0     N36367  10.991   4.182   1.744 -0.9026  0.6651 -0.1224
 1011MOL0     C36368  10.981   4.263   1.854  0.7193  0.4275 -0.3600
 1011MOL0     C36369  11.068   4.361   1.835 -0.0664 -0.3104  0.5759
 1011MOL0     C36370  11.108   4.473   1.927 -0.2393  0.5243  0.6847
 1011MOL0     C36371  11.218   4.425   2.018 -0.1667 -0.1065  0.8155
 1011MOL0     C36372  11.282   4.545   2.082  0.2682 -0.3562  0.2342
 1011MOL0     C36373  11.210   4.583   2.215  0.0959  0.0975 -0.3504
 1011MOL0     O36374  11.229   4.724   2.245  0.2015 -0.0281  0.1275
 1011MOL0     C36375  11.186   4.775   2.359  0.3541 -0.2143 -0.0341
 1011MOL0     C36376  11.107   4.698   2.444  0.6340 -0.7201 -0.7446
 1011MOL0     C36377  11.064   4.747   2.571  0.8353 -0.4068 -0.3661
 1011MOL0     C36378  11.076   4.886   2.599 -0.4340  0.6052  0.3901
 1011MOL0     C36379  11.024   4.946   2.724 -0.1381  0.3665 -0.4174
 1011MOL0     O36380  11.065   5.073   2.750  0.0954  0.2811 -0.8947
 1011MOL0     C36381  11.025   5.139   2.865  0.8371  0.5817  0.0840
 1011MOL0     C36382  10.991   5.079   2.986 -0.1182 -0.1349  0.4438
 1011MOL0     C36383  10.942   5.149   3.091  0.1443  0.8511  0.1157
 1011MOL0     C36384  10.924   5.293   3.088  0.2586  0.1670 -0.2984
 1011MOL0     O36385  10.874   5.370   3.196 -0.1160 -0.2773  1.0167
 1011MOL0     C36386  10.734   5.362   3.214  0.8215 -0.0263 -0.2776
 1011MOL0     C36387  10.654   5.412   3.103 -0.1031  0.4339 -0.0825
 1011MOL0     C36388  10.501   5.438   3.151  0.3448 -0.5731 -0.8199
 1011MOL0     C36389  10.414   5.515   3.043  0.0802  0.1301 -0.5669
 1011MOL0     C36390  10.266   5.462   3.033  0.5316  0.3501  0.8079
 1011MOL0     C36391  10.176   5.469   3.156 -0.4782  1.1001 -0.3622
 1011MOL0     C36392  10.032   5.414   3.140 -1.7522 -0.7332 -0.5939
 1011MOL0     C36393   9.978   5.372   3.270  0.4895 -0.0166 -0.3711
 1011MOL0    Cl36394   9.896   5.508   3.349 -0.1719 -0.0733 -0.2731
 1011MOL0     C36395  10.973   5.353   2.969  0.1788  0.4706 -0.6854
 1011MOL0     C36396  11.020   5.283   2.857  1.0294  0.5377  0.7572
 1011MOL0     O36397  10.935   4.877   2.777  0.2061 -0.2343  0.0601
 1011MOL0     C36398  11.159   4.964   2.513 -0.4059  0.2779 -0.6704
 1011MOL0     C36399  11.215   4.905   2.402 -0.1702 -0.1080  0.9428
 1011MOL0     N36400  11.123   4.354   1.708 -0.3446  0.3635  0.1058
 1011MOL0     N36401  11.064   4.250   1.651  0.1435  0.1967  0.1772
 1011MOL0     C36402  10.128   4.015   1.810 -1.0660  0.0028 -0.6789
 1011MOL0     C36403  10.007   4.082   1.840  0.4851  0.0664  0.2308
 1011MOL0     C36404   9.683   4.403   1.800  0.0148 -0.0967  1.2043
 1011MOL0     C36405   9.704   4.516   1.877  0.8629 -0.3244  0.6937
 1011MOL0     C36406   9.602   4.599   1.912  0.2407 -1.2878  0.2608
 1011MOL0     C36407   9.473   4.569   1.872  0.7042  0.1690  0.0197
 1011MOL0     O36408   9.372   4.649   1.925 -0.8526  0.3738  0.0852
 1011MOL0     C36409   9.232   4.600   1.911  0.5501 -0.2497  0.3158
 1011MOL0     C36410   9.129   4.690   1.974  0.9130 -0.7589 -0.0022
 1011MOL0     C36411   8.984   4.649   1.933 -0.6138 -0.1095 -0.0006
 1011MOL0     C36412   8.950   4.703   1.791  0.3209  0.4002  0.8753
 1011MOL0     C36413   8.888   4.831   1.801 -0.8649 -0.7291 -0.0681
 1011MOL0     C36414   8.850   4.948   1.784  0.2938  0.0509 -0.5707
 1011MOL0     C36415   9.450   4.449   1.795  0.1732  0.6518 -0.4446
 1011MOL0     C36416   9.559   4.364   1.762  0.8991  0.2942 -0.4612
 1011MOL0     C36417   9.534   4.248   1.659 -0.5451 -1.1470  0.5056
 1011MOL0     H36418  10.115   4.406   1.826  1.8730  1.3927  1.0285
 1011MOL0     H36419  10.343   4.273   1.775  0.2027  0.4764 -0.8031
 1011MOL0     H36420  10.315   3.823   1.775  0.4817 -2.6515 -2.7913
 1011MOL0     H36421  10.298   3.879   1.613  0.5538  0.5830 -0.6911
 1011MOL0     H36422  10.524   3.907   1.559 -0.9826  0.5613 -0.8342
 1011MOL0     H36423  10.481   3.746   1.594  0.1903  0.0635  0.6091
 1011MOL0     H36424  10.552   3.739   1.806 -6.8846  5.0742  2.2527
 1011MOL0     H36425  10.624   3.900   1.801 -1.4450 -1.2617  1.5672
 1011MOL0     H36426  10.710   3.700   1.593  1.8669 -1.4542  0.8234
 1011MOL0     H36427  10.748   3.877   1.606  0.7810  0.4601  1.4291
 1011MOL0     H36428  10.840   3.811   1.854 -1.2603  1.0577 -0.1981
 1011MOL0     H36429  10.844   3.653   1.773 -1.8546  1.1719  1.2186
 1011MOL0     H36430  11.075   3.809   1.775  0.0206 -1.4206  1.1482
 1011MOL0     H36431  11.014   3.741   1.626  0.2120 -0.1136  1.0183
 1011MOL0     H36432  10.917   3.959   1.555 -2.7452  0.3551  2.8786
 1011MOL0     H36433  11.085   3.988   1.620  0.6550  0.0064  0.5687
 1011MOL0     H36434  10.820   4.064   1.700 -0.7841  0.5913  1.5582
 1011MOL0     H36435  10.899   4.014   1.840 -0.5370  0.4207 -0.5076
 1011MOL0     H36436  10.914   4.243   1.937 -1.9287 -0.2309 -2.4917
 1011MOL0     H36437  11.141   4.558   1.867  2.0601 -1.1902 -0.6372
 1011MOL0     H36438  11.022   4.500   1.989  0.9261  3.5997  1.1237
 1011MOL0     H36439  11.167   4.363   2.093 -0.9548  1.2701  1.4485
 1011MOL0     H36440  11.291   4.371   1.957  0.2074 -0.3643  1.4843
 1011MOL0     H36441  11.281   4.635   2.019  2.0906  0.2882  1.0595
 1011MOL0     H36442  11.384   4.529   2.117 -0.9994 -0.3307  4.6165
 1011MOL0     H36443  11.249   4.516   2.292  0.4714 -1.1162 -1.5540
 1011MOL0     H36444  11.102   4.569   2.213 -0.1606  1.8772 -0.7992
 1011MOL0     H36445  11.082   4.592   2.445  1.4501 -0.9165 -0.7103
 1011MOL0     H36446  11.008   4.701   2.652  2.5761 -1.1102  0.4654
 1011MOL0     H36447  11.006   4.972   2.998 -1.0710 -0.7692 -2.8239
 1011MOL0     H36448  10.914   5.089   3.177 -0.5750 -0.9684 -1.3179
 1011MOL0     H36449  10.696   5.262   3.240  1.5025  0.1760  1.6442
 1011MOL0     H36450  10.707   5.428   3.296 -1.0350 -1.7345  0.5696
 1011MOL0     H36451  10.699   5.500   3.057  1.2795 -0.2986 -0.2006
 1011MOL0     H36452  10.658   5.335   3.026  1.6023 -1.6174  1.9139
 1011MOL0     H36453  10.455   5.339   3.161 -2.9773  0.6982 -2.0415
 1011MOL0     H36454  10.481   5.499   3.241 -2.2958  0.8595 -2.2392
 1011MOL0     H36455  10.463   5.493   2.949 -1.1702  0.1572 -1.2504
 1011MOL0     H36456  10.425   5.623   3.047  3.0496  0.2514 -5.0783
 1011MOL0     H36457  10.257   5.357   3.005  2.0002 -0.1285  1.9987
 1011MOL0     H36458  10.210   5.517   2.957 -0.3529 -1.2761  0.2451
 1011MOL0     H36459  10.225   5.410   3.234 -4.7670  1.0566  2.6613
 1011MOL0     H36460  10.165   5.568   3.202  4.4713  1.0805  1.4969
 1011MOL0     H36461  10.042   5.324   3.078 -1.0019 -1.3976  0.4485
 1011MOL0     H36462   9.973   5.494   3.095  1.6726  1.2800 -1.8544
 1011MOL0     H36463   9.905   5.296   3.241  0.6270 -0.0940 -0.5118
 1011MOL0     H36464  10.042   5.323   3.343 -0.9093  0.9191  1.6028
 1011MOL0     H36465  10.981   5.460   2.955 -0.1869  0.4512 -1.0915
 1011MOL0     H36466  11.065   5.328   2.769  3.2787 -1.0653  1.0234
 1011MOL0     H36467  11.193   5.064   2.536 -0.6514  0.6013 -1.6703
 1011MOL0     H36468  11.276   4.953   2.326  0.4827 -1.0903  0.8158
 1011MOL0     H36469  10.138   3.907   1.807  3.4352  0.2430 -1.5984
 1011MOL0     H36470   9.921   4.016   1.850  0.4091  0.1167 -0.0721
 1011MOL0     H36471   9.805   4.553   1.888 -0.0577  2.6856  0.1097
 1011MOL0     H36472   9.619   4.686   1.974  4.7144  0.9311 -3.4845
 1011MOL0     H36473   9.218   4.503   1.958 -0.4882 -1.2299 -1.8718
 1011MOL0     H36474   9.200   4.592   1.807 -1.7577  0.0943  0.9431
 1011MOL0     H36475   9.145   4.792   1.939 -0.6516 -1.0150 -1.6019
 1011MOL0     H36476   9.134   4.683   2.084 -0.7231 -0.2245  0.1179
 1011MOL0     H36477   8.914   4.675   2.014  2.1116 -1.6566  3.0901
 1011MOL0     H36478   8.964   4.542   1.923 -1.8945  0.3241 -3.3146
 1011MOL0     H36479   9.037   4.714   1.725 -0.0032 -0.0527  0.3630
 1011MOL0     H36480   8.875   4.639   1.742 -1.4770  3.0102 -0.0052
 1011MOL0     H36481   8.817   5.049   1.770 -1.6008 -0.4477  0.0512
 1011MOL0     H36482   9.354   4.414   1.758  0.1902 -1.8971  1.6139
 1011MOL0     H36483   9.594   4.158   1.670 -0.5698 -1.0269  1.7306
 1011MOL0     H36484   9.431   4.211   1.662  0.5684 -4.7061  0.1198
 1011MOL0     H36485   9.543   4.298   1.562  0.0044  0.5079  1.3815
 1012MOL0     O36486  11.210   9.781  10.173  0.7606  0.2244  0.2242
 1012MOL0     C36487  11.190   9.753  10.052  1.3145  1.1219 -1.0362
 1012MOL0     O36488  11.151   9.846   9.959 -0.3385  0.5110 -0.5478
 1012MOL0     C36489  11.145   9.977  10.011 -0.6941  0.2585 -0.0236
 1012MOL0     C36490  11.267  10.048  10.026 -0.1761  0.0603  0.2114
 1012MOL0     C36491  11.254  10.176  10.071 -1.0025 -0.7945  0.8773
 1012MOL0     C36492  11.132  10.224  10.099 -0.2537 -0.1663  0.5494
 1012MOL0     O36493  11.145  10.355  10.141  0.1193 -0.1769 -0.1656
 1012MOL0     C36494  11.044  10.431  10.212  0.8230 -0.0762  0.9137
 1012MOL0     C36495  11.015  10.392  10.358 -1.1691  0.2596  0.3860
 1012MOL0     C36496  10.894  10.466  10.408 -0.1404  0.7523  0.2694
 1012MOL0     C36497  10.775  10.365  10.400 -1.1088  0.0391  0.2405
 1012MOL0     C36498  10.636  10.430  10.431 -0.7451  0.5740  0.5576
 1012MOL0     C36499  10.529  10.322  10.455  0.3923 -0.2813  0.4574
 1012MOL0     C36500  10.395  10.392  10.485 -0.1184  0.1865  0.3681
 1012MOL0     C36501  10.268  10.322  10.468  0.1447  0.6927 -0.1940
 1012MOL0     N36502  10.201  10.358  10.601 -0.4810 -0.1748 -0.0244
 1012MOL0     C36503  10.077  10.425  10.601  0.1531 -0.5591 -0.3098
 1012MOL0     C36504  10.046  10.424  10.732  0.6611 -0.3775 -0.4869
 1012MOL0     C36505   9.917  10.479  10.801 -0.2570 -0.6622 -0.9842
 1012MOL0     C36506   9.904  10.630  10.772 -0.4037 -0.0432 -0.7310
 1012MOL0     C36507   9.853  10.708  10.896  0.6420 -0.3068  0.7639
 1012MOL0     C36508   9.966  10.735  10.992 -0.3171 -0.1831 -0.2125
 1012MOL0     O36509  10.027  10.858  10.964  0.4411 -0.3799  0.5658
 1012MOL0     C36510  10.147  10.865  10.901  0.6422  0.5467 -0.4806
 1012MOL0     C36511  10.256  10.772  10.927  0.2174 -0.8791  0.5382
 1012MOL0     C36512  10.376  10.778  10.850  0.5009 -0.6534  0.0205
 1012MOL0     C36513  10.385  10.880  10.750  0.2299  0.5831  0.1401
 1012MOL0     C36514  10.512  10.886  10.654 -0.0609  0.2131 -0.6169
 1012MOL0     O36515  10.497  10.952  10.538 -0.2431  0.0098 -0.0961
 1012MOL0     C36516  10.580  10.919  10.427  0.0871 -0.3565 -0.3319
 1012MOL0     C36517  10.706  10.978  10.414  0.0018  0.7453  0.4250
 1012MOL0     C36518  10.799  10.941  10.313 -0.1607 -0.6517  0.6421
 1012MOL0     C36519  10.767  10.834  10.231 -0.7797 -0.7748  0.2663
 1012MOL0     O36520  10.851  10.768  10.147 -0.2303 -0.2270 -0.4215
 1012MOL0     C36521  10.948  10.845  10.074 -0.1108  0.1152  1.0976
 1012MOL0     C36522  10.864  10.907   9.955 -0.1858  0.1081 -0.4594
 1012MOL0     C36523  10.826  11.047  10.004  0.3947 -0.3492  0.8821
 1012MOL0     C36524  10.757  11.111   9.882  0.9572  0.4088 -1.1054
 1012MOL0     C36525  10.697  11.247   9.900 -0.1609  0.7190 -0.1113
 1012MOL0     C36526  10.650  11.324   9.773 -0.0129  0.3234  0.6056
 1012MOL0     C36527  10.599  11.458   9.819 -0.4611  0.3017  0.1706
 1012MOL0     C36528  10.603  11.551   9.699  1.2326  0.0697 -0.8621
 1012MOL0    Cl36529  10.503  11.472   9.571  0.2457  0.0563  0.0619
 1012MOL0     C36530  10.646  10.774  10.249 -0.1949 -0.0492  0.4276
 1012MOL0     C36531  10.553  10.822  10.339 -0.1217 -0.4837  0.1413
 1012MOL0     O36532  10.617  10.826  10.686 -0.3645 -0.4019 -0.1057
 1012MOL0     C36533  10.283  10.973  10.743 -0.7567  0.3303  0.6986
 1012MOL0     C36534  10.163  10.966  10.813  1.2264 -0.3425  1.1659
 1012MOL0     N36535  10.146  10.365  10.805  0.4473  0.3748 -0.2237
 1012MOL0     N36536  10.241  10.331  10.731  0.7951 -0.1110 -0.1245
 1012MOL0     C36537  11.003  10.157  10.086 -0.6550  0.3029 -0.4371
 1012MOL0     C36538  11.012  10.029  10.035 -0.1179 -0.3019 -0.4968
 1012MOL0     C36539  11.172   9.609  10.006  0.7573 -0.0047 -0.6451
 1012MOL0     C36540  11.079   9.589   9.900  0.2386  0.3878  0.3409
 1012MOL0     C36541  11.051   9.457   9.856 -0.2860 -0.4678 -0.2571
 1012MOL0     C36542  11.134   9.352   9.902 -0.7663  0.7223 -0.4222
 1012MOL0     O36543  11.133   9.223   9.860 -0.3382 -0.4478 -0.1412
 1012MOL0     C36544  11.036   9.172   9.772 -0.0871  0.1440 -0.6392
 1012MOL0     C36545  10.913   9.127   9.851 -0.6014  0.1336 -0.1632
 1012MOL0     C36546  10.938   9.003   9.932  0.0658 -0.5005  0.1280
 1012MOL0     C36547  10.823   8.952  10.013  0.4084 -0.3566  0.2589
 1012MOL0     C36548  10.779   9.054  10.117 -0.1371  0.1500  0.3969
 1012MOL0     C36549  10.760   9.137  10.202 -0.0380  0.1451  0.1954
 1012MOL0     C36550  11.215   9.374  10.015 -0.1908  0.0428 -0.1239
 1012MOL0     C36551  11.233   9.504  10.062 -0.6977  0.8675 -1.1253
 1012MOL0     C36552  11.347   9.525  10.165  0.2203 -0.5609 -0.2871
 1012MOL0     H36553  11.363  10.012   9.991  0.3737  2.4616 -0.9042
 1012MOL0     H36554  11.345  10.231  10.091  0.7970 -2.1271 -2.7612
 1012MOL0     H36555  11.086  10.532  10.204  1.1851 -0.0381  2.7826
 1012MOL0     H36556  10.946  10.429  10.163  0.7123  0.0670  1.1291
 1012MOL0     H36557  11.103  10.414  10.418 -2.4999  0.1123  2.4830
 1012MOL0     H36558  11.001  10.284  10.361  0.7532 -0.1940 -2.7727
 1012MOL0     H36559  10.871  10.555  10.349  2.1543 -0.5993 -2.9875
 1012MOL0     H36560  10.908  10.487  10.514  3.0871  2.8014 -0.4311
 1012MOL0     H36561  10.782  10.332  10.296 -1.5900 -0.1676  0.2678
 1012MOL0     H36562  10.796  10.278  10.463 -0.1568  0.6322  0.7612
 1012MOL0     H36563  10.648  10.484  10.526 -1.0155 -1.3229  1.7277
 1012MOL0     H36564  10.603  10.504  10.358 -1.1116  2.1079  2.1799
 1012MOL0     H36565  10.526  10.270  10.358  1.5007  0.7548 -0.1577
 1012MOL0     H36566  10.552  10.258  10.540 -0.7676  1.5669  2.2373
 1012MOL0     H36567  10.388  10.474  10.414 -3.1324  0.7536  1.1713
 1012MOL0     H36568  10.407  10.446  10.579  1.2336  1.1711 -0.3461
 1012MOL0     H36569  10.212  10.364  10.385  1.3633  5.5781  1.1378
 1012MOL0     H36570  10.296  10.216  10.461  1.2260  1.0124 -0.9157
 1012MOL0     H36571  10.023  10.455  10.512  1.6588  1.5534 -0.5951
 1012MOL0     H36572   9.826  10.434  10.762 -0.6617 -0.8004  0.1032
 1012MOL0     H36573   9.928  10.461  10.908 -1.5074 -0.3299 -0.7927
 1012MOL0     H36574  10.000  10.675  10.742  0.8591 -1.9243  0.2775
 1012MOL0     H36575   9.833  10.642  10.689 -1.4913  0.0877  0.2019
 1012MOL0     H36576   9.778  10.654  10.954  0.2430 -1.0740 -0.4230
 1012MOL0     H36577   9.804  10.802  10.868 -2.2374 -1.7270  0.6716
 1012MOL0     H36578  10.024  10.642  10.991 -2.8619 -1.8887  0.7101
 1012MOL0     H36579   9.924  10.733  11.093 -0.2100  1.4059 -0.1078
 1012MOL0     H36580  10.239  10.692  10.999 -4.7972 -1.5677 -0.9591
 1012MOL0     H36581  10.444  10.694  10.856  0.6079 -0.5354  0.4642
 1012MOL0     H36582  10.743  11.063  10.472  1.3487 -0.1016  0.8681
 1012MOL0     H36583  10.898  10.987  10.319 -0.0764 -0.9059  1.2709
 1012MOL0     H36584  11.007  10.922  10.124  0.3533  1.3955 -1.2743
 1012MOL0     H36585  11.016  10.771  10.030 -1.2649 -0.1647 -0.2885
 1012MOL0     H36586  10.924  10.910   9.864  0.8764  0.0097  0.2104
 1012MOL0     H36587  10.777  10.842   9.942  1.2387 -2.2597  1.1295
 1012MOL0     H36588  10.745  11.034  10.077 -0.1938 -2.2131 -0.0275
 1012MOL0     H36589  10.899  11.119  10.041 -1.6459  2.8740 -0.9687
 1012MOL0     H36590  10.686  11.049   9.827 -1.7251  0.5065  1.9670
 1012MOL0     H36591  10.848  11.136   9.827  1.0793  3.8312  0.4430
 1012MOL0     H36592  10.776  11.309   9.942 -1.7189  2.8535 -0.1663
 1012MOL0     H36593  10.608  11.235   9.962 -1.3080 -2.4212 -2.0775
 1012MOL0     H36594  10.733  11.336   9.704 -0.0165  0.8125  0.6813
 1012MOL0     H36595  10.566  11.270   9.729  0.0092 -1.7953  2.9400
 1012MOL0     H36596  10.653  11.488   9.909 -1.4433  0.1378  0.8238
 1012MOL0     H36597  10.497  11.455   9.858 -0.1592  1.2796  1.0787
 1012MOL0     H36598  10.558  11.645   9.730  0.3567 -0.6886  0.2878
 1012MOL0     H36599  10.701  11.561   9.651  1.1769 -0.3456 -1.0714
 1012MOL0     H36600  10.631  10.688  10.184  1.9713 -0.5978  0.5718
 1012MOL0     H36601  10.468  10.760  10.366 -2.2452  0.0867 -4.3581
 1012MOL0     H36602  10.303  11.055  10.675  4.0266 -2.2337 -1.5395
 1012MOL0     H36603  10.067  11.014  10.798  1.2418 -0.5504  0.3515
 1012MOL0     H36604  10.909  10.194  10.126 -0.7475 -2.5733  2.3538
 1012MOL0     H36605  10.924   9.968  10.018  0.2908 -0.9338 -0.4191
 1012MOL0     H36606  11.019   9.665   9.852 -0.9572 -1.7586 -1.8059
 1012MOL0     H36607  10.975   9.434   9.781  2.2315 -2.6357 -2.3310
 1012MOL0     H36608  11.074   9.090   9.711  3.4396 -0.5154  2.1479
 1012MOL0     H36609  11.002   9.248   9.701 -1.0731 -1.0433 -1.4859
 1012MOL0     H36610  10.841   9.112   9.770 -0.2986  0.4996 -0.5051
 1012MOL0     H36611  10.883   9.205   9.922 -3.1884 -0.6325 -0.2991
 1012MOL0     H36612  11.028   9.016   9.992 -0.8484  2.3037  1.0030
 1012MOL0     H36613  10.955   8.930   9.851 -0.5401  0.5794 -1.0011
 1012MOL0     H36614  10.748   8.931   9.937  0.4157  4.1372 -1.3061
 1012MOL0     H36615  10.854   8.858  10.059 -1.8720 -1.7869 -0.9449
 1012MOL0     H36616  10.758   9.208  10.283  3.5927 -1.2112  1.7088
 1012MOL0     H36617  11.273   9.297  10.067 -2.0472 -2.8406 -2.0236
 1012MOL0     H36618  11.396   9.429  10.181 -2.3280 -2.2791 -2.0835
 1012MOL0     H36619  11.419   9.598  10.127 -0.5416  0.6594  0.5617
 1012MOL0     H36620  11.311   9.573  10.256  0.5164  1.9737 -1.3970
 1013MOL0     O36621   2.482   7.471   3.699  0.5136 -0.1763 -0.2867
 1013MOL0     C36622   2.570   7.548   3.740 -0.4932 -0.0535  1.0569
 1013MOL0     O36623   2.687   7.581   3.667 -0.8765 -0.1450  0.3457
 1013MOL0     C36624   2.731   7.511   3.558 -0.3423  0.6167 -0.3704
 1013MOL0     C36625   2.645   7.436   3.456 -0.2073  0.1676 -0.2424
 1013MOL0     C36626   2.717   7.370   3.358 -0.1366 -0.4180  0.9896
 1013MOL0     C36627   2.854   7.373   3.342 -0.1370 -0.5555  0.2584
 1013MOL0     O36628   2.908   7.304   3.233  0.5538 -1.0296  0.0455
 1013MOL0     C36629   2.921   7.394   3.117 -0.7428 -0.5418 -0.2099
 1013MOL0     C36630   3.020   7.326   3.020  0.2851  0.1194 -0.0204
 1013MOL0     C36631   3.157   7.324   3.089 -1.0030  0.2757 -0.3611
 1013MOL0     C36632   3.277   7.304   2.999 -0.3097  0.0732  0.4630
 1013MOL0     C36633   3.410   7.281   3.091  0.4473 -0.0757 -0.3063
 1013MOL0     C36634   3.533   7.299   2.999  0.0320  0.4603 -0.1343
 1013MOL0     C36635   3.539   7.229   2.861  0.2633  0.7419 -0.0716
 1013MOL0     C36636   3.668   7.252   2.788 -0.5070 -0.5817 -0.4449
 1013MOL0     N36637   3.682   7.382   2.715  0.0084 -0.0102  0.0677
 1013MOL0     C36638   3.599   7.436   2.620 -0.4591  0.1137 -0.4026
 1013MOL0     C36639   3.664   7.545   2.573  0.4340  0.0126  0.6458
 1013MOL0     C36640   3.603   7.640   2.470  0.6407 -0.0500  0.6751
 1013MOL0     C36641   3.544   7.771   2.518  0.1824 -0.3516 -0.3401
 1013MOL0     C36642   3.634   7.843   2.614 -0.2571 -0.0321 -0.7104
 1013MOL0     C36643   3.612   7.803   2.758 -0.2288  0.2483  0.2586
 1013MOL0     O36644   3.475   7.821   2.803 -0.3784 -0.9528 -0.3511
 1013MOL0     C36645   3.439   7.763   2.918 -0.9468  0.0513  0.4350
 1013MOL0     C36646   3.524   7.682   3.003 -0.5198  0.0708  1.6498
 1013MOL0     C36647   3.461   7.634   3.114 -0.8925 -0.2543  0.0035
 1013MOL0     C36648   3.342   7.670   3.161  0.1405  0.3941  1.1164
 1013MOL0     C36649   3.288   7.617   3.284  0.8511  0.4369 -0.7868
 1013MOL0     O36650   3.372   7.585   3.386  0.0170  0.0595 -0.5531
 1013MOL0     C36651   3.313   7.508   3.486  0.0367  0.1906 -1.1297
 1013MOL0     C36652   3.294   7.572   3.605 -0.5519 -0.4473 -0.3921
 1013MOL0     C36653   3.243   7.511   3.717 -0.4437 -1.3802 -0.6685
 1013MOL0     C36654   3.206   7.377   3.700  0.2101  0.6834  0.0190
 1013MOL0     O36655   3.142   7.301   3.793 -0.4446  0.3982  0.0712
 1013MOL0     C36656   3.183   7.297   3.928 -0.3727  0.7807 -0.2766
 1013MOL0     C36657   3.078   7.372   4.009  0.0709  0.8084  0.2615
 1013MOL0     C36658   3.133   7.410   4.143  0.3494 -0.2983 -0.0969
 1013MOL0     C36659   3.024   7.489   4.221  0.7011 -0.0988 -0.7798
 1013MOL0     C36660   2.995   7.639   4.177  0.2515 -0.7443 -0.5276
 1013MOL0     C36661   2.882   7.708   4.261  0.0179 -0.7197  0.8286
 1013MOL0     C36662   2.917   7.756   4.407  0.5025  0.1440  0.5308
 1013MOL0     C36663   2.818   7.847   4.470  0.2135 -0.0053 -0.5121
 1013MOL0    Cl36664   2.901   7.918   4.625 -0.0184  0.2554 -0.1209
 1013MOL0     C36665   3.220   7.309   3.587  0.1923 -0.2438 -0.6419
 1013MOL0     C36666   3.272   7.375   3.477 -0.8889 -0.5582 -0.3742
 1013MOL0     O36667   3.162   7.603   3.283  0.8091  0.3966 -1.1523
 1013MOL0     C36668   3.266   7.757   3.082 -0.8506 -0.1612 -0.8472
 1013MOL0     C36669   3.313   7.804   2.957  1.0556 -0.4799  0.7939
 1013MOL0     N36670   3.788   7.557   2.630  0.5383 -0.0468  0.6608
 1013MOL0     N36671   3.797   7.460   2.720  0.4817  0.3062  0.4513
 1013MOL0     C36672   2.936   7.442   3.433 -0.3299 -0.8763 -0.0916
 1013MOL0     C36673   2.874   7.512   3.537  0.5285  0.6835  0.6802
 1013MOL0     C36674   2.535   7.621   3.870 -0.4576 -1.2609  0.7231
 1013MOL0     C36675   2.406   7.603   3.924 -0.3523 -0.8460 -0.3641
 1013MOL0     C36676   2.366   7.673   4.041 -0.2069  0.5463 -0.3658
 1013MOL0     C36677   2.444   7.765   4.111  0.1834  0.0312  0.2835
 1013MOL0     O36678   2.384   7.838   4.206  0.3639  0.0293  0.6294
 1013MOL0     C36679   2.461   7.930   4.274  0.3059 -0.9676 -0.9454
 1013MOL0     C36680   2.395   7.995   4.392 -0.6639  0.1615  0.3820
 1013MOL0     C36681   2.333   7.909   4.504  0.4426  0.0652 -0.6581
 1013MOL0     C36682   2.197   7.849   4.450  0.3899  0.2846 -0.7840
 1013MOL0     C36683   2.221   7.706   4.447  0.0529 -0.4211  0.0600
 1013MOL0     C36684   2.241   7.588   4.424 -0.0774  0.2432  1.0445
 1013MOL0     C36685   2.574   7.790   4.060  0.3363  0.5819 -0.6163
 1013MOL0     C36686   2.620   7.710   3.943  0.1603  0.1287 -0.8062
 1013MOL0     C36687   2.759   7.729   3.894  0.3783 -0.0928 -0.1557
 1013MOL0     H36688   2.539   7.439   3.479  0.4532  0.4831  3.2762
 1013MOL0     H36689   2.655   7.332   3.278 -2.0441  3.1145  0.5938
 1013MOL0     H36690   2.821   7.410   3.076 -3.1214 -3.8825  3.5195
 1013MOL0     H36691   2.961   7.491   3.147 -2.0448 -0.3289  0.9321
 1013MOL0     H36692   3.024   7.386   2.929 -1.3751  1.3536  0.6536
 1013MOL0     H36693   2.978   7.228   2.996  2.5326 -0.7789 -0.4843
 1013MOL0     H36694   3.152   7.238   3.156  0.6311 -1.9613 -2.8949
 1013MOL0     H36695   3.176   7.413   3.149 -0.3979  1.2107 -1.8802
 1013MOL0     H36696   3.260   7.223   2.927 -0.6753  0.3896  0.1937
 1013MOL0     H36697   3.279   7.386   2.927  0.6101 -2.7147 -3.0081
 1013MOL0     H36698   3.424   7.356   3.170 -0.5157  1.1723 -1.2716
 1013MOL0     H36699   3.402   7.183   3.137 -1.5394 -1.1432 -2.6612
 1013MOL0     H36700   3.534   7.406   2.975 -0.2520  0.1255 -1.7667
 1013MOL0     H36701   3.621   7.270   3.057 -0.6737  1.0613  1.2738
 1013MOL0     H36702   3.451   7.253   2.800  0.9912 -0.5609 -1.7116
 1013MOL0     H36703   3.531   7.120   2.871  3.0228  0.1898 -2.5579
 1013MOL0     H36704   3.747   7.250   2.863 -0.5318 -0.4517 -0.4138
 1013MOL0     H36705   3.680   7.174   2.714  1.2015 -1.9274  1.1710
 1013MOL0     H36706   3.500   7.397   2.603 -0.4389 -0.8730  1.4668
 1013MOL0     H36707   3.689   7.671   2.410  1.1068 -1.3138  0.6674
 1013MOL0     H36708   3.522   7.588   2.419  1.3384 -0.6570  0.1615
 1013MOL0     H36709   3.523   7.832   2.431 -2.1629 -0.8687 -0.1938
 1013MOL0     H36710   3.447   7.755   2.566  0.6903  1.5566  1.4866
 1013MOL0     H36711   3.620   7.949   2.589 -0.2401  1.3064  3.9564
 1013MOL0     H36712   3.739   7.829   2.587 -0.3421 -1.0484 -0.5629
 1013MOL0     H36713   3.678   7.862   2.823  0.9137  0.1172 -0.7387
 1013MOL0     H36714   3.642   7.700   2.781 -2.8592 -0.0769  2.7330
 1013MOL0     H36715   3.620   7.639   2.974 -0.4802  0.4244  1.2454
 1013MOL0     H36716   3.521   7.571   3.179 -1.9711 -0.9322  0.3710
 1013MOL0     H36717   3.302   7.680   3.613  1.6409 -0.6099  0.1370
 1013MOL0     H36718   3.235   7.568   3.809 -1.9369  0.1016 -1.6509
 1013MOL0     H36719   3.199   7.194   3.961  0.7906 -0.0614 -3.1898
 1013MOL0     H36720   3.283   7.337   3.946  1.1366 -1.0158 -3.9000
 1013MOL0     H36721   3.044   7.461   3.955  0.4204 -0.7063 -2.6891
 1013MOL0     H36722   2.993   7.305   4.022  0.1039  1.2027  3.2807
 1013MOL0     H36723   3.155   7.319   4.200  0.4585 -2.4159 -3.2683
 1013MOL0     H36724   3.229   7.462   4.132  0.5096 -1.1413 -4.1832
 1013MOL0     H36725   3.051   7.478   4.326 -0.6303 -1.4424 -0.5468
 1013MOL0     H36726   2.933   7.429   4.215  0.9257 -0.2813 -3.0328
 1013MOL0     H36727   2.959   7.633   4.074  0.3576 -3.5179 -0.4532
 1013MOL0     H36728   3.084   7.702   4.188  0.9818 -1.6192 -1.2925
 1013MOL0     H36729   2.823   7.779   4.202 -1.5373 -0.5735  2.4769
 1013MOL0     H36730   2.810   7.626   4.267 -1.5254  0.1105 -3.1087
 1013MOL0     H36731   3.011   7.812   4.403  0.4946  0.2106  1.1738
 1013MOL0     H36732   2.931   7.667   4.469 -5.5454 -1.7404 -0.1264
 1013MOL0     H36733   2.780   7.927   4.407 -1.2665  0.5346  0.9851
 1013MOL0     H36734   2.733   7.788   4.504  2.1323 -2.0180  1.0949
 1013MOL0     H36735   3.183   7.208   3.576  1.2717 -0.8704  1.1486
 1013MOL0     H36736   3.268   7.321   3.383 -3.0512 -1.2793  0.0997
 1013MOL0     H36737   3.165   7.776   3.115  0.2851 -1.7333  4.4924
 1013MOL0     H36738   3.251   7.868   2.896  1.8994 -0.8007 -0.4381
 1013MOL0     H36739   3.043   7.434   3.420 -0.2151  0.5403 -0.1004
 1013MOL0     H36740   2.937   7.556   3.614  1.1898 -0.4305  0.8015
 1013MOL0     H36741   2.345   7.527   3.876  1.6888 -2.2041 -0.9486
 1013MOL0     H36742   2.266   7.657   4.079  0.6077  0.9019  2.1071
 1013MOL0     H36743   2.482   8.010   4.203  2.8780  1.2551  2.0408
 1013MOL0     H36744   2.554   7.881   4.306  0.9367 -1.8185 -3.8406
 1013MOL0     H36745   2.314   8.057   4.351 -0.0520 -0.5323 -2.0432
 1013MOL0     H36746   2.469   8.062   4.437  0.4869  0.1353 -1.3406
 1013MOL0     H36747   2.304   7.985   4.576  3.0863  2.2491 -1.7267
 1013MOL0     H36748   2.403   7.838   4.549  0.6262 -1.7740 -3.5745
 1013MOL0     H36749   2.109   7.857   4.515  1.8705  1.4221  1.1982
 1013MOL0     H36750   2.171   7.888   4.352  2.3713  3.2075 -0.2796
 1013MOL0     H36751   2.244   7.487   4.389  0.3900 -0.2694  2.4711
 1013MOL0     H36752   2.630   7.863   4.117 -2.1361  1.5698  0.6542
 1013MOL0     H36753   2.769   7.750   3.787  0.9346  3.8156  0.5396
 1013MOL0     H36754   2.789   7.820   3.945 -0.9036  1.3515 -1.8367
 1013MOL0     H36755   2.816   7.639   3.919 -1.1789 -0.3291  3.0484
 1014MOL0     O36756   6.031  10.219   5.125  0.7575 -0.4825 -0.1082
 1014MOL0     C36757   6.012  10.100   5.107  0.5163 -0.3957 -0.5067
 1014MOL0     O36758   6.072  10.022   5.002 -0.3883 -0.3498  0.2954
 1014MOL0     C36759   6.196  10.060   4.971  0.4301  0.4965  0.6915
 1014MOL0     C36760   6.218  10.159   4.880  0.0342 -0.1784  0.0660
 1014MOL0     C36761   6.346  10.195   4.845 -0.0906  0.6406  0.3743
 1014MOL0     C36762   6.455  10.137   4.906  0.0308 -0.2241  0.4010
 1014MOL0     O36763   6.590  10.163   4.894  0.3481  0.1968 -0.0172
 1014MOL0     C36764   6.644  10.051   4.821 -0.4874 -0.1839 -0.4169
 1014MOL0     C36765   6.773  10.111   4.764  0.7565 -0.3520  0.2858
 1014MOL0     C36766   6.740  10.250   4.701 -0.7724 -0.4277 -0.4973
 1014MOL0     C36767   6.643  10.251   4.585 -0.3638 -0.1988 -1.2338
 1014MOL0     C36768   6.617  10.399   4.543 -0.5192  0.0023 -0.5569
 1014MOL0     C36769   6.741  10.472   4.486  0.3874  0.4444  0.0708
 1014MOL0     C36770   6.705  10.622   4.448  0.0322 -0.1569 -0.4042
 1014MOL0     C36771   6.826  10.716   4.419 -0.7136  1.2031  0.2647
 1014MOL0     N36772   6.886  10.765   4.544 -0.0490 -0.5977 -0.6362
 1014MOL0     C36773   6.991  10.709   4.612 -0.6071  0.2137  0.2596
 1014MOL0     C36774   7.001  10.788   4.729 -0.0107  0.4957 -0.2982
 1014MOL0     C36775   7.116  10.774   4.838 -0.3736  0.9319 -0.5790
 1014MOL0     C36776   7.230  10.875   4.819 -0.8711 -0.2481  0.2993
 1014MOL0     C36777   7.309  10.878   4.681 -0.3971  0.4260  0.7191
 1014MOL0     C36778   7.236  10.961   4.586 -0.0080 -0.6804  0.7307
 1014MOL0     O36779   7.320  11.010   4.481  0.0266  0.6631  0.2546
 1014MOL0     C36780   7.267  11.114   4.416  0.5931  0.4040  0.0210
 1014MOL0     C36781   7.172  11.100   4.317  0.1165 -0.2137 -0.2650
 1014MOL0     C36782   7.143  11.212   4.234  0.3607  0.3796 -0.6397
 1014MOL0     C36783   7.211  11.336   4.260  0.7863 -0.1767 -0.2005
 1014MOL0     C36784   7.183  11.451   4.179  0.2423  0.1299 -0.2961
 1014MOL0     O36785   7.082  11.440   4.091 -1.0454  0.6132 -0.5340
 1014MOL0     C36786   7.074  11.532   3.988 -0.1343  0.7075  0.0473
 1014MOL0     C36787   6.955  11.611   3.973 -0.1619 -0.8760 -0.1938
 1014MOL0     C36788   6.943  11.699   3.861  0.1148 -0.3583  0.3591
 1014MOL0     C36789   7.050  11.723   3.777 -0.2254 -0.3113  0.8951
 1014MOL0     O36790   7.043  11.805   3.667  0.7257 -0.3208  0.3180
 1014MOL0     C36791   7.002  11.941   3.698  0.4082 -0.1720 -1.0774
 1014MOL0     C36792   7.019  12.027   3.580 -0.1172  0.2683  0.3903
 1014MOL0     C36793   7.175  12.071   3.574  1.2863 -0.7393 -0.5709
 1014MOL0     C36794   7.216  12.098   3.433  0.3137 -0.8783 -0.6056
 1014MOL0     C36795   7.359  12.145   3.414 -0.4040  0.3541  0.9003
 1014MOL0     C36796   7.385  12.172   3.268 -0.7400  0.0205  1.3208
 1014MOL0     C36797   7.529  12.216   3.242 -0.6826  0.2763  0.1792
 1014MOL0     C36798   7.548  12.310   3.123  0.8785 -0.3132  0.8631
 1014MOL0    Cl36799   7.725  12.353   3.106 -0.1282 -0.0077 -0.3324
 1014MOL0     C36800   7.160  11.633   3.788 -0.3568  0.6699  0.3882
 1014MOL0     C36801   7.167  11.533   3.881 -0.5087 -0.0672  0.1612
 1014MOL0     O36802   7.256  11.550   4.186 -0.6833  0.9049  0.7961
 1014MOL0     C36803   7.290  11.340   4.376 -0.0686 -0.6333  1.1713
 1014MOL0     C36804   7.320  11.234   4.448 -0.5965  0.2472  0.6492
 1014MOL0     N36805   6.891  10.873   4.736 -0.2576 -0.1720  0.7346
 1014MOL0     N36806   6.843  10.879   4.618 -0.7954  0.5206  1.2762
 1014MOL0     C36807   6.428  10.033   4.993  0.3412  0.2754  0.1710
 1014MOL0     C36808   6.304   9.986   5.015  0.6898  0.9228 -0.1746
 1014MOL0     C36809   5.897  10.036   5.187  0.1904 -0.4837  0.0499
 1014MOL0     C36810   5.837   9.918   5.141  0.6082 -0.5199  0.2509
 1014MOL0     C36811   5.727   9.858   5.201  0.1148  0.3294  0.0075
 1014MOL0     C36812   5.671   9.910   5.316 -0.3102  1.3915  0.5138
 1014MOL0     O36813   5.567   9.835   5.365  0.2806  0.4383  0.0855
 1014MOL0     C36814   5.476   9.892   5.465 -0.2221 -0.0278  0.0222
 1014MOL0     C36815   5.487   9.818   5.599  0.4121 -0.2853 -0.1180
 1014MOL0     C36816   5.425   9.690   5.594  0.0058  0.6833 -0.6628
 1014MOL0     C36817   5.456   9.609   5.725 -0.2666 -0.8624  0.0328
 1014MOL0     C36818   5.592   9.564   5.710 -0.4241 -0.5626 -0.8975
 1014MOL0     C36819   5.700   9.516   5.706  0.4209 -0.5199  0.0799
 1014MOL0     C36820   5.735  10.018   5.378 -0.3851 -0.4115 -1.5581
 1014MOL0     C36821   5.846  10.080   5.319 -0.1852  1.2043  0.7971
 1014MOL0     C36822   5.911  10.190   5.390 -0.0222  0.2629  0.0040
 1014MOL0     H36823   6.136  10.220   4.845 -0.8091 -1.6064 -0.5380
 1014MOL0     H36824   6.359  10.273   4.770 -3.4607  0.7009 -0.3399
 1014MOL0     H36825   6.674   9.969   4.886 -0.2532 -1.1892 -1.7387
 1014MOL0     H36826   6.574  10.008   4.747 -0.2412  0.2722 -0.9199
 1014MOL0     H36827   6.813  10.041   4.691 -0.4290  0.4542 -1.2197
 1014MOL0     H36828   6.853  10.128   4.836  1.2628 -0.6959 -0.1922
 1014MOL0     H36829   6.837  10.291   4.674 -0.8794 -1.9424 -3.7117
 1014MOL0     H36830   6.703  10.320   4.776 -2.2440 -2.1134  0.4562
 1014MOL0     H36831   6.692  10.203   4.500 -0.7137  0.2197 -1.6792
 1014MOL0     H36832   6.558  10.190   4.619  1.4565 -0.7630  2.9249
 1014MOL0     H36833   6.543  10.399   4.463 -1.3806 -0.4881  0.2248
 1014MOL0     H36834   6.584  10.460   4.627 -3.3712  4.9427 -4.6865
 1014MOL0     H36835   6.816  10.475   4.566 -0.7133 -0.0092  1.1363
 1014MOL0     H36836   6.788  10.430   4.397  0.2872 -1.3049  0.8045
 1014MOL0     H36837   6.639  10.674   4.517  0.9807  0.8616 -0.2275
 1014MOL0     H36838   6.641  10.614   4.360 -0.4324 -1.5756  0.0403
 1014MOL0     H36839   6.898  10.662   4.356 -2.5833 -3.0772  1.4359
 1014MOL0     H36840   6.792  10.805   4.366 -1.2978  1.8662  1.7177
 1014MOL0     H36841   7.054  10.625   4.587 -0.5771  0.2292  0.2841
 1014MOL0     H36842   7.074  10.786   4.939 -2.8552  0.0379 -1.4381
 1014MOL0     H36843   7.148  10.670   4.838 -1.1755  0.6754 -0.2429
 1014MOL0     H36844   7.201  10.978   4.844 -1.2869 -0.5568  1.1338
 1014MOL0     H36845   7.309  10.851   4.890  1.1047 -2.7351 -2.4932
 1014MOL0     H36846   7.336  10.776   4.652  0.8970  0.9804 -0.1278
 1014MOL0     H36847   7.407  10.925   4.690 -0.4880  1.1700 -1.6673
 1014MOL0     H36848   7.192  11.050   4.633  1.1606 -0.2618  1.0557
 1014MOL0     H36849   7.159  10.905   4.532 -1.2011 -0.3422  2.0301
 1014MOL0     H36850   7.116  11.008   4.304  0.1388  0.0251 -2.5057
 1014MOL0     H36851   7.081  11.199   4.146 -2.4557  1.5633  1.0510
 1014MOL0     H36852   6.872  11.610   4.043 -0.5709  3.1132 -0.3936
 1014MOL0     H36853   6.851  11.756   3.861 -0.6793 -1.2144  5.2886
 1014MOL0     H36854   6.897  11.946   3.727  1.3215  0.3654  2.7616
 1014MOL0     H36855   7.062  11.987   3.778  0.3295  1.2127 -1.7972
 1014MOL0     H36856   6.981  11.987   3.485  0.1880 -0.7119  0.6761
 1014MOL0     H36857   6.956  12.114   3.602 -1.0330 -0.1327 -0.5370
 1014MOL0     H36858   7.192  12.164   3.628 -0.3755  0.0938 -1.4019
 1014MOL0     H36859   7.241  11.998   3.621 -0.0992 -2.2498 -0.8780
 1014MOL0     H36860   7.136  12.152   3.380 -0.1402 -0.7938  0.1495
 1014MOL0     H36861   7.201  11.996   3.396 -0.4251 -0.5826 -1.1683
 1014MOL0     H36862   7.434  12.068   3.437  0.5960  0.2680 -2.1746
 1014MOL0     H36863   7.394  12.233   3.469  4.3031  1.3863 -3.0242
 1014MOL0     H36864   7.369  12.082   3.209  4.2435 -0.8492  0.9030
 1014MOL0     H36865   7.326  12.256   3.230  2.7936  1.1747 -2.2709
 1014MOL0     H36866   7.585  12.124   3.225  0.7760  0.8529  1.5730
 1014MOL0     H36867   7.579  12.250   3.333  0.8104 -1.9558  0.2616
 1014MOL0     H36868   7.508  12.277   3.027  1.4748 -0.8606  0.7947
 1014MOL0     H36869   7.487  12.399   3.142 -0.9539 -1.5928  1.1902
 1014MOL0     H36870   7.240  11.647   3.716  0.5310 -0.2080  1.1625
 1014MOL0     H36871   7.259  11.478   3.896  0.0029 -1.3599 -5.3206
 1014MOL0     H36872   7.329  11.436   4.410  0.9690 -0.9099  0.7920
 1014MOL0     H36873   7.386  11.242   4.534 -0.8201  1.0201  0.7571
 1014MOL0     H36874   6.509   9.990   5.052 -0.3825 -1.9287 -0.3744
 1014MOL0     H36875   6.288   9.913   5.094  1.7436 -1.1006 -1.7581
 1014MOL0     H36876   5.871   9.882   5.044  0.4683 -4.6167  1.5551
 1014MOL0     H36877   5.683   9.772   5.151  2.4039  0.6003 -2.7072
 1014MOL0     H36878   5.378   9.894   5.416  1.1778  0.3453 -3.0264
 1014MOL0     H36879   5.499   9.998   5.483  3.1886 -0.5482 -0.5355
 1014MOL0     H36880   5.435   9.869   5.680 -1.2397 -1.3335 -0.4638
 1014MOL0     H36881   5.593   9.807   5.625  1.6067  1.0283 -3.7996
 1014MOL0     H36882   5.469   9.620   5.522 -1.2296 -1.2513  0.3977
 1014MOL0     H36883   5.316   9.694   5.588 -0.0398 -0.9151 -1.5091
 1014MOL0     H36884   5.447   9.673   5.813  3.9069  0.8753 -0.5343
 1014MOL0     H36885   5.390   9.522   5.726  0.2450 -1.2600  1.3279
 1014MOL0     H36886   5.799   9.486   5.679  1.0139  2.3742 -1.4840
 1014MOL0     H36887   5.681  10.063   5.461 -2.9325 -0.2632 -3.1569
 1014MOL0     H36888   6.018  10.166   5.396 -0.1771 -1.3170 -2.2935
 1014MOL0     H36889   5.900  10.284   5.336  0.0080 -0.2556 -0.9189
 1014MOL0     H36890   5.865  10.195   5.489  0.3289 -0.4777  0.2137
 1015MOL0     O36891   7.444   1.539   0.149 -0.4848  0.2307  0.1419
 1015MOL0     C36892   7.517   1.473   0.081 -0.8146  0.5908  0.7941
 1015MOL0     O36893   7.497   1.344   0.040 -0.1899  0.3918 -0.8379
 1015MOL0     C36894   7.378   1.285   0.077  0.2121  0.0514 -0.3254
 1015MOL0     C36895   7.354   1.205   0.194 -0.4673 -0.5314 -0.7706
 1015MOL0     C36896   7.225   1.160   0.235  0.0831  0.2364  0.1808
 1015MOL0     C36897   7.117   1.201   0.166 -0.8327 -0.2887  0.3126
 1015MOL0     O36898   6.989   1.166   0.194  0.1830  0.0215  0.6237
 1015MOL0     C36899   6.963   1.116   0.328  0.3104  1.7090 -0.4979
 1015MOL0     C36900   6.823   1.054   0.339  0.1167  0.9926  0.8118
 1015MOL0     C36901   6.773   1.004   0.476  1.1268  0.7736 -0.6825
 1015MOL0     C36902   6.628   0.935   0.458  0.3878 -0.0744 -0.9222
 1015MOL0     C36903   6.585   0.887   0.599  0.3872 -0.3568 -0.5407
 1015MOL0     C36904   6.436   0.842   0.612 -0.7656 -0.3660  0.2909
 1015MOL0     C36905   6.379   0.750   0.502  0.3041  0.2159 -0.1023
 1015MOL0     C36906   6.227   0.729   0.526  0.2534  0.5107  0.0317
 1015MOL0     N36907   6.181   0.631   0.431 -0.2169  0.1399  0.7821
 1015MOL0     C36908   6.076   0.652   0.343 -0.0303  1.4173  0.2297
 1015MOL0     C36909   6.046   0.521   0.297 -0.4697 -0.4337  0.9275
 1015MOL0     C36910   5.954   0.491   0.178 -1.2247 -0.9824 -0.9868
 1015MOL0     C36911   6.031   0.441   0.057 -0.2275  0.5914 -0.3338
 1015MOL0     C36912   6.121   0.559  -0.003  0.4941 -0.5113 -0.4209
 1015MOL0     C36913   6.042   0.632  -0.117  0.5725 -0.4253  0.2855
 1015MOL0     O36914   5.934   0.710  -0.059 -0.2896 -0.5837 -0.3967
 1015MOL0     C36915   5.808   0.676  -0.078  0.5353 -0.1608  0.4775
 1015MOL0     C36916   5.723   0.773  -0.026 -0.3775  1.4115  0.8841
 1015MOL0     C36917   5.583   0.756  -0.029  0.2148  0.3496  0.0500
 1015MOL0     C36918   5.525   0.630  -0.084 -0.0383  0.3811 -1.4672
 1015MOL0     C36919   5.391   0.589  -0.043  0.0400 -0.0628 -0.1690
 1015MOL0     O36920   5.315   0.665   0.050  0.2392  1.4647  0.6541
 1015MOL0     C36921   5.179   0.653   0.032  0.3481  0.3575 -0.2429
 1015MOL0     C36922   5.116   0.751  -0.035 -0.2574 -0.6264  0.0867
 1015MOL0     C36923   4.975   0.727  -0.062 -0.1386 -0.0594 -0.6931
 1015MOL0     C36924   4.912   0.611  -0.030  0.1374 -0.3165  0.8885
 1015MOL0     O36925   4.779   0.594  -0.060 -0.2501  0.1239  0.7365
 1015MOL0     C36926   4.683   0.664   0.014  0.2916  0.0019  0.0321
 1015MOL0     C36927   4.544   0.659  -0.061 -0.3333  0.4555  1.1694
 1015MOL0     C36928   4.422   0.680   0.041  0.4706  0.8536 -0.2565
 1015MOL0     C36929   4.363   0.550   0.093 -0.1079 -0.7780 -0.4739
 1015MOL0     C36930   4.253   0.570   0.207  0.0845 -0.6147 -0.4045
 1015MOL0     C36931   4.131   0.640   0.156  0.5397 -0.2859 -0.0964
 1015MOL0     C36932   4.022   0.669   0.263 -0.3295 -0.6220  0.2430
 1015MOL0     C36933   3.953   0.537   0.306 -0.8571  0.1986 -0.4926
 1015MOL0    Cl36934   3.797   0.551   0.402 -0.3834  0.4141  0.0444
 1015MOL0     C36935   4.983   0.519   0.047 -0.2698  0.5575 -0.3650
 1015MOL0     C36936   5.124   0.539   0.086  0.1677 -0.0223  0.7853
 1015MOL0     O36937   5.351   0.494  -0.104  0.2471 -0.5267 -0.2295
 1015MOL0     C36938   5.615   0.540  -0.150 -0.5331  0.6874  0.1361
 1015MOL0     C36939   5.754   0.564  -0.134  0.6427  0.2974  0.0594
 1015MOL0     N36940   6.117   0.423   0.365 -0.0261  0.1926 -0.3035
 1015MOL0     N36941   6.203   0.495   0.435 -0.1069  0.2591  0.2848
 1015MOL0     C36942   7.131   1.288   0.058 -0.1108 -0.2950 -0.1201
 1015MOL0     C36943   7.256   1.337   0.015 -0.4605  0.4012  0.4813
 1015MOL0     C36944   7.646   1.542   0.054  0.6194 -0.1766 -0.1619
 1015MOL0     C36945   7.697   1.632   0.146  1.1311  0.2332 -0.6082
 1015MOL0     C36946   7.823   1.681   0.137  0.4067 -0.4140  0.6039
 1015MOL0     C36947   7.903   1.661   0.025 -0.4663  0.1718 -0.4036
 1015MOL0     O36948   8.029   1.711   0.021 -1.1307 -0.2826 -0.5352
 1015MOL0     C36949   8.036   1.838   0.077  0.3091 -0.4131  0.0550
 1015MOL0     C36950   8.156   1.911   0.033  0.6243 -0.6355 -0.4044
 1015MOL0     C36951   8.144   2.052   0.081  0.4091  0.1019  0.4142
 1015MOL0     C36952   8.270   2.139   0.083 -0.3600  0.5763 -0.0551
 1015MOL0     C36953   8.311   2.178  -0.043  0.5804  0.6888  0.3205
 1015MOL0     C36954   8.325   2.195  -0.162 -0.5763 -0.9423 -0.0162
 1015MOL0     C36955   7.852   1.584  -0.079  0.4286 -0.8024 -0.5149
 1015MOL0     C36956   7.724   1.524  -0.073 -0.5178 -0.3223 -0.8863
 1015MOL0     C36957   7.670   1.460  -0.196  1.1824  0.0694  0.2351
 1015MOL0     H36958   7.445   1.179   0.246  1.2343  2.2762 -2.1533
 1015MOL0     H36959   7.222   1.094   0.320  1.3052 -1.3183 -0.9288
 1015MOL0     H36960   7.035   1.045   0.371 -0.4497  1.9130  1.2218
 1015MOL0     H36961   6.950   1.197   0.400 -1.0716  2.0490 -1.1057
 1015MOL0     H36962   6.807   0.972   0.268 -2.1561  1.8408  0.2257
 1015MOL0     H36963   6.750   1.133   0.316 -1.2173 -0.5484 -0.5243
 1015MOL0     H36964   6.762   1.090   0.542  1.8126  0.2212  0.1823
 1015MOL0     H36965   6.844   0.942   0.532  2.0511  1.5057 -1.0194
 1015MOL0     H36966   6.558   1.010   0.422 -0.7427 -0.4528  0.4092
 1015MOL0     H36967   6.638   0.858   0.381  1.9692 -0.2321 -0.5870
 1015MOL0     H36968   6.654   0.812   0.638 -0.6008 -2.8693 -3.2676
 1015MOL0     H36969   6.605   0.961   0.678  0.2964 -0.9300  0.0324
 1015MOL0     H36970   6.433   0.798   0.712  1.0004  2.3178  1.6553
 1015MOL0     H36971   6.373   0.930   0.631  0.6969  0.4347  1.6820
 1015MOL0     H36972   6.430   0.653   0.496  1.8041  0.9603  0.1862
 1015MOL0     H36973   6.374   0.782   0.398 -2.1912  0.6090  0.0929
 1015MOL0     H36974   6.204   0.684   0.623  1.1668  0.9014  0.4357
 1015MOL0     H36975   6.169   0.822   0.520  0.8765  0.8620 -0.7512
 1015MOL0     H36976   6.017   0.735   0.306 -4.7969 -1.8537 -0.3924
 1015MOL0     H36977   5.898   0.404   0.213  2.8021 -2.5702  2.3900
 1015MOL0     H36978   5.884   0.574   0.157  2.1229  2.7658  1.1618
 1015MOL0     H36979   6.104   0.369   0.096  1.8604  0.0951 -4.5711
 1015MOL0     H36980   5.977   0.383  -0.019 -0.4494  1.6267 -0.9768
 1015MOL0     H36981   6.209   0.507  -0.044  2.8689  2.3282  0.7171
 1015MOL0     H36982   6.171   0.623   0.071  3.3143 -2.6571 -0.2715
 1015MOL0     H36983   6.009   0.559  -0.191 -0.8318  0.2622  0.1926
 1015MOL0     H36984   6.111   0.703  -0.164 -1.8084  1.9438  0.1046
 1015MOL0     H36985   5.760   0.868   0.010  0.9120  0.8666  1.0557
 1015MOL0     H36986   5.509   0.820   0.016 -0.2919  2.3006 -3.2023
 1015MOL0     H36987   5.167   0.843  -0.063 -3.3885  0.7343 -1.6552
 1015MOL0     H36988   4.913   0.795  -0.118 -1.2952 -1.1353 -0.7534
 1015MOL0     H36989   4.679   0.621   0.115  4.9105 -1.5978 -0.2344
 1015MOL0     H36990   4.719   0.767   0.025 -1.3801  0.4209  2.5468
 1015MOL0     H36991   4.548   0.735  -0.139 -4.0015  0.0404  0.3770
 1015MOL0     H36992   4.531   0.563  -0.110 -1.0830  1.9202 -1.7156
 1015MOL0     H36993   4.464   0.743   0.120  4.7188  1.2287 -2.5000
 1015MOL0     H36994   4.338   0.725  -0.012 -2.7260 -2.3431  1.6343
 1015MOL0     H36995   4.446   0.488   0.128 -0.5978 -1.2607 -0.1523
 1015MOL0     H36996   4.315   0.493   0.013  0.0883 -0.0356 -1.1276
 1015MOL0     H36997   4.292   0.628   0.291  0.0776  0.0401 -0.8472
 1015MOL0     H36998   4.222   0.475   0.253 -0.6952 -0.2333 -0.1194
 1015MOL0     H36999   4.158   0.743   0.131  1.0823  0.2882  2.5064
 1015MOL0     H37000   4.076   0.594   0.073 -1.3839 -1.1980  1.5888
 1015MOL0     H37001   3.952   0.744   0.225 -0.8552 -1.4387 -0.4305
 1015MOL0     H37002   4.061   0.715   0.354 -3.0129  1.2015  0.6028
 1015MOL0     H37003   3.938   0.482   0.213  0.6445  0.6753 -1.0544
 1015MOL0     H37004   4.009   0.473   0.375 -3.4096 -1.6414  0.0244
 1015MOL0     H37005   4.939   0.426   0.082 -0.3152  0.7610  0.1384
 1015MOL0     H37006   5.179   0.470   0.149  1.5525  1.0352  0.7793
 1015MOL0     H37007   5.590   0.449  -0.204 -1.4008  1.3748 -0.6428
 1015MOL0     H37008   5.817   0.482  -0.165 -2.6452 -2.8156  0.8881
 1015MOL0     H37009   7.038   1.311   0.008  0.9820 -0.1507 -2.1726
 1015MOL0     H37010   7.258   1.411  -0.064 -1.7083 -0.3053 -0.2394
 1015MOL0     H37011   7.641   1.653   0.236  0.1904 -0.4382 -1.0192
 1015MOL0     H37012   7.857   1.736   0.225 -0.3130  1.9901 -0.5290
 1015MOL0     H37013   8.031   1.824   0.186 -4.0974 -0.5460  0.0349
 1015MOL0     H37014   7.954   1.906   0.052  2.7005  1.4950 -3.3391
 1015MOL0     H37015   8.161   1.904  -0.076 -0.4558  0.7031 -0.5722
 1015MOL0     H37016   8.247   1.867   0.076  0.0391 -1.0571  0.4144
 1015MOL0     H37017   8.108   2.057   0.184  2.3508  1.6394  1.0685
 1015MOL0     H37018   8.070   2.089   0.009 -2.2046 -1.3642  2.1716
 1015MOL0     H37019   8.251   2.235   0.132  2.1958  1.9745 -1.5971
 1015MOL0     H37020   8.347   2.090   0.144 -1.4329 -0.7606  0.2829
 1015MOL0     H37021   8.344   2.221  -0.264  2.9308  1.9500  1.1917
 1015MOL0     H37022   7.898   1.572  -0.177 -2.2619  1.4450 -2.2281
 1015MOL0     H37023   7.738   1.462  -0.282  1.9839  2.9935  0.8256
 1015MOL0     H37024   7.633   1.361  -0.170 -0.0568  0.0500 -1.4453
 1015MOL0     H37025   7.584   1.511  -0.242  2.8368  0.9014 -2.1095
 1016MOL0     O37026   1.442   3.158   1.142 -0.2604 -0.4861 -0.4267
 1016MOL0     C37027   1.346   3.205   1.187  0.0357 -0.5765 -0.2279
 1016MOL0     O37028   1.337   3.335   1.252 -0.1879 -0.1920  0.1172
 1016MOL0     C37029   1.449   3.423   1.252  0.5163 -0.3259  0.8268
 1016MOL0     C37030   1.562   3.420   1.161  0.1408 -0.7876  0.6367
 1016MOL0     C37031   1.663   3.526   1.169 -0.9354 -0.6743  0.6085
 1016MOL0     C37032   1.661   3.616   1.273  0.1533 -0.2716 -0.2065
 1016MOL0     O37033   1.761   3.705   1.286  0.1181 -0.8415 -0.2253
 1016MOL0     C37034   1.877   3.645   1.331  0.8747 -0.1643  0.0788
 1016MOL0     C37035   1.979   3.754   1.367 -0.5377  0.0180  0.6358
 1016MOL0     C37036   1.925   3.848   1.467  0.4745 -0.5164 -0.2368
 1016MOL0     C37037   1.872   3.784   1.589  0.6751  1.3846 -0.3068
 1016MOL0     C37038   1.884   3.853   1.724 -0.5742  0.0447 -0.0404
 1016MOL0     C37039   1.852   3.995   1.751  0.6107  0.0579  1.1636
 1016MOL0     C37040   1.705   4.022   1.793  0.4642 -0.4985  0.9243
 1016MOL0     C37041   1.657   4.166   1.781  0.0872  0.5867  0.3774
 1016MOL0     N37042   1.699   4.246   1.896 -0.6748  0.0349 -0.0134
 1016MOL0     C37043   1.763   4.368   1.881 -0.5392  0.1892 -0.0983
 1016MOL0     C37044   1.771   4.421   2.010 -0.8308  0.7782 -0.1630
 1016MOL0     C37045   1.833   4.544   2.039  0.8936 -0.8592 -0.1325
 1016MOL0     C37046   1.828   4.562   2.191 -0.5391  0.1135  0.1496
 1016MOL0     C37047   1.906   4.686   2.252  0.1372  0.7630 -1.0494
 1016MOL0     C37048   2.062   4.697   2.219  0.0452  0.5910  0.0598
 1016MOL0     O37049   2.067   4.766   2.092  0.2263  0.5263  0.5788
 1016MOL0     C37050   2.181   4.832   2.055  0.7327 -1.3086  0.5126
 1016MOL0     C37051   2.302   4.788   2.085  0.6980  0.3006 -0.2126
 1016MOL0     C37052   2.420   4.856   2.058 -1.3395 -0.0188 -0.3242
 1016MOL0     C37053   2.417   4.969   1.972  0.3508 -0.1820 -0.3335
 1016MOL0     C37054   2.544   5.023   1.914  0.4344 -0.3167  1.3212
 1016MOL0     O37055   2.532   5.143   1.861 -0.1401 -0.7123  0.2720
 1016MOL0     C37056   2.651   5.211   1.824  0.2894 -0.4008  0.1988
 1016MOL0     C37057   2.747   5.166   1.732 -1.0571 -0.6081 -0.7172
 1016MOL0     C37058   2.860   5.238   1.701 -0.1579 -0.0712 -0.7181
 1016MOL0     C37059   2.894   5.364   1.754  0.2670  0.4539  0.3386
 1016MOL0     O37060   3.002   5.431   1.699  0.0623  0.0976  0.2726
 1016MOL0     C37061   3.035   5.555   1.763 -0.3213 -0.2749  0.3594
 1016MOL0     C37062   3.161   5.603   1.710 -0.3615  0.5126  0.3828
 1016MOL0     C37063   3.213   5.730   1.778  0.3420  0.7300 -0.0458
 1016MOL0     C37064   3.345   5.767   1.707  0.9638 -0.1886 -0.7979
 1016MOL0     C37065   3.406   5.894   1.764 -0.3224  0.5425  0.0092
 1016MOL0     C37066   3.541   5.912   1.706 -0.2746  0.8335  0.6141
 1016MOL0     C37067   3.585   6.042   1.769  0.2565 -0.5467 -0.4652
 1016MOL0     C37068   3.731   6.074   1.755  0.2885  0.1943 -0.0208
 1016MOL0    Cl37069   3.841   5.947   1.815 -0.1780 -0.2617  0.0469
 1016MOL0     C37070   2.798   5.415   1.840 -0.4776  0.1365 -0.3003
 1016MOL0     C37071   2.678   5.339   1.872  0.8813  0.1187 -0.3114
 1016MOL0     O37072   2.639   4.948   1.902 -0.0376 -0.6043 -0.4120
 1016MOL0     C37073   2.288   5.025   1.945 -0.4776 -0.1774  0.2985
 1016MOL0     C37074   2.175   4.956   1.987 -0.2112  0.1657  0.3096
 1016MOL0     N37075   1.721   4.329   2.098  0.1024 -0.1438 -0.6785
 1016MOL0     N37076   1.685   4.213   2.034  0.5317 -0.4854 -0.4565
 1016MOL0     C37077   1.547   3.622   1.350 -0.8346 -0.2083  0.0687
 1016MOL0     C37078   1.441   3.526   1.341  0.6857  0.2062  0.3676
 1016MOL0     C37079   1.225   3.112   1.181  0.5936  0.5624  0.9018
 1016MOL0     C37080   1.233   2.989   1.252  0.0253 -0.4441 -0.6943
 1016MOL0     C37081   1.125   2.903   1.253 -0.2593  0.4734 -0.2792
 1016MOL0     C37082   1.002   2.941   1.196 -0.5380 -0.1133 -0.0197
 1016MOL0     O37083   0.903   2.846   1.194 -0.4055 -0.2512 -0.0032
 1016MOL0     C37084   0.812   2.835   1.084 -1.0208  0.3371 -0.1624
 1016MOL0     C37085   0.860   2.746   0.979  0.4678  0.0458 -0.4157
 1016MOL0     C37086   0.862   2.590   1.023  0.0854  0.6597  0.6493
 1016MOL0     C37087   0.984   2.542   1.109  0.5097 -0.1554 -0.0518
 1016MOL0     C37088   0.943   2.452   1.221 -0.0878 -0.0642 -0.1459
 1016MOL0     C37089   0.903   2.388   1.310  0.3409 -0.3215 -0.3598
 1016MOL0     C37090   0.988   3.063   1.122 -0.8155  0.0239 -0.5866
 1016MOL0     C37091   1.098   3.151   1.125 -0.5972 -0.8265  0.7689
 1016MOL0     C37092   1.084   3.282   1.045  0.5171  0.2594 -0.3639
 1016MOL0     H37093   1.561   3.357   1.072 -2.0648 -0.8547  0.6598
 1016MOL0     H37094   1.742   3.535   1.095 -0.3067  4.7230  1.5627
 1016MOL0     H37095   1.863   3.590   1.424 -2.1572 -0.8794 -0.6909
 1016MOL0     H37096   1.921   3.587   1.249  1.0736  2.0413 -1.4620
 1016MOL0     H37097   2.007   3.814   1.280 -0.6697  0.0220  0.5961
 1016MOL0     H37098   2.074   3.712   1.400 -0.4576  0.3048  0.7747
 1016MOL0     H37099   1.835   3.899   1.428  0.4688 -0.0680  0.3486
 1016MOL0     H37100   2.011   3.908   1.497  0.3313 -1.8194  3.1097
 1016MOL0     H37101   1.767   3.751   1.587  2.1209 -4.5651  1.6392
 1016MOL0     H37102   1.929   3.691   1.592  1.3099  1.7791 -0.0255
 1016MOL0     H37103   1.817   3.796   1.789 -3.4139  1.1695 -1.7907
 1016MOL0     H37104   1.987   3.840   1.759 -0.4886  2.0637  0.5661
 1016MOL0     H37105   1.915   4.044   1.825  1.3162  0.6798  0.1806
 1016MOL0     H37106   1.865   4.049   1.656 -1.4496  0.0128  0.8049
 1016MOL0     H37107   1.702   3.982   1.895 -0.6167 -3.0478 -0.0168
 1016MOL0     H37108   1.632   3.967   1.734 -0.3216  1.2501  0.1920
 1016MOL0     H37109   1.687   4.211   1.686 -0.8202  1.4358  0.4697
 1016MOL0     H37110   1.547   4.171   1.781  0.0418  0.6752  2.3320
 1016MOL0     H37111   1.807   4.408   1.791  0.9080 -1.1647 -0.0323
 1016MOL0     H37112   1.936   4.567   2.011  0.7730  2.2471  1.5212
 1016MOL0     H37113   1.775   4.622   1.989  0.8051 -0.2511  0.8689
 1016MOL0     H37114   1.722   4.559   2.217 -1.2940  1.2892 -2.4814
 1016MOL0     H37115   1.876   4.468   2.219 -2.2737 -2.1350 -3.6810
 1016MOL0     H37116   1.907   4.668   2.360 -4.5005  0.3609 -0.8486
 1016MOL0     H37117   1.843   4.774   2.236 -2.2875 -0.5209  0.6858
 1016MOL0     H37118   2.110   4.600   2.203 -0.5146  0.3220 -0.0437
 1016MOL0     H37119   2.118   4.731   2.306  2.8727 -2.6996 -0.2656
 1016MOL0     H37120   2.315   4.698   2.144  0.7707  1.4480  1.6011
 1016MOL0     H37121   2.515   4.807   2.074 -1.4128  0.4495  1.8301
 1016MOL0     H37122   2.730   5.068   1.687 -0.5656 -2.0301  1.9877
 1016MOL0     H37123   2.930   5.182   1.640  0.9799  0.8492 -0.2930
 1016MOL0     H37124   2.969   5.640   1.746  0.9754  0.9532  1.2108
 1016MOL0     H37125   3.047   5.547   1.872  0.1425  0.7373  0.3926
 1016MOL0     H37126   3.230   5.520   1.727 -2.8405 -1.1005  3.9244
 1016MOL0     H37127   3.154   5.626   1.604 -1.9299  1.5295  0.6665
 1016MOL0     H37128   3.134   5.804   1.764 -0.6939 -0.1358  0.9431
 1016MOL0     H37129   3.222   5.703   1.883  1.2157 -2.2974 -0.7958
 1016MOL0     H37130   3.322   5.781   1.601  0.2227  0.2642 -0.5798
 1016MOL0     H37131   3.407   5.678   1.725  1.8428  0.4417 -0.6422
 1016MOL0     H37132   3.417   5.892   1.873  1.8993 -0.0246 -0.1918
 1016MOL0     H37133   3.337   5.976   1.744  0.6819  0.9286 -2.0683
 1016MOL0     H37134   3.594   5.820   1.731  0.4682  1.2258  0.5419
 1016MOL0     H37135   3.535   5.929   1.598 -0.8477 -0.7069  0.3816
 1016MOL0     H37136   3.565   6.036   1.877 -0.2475 -3.5836 -0.6362
 1016MOL0     H37137   3.525   6.118   1.718  1.7277  0.4035 -0.8247
 1016MOL0     H37138   3.744   6.086   1.647  3.0927  2.0615  0.3975
 1016MOL0     H37139   3.758   6.178   1.778 -1.7997  1.6600 -3.3828
 1016MOL0     H37140   2.816   5.512   1.885  0.1784  1.7678 -3.7388
 1016MOL0     H37141   2.616   5.370   1.955 -0.8673  1.3487 -1.9673
 1016MOL0     H37142   2.277   5.109   1.877 -0.4225 -1.7429 -1.7414
 1016MOL0     H37143   2.077   4.999   1.968  0.0329  0.6433  0.1366
 1016MOL0     H37144   1.557   3.707   1.416  3.5876  0.4476 -1.1238
 1016MOL0     H37145   1.356   3.539   1.407 -0.3678  1.0859 -1.1033
 1016MOL0     H37146   1.321   2.958   1.308 -0.1996  0.9231  0.4546
 1016MOL0     H37147   1.130   2.814   1.315  2.3210  0.4613 -0.4109
 1016MOL0     H37148   0.780   2.933   1.047  0.4460  1.0959  0.4962
 1016MOL0     H37149   0.719   2.789   1.119 -0.7697 -1.8646 -2.1817
 1016MOL0     H37150   0.955   2.790   0.946  0.0458  1.1730 -0.1486
 1016MOL0     H37151   0.801   2.744   0.887 -0.5832 -4.0478  0.1723
 1016MOL0     H37152   0.877   2.529   0.934  3.0274 -0.8999  2.0746
 1016MOL0     H37153   0.768   2.561   1.072 -0.3362  1.3288  0.2390
 1016MOL0     H37154   1.060   2.489   1.051  1.5032  2.2365 -1.0512
 1016MOL0     H37155   1.029   2.626   1.162 -1.5800 -0.3703  2.2448
 1016MOL0     H37156   0.851   2.346   1.394  3.4548 -1.4680  1.1658
 1016MOL0     H37157   0.909   3.085   1.050 -1.3890  0.5020  0.1763
 1016MOL0     H37158   0.978   3.293   1.017  0.0080  1.9199  1.9068
 1016MOL0     H37159   1.090   3.369   1.111 -1.2523 -0.8855  1.4028
 1016MOL0     H37160   1.155   3.298   0.963  0.6280  0.5354 -0.2121
 1017MOL0     O37161  10.137   2.887   0.124  0.4474 -0.9535  0.3436
 1017MOL0     C37162  10.122   2.973   0.210  1.0945  0.3377  0.9686
 1017MOL0     O37163  10.009   2.982   0.284 -0.0951 -0.1738 -0.3236
 1017MOL0     C37164   9.902   2.905   0.240  0.7604 -0.4347 -0.1895
 1017MOL0     C37165   9.837   2.799   0.310 -0.5118  0.0137 -0.2821
 1017MOL0     C37166   9.744   2.711   0.252  1.2208 -0.5071  0.4545
 1017MOL0     C37167   9.700   2.733   0.121  0.2109  0.8870 -0.2590
 1017MOL0     O37168   9.625   2.653   0.043 -0.5711 -0.0633 -0.4593
 1017MOL0     C37169   9.576   2.521   0.074  0.3895  0.3560  0.4144
 1017MOL0     C37170   9.657   2.411   0.006  0.6787 -0.1499 -0.5951
 1017MOL0     C37171   9.795   2.387   0.087  0.0591 -0.3575  0.2241
 1017MOL0     C37172   9.888   2.294   0.010  0.3458  1.2546  0.1819
 1017MOL0     C37173  10.036   2.312   0.054 -0.3691 -0.0421 -0.2076
 1017MOL0     C37174  10.116   2.190   0.016 -0.4562 -0.2530  0.0140
 1017MOL0     C37175  10.266   2.192   0.070  0.5203 -1.5698  0.2178
 1017MOL0     C37176  10.337   2.070   0.011 -0.5037 -0.5705  1.1926
 1017MOL0     N37177  10.476   2.082   0.049 -0.8796 -0.1302 -0.9533
 1017MOL0     C37178  10.565   2.180   0.043 -0.8665 -0.7295  0.0104
 1017MOL0     C37179  10.671   2.148   0.116 -0.0190  0.6894  0.8587
 1017MOL0     C37180  10.790   2.223   0.166  0.5184 -0.0950  0.1669
 1017MOL0     C37181  10.767   2.366   0.140  0.2711 -0.9403 -0.3669
 1017MOL0     C37182  10.872   2.468   0.189  0.2745  0.3831  0.4850
 1017MOL0     C37183  11.018   2.444   0.143  0.0515  0.5610 -0.8122
 1017MOL0     O37184  11.111   2.548   0.178 -0.1058 -0.4994 -0.4406
 1017MOL0     C37185  11.233   2.541   0.112 -0.1835  0.0756 -0.2929
 1017MOL0     C37186  11.294   2.422   0.065  0.0772  1.5925 -0.0303
 1017MOL0     C37187  11.417   2.429  -0.007  0.7359 -0.7892  0.2351
 1017MOL0     C37188  11.479   2.559  -0.025  0.2836 -0.2570  0.0875
 1017MOL0     C37189  11.611   2.571  -0.103 -1.1609  0.0262  0.1641
 1017MOL0     O37190  11.634   2.702  -0.138 -1.0244  0.8927  0.4052
 1017MOL0     C37191  11.743   2.721  -0.223  0.3981  0.1987  0.0736
 1017MOL0     C37192  11.864   2.782  -0.188 -0.3854 -0.2125 -0.7482
 1017MOL0     C37193  11.980   2.769  -0.262  0.3332 -0.6976  0.0045
 1017MOL0     C37194  11.964   2.726  -0.400 -0.2037 -0.2370  0.0756
 1017MOL0     O37195  12.066   2.727  -0.494  0.4179  0.3151  0.6347
 1017MOL0     C37196  12.139   2.851  -0.494  0.1857 -0.8163 -0.2991
 1017MOL0     C37197  12.241   2.844  -0.609 -0.6871  0.2108 -0.8074
 1017MOL0     C37198  12.345   2.735  -0.567  0.6879 -0.9981 -1.1427
 1017MOL0     C37199  12.479   2.740  -0.657 -0.5105 -0.2206  0.1710
 1017MOL0     C37200  12.584   2.625  -0.638  0.6917 -0.0862 -1.0087
 1017MOL0     C37201  12.675   2.613  -0.757 -0.0574 -0.1750  0.5334
 1017MOL0     C37202  12.770   2.499  -0.762  0.5952 -0.2077 -0.5036
 1017MOL0     C37203  12.825   2.484  -0.898 -0.0797  1.2443  1.2460
 1017MOL0    Cl37204  12.710   2.456  -1.037  0.0510 -0.1891  0.2007
 1017MOL0     C37205  11.843   2.672  -0.449  0.7863 -0.0662 -0.9589
 1017MOL0     C37206  11.735   2.668  -0.355 -0.6369  1.0582  0.1879
 1017MOL0     O37207  11.670   2.470  -0.137 -0.6979  0.5930  0.4573
 1017MOL0     C37208  11.413   2.679   0.024  0.5592  1.2420  0.6779
 1017MOL0     C37209  11.288   2.662   0.088 -0.0905 -0.3427  0.4006
 1017MOL0     N37210  10.642   2.023   0.164 -0.3038  0.3626  0.1324
 1017MOL0     N37211  10.539   1.977   0.110  0.3542 -0.6077  0.0368
 1017MOL0     C37212   9.749   2.851   0.060  0.5736  0.1672 -0.1860
 1017MOL0     C37213   9.850   2.933   0.115 -0.6029  0.4379  0.4775
 1017MOL0     C37214  10.230   3.070   0.243  0.1985 -0.5825 -0.1218
 1017MOL0     C37215  10.366   3.039   0.197  0.0456  0.1843 -0.4142
 1017MOL0     C37216  10.473   3.119   0.242  0.1187  0.2927 -0.7769
 1017MOL0     C37217  10.455   3.228   0.322 -0.6854 -0.3007 -0.2570
 1017MOL0     O37218  10.556   3.287   0.393  0.1322 -0.3164  0.1028
 1017MOL0     C37219  10.532   3.396   0.485  0.1490  0.2359  0.4892
 1017MOL0     C37220  10.538   3.528   0.410 -0.2804 -0.0912  0.2846
 1017MOL0     C37221  10.513   3.652   0.503  0.1476  0.7635  0.1732
 1017MOL0     C37222  10.375   3.669   0.580 -0.5743  1.5329 -1.1110
 1017MOL0     C37223  10.272   3.712   0.497  0.6247 -0.0586  0.5188
 1017MOL0     C37224  10.186   3.757   0.425 -0.5663 -0.1864  0.2705
 1017MOL0     C37225  10.321   3.274   0.341  0.5622 -1.0593 -0.3086
 1017MOL0     C37226  10.208   3.198   0.309  0.1626  0.1260  0.3443
 1017MOL0     C37227  10.076   3.271   0.325 -0.8041  1.0848  0.5115
 1017MOL0     H37228   9.872   2.783   0.412  0.7216  2.8383 -0.1815
 1017MOL0     H37229   9.727   2.620   0.308 -3.2008  0.5537  1.2042
 1017MOL0     H37230   9.568   2.496   0.180 -4.3114 -1.4268 -0.1113
 1017MOL0     H37231   9.477   2.523   0.026 -0.3504 -3.0100  1.5334
 1017MOL0     H37232   9.665   2.439  -0.099 -2.1463 -1.2493 -1.2139
 1017MOL0     H37233   9.603   2.315   0.006  0.6956 -0.1994  1.2673
 1017MOL0     H37234   9.772   2.332   0.178  2.1749 -0.8824  0.5096
 1017MOL0     H37235   9.844   2.484   0.098 -1.0830  0.2010  0.4546
 1017MOL0     H37236   9.844   2.195   0.020 -2.0652  2.4041  1.8934
 1017MOL0     H37237   9.880   2.316  -0.097 -2.3403  1.9738  0.4697
 1017MOL0     H37238  10.083   2.407   0.027 -1.3879  0.3585 -0.6245
 1017MOL0     H37239  10.042   2.307   0.164  2.5680 -0.7167 -0.2960
 1017MOL0     H37240  10.060   2.104   0.052 -3.4282  1.6426  0.2631
 1017MOL0     H37241  10.114   2.189  -0.093  0.4601  2.2089 -0.0958
 1017MOL0     H37242  10.266   2.193   0.179 -0.2933 -0.8241  0.2281
 1017MOL0     H37243  10.316   2.280   0.029 -0.0939  0.1207  2.8582
 1017MOL0     H37244  10.294   1.975   0.045  0.7974 -0.4315  3.4417
 1017MOL0     H37245  10.322   2.083  -0.097  0.4788 -0.8034  1.0122
 1017MOL0     H37246  10.541   2.279   0.006 -4.2661 -1.9555 -1.4534
 1017MOL0     H37247  10.817   2.211   0.271 -0.0022  1.6543  0.5472
 1017MOL0     H37248  10.873   2.185   0.106 -1.2608 -2.2876 -1.0711
 1017MOL0     H37249  10.741   2.378   0.035  0.1865  2.6546 -0.0500
 1017MOL0     H37250  10.679   2.404   0.192  0.6035  1.0623 -1.1499
 1017MOL0     H37251  10.872   2.476   0.298  1.8072 -1.5382  0.6663
 1017MOL0     H37252  10.846   2.566   0.149  2.0191  1.1708  1.2117
 1017MOL0     H37253  11.008   2.441   0.034 -0.6125  2.6790 -0.8514
 1017MOL0     H37254  11.047   2.342   0.173 -4.5256 -0.4154  1.1792
 1017MOL0     H37255  11.258   2.323   0.090 -0.8650  1.4520 -1.7990
 1017MOL0     H37256  11.465   2.331  -0.016 -2.0954 -2.4007  1.4472
 1017MOL0     H37257  11.867   2.828  -0.090 -2.4068 -0.8012 -0.3643
 1017MOL0     H37258  12.074   2.798  -0.218  1.1385 -2.3530 -0.5464
 1017MOL0     H37259  12.068   2.933  -0.507  0.8958  0.0329  0.9459
 1017MOL0     H37260  12.185   2.877  -0.398  0.8586 -1.5021 -0.4286
 1017MOL0     H37261  12.208   2.839  -0.713  0.6658 -3.2297 -1.2089
 1017MOL0     H37262  12.291   2.941  -0.605  0.3174 -0.2578 -1.6803
 1017MOL0     H37263  12.364   2.741  -0.460  0.0565 -0.5439 -1.0499
 1017MOL0     H37264  12.286   2.645  -0.586 -2.5170  0.4678  0.8783
 1017MOL0     H37265  12.534   2.833  -0.638 -1.3778  0.7346 -1.6728
 1017MOL0     H37266  12.452   2.746  -0.763  2.0627  3.2352 -0.4848
 1017MOL0     H37267  12.528   2.532  -0.629 -0.1973  0.4206 -1.1946
 1017MOL0     H37268  12.645   2.654  -0.552  1.1417 -3.0176 -0.2229
 1017MOL0     H37269  12.616   2.624  -0.848  0.5819 -1.5995 -0.0783
 1017MOL0     H37270  12.732   2.706  -0.755  0.3590 -0.3012 -2.1863
 1017MOL0     H37271  12.719   2.405  -0.739  0.4271  0.1807  0.8045
 1017MOL0     H37272  12.840   2.513  -0.678  0.4877 -0.1409 -0.4239
 1017MOL0     H37273  12.875   2.577  -0.926  1.0679  0.1484 -0.5135
 1017MOL0     H37274  12.895   2.400  -0.901 -0.0173  1.2675 -2.4474
 1017MOL0     H37275  11.857   2.645  -0.554 -0.0248  2.6637 -1.8648
 1017MOL0     H37276  11.648   2.614  -0.388  0.6000 -0.0177 -1.4683
 1017MOL0     H37277  11.467   2.769  -0.002  0.2839  0.3756 -3.7984
 1017MOL0     H37278  11.248   2.760   0.114 -0.5485  0.1247 -1.9038
 1017MOL0     H37279   9.718   2.861  -0.043  4.0088 -2.4962 -1.6925
 1017MOL0     H37280   9.900   3.019   0.073 -0.2197  0.3241  0.7001
 1017MOL0     H37281  10.386   2.950   0.139 -3.3544 -0.3179 -1.0518
 1017MOL0     H37282  10.572   3.082   0.218  0.0815 -2.6261  2.7237
 1017MOL0     H37283  10.613   3.384   0.557 -1.4165  0.5586  2.3738
 1017MOL0     H37284  10.439   3.375   0.538 -1.0405 -1.1986 -1.9855
 1017MOL0     H37285  10.469   3.537   0.326 -2.2744  0.8161  1.9152
 1017MOL0     H37286  10.642   3.542   0.379 -0.3447 -1.6222 -0.7046
 1017MOL0     H37287  10.536   3.745   0.451 -1.1724  1.1752  0.2978
 1017MOL0     H37288  10.583   3.631   0.585  1.3973  1.6239 -0.6458
 1017MOL0     H37289  10.357   3.578   0.639  0.5614  0.9292 -1.6701
 1017MOL0     H37290  10.388   3.752   0.650  1.0636 -0.7731  1.5078
 1017MOL0     H37291  10.109   3.799   0.363  2.3347  4.4544 -0.7078
 1017MOL0     H37292  10.309   3.364   0.400  1.4973 -0.0047 -1.6844
 1017MOL0     H37293  10.021   3.241   0.415 -0.1539  1.7761  1.1505
 1017MOL0     H37294  10.085   3.380   0.325  0.9250  0.9798  0.9489
 1017MOL0     H37295  10.016   3.256   0.235 -0.5287  0.4074  0.4323
 1018MOL0     O37296   7.276   3.456   1.478 -0.3192 -0.6197  0.4033
 1018MOL0     C37297   7.248   3.473   1.595 -0.1234 -0.5824  0.0039
 1018MOL0     O37298   7.229   3.374   1.688  0.6171  0.2885  0.0522
 1018MOL0     C37299   7.209   3.247   1.638  0.8720 -1.0957 -0.7069
 1018MOL0     C37300   7.289   3.183   1.544 -0.1682  1.5489 -0.1692
 1018MOL0     C37301   7.257   3.058   1.499 -0.1856  0.5947  0.9308
 1018MOL0     C37302   7.142   2.995   1.532  0.5311  0.2218 -0.4486
 1018MOL0     O37303   7.131   2.866   1.500  0.0329  0.2504  0.5022
 1018MOL0     C37304   6.994   2.822   1.475  0.6262  0.1897  0.5967
 1018MOL0     C37305   6.934   2.755   1.597 -0.1692 -0.2151  0.3114
 1018MOL0     C37306   6.776   2.757   1.581 -0.7172 -0.7074 -0.1609
 1018MOL0     C37307   6.709   2.750   1.717 -0.3053  0.1103  0.4641
 1018MOL0     C37308   6.556   2.752   1.678 -1.0340 -0.1058 -0.2852
 1018MOL0     C37309   6.473   2.749   1.803 -0.4229 -0.0574  0.0370
 1018MOL0     C37310   6.480   2.886   1.874  0.0734 -0.2499  0.4481
 1018MOL0     C37311   6.362   2.898   1.971 -0.1435  0.0161 -0.0131
 1018MOL0     N37312   6.365   3.023   2.039 -0.3488 -0.9307  0.0213
 1018MOL0     C37313   6.463   3.127   2.044  0.9926  0.1729 -0.3724
 1018MOL0     C37314   6.415   3.212   2.145  0.6759 -0.5283  1.1954
 1018MOL0     C37315   6.479   3.340   2.179  0.7989  0.1908 -0.6880
 1018MOL0     C37316   6.501   3.431   2.050 -0.5454  0.9225 -0.1262
 1018MOL0     C37317   6.602   3.540   2.099  0.4876  0.5238 -0.2068
 1018MOL0     C37318   6.655   3.629   1.976  0.1312 -0.2170  0.2209
 1018MOL0     O37319   6.759   3.569   1.886 -0.0697  0.3442 -0.2848
 1018MOL0     C37320   6.890   3.587   1.916  0.1685 -0.1479 -0.1453
 1018MOL0     C37321   6.950   3.719   1.892 -0.8392  0.2561  0.0410
 1018MOL0     C37322   7.073   3.743   1.958  0.3855 -0.7661  0.1418
 1018MOL0     C37323   7.158   3.641   2.004 -0.3206 -0.5869  0.3183
 1018MOL0     C37324   7.284   3.661   2.073 -0.8364  0.0185 -0.4038
 1018MOL0     O37325   7.373   3.555   2.090  0.9660  0.0794 -0.0082
 1018MOL0     C37326   7.484   3.549   2.172 -0.1152 -0.0269 -0.2958
 1018MOL0     C37327   7.540   3.652   2.246  0.1396  0.5029 -0.6764
 1018MOL0     C37328   7.650   3.633   2.331 -1.1778  0.0920  0.1847
 1018MOL0     C37329   7.703   3.505   2.351 -0.1804 -0.2331 -1.2236
 1018MOL0     O37330   7.805   3.480   2.437  0.2635  0.0668 -0.6478
 1018MOL0     C37331   7.804   3.556   2.556  0.0053 -0.0574  0.4100
 1018MOL0     C37332   7.900   3.485   2.658 -1.0878 -0.2341 -0.2356
 1018MOL0     C37333   8.047   3.466   2.604  0.1101 -0.5406 -0.1886
 1018MOL0     C37334   8.144   3.411   2.716  0.1612 -0.0108 -0.7795
 1018MOL0     C37335   8.131   3.259   2.749  0.0099  0.2736 -0.9617
 1018MOL0     C37336   8.154   3.168   2.637 -0.1688  1.0573 -0.0265
 1018MOL0     C37337   8.141   3.030   2.688 -0.2277  1.0176  0.0732
 1018MOL0     C37338   8.189   2.938   2.578  0.1982 -0.4415 -0.6151
 1018MOL0    Cl37339   8.080   2.941   2.439 -0.2490  0.1382 -0.4067
 1018MOL0     C37340   7.647   3.393   2.279  0.0035 -0.9002 -0.5073
 1018MOL0     C37341   7.535   3.417   2.195  0.6530  0.5850 -0.1387
 1018MOL0     O37342   7.308   3.774   2.111  0.0363  0.4192 -0.5547
 1018MOL0     C37343   7.103   3.510   2.004 -0.1228 -0.2619  0.6768
 1018MOL0     C37344   6.972   3.484   1.957  0.6741 -0.2844  0.2239
 1018MOL0     N37345   6.289   3.182   2.173  0.7924 -0.1153  0.1405
 1018MOL0     N37346   6.263   3.072   2.109 -0.0113 -0.6784 -0.1114
 1018MOL0     C37347   7.055   3.059   1.631  0.8203  0.6205  0.9378
 1018MOL0     C37348   7.094   3.188   1.683  0.6413  0.1694 -0.6507
 1018MOL0     C37349   7.264   3.611   1.634 -0.4628 -0.1951 -0.3218
 1018MOL0     C37350   7.156   3.698   1.609  0.5113 -0.8695  0.4323
 1018MOL0     C37351   7.171   3.839   1.632 -0.7251  1.2399 -0.5035
 1018MOL0     C37352   7.293   3.890   1.673  0.9858 -0.2073 -0.3836
 1018MOL0     O37353   7.286   4.031   1.673 -0.0976  0.0644  0.3711
 1018MOL0     C37354   7.400   4.104   1.729 -0.4480 -0.2825 -0.1925
 1018MOL0     C37355   7.376   4.110   1.882 -0.2218  0.1753  0.6906
 1018MOL0     C37356   7.257   4.200   1.909 -0.4486  0.0652 -0.1435
 1018MOL0     C37357   7.259   4.249   2.057  0.1254  0.0808 -0.8505
 1018MOL0     C37358   7.126   4.311   2.070  1.0916  0.7554 -0.4367
 1018MOL0     C37359   7.016   4.363   2.085  0.6727  0.1518  0.2174
 1018MOL0     C37360   7.391   3.800   1.713  0.3690  0.1139  0.0443
 1018MOL0     C37361   7.385   3.664   1.685 -0.8115  0.0530  0.5783
 1018MOL0     C37362   7.500   3.579   1.709  0.9586 -0.6645  0.1109
 1018MOL0     H37363   7.390   3.217   1.524 -0.8847  2.5375 -2.4562
 1018MOL0     H37364   7.327   3.018   1.426 -0.2507  0.8912  0.7047
 1018MOL0     H37365   6.940   2.916   1.462  3.3361  2.4474  3.7500
 1018MOL0     H37366   6.987   2.752   1.392 -0.0828  0.1131  0.7164
 1018MOL0     H37367   6.978   2.793   1.690 -2.2193 -2.1282  2.1816
 1018MOL0     H37368   6.959   2.651   1.576 -2.4208 -0.6037 -0.7902
 1018MOL0     H37369   6.735   2.684   1.510  1.9058 -1.0805 -1.3960
 1018MOL0     H37370   6.741   2.858   1.555 -0.1050 -0.6313 -0.7253
 1018MOL0     H37371   6.741   2.655   1.762  2.1344  0.9841  0.7247
 1018MOL0     H37372   6.739   2.836   1.776 -1.8180  0.5070  0.6831
 1018MOL0     H37373   6.541   2.840   1.613  3.7234  2.2398  1.3192
 1018MOL0     H37374   6.535   2.656   1.629 -3.0814  0.0615  0.2115
 1018MOL0     H37375   6.369   2.726   1.776 -0.1694 -0.3681 -0.7132
 1018MOL0     H37376   6.497   2.660   1.863 -2.1090 -1.8840 -1.8289
 1018MOL0     H37377   6.480   2.968   1.802 -2.7091 -1.1590 -0.7439
 1018MOL0     H37378   6.571   2.891   1.934  2.0067 -0.3014 -2.3148
 1018MOL0     H37379   6.266   2.890   1.918  0.1355 -1.0636 -0.3836
 1018MOL0     H37380   6.335   2.826   2.048 -2.5378  1.3134  0.4875
 1018MOL0     H37381   6.554   3.131   1.985  0.8291  2.3484 -0.5451
 1018MOL0     H37382   6.418   3.395   2.251 -0.1315  0.7632 -1.8708
 1018MOL0     H37383   6.572   3.307   2.227  0.2870 -0.3679 -0.0674
 1018MOL0     H37384   6.544   3.375   1.966 -0.5898 -0.3715  0.6850
 1018MOL0     H37385   6.410   3.471   2.005 -3.1643 -2.1747  1.9411
 1018MOL0     H37386   6.685   3.511   2.165 -1.0978 -1.4068  1.0566
 1018MOL0     H37387   6.550   3.624   2.145  3.4095  2.3531  0.0591
 1018MOL0     H37388   6.695   3.721   2.021  1.5473 -1.2042  1.0625
 1018MOL0     H37389   6.568   3.651   1.913  0.2234  1.4452  0.6148
 1018MOL0     H37390   6.886   3.787   1.838 -2.8915 -0.9608  0.8000
 1018MOL0     H37391   7.098   3.847   1.943 -1.1238 -0.2929  0.7131
 1018MOL0     H37392   7.512   3.755   2.230 -1.2150  0.8988  3.0832
 1018MOL0     H37393   7.693   3.715   2.388  2.8421 -2.0560  0.5961
 1018MOL0     H37394   7.852   3.652   2.532  0.0754  0.0349  0.9015
 1018MOL0     H37395   7.707   3.566   2.604 -0.4867 -1.4768 -0.2313
 1018MOL0     H37396   7.898   3.549   2.747 -5.4992  0.8451 -0.8600
 1018MOL0     H37397   7.862   3.386   2.687 -0.2455 -1.1706 -2.1460
 1018MOL0     H37398   8.030   3.393   2.524  0.2404 -1.4614  0.5925
 1018MOL0     H37399   8.074   3.558   2.554 -0.0869 -0.0680  0.5544
 1018MOL0     H37400   8.135   3.466   2.810  3.6228 -0.6609  0.0533
 1018MOL0     H37401   8.248   3.429   2.688  0.2652  0.3346 -0.2002
 1018MOL0     H37402   8.030   3.236   2.781 -0.1602  0.8575 -1.0661
 1018MOL0     H37403   8.195   3.236   2.835  3.3779  0.0734 -3.3035
 1018MOL0     H37404   8.095   3.169   2.545  2.7339 -0.1469 -2.0543
 1018MOL0     H37405   8.258   3.184   2.606  0.8805 -2.3616  1.2965
 1018MOL0     H37406   8.039   3.002   2.716  0.8469 -2.4408  1.1246
 1018MOL0     H37407   8.196   3.023   2.782 -0.2232  0.0976  0.0189
 1018MOL0     H37408   8.285   2.971   2.538 -1.5205  3.0708 -2.2243
 1018MOL0     H37409   8.202   2.835   2.614  1.1884 -0.2063 -0.2688
 1018MOL0     H37410   7.701   3.303   2.304  0.8021 -0.1467  0.5498
 1018MOL0     H37411   7.505   3.325   2.144  1.4365 -0.5903  1.4494
 1018MOL0     H37412   7.164   3.425   2.034  0.7640  0.6637  1.5779
 1018MOL0     H37413   6.938   3.385   1.985 -1.2940  0.6675  1.3438
 1018MOL0     H37414   6.967   3.005   1.664  0.5598 -1.6131 -2.8769
 1018MOL0     H37415   7.028   3.240   1.751 -0.5606 -0.5070 -1.2755
 1018MOL0     H37416   7.066   3.641   1.589  0.1535 -1.5755  3.6035
 1018MOL0     H37417   7.087   3.908   1.627  0.4953  2.7294 -1.3018
 1018MOL0     H37418   7.388   4.197   1.673 -0.2734 -0.2793 -0.2245
 1018MOL0     H37419   7.498   4.067   1.700 -0.9793 -1.3498 -0.7045
 1018MOL0     H37420   7.467   4.164   1.910 -0.6964  1.8989 -0.9154
 1018MOL0     H37421   7.378   4.008   1.922  1.6488 -0.1200 -0.0315
 1018MOL0     H37422   7.169   4.136   1.892  0.5538 -1.5441  0.5181
 1018MOL0     H37423   7.261   4.290   1.848  1.0094  2.2520  2.8943
 1018MOL0     H37424   7.271   4.162   2.121  2.2333  1.4742  0.8152
 1018MOL0     H37425   7.338   4.324   2.073  1.8122 -1.8387  0.2954
 1018MOL0     H37426   6.918   4.406   2.077  1.2470  1.2638 -1.4297
 1018MOL0     H37427   7.488   3.830   1.751  1.9973 -0.7349 -3.0431
 1018MOL0     H37428   7.499   3.511   1.624  0.4816  0.8231 -1.1117
 1018MOL0     H37429   7.588   3.643   1.717 -1.0364  2.5034 -1.2368
 1018MOL0     H37430   7.466   3.523   1.797 -4.3628 -1.7020 -2.1957
 1019MOL0     O37431   6.394  10.612   4.445 -0.3172 -0.4577 -0.4856
 1019MOL0     C37432   6.290  10.663   4.433  0.4025  0.2946 -0.8192
 1019MOL0     O37433   6.241  10.761   4.524 -0.6992 -0.6857  0.3892
 1019MOL0     C37434   6.331  10.825   4.608  0.7847 -0.3283  0.0908
 1019MOL0     C37435   6.325  10.799   4.747 -0.1541  0.7743  0.1668
 1019MOL0     C37436   6.404  10.870   4.845 -0.0277 -0.0797  0.4158
 1019MOL0     C37437   6.499  10.965   4.800 -0.7019 -0.7909 -0.5520
 1019MOL0     O37438   6.558  11.045   4.901 -0.4899  0.2854  0.6008
 1019MOL0     C37439   6.668  11.126   4.861  0.0332 -0.6306 -0.5738
 1019MOL0     C37440   6.741  11.156   4.987  0.9347 -0.6539 -0.3727
 1019MOL0     C37441   6.777  11.031   5.059 -0.1114 -0.2309 -0.3595
 1019MOL0     C37442   6.872  11.075   5.178 -0.3414  0.3430 -0.4124
 1019MOL0     C37443   6.954  10.954   5.242 -0.0657  0.7219 -0.9996
 1019MOL0     C37444   7.092  11.004   5.277  0.2250  0.7452  0.5226
 1019MOL0     C37445   7.177  10.908   5.350 -0.1151  0.2736 -0.5930
 1019MOL0     C37446   7.216  10.788   5.264 -0.1750  0.1042  0.4610
 1019MOL0     N37447   7.246  10.660   5.335  0.7391  0.5010  0.7058
 1019MOL0     C37448   7.234  10.532   5.301  0.0402  1.1365  0.6894
 1019MOL0     C37449   7.284  10.459   5.405 -0.5253  1.5989 -1.1515
 1019MOL0     C37450   7.269  10.303   5.415 -0.6153 -0.1003  0.2639
 1019MOL0     C37451   7.330  10.236   5.281 -0.1400 -0.6307  0.4666
 1019MOL0     C37452   7.352  10.090   5.295  0.0927 -0.1036 -0.4449
 1019MOL0     C37453   7.232  10.013   5.237  0.1916  0.6639  0.2798
 1019MOL0     O37454   7.278   9.876   5.228  0.1829 -0.0448  1.0932
 1019MOL0     C37455   7.184   9.778   5.188  0.0493  0.7346  0.0742
 1019MOL0     C37456   7.046   9.799   5.158  0.0543  0.6790  0.6576
 1019MOL0     C37457   6.954   9.689   5.139  0.3658 -0.0088  0.0128
 1019MOL0     C37458   7.001   9.558   5.145  0.2479  0.3505  0.0355
 1019MOL0     C37459   6.910   9.441   5.131  1.2573  0.7687  0.8231
 1019MOL0     O37460   6.965   9.313   5.141 -0.7040  0.1134 -0.1883
 1019MOL0     C37461   6.880   9.208   5.144  0.1562 -0.1210  1.2437
 1019MOL0     C37462   6.851   9.152   5.268  0.2617  1.2123 -0.1005
 1019MOL0     C37463   6.768   9.046   5.266 -0.1175  0.1227 -0.3570
 1019MOL0     C37464   6.717   8.992   5.152 -0.1299  0.4512  0.0907
 1019MOL0     O37465   6.642   8.878   5.172  0.4327 -0.1655  0.1514
 1019MOL0     C37466   6.714   8.764   5.125  0.3123 -0.7878  0.4372
 1019MOL0     C37467   6.795   8.704   5.233 -0.2905 -0.6935 -0.0273
 1019MOL0     C37468   6.707   8.668   5.357 -0.9704  0.1731 -0.9248
 1019MOL0     C37469   6.594   8.558   5.333  0.9719  0.1908 -0.0377
 1019MOL0     C37470   6.532   8.483   5.461 -0.1282  0.3271  1.1360
 1019MOL0     C37471   6.438   8.377   5.414  0.0496  0.2642 -0.1341
 1019MOL0     C37472   6.361   8.322   5.532  0.9944 -0.3719 -0.6823
 1019MOL0     C37473   6.332   8.177   5.529  0.1845  0.5919 -1.0367
 1019MOL0    Cl37474   6.244   8.155   5.368 -0.1881 -0.2942  0.0496
 1019MOL0     C37475   6.745   9.049   5.030 -0.1082  0.3067 -0.1692
 1019MOL0     C37476   6.828   9.161   5.022  0.2735  0.1999  0.3380
 1019MOL0     O37477   6.782   9.458   5.108 -0.4750 -0.7641  0.4157
 1019MOL0     C37478   7.131   9.542   5.184  0.5722 -0.3061  0.4405
 1019MOL0     C37479   7.219   9.646   5.203 -0.1388 -0.9062 -1.1063
 1019MOL0     N37480   7.322  10.545   5.504 -0.4362 -0.3644  0.3437
 1019MOL0     N37481   7.296  10.661   5.457 -0.1143 -0.5553 -0.2217
 1019MOL0     C37482   6.513  10.986   4.660  0.3338 -0.0724 -0.1473
 1019MOL0     C37483   6.428  10.916   4.567  0.0720  0.1831 -0.6793
 1019MOL0     C37484   6.206  10.594   4.331  0.7849 -0.2825 -0.0628
 1019MOL0     C37485   6.066  10.629   4.350  0.5034  0.7618  0.1572
 1019MOL0     C37486   5.963  10.574   4.275 -0.4643  0.3527  0.6012
 1019MOL0     C37487   6.005  10.492   4.171 -0.2111 -0.6780  0.8140
 1019MOL0     O37488   5.907  10.427   4.102  0.0174 -0.0185  0.6043
 1019MOL0     C37489   5.938  10.319   4.009  0.3117 -0.4369 -0.4091
 1019MOL0     C37490   5.956  10.187   4.091  0.0309 -1.2384 -0.3745
 1019MOL0     C37491   5.827  10.160   4.178  0.4665  0.3426  0.6110
 1019MOL0     C37492   5.827  10.020   4.252  0.2346  0.3675 -0.2226
 1019MOL0     C37493   5.693   9.993   4.291 -0.1180 -0.1271 -0.1969
 1019MOL0     C37494   5.585   9.967   4.349  0.4936 -0.9736 -0.2266
 1019MOL0     C37495   6.141  10.464   4.148 -0.7656  0.3954  0.5489
 1019MOL0     C37496   6.242  10.510   4.226  0.0496  0.0053 -0.1719
 1019MOL0     C37497   6.392  10.488   4.191  0.8918 -0.0411 -0.3225
 1019MOL0     H37498   6.248  10.727   4.772  0.6408 -0.5843 -1.1346
 1019MOL0     H37499   6.387  10.837   4.947  1.4580 -1.6798  0.2099
 1019MOL0     H37500   6.737  11.067   4.800  1.1531 -1.2985  1.2574
 1019MOL0     H37501   6.628  11.208   4.800 -1.4880  0.9224  2.3380
 1019MOL0     H37502   6.678  11.222   5.047 -1.1530 -0.4901 -2.6016
 1019MOL0     H37503   6.822  11.222   4.953 -1.1214  0.8323 -2.8244
 1019MOL0     H37504   6.821  10.958   4.991  1.6831 -1.1296  1.6572
 1019MOL0     H37505   6.686  10.989   5.103  0.8961 -0.7678  1.3052
 1019MOL0     H37506   6.944  11.149   5.143  1.9738 -1.9105 -0.7569
 1019MOL0     H37507   6.808  11.126   5.250 -1.7357 -1.0534 -0.5915
 1019MOL0     H37508   6.896  10.930   5.331  0.0049  2.0015 -0.5847
 1019MOL0     H37509   6.966  10.871   5.172  1.5190  1.2768 -1.4345
 1019MOL0     H37510   7.136  11.024   5.178  2.4924  0.7348  1.4658
 1019MOL0     H37511   7.087  11.096   5.336  2.8699  2.4360 -1.6418
 1019MOL0     H37512   7.140  10.881   5.449  2.9600  2.5526  1.3422
 1019MOL0     H37513   7.268  10.966   5.370 -0.1595 -0.0396  0.5674
 1019MOL0     H37514   7.142  10.754   5.190 -0.2325 -0.1486  0.6334
 1019MOL0     H37515   7.306  10.810   5.205 -1.0244  1.1784 -0.4931
 1019MOL0     H37516   7.195  10.492   5.208  0.9666 -0.9644  1.1548
 1019MOL0     H37517   7.335  10.277   5.498 -3.9636  0.7545  3.4516
 1019MOL0     H37518   7.164  10.284   5.437 -0.6102  1.2136  1.5755
 1019MOL0     H37519   7.287  10.279   5.190  0.6136 -2.7997 -1.0055
 1019MOL0     H37520   7.433  10.271   5.289 -0.2791 -0.4859  1.8870
 1019MOL0     H37521   7.386  10.044   5.389  0.5207 -2.6499 -1.7572
 1019MOL0     H37522   7.428  10.057   5.223  1.3863 -1.0361  1.2617
 1019MOL0     H37523   7.201  10.051   5.139  1.3453  0.4068 -0.2010
 1019MOL0     H37524   7.148  10.018   5.307  2.4419  2.5133  3.1325
 1019MOL0     H37525   7.005   9.899   5.143 -0.5905  0.0334 -2.7102
 1019MOL0     H37526   6.847   9.709   5.137 -0.2000 -1.7319  3.6900
 1019MOL0     H37527   6.873   9.197   5.365 -0.1547  2.5060 -0.5813
 1019MOL0     H37528   6.732   8.990   5.351 -0.6818 -0.4185 -0.9435
 1019MOL0     H37529   6.642   8.691   5.086  0.9439 -0.2122 -1.9798
 1019MOL0     H37530   6.781   8.787   5.042 -0.3617  0.9135  0.3262
 1019MOL0     H37531   6.864   8.627   5.198 -0.2415 -0.1454 -1.2130
 1019MOL0     H37532   6.863   8.785   5.262 -0.1911 -0.7375 -0.1398
 1019MOL0     H37533   6.788   8.630   5.421 -2.7594 -1.8086  0.2697
 1019MOL0     H37534   6.656   8.758   5.392 -1.9208 -0.0387 -1.7454
 1019MOL0     H37535   6.630   8.485   5.261 -0.4609 -1.5334  0.9177
 1019MOL0     H37536   6.508   8.612   5.292  0.1077  0.1571  1.6041
 1019MOL0     H37537   6.485   8.556   5.528  0.5072  0.8115  1.0595
 1019MOL0     H37538   6.613   8.434   5.514 -1.1882 -3.2058 -0.2240
 1019MOL0     H37539   6.368   8.410   5.337  1.8690 -0.9063 -2.4090
 1019MOL0     H37540   6.491   8.290   5.373 -5.1315 -2.4291 -2.0236
 1019MOL0     H37541   6.271   8.377   5.561  1.5526 -1.7696  5.0459
 1019MOL0     H37542   6.424   8.332   5.621 -2.3982 -0.1336  1.8857
 1019MOL0     H37543   6.427   8.126   5.515  0.7246  1.7119 -1.6523
 1019MOL0     H37544   6.264   8.140   5.605 -2.6027  2.8491 -2.2193
 1019MOL0     H37545   6.696   8.997   4.948 -3.7534  2.2324  0.5848
 1019MOL0     H37546   6.856   9.200   4.924 -0.4411 -1.2623 -0.4881
 1019MOL0     H37547   7.173   9.442   5.193  0.4375 -0.5005 -0.9225
 1019MOL0     H37548   7.323   9.622   5.223 -0.3895  0.0637  1.9017
 1019MOL0     H37549   6.583  11.056   4.616  1.1035 -2.1684 -2.4952
 1019MOL0     H37550   6.438  10.927   4.459  0.2360 -1.8754 -0.9173
 1019MOL0     H37551   6.021  10.688   4.429 -2.5557 -1.1149 -0.0380
 1019MOL0     H37552   5.859  10.596   4.297 -0.8416 -0.2941 -0.4872
 1019MOL0     H37553   6.021  10.353   3.946 -1.8641  3.9943 -1.2462
 1019MOL0     H37554   5.849  10.314   3.946  0.5905 -0.7233 -0.7886
 1019MOL0     H37555   6.052  10.186   4.143  0.9532 -0.3910 -1.9850
 1019MOL0     H37556   5.960  10.111   4.012 -0.1858 -1.0405 -0.5761
 1019MOL0     H37557   5.733  10.153   4.121 -0.4743 -2.8398  2.2740
 1019MOL0     H37558   5.813  10.243   4.247  1.7837 -0.3005  1.6933
 1019MOL0     H37559   5.853   9.943   4.179 -0.5948 -2.0265  1.8866
 1019MOL0     H37560   5.888  10.018   4.343  0.6265 -1.5884 -0.4872
 1019MOL0     H37561   5.496   9.952   4.408 -0.5970 -1.0118 -1.8139
 1019MOL0     H37562   6.169  10.392   4.071 -1.8194  3.0072 -2.5277
 1019MOL0     H37563   6.392  10.485   4.081  0.9969  2.5991 -0.4476
 1019MOL0     H37564   6.456  10.575   4.206 -2.8151  3.1463 -1.1351
 1019MOL0     H37565   6.426  10.390   4.227  2.2572  0.1982 -0.8956
 1020MOL0     O37566   2.007   4.790   6.817 -0.9141  0.9926 -1.5765
 1020MOL0     C37567   2.058   4.803   6.706  0.0694 -1.2213  0.2305
 1020MOL0     O37568   2.016   4.736   6.593 -0.9230  0.1639  0.3350
 1020MOL0     C37569   1.922   4.633   6.612  0.5095 -0.3181  1.5515
 1020MOL0     C37570   1.938   4.517   6.532 -0.0619 -0.6727  0.9628
 1020MOL0     C37571   1.842   4.414   6.517 -0.6173 -0.1865 -0.0189
 1020MOL0     C37572   1.714   4.431   6.580  0.1258 -0.3397 -0.2410
 1020MOL0     O37573   1.612   4.338   6.552 -0.0291 -0.4035 -0.0343
 1020MOL0     C37574   1.480   4.358   6.617 -0.4196 -0.2587  0.5251
 1020MOL0     C37575   1.401   4.234   6.585 -1.0985  0.5164 -0.3918
 1020MOL0     C37576   1.407   4.172   6.437 -0.5912  0.2319 -0.6071
 1020MOL0     C37577   1.492   4.037   6.406  0.6689  0.6212 -0.2971
 1020MOL0     C37578   1.638   4.047   6.440 -0.6240 -0.8838  0.2120
 1020MOL0     C37579   1.721   3.925   6.391  0.0633  0.6598 -1.4316
 1020MOL0     C37580   1.857   3.904   6.459  0.1919 -0.9236 -0.4218
 1020MOL0     C37581   1.969   4.017   6.412 -0.2279  0.3300  0.4048
 1020MOL0     N37582   2.099   4.012   6.483 -1.0090  0.4494 -0.1689
 1020MOL0     C37583   2.203   3.923   6.446 -0.1352 -0.1427 -0.5541
 1020MOL0     C37584   2.306   3.959   6.525  0.1060 -0.8098 -0.4048
 1020MOL0     C37585   2.453   3.917   6.511  0.3124 -1.1615 -0.5461
 1020MOL0     C37586   2.534   4.025   6.455 -0.7415 -0.1768 -0.5427
 1020MOL0     C37587   2.517   4.048   6.305  0.6663  0.4127  0.6013
 1020MOL0     C37588   2.655   4.095   6.249  0.2982  0.7028  0.1729
 1020MOL0     O37589   2.687   4.226   6.299  0.2106 -0.4556 -0.3151
 1020MOL0     C37590   2.752   4.307   6.217 -0.1834  0.3846  0.0722
 1020MOL0     C37591   2.700   4.433   6.208  0.3610  1.4674  0.0804
 1020MOL0     C37592   2.777   4.534   6.141 -1.0284  0.0788 -0.0789
 1020MOL0     C37593   2.896   4.505   6.084  0.3837 -0.8612 -0.5279
 1020MOL0     C37594   2.979   4.610   6.021 -0.3671  0.2000 -0.2066
 1020MOL0     O37595   3.104   4.585   6.048 -0.1219 -0.5594  0.1105
 1020MOL0     C37596   3.200   4.680   6.016  0.5875  0.1991 -0.5368
 1020MOL0     C37597   3.321   4.629   5.957  0.7055  0.0656 -0.5009
 1020MOL0     C37598   3.440   4.702   5.936 -0.2937 -0.3421  0.1365
 1020MOL0     C37599   3.431   4.836   5.963  0.2870  0.3296  0.1314
 1020MOL0     O37600   3.550   4.907   5.959  0.5614  0.1439  0.1282
 1020MOL0     C37601   3.540   5.014   5.855 -0.3404  0.5814 -0.0292
 1020MOL0     C37602   3.508   4.974   5.712 -0.4627  0.3706  0.0857
 1020MOL0     C37603   3.613   4.898   5.632  1.1931  0.6465  0.0374
 1020MOL0     C37604   3.574   4.878   5.483  0.0429  0.0240  0.3865
 1020MOL0     C37605   3.676   4.812   5.393  0.0022 -0.4278 -0.4484
 1020MOL0     C37606   3.657   4.655   5.413  0.3283 -0.1929  0.3603
 1020MOL0     C37607   3.770   4.608   5.506 -0.2691  0.3919 -0.0957
 1020MOL0     C37608   3.752   4.472   5.585 -0.0302 -0.7670  0.3148
 1020MOL0    Cl37609   3.605   4.465   5.694 -0.1968  0.2945  0.0103
 1020MOL0     C37610   3.311   4.898   6.002  0.2140  0.4391 -0.5730
 1020MOL0     C37611   3.197   4.820   6.030  0.5349 -0.0554  0.3231
 1020MOL0     O37612   2.924   4.709   5.968 -0.2206  0.9043  0.4324
 1020MOL0     C37613   2.946   4.384   6.089  0.0611 -0.1865 -0.0545
 1020MOL0     C37614   2.879   4.287   6.160 -0.3979 -0.3768 -0.6988
 1020MOL0     N37615   2.270   4.053   6.623  0.4485 -0.2371  0.1395
 1020MOL0     N37616   2.148   4.089   6.584 -0.5516  0.1214 -0.4716
 1020MOL0     C37617   1.702   4.544   6.664 -0.4921  0.3284  0.5323
 1020MOL0     C37618   1.805   4.642   6.686 -0.5124 -0.0682 -0.5055
 1020MOL0     C37619   2.157   4.912   6.675 -0.7275  1.0361 -0.0445
 1020MOL0     C37620   2.211   4.904   6.549 -0.6942  0.1482  0.2434
 1020MOL0     C37621   2.304   4.999   6.500  0.1174  0.1101 -0.5128
 1020MOL0     C37622   2.344   5.113   6.570  0.0607  0.6901 -0.1899
 1020MOL0     O37623   2.428   5.195   6.513  0.2851  0.1571  1.0537
 1020MOL0     C37624   2.410   5.333   6.526 -0.2760 -0.6162 -0.6377
 1020MOL0     C37625   2.536   5.395   6.461  0.4258  0.3387  0.2275
 1020MOL0     C37626   2.663   5.342   6.526  0.3075 -0.8543 -0.2388
 1020MOL0     C37627   2.791   5.435   6.489  0.0509 -0.8977  0.2925
 1020MOL0     C37628   2.915   5.389   6.557  0.7648  0.0348  0.5359
 1020MOL0     C37629   3.015   5.341   6.606  0.3697  0.2630  0.5107
 1020MOL0     C37630   2.294   5.120   6.701 -0.6496  0.1263  0.2229
 1020MOL0     C37631   2.203   5.018   6.762 -0.4931 -0.2940  0.7821
 1020MOL0     C37632   2.206   5.020   6.911 -0.1885  0.1963 -0.9035
 1020MOL0     H37633   2.021   4.529   6.463  0.4842 -1.7455  1.4173
 1020MOL0     H37634   1.863   4.321   6.466  0.7865 -0.9549  1.8347
 1020MOL0     H37635   1.486   4.369   6.726  1.8525  1.2245  0.3033
 1020MOL0     H37636   1.432   4.449   6.581 -0.4281 -1.2131 -2.1308
 1020MOL0     H37637   1.305   4.271   6.623 -0.1518  1.7897  0.8749
 1020MOL0     H37638   1.435   4.156   6.654  0.6257  0.8066 -0.8914
 1020MOL0     H37639   1.450   4.261   6.389  0.2968  1.2130  1.8230
 1020MOL0     H37640   1.306   4.160   6.399  0.2372 -1.3641 -2.4641
 1020MOL0     H37641   1.451   3.959   6.470 -0.1751  3.0479  2.3411
 1020MOL0     H37642   1.481   4.014   6.300  1.2688 -1.2753  0.0250
 1020MOL0     H37643   1.677   4.129   6.379 -1.5833 -2.0937 -2.2006
 1020MOL0     H37644   1.656   4.071   6.545 -1.3259 -0.8514  0.3301
 1020MOL0     H37645   1.660   3.842   6.427 -0.1961 -0.3133 -3.8886
 1020MOL0     H37646   1.724   3.923   6.281 -2.4811 -0.5461 -1.5443
 1020MOL0     H37647   1.882   3.800   6.437 -1.4497 -1.1388 -1.3934
 1020MOL0     H37648   1.842   3.910   6.567  0.7536 -0.3925 -0.3645
 1020MOL0     H37649   1.982   3.998   6.305 -0.3616 -1.7304  0.7221
 1020MOL0     H37650   1.933   4.120   6.413 -2.5344 -0.4154 -0.5814
 1020MOL0     H37651   2.220   3.869   6.354 -0.1612 -1.8865  0.4293
 1020MOL0     H37652   2.487   3.904   6.614 -0.1679 -2.3212 -0.5138
 1020MOL0     H37653   2.470   3.817   6.470  0.3894 -3.3922  4.2442
 1020MOL0     H37654   2.522   4.121   6.506  1.3896  1.5018 -2.9130
 1020MOL0     H37655   2.642   4.021   6.475 -0.8318  1.8669  0.5884
 1020MOL0     H37656   2.451   4.133   6.286  2.5468  1.6121 -0.9133
 1020MOL0     H37657   2.480   3.955   6.260  0.0046 -0.1978  2.3070
 1020MOL0     H37658   2.648   4.098   6.140 -0.1668  1.6452  0.2103
 1020MOL0     H37659   2.737   4.025   6.265 -0.7439 -1.4199 -2.8792
 1020MOL0     H37660   2.604   4.454   6.255  0.7719  3.2348  0.1727
 1020MOL0     H37661   2.725   4.629   6.138 -0.4141  0.4310  0.1198
 1020MOL0     H37662   3.327   4.523   5.937  2.9475  0.1928 -0.8127
 1020MOL0     H37663   3.532   4.647   5.919 -0.5247 -0.7952  0.3142
 1020MOL0     H37664   3.474   5.099   5.877  1.1326  1.8297 -0.2261
 1020MOL0     H37665   3.643   5.049   5.867 -1.2583  2.7650  2.6733
 1020MOL0     H37666   3.410   4.927   5.715 -1.1604  1.7434 -0.6620
 1020MOL0     H37667   3.504   5.063   5.650 -0.5294  0.3126  0.0076
 1020MOL0     H37668   3.712   4.945   5.641 -0.2699  4.3047 -1.1984
 1020MOL0     H37669   3.616   4.801   5.682  1.8182  0.4627 -0.3391
 1020MOL0     H37670   3.562   4.979   5.443 -2.1739 -0.8227 -1.3360
 1020MOL0     H37671   3.480   4.824   5.468  0.5029 -0.8978  0.7724
 1020MOL0     H37672   3.774   4.855   5.414 -0.3148 -1.0450  2.7879
 1020MOL0     H37673   3.653   4.830   5.288 -0.1416 -3.7544 -1.1072
 1020MOL0     H37674   3.564   4.632   5.466 -0.6026 -0.0376 -1.1744
 1020MOL0     H37675   3.655   4.608   5.315 -2.5224  0.8101 -0.1305
 1020MOL0     H37676   3.776   4.684   5.584 -0.6481  4.3627 -3.5658
 1020MOL0     H37677   3.861   4.608   5.446 -1.1018 -1.0039 -1.4470
 1020MOL0     H37678   3.750   4.382   5.523  0.4576 -3.6080  4.0855
 1020MOL0     H37679   3.838   4.474   5.653 -0.9147 -1.6165  1.4882
 1020MOL0     H37680   3.298   4.997   6.044 -3.6396 -0.1300 -0.0419
 1020MOL0     H37681   3.100   4.861   6.058 -1.1061 -2.9164 -0.7809
 1020MOL0     H37682   3.039   4.359   6.039  0.6232 -1.1896  1.4476
 1020MOL0     H37683   2.936   4.196   6.180 -0.5885 -0.0316  1.6833
 1020MOL0     H37684   1.604   4.565   6.707 -2.8089 -0.6466 -3.7248
 1020MOL0     H37685   1.788   4.723   6.755 -0.0032 -0.6469  0.3243
 1020MOL0     H37686   2.213   4.821   6.480  0.1901  0.0419  0.3883
 1020MOL0     H37687   2.339   4.979   6.399 -1.4938 -0.2295 -1.0195
 1020MOL0     H37688   2.403   5.365   6.631  0.4978 -0.4239 -0.6330
 1020MOL0     H37689   2.321   5.357   6.468 -1.5366 -0.0589  1.4078
 1020MOL0     H37690   2.531   5.504   6.456  0.0187  0.3538  0.9305
 1020MOL0     H37691   2.542   5.366   6.355 -0.7321  1.5885 -0.2208
 1020MOL0     H37692   2.678   5.237   6.501  0.2722 -1.4553  2.0580
 1020MOL0     H37693   2.644   5.343   6.633 -0.0783  2.1384 -0.2486
 1020MOL0     H37694   2.811   5.439   6.381 -1.9175 -2.6680 -0.2116
 1020MOL0     H37695   2.769   5.534   6.528  1.1124 -0.7716  0.6088
 1020MOL0     H37696   3.099   5.286   6.644  0.2025 -1.7072 -1.7211
 1020MOL0     H37697   2.332   5.199   6.764  1.3532 -0.8961  0.3852
 1020MOL0     H37698   2.305   5.048   6.950  0.6481 -2.5042 -0.8826
 1020MOL0     H37699   2.135   5.092   6.952 -0.1868  0.5710 -1.5498
 1020MOL0     H37700   2.193   4.918   6.948  1.8033  0.4101  0.6246
 1021MOL0     O37701   8.483   6.897   7.158  0.0045  0.0955 -0.6088
 1021MOL0     C37702   8.500   6.990   7.240 -0.7925  0.1117 -0.1585
 1021MOL0     O37703   8.616   7.004   7.315 -0.2148 -0.6348  0.0924
 1021MOL0     C37704   8.714   6.911   7.322 -0.1886 -0.8954 -0.1004
 1021MOL0     C37705   8.801   6.889   7.214  0.0168  0.1455  0.7501
 1021MOL0     C37706   8.923   6.813   7.225  0.3191  0.3523  0.4922
 1021MOL0     C37707   8.951   6.747   7.336 -0.1054  0.3664 -0.5833
 1021MOL0     O37708   9.051   6.650   7.332 -0.6443  0.4007  0.6929
 1021MOL0     C37709   9.017   6.518   7.383  0.4472  0.4506 -0.4266
 1021MOL0     C37710   9.108   6.417   7.309 -0.0999 -1.0181  0.7565
 1021MOL0     C37711   9.036   6.373   7.177  0.9859  0.0780 -0.6505
 1021MOL0     C37712   9.137   6.303   7.076  0.9569 -0.2057 -0.0331
 1021MOL0     C37713   9.085   6.286   6.938  0.1560 -0.0141 -0.4155
 1021MOL0     C37714   9.182   6.201   6.852  0.3904  0.4292  0.4884
 1021MOL0     C37715   9.134   6.118   6.724 -0.0441  0.9022  0.1932
 1021MOL0     C37716   9.098   6.210   6.603  0.1053  0.6696  0.1654
 1021MOL0     N37717   9.204   6.211   6.505  0.2137 -0.0978 -0.1738
 1021MOL0     C37718   9.181   6.148   6.385 -1.0156 -0.3959  0.8352
 1021MOL0     C37719   9.303   6.153   6.325 -0.0518 -0.0298  0.1871
 1021MOL0     C37720   9.338   6.122   6.183 -0.0308  0.1344  0.4794
 1021MOL0     C37721   9.317   5.978   6.144  0.0365 -0.4070  0.6078
 1021MOL0     C37722   9.198   5.953   6.048 -0.2581 -0.5440 -1.0104
 1021MOL0     C37723   9.204   5.814   6.002 -0.3511  0.9917  0.7621
 1021MOL0     O37724   9.102   5.789   5.902 -0.1119  0.8011  0.4250
 1021MOL0     C37725   9.128   5.834   5.776 -0.0028 -0.5082  1.1619
 1021MOL0     C37726   9.227   5.777   5.692  0.5192 -0.0474  0.5948
 1021MOL0     C37727   9.260   5.831   5.568 -0.2869  0.0696  0.4459
 1021MOL0     C37728   9.201   5.945   5.517  0.5569  0.3286  0.6820
 1021MOL0     C37729   9.212   5.992   5.377 -0.1536 -0.3211  0.4817
 1021MOL0     O37730   9.126   6.096   5.346  0.2220  0.3667 -0.1369
 1021MOL0     C37731   9.116   6.156   5.221 -0.3472  0.4613  1.0933
 1021MOL0     C37732   8.989   6.202   5.177 -0.1391 -0.0640 -0.1100
 1021MOL0     C37733   8.965   6.267   5.056  0.7734  0.3746 -0.1477
 1021MOL0     C37734   9.079   6.296   4.972 -0.1990  0.0024  0.0744
 1021MOL0     O37735   9.069   6.368   4.856  0.3513  0.5578  0.0848
 1021MOL0     C37736   9.170   6.363   4.752 -0.1356  0.4693  0.3455
 1021MOL0     C37737   9.103   6.350   4.615  0.0234  0.4141  0.4414
 1021MOL0     C37738   9.039   6.482   4.569  0.1698  0.0814 -0.4962
 1021MOL0     C37739   8.894   6.507   4.633 -0.1019  0.7748  0.0663
 1021MOL0     C37740   8.818   6.628   4.572  0.6473  0.2370 -0.3585
 1021MOL0     C37741   8.817   6.616   4.419  0.4566  1.2067  0.0456
 1021MOL0     C37742   8.906   6.721   4.348 -0.0574 -0.3736  0.4688
 1021MOL0     C37743   8.894   6.723   4.198 -1.0741  0.2433  0.2684
 1021MOL0    Cl37744   8.747   6.808   4.152 -0.2503 -0.1880  0.0040
 1021MOL0     C37745   9.204   6.251   5.027 -0.2060 -1.0163 -0.5895
 1021MOL0     C37746   9.224   6.176   5.137 -0.1061 -0.0909  0.0592
 1021MOL0     O37747   9.276   5.928   5.292  0.5661  0.0243 -0.1766
 1021MOL0     C37748   9.097   6.001   5.600 -0.3485 -0.4013  0.2037
 1021MOL0     C37749   9.068   5.955   5.731 -0.0717  0.6230  0.4083
 1021MOL0     N37750   9.391   6.215   6.412 -0.0647 -0.3081 -0.4709
 1021MOL0     N37751   9.326   6.254   6.521 -0.5449 -0.1555  0.5016
 1021MOL0     C37752   8.862   6.765   7.440  0.9933 -0.4610  0.8917
 1021MOL0     C37753   8.758   6.854   7.445  0.2487 -0.5473  0.4657
 1021MOL0     C37754   8.396   7.094   7.256  0.2616 -0.5570  0.4659
 1021MOL0     C37755   8.436   7.210   7.320  0.0887 -0.4119  0.1385
 1021MOL0     C37756   8.348   7.320   7.333  0.1552  0.5204 -0.5762
 1021MOL0     C37757   8.228   7.307   7.277  0.6794  0.0363  0.5096
 1021MOL0     O37758   8.131   7.401   7.296 -0.1516  0.1549  0.0590
 1021MOL0     C37759   8.177   7.530   7.252  0.5125  0.4037 -0.2197
 1021MOL0     C37760   8.098   7.637   7.337  0.6258  0.9330  0.1472
 1021MOL0     C37761   8.171   7.660   7.465 -0.0969 -0.0712  0.2615
 1021MOL0     C37762   8.084   7.760   7.541 -0.7632  1.0811  0.5446
 1021MOL0     C37763   8.138   7.769   7.680  0.5833  0.4194  0.5920
 1021MOL0     C37764   8.180   7.787   7.791 -0.3834  0.5598  0.5155
 1021MOL0     C37765   8.184   7.197   7.214  0.8484  0.0509  0.0993
 1021MOL0     C37766   8.260   7.086   7.204  0.2510  0.3511  0.1620
 1021MOL0     C37767   8.194   6.960   7.146  1.0459 -0.8355 -0.1796
 1021MOL0     H37768   8.788   6.943   7.121  3.5929 -0.4881 -0.2682
 1021MOL0     H37769   8.991   6.807   7.141 -0.0352  0.0506  0.2242
 1021MOL0     H37770   9.044   6.515   7.489 -0.9688  1.7026  0.0006
 1021MOL0     H37771   8.909   6.513   7.367  0.3416  1.2692 -0.0275
 1021MOL0     H37772   9.130   6.328   7.368  3.6815 -0.5872  0.2429
 1021MOL0     H37773   9.205   6.465   7.292 -1.4880  1.8206  0.1366
 1021MOL0     H37774   8.971   6.449   7.133 -0.3415 -1.3781 -1.2968
 1021MOL0     H37775   8.965   6.294   7.203  3.4079 -2.1221 -0.3742
 1021MOL0     H37776   9.226   6.366   7.066 -0.1462  1.0421 -4.1446
 1021MOL0     H37777   9.150   6.205   7.122 -2.1730  0.4670  2.6967
 1021MOL0     H37778   8.997   6.224   6.956 -0.7404  1.7237  1.7018
 1021MOL0     H37779   9.045   6.381   6.902  2.6121  2.5387  2.9215
 1021MOL0     H37780   9.261   6.263   6.809 -0.1814 -0.6501 -2.3318
 1021MOL0     H37781   9.231   6.129   6.919  0.7568  0.4071  0.1974
 1021MOL0     H37782   9.059   6.043   6.752 -0.2788  0.4882 -1.4475
 1021MOL0     H37783   9.217   6.052   6.697  1.8997  3.5025 -0.5499
 1021MOL0     H37784   9.005   6.169   6.564  0.3050  1.2737 -0.9784
 1021MOL0     H37785   9.082   6.313   6.636  4.5300  1.4507  0.5561
 1021MOL0     H37786   9.081   6.125   6.350 -0.5647 -1.4821  0.2285
 1021MOL0     H37787   9.286   6.184   6.109  0.3576  1.8516  1.5813
 1021MOL0     H37788   9.443   6.150   6.174  0.2487 -0.1571  2.3255
 1021MOL0     H37789   9.404   5.942   6.087 -0.2819  0.7681 -0.6677
 1021MOL0     H37790   9.312   5.919   6.236 -1.3599  0.7332  1.2967
 1021MOL0     H37791   9.186   6.029   5.971  0.0398 -2.4807 -3.0706
 1021MOL0     H37792   9.114   5.961   6.117  0.3381  1.2276 -0.4245
 1021MOL0     H37793   9.193   5.732   6.074  2.2057 -0.6427 -0.5396
 1021MOL0     H37794   9.305   5.804   5.960 -1.8065  1.5230 -3.2063
 1021MOL0     H37795   9.270   5.683   5.726 -2.6212 -1.0806  2.1391
 1021MOL0     H37796   9.344   5.788   5.513 -0.0467  1.5060 -0.3614
 1021MOL0     H37797   8.907   6.179   5.244  1.1187  0.3337  1.6354
 1021MOL0     H37798   8.866   6.297   5.024 -0.2899  0.7799  3.1307
 1021MOL0     H37799   9.244   6.442   4.758  0.4774 -0.0028 -0.7081
 1021MOL0     H37800   9.236   6.275   4.758  1.4922  0.7303 -6.2846
 1021MOL0     H37801   9.172   6.320   4.535  0.1866  2.3217 -0.1861
 1021MOL0     H37802   9.028   6.272   4.603 -0.3813  0.7571  0.7341
 1021MOL0     H37803   9.104   6.568   4.583 -2.7470  2.4579 -0.6410
 1021MOL0     H37804   9.034   6.472   4.460  0.5458  0.9094 -0.5978
 1021MOL0     H37805   8.917   6.527   4.738 -0.4090  1.4843  0.0017
 1021MOL0     H37806   8.837   6.416   4.620 -1.3770  1.6945 -1.0123
 1021MOL0     H37807   8.869   6.723   4.590  1.0472  1.4111 -5.9862
 1021MOL0     H37808   8.715   6.614   4.607  1.1844  2.8902  2.7640
 1021MOL0     H37809   8.850   6.514   4.395  3.5479  1.8618  0.9947
 1021MOL0     H37810   8.712   6.623   4.390 -0.4999  1.1591  3.1699
 1021MOL0     H37811   9.012   6.720   4.375 -0.0202  1.5312  0.5365
 1021MOL0     H37812   8.862   6.812   4.389 -1.1969 -0.7889  0.1884
 1021MOL0     H37813   8.990   6.752   4.153 -0.5781 -2.0279 -0.2674
 1021MOL0     H37814   8.874   6.622   4.163  0.5321 -0.8927  2.3789
 1021MOL0     H37815   9.280   6.254   4.950 -1.1978  0.1269 -1.5761
 1021MOL0     H37816   9.322   6.131   5.146  0.5440  0.6820 -2.4456
 1021MOL0     H37817   9.038   6.081   5.557 -1.8904 -0.9132  1.2844
 1021MOL0     H37818   8.999   5.998   5.802  0.8880  1.2054  1.0150
 1021MOL0     H37819   8.880   6.714   7.534  1.0422 -1.0395  0.5748
 1021MOL0     H37820   8.707   6.854   7.540 -2.0865 -2.8200 -0.6453
 1021MOL0     H37821   8.539   7.235   7.343 -0.0886 -0.0071  0.4972
 1021MOL0     H37822   8.384   7.411   7.379 -1.5254  0.1110  1.7469
 1021MOL0     H37823   8.140   7.537   7.150 -1.5599  1.3087  0.5417
 1021MOL0     H37824   8.283   7.556   7.257  0.9450 -1.0928 -0.9089
 1021MOL0     H37825   7.999   7.592   7.349  1.2703 -0.2693  1.2685
 1021MOL0     H37826   8.083   7.734   7.288 -2.8182  0.5733  0.2360
 1021MOL0     H37827   8.273   7.694   7.441 -0.5642  1.7587  0.7415
 1021MOL0     H37828   8.180   7.564   7.518 -1.0951 -0.5410 -0.3953
 1021MOL0     H37829   8.096   7.858   7.493 -1.3997  0.4185 -1.0215
 1021MOL0     H37830   7.981   7.726   7.546 -1.0974  2.1755  1.6618
 1021MOL0     H37831   8.220   7.793   7.890 -3.1323 -1.0739  1.8639
 1021MOL0     H37832   8.083   7.199   7.173  0.6318  1.7614  0.6240
 1021MOL0     H37833   8.224   6.861   7.179  1.1833 -1.3000 -1.6151
 1021MOL0     H37834   8.093   6.951   7.185  1.7850 -4.3534  1.3035
 1021MOL0     H37835   8.191   6.962   7.037  1.7611 -0.0146 -0.1998
 1022MOL0     O37836   6.359   0.758   5.918 -0.1958 -0.0401  0.1914
 1022MOL0     C37837   6.416   0.797   5.814 -0.4561 -0.3173 -0.0740
 1022MOL0     O37838   6.552   0.792   5.799 -0.7284  0.6449 -0.4227
 1022MOL0     C37839   6.629   0.756   5.911  0.5677  0.2687  0.4715
 1022MOL0     C37840   6.676   0.622   5.932  1.2112  0.6933 -0.1038
 1022MOL0     C37841   6.763   0.589   6.042 -0.3359 -0.3388 -0.5171
 1022MOL0     C37842   6.812   0.688   6.121 -1.4208 -0.1684  0.2094
 1022MOL0     O37843   6.907   0.641   6.211  0.1536 -0.1188  0.5813
 1022MOL0     C37844   6.927   0.726   6.319  0.6369  0.3238 -0.2264
 1022MOL0     C37845   7.029   0.655   6.403 -0.5570 -0.0369 -0.4389
 1022MOL0     C37846   7.029   0.725   6.542 -0.6163 -0.9566  0.4092
 1022MOL0     C37847   7.131   0.646   6.628  1.5791  0.0587  0.3789
 1022MOL0     C37848   7.136   0.692   6.775  0.0719 -0.3603  0.4209
 1022MOL0     C37849   7.265   0.631   6.843  0.5706  0.1713  0.2210
 1022MOL0     C37850   7.256   0.650   6.992 -0.0290 -0.2282  0.3610
 1022MOL0     C37851   7.369   0.558   7.054 -0.3446 -0.4466 -0.3085
 1022MOL0     N37852   7.379   0.576   7.206  0.1390 -0.1769  0.3555
 1022MOL0     C37853   7.406   0.700   7.265 -0.6791  0.0536  0.8708
 1022MOL0     C37854   7.373   0.672   7.394  0.7957 -0.3782  0.6903
 1022MOL0     C37855   7.368   0.769   7.506 -0.5441 -1.0163  0.7732
 1022MOL0     C37856   7.514   0.795   7.564  0.0632  0.6041  0.1362
 1022MOL0     C37857   7.505   0.873   7.695 -0.3452 -0.4445 -0.4601
 1022MOL0     C37858   7.637   0.869   7.774  0.7405  1.2273 -0.1345
 1022MOL0     O37859   7.596   0.920   7.907 -0.0837  0.3587 -0.0422
 1022MOL0     C37860   7.678   0.906   8.013 -0.0024 -0.1191  1.0156
 1022MOL0     C37861   7.622   0.953   8.132  0.3344 -0.3414 -0.8266
 1022MOL0     C37862   7.683   0.957   8.253 -0.6610  0.1632 -0.4814
 1022MOL0     C37863   7.815   0.902   8.260  0.5074  0.1663  0.4152
 1022MOL0     C37864   7.895   0.897   8.386 -0.2487 -0.5540  0.5957
 1022MOL0     O37865   8.011   0.827   8.380 -0.3664 -1.1480 -0.3694
 1022MOL0     C37866   8.090   0.816   8.496 -0.5664  0.2329  0.6528
 1022MOL0     C37867   8.143   0.696   8.526  0.4323 -0.5591 -0.6180
 1022MOL0     C37868   8.239   0.683   8.630  0.6206 -0.5074  0.4293
 1022MOL0     C37869   8.284   0.794   8.702  0.9961 -0.4522 -1.9293
 1022MOL0     O37870   8.367   0.778   8.816  0.1278  0.4432  0.2550
 1022MOL0     C37871   8.434   0.896   8.869 -0.8791  0.4754 -0.0604
 1022MOL0     C37872   8.526   0.961   8.757 -0.9181 -0.0032  0.5699
 1022MOL0     C37873   8.612   1.070   8.820  0.2053 -0.7425 -0.3927
 1022MOL0     C37874   8.545   1.210   8.821 -0.6746  0.3995 -0.2406
 1022MOL0     C37875   8.644   1.331   8.838 -0.3349  0.2484  0.8212
 1022MOL0     C37876   8.683   1.373   8.982  1.1292 -0.3076 -0.1553
 1022MOL0     C37877   8.800   1.475   8.999 -0.3935  0.3846  0.3265
 1022MOL0     C37878   8.929   1.427   8.930  0.7214 -0.3047 -0.8687
 1022MOL0    Cl37879   9.080   1.500   8.991 -0.2577  0.1668  0.0812
 1022MOL0     C37880   8.229   0.919   8.656 -0.1206  0.0592  0.1333
 1022MOL0     C37881   8.139   0.930   8.551 -0.9207 -0.4098  0.0500
 1022MOL0     O37882   7.842   0.955   8.482  0.2663 -0.4848 -0.1655
 1022MOL0     C37883   7.875   0.857   8.138  0.5842  0.5430  0.3154
 1022MOL0     C37884   7.800   0.851   8.020  0.3473 -0.6358  0.4961
 1022MOL0     N37885   7.336   0.544   7.409  0.2121  0.0988 -0.8963
 1022MOL0     N37886   7.338   0.485   7.296 -0.0283 -0.4237 -0.2274
 1022MOL0     C37887   6.763   0.824   6.106  0.8740 -0.1747 -0.4202
 1022MOL0     C37888   6.675   0.848   5.998  0.4731  0.1274 -0.3273
 1022MOL0     C37889   6.332   0.864   5.713  0.1347 -0.4558  0.6613
 1022MOL0     C37890   6.395   0.946   5.617 -0.8355 -0.0007  0.5947
 1022MOL0     C37891   6.340   1.007   5.508 -0.3982  0.1477  0.3989
 1022MOL0     C37892   6.206   0.980   5.480 -0.2747  0.0731  0.2513
 1022MOL0     O37893   6.128   1.021   5.371 -0.1995  0.0416  0.2077
 1022MOL0     C37894   6.179   1.131   5.297  0.2779  0.2850 -0.5434
 1022MOL0     C37895   6.082   1.173   5.185  0.4886 -0.3991  0.7349
 1022MOL0     C37896   6.146   1.288   5.097 -0.2184 -0.2060  0.7757
 1022MOL0     C37897   6.048   1.375   5.012  1.0081  0.3362 -0.0320
 1022MOL0     C37898   6.003   1.491   5.089 -0.0313  0.2267  0.8470
 1022MOL0     C37899   5.945   1.582   5.139 -0.6383 -0.1087  0.1985
 1022MOL0     C37900   6.138   0.895   5.573  0.9883 -0.0468  0.6624
 1022MOL0     C37901   6.188   0.849   5.692 -0.5040 -0.0400  0.2637
 1022MOL0     C37902   6.094   0.771   5.777  0.2180  0.6402 -0.8339
 1022MOL0     H37903   6.663   0.544   5.859 -0.2652 -1.5624  2.3912
 1022MOL0     H37904   6.793   0.485   6.050  2.2875  0.2787 -1.3223
 1022MOL0     H37905   6.996   0.805   6.286  2.6076  0.0396  2.8091
 1022MOL0     H37906   6.835   0.755   6.370 -1.4012 -2.3893 -2.0410
 1022MOL0     H37907   7.131   0.660   6.364 -1.1912  1.2887 -2.0914
 1022MOL0     H37908   7.009   0.550   6.424 -1.3558  0.7134  3.1746
 1022MOL0     H37909   6.930   0.741   6.585 -1.6264  1.5022 -2.5533
 1022MOL0     H37910   7.052   0.829   6.519 -1.5151 -1.2025 -1.7948
 1022MOL0     H37911   7.107   0.540   6.630 -5.0794  1.0763 -1.7127
 1022MOL0     H37912   7.231   0.652   6.583  1.3199  0.4919 -0.1542
 1022MOL0     H37913   7.148   0.800   6.766 -1.3594 -0.2186 -0.0213
 1022MOL0     H37914   7.046   0.680   6.835  2.0448  2.7041  4.4360
 1022MOL0     H37915   7.266   0.524   6.820 -1.9017  0.1604 -0.0091
 1022MOL0     H37916   7.362   0.672   6.812  0.6327  0.5839  0.9256
 1022MOL0     H37917   7.164   0.626   7.045  0.3902 -1.1453  0.7053
 1022MOL0     H37918   7.281   0.755   7.010 -1.4024  0.6208 -2.2551
 1022MOL0     H37919   7.333   0.457   7.032 -2.5078 -0.4658  2.7027
 1022MOL0     H37920   7.468   0.566   7.008  2.2708 -3.5974  3.9378
 1022MOL0     H37921   7.437   0.791   7.215 -2.0409  1.4600  2.4503
 1022MOL0     H37922   7.321   0.861   7.470  0.8840 -1.0151 -1.2333
 1022MOL0     H37923   7.296   0.730   7.579 -2.7295  3.8395  1.6389
 1022MOL0     H37924   7.563   0.698   7.572  0.3964  0.8521  1.2675
 1022MOL0     H37925   7.564   0.857   7.489 -2.8556  0.6843 -1.9446
 1022MOL0     H37926   7.429   0.834   7.763  3.8173 -3.5311  2.9421
 1022MOL0     H37927   7.491   0.978   7.664 -1.2460 -0.4971 -0.2626
 1022MOL0     H37928   7.713   0.937   7.733 -1.5013  2.9267 -1.6895
 1022MOL0     H37929   7.672   0.766   7.772  0.7907  1.1651  2.2063
 1022MOL0     H37930   7.522   0.995   8.137  0.9677  1.1292  0.1872
 1022MOL0     H37931   7.647   0.998   8.346  0.7577  4.1414 -1.5054
 1022MOL0     H37932   8.107   0.605   8.480  0.4615 -1.1662  0.5262
 1022MOL0     H37933   8.277   0.585   8.656 -2.2927 -1.1902  2.7470
 1022MOL0     H37934   8.367   0.975   8.906  1.3564  2.8333 -0.8012
 1022MOL0     H37935   8.497   0.857   8.949  2.0503 -0.3929 -2.6238
 1022MOL0     H37936   8.603   0.889   8.727 -1.8863  0.6668 -4.4038
 1022MOL0     H37937   8.470   0.988   8.667  0.8158  0.7754 -0.3289
 1022MOL0     H37938   8.633   1.045   8.924  0.9313 -1.8558 -0.7919
 1022MOL0     H37939   8.703   1.072   8.759  0.4586 -0.3100 -0.0023
 1022MOL0     H37940   8.460   1.214   8.890  0.2570 -0.0555  0.9724
 1022MOL0     H37941   8.502   1.233   8.723  0.1485  0.4494 -0.6036
 1022MOL0     H37942   8.604   1.415   8.780  2.4459 -0.1319 -1.9119
 1022MOL0     H37943   8.727   1.298   8.775 -2.5875  0.4412 -2.4570
 1022MOL0     H37944   8.593   1.411   9.031  0.9545 -2.2288  1.1585
 1022MOL0     H37945   8.706   1.278   9.033 -0.1845 -1.5145 -1.7241
 1022MOL0     H37946   8.822   1.478   9.106 -0.3358 -1.8759  0.4246
 1022MOL0     H37947   8.761   1.575   8.977  0.6572  0.8857  0.6875
 1022MOL0     H37948   8.928   1.318   8.934  0.8681 -0.2886 -0.3570
 1022MOL0     H37949   8.908   1.449   8.824 -0.4724  0.8579 -0.4170
 1022MOL0     H37950   8.262   1.017   8.687  0.8926 -0.3585  0.4357
 1022MOL0     H37951   8.110   1.030   8.521 -0.8438 -0.2001  0.6528
 1022MOL0     H37952   7.976   0.816   8.135  0.5448  0.3489 -3.8587
 1022MOL0     H37953   7.849   0.814   7.931 -0.9548  0.8600 -0.9158
 1022MOL0     H37954   6.780   0.900   6.181 -1.5147  0.5828 -0.5419
 1022MOL0     H37955   6.633   0.948   5.994  2.4879  1.0425  0.0685
 1022MOL0     H37956   6.499   0.975   5.626 -0.4485 -0.6000 -1.5256
 1022MOL0     H37957   6.404   1.074   5.451  0.7484 -0.7257  0.6317
 1022MOL0     H37958   6.275   1.092   5.262  0.0809 -2.9680  2.0337
 1022MOL0     H37959   6.203   1.216   5.361  3.1951  1.1438 -2.5737
 1022MOL0     H37960   5.997   1.220   5.234 -0.4066 -1.4183  0.1990
 1022MOL0     H37961   6.060   1.083   5.127  4.5841 -1.7617  0.9444
 1022MOL0     H37962   6.208   1.239   5.022 -1.3221  0.7524 -0.8232
 1022MOL0     H37963   6.207   1.359   5.153 -0.9835  0.2031  1.1125
 1022MOL0     H37964   6.094   1.427   4.927  0.1545 -1.6774 -1.8224
 1022MOL0     H37965   5.964   1.319   4.969 -1.4310 -1.2806  5.9023
 1022MOL0     H37966   5.892   1.664   5.181  0.0623 -0.2186  1.3285
 1022MOL0     H37967   6.031   0.881   5.557  0.2715  3.2838  1.6262
 1022MOL0     H37968   6.108   0.799   5.882 -2.5811 -0.1330 -0.1794
 1022MOL0     H37969   5.990   0.793   5.751 -0.2111  0.0987  0.3702
 1022MOL0     H37970   6.114   0.664   5.773  2.6684  0.9971  0.0992
 1023MOL0     O37971   2.949   2.986   6.213 -0.1307 -0.4707  0.0368
 1023MOL0     C37972   2.998   3.056   6.303  0.2950  0.0233  0.3934
 1023MOL0     O37973   3.119   3.132   6.286  0.0585  0.0676 -0.3490
 1023MOL0     C37974   3.183   3.152   6.171 -1.1532 -0.5294  0.6355
 1023MOL0     C37975   3.120   3.244   6.086 -0.0654  0.0342  0.5613
 1023MOL0     C37976   3.169   3.255   5.959 -0.3808  0.1970 -0.1375
 1023MOL0     C37977   3.249   3.155   5.906 -1.1631 -0.1206  0.6030
 1023MOL0     O37978   3.268   3.163   5.770  1.1611  0.5241  0.0689
 1023MOL0     C37979   3.358   3.060   5.704  0.1273 -0.4633 -0.2272
 1023MOL0     C37980   3.506   3.101   5.727 -0.4803  0.4674  0.2182
 1023MOL0     C37981   3.599   3.002   5.654 -0.1871  0.0275 -0.5300
 1023MOL0     C37982   3.574   2.979   5.498 -0.4317  0.1144 -0.9268
 1023MOL0     C37983   3.579   3.120   5.418  0.9785 -0.5678 -0.3362
 1023MOL0     C37984   3.679   3.116   5.293 -0.9784  0.4636 -0.3991
 1023MOL0     C37985   3.632   3.031   5.171  1.2411  0.0759  0.4001
 1023MOL0     C37986   3.732   3.013   5.055 -0.0523  0.1743  0.7663
 1023MOL0     N37987   3.725   2.882   4.985  0.6317 -0.1866  0.1777
 1023MOL0     C37988   3.757   2.869   4.852 -0.8701 -0.3205 -0.6849
 1023MOL0     C37989   3.749   2.737   4.820 -0.2088  0.6838 -0.1112
 1023MOL0     C37990   3.784   2.667   4.696  0.2076 -1.0044  0.5131
 1023MOL0     C37991   3.905   2.576   4.709 -0.3220  0.5090  0.2304
 1023MOL0     C37992   4.021   2.654   4.783 -0.5869 -0.3264 -0.5359
 1023MOL0     C37993   4.157   2.580   4.770 -0.7662 -0.0609 -0.2818
 1023MOL0     O37994   4.153   2.437   4.779  0.2760 -0.1052 -0.0817
 1023MOL0     C37995   4.123   2.375   4.896  0.1291  0.2889 -0.7055
 1023MOL0     C37996   4.100   2.238   4.889 -1.2087 -0.1368 -0.5589
 1023MOL0     C37997   4.088   2.154   5.005 -0.3793  0.5844 -0.0932
 1023MOL0     C37998   4.080   2.227   5.127  0.3341  0.4590 -0.1631
 1023MOL0     C37999   4.032   2.154   5.242  0.2367  0.0783  0.1115
 1023MOL0     O38000   4.090   2.196   5.359 -0.1972 -1.0195  0.5468
 1023MOL0     C38001   4.101   2.120   5.470  0.5888 -1.3129 -0.1049
 1023MOL0     C38002   4.108   1.982   5.458 -0.3331 -0.7698 -0.8330
 1023MOL0     C38003   4.107   1.907   5.572  0.2406  0.8372 -0.6203
 1023MOL0     C38004   4.101   1.972   5.708  1.1215  0.6747 -0.2918
 1023MOL0     O38005   4.091   1.904   5.819  0.2359 -0.4195  0.3246
 1023MOL0     C38006   4.078   1.758   5.818  0.3944 -0.2157  0.0994
 1023MOL0     C38007   4.023   1.716   5.960  0.0891  0.0949  0.1270
 1023MOL0     C38008   4.113   1.754   6.085 -0.1072  0.8382  0.4035
 1023MOL0     C38009   4.133   1.896   6.141 -0.0333  0.6167  0.5320
 1023MOL0     C38010   4.217   1.917   6.270 -0.3992  0.1662  0.2903
 1023MOL0     C38011   4.226   2.067   6.320  0.7685 -0.1496  0.6528
 1023MOL0     C38012   4.138   2.096   6.443  0.0706 -0.6906  0.6940
 1023MOL0     C38013   4.188   2.049   6.577  0.9537 -0.7086 -1.0294
 1023MOL0    Cl38014   4.061   2.092   6.703 -0.4591 -0.1142  0.4526
 1023MOL0     C38015   4.108   2.111   5.712 -0.6443  0.3790 -0.4053
 1023MOL0     C38016   4.107   2.189   5.594 -0.2339  0.0287  0.9167
 1023MOL0     O38017   3.954   2.057   5.223  0.8800  1.0104 -0.5230
 1023MOL0     C38018   4.117   2.368   5.140 -0.0320  0.7640  0.0311
 1023MOL0     C38019   4.141   2.433   5.018 -0.1940 -0.6080  0.2651
 1023MOL0     N38020   3.702   2.674   4.936 -0.4902 -0.4854 -1.3423
 1023MOL0     N38021   3.687   2.761   5.027  0.8061  0.0453 -0.7903
 1023MOL0     C38022   3.303   3.057   5.991 -0.1407  1.0222 -0.1118
 1023MOL0     C38023   3.275   3.058   6.124 -0.8227  0.0781  0.1145
 1023MOL0     C38024   2.928   3.059   6.433  0.5421 -0.0054  0.8492
 1023MOL0     C38025   2.877   2.939   6.484 -0.0235 -0.5115  0.9931
 1023MOL0     C38026   2.799   2.940   6.596  1.0812 -0.3025  0.2891
 1023MOL0     C38027   2.754   3.052   6.662  0.9227  0.4470  0.3446
 1023MOL0     O38028   2.641   3.048   6.743 -0.7433 -0.8850  0.3419
 1023MOL0     C38029   2.658   2.957   6.850  0.4171 -0.5664 -0.6247
 1023MOL0     C38030   2.615   3.043   6.966  0.3828 -0.0475  0.5045
 1023MOL0     C38031   2.471   3.087   6.957  0.4826  0.4878 -0.1735
 1023MOL0     C38032   2.449   3.191   7.060 -1.2240  0.4217 -0.7545
 1023MOL0     C38033   2.315   3.230   7.067 -0.6125  0.9134 -0.6463
 1023MOL0     C38034   2.200   3.266   7.050 -0.3520  0.3082 -0.4470
 1023MOL0     C38035   2.798   3.167   6.604 -0.2452 -0.2291 -1.1202
 1023MOL0     C38036   2.883   3.179   6.488  0.6041 -0.0189 -0.2208
 1023MOL0     C38037   2.904   3.314   6.424 -0.5958 -0.4567  1.2117
 1023MOL0     H38038   3.044   3.311   6.125 -0.4335  0.4638 -0.8499
 1023MOL0     H38039   3.146   3.344   5.900  0.2284 -0.5999 -1.6246
 1023MOL0     H38040   3.328   2.961   5.739 -1.7230  0.8503  2.1660
 1023MOL0     H38041   3.328   3.068   5.599 -2.3322 -4.2105  0.0025
 1023MOL0     H38042   3.528   3.109   5.834 -0.8699 -2.1884  0.5659
 1023MOL0     H38043   3.539   3.195   5.683  1.1732  0.6333  1.6922
 1023MOL0     H38044   3.615   2.903   5.698  2.1667  0.7852  0.4985
 1023MOL0     H38045   3.698   3.044   5.674  0.3049 -1.7668  1.0173
 1023MOL0     H38046   3.659   2.920   5.463  0.0817  0.1561  0.2278
 1023MOL0     H38047   3.486   2.916   5.476 -0.3834  0.3609 -1.8940
 1023MOL0     H38048   3.477   3.146   5.389 -0.6800 -3.4195  2.2642
 1023MOL0     H38049   3.623   3.201   5.477 -0.5412  1.5604 -1.9918
 1023MOL0     H38050   3.694   3.222   5.268  0.5724  0.0523 -1.3580
 1023MOL0     H38051   3.778   3.078   5.320 -2.8047 -4.0182  0.8638
 1023MOL0     H38052   3.546   3.086   5.131  2.7859  1.3712 -1.3246
 1023MOL0     H38053   3.597   2.934   5.208  4.7171 -1.2742  0.5154
 1023MOL0     H38054   3.733   3.095   4.984  3.4513  0.1946  0.6726
 1023MOL0     H38055   3.837   3.012   5.086 -0.6182  0.5627  2.8523
 1023MOL0     H38056   3.782   2.950   4.785  0.5016 -1.6048 -1.8044
 1023MOL0     H38057   3.707   2.593   4.669 -1.8425  0.6838  1.4088
 1023MOL0     H38058   3.789   2.737   4.612 -2.9833 -1.3865 -0.1531
 1023MOL0     H38059   3.881   2.484   4.762 -2.3148  1.3189  0.8395
 1023MOL0     H38060   3.939   2.554   4.608  3.8473  0.2769  1.4774
 1023MOL0     H38061   3.995   2.670   4.888 -0.5704  1.8052 -0.7962
 1023MOL0     H38062   4.021   2.757   4.745  0.0097  0.2812  1.0232
 1023MOL0     H38063   4.221   2.639   4.837  0.0152 -1.5210  0.3080
 1023MOL0     H38064   4.180   2.602   4.666 -1.4894  1.9212 -0.0761
 1023MOL0     H38065   4.097   2.192   4.791  0.9150 -1.0889 -0.2482
 1023MOL0     H38066   4.063   2.049   5.005  1.4396  0.1207  0.9787
 1023MOL0     H38067   4.108   1.940   5.358  0.7814  0.0798 -1.2092
 1023MOL0     H38068   4.107   1.799   5.570 -3.2727  0.3862  4.3499
 1023MOL0     H38069   3.998   1.726   5.749  1.3818 -2.1373 -0.2230
 1023MOL0     H38070   4.165   1.700   5.787  0.0679 -0.8799  0.4010
 1023MOL0     H38071   3.921   1.753   5.969 -1.1442 -2.8102 -0.7059
 1023MOL0     H38072   3.999   1.609   5.964 -0.5470  0.2308  0.0481
 1023MOL0     H38073   4.083   1.690   6.168 -4.3572  2.2860  0.2004
 1023MOL0     H38074   4.216   1.730   6.054 -1.2041 -0.6259 -2.4734
 1023MOL0     H38075   4.030   1.930   6.159  0.0773  0.9366  0.5521
 1023MOL0     H38076   4.179   1.961   6.067  0.7478 -1.7767 -1.2330
 1023MOL0     H38077   4.313   1.886   6.228 -2.0799 -2.4874 -1.9195
 1023MOL0     H38078   4.181   1.849   6.348  1.5616 -1.5522 -0.1985
 1023MOL0     H38079   4.329   2.096   6.345  0.0716  0.8389  2.6361
 1023MOL0     H38080   4.183   2.131   6.242 -2.5289 -2.4081  0.4150
 1023MOL0     H38081   4.033   2.064   6.438  0.4324 -1.8453  0.1824
 1023MOL0     H38082   4.145   2.205   6.449  0.9440 -0.5085 -2.1480
 1023MOL0     H38083   4.190   1.940   6.582 -3.5247 -0.9641 -0.1868
 1023MOL0     H38084   4.289   2.076   6.608 -0.2078  0.2571  2.3575
 1023MOL0     H38085   4.112   2.170   5.802  3.2066  1.3656 -1.0713
 1023MOL0     H38086   4.088   2.295   5.604 -0.9339  0.0507 -0.4421
 1023MOL0     H38087   4.127   2.432   5.227  0.1608 -1.0245  1.3899
 1023MOL0     H38088   4.172   2.537   5.027  0.9835 -0.9202  0.0291
 1023MOL0     H38089   3.361   2.973   5.955 -3.3124 -1.2944 -0.1930
 1023MOL0     H38090   3.304   3.000   6.212  0.1630  1.9224  1.0686
 1023MOL0     H38091   2.907   2.844   6.440 -0.9778  0.3103 -1.6279
 1023MOL0     H38092   2.767   2.839   6.621  1.0790 -0.3644  0.0418
 1023MOL0     H38093   2.760   2.923   6.871  0.0373 -2.1786 -1.2908
 1023MOL0     H38094   2.603   2.865   6.828  0.8802 -0.1981 -3.8438
 1023MOL0     H38095   2.683   3.128   6.976  2.2057 -1.4872  0.9771
 1023MOL0     H38096   2.621   2.977   7.053  0.3441  0.4765  0.9087
 1023MOL0     H38097   2.403   3.003   6.977 -1.9847  2.3537 -0.2997
 1023MOL0     H38098   2.442   3.128   6.860 -1.6276  2.1405  1.0496
 1023MOL0     H38099   2.491   3.157   7.155  0.0017  0.8264 -1.1308
 1023MOL0     H38100   2.510   3.276   7.026 -0.7793  0.9354  1.1826
 1023MOL0     H38101   2.097   3.292   7.036  0.1048  2.1159 -0.6950
 1023MOL0     H38102   2.747   3.257   6.636 -0.2803 -0.3160 -0.9268
 1023MOL0     H38103   2.866   3.390   6.493 -0.7079  0.4402  0.1793
 1023MOL0     H38104   3.009   3.338   6.403 -0.3441 -0.9919  1.8205
 1023MOL0     H38105   2.850   3.329   6.330  2.8943  1.0828 -0.7531
 1024MOL0     O38106   0.469   6.191   5.324  0.3065  0.0682 -0.9091
 1024MOL0     C38107   0.374   6.110   5.335 -0.6860 -0.2557 -0.1374
 1024MOL0     O38108   0.386   5.980   5.355 -0.8658 -0.0587 -0.7979
 1024MOL0     C38109   0.509   5.923   5.348 -0.0141  0.3312 -0.8460
 1024MOL0     C38110   0.552   5.857   5.230 -0.8033  0.5216  0.4959
 1024MOL0     C38111   0.677   5.789   5.220  0.0109  0.4934  0.9677
 1024MOL0     C38112   0.747   5.777   5.345 -0.0135 -1.1256 -0.0576
 1024MOL0     O38113   0.874   5.725   5.342 -0.7057 -0.0972  0.8491
 1024MOL0     C38114   0.889   5.589   5.347 -0.1969 -0.9499  0.2097
 1024MOL0     C38115   0.930   5.531   5.476  0.4630 -0.4465 -0.0157
 1024MOL0     C38116   1.081   5.531   5.511 -1.1375  0.2355 -0.8520
 1024MOL0     C38117   1.151   5.668   5.492 -0.8522  0.8902 -0.1305
 1024MOL0     C38118   1.114   5.777   5.589 -0.1342  0.2215  0.6562
 1024MOL0     C38119   1.217   5.880   5.602 -0.7144 -0.0416 -0.3050
 1024MOL0     C38120   1.185   5.997   5.700 -0.2945  1.0410 -0.6364
 1024MOL0     C38121   1.161   5.957   5.850 -0.1894  0.7740 -0.1681
 1024MOL0     N38122   1.265   5.864   5.898  0.1625  0.5530 -0.1052
 1024MOL0     C38123   1.349   5.904   5.999 -0.9669  0.4799 -0.7773
 1024MOL0     C38124   1.414   5.790   6.039 -0.1271  0.1556 -0.1392
 1024MOL0     C38125   1.494   5.766   6.160 -0.2116 -0.0980 -0.0758
 1024MOL0     C38126   1.399   5.750   6.280  0.2021 -0.0821  0.6881
 1024MOL0     C38127   1.439   5.635   6.365 -0.0498 -0.1950 -0.3261
 1024MOL0     C38128   1.338   5.591   6.458  0.4827  0.5542 -0.9362
 1024MOL0     O38129   1.376   5.467   6.528 -0.1654  0.0313 -0.3969
 1024MOL0     C38130   1.285   5.403   6.607  0.2837 -0.5559 -0.1182
 1024MOL0     C38131   1.173   5.469   6.658  1.2355  0.0475 -0.7004
 1024MOL0     C38132   1.097   5.404   6.755  0.5073  0.0733  0.6841
 1024MOL0     C38133   1.125   5.268   6.792  0.1718 -0.5002  0.8352
 1024MOL0     C38134   1.039   5.204   6.895 -0.6229  0.1591 -0.0993
 1024MOL0     O38135   1.032   5.066   6.918 -0.7404 -0.0982  0.0768
 1024MOL0     C38136   0.986   5.023   7.037  0.4361  0.0248  0.6387
 1024MOL0     C38137   0.861   5.043   7.101  0.1393 -0.3590  0.0326
 1024MOL0     C38138   0.840   4.994   7.226  0.1087  0.6662 -0.0394
 1024MOL0     C38139   0.943   4.933   7.296  0.9376 -0.6839 -0.8637
 1024MOL0     O38140   0.910   4.872   7.416  0.2457 -0.1756 -0.2460
 1024MOL0     C38141   1.004   4.867   7.524 -0.5575 -0.3618  0.6097
 1024MOL0     C38142   1.087   4.744   7.544  0.4141  0.7718  0.1568
 1024MOL0     C38143   1.166   4.752   7.676  0.3215 -0.6121 -1.2454
 1024MOL0     C38144   1.274   4.642   7.681  1.2205 -0.1796 -0.7928
 1024MOL0     C38145   1.414   4.685   7.662 -0.4822 -0.3138  0.3008
 1024MOL0     C38146   1.447   4.791   7.552  0.2806  0.4331 -0.4555
 1024MOL0     C38147   1.596   4.790   7.501 -0.4449 -0.4697  0.3523
 1024MOL0     C38148   1.706   4.828   7.598  0.1988  0.1938  0.4399
 1024MOL0    Cl38149   1.661   4.992   7.667 -0.1686  0.2555  0.2371
 1024MOL0     C38150   1.068   4.915   7.241  0.2507  0.2152 -0.7374
 1024MOL0     C38151   1.097   4.961   7.111  0.5980  0.5857  0.1285
 1024MOL0     O38152   0.993   5.291   6.971  0.2312 -0.0851  0.0467
 1024MOL0     C38153   1.232   5.196   6.724 -0.3347  0.1686  0.0708
 1024MOL0     C38154   1.321   5.264   6.634  0.5943 -0.2268 -0.2941
 1024MOL0     N38155   1.388   5.686   5.945 -0.2584 -0.0542  0.0993
 1024MOL0     N38156   1.288   5.736   5.875 -0.3002  0.7920  0.4505
 1024MOL0     C38157   0.704   5.842   5.463  0.0171 -0.6913 -0.1105
 1024MOL0     C38158   0.587   5.905   5.459  0.4669  0.8770  0.4371
 1024MOL0     C38159   0.240   6.167   5.321 -1.0273 -0.0357 -0.7820
 1024MOL0     C38160   0.153   6.161   5.425  0.0051  1.1567  1.4475
 1024MOL0     C38161   0.025   6.213   5.416  0.4601 -1.1877  0.3462
 1024MOL0     C38162  -0.014   6.283   5.297 -0.2642 -1.2502 -0.7868
 1024MOL0     O38163  -0.134   6.351   5.284  0.3058 -0.6450 -0.2455
 1024MOL0     C38164  -0.246   6.315   5.379 -0.0708 -1.4989  0.4772
 1024MOL0     C38165  -0.366   6.372   5.315  0.2731  0.0671 -0.6171
 1024MOL0     C38166  -0.487   6.339   5.396  1.3109  0.2775 -1.3839
 1024MOL0     C38167  -0.543   6.195   5.391  0.3636  0.1417  0.1789
 1024MOL0     C38168  -0.566   6.153   5.250 -0.3365  0.1445 -0.7867
 1024MOL0     C38169  -0.583   6.127   5.137 -0.5328  0.5056  0.2452
 1024MOL0     C38170   0.086   6.288   5.189  0.1080 -0.3474  0.8315
 1024MOL0     C38171   0.211   6.233   5.200  0.3476  0.5691  0.5822
 1024MOL0     C38172   0.300   6.220   5.075  0.0794  0.4015  0.6028
 1024MOL0     H38173   0.480   5.837   5.151 -1.4767 -2.4543  1.7628
 1024MOL0     H38174   0.722   5.763   5.125  3.5174  1.2867  2.2621
 1024MOL0     H38175   0.800   5.534   5.317  0.7409 -1.8211 -1.0930
 1024MOL0     H38176   0.967   5.562   5.275 -0.5998  1.5719 -1.2969
 1024MOL0     H38177   0.900   5.428   5.495  0.7332 -0.4700  0.3041
 1024MOL0     H38178   0.879   5.595   5.549 -1.3069 -0.3136 -1.3132
 1024MOL0     H38179   1.148   5.477   5.443 -0.2604  1.5244 -1.0313
 1024MOL0     H38180   1.109   5.494   5.609  3.3032 -2.4937 -2.8504
 1024MOL0     H38181   1.259   5.649   5.493 -0.6324  2.0072  1.2072
 1024MOL0     H38182   1.143   5.708   5.391  2.7051  2.7249  0.1762
 1024MOL0     H38183   1.025   5.831   5.554  1.8393  1.1596 -3.6372
 1024MOL0     H38184   1.097   5.729   5.685 -2.0575 -2.4393 -0.8995
 1024MOL0     H38185   1.305   5.823   5.631 -1.2630 -1.6004 -1.5718
 1024MOL0     H38186   1.217   5.930   5.505 -0.1153  0.3286 -0.1184
 1024MOL0     H38187   1.096   6.053   5.671  0.5881  1.7452 -2.1182
 1024MOL0     H38188   1.273   6.060   5.694  0.8255 -0.4256 -0.2490
 1024MOL0     H38189   1.146   6.036   5.923  0.1800 -1.1481  2.1307
 1024MOL0     H38190   1.064   5.906   5.845 -0.3781  1.0228  0.8772
 1024MOL0     H38191   1.374   6.000   6.043  3.6947 -0.6362 -0.4504
 1024MOL0     H38192   1.566   5.686   6.141  0.5762 -0.1146  2.5612
 1024MOL0     H38193   1.566   5.848   6.176  2.7101 -2.5454  0.2837
 1024MOL0     H38194   1.392   5.840   6.341 -0.0467  0.0958  0.3956
 1024MOL0     H38195   1.302   5.723   6.238  0.0613 -0.6388  1.3652
 1024MOL0     H38196   1.526   5.658   6.428 -0.2635 -0.0326 -0.0882
 1024MOL0     H38197   1.459   5.546   6.304  0.1161 -0.2337 -0.2173
 1024MOL0     H38198   1.248   5.570   6.401  1.5029  1.2884 -2.8932
 1024MOL0     H38199   1.325   5.672   6.531  1.9313 -1.0806  1.2875
 1024MOL0     H38200   1.163   5.577   6.649  0.8438 -0.0130 -1.0357
 1024MOL0     H38201   1.026   5.462   6.814 -2.2441 -0.9536 -1.4093
 1024MOL0     H38202   0.791   5.097   7.038  0.6676  1.8103  1.1895
 1024MOL0     H38203   0.743   5.017   7.268 -0.1047 -2.5085  1.4975
 1024MOL0     H38204   1.069   4.954   7.509 -0.4578 -0.9176 -3.3929
 1024MOL0     H38205   0.942   4.872   7.614  1.9615 -4.1549  2.8295
 1024MOL0     H38206   1.025   4.655   7.531  2.4915 -0.6344 -0.7195
 1024MOL0     H38207   1.159   4.737   7.462  0.7770  1.5690  0.3925
 1024MOL0     H38208   1.208   4.854   7.680  1.2845 -1.0019 -1.1171
 1024MOL0     H38209   1.094   4.736   7.756 -1.3185  2.3531 -1.9592
 1024MOL0     H38210   1.252   4.565   7.607 -1.8142 -1.1690  0.9466
 1024MOL0     H38211   1.267   4.589   7.777  1.3031  0.6447 -0.3225
 1024MOL0     H38212   1.478   4.598   7.642 -0.5592 -0.0291 -1.4177
 1024MOL0     H38213   1.457   4.733   7.750  0.8136 -1.3729  0.2794
 1024MOL0     H38214   1.387   4.777   7.462 -0.7359  1.8735 -0.0255
 1024MOL0     H38215   1.417   4.890   7.585  0.6207  0.3603  0.0899
 1024MOL0     H38216   1.595   4.860   7.417 -0.7473 -1.6862 -0.7078
 1024MOL0     H38217   1.605   4.692   7.453 -0.5599  0.7496 -2.3223
 1024MOL0     H38218   1.710   4.743   7.667  1.6379 -1.5621 -1.6380
 1024MOL0     H38219   1.801   4.838   7.545 -0.6294  0.5573 -1.0399
 1024MOL0     H38220   1.154   4.878   7.296 -1.2133 -2.0807  0.1660
 1024MOL0     H38221   1.197   4.949   7.072  1.6309 -2.3255  3.1865
 1024MOL0     H38222   1.245   5.090   6.740 -2.4042  0.0581  1.3272
 1024MOL0     H38223   1.414   5.217   6.603  1.3839  2.3140 -2.1611
 1024MOL0     H38224   0.763   5.838   5.554 -0.4705  0.9083  0.3130
 1024MOL0     H38225   0.556   5.954   5.551 -1.9953 -2.1700  1.4194
 1024MOL0     H38226   0.181   6.102   5.512 -0.5849  0.8233  1.4196
 1024MOL0     H38227  -0.040   6.209   5.503  0.3688 -1.0606  0.2836
 1024MOL0     H38228  -0.215   6.373   5.467  2.2451  2.0739 -2.4237
 1024MOL0     H38229  -0.257   6.207   5.398 -0.2396 -1.4542  0.6404
 1024MOL0     H38230  -0.387   6.314   5.225 -2.5449 -1.0805  0.6387
 1024MOL0     H38231  -0.360   6.476   5.281 -0.6116  0.1040 -0.6764
 1024MOL0     H38232  -0.563   6.412   5.368  1.3056  0.5300 -0.7172
 1024MOL0     H38233  -0.468   6.359   5.502 -1.5034  2.7407 -1.2072
 1024MOL0     H38234  -0.471   6.128   5.437 -0.9435  1.3671  4.4573
 1024MOL0     H38235  -0.628   6.196   5.459  0.5828 -5.6500  1.0018
 1024MOL0     H38236  -0.610   6.114   5.034 -1.3759  1.3006  0.3525
 1024MOL0     H38237   0.051   6.335   5.098 -0.4853 -3.1519 -0.5134
 1024MOL0     H38238   0.356   6.313   5.061  1.0139 -0.6151 -4.9964
 1024MOL0     H38239   0.371   6.137   5.082  1.0343  0.8287 -2.3014
 1024MOL0     H38240   0.233   6.184   4.996 -0.3641 -1.6841  1.8523
  11.50927  11.50927  11.50927
